/*--------------------------------*- C++ -*----------------------------------*\
  =========                 |
  \\      /  F ield         | OpenFOAM: The Open Source CFD Toolbox
   \\    /   O peration     | Website:  https://openfoam.org
    \\  /    A nd           | Version:  7
     \\/     M anipulation  |
\*---------------------------------------------------------------------------*/
FoamFile
{
    version     2.0;
    format      ascii;
    class       volScalarField;
    location    "7000";
    object      omega;
}
// * * * * * * * * * * * * * * * * * * * * * * * * * * * * * * * * * * * * * //

dimensions      [0 0 -1 0 0 0 0];

internalField   nonuniform List<scalar> 
34222
(
535.97689
455.72294
527.76836
422.31521
422.18445
450.94136
452.99286
412.2085
455.67534
398.30762
398.81363
417.22093
416.50076
530.97469
453.55723
424.13629
423.78225
452.19259
401.01802
395.97942
408.44467
410.8243
2303.205
412.97785
368.74978
390.33304
373.08716
372.63839
389.73816
456.18734
418.16955
399.79815
399.87805
417.92994
378.5857
384.96185
392.43515
386.29486
531.66031
454.17457
423.3136
425.27212
454.30664
419.92366
407.19454
407.17678
418.67532
467.59195
467.62214
487.75077
480.29331
4579.8183
4121.5769
4230.6505
2331.9114
823.39056
839.73714
413.34338
369.38848
391.06064
373.85562
373.5527
390.72094
352.06565
363.69919
363.38949
351.42275
376.57737
368.05706
363.85569
371.04556
856.16086
869.92848
456.3151
401.04055
399.08682
417.49948
419.00559
395.84435
386.84958
385.9089
395.5279
453.41053
456.34315
459.87491
460.87179
421.52836
425.34038
454.17093
451.26383
415.64962
404.64952
406.40197
417.25042
495.33591
476.53678
477.85524
488.7748
599.98465
651.66387
653.39445
620.68366
1212.2879
9488.677
1214.8671
4475.6732
9439.6775
7480.5024
13274.3
1877.1334
7920.5137
1943.825
7895.8927
7916.8154
1958.68
4328.1714
1962.7443
4245.5566
853.27001
837.78927
2338.8507
755.51678
685.97944
413.27587
693.22732
369.71674
390.25555
372.91328
374.40643
391.73756
762.85447
352.45367
352.63536
364.39726
364.15839
378.5752
370.33361
367.52529
376.25694
349.49028
359.39586
354.51742
346.89534
452.67937
442.61783
436.1318
447.31354
2071.1682
4972.3582
2159.6102
2168.4792
2156.3722
874.32098
859.71125
454.37052
397.63055
401.10582
419.13697
415.6091
387.99596
386.50652
394.80821
396.44643
458.97246
446.85701
454.11412
463.07185
639.2964
599.46824
595.00261
662.37769
402.37449
406.47868
416.96261
413.96245
485.8767
474.64896
485.44904
495.43069
638.03335
600.90136
593.45608
629.60367
541.37698
541.70786
1956.0714
657.19192
662.00626
1970.8901
4541.1709
32463.206
18993.496
4516.1754
19086.908
1221.9265
1954.6957
655.98236
659.68064
1983.4795
1222.0243
4449.1134
9140.4598
9275.1677
4527.2816
4583.6316
18619.952
19263.565
12315.058
13097.114
4372.8617
4275.0042
20503.471
22636.564
8248.889
7992.6991
4592.6842
13568.166
13534.498
4615.2793
13427.196
13370.421
4603.6249
4641.8312
13242.642
13775.809
4490.1468
4606.3591
8007.1796
1981.2032
8170.9598
1994.7334
4214.4264
1925.7263
7861.2655
1950.8896
8038.796
835.3436
853.58238
4369.1088
5182.5447
4686.9173
1882.8044
4813.8682
1874.8357
4716.8224
1953.3715
1953.2528
1402.6081
3433.9758
1564.1021
4059.911
4219.2478
1617.1227
1444.8312
572.95723
686.40709
754.3609
694.10252
411.8832
389.20659
372.1864
369.69835
374.24407
391.6604
765.8938
1619.807
1452.5141
1623.2056
1445.3137
576.47789
353.63009
353.04415
364.24839
365.25965
378.21238
369.90468
370.97595
379.58405
1950.6297
1965.4835
1955.466
1948.0381
348.92982
349.88123
359.51345
358.80409
441.04284
438.93107
432.3409
443.37649
409.41264
432.17088
411.73031
398.62942
592.69311
567.53198
556.95925
606.57572
4806.6307
4939.6245
8856.0157
9071.7235
5201.5298
5178.996
5221.3056
5192.5393
5171.1836
5029.1325
2167.486
2184.8579
2102.6481
853.52797
2136.9135
868.90576
414.73841
415.13144
398.02519
397.41713
384.69259
389.29663
396.98094
392.5935
450.1458
440.6188
457.47441
467.1525
564.36915
563.75886
583.07471
581.58265
466.08673
474.71428
484.52205
476.20311
600.36435
574.60475
612.80213
624.22335
539.86817
540.51669
2136.1172
679.68968
682.72257
2154.7874
3528.5416
6758.8764
6717.7089
3527.3859
13076.092
18400.752
28948.141
28635.405
47575.109
33027.551
48867.8
13183.998
33387.801
3511.6383
3493.7656
6674.1157
6742.994
13068.648
13174.657
33217.584
33850.479
1988.6541
660.73473
658.90644
1964.2729
2133.814
676.63865
682.27863
2170.0402
1216.4525
659.0866
662.10536
1972.343
1975.4145
1188.124
9085.0614
9163.0037
4568.0118
4567.4998
18314.237
18527.589
4578.046
4528.8453
18576.588
18647.277
3500.5267
3524.3773
6722.4462
6730.5574
3545.2755
3572.4271
6838.3387
6762.1686
13014.961
13122.746
32599.347
33276.545
13198.327
13340.843
34061.153
33636.956
19770.205
19670.82
7736.6933
7770.9752
21079.55
21471.914
8125.0245
8061.4231
37052.136
35388.014
11453.174
11631.809
40422.41
38507.623
12022.303
12692.999
21866.56
22055.943
8455.8836
8372.9583
21568.232
21890.663
8536.9924
8469.2026
21069.602
21963.646
8476.7614
8419.8824
21420.332
21420.113
8488.3971
8460.9589
20781.679
21675.288
8158.9275
8069.3075
13448.031
22397.784
22158.534
8506.1229
8462.3136
4553.1125
4613.9994
13825.151
14036.15
13859.266
4667.9811
4686.3983
7715.0979
7952.0731
1935.196
1906.9249
13158.413
4401.6742
13686.511
4513.2411
13742.647
13760.605
4570.058
4604.7526
8071.8372
8222.16
1995.2777
1994.9274
5009.0264
9886.6914
10113.246
9122.6458
9323.2147
9482.639
8520.5115
9680.226
8701.577
4555.6177
5168.4203
4665.2661
9937.2809
9501.5268
10206.554
9752.05
4653.4542
4579.0375
4800.8086
4705.2642
10086.423
9414.7965
10341.606
9647.2524
5446.8391
4926.9603
5415.4571
4891.6385
4930.7547
5023.9271
5054.6705
4967.9527
3101.9488
3035.4578
3411.3659
3332.6464
1167.7471
7007.4846
8169.8974
8400.9389
8290.957
8531.1514
4044.3552
4206.3898
4096.8661
3929.3074
9792.9703
9604.8295
10374.98
9408.4864
9140.8859
8972.0682
9233.8651
9687.6248
9292.2237
9966.9279
9555.01
4398.932
4435.9962
4220.0583
4251.9469
3228.6788
3248.8179
3556.5358
3589.5769
1191.1056
1044.4725
1422.5551
1429.2631
1595.6506
1578.7603
573.75912
681.07228
1929.6976
1899.5991
1894.7747
1921.9127
747.25577
1623.4754
1445.0559
1454.7936
1624.4034
576.93169
757.99513
368.43205
685.68325
372.20257
389.11404
388.6445
371.72576
376.35144
367.78923
363.51128
353.43389
352.06623
365.03984
370.99806
380.13324
1960.6564
1952.7645
1970.8636
1962.7549
4299.8474
4251.7047
4144.5897
4423.5505
3583.7401
3509.5336
3209.4815
3246.116
1202.3352
4428.0884
4297.1013
4255.1319
4472.6099
3632.9327
3585.3152
3246.7764
3297.7208
1193.7437
1054.5604
1038.5811
352.36553
351.8414
360.98644
361.76172
432.8743
428.96531
435.54904
442.63421
5412.411
5245.2185
4747.5862
4889.4481
4909.0524
5465.3703
5431.9638
4949.0852
4950.0997
5049.7689
5089.3396
4993.0293
4787.1332
5043.1054
4892.6054
4937.6839
403.67796
405.39067
422.00015
423.12939
569.33446
553.44159
558.85822
580.5503
485.21402
528.56043
484.25153
437.22009
8610.5656
8598.206
8954.3034
9018.5075
12127.628
12368.5
12961.19
12721.239
9404.1369
9456.7526
9249.5503
9388.6823
9413.0944
9389.1193
9357.7954
9412.4615
9348.416
9413.85
5086.1369
8899.8569
9023.4167
5173.9709
5235.0111
5223.5154
2074.0816
4908.8506
5033.9086
2107.3363
5100.0332
5130.5411
2168.6884
2170.3507
390.27538
393.68149
385.38981
382.25748
440.33159
448.91251
460.20788
453.9438
600.49554
540.68789
551.97144
609.70386
570.15359
576.26941
599.52639
583.85254
540.67153
540.64201
2238.0878
4027.7117
4055.4914
667.50162
670.98397
2259.252
4055.4223
4083.1837
7461.0422
7408.155
15637.893
12560.824
12428.433
18758.461
18460.04
18936.096
18990.061
23457.603
23265.695
27342.974
27586.267
40350.41
29423.573
40750.269
27809.688
27608.128
40714.629
41307.74
63252.921
47469.784
53135.138
54157.573
63345.792
30384.656
47769.436
65027.906
64675.35
54438.098
58223.509
12574.976
12628.592
18675.405
18848.637
30210.773
48601.63
29848.684
48198.843
7360.7033
7443.1294
18559.099
18799.064
12520.75
12451.297
12644.398
12533.348
18634.654
18871.117
29109.607
30178.251
48644
49142.268
30494.644
48940.255
29887.317
48762.492
2171.0853
684.15121
678.61512
2144.2302
2237.0121
4067.386
4036.0774
664.16804
671.32357
2270.3546
4129.0884
4070.7058
1938.6488
658.25729
662.44785
1975.5403
681.21533
683.88067
2153.4198
2159.5446
1868.2005
659.19922
655.77899
1904.7944
4389.7601
4449.8798
18232.242
18481.902
4574.7872
18410.684
18412.752
4502.8416
3538.0676
3561.8638
6761.62
6778.9337
6815.9226
3570.5983
3525.0139
6717.8613
12998.567
13035.642
32382.106
32883.934
12946.997
33027.717
13094.996
32765.568
6743.2111
3552.6418
3568.4099
6821.3083
6680.2054
3500.5472
3529.9916
6738.7198
12979.228
33047.945
12981.976
32661.673
13017.928
13098.284
32908.805
33178.391
7415.7792
7425.2124
7545.1949
7450.2873
12461.273
12488.311
18378.807
18571.728
12642.949
12503.104
18755.989
18585.648
28965.375
29559.306
47706.428
48558.305
29830.454
29571.588
49193.606
48846.229
12673.605
12508.644
18609.289
18897.77
12707.596
12717.151
18832.237
18924.11
30559.307
31053.986
48692.238
49424.561
30590.853
48826.412
29853.762
48638.083
34848.37
35063.388
11235.966
11205.039
34455.091
34870.402
11125.992
11202.43
11679.771
36664.119
37991.86
11775.966
37494.518
38649.471
11945.224
11854.109
39597.417
37897.872
40174.09
40718.117
11969.834
36665.273
39238.622
12394.352
12397.567
39272.647
38788.679
12335.562
12261.011
38199.052
37930.078
12234.445
12346.71
38813.975
38030.768
12325.313
36969.467
37024.978
12097.15
12013.743
38829.07
38868.563
12274.238
12335.196
37713.461
37961.393
12204.876
12186.687
12163.685
37950.435
37181.193
12198.832
36818.207
35632.547
21219.618
11580.989
11634.553
38157.454
38034.544
11920.358
12002.598
8217.6457
22067.99
8300.8635
39773.847
38977.583
12325.725
12399.089
38372.408
39528.68
12423.882
12303.981
22193.61
22581.599
8492.3501
8444.1561
22839.906
22504.675
8595.3854
8600.5784
21957.483
22651.538
8517.6661
8435.0719
13309.949
4382.5417
13021.966
4362.2758
13920.588
4566.7029
13315.718
4455.262
7906.8343
20700.176
21566.924
8025.2276
22268.297
22052.675
8310.3427
8333.2729
22009.45
22439.253
8361.7835
8383.5585
8401.9692
22418.943
21991.029
8397.2389
4584.9588
13516.085
14058.308
4658.3399
14235.097
13982.19
4723.9606
4679.8119
9646.8002
8894.1739
9575.5967
8868.0518
13869.265
13206.46
13304.08
13987.478
14320.009
13595.895
14418.643
13701.26
12740.288
13495.493
12666.889
13579.941
13973.7
13100.906
13869.871
12991.376
9202.1302
12903.257
12221.574
12282.993
12966.119
8299.5827
12432.755
11681.725
11795.74
12496.589
13220.99
13325.934
12520.532
12622.056
12744.31
12846.182
12059.061
12168.43
9244.5671
8297.8477
10032.666
9248.3257
10181.538
9370.0633
9608.3712
8618.2925
9709.5995
8698.883
9636.1544
14942.971
15088.895
14378.993
14529.969
15067.995
9233.4479
14374.886
14903.907
14208.256
15112.309
15541.179
14943.462
15729.71
15496.197
14759.465
14907.748
15649.529
9717.8549
9281.9016
9851.9305
9770.1116
9191.6575
9147.3672
10065.635
10311.023
9630.7811
9845.7471
10229.57
9557.9239
10432.225
9730.3224
14671.895
14033.504
14216.976
14853.428
13705.891
14388.467
13564.501
14587.04
14716.014
15255.186
14589.212
15390.62
14973.457
14037.304
14144.235
15085.873
10592.065
9755.914
10687.596
9847.3971
10119.975
10192.492
9067.7054
9137.3496
10353.014
9552.8201
10592.592
9745.1387
9912.2554
8899.8407
10099.861
9046.6574
10562.719
9872.6121
10859.057
10120.117
10388.448
9951.6182
10735.94
10249.289
10654.12
10192.092
10778.457
10320.377
10818.908
10102.881
10932.31
10220.526
7053.3626
7351.1551
2668.5438
5942.2566
6211.7727
6860.3646
6836.356
2636.1594
5754.3468
5772.4731
8245.2961
8566.1561
8379.9543
8679.9979
8018.171
7965.2689
8136.5741
8100.8556
2527.1921
19566.405
19605.958
17871.793
17940.292
18748.361
18235.551
16631.774
16702.208
18289.442
19118.565
17407.8
17536.183
19206.167
17054.315
15715.91
15793.628
17120.114
17858.452
16424.169
16568.33
17973.9
9242.4048
9077.9982
9551.5313
9361.7882
9803.2661
10090.036
9409.7035
9664.3216
9490.4017
9412.9392
9092.2891
9045.7635
8968.5652
8792.7035
8902.3074
8748.521
17659.59
16614.5
16644.262
17623.916
17194.06
16232.314
17150.037
16199.15
16051.287
16779.774
16079.586
16734.661
17022.043
16882.633
16035.252
15874.168
16226.786
16147.218
15205.939
15296.746
15793.498
14920.041
15692.403
14809.643
16387.554
15437.364
15626.268
16553.64
15291.349
15411.182
14651.951
14779.128
15315.128
14575.941
15176.148
14434.367
15459.872
15941.202
15257.108
16136.884
15807.019
15012.835
15214.338
16011.964
10108.007
10505.264
9714.1862
10058.749
10380.647
9963.0564
10517.577
10103.859
9498.584
9352.9288
9928.6559
9738.8529
9771.6503
9610.6148
9760.2222
9913.3524
7235.937
7613.9629
2782.2409
6112.5088
6438.8904
7482.9925
7645.8134
2794.9887
6338.6971
6508.5942
8448.3493
8603.0523
8880.7882
9009.5607
8719.2522
8862.0537
8870.7787
9016.0108
2636.4111
2631.6414
2284.3088
2108.7901
2091.3122
2277.2523
1408.7457
3144.2664
3123.8896
3410.1931
1182.0884
3456.8619
3178.7924
3499.171
3551.4083
3231.5276
1183.2354
4318.0779
4202.0124
4143.9077
4369.233
4102.8416
4266.3852
1560.3149
4177.757
4024.5593
1037.1685
1044.8704
569.68371
1566.6668
1402.3406
4810.1382
5346.5203
5308.0239
4844.8324
5245.0616
4744.6231
5107.7472
1874.733
4629.7413
4873.6571
4773.7729
1869.9386
4659.2051
4755.9579
4836.5303
4923.1812
4975.6579
4878.7044
1898.7699
1887.3393
4453.6735
4267.0051
4275.3876
4445.2574
3594.8091
3601.242
3260.217
3254.3337
1190.0082
3240.0274
3263.5923
3582.5265
1205.6046
3543.8246
4179.1294
4407.3419
4238.2671
4346.6545
1036.8409
1053.4241
1933.4991
1936.0213
1955.1375
1951.7186
363.18625
363.35985
351.80499
352.12148
1592.3051
1408.7734
367.80783
376.08311
373.95707
365.6993
433.70981
425.21666
359.16917
351.84713
349.37948
360.84386
437.85784
442.10698
4974.96
5076.3726
5070.417
4975.6195
4941.9651
5021.6165
4921.8552
4849.0515
5457.2902
5451.4642
4933.9766
4943.4969
4884.6159
5395.9853
5303.14
4813.464
9846.5397
9428.4749
10119.691
9663.8754
9888.954
9945.6905
9695.7702
9771.7168
9299.0401
9127.053
9583.246
9382.9466
10455.121
10000.38
10541.641
10104.568
8840.2025
8967.7413
8880.1111
9022.4721
8312.0474
8434.5884
8569.6374
8687.9667
7131.8709
7331.4406
2786.4669
6036.051
6182.8689
7573.9317
7616.0692
2789.4136
6443.5514
6407.1613
2664.4428
2628.8635
10434.414
10541.258
9999.6785
10093.71
10010.378
9893.1516
9803.5391
9726.9572
9845.0232
9670.419
9963.5688
9775.5867
10568.223
10478.947
10108.573
10057.142
8989.8244
9094.8445
8851.6255
8993.3561
8791.4867
8929.8754
8915.7003
9045.8138
7538.0251
7646.6912
2784.9008
6390.2756
6475.3875
7725.2643
7616.8261
2840.0779
6560.2336
6467.0876
2620.525
2678.1892
2324.3272
2163.1396
2093.4218
2275.5251
2124.8575
2075.2217
2260.6294
2315.7497
1855.0169
413.04751
410.15712
422.4549
426.247
547.50304
558.03245
588.24006
597.30249
10514.606
10633.311
9673.8249
9777.8251
9933.1831
9165.7604
10117.863
9311.909
9513.728
8561.3967
9662.4383
8674.0655
10027.628
8991.5272
10129.652
9073.8932
10084.134
10140.379
9036.3647
9081.8514
10642.422
10581.848
9790.5249
9756.9394
10561.788
9727.7533
10630.323
9784.6213
10149.832
10101.242
9086.522
9069.7991
10808.599
10084.72
10892.668
10155.508
10674.258
10197.142
10770.807
10280.995
10787.623
10291.252
10719.63
10252.189
10906.81
10846.306
10161.958
10125.49
10169.842
9478.8254
10389.232
9661.5849
10671.236
10178.242
10784.326
10298.309
9604.5304
10059.715
10307.405
9813.671
10782.906
10041.359
10908.56
10164.257
484.28535
480.76395
516.60953
526.70066
11924.932
11891.856
11865.006
11820.109
12370.128
12506.378
12687.363
12567.282
13016.75
12980.102
13116.102
13038.459
12635.968
12932.935
13155.1
13087.494
12953.792
12945.649
12919.697
12896.953
12800.664
12736.095
13034.591
13063.113
13002.234
13107.65
13153.313
13010.393
9177.3316
9047.89
12189.305
12284.224
12603.367
12642.824
9313.9586
9376.9552
9461.0182
9491.2697
9404.1915
9310.527
4885.192
4854.2221
8711.5095
8868.2388
9154.4361
9180.7479
5077.1146
4962.8903
9220.3303
9241.0058
9266.5817
9240.1233
5189.7463
5119.1279
5216.6565
5272.0105
454.89757
461.15392
446.12168
439.75391
561.49692
545.3708
554.97373
560.96718
541.98184
542.40475
4036.0404
3999.7543
2240.6722
4731.5272
4695.2328
4038.5016
4060.0497
2263.5153
4769.5761
4725.1205
8187.5321
6259.0719
6272.5338
10430.181
10501.571
15814.078
15974.724
6231.2084
6212.289
10425.886
10336.161
15890.824
15628.834
11324.351
16636.738
21263.332
21432.415
19341.935
19315.541
23806.915
23934.824
19006.443
18927.894
23550.295
23330.522
25512.54
25247.916
27487.087
29278.717
29593.997
55996.087
41260.439
27794.382
41959.536
56549.85
29819.901
29586.414
56177.484
58417.295
96204.677
64316.547
64060.308
53220.136
52880.516
58128.352
58985.594
95480.88
40848.521
28062.777
28214.086
40969.952
55359.934
57945.171
57666.844
55788.885
97353.603
96026.329
58576.386
59717.274
23584.372
19182.826
23841.953
19259.731
19425.177
19401.358
23910.679
24009.227
28244.4
28115.419
42408.994
42190.461
64930.611
65923.57
54437.157
53828.048
41075.377
27697.136
41793.125
28052.339
54047.122
63410.48
53909.172
65190.255
6167.0071
6175.4809
10279.779
10387.312
15875.779
15667.859
6261.1507
6222.4568
10460.646
10425.302
15777.431
15991.565
23487.819
19051.518
19112.645
23746.245
24016.128
19364.742
23911.791
19341.582
19189.565
23732.151
23566.872
19130.729
19460.714
19436.58
23931.797
24065.794
40463.578
27629.003
28012.916
42039.147
42767.979
28377.929
28143.53
42166.679
53429.915
64326.83
65504.042
56905.7
55426.512
65621.237
65316.749
54520.292
28130.042
28287.048
40730.431
41236.072
56681.522
60137.999
57829.805
57796.48
42191.419
27902.491
27667.337
41343.266
54036.031
65195.12
65124.629
54189.808
2268.0974
4117.3452
4086.6583
672.58785
667.00332
2245.0762
4036.4266
4062.777
4011.9744
4041.3361
4756.7968
4697.4585
4051.0816
4106.152
4820.0496
4733.2412
2118.0007
680.11881
683.1979
2161.2316
669.27919
670.95032
2252.3435
4097.5521
4073.2774
2258.6338
4045.1053
4123.9288
2040.3665
679.70515
678.07326
2086.8797
3381.4647
3417.2966
6556.101
6556.4428
3454.3756
3459.7697
6642.226
6627.4424
12773.447
12765.147
32537.45
32913.755
12869.467
12838.996
33109.183
32901.027
3564.43
3546.2964
6769.5466
6796.2404
12911.454
12963.817
32623.444
32940.432
13073.251
13015.838
32816.403
32471.158
3481.7203
3508.8082
6698.7504
6686.0501
7454.7333
7478.2
7522.5481
7401.2932
12486.807
12458.13
18275.606
18398.407
12624.155
12444.112
18519.548
18279.732
28710.828
47611.831
29322.983
48252.553
29028.326
29427.911
48830.566
48472.794
12347.968
12524.127
18417.251
18171.315
29209.132
29564.224
48527.874
48842.053
12552.123
12604.236
18405.087
18467.285
29271.985
28672.569
48690.418
48269.038
7430.8211
7524.4714
7364.5167
7431.2604
12554.498
12393.922
18272.058
18513.685
28998.074
48702.871
48965.668
29361.668
12457.537
12434.015
18323.015
18476.009
29311.45
48608.806
28753.105
47931.127
12487.875
12482.259
18304.659
18449.441
12504.727
12676.807
18577.798
18330.095
28987.93
29378.172
48837.651
48328.767
49149.499
48739.059
29567.864
29004.692
6231.563
6245.8543
10441.484
10341.449
15651.691
15804.059
6221.038
6213.9125
10379.567
10455.736
15996.643
15742.137
6329.9957
6348.4129
10599.941
10547.336
15983.809
16054.399
6251.0478
6244.8545
10484.514
16032.802
10385.953
15731.591
18958.425
18902.437
23151.637
23406.028
23562.541
19156.182
19154.054
23578.98
23702.277
19355.929
23861.132
19376.592
19113.525
19100.183
23573.115
23577.844
40160.606
27159.989
27496.374
40674.765
41229.673
27633.05
27668.523
41331.981
52737.058
64131.597
64595.498
53516.131
65187.786
65237.031
53981.238
54760.374
41585.352
27757.791
27961.871
41562.142
27701.371
27767.897
42010.305
41420.449
54763.936
65506.735
65506.044
55173.899
55009.362
65387.353
65569.016
54682.673
19155.631
19072.214
23546.732
23730.601
19483.234
19470.801
23965.668
24107.416
23747.343
19335.39
19396.456
24001.385
24059.845
19494.279
19460.296
23988.614
41093.645
27987.66
28329.819
41111.49
43188.86
28346.87
28229.847
43295.095
57002.128
58458.728
58092.99
57736.29
66562.028
65546.1
54793.773
54883.605
28380.06
28193.575
41638.461
40959.349
56595.758
60719.843
57843.469
57598.499
42335.301
27984.089
27739.126
41434.827
65004.267
64658.351
54442.157
54084.184
37519.984
37888.537
36904.73
37547.694
39220.77
40471.548
39962.791
41136.366
71756.324
34620.21
69550.07
33132.884
72147.854
35641.173
72745.287
35779.926
39108.214
40314.442
41749.399
41286.513
41045.772
40740.575
41566.822
40427.033
39779.528
39785.197
41431.699
41763.639
40615.287
40960.184
40817.414
39654.548
39022.241
36315.542
37779.295
37511.853
11901.057
11850.621
40263.527
40401.981
38732.158
38727.065
12156.357
12141.221
42117.563
41315.963
40768.309
41960.206
39385.456
38522.124
12231.264
12248.975
39433.26
40172.939
12469.215
12411.515
39998.407
40367.182
12581.272
12569.289
38895.009
39890.033
12518.276
12436.818
38899.833
37982.538
12168.615
12199.859
39692.531
40082.056
12485.678
12465.056
8017.7996
21489.401
21824.9
8040.4581
21299.678
20769.118
7914.9537
7913.1923
22669.717
22477.587
8401.5332
8459.8628
21170.016
21935.161
8051.2045
8135.8294
36709.227
35526.7
11422.006
11496.876
11815.918
37996.879
37952.849
11839.993
39493.098
38866.853
12173.469
12224.99
38248.421
39196.563
12218.876
12135.547
38915.618
38413.149
12171.67
12147.255
39443.606
39707.764
12328.399
12336.391
39644.568
39268.215
12300.186
12305.282
37942.145
38935.824
12230.943
12170.673
8278.1526
21478.106
22223.363
8369.4551
22648.845
22843.915
8629.6166
8546.3308
22953.466
23298.415
8727.1972
8727.8006
22935.365
22165.651
8539.6876
8623.3043
13015.049
13766.766
13075.001
13678.128
13361.729
12518.583
12470.091
13287.861
13465.712
12862.393
13418.955
12790.135
13078.197
12287.039
13149.104
12373.322
38213.639
37894.56
39049.068
39339.066
40504.46
40227.123
40688.603
40359.016
37677.801
37373.517
36459.768
38564.198
39834.155
38885.981
39736.761
38828.843
12602.14
11954.199
12522.357
11869.616
35382.482
34087.895
35359.066
36630.407
11373.146
12081.816
12163.776
11448.359
33132.54
34468.153
37754.005
37788.673
36464.661
36458.32
35585.204
35550.806
12020.027
12754.242
12059.32
12691.912
11515.025
12274.085
12224.849
11491.382
13540.416
14206.543
13492.978
14260.487
13768.644
13806.263
12904.746
12936.809
13792.117
14580.251
13793.79
14544.582
13127.147
14048.014
14038.61
13145.897
12456.131
13135.107
12432.43
13157.808
12646.065
12668.681
11883.889
11938.753
13351.041
12629.023
13343.072
12609.268
12081.808
12823.699
12828.38
12067.376
14511.989
14466.479
13928.14
13986.407
34434.331
35293.957
35076.038
35956.395
36623.66
14467.544
13769.979
14434.649
13818.988
37313.547
35719.326
36381.342
37478.721
36524.83
37184.278
36845.87
37844.183
38525.659
38782.629
38119.512
14910.451
14331.744
14243.187
14814.778
14167.02
14875.438
14756.723
14076.897
13923.526
14647.908
14541.97
13993.778
14236.458
13640.92
14213.931
13606.013
13478.814
13410.241
14364.022
14289.056
13947.864
13127.064
13962.315
13175.295
15285.197
14724.482
14824.132
15389.538
15942.722
15318.067
15296.28
15913.214
14585.272
15284.638
15378.43
14678.444
15128.222
15896.265
15836.279
15101.908
14543.992
15085.378
14440.567
15182.119
14826.304
14941.954
13925.002
14000.621
15594.995
14926.437
15648.043
14955.88
14338.413
15365.949
15306.401
14318.657
37032.337
37549.417
38545.615
38002.741
39268.887
38003.021
38192.992
39012.884
39981.106
39205.249
39738.179
39457.565
40189.807
40442.42
40656.329
40425.852
14284.847
15085.578
14287.015
15078.356
14540.449
13608.499
13604.795
14532.56
15141.786
14358.433
15218.306
14394.397
14637.303
13683.425
14595.102
13674.598
13073.566
13823.41
13077.192
13814.72
13872.749
13892.014
13135.419
13133.32
13285.39
12505.213
13280.324
12498.371
13326.243
12559.812
12536.336
13340.707
14524.474
14569.388
13809.282
13844.488
14111.453
13232.449
14078.189
13206.73
14298.15
15038.615
14242.773
15074.903
14496.111
14556.821
13557.072
13627.149
13427.036
12716.874
13452.369
12742.848
12956.968
12241.448
12918.724
12148.845
13843.681
13095.523
13773.229
13030.263
13247.161
12505.776
12525.331
13307.158
15433.613
15502.676
14775.62
14854.56
15245.527
14302.697
15145.39
14245.159
16183.85
15472.41
16131.57
15422.986
15824.033
15854.728
14786.097
14824.659
15666.311
15726.702
15090.305
15147.871
15709.022
14998.586
15646.151
14935.707
15912.607
16473.89
15826.457
16557.913
16404.404
16474.633
15614.056
15686.694
15758.122
16376.221
15756.387
16361.91
16350.717
15590.7
15589.729
16342.132
15880.862
16547.27
15934.674
16486.401
16538.247
15770.938
16441.878
15705.134
15440.096
16124.57
15429.445
16115.878
14832.016
15843.676
15865.548
14842.514
16215.156
15544.922
16314.889
15618.036
14985.569
16046.871
15939.056
14926.464
19771.284
19823.085
18104.38
18190.017
19135.802
19179.189
20961.977
20937.701
5275.7577
5225.7822
5522.4544
5487.7198
18889.873
20080.753
19689.809
19693.197
17974.282
17993.998
17593.629
17651.953
19291.864
19283.592
5122.7166
5149.3134
18454.463
18821.798
18483.05
16880.697
16960.38
18551.212
19500.192
17767.405
17814.593
19501.012
16044.721
17308.14
15962.776
17382.846
16813.435
18209.8
16763.194
18224.303
18333.887
16687.991
16678.571
18314.286
17923.392
16294.937
16352.607
17938.465
15704.154
17102.883
15726.818
17067.343
16680.223
15336.149
15394.658
16703.374
4757.5239
4708.6698
4998.0304
4949.5331
25682.313
26046.655
26110.107
26461.891
31552.97
25798.304
26903.716
32844.274
26687.042
27342.871
27847.734
27107.883
28332.835
29084.792
29226.893
28448.681
28002.33
28615.353
29233.568
28566.14
29819.748
30491.115
30664.546
29970.417
16397.957
16481.275
15454.812
15545.946
15952.372
16052.584
15070.398
15175.164
17224.732
16212.643
16260.493
17248.463
15789.236
15834.25
16744.175
16766.716
15049.742
15569.87
14939.103
15679.677
16317.137
15626.012
15655.062
16334.662
15490.362
14749.471
15604.061
14859.551
15391.292
15401.539
16204.804
16201.468
15260.401
14607.442
14565.889
15205.473
14879.791
14834.705
14205.373
14275.628
15147.273
14391.306
14330.324
15078.141
14756.488
14704.992
13986.619
14058.124
16150.156
15179.531
16107.555
15150.09
15623.036
15668.379
14769.161
14735.941
14851.776
15731.124
14790.466
15764.282
14379.573
15246.51
15288.194
14446.055
32203.931
33145.022
32909.627
32446.241
33643.399
34350.37
33869.812
34571.677
35992.132
35076.223
35788.741
35291.541
31358.594
31156.466
32047.591
31807.921
29896.615
29230.115
29843.291
30553.457
31238.248
31898.919
30488.605
31120.244
32486.973
33142.619
33446.035
32763.623
31775.651
32578.731
32429.795
33248.105
33945.193
34602.513
33111.742
33755.802
34824.107
33819.127
34487.558
34145.919
35183.333
35838.143
36173.643
35525.469
15976.531
15332.67
15398.758
16036.404
17001.536
16914.655
16189.682
16289.376
15193.085
15888.436
15129.489
15958.033
16864.436
15920.725
16772.304
16018.649
16679.821
16659.207
16009.353
16001.335
16592.121
15806.513
16607.068
15801.093
16169.003
16820.677
16159.582
16824.397
16768.245
15966.815
15949.549
16736.847
15875.664
16791.09
15838.108
16816.034
16350.713
16398.289
15459.734
15510.571
16918.896
17886.012
16828.119
17950.446
16376.061
17371.459
17453.001
16470.895
16519.361
17512.934
17448.998
16481.999
17026.664
16115.664
17059.62
16129.514
16300.333
17180.573
17190.445
16260.544
17572.063
16620.818
17581.717
16649.04
20181.278
20224.09
18461.397
18514.055
19809.027
19875.377
21692.813
21697.495
5446.7313
5415.1359
5688.4876
5722.5538
19318.422
20776.046
20960.158
20951.853
19213.371
19208.409
19198.987
19226.812
20880.414
20850.084
5640.0614
5585.5478
5721.5035
5786.9899
20056.756
19955.022
17262.578
18855.584
17230.798
18887.365
17680.144
17705.289
16325.946
16349.624
18496.713
20207.606
18421.213
20246.396
17399.755
18890.806
18947.523
17477.241
17916.818
19617.049
17951.417
19576.109
17026.536
18422.585
18364.932
16974.89
17997.45
19601.178
17973.675
19580.205
17084.843
18448.756
18434.687
17103.84
4953.2597
4936.9694
5152.2592
5179.4415
5155.6119
5043.4497
5088.1335
5214.4748
4516.9483
4486.8375
4639.3296
4689.795
4070.3348
3981.7196
4058.4079
4179.5386
4050.7024
3982.3754
4092.7573
4178.2539
4596.4005
4529.6689
4623.5309
4698.9211
3088.1056
3103.731
3382.998
3386.2228
1171.8406
7290.563
7327.472
2706.1037
6186.5585
6141.3365
6898.108
7137.5529
2712.7716
6025.0665
5820.5914
8051.3279
8348.9124
8179.7216
8455.3277
2595.8663
2565.121
8524.2138
8561.7898
8658.8005
8691.9837
7323.1721
7354.0609
2737.8109
6218.9876
6198.4087
8533.7252
8677.5763
8586.4547
8715.8673
8750.7511
8866.9027
8684.5304
8805.3905
7507.3949
7459.1854
2784.0554
6323.5884
6351.9772
2584.0615
2631.1779
10152.84
9746.8319
10187.997
9762.6572
9762.2675
9691.5247
9567.2131
9508.0211
9565.2208
9409.4995
9614.6406
9437.0658
10308.027
9865.1964
10244.056
9817.9835
9558.707
9385.7776
9594.2026
9417.9712
10135.809
9708.5621
10173.64
9747.2013
4148.175
3996.3112
3993.6545
4140.2924
9557.563
9162.0086
9873.6799
9430.5367
9019.009
8858.6603
9336.963
9139.3795
2054.919
2093.8263
2274.938
2233.9977
2264.5487
2055.8832
2222.5575
1036.3656
1022.6893
1160.1473
4172.8273
4006.0054
4107.7912
4277.0226
3077.2172
3130.7376
3383.4667
3457.1929
9870.793
8870.1974
9882.2021
8876.1546
10385.414
10340.009
9566.0194
9536.0725
10326.092
9523.5855
10335.05
9526.2386
9916.6915
8905.9627
9885.2351
8888.4476
10262.96
9447.0586
10304.9
9481.617
9798.2355
8793.3519
9835.7149
8824.7808
9691.8399
8952.881
9926.6425
9133.4798
5050.5468
5075.0991
4605.0179
4583.7249
9293.9615
8373.0596
9485.6255
8513.3065
10374.33
9906.9267
10418.298
9949.0746
10508.484
9793.2506
10554.834
9836.5968
4708.9099
4721.8292
4628.284
4611.8397
9904.5734
9246.5425
10179.097
9467.1508
9778.2148
9348.1566
10076.785
9598.2716
10553.74
9861.8781
10568.592
9864.1983
10404.971
9956.7879
10428.413
9964.4155
10468.307
10521.845
10044.813
10004.365
10640.074
10591.447
9920.3764
9884.0026
5281.853
5142.7508
4677.9097
4785.7141
4682.6417
4758.2906
4888.4453
4803.23
10387.959
9951.0803
10558.608
10098.053
10008.408
9871.7825
9820.3139
9706.4662
9807.6268
9634.4161
9966.973
9778.6553
10594.732
10471.565
10141.577
10050.341
8944.0432
9074.3644
8820.7189
8959.3317
8759.4395
8896.9583
8891.3776
9025.6998
7509.0034
7605.2235
6355.7928
2797.4139
6425.9269
7664.3681