/*--------------------------------*- C++ -*----------------------------------*\
  =========                 |
  \\      /  F ield         | OpenFOAM: The Open Source CFD Toolbox
   \\    /   O peration     | Website:  https://openfoam.org
    \\  /    A nd           | Version:  7
     \\/     M anipulation  |
\*---------------------------------------------------------------------------*/
FoamFile
{
    version     2.0;
    format      ascii;
    class       surfaceScalarField;
    location    "7000";
    object      phi;
}
// * * * * * * * * * * * * * * * * * * * * * * * * * * * * * * * * * * * * * //

dimensions      [0 3 -1 0 0 0 0];

internalField   nonuniform List<scalar> 
101811
(
-5.4442076e+39
9.4674434e+36
-2.6983694e+38
-2.3663168e+38
2.5902817e+38
2.4957839e+38
-5.7364245e+39
1.8877171e+37
-2.8321851e+38
-3.0960789e+38
2.1637986e+38
2.3454565e+38
-5.4964826e+39
1.4476893e+38
2.4719343e+38
-2.5084476e+38
-2.9197622e+38
2.5696206e+38
-1.7563728e+37
8.279762e+38
-1.1009876e+39
2.7999554e+37
-7.2613883e+36
7.9234325e+38
-1.0524151e+39
5.7412719e+36
3.6986586e+37
1.9545362e+37
4.6422694e+37
9.7030882e+36
-8.9439693e+37
-5.7645941e+39
2.4064135e+38
-2.950883e+38
-2.6224585e+38
2.7639043e+38
-5.7285273e+39
5.2270814e+37
2.150042e+38
-3.176472e+38
-2.8849379e+38
2.2631438e+38
-2.8649816e+36
8.5739558e+38
-1.1541926e+39
-1.9387927e+37
8.8308451e+38
-1.1526112e+39
-1.2575583e+37
-3.0370416e+37
-4.3420493e+35
4.3705573e+36
-5.4595465e+36
8.508429e+36
4.569927e+38
-5.599737e+39
7.6041021e+37
2.2332105e+38
-3.2994041e+38
-2.7831903e+38
2.4721059e+38
-8.9423112e+38
-3.5427739e+37
2.7602403e+37
6.69033e+36
2.4374188e+37
8.3745896e+38
-1.0918301e+39
7.1516975e+36
-1.1638385e+39
1.3625543e+37
-1.1620277e+37
2.4160142e+37
-2.8691126e+37
7.6485193e+38
-7.9761335e+38
3.4569711e+37
1.9621478e+37
7.3167152e+38
-7.607288e+38
1.594688e+37
5.7853668e+37
1.6576853e+37
6.0270991e+37
2.178833e+37
1.5994409e+38
-1.241506e+39
-1.1904676e+39
6.0289273e+38
-1.3080104e+39
-1.2978694e+39
-8.4678428e+37
-5.7300528e+39
2.4080767e+38
-3.0165334e+38
-2.6827987e+38
2.7067099e+38
-1.5466665e+38
-2.5754315e+38
2.7693532e+38
3.1515957e+38
-2.255281e+38
-8.8951717e+38
2.2547503e+37
-3.821956e+37
-6.7803802e+36
3.0183186e+37
-4.183308e+37
-1.1565805e+39
-1.6374801e+37
9.0439945e+38
-1.1720882e+39
-5.0469442e+36
1.3424445e+36
4.0522581e+38
3.7447964e+38
-5.7032932e+39
-1.6301591e+38
-1.9799654e+38
-5.4266313e+37
-2.9077626e+38
-3.3569089e+38
1.9375632e+38
2.2411091e+38
-9.2175093e+38
-1.3677303e+37
-5.9544441e+36
-7.4516945e+36
-1.6037179e+35
-1.1836596e+39
-2.3232947e+37
-3.234532e+37
8.7706772e+38
-1.1552645e+39
-2.3032988e+37
2.2452481e+36
9.6043493e+36
7.8327063e+38
-8.3199336e+38
-4.2669665e+36
8.0916474e+38
-8.2062811e+38
-2.7857387e+36
-6.5168665e+36
-1.9686716e+37
2.1123619e+37
4.6549608e+36
6.9018824e+36
6.004983e+38
-5.5751014e+39
-3.4796439e+38
-2.8361854e+38
2.4941538e+38
1.8813825e+38
-9.0262004e+38
-1.3621663e+37
-1.5537018e+37
-1.1830976e+37
6.2838486e+36
-1.1831034e+39
-3.0744054e+37
-2.4996918e+37
8.5645874e+38
-1.1160351e+39
1.1667606e+36
1.4782057e+37
-8.2746588e+38
-5.4432185e+37
3.672317e+37
3.090757e+37
4.113653e+37
7.561306e+38
-7.7624153e+38
2.0695786e+37
-8.4376231e+38
2.0966779e+37
2.4845866e+37
2.4758982e+37
-3.2101815e+36
6.3529032e+37
-5.9345378e+37
2.9844027e+36
1.566361e+37
6.2315512e+37
-5.9544468e+37
1.2495232e+37
6.628843e+36
1.5418343e+37
6.3317903e+36
2.0181193e+37
-1.2243412e+39
-1.0534676e+39
-1.174394e+39
6.5180938e+38
-1.0002874e+39
7.8672957e+37
-1.9793744e+38
1.0547942e+38
-2.4649109e+38
-2.9901565e+38
-2.4826007e+38
-3.1313743e+38
-1.7683642e+38
9.7996675e+37
-2.5361724e+38
-2.4113078e+38
-2.989317e+38
7.2162409e+37
-3.1143749e+38
2.9092082e+38
-1.2345102e+39
-1.2226227e+39
-1.3136264e+39
-1.3361374e+39
1.6360906e+38
-9.1156116e+36
-1.0743691e+39
-1.0765833e+39
-3.2758481e+37
3.6380547e+38
-2.9046505e+38
-1.3264519e+38
-3.1742925e+38
-5.6852514e+39
2.3436835e+38
-3.0524093e+38
-2.6111692e+38
2.7652226e+38
3.2948038e+38
-1.5759276e+38
-2.1728788e+38
-2.6307332e+38
2.6653002e+38
3.1457432e+38
-9.0640239e+38
1.8729549e+37
-4.3939141e+37
-1.124009e+37
2.9041912e+37
-5.1591219e+37
-1.1607642e+39
-2.4742357e+37
9.0421146e+38
-1.1760227e+39
-9.2597269e+36
1.2798273e+35
8.926725e+38
3.5515654e+37
-4.7960744e+37
7.7351095e+36
4.1509226e+37
-5.2529481e+37
2.4047639e+37
-9.0367598e+38
3.2071976e+37
1.8780008e+37
-8.1714485e+38
6.3158468e+36
-1.8208318e+37
1.6289611e+36
2.1817706e+37
-2.9294094e+37
-8.3662164e+38
1.0578492e+37
8.5283136e+38
-8.7532452e+38
1.4917322e+37
3.1772192e+36
6.5072953e+35
9.603902e+37
9.9047017e+37
-1.3625803e+39
-2.7227189e+37
-3.0755444e+37
8.8723199e+37
9.636831e+37
-1.3603907e+39
-3.2708242e+37
-3.5478742e+37
-3.0442885e+37
4.2746974e+38
3.8346357e+38
-5.6491511e+39
-1.5189964e+38
-1.9490106e+38
-2.2506201e+38
-3.424444e+38
-2.8043315e+38
2.3026366e+38
1.733267e+38
-1.8454031e+37
8.9607169e+38
-1.1704201e+39
-2.1206956e+37
9.437804e+38
-1.2081867e+39
-5.213291e+37
-3.7605866e+37
6.6916814e+36
-3.5456627e+37
-1.6801783e+37
4.8846946e+36
-8.3338678e+38
-3.4441568e+37
8.4921231e+36
8.1221941e+36
-1.591817e+37
-8.2811914e+38
-1.3218602e+37
-8.476216e+36
7.913718e+38
-8.2657896e+38
-6.5297447e+36
4.0575593e+36
1.4363639e+36
6.0920551e+37
-7.1159256e+37
3.338869e+36
6.1590953e+37
-6.927984e+37
4.6490005e+35
2.1436518e+36
-1.4048679e+36
1.0735525e+36
7.2319802e+36
7.1851116e+36
4.3003013e+37
9.039739e+38
-1.1914507e+39
-3.4729378e+37
8.7762009e+38
-1.1402728e+39
-8.7069733e+36
-2.260089e+37
5.3440965e+36
-2.5880376e+37
-8.2707197e+38
-3.1154375e+37
-1.897887e+36
2.1536015e+37
-9.441797e+36
-8.5289564e+38
-1.6227819e+37
2.6496332e+37
7.731418e+38
-7.8942476e+38
2.8974703e+37
2.5693145e+37
-6.5928656e+37
-4.9570217e+36
3.7027157e+36
2.56788e+37
2.5151578e+36
6.3373876e+37
-5.7653164e+37
1.5444194e+37
-6.0186157e+37
1.1568195e+36
2.0461578e+37
2.1616545e+37
-3.1537021e+36
5.675483e+37
-5.5457663e+37
3.2224244e+36
5.6925472e+37
-5.59421e+37
5.4356166e+36
5.2038779e+36
6.177167e+37
8.9560053e+37
-1.343346e+38
-2.6189932e+38
-2.9577094e+38
-2.8830381e+38
-2.5666058e+38
6.87442e+37
-2.3104687e+38
-1.8668113e+38
-2.3215824e+38
-1.8743984e+38
6.4079769e+37
-1.3473194e+38
1.0033872e+38
-2.58663e+38
-2.9059454e+38
-2.9957579e+38
-2.6568676e+38
-1.2382111e+39
-1.2031534e+39
1.1097322e+38
-1.0106243e+39
-1.0510805e+39
6.3322905e+37
-2.2578405e+38
-2.3548178e+38
-1.8101665e+38
-1.9050707e+38
-4.200122e+37
1.4387697e+37
2.7440294e+37
-4.9744505e+37
-5.0543679e+37
-6.6511151e+37
-6.3483203e+37
7.0336718e+36
2.5325117e+36
-1.0067727e+37
-1.041072e+37
-1.4114152e+37
-1.3401377e+37
4.1784693e+36
-2.4362471e+38
-4.0821543e+37
1.2679332e+37
2.8057027e+37
-6.4923534e+37
-4.9677167e+37
-5.1671222e+37
-6.7515105e+37
1.8146206e+36
-2.5254808e+38
5.6517266e+36
-4.0728093e+37
2.8289444e+37
-5.1316784e+37
-5.0431067e+37
-6.7875726e+37
-6.4527305e+37
-3.8697068e+37
2.6254515e+37
-4.9255728e+37
-5.1162282e+37
-6.4013141e+37
-6.6977321e+37
8.3720156e+36
3.8724326e+36
-2.4720156e+38
-5.5764264e+36
3.9400693e+37
-2.027267e+38
1.0613006e+38
-2.4551513e+38
-2.9719634e+38
-2.4867209e+38
-3.1376824e+38
-2.5011021e+38
-1.7946027e+38
9.5353708e+37
1.4906273e+37
-3.0383561e+38
-2.4350446e+38
-3.1418034e+38
-2.5250157e+38
-4.4808471e+37
-1.0768333e+39
-1.0861457e+39
-9.0796861e+37
2.9606238e+38
-1.2526007e+39
-1.3013138e+39
-1.3467472e+39
-1.2394408e+39
-1.0419552e+39
-1.7415522e+37
8.0449525e+37
-5.6560867e+37
8.1087172e+37
-6.0569784e+37
-9.8054239e+36
-6.5835337e+37
6.4932964e+37
6.3970936e+37
-7.1445283e+37
-1.3270858e+39
-3.1538431e+38
3.2373242e+38
-2.7522464e+38
-2.1516236e+38
2.3597579e+38
-2.9089676e+38
-5.6556092e+39
-2.4196583e+38
2.8505454e+38
3.6768389e+38
1.0330044e+39
-3.4941608e+37
5.8777769e+37
-7.2280118e+37
6.3877331e+37
-7.1633633e+37
-1.3040389e+39
2.8657104e+38
-1.7211148e+38
2.5108106e+38
-2.2448669e+38
-2.5324398e+38
2.6851717e+38
3.0769022e+38
-9.2549435e+38
3.1997657e+37
-6.3589979e+37
-1.6731873e+37
4.1526027e+37
-6.247723e+37
-1.183022e+39
-2.6762229e+37
9.040561e+38
-1.159709e+39
-1.5529318e+37
-1.7832066e+36
-4.44262e+37
7.2433864e+37
7.9158223e+37
-5.995597e+37
-6.2531334e+37
-4.1638757e+37
9.0602204e+38
2.3368455e+37
8.8724388e+38
-5.8066647e+37
4.3956752e+36
4.0473688e+37
-6.2777157e+37
1.5313099e+37
3.2517847e+37
-8.151526e+38
4.2732135e+36
-2.3802822e+37
-4.6770482e+36
2.0844475e+37
-3.4592901e+37
-8.2935436e+38
3.2078139e+36
8.4207673e+38
-8.7063201e+38
1.0845949e+37
1.6906589e+36
8.2866264e+38
2.7501324e+37
-3.4236087e+37
1.3239901e+37
2.6658798e+37
-2.9797545e+37
1.9227447e+37
-8.6871088e+38
2.3295113e+37
1.5066968e+37
-7.148188e+37
-1.0382433e+36
-2.1489917e+35
5.0843739e+36
6.8329906e+35
-1.5736233e+36
-6.7304305e+37
7.2914956e+36
7.7841738e+37
-7.4252403e+37
1.0765707e+37
7.7529992e+36
3.049889e+36
2.1309368e+37
2.0097796e+37
-3.0038703e+38
-5.5807382e+36
-5.7990176e+36
4.5980827e+36
4.4310456e+36
-6.4472005e+37
9.8325027e+35
-1.0323251e+36
-1.188808e+36
2.383076e+36
2.0389787e+37
2.1355302e+37
-3.1212705e+38
-6.1735538e+36
-6.0811611e+36
-3.5750978e+35
2.1183699e+37
2.0494593e+37
-3.0950579e+38
-5.8736439e+36
-6.3767104e+36
1.9623166e+37
2.1287308e+37
-3.056178e+38
-6.0833433e+36
-6.4127509e+36
-5.8343652e+36
-3.4849749e+37
9.6891606e+37
9.6022068e+37
-1.3537162e+39
-2.7934937e+37
-3.5588599e+37
8.8651277e+37
9.9884529e+37
-1.3616502e+39
-3.6999402e+37
-7.5279581e+37
-3.0503004e+37
4.236441e+38
3.5549939e+38
-5.5739145e+39
-1.3090103e+38
-1.9078015e+38
2.3465584e+38
1.442822e+38
-3.4436427e+38
-2.7820698e+38
4.906795e+37
9.5478359e+38
-1.2227064e+39
-8.6262682e+37
-3.7326823e+37
9.0362794e+38
-1.1677746e+39
-1.9351519e+37
-4.1121087e+37
-7.167234e+35
-7.8722271e+37
-2.5739131e+37
-4.8636266e+36
7.9876236e+38
-8.2077175e+38
-7.5525791e+36
8.5713118e+38
-8.5941298e+38
-3.3201524e+37
-6.9861874e+36
-8.3703218e+36
-1.7605932e+37
1.3409998e+37
1.4344092e+37
-6.0203229e+37
-1.4353722e+36
-5.9144513e+35
1.0165978e+37
-1.5210123e+36
-6.7197379e+37
-1.3010463e+36
1.3399386e+36
6.0433729e+37
-6.9998656e+37
1.9789939e+36
6.4762373e+36
1.2518872e+36
5.7907614e+37
-6.2281167e+37
5.7168e+37
-5.966724e+37
4.2787977e+35
-1.9660003e+36
1.9759413e+36
2.7162469e+37
8.3009249e+38
-8.6413073e+38
1.7048221e+37
7.9333608e+38
-8.1124922e+38
2.0140768e+37
-8.580241e+36
1.2001723e+37
1.2536781e+37
-6.9982842e+37
-3.4638377e+36
2.8056488e+35
2.1319233e+37
1.4053536e+35
-6.234499e+37
-2.06556e+36
2.078344e+37
6.7906198e+37
-5.8945388e+37
2.1311198e+37
2.3169911e+37
-5.9684421e+37
-3.9952011e+36
2.5045466e+36
2.8189261e+36
5.6780202e+37
-5.4992329e+37
-5.6224857e+37
1.3712917e+36
-4.4515234e+37
-1.2479165e+39
-1.22058e+39
-3.4038292e+37
-8.0450101e+36
3.6046874e+37
4.9458604e+36
-2.6080861e+38
-8.6607412e+36
6.9799616e+36
-8.8360248e+37
-2.3976815e+38
3.5217865e+37
-8.6038693e+37
-2.3571279e+38
3.5122809e+37
-2.5603085e+38
1.1712229e+37
1.2971208e+37
-5.7527652e+37
-4.6413912e+37
-4.5256783e+37
-5.580121e+37
-5.9522339e+36
-6.1156302e+36
-6.2604168e+36
1.5580854e+36
-6.339856e+36
1.081295e+37
-3.8477607e+37
-3.3452644e+37
-3.9068614e+37
-3.387795e+37
1.2387909e+37
1.1314403e+37
-5.7905352e+37
-5.6440481e+37
-4.5699464e+37
-4.6797057e+37
9.3410515e+36
-3.8256274e+37
-3.9579694e+37
-3.3214297e+37
-3.447265e+37
5.3770123e+37
6.3088488e+37
-2.6913765e+38
-3.0358028e+38
-2.9449369e+38
-2.6212941e+38
-3.3987907e+37
-6.9313259e+35
3.589901e+37
2.7025955e+36
-2.625835e+38
-8.7253004e+35
-8.6038632e+37
3.8669343e+36
-2.4153815e+38
3.5711647e+37
-8.9383616e+37
-2.3979633e+38
3.4889044e+37
-2.6061138e+38
6.2551362e+37
3.1546233e+37
-3.0330249e+38
-2.9640739e+38
-2.6208108e+38
-2.6743029e+38
-1.2004347e+39
-1.1784294e+39
-9.904394e+38
-1.0090852e+39
-1.3550958e+37
-2.7045785e+37
-2.2404391e+38
-2.3046844e+38
-1.7533107e+38
-1.8227918e+38
-2.329376e+38
-2.2954859e+38
-1.8410578e+38
-1.8549807e+38
-5.0962285e+36
1.2972271e+37
8.1281618e+36
-5.7796875e+37
-5.6163822e+37
-4.5377261e+37
-4.6551226e+37
1.1606103e+37
-5.6009114e+37
-5.7699603e+37
-4.6688941e+37
-4.5582961e+37
-3.1805805e+36
4.0688158e+36
-3.762383e+37
-3.8887356e+37
-3.2489193e+37
-3.3677671e+37
-3.8232251e+37
-3.8885831e+37
-3.3989499e+37
-3.3343455e+37
2.5437682e+36
-8.6398224e+36
7.1794602e+36
-1.0446151e+37
-1.0264797e+37
-1.4108871e+37
-1.3475542e+37
-8.5640083e+36
2.1956982e+36
7.2453762e+36
-1.0248034e+37
-1.062691e+37
-1.4286823e+37
-1.3715169e+37
-1.4274023e+36
1.0944627e+36
-5.3432839e+37
-5.1963684e+37
-1.9527032e+35
-1.9344334e+36
2.1041533e+36
4.568383e+35
-2.1597115e+36
-2.0694982e+36
-3.0489164e+36
-3.2208828e+36
-1.9227989e+36
2.0276569e+36
-2.0579655e+36
-2.0959437e+36
-3.1813853e+36
-3.0708192e+36
1.0375329e+35
-1.1305147e+37
-1.1141811e+37
3.4080231e+35
8.5655655e+36
2.2456928e+33
3.7765225e+35
-5.3479194e+37
-1.0304845e+36
1.7125202e+36
7.0275155e+36
-1.0209225e+37
-1.0620692e+37
-1.435124e+37
-1.3639964e+37
-8.7692479e+36
7.2610971e+36
-1.0548101e+37
-1.0373517e+37
-1.3754692e+37
-1.4321525e+37
-5.3832338e+37
-1.6624173e+36
-8.4984312e+36
9.8757413e+35
7.2863279e+36
-1.0383103e+37
-1.0668472e+37
-1.4451094e+37
-1.3927142e+37
-8.8246177e+36
7.2468779e+36
-1.0580178e+37
-1.0328959e+37
-1.3595593e+37
-1.4298482e+37
-3.6359991e+35
-3.0260561e+35
-5.4524243e+37
-5.2843274e+37
-2.7418575e+35
-8.3980613e+36
6.8392085e+36
-1.0227229e+37
-1.0566017e+37
-1.428869e+37
-1.3610073e+37
1.2693313e+36
-8.6550627e+36
7.1803989e+36
-1.0594381e+37
-1.0319745e+37
-1.372847e+37
-1.4331624e+37
8.8875197e+35
-5.3072152e+37
-6.0463207e+35
-5.3758927e+37
-4.2156073e+37
8.770326e+36
2.8023807e+37
-4.985343e+37
-6.3397098e+37
-6.7284059e+37
-5.1246612e+37
-3.0399231e+36
-2.449973e+38
-3.8543288e+37
5.1992267e+36
2.6509732e+37
-5.1284633e+37
-4.9803206e+37
-6.4904922e+37
-6.7074692e+37
-7.2821393e+36
-2.5204724e+38
-1.9313132e+38
-1.6893123e+37
1.006782e+38
-2.4792488e+38
-2.5574731e+38
-3.2215877e+38
-3.0251743e+38
3.732331e+37
9.1685434e+36
-2.4895495e+38
-1.2721236e+37
-3.7992046e+35
2.3494557e+37
2.1236624e+36
-4.9358521e+37
-6.4401428e+37
-5.0763322e+37
-6.6896192e+37
4.0130174e+37
-2.5253958e+38
2.6975471e+37
-5.1356285e+37
-4.9989729e+37
-6.8460305e+37
-6.472125e+37
-8.9215524e+37
-1.0723824e+39
1.5599045e+38
-1.0774874e+39
8.0995581e+37
-2.4708162e+38
-2.5263149e+38
-3.0557368e+38
-3.1345359e+38
5.0544399e+37
-6.3199264e+37
2.7826683e+35
-2.4345326e+36
-2.5592724e+36
3.499047e+36
3.5406753e+36
-1.9039848e+36
4.0113715e+36
-2.0333334e+36
4.0648765e+36
4.3000318e+35
-2.3554916e+38
-3.4313868e+35
-1.0723473e+37
1.8083161e+37
-1.1455531e+37
1.8519436e+37
4.8966176e+37
-6.2149671e+37
-2.9577186e+36
2.6628051e+36
-3.0250374e+36
2.749667e+36
-2.6779006e+35
-1.5424365e+35
-2.9489799e+38
-1.3484333e+37
1.4674028e+37
-1.4527828e+37
1.4605824e+37
-7.1917458e+34
-2.8030481e+36
2.9194043e+36
-2.8851369e+36
3.0059613e+36
-2.4262684e+38
-2.4941835e+36
-1.1528483e+37
1.863177e+37
-1.1459531e+37
1.8094267e+37
-3.0334546e+38
-1.3855446e+36
1.4622734e+37
-1.4222294e+37
-1.4201153e+37
1.5180901e+37
2.2675615e+38
1.4688063e+36
-1.594721e+37
-1.5144731e+37
1.2212581e+37
1.2073851e+37
-2.8858259e+38
6.2559577e+37
-6.4643591e+35
-3.2782956e+36
-3.3318706e+36
2.4242422e+36
2.5856116e+36
4.618325e+35
-1.5728556e+37
1.2382571e+37
1.2386751e+37
-1.4796912e+37
4.8962458e+37
-4.3468566e+35
-3.2108748e+36
-3.1559317e+36
2.4712077e+36
2.5891212e+36
-5.9360857e+35
-3.1503575e+36
2.4737606e+36
-3.1873574e+36
2.604254e+36
-2.3057279e+38
-1.2904792e+36
1.203177e+37
1.2808429e+37
-1.6005949e+37
-1.5883658e+37
-5.4296115e+35
-1.6352265e+37
-1.6398776e+37
1.1344862e+37
1.1883849e+37
-2.9048392e+38
-1.9395274e+37
6.1138446e+37
5.615019e+37
-7.7863855e+37
1.0389973e+39
3.3939442e+37
-7.0307069e+37
-6.82815e+37
6.654397e+37
5.9763971e+37
-1.3177934e+39
-5.8246998e+37
4.3952556e+37
8.2101504e+37
7.2268707e+37
-6.3805251e+37
-5.8688397e+37
-7.4749568e+37
1.0260842e+39
6.3108478e+37
-7.2370303e+37
-6.5189184e+37
6.6830747e+37
-1.2946907e+39
-2.6389982e+38
3.7828524e+38
3.1489239e+38
-5.6292377e+39
-3.1369617e+38
-2.8783239e+38
2.145073e+38
2.8999351e+38
-2.3440366e+38
-9.2938594e+38
5.2880511e+37
-9.6967959e+37
-1.3257304e+37
5.123863e+37
-8.4136957e+37
-1.7030391e+37
-1.170354e+39
2.5369807e+38
2.9113061e+38
-2.0245057e+38
2.610387e+38
-2.1580855e+38
-2.6214465e+38
3.0976847e+38
8.9755678e+38
-1.1457405e+39
-5.0207421e+36
4.1272591e+36
-6.2294666e+37
-5.5968891e+37
7.7061983e+37
8.0779774e+37
-2.2866947e+38
2.0150878e+36
2.9947744e+38
-7.5470107e+36
1.1970169e+37
-1.561236e+37
-1.5811908e+37
1.2955826e+37
6.9965288e+35
-6.0235389e+36
1.2157478e+37
1.1199533e+37
-1.6313495e+37
-1.6135397e+37
-2.8653379e+38
-2.323309e+38
3.0309958e+38
1.2571272e+37
-1.5201696e+37
-1.6193954e+37
1.2657655e+37
1.2099721e+37
1.1944686e+37
-1.6661723e+37
-1.5740081e+37
-2.9545043e+38
-4.3538341e+37
5.1331032e+37
5.910313e+37
-7.8392612e+37
-7.587627e+37
-3.9416548e+37
8.9202121e+38
1.571665e+37
9.023319e+38
-6.9846576e+37
1.2763576e+37
4.6025057e+37
-7.1677559e+37
1.3479468e+37
2.3250272e+37
-8.4783893e+38
1.5649454e+37
-3.4691038e+37
-9.2644159e+36
2.8407789e+37
-3.795035e+37
-8.6270142e+38
-2.3572438e+36
8.227229e+38
-8.4522977e+38
7.9237775e+35
-7.9854549e+36
3.8646599e+36
-2.4082335e+38
-9.0380031e+36
-1.1473751e+37
-1.1809825e+37
1.7494704e+37
1.8601641e+37
-2.4179624e+38
1.8247682e+37
-1.1317445e+37
-1.2180138e+37
1.8069064e+37
-1.0380811e+36
1.4752753e+37
-1.472911e+37
-1.386349e+37
1.4839776e+37
-6.0433482e+36
1.4355239e+37
-1.426985e+37
-1.4234026e+37
1.5276678e+37
-3.5329699e+37
8.6005359e+38
1.3737423e+37
8.2301723e+38
-3.8151342e+37
1.7360207e+37
2.8166827e+37
-3.5633261e+37
1.6442383e+37
2.0308712e+37
-7.2260263e+37
-6.2328672e+35
-6.0479104e+35
1.6139117e+36
1.0345225e+36
-1.4964825e+36
-7.1297264e+37
2.7067932e+36
7.3887753e+37
-7.0453457e+37
6.8725692e+36
4.741603e+36
5.8790965e+37
2.7234986e+36
-3.3756919e+36
9.2931254e+36
2.0674935e+36
-2.5575996e+36
1.1204396e+37
-6.4044291e+37
1.2979135e+37
7.9934172e+36
-5.9078512e+37
6.7381074e+34
-9.2818906e+35
1.4373147e+36
-1.8857286e+36
-5.7593161e+37
6.2620569e+37
-6.0621516e+37
8.7472796e+35
4.6342437e+36
4.3075361e+36
-6.4136793e+37
-1.1079398e+36
-1.1329372e+36
7.5909245e+35
4.5751992e+36
4.4526039e+36
-6.578287e+37
-1.1338421e+36
-1.2272987e+36
-2.4202115e+35
9.6038328e+35
1.0066157e+36
-1.3549984e+37
2.6841367e+35
-2.9064861e+35
-3.2689172e+35
9.9189146e+35
9.422225e+35
-1.3776326e+37
-3.2840573e+35
-3.2734637e+35
5.3545872e+35
4.4502235e+36
4.641151e+36
-6.6493219e+37
-1.2161078e+36
-1.1642993e+36
3.0892884e+35
4.6969174e+36
4.4257024e+36
-6.6140382e+37
-1.1356143e+36
-1.1804396e+36
2.4586328e+35
4.4214654e+36
4.6349336e+36
-6.5381211e+37
-1.2097644e+36
-1.1192696e+36
-1.5715609e+35
4.6948669e+36
4.4425717e+36
-6.718182e+37
-1.236267e+36
-1.2172764e+36
-1.9418397e+35
4.5138131e+36
4.5768042e+36
-6.6495097e+37
-1.2894609e+36
-1.1112984e+36
4.7130228e+36
4.3551654e+36
-6.5663389e+37
-7.7131783e+35
-1.1720583e+36
-1.1405055e+36
-3.9135669e+36
2.027315e+37
2.0985713e+37
-3.0395178e+38
-5.5019609e+36
-6.6581567e+36
-6.47446e+36
1.9390504e+37
2.0988941e+37
-3.1207027e+38
-6.3474787e+36
-7.0366277e+36
6.6802642e+36
1.9193011e+37
2.1148338e+37
-3.066266e+38
-1.3108469e+37
-7.0743012e+36
-6.1665734e+36
-7.0216472e+37
9.6603128e+37
1.0098216e+38
-1.3450821e+39
-2.4587109e+37
-3.6262533e+37
2.0833768e+37
2.0852396e+37
-3.116696e+38
-7.0769928e+36
-5.7763395e+36
8.3304903e+37
9.8922956e+37
-1.3293817e+39
-3.9844667e+37
-2.9157751e+37
-8.6613073e+37
-9.3578301e+38
-1.1533803e+37
-9.1347119e+38
-3.937584e+37
8.8382355e+37
-1.1678493e+39
-4.1750683e+37
-1.1900874e+39
-2.1782906e+37
3.8432475e+37
8.7465415e+38
-8.8011291e+38
-6.2975655e+37
-7.3248531e+36
8.116408e+38
-8.2299306e+38
-2.7683251e+36
-2.8788363e+37
1.0857281e+37
-5.1229232e+37
7.2251811e+36
-1.2298288e+36
5.551104e+37
-6.3897859e+37
7.6298628e+35
5.9790262e+37
-6.6087179e+37
-3.0998187e+36
1.1807595e+36
1.4577784e+36
-3.1059404e+36
1.2503378e+37
1.1776052e+37
-5.6107195e+37
-2.3666141e+36
3.8476397e+35
-1.3997527e+36
-5.855251e+37
-5.6743691e+35
5.6927147e+37
-6.0596993e+37
3.1811244e+36
6.9724669e+37
-6.5095559e+37
1.3576732e+37
6.7155773e+37
-6.1838351e+37
1.5938702e+37
-6.2134448e+35
1.4700727e+37
1.6071133e+37
-6.1254171e+37
-2.123354e+36
1.5974635e+35
-9.4089504e+34
-5.7252509e+37
-1.6898767e+36
5.9178969e+37
-5.4390788e+37
-5.0594835e+37
-3.3623121e+37
-3.3689324e+37
4.0485367e+37
-3.164251e+37
-3.2919145e+37
-3.2217797e+37
-7.487122e+36
2.0368002e+37
1.9691321e+37
4.0796908e+36
-2.6046998e+38
-2.4516692e+36
-2.3209598e+36
-8.9416271e+36
8.6115982e+36
-3.0329837e+38
3.3366592e+37
-3.0012452e+38
1.9882207e+37
1.9445832e+37
-2.5830814e+38
-2.5295436e+36
-2.48479e+36
9.4887493e+36
-1.1741035e+36
7.4975954e+35
-4.6709822e+37
-1.1950057e+36
8.8612656e+36
6.1092316e+35
-4.520229e+37
-9.7030246e+36
8.8076887e+36
-4.4647623e+37
-4.618583e+37
1.1467546e+36
1.6754122e+36
-8.9496321e+36
-8.5990025e+36
-6.745622e+36
-6.5999313e+36
1.4939939e+36
2.3711545e+35
-1.7029689e+36
-1.7612791e+36
-1.1731019e+36
-1.1438138e+36
-1.6172225e+35
-7.4030705e+35
-1.0993806e+36
-1.1236612e+36
-7.7026015e+35
2.4787626e+35
-8.1077787e+35
-6.6362757e+35
-1.1157018e+36
-1.0893624e+36
-8.0311472e+35
-7.8095756e+35
-8.6616021e+34
-8.8852279e+35
2.5061986e+35
-1.5928857e+36
-1.6756989e+36
-9.0346291e+35
1.5342749e+36
-5.9808361e+36
-6.2794808e+36
-6.2304468e+36
-6.6118301e+36
-8.2300384e+35
-9.1049551e+35
-1.6226657e+36
-1.5133389e+36
1.1443782e+36
1.3132127e+36
-8.7577136e+36
-8.8941897e+36
-6.5672431e+36
-6.7703384e+36
1.2533513e+36
-6.1890141e+36
-6.5712891e+36
-6.0166797e+36
-6.4302629e+36
-1.8540593e+35
9.9864098e+36
-4.6588576e+37
9.6865115e+36
1.5335015e+35
-4.6774417e+37
1.1388355e+34
8.9546061e+36
2.371185e+35
-4.5216039e+37
8.8664586e+36
-4.5054772e+37
-4.8637779e+35
1.3335643e+36
7.1250327e+35
-6.5102957e+36
-6.7168368e+36
-8.892391e+36
-8.7418026e+36
1.0202532e+36
-8.96497e+36
-8.6237749e+36
-6.5937826e+36
-6.724109e+36
-4.2784135e+35
6.2026557e+35
-5.9573422e+36
-6.1622754e+36
-6.3406566e+36
-6.5853419e+36
-6.2083699e+36
-6.6870267e+36
-6.0221868e+36
-6.4482004e+36
-3.3131408e+37
-3.3521593e+36
-2.1194862e+36
3.4609783e+37
-2.6514435e+38
-3.5205546e+36
-9.2402744e+35
-8.6900363e+37
-2.4536676e+38
3.5553426e+37
-8.7206538e+37
-2.4249422e+38
3.4966347e+37
-2.6219189e+38
-3.1917062e+37
-4.3262832e+36
2.0467227e+37
1.9381299e+37
1.9378004e+36
-2.6298144e+38
-2.7878747e+36
-2.3571138e+36
-5.9234924e+36
5.6303571e+36
-3.0678517e+38
3.2863384e+37
-3.036609e+38
1.9468528e+37
1.9413152e+37
-2.6096689e+38
-3.1578624e+36
-2.7514842e+36
-1.0774101e+37
6.3308508e+37
-2.7037274e+38
-3.0556254e+38
-2.9216018e+38
-2.5906557e+38
-4.6115211e+36
3.4707777e+37
-8.8425125e+37
-2.4589763e+38
3.150603e+37
-8.2398653e+37
-5.4950014e+36
-2.4463127e+38
5.5373413e+36
3.2692921e+37
-6.6618717e+36
-2.6214345e+38
3.3191345e+37
-2.62496e+38
6.0075863e+37
-2.6059339e+38
-2.935484e+38
-2.960968e+38
-2.6153454e+38
5.5334509e+37
-2.2308596e+38
-2.2509375e+38
-1.7382936e+38
-1.7674302e+38
-2.2364625e+38
-1.8429094e+38
-1.7556988e+38
-2.3330274e+38
1.1250644e+36
1.3409038e+37
-1.5296415e+36
-5.7223482e+37
-5.6131517e+37
-4.5227651e+37
-4.5772825e+37
1.208024e+37
-3.0893023e+36
-4.6568594e+37
-5.7909042e+37
-5.5748105e+37
-4.491725e+37
6.4094011e+36
-8.7334562e+36
-3.6529885e+37
-3.7027056e+37
-3.089861e+37
-3.1647898e+37
2.7780368e+36
-3.6752587e+37
-3.2925602e+37
-3.8120907e+37
-3.1792996e+37
-7.573158e+36
1.2463206e+37
-4.5641441e+37
-5.6709301e+37
-5.7656618e+37
-4.629981e+37
1.2039958e+37
-4.6873612e+37
-5.8078433e+37
-5.5820606e+37
-4.5294551e+37
2.7638431e+36
-3.7553267e+37
-3.3779165e+37
-3.8823458e+37
-3.2581161e+37
-3.7442713e+37
-3.8116679e+37
-3.2239666e+37
-3.3184187e+37
-8.7060312e+35
1.0015984e+37
3.381647e+35
-4.681317e+37
9.6069185e+36
-4.6808719e+37
-4.5132245e+35
6.0649227e+35
8.8273448e+36
-2.5797897e+35
-4.4946184e+37
2.7050786e+35
8.8439791e+36
-4.504322e+37
3.5914784e+35
9.7619916e+36
-4.6508366e+37
9.4139398e+36
-4.700307e+37
-5.3136296e+35
8.666293e+36
-4.513941e+37
8.6965068e+36
-4.4811713e+37
1.4350687e+35
1.3598302e+36
1.3062579e+35
-8.6624212e+36
-8.7706631e+36
-6.4311063e+36
-6.5662443e+36
1.0595383e+36
-2.7268026e+35
-8.9565436e+36
-8.5885523e+36
-6.6506921e+36
-6.4909229e+36
2.8983619e+35
3.6957082e+34
-5.8351458e+36
-5.9855887e+36
-6.2945214e+36
-6.5016865e+36
-1.7479736e+35
-6.0849566e+36
-5.9068833e+36
-6.6178352e+36
-6.3634174e+36
8.4140737e+35
9.7074304e+35
-8.9331384e+36
-8.5372471e+36
-6.4992898e+36
-6.6657021e+36
9.285007e+35
-8.7764012e+36
-8.6886826e+36
-6.4966506e+36
-6.6175682e+36
-6.4185553e+35
-5.9864252e+36
-6.1047335e+36
-6.558586e+36
-6.6578582e+36
-6.1615718e+36
-6.6914899e+36
-5.9265724e+36
-6.3677874e+36
-5.188186e+35
-1.9344052e+36
4.2634301e+35
2.2271792e+36
-2.1763737e+36
-2.1040169e+36
-3.1188568e+36
-3.2471956e+36
-1.8993693e+36
2.0451091e+36
-2.0949975e+36
-2.1241032e+36
-3.1967034e+36
-3.05671e+36
-3.5153275e+35
3.3392139e+35
-1.1391419e+37
-1.1078105e+37
-2.0073948e+35
-1.9406787e+36
3.489504e+35
2.1534989e+36
-3.0833442e+36
-2.0974712e+36
-2.1852072e+36
-3.2430359e+36
-1.9383134e+36
2.1315602e+36
-2.1073318e+36
-2.1459634e+36
-3.2300113e+36
-3.111243e+36
9.1885187e+34
-1.1407899e+37
1.908082e+35
-1.1302165e+37
4.0241258e+34
-3.6803676e+35
-8.2120824e+34
8.4871557e+35
-2.5985099e+36
-3.6594634e+35
8.2947742e+35
1.0292538e+35
-2.595713e+36
-2.4161065e+34
-2.5083305e+36
7.8012554e+34
-5.8535383e+34
-2.5479293e+36
8.9593447e+34
-3.5182183e+35
7.838013e+35
-2.5514998e+36
-3.4695683e+35
8.2421423e+35
-2.5657275e+36
-5.1357326e+34
-2.5436284e+36
-2.4916288e+36
-5.2841175e+34
-1.93353e+36
2.8207789e+35
2.0843505e+36
-3.0811611e+36
-2.1042381e+36
-2.1683407e+36
-3.2355381e+36
-1.9742982e+36
-1.8326866e+35
2.1630252e+36
-3.2499017e+36
-2.1722019e+36
-2.1249875e+36
-3.1318968e+36
-6.2669744e+34
-7.0256342e+34
-1.1495693e+37
8.5728425e+34
-1.129619e+37
-3.3260338e+35
-1.9390179e+36
2.2213974e+36
-3.128615e+36
-2.1228436e+36
-2.1739522e+36
-3.2557307e+36
-1.9699559e+36
2.1571118e+36
-3.2273959e+36
-2.1436562e+36
-2.0970465e+36
-3.0762242e+36
1.7457881e+35
-1.1258193e+37
-1.1515069e+37
1.9445498e+33
-1.9413339e+36
2.8444094e+34
2.207513e+36
-2.1784283e+36
-2.1299935e+36
-3.1099495e+36
-3.2612966e+36
-1.9743023e+36
-2.1457693e+35
2.2280528e+36
-2.1282768e+36
-2.1835663e+36
-3.263583e+36
-3.1302721e+36
-1.2228433e+35
-3.7831127e+34
-1.1570413e+37
-1.2065927e+35
-1.1427528e+37
-3.6396663e+35
-1.9450763e+36
2.2392339e+36
-2.1827472e+36
-2.1336989e+36
-3.139642e+36
-3.2688556e+36
-1.9720223e+36
2.1268639e+36
-3.227247e+36
-2.151012e+36
-2.1086867e+36
-3.0787418e+36
1.5120896e+35
-1.1211629e+37
-1.1495246e+37
8.9887118e+34
-1.9054218e+36
2.0686047e+36
-2.1821537e+36
-2.1128898e+36
1.344215e+35
-3.0895967e+36
-3.230079e+36
-1.9509226e+36
4.4387629e+33
2.1816781e+36
-2.1254983e+36
-2.1935666e+36
-3.2656969e+36
-3.1265608e+36
-2.0123466e+35
1.65596e+35
-1.1490951e+37
-1.1278898e+37
-8.2665904e+34
-8.6772771e+36
1.6186495e+36
7.0396702e+36
-1.0268968e+37
-1.3503054e+37
-1.055049e+37
-1.4242634e+37
-1.3754466e+35
-1.8838879e+36
2.1465227e+36
-2.1913716e+36
-2.1388034e+36
-3.1393562e+36
-3.2455002e+36
-1.9811953e+36
2.1722472e+36
-2.1043339e+36
-2.183312e+36
-3.2508851e+36
-3.0813656e+36
-2.9604253e+34
-1.1286907e+37
-1.1502716e+37
6.6046874e+34
-5.2471904e+37
8.3940942e+36
-6.3814363e+35
-5.3988254e+37
1.0471676e+36
7.002878e+36
-1.0372851e+37
-1.0658748e+37
-1.4370848e+37
-1.388147e+37
6.7643252e+34
-8.4655455e+36
7.1406516e+36
-1.0616883e+37
-1.0273801e+37
-1.3716921e+37
-1.4372613e+37
-7.9889334e+36
4.3496535e+35
6.5397607e+36
-1.0288055e+37
-1.0513693e+37
-1.4242324e+37
-1.3677275e+37
1.2071909e+36
-1.2893093e+36
-5.3421232e+37
-5.3982249e+37
3.5836642e+36
-4.2305438e+37
2.6890824e+37
-5.1730592e+37
-6.8152038e+37
-4.9975489e+37
-6.411219e+37
-3.8247351e+37
-2.5436704e+36
2.4655861e+37
-5.1596054e+37
-6.7652361e+37
-5.0737113e+37
-6.6042995e+37
8.2506775e+36
-1.7103031e+37
-2.5495065e+38
-2.4831126e+38
-8.0997746e+36
3.9157414e+35
6.2188905e+36
6.1148508e+35
-1.3605569e+37
-1.0178143e+37
-1.0476845e+37
-1.4220139e+37
1.6201263e+36
-5.3388406e+37
-1.5399115e+36
-8.3670062e+36
-9.6210209e+34
6.8455739e+36
-1.0534916e+37
-1.0201379e+37
-1.43349e+37
-1.3682912e+37
1.4753231e+36
-5.3970056e+37
-7.640044e+35
-8.1515825e+36
6.6636498e+36
-1.03303e+37
-1.0547404e+37
-1.3920161e+37
-1.4402685e+37
-8.6892289e+36
7.040409e+36
-1.4337518e+37
-1.0561777e+37
-1.0214059e+37
-1.3556586e+37
5.8643149e+35
-5.4889228e+37
-5.3260959e+37
6.4840278e+36
-3.4831939e+37
2.220131e+37
-6.4909402e+37
-5.0268583e+37
-5.1052796e+37
-6.6815149e+37
-3.9416846e+37
2.7097927e+37
-5.2193139e+37
-5.0318581e+37
-6.8786699e+37
-6.5073807e+37
1.6780649e+37
-2.4970151e+38
-2.5426985e+38
5.0286169e+37
2.2908752e+35
-6.2916029e+37
-2.5618226e+36
3.5600274e+36
-2.4693837e+36
3.4267556e+36
-1.2533843e+35
1.008871e+37
-1.2766186e+37
1.0953832e+35
-5.2314143e+35
6.5931259e+35
6.7189362e+35
-5.4931912e+35
1.020169e+37
-1.2977949e+37
-5.5682342e+35
6.6678367e+35
-5.4226113e+35
6.4698979e+35
-1.482818e+35
1.3123926e+37
1.4149012e+35
7.309993e+35
-4.7545155e+35
7.1890881e+35
-5.0383302e+35
1.332849e+37
-5.0139084e+35
7.0387897e+35
-5.0979585e+35
7.3010259e+35
1.0490288e+37
-1.8564115e+35
1.7148035e+35
-4.1835527e+35
8.0376112e+35
8.1025952e+35
-4.5184882e+35
-1.7618892e+35
1.7695443e+35
-3.6482355e+35
8.5325624e+35
8.5989986e+35
-3.9742062e+35
1.0600565e+37
-4.5517869e+35
-4.4549139e+35
8.1002418e+35
7.8447004e+35
-4.0139704e+35
-3.9710871e+35
8.6200248e+35
8.325427e+35
4.9595398e+35
-1.9520389e+36
3.9657349e+36
-1.993024e+36
4.1459189e+36
5.1124995e+37
-6.4224951e+37
9.5159673e+34
-2.542439e+36
3.4403194e+36
-2.6111591e+36
3.4916618e+36
3.1830246e+35
-1.9786534e+36
4.0089297e+36
-2.0590025e+36
4.0679452e+36
9.7958689e+36
-4.7098741e+34
-1.255784e+37
2.1995399e+34
-6.1190214e+35
-6.3068105e+35
5.2919093e+35
5.4275289e+35
-5.5845089e+34
1.2592293e+37
-6.2200899e+35
4.6771404e+34
5.5769842e+35
-6.0277982e+35
5.4255195e+35
9.895612e+36
-1.275837e+37
5.2915238e+35
-6.3892755e+35
5.3841541e+35
-6.1502513e+35
1.279041e+37
-6.3071858e+35
5.5420189e+35
5.3880555e+35
-6.1155185e+35
4.8683834e+37