/*--------------------------------*- C++ -*----------------------------------*\
  =========                 |
  \\      /  F ield         | OpenFOAM: The Open Source CFD Toolbox
   \\    /   O peration     | Website:  https://openfoam.org
    \\  /    A nd           | Version:  7
     \\/     M anipulation  |
\*---------------------------------------------------------------------------*/
FoamFile
{
    version     2.0;
    format      ascii;
    class       volScalarField;
    location    "2000";
    object      p;
}
// * * * * * * * * * * * * * * * * * * * * * * * * * * * * * * * * * * * * * //

dimensions      [0 2 -2 0 0 0 0];

internalField   nonuniform List<scalar> 
33730
(
-5.9207168e+29
-5.4331883e+29
-5.958056e+29
-5.7474029e+29
-5.656615e+29
-5.6649332e+29
-5.7313863e+29
-5.5774302e+29
-5.0415951e+29
-5.441014e+29
-5.3683275e+29
-5.2791891e+29
-5.7779036e+29
-5.6970943e+29
-5.7064085e+29
-5.789264e+29
-5.7696841e+29
-5.663834e+29
-5.5599561e+29
-5.6268319e+29
-5.5953105e+29
-5.547976e+29
-5.590379e+29
-5.4820199e+29
-5.5828406e+29
-5.5240016e+29
-5.4861786e+29
-5.4979864e+29
-5.4046256e+29
-5.5121785e+29
-4.9178332e+29
-5.2312402e+29
-4.9670752e+29
-4.900948e+29
-5.0840039e+29
-5.1482614e+29
-4.9588844e+29
-5.166088e+29
-5.024495e+29
-5.467037e+29
-5.4328899e+29
-5.3604638e+29
-5.3993839e+29
-5.2968093e+29
-5.2164697e+29
-5.6492466e+29
-5.6190351e+29
-5.6545703e+29
-5.6859125e+29
-5.6194106e+29
-5.574819e+29
-5.5466269e+29
-5.5862432e+29
-5.6155233e+29
-5.6253817e+29
-5.5901054e+29
-5.5831959e+29
-5.6316831e+29
-5.625048e+29
-5.7043607e+29
-5.6610936e+29
-5.6665685e+29
-5.6985461e+29
-5.5586235e+29
-5.5277523e+29
-5.5301171e+29
-5.5981119e+29
-5.6152249e+29
-5.5504968e+29
-5.567123e+29
-5.5618516e+29
-5.5150902e+29
-5.5807896e+29
-5.5335338e+29
-5.4854623e+29
-5.5090599e+29
-5.4397571e+29
-5.5061914e+29
-5.4603552e+29
-5.5250281e+29
-5.5443506e+29
-5.4792291e+29
-5.4984125e+29
-5.4449185e+29
-5.4644098e+29
-5.4014902e+29
-5.4229861e+29
-5.3780772e+29
-5.3993991e+29
-5.3172972e+29
-5.3608888e+29
-5.3203272e+29
-5.3034862e+29
-5.2279139e+29
-4.9121428e+29
-5.0338735e+29
-4.8505918e+29
-4.7819912e+29
-4.9509003e+29
-5.0213725e+29
-4.8441093e+29
-5.1033802e+29
-5.3468169e+29
-5.3148131e+29
-5.2303104e+29
-5.1998337e+29
-4.9554104e+29
-4.984348e+29
-5.0760017e+29
-5.0434896e+29
-4.7827908e+29
-4.8333225e+29
-5.1694827e+29
-5.1345339e+29
-5.246604e+29
-5.2832747e+29
-5.1054262e+29
-5.0116642e+29
-5.0402177e+29
-5.133981e+29
-5.1930503e+29
-5.1457716e+29
-5.1038406e+29
-5.0618543e+29
-4.9712791e+29
-5.3561156e+29
-5.2964804e+29
-5.2407999e+29
-5.4893625e+29
-5.4724439e+29
-5.4386527e+29
-5.4561325e+29
-5.366992e+29
-5.326146e+29
-5.3867404e+29
-5.4235575e+29
-5.4046811e+29
-5.2848159e+29
-5.2470527e+29
-5.2077109e+29
-5.143419e+29
-5.5480604e+29
-5.481702e+29
-5.5530669e+29
-5.5210992e+29
-5.5551575e+29
-5.5867692e+29
-5.4951449e+29
-5.4694453e+29
-5.510869e+29
-5.5380445e+29
-5.4828205e+29
-5.4523985e+29
-5.4892361e+29
-5.5193823e+29
-5.5078946e+29
-5.5518634e+29
-5.4994662e+29
-5.543833e+29
-5.5357229e+29
-5.5156312e+29
-5.5279665e+29
-5.5485744e+29
-5.528893e+29
-5.5497813e+29
-5.5338717e+29
-5.5131221e+29
-5.5726485e+29
-5.5534643e+29
-5.5859395e+29
-5.5663043e+29
-5.5678083e+29
-5.5875894e+29
-5.5524571e+29
-5.5719505e+29
-5.6242397e+29
-5.6416565e+29
-5.6560567e+29
-5.6381725e+29
-5.6050769e+29
-5.6243573e+29
-5.6090094e+29
-5.5898931e+29
-5.6079123e+29
-5.5893275e+29
-5.6218989e+29
-5.6028469e+29
-5.6408233e+29
-5.658791e+29
-5.6260777e+29
-5.643592e+29
-5.3461267e+29
-5.4420817e+29
-5.3452497e+29
-5.442101e+29
-5.4113342e+29
-5.3875835e+29
-5.431444e+29
-5.4563137e+29
-5.4224322e+29
-5.4680655e+29
-5.4127536e+29
-5.4581919e+29
-5.5590961e+29
-5.5277032e+29
-5.5681338e+29
-5.5365936e+29
-5.5764374e+29
-5.5844624e+29
-5.5527048e+29
-5.544653e+29
-5.5236004e+29
-5.5326801e+29
-5.493126e+29
-5.5018948e+29
-5.5414397e+29
-5.5104103e+29
-5.5505039e+29
-5.5195046e+29
-5.4664725e+29
-5.4488874e+29
-5.4591366e+29
-5.4193679e+29
-5.4294837e+29
-5.4454014e+29
-5.4010501e+29
-5.4218018e+29
-5.4686258e+29
-5.438938e+29
-5.4784675e+29
-5.4489373e+29
-5.487547e+29
-5.4972717e+29
-5.4672418e+29
-5.4577179e+29
-5.5062123e+29
-5.5152182e+29
-5.4852803e+29
-5.4761015e+29
-5.4031425e+29
-5.4251646e+29
-5.3589404e+29
-5.3808432e+29
-5.3617867e+29
-5.3833558e+29
-5.3187978e+29
-5.3397992e+29
-5.3386789e+29
-5.299043e+29
-5.3417876e+29
-5.3207393e+29
-5.2786004e+29
-5.2374155e+29
-5.294663e+29
-5.280036e+29
-5.253546e+29
-5.1970057e+29
-5.0164542e+29
-4.9299825e+29
-4.8988195e+29
-4.9835196e+29
-4.7344298e+29
-5.1415406e+29
-5.1053875e+29
-5.0384548e+29
-5.0045582e+29
-4.9693187e+29
-4.7939495e+29
-4.9209964e+29
-4.8393679e+29
-4.9533817e+29
-4.8700877e+29
-4.6795651e+29
-5.176284e+29
-5.1054455e+29
-5.0701238e+29
-5.2144332e+29
-5.3449767e+29
-5.3294507e+29
-5.3999708e+29
-5.4162652e+29
-5.3142423e+29
-5.2979114e+29
-5.3675796e+29
-5.3842559e+29
-5.2315466e+29
-5.2170777e+29
-5.271717e+29
-5.286328e+29
-5.2407716e+29
-5.2023478e+29
-5.1869204e+29
-5.2565672e+29
-4.9535536e+29
-4.9921314e+29
-4.967871e+29
-5.0072544e+29
-4.8722571e+29
-4.9812643e+29
-5.0216797e+29
-5.0381728e+29
-4.9967868e+29
-4.8987691e+29
-5.0795438e+29
-5.0623702e+29
-5.1086017e+29
-5.126073e+29
-5.0472891e+29
-5.0315489e+29
-5.0762749e+29
-5.0927739e+29
-4.7809664e+29
-4.8060273e+29
-4.9233389e+29
-4.9503733e+29
-5.2094741e+29
-5.155512e+29
-5.2271105e+29
-5.1732199e+29
-5.1391752e+29
-5.1219263e+29
-5.1744597e+29
-5.1926079e+29
-5.2491908e+29
-5.2304143e+29
-5.2983502e+29
-5.3174377e+29
-5.334808e+29
-5.265986e+29
-5.2840814e+29
-5.3531628e+29
-5.140305e+29
-5.1095801e+29
-5.0939466e+29
-5.1554034e+29
-5.0681988e+29
-5.0523858e+29
-5.0105922e+29
-5.0262364e+29
-5.0394202e+29
-5.0815057e+29
-5.0528648e+29
-5.0948211e+29
-5.1367172e+29
-5.1228821e+29
-5.1694924e+29
-5.1836773e+29
-5.1859352e+29
-5.2100514e+29
-5.1904139e+29
-5.2145869e+29
-5.1417717e+29
-5.1635689e+29
-5.1460381e+29
-5.1679634e+29
-5.0999403e+29
-5.1210235e+29
-5.1043697e+29
-5.1252431e+29
-5.079792e+29
-5.0841474e+29
-5.0593276e+29
-5.0213649e+29
-5.0636054e+29
-5.0884086e+29
-5.0310284e+29
-5.0678693e+29
-4.9794885e+29
-4.9895555e+29
-5.3480339e+29
-5.3835313e+29
-5.3542188e+29
-5.2867206e+29
-5.3171897e+29
-5.2923514e+29
-5.3230327e+29
-5.233978e+29
-5.2598889e+29
-5.238856e+29
-5.265249e+29
-5.5054475e+29
-5.4971073e+29
-5.480477e+29
-5.4891835e+29
-5.446798e+29
-5.455024e+29
-5.4632574e+29
-5.4726758e+29
-5.3750077e+29
-5.3848828e+29
-5.3500589e+29
-5.3293515e+29
-5.3941106e+29
-5.404364e+29
-5.4305586e+29
-5.4399033e+29
-5.4126358e+29
-5.4219078e+29
-5.3099434e+29
-5.2887349e+29
-5.2497699e+29
-5.2705729e+29
-5.2313682e+29
-5.2123567e+29
-5.1741447e+29
-5.1335252e+29
-5.0968076e+29
-5.4097828e+29
-5.3337263e+29
-5.3409647e+29
-5.2804312e+29
-5.4517708e+29
-5.5424821e+29
-5.5602395e+29
-5.4226958e+29
-5.4551271e+29
-5.4840706e+29
-5.576169e+29
-5.5931354e+29
-5.4074287e+29
-5.3787457e+29
-5.4180071e+29
-5.4465363e+29
-5.3864929e+29
-5.4716636e+29
-5.4908045e+29
-5.3579865e+29
-5.3923139e+29
-5.4199528e+29
-5.5077737e+29
-5.5261575e+29
-5.4474902e+29
-5.4365641e+29
-5.4692306e+29
-5.4576949e+29
-5.4767914e+29
-5.4975186e+29
-5.4882688e+29
-5.5095623e+29
-5.4306136e+29
-5.4471023e+29
-5.4691563e+29
-5.4525983e+29
-5.5099687e+29
-5.4725113e+29
-5.4884783e+29
-5.4937676e+29
-5.4878631e+29
-5.5069444e+29
-5.4973372e+29
-5.5078191e+29
-5.5071284e+29
-5.4969838e+29
-5.516815e+29
-5.5268872e+29
-5.5261019e+29
-5.5164473e+29
-5.5093235e+29
-5.5192573e+29
-5.4904061e+29
-5.5002617e+29
-5.4897202e+29
-5.4706346e+29
-5.5002286e+29
-5.4810328e+29
-5.5428529e+29
-5.524568e+29
-5.5348967e+29
-5.535666e+29
-5.5445477e+29
-5.5456658e+29
-5.5534159e+29
-5.5626382e+29
-5.5541654e+29
-5.5637851e+29
-5.5282897e+29
-5.5383214e+29
-5.5194253e+29
-5.5095072e+29
-5.556341e+29
-5.5282265e+29
-5.5373865e+29
-5.5469438e+29
-5.6111938e+29
-5.5941959e+29
-5.5711802e+29
-5.5805357e+29
-5.5722867e+29
-5.5819557e+29
-5.5891136e+29
-5.5980724e+29
-5.5902342e+29
-5.5995938e+29
-5.5832165e+29
-5.5643509e+29
-5.5924481e+29
-5.5735117e+29
-5.5650801e+29
-5.5460997e+29
-5.5747956e+29
-5.5556169e+29
-5.5776259e+29
-5.5599433e+29
-5.6063507e+29
-5.6153417e+29
-5.6078239e+29
-5.6171906e+29
-5.6235155e+29
-5.6319868e+29
-5.6250338e+29
-5.6337907e+29
-5.6009722e+29
-5.5822517e+29
-5.6103917e+29
-5.5915669e+29
-5.6183363e+29
-5.6268474e+29
-5.5997648e+29
-5.6079452e+29
-5.2636037e+29
-5.2189223e+29
-5.2856397e+29
-5.3483206e+29
-5.3041094e+29
-5.3263096e+29
-5.3714631e+29
-5.2952161e+29
-5.2855139e+29
-5.3363611e+29
-5.3817481e+29
-5.3272772e+29
-5.3718866e+29
-5.3280207e+29
-5.3012079e+29
-5.3425686e+29
-5.3692032e+29
-5.3761506e+29
-5.3541229e+29
-5.3641711e+29
-5.3865972e+29
-5.3962008e+29
-5.4063949e+29
-5.4177286e+29
-5.4284111e+29
-5.3632102e+29
-5.3469747e+29
-5.3855786e+29
-5.3686481e+29
-5.4275265e+29
-5.3887892e+29
-5.4054579e+29
-5.4106047e+29
-5.5346552e+29
-5.5300536e+29
-5.5142887e+29
-5.5188206e+29
-5.5228769e+29
-5.538752e+29
-5.5430859e+29
-5.5273343e+29
-5.5513748e+29
-5.5470832e+29
-5.5311876e+29
-5.5354928e+29
-5.5591468e+29
-5.555249e+29
-5.5393135e+29
-5.543316e+29
-5.4999065e+29
-5.4955769e+29
-5.4800204e+29
-5.484247e+29
-5.5039139e+29
-5.5081682e+29
-5.4882026e+29
-5.4926044e+29
-5.517012e+29
-5.5123364e+29
-5.4965962e+29
-5.5012656e+29
-5.5213036e+29
-5.5258378e+29
-5.5055053e+29
-5.5102721e+29
-5.4292822e+29
-5.4394738e+29
-5.4104716e+29
-5.4001416e+29
-5.4270727e+29
-5.4219303e+29
-5.4066355e+29
-5.4117195e+29
-5.431808e+29
-5.4367199e+29
-5.4164719e+29
-5.4215596e+29
-5.4087855e+29
-5.4194609e+29
-5.3903161e+29
-5.3797706e+29
-5.4463816e+29
-5.4413041e+29
-5.4259391e+29
-5.4310368e+29
-5.4558096e+29
-5.4510108e+29
-5.4356793e+29
-5.440775e+29
-5.4649022e+29
-5.4601302e+29
-5.4449001e+29
-5.4496287e+29
-5.4739418e+29
-5.4692608e+29
-5.4539815e+29
-5.458756e+29
-5.4782313e+29
-5.4628791e+29
-5.4676335e+29
-5.4830334e+29
-5.4872649e+29
-5.4916021e+29
-5.4719571e+29
-5.4763505e+29
-5.3672842e+29
-5.3781228e+29
-5.3491907e+29
-5.3384728e+29
-5.3882418e+29
-5.3989367e+29
-5.3702107e+29
-5.3593813e+29
-5.3264101e+29
-5.3370369e+29
-5.298187e+29
-5.3086665e+29
-5.3186661e+29
-5.3470111e+29
-5.3575631e+29
-5.3291964e+29
-5.281326e+29
-5.3020906e+29
-5.2611795e+29
-5.2411624e+29
-5.3067597e+29
-5.3169353e+29
-5.278989e+29
-5.289056e+29
-5.2598594e+29
-5.2871994e+29
-5.2972306e+29
-5.269593e+29
-5.1998153e+29
-5.2397335e+29
-5.2614138e+29
-5.2212627e+29
-5.1996707e+29
-5.1615396e+29
-5.2206136e+29
-5.1815381e+29
-5.0187367e+29
-5.0022752e+29
-5.0459439e+29
-5.0626183e+29
-4.9253601e+29
-4.9414239e+29
-4.963573e+29
-4.979601e+29
-4.8481547e+29
-4.8949086e+29
-4.9106445e+29
-4.932082e+29
-4.948404e+29
-4.8188873e+29
-5.0125439e+29
-4.986863e+29
-4.9698922e+29
-5.0301025e+29
-4.7598808e+29
-4.7319359e+29
-5.1420407e+29
-5.1227876e+29
-5.2055048e+29
-5.1856032e+29
-5.1064143e+29
-5.0891851e+29
-5.0737152e+29
-5.1682e+29
-5.1501764e+29
-5.0404509e+29
-5.0229534e+29
-5.0713973e+29
-5.0894805e+29
-4.975305e+29
-5.0074741e+29
-5.0552832e+29
-4.9918244e+29
-5.0387766e+29
-4.9398502e+29
-5.0359675e+29
-4.8606797e+29
-4.7827612e+29
-4.8135464e+29
-4.8932239e+29
-4.6287705e+29
-4.9505211e+29
-4.9249335e+29
-4.9097399e+29
-4.9656673e+29
-4.8881792e+29
-4.8731045e+29
-4.8371299e+29
-4.8518968e+29
-4.7629775e+29
-4.9807941e+29
-4.955869e+29
-4.9394771e+29
-4.9975819e+29
-4.9185976e+29
-4.9026755e+29
-4.8660118e+29
-4.881841e+29
-4.7920676e+29
-4.6804625e+29
-4.7075077e+29
-5.0020428e+29
-4.5938706e+29
-4.6194142e+29
-5.1785273e+29
-5.158812e+29
-5.2231628e+29
-5.2435765e+29
-5.1596339e+29
-5.0902609e+29
-5.1076833e+29
-5.1416902e+29
-5.1055636e+29
-5.073968e+29
-5.0558162e+29
-5.1246099e+29
-5.2622213e+29
-5.2150637e+29
-5.1960699e+29
-5.2820525e+29
-5.3361073e+29
-5.3431211e+29
-5.3710483e+29
-5.3783203e+29
-5.3209823e+29
-5.3553973e+29
-5.3290797e+29
-5.3637597e+29
-5.3917829e+29
-5.4356128e+29
-5.4002776e+29
-5.4441409e+29
-5.407642e+29
-5.4518497e+29
-5.4154367e+29
-5.4599948e+29
-5.3046784e+29
-5.313694e+29
-5.3390782e+29
-5.3480536e+29
-5.3236536e+29
-5.2894408e+29
-5.2968769e+29
-5.3311695e+29
-5.3595438e+29
-5.3672085e+29
-5.4026975e+29
-5.4105519e+29
-5.3750514e+29
-5.3843008e+29
-5.4186034e+29
-5.4279139e+29
-5.2241589e+29
-5.2302546e+29
-5.2498427e+29
-5.2559249e+29
-5.2098532e+29
-5.217658e+29
-5.235343e+29
-5.2432603e+29
-5.2614404e+29
-5.2910825e+29
-5.2694093e+29
-5.2990471e+29
-5.2759529e+29
-5.2823859e+29
-5.3058511e+29
-5.3125841e+29
-5.2305786e+29
-5.2597824e+29
-5.2379536e+29
-5.2670466e+29
-5.194217e+29
-5.2027696e+29
-5.2196084e+29
-5.2282232e+29
-5.1794191e+29
-5.2047095e+29
-5.1867937e+29
-5.2120874e+29
-5.2453916e+29
-5.2542226e+29
-5.274757e+29
-5.2837255e+29
-4.96787e+29
-4.9750166e+29
-4.9172362e+29
-4.9561061e+29
-4.9494284e+29
-4.9865242e+29
-4.9939199e+29
-5.0063305e+29
-5.0138e+29
-4.9820084e+29
-4.9899024e+29
-4.930596e+29
-4.9706564e+29
-4.9629437e+29
-5.000978e+29
-5.0091056e+29
-5.0211186e+29
-5.0293731e+29
-4.880351e+29
-4.8929669e+29
-4.9964399e+29
-5.0042288e+29
-4.9430285e+29
-4.9843172e+29
-4.9770011e+29
-5.0158999e+29
-5.0363771e+29
-5.0239954e+29
-5.044602e+29
-5.031707e+29
-5.0524508e+29
-5.0403589e+29
-5.0610928e+29
-5.0117566e+29
-5.0202303e+29
-4.9575358e+29
-4.999871e+29
-4.9915853e+29
-4.9181753e+29
-4.904374e+29
-5.0728828e+29
-5.0815938e+29
-5.0945927e+29
-5.1032616e+29
-5.0567018e+29
-5.0781715e+29
-5.0650304e+29
-5.086616e+29
-5.1002236e+29
-5.1239883e+29
-5.1088125e+29
-5.1326361e+29
-5.1167575e+29
-5.1407501e+29
-5.1254735e+29
-5.1494246e+29
-5.0412219e+29
-5.0624955e+29
-5.0496467e+29
-5.07099e+29
-5.0260847e+29
-5.0468086e+29
-5.0337469e+29
-5.054817e+29
-5.0682205e+29
-5.0913323e+29
-5.0764552e+29
-5.0997295e+29
-5.084145e+29
-5.1076591e+29
-5.092892e+29
-5.1165133e+29
-4.8443325e+29
-4.8069048e+29
-4.818336e+29
-4.856321e+29
-4.8284011e+29
-4.8670886e+29
-4.8803036e+29
-4.8913848e+29
-4.9300975e+29
-4.9706974e+29
-4.944448e+29
-4.9857989e+29
-4.9700058e+29
-4.9566443e+29
-4.998548e+29
-5.0119467e+29
-5.1990003e+29
-5.2079533e+29
-5.2282569e+29
-5.2370795e+29
-5.147548e+29
-5.1563444e+29
-5.1729199e+29
-5.1818485e+29
-5.215986e+29
-5.2452677e+29
-5.2245104e+29
-5.2537442e+29
-5.173148e+29
-5.1645042e+29
-5.1900595e+29
-5.1985671e+29
-5.1310234e+29
-5.1561836e+29
-5.1400658e+29
-5.1653104e+29
-5.1143391e+29
-5.1390185e+29
-5.1229337e+29
-5.1478625e+29
-5.1643843e+29
-5.1929001e+29
-5.1733848e+29
-5.2021076e+29
-5.1817484e+29
-5.2107896e+29
-5.1912072e+29
-5.2204226e+29
-5.2400737e+29
-5.2498127e+29
-5.2738935e+29
-5.2835325e+29
-5.2217135e+29
-5.2312256e+29
-5.2551226e+29
-5.2648617e+29
-5.2904627e+29
-5.3002478e+29
-5.3325834e+29
-5.3423122e+29
-5.309098e+29
-5.3190503e+29
-5.3513651e+29
-5.3614499e+29
-5.3269861e+29
-5.3696211e+29
-5.3361708e+29
-5.378661e+29
-5.2575052e+29
-5.2912862e+29
-5.266441e+29
-5.3003944e+29
-5.2747179e+29
-5.2833025e+29
-5.3088335e+29
-5.3174465e+29
-5.3444363e+29
-5.3871186e+29
-5.3533592e+29
-5.3962328e+29
-5.1320954e+29
-5.1558397e+29
-5.1397536e+29
-5.1631625e+29
-5.1041096e+29
-5.1120863e+29
-5.1253387e+29
-5.1332823e+29
-5.0886334e+29
-5.1100978e+29
-5.0966618e+29
-5.1179607e+29
-5.1469104e+29
-5.1551256e+29
-5.1704946e+29
-5.1789218e+29
-5.0634179e+29
-5.0838988e+29
-5.0714345e+29
-5.0918208e+29
-5.0475801e+29
-5.0682725e+29
-5.0559903e+29
-5.0763895e+29
-5.0274546e+29
-5.035971e+29
-5.0069626e+29
-5.0153444e+29
-5.043379e+29
-5.0514572e+29
-5.0307117e+29
-5.0227734e+29
-5.0574751e+29
-5.0641438e+29
-5.0432731e+29
-5.0367362e+29
-5.0774409e+29
-5.0981377e+29
-5.0843267e+29
-5.1052138e+29
-5.0701863e+29
-5.0762005e+29
-5.0555691e+29
-5.049355e+29
-5.0902802e+29
-5.1113711e+29
-5.0962528e+29
-5.1173542e+29
-5.132108e+29
-5.1539987e+29
-5.1381132e+29
-5.1599452e+29
-5.1185543e+29
-5.1400201e+29
-5.1258339e+29
-5.1475934e+29
-5.1620992e+29
-5.1860835e+29
-5.1698288e+29
-5.1938216e+29
-5.1761749e+29
-5.2002858e+29
-5.1822352e+29
-5.2063589e+29
-5.1959385e+29
-5.1823808e+29
-5.193937e+29
-5.1843309e+29
-5.2054687e+29
-5.2176654e+29
-5.2196763e+29
-5.2074511e+29
-5.1887501e+29
-5.2003639e+29
-5.186286e+29
-5.1978852e+29
-5.2094078e+29
-5.2217722e+29
-5.2120191e+29
-5.2244804e+29
-5.1518543e+29
-5.1394445e+29
-5.1499125e+29
-5.1413916e+29
-5.1603581e+29
-5.1713716e+29
-5.1732654e+29
-5.1622677e+29
-5.1560569e+29
-5.1432269e+29
-5.1537053e+29
-5.1455216e+29
-5.164158e+29
-5.1752307e+29
-5.1665446e+29
-5.1776538e+29
-5.110971e+29
-5.0988713e+29
-5.1088703e+29
-5.1009887e+29
-5.1189153e+29
-5.129198e+29
-5.1311366e+29
-5.1209358e+29
-5.1150974e+29
-5.1030885e+29
-5.112936e+29
-5.1052109e+29
-5.1227564e+29
-5.1329764e+29
-5.1249775e+29
-5.1352039e+29
-5.0774319e+29
-5.0791893e+29
-5.0888889e+29
-5.0908123e+29
-5.0929758e+29
-5.095117e+29
-5.0813565e+29
-5.0835357e+29
-5.0623561e+29
-5.0413373e+29
-5.0228257e+29
-5.0272674e+29
-5.045593e+29
-5.0665996e+29
-5.0854952e+29
-5.0875816e+29
-5.0969514e+29
-5.0991402e+29
-5.0498781e+29
-5.0315501e+29
-5.0362059e+29
-5.0546386e+29
-5.0706624e+29
-5.0049264e+29
-4.9867583e+29
-4.9913678e+29
-5.0093776e+29
-5.0137819e+29
-4.9958214e+29
-5.0007009e+29
-5.0185467e+29
-5.417031e+29
-5.4397872e+29
-5.4628476e+29
-5.3631598e+29
-5.3427916e+29
-5.3601232e+29
-5.3456284e+29
-5.377394e+29
-5.3972872e+29
-5.4004045e+29
-5.3804435e+29
-5.3695136e+29
-5.3483964e+29
-5.3659941e+29
-5.3518866e+29
-5.2989973e+29
-5.2816169e+29
-5.2963201e+29
-5.2841824e+29
-5.3109355e+29
-5.327075e+29
-5.3297983e+29
-5.3135988e+29
-5.2898177e+29
-5.304677e+29
-5.28666e+29
-5.3015052e+29
-5.3161501e+29
-5.3325051e+29
-5.3194847e+29
-5.3359098e+29
-5.2443821e+29
-5.2295909e+29
-5.242099e+29
-5.2317034e+29
-5.2545812e+29
-5.2681471e+29
-5.2706105e+29
-5.2569496e+29
-5.2495742e+29
-5.2338909e+29
-5.2466916e+29
-5.2367111e+29
-5.2593016e+29
-5.2730623e+29
-5.2623295e+29
-5.276162e+29
-5.5100394e+29
-5.5141698e+29
-5.5020752e+29
-5.506262e+29
-5.4853749e+29
-5.4897608e+29
-5.4938096e+29
-5.4984051e+29
-5.4516507e+29
-5.4555957e+29
-5.4639249e+29
-5.4593799e+29
-5.4677183e+29
-5.4723751e+29
-5.4815996e+29
-5.47667e+29
-5.3667321e+29
-5.3794746e+29
-5.3844555e+29
-5.3943257e+29
-5.3890497e+29
-5.3561999e+29
-5.3362271e+29
-5.3466419e+29
-5.3985844e+29
-5.4036754e+29
-5.4083077e+29
-5.4135505e+29
-5.4349462e+29
-5.4396856e+29
-5.4439433e+29
-5.4484455e+29
-5.4174276e+29
-5.4219295e+29
-5.4261678e+29
-5.4309963e+29
-5.3159269e+29
-5.3270351e+29
-5.2954294e+29
-5.3059093e+29
-5.2559072e+29
-5.2661227e+29
-5.2758413e+29
-5.286619e+29
-5.2372659e+29
-5.247363e+29
-5.2191798e+29
-5.1963427e+29
-5.228468e+29
-5.1764989e+29
-5.1577084e+29
-5.1373377e+29
-5.1011312e+29
-5.1206329e+29
-5.1728919e+29
-5.2540466e+29
-5.2159275e+29
-5.1481379e+29
-5.3167369e+29
-5.3478738e+29
-5.2883575e+29
-5.2561506e+29
-5.5106182e+29
-5.4935848e+29
-5.3515888e+29
-5.4406301e+29
-5.457377e+29
-5.5424426e+29
-5.526091e+29
-5.3828974e+29
-5.4723252e+29
-5.4883184e+29
-5.3158893e+29
-5.4152747e+29
-5.3949656e+29
-5.2884726e+29
-5.3254443e+29
-5.3527003e+29
-5.433792e+29
-5.4540018e+29
-5.4438131e+29
-5.4256609e+29
-5.2909081e+29
-5.3760454e+29
-5.3933792e+29
-5.4775299e+29
-5.4600485e+29
-5.3218876e+29
-5.408685e+29
-5.4251971e+29
-5.4096163e+29
-5.4299255e+29
-5.4491431e+29
-5.4691832e+29
-5.4082502e+29
-5.3887825e+29
-5.4191691e+29
-5.3996853e+29
-5.4274488e+29
-5.4168545e+29
-5.4164346e+29
-5.4273645e+29
-5.4477695e+29
-5.4373804e+29
-5.4369681e+29
-5.4478243e+29
-5.4289115e+29
-5.4396984e+29
-5.4097092e+29
-5.4203715e+29
-5.477421e+29
-5.4876553e+29
-5.4880452e+29
-5.4774162e+29
-5.460172e+29
-5.441065e+29
-5.4494147e+29
-5.4303193e+29
-5.4676878e+29
-5.4572452e+29
-5.4572408e+29
-5.4680345e+29
-5.4696734e+29
-5.4801475e+29
-5.4507504e+29
-5.4609748e+29
-5.455772e+29
-5.4463704e+29
-5.4636517e+29
-5.454194e+29
-5.4874711e+29
-5.4777537e+29
-5.4740065e+29
-5.4646088e+29
-5.4725339e+29
-5.4818182e+29
-5.5059907e+29
-5.4966378e+29
-5.4809944e+29
-5.4863194e+29
-5.486444e+29
-5.4810997e+29
-5.4910888e+29
-5.4910594e+29
-5.4957892e+29
-5.4960692e+29
-5.5004354e+29
-5.5002179e+29
-5.5053233e+29
-5.5055335e+29
-5.5099402e+29
-5.5098268e+29
-5.5143946e+29
-5.5147525e+29
-5.4903476e+29
-5.4974923e+29
-5.5025893e+29
-5.4954168e+29
-5.499839e+29
-5.5069252e+29
-5.5118061e+29
-5.50465e+29
-5.457539e+29
-5.4782538e+29
-5.4833183e+29
-5.4626102e+29
-5.4925658e+29
-5.4878722e+29
-5.4671251e+29
-5.4719195e+29
-5.4780455e+29
-5.4834043e+29
-5.4708452e+29
-5.4761155e+29
-5.4380684e+29
-5.4587218e+29
-5.4639569e+29
-5.4432489e+29
-5.4807938e+29
-5.4880146e+29
-5.4930912e+29
-5.4858453e+29
-5.4736166e+29
-5.4686923e+29
-5.4478859e+29
-5.4528335e+29
-5.5084112e+29
-5.4991431e+29
-5.5073259e+29
-5.5164609e+29
-5.5327189e+29
-5.541759e+29
-5.4906865e+29
-5.4818494e+29
-5.4988685e+29
-5.490008e+29
-5.5147669e+29
-5.5239399e+29
-5.5190313e+29
-5.5187065e+29
-5.5237448e+29
-5.5240806e+29
-5.5282053e+29
-5.5327547e+29
-5.5284755e+29
-5.5332317e+29
-5.5373936e+29
-5.5369956e+29
-5.5417923e+29
-5.5422186e+29
-5.5464478e+29
-5.5461241e+29
-5.5511127e+29
-5.5505867e+29
-5.5090581e+29
-5.5161314e+29
-5.521192e+29
-5.5140347e+29
-5.5303743e+29
-5.525551e+29
-5.5231473e+29
-5.5184386e+29
-5.5064712e+29
-5.485643e+29
-5.4903411e+29
-5.5111094e+29
-5.476397e+29
-5.4970537e+29
-5.5019752e+29
-5.4812454e+29
-5.5435795e+29
-5.548278e+29
-5.5411908e+29
-5.53656e+29
-5.5154552e+29
-5.5203022e+29
-5.4995331e+29
-5.4947053e+29
-5.5036982e+29
-5.5245886e+29
-5.5290837e+29
-5.5081609e+29
-5.5394468e+29
-5.534585e+29
-5.5323509e+29
-5.5274931e+29
-5.5744589e+29
-5.5659178e+29
-5.574534e+29
-5.5829691e+29
-5.6015582e+29
-5.6099447e+29
-5.5579112e+29
-5.5495189e+29
-5.5579401e+29
-5.5664605e+29
-5.584627e+29
-5.5933037e+29
-5.5503211e+29
-5.5592217e+29
-5.5596598e+29
-5.5548086e+29
-5.5552906e+29
-5.5601649e+29
-5.5644031e+29
-5.5639823e+29
-5.5683079e+29
-5.5689518e+29
-5.5676709e+29
-5.5763387e+29
-5.5771325e+29
-5.5724105e+29
-5.5729951e+29
-5.5777229e+29
-5.5818221e+29
-5.5813141e+29
-5.585611e+29
-5.586338e+29
-5.5750841e+29
-5.5703259e+29
-5.5632877e+29
-5.5680355e+29
-5.5296323e+29
-5.5510826e+29
-5.5558791e+29
-5.5343521e+29
-5.5721319e+29
-5.5790979e+29
-5.5836751e+29
-5.576628e+29
-5.5645095e+29
-5.5601003e+29
-5.5385364e+29
-5.5431179e+29
-5.557408e+29
-5.5524956e+29
-5.5454668e+29
-5.5503036e+29
-5.5123216e+29
-5.5333345e+29
-5.5380906e+29
-5.51683e+29
-5.554539e+29
-5.5615954e+29
-5.5662264e+29
-5.5590991e+29
-5.5468155e+29
-5.5423695e+29
-5.5208929e+29
-5.5253116e+29
-5.5420272e+29
-5.5331342e+29
-5.5415246e+29
-5.5501881e+29
-5.5249452e+29
-5.5162292e+29
-5.5332853e+29
-5.5246088e+29
-5.5944085e+29
-5.5897082e+29
-5.5903994e+29
-5.5951465e+29
-5.5992831e+29
-5.5986197e+29
-5.6028775e+29
-5.6037297e+29
-5.6076461e+29
-5.6068777e+29
-5.6114413e+29
-5.6121782e+29
-5.6194217e+29
-5.6154026e+29
-5.6160338e+29
-5.620235e+29
-5.5926163e+29
-5.5878061e+29
-5.5808458e+29
-5.5856402e+29
-5.5473974e+29
-5.5687757e+29
-5.5735989e+29
-5.5520572e+29
-5.5897887e+29
-5.5967059e+29
-5.6012143e+29
-5.5942239e+29
-5.5821745e+29
-5.5778213e+29
-5.5561701e+29
-5.5605912e+29
-5.5982446e+29
-5.6051593e+29
-5.609675e+29
-5.6027059e+29
-5.6064932e+29
-5.6134538e+29
-5.6176527e+29
-5.6106532e+29
-5.5647036e+29
-5.5862197e+29
-5.5906901e+29
-5.5690742e+29
-5.598441e+29
-5.5945025e+29
-5.5729091e+29
-5.5768116e+29
-5.183609e+29
-5.1416366e+29
-5.2075826e+29
-5.2634698e+29
-5.2214644e+29
-5.2467792e+29
-5.2883445e+29
-5.2515205e+29
-5.2300268e+29
-5.2390647e+29
-5.2609915e+29
-5.2378641e+29
-5.2597306e+29
-5.2231536e+29
-5.2445243e+29
-5.2708209e+29
-5.2926315e+29
-5.3026683e+29
-5.2804484e+29
-5.3127979e+29
-5.33454e+29
-5.3446067e+29
-5.3224862e+29
-5.2795757e+29
-5.3018351e+29
-5.2643565e+29
-5.2862479e+29
-5.321639e+29
-5.3435213e+29
-5.3062744e+29
-5.3274823e+29
-5.2408846e+29
-5.3363015e+29
-5.3147931e+29
-5.2153e+29
-5.2541956e+29
-5.279806e+29
-5.3764657e+29
-5.3555922e+29
-5.3284326e+29
-5.349692e+29
-5.3695253e+29
-5.3902082e+29
-5.3452914e+29
-5.3344252e+29
-5.3338677e+29
-5.3449218e+29
-5.3258191e+29
-5.3366971e+29
-5.3072303e+29
-5.3176838e+29
-5.3662062e+29
-5.3555674e+29
-5.3546796e+29
-5.3656356e+29
-5.3464033e+29
-5.3273495e+29
-5.3571285e+29
-5.3377188e+29
-5.3966828e+29
-5.4072467e+29
-5.3959002e+29
-5.4068625e+29
-5.366905e+29
-5.3475528e+29
-5.3778129e+29
-5.3583109e+29
-5.3866265e+29
-5.3759288e+29
-5.3752225e+29
-5.3862166e+29
-5.387614e+29
-5.3984453e+29
-5.3682741e+29
-5.378874e+29
-5.5004941e+29
-5.4961036e+29
-5.5045935e+29
-5.5088508e+29
-5.5169575e+29
-5.51287e+29
-5.5246181e+29
-5.5207451e+29
-5.4661665e+29
-5.4621647e+29
-5.4700604e+29
-5.4742509e+29
-5.4828976e+29
-5.4783744e+29
-5.4872318e+29
-5.4918039e+29
-5.3870396e+29
-5.402224e+29
-5.4075203e+29
-5.3923824e+29
-5.4173141e+29
-5.4123466e+29
-5.3972634e+29
-5.402356e+29
-5.3947185e+29
-5.3897397e+29
-5.3994664e+29
-5.404402e+29
-5.367044e+29
-5.3821738e+29
-5.3875391e+29
-5.3723124e+29
-5.392403e+29
-5.3974733e+29
-5.3773092e+29
-5.3824627e+29
-5.4139477e+29
-5.4089968e+29
-5.4234449e+29
-5.4185913e+29
-5.4322523e+29
-5.4277665e+29
-5.4410511e+29
-5.4365246e+29
-5.4453366e+29
-5.4499514e+29
-5.4542127e+29
-5.4584408e+29
-5.3463952e+29
-5.3409939e+29
-5.3258446e+29
-5.3311538e+29
-5.3566683e+29
-5.351357e+29
-5.3361464e+29
-5.3416445e+29
-5.3615032e+29
-5.3670136e+29
-5.3464344e+29
-5.3518441e+29
-5.3569394e+29
-5.3720536e+29
-5.377362e+29
-5.3624977e+29
-5.3006164e+29
-5.30582e+29
-5.285696e+29
-5.2908141e+29
-5.2956905e+29
-5.3106693e+29
-5.3157467e+29
-5.3009599e+29
-5.3259494e+29
-5.3205255e+29
-5.3055672e+29
-5.3109907e+29
-5.3362121e+29
-5.3309509e+29
-5.3160051e+29
-5.3214188e+29
-5.2480842e+29
-5.221763e+29
-5.2586083e+29
-5.2320262e+29
-5.268257e+29
-5.2782028e+29
-5.2416741e+29
-5.2515064e+29
-5.2864572e+29
-5.2813164e+29
-5.2664852e+29
-5.2716796e+29
-5.2960545e+29
-5.2911477e+29
-5.2764772e+29
-5.2813945e+29
-5.2675398e+29
-5.2625745e+29
-5.248043e+29
-5.2529182e+29
-5.2768054e+29
-5.2720417e+29
-5.2574478e+29
-5.2621873e+29
-5.2077018e+29
-5.2181688e+29
-5.1921849e+29
-5.1818738e+29
-5.227985e+29
-5.2385358e+29
-5.2021e+29
-5.2125297e+29
-5.1441248e+29
-5.1686939e+29
-5.1790977e+29
-5.1540771e+29
-5.1886534e+29
-5.198586e+29
-5.1733325e+29
-5.1636434e+29
-5.0118525e+29
-5.0198874e+29
-5.0323467e+29
-5.0404046e+29
-4.9959202e+29
-5.0162824e+29
-5.0041998e+29
-5.0246266e+29
-5.0370988e+29
-5.0594645e+29
-5.0455459e+29
-5.067971e+29
-5.0532067e+29
-5.0758866e+29
-5.0615742e+29
-5.0844548e+29
-4.9385401e+29
-4.9467645e+29
-4.8889929e+29
-4.9202571e+29
-4.9283264e+29
-4.954224e+29
-4.9620386e+29
-4.9050368e+29
-4.9358484e+29
-4.9436511e+29
-4.9569643e+29
-4.9764472e+29
-4.9652429e+29
-4.9846507e+29
-4.9726115e+29
-4.9805674e+29
-4.9922259e+29
-5.0002051e+29
-4.8520117e+29
-4.8684599e+29
-4.9078505e+29
-4.9155876e+29
-4.8595059e+29
-4.8898895e+29
-4.8973468e+29
-4.9230843e+29
-4.9315317e+29
-4.8746952e+29
-4.9048232e+29
-4.9132395e+29
-4.9258124e+29
-4.9445336e+29
-4.9336953e+29
-4.9526055e+29
-4.941214e+29
-4.960436e+29
-4.9498439e+29
-4.969166e+29
-4.8237571e+29
-4.8383107e+29
-5.0036277e+29
-5.0255585e+29
-5.0124376e+29
-5.0343645e+29
-4.979727e+29
-5.0000099e+29
-4.988619e+29
-5.0089633e+29
-4.963392e+29
-4.9831252e+29
-4.9717115e+29
-4.9917967e+29
-5.020618e+29
-5.0427822e+29
-5.0297477e+29
-5.0519958e+29
-4.7963552e+29
-4.7815914e+29
-4.8169021e+29
-4.8326729e+29
-4.7893731e+29
-4.7540322e+29
-4.7686263e+29
-4.8033953e+29
-5.1316043e+29
-5.1415869e+29
-5.1629783e+29
-5.1730028e+29
-5.1134024e+29
-5.1226402e+29
-5.1441893e+29
-5.1537661e+29
-5.1958289e+29
-5.2062126e+29
-5.2354117e+29
-5.2459612e+29
-5.1768541e+29
-5.1866485e+29
-5.2159912e+29
-5.2259112e+29
-5.0969507e+29
-5.1058984e+29
-5.1275565e+29
-5.1365055e+29
-5.0890431e+29
-5.0808693e+29
-5.1108528e+29
-5.1194271e+29
-5.0749718e+29
-5.056448e+29
-5.1160522e+29
-5.1349642e+29
-5.1595335e+29
-5.1688825e+29
-5.1980179e+29
-5.2076601e+29
-5.1514323e+29
-5.1426963e+29
-5.1806293e+29
-5.1895601e+29
-5.0306659e+29
-5.0536937e+29
-5.0398766e+29
-5.0630001e+29
-5.01412e+29
-5.0366606e+29
-5.022454e+29
-5.0452831e+29
-5.0600892e+29
-5.0689324e+29
-5.0865144e+29
-5.0955067e+29
-5.0773894e+29
-5.0870062e+29
-5.1042736e+29
-5.1140734e+29
-4.9786507e+29
-4.9610789e+29
-5.0073425e+29
-5.0251829e+29
-4.9987516e+29
-5.0211842e+29
-5.0071202e+29
-5.0295875e+29
-5.0441717e+29
-5.0528104e+29
-5.070272e+29
-5.0790396e+29
-4.9843181e+29
-5.0062486e+29
-4.9915058e+29
-5.013735e+29
-5.0366755e+29
-5.0289839e+29
-5.0546039e+29
-5.0624957e+29
-4.9727094e+29
-4.9278033e+29
-4.9445708e+29
-4.9902152e+29
-5.0205379e+29
-5.0785442e+29
-5.0390037e+29
-5.0979458e+29
-4.8883253e+29
-4.8653695e+29
-4.8495881e+29
-4.9044287e+29
-4.7956583e+29
-4.8299864e+29
-4.8250692e+29
-4.8097236e+29
-4.8446787e+29
-4.7381725e+29
-4.8604783e+29
-4.8968173e+29
-4.9202698e+29
-4.880288e+29
-4.937366e+29
-4.6574871e+29
-4.9427871e+29
-4.963546e+29
-4.9498596e+29
-4.9705198e+29
-4.9183623e+29
-4.926315e+29
-4.9373456e+29
-4.9452389e+29
-4.9042859e+29
-4.9232321e+29
-4.9113529e+29
-4.9303218e+29
-4.9567414e+29
-4.9776223e+29
-4.9648483e+29
-4.9859075e+29
-4.8819235e+29
-4.9001122e+29
-4.8898763e+29
-4.9080406e+29
-4.8677919e+29
-4.8860565e+29
-4.8750795e+29
-4.8931295e+29
-4.8502194e+29
-4.8574433e+29
-4.83286e+29
-4.8029787e+29
-4.8398255e+29
-4.8643693e+29
-4.8722029e+29
-4.8172911e+29
-4.8545721e+29
-4.8467725e+29
-4.7688539e+29
-4.7828872e+29
-4.9718501e+29
-4.9800018e+29
-4.992963e+29
-5.001074e+29
-4.9484715e+29
-4.956623e+29
-4.967812e+29
-4.9760783e+29
-4.9330953e+29
-4.9521043e+29
-4.9409551e+29
-4.9601549e+29
-4.9876516e+29
-4.996324e+29
-5.0090713e+29
-5.0180929e+29
-4.9116233e+29
-4.9300224e+29
-4.9195735e+29
-4.9379902e+29
-4.8965485e+29
-4.9148487e+29
-4.9044356e+29
-4.9226311e+29
-4.8787795e+29
-4.8865947e+29
-4.8310535e+29
-4.8611372e+29
-4.8687346e+29
-4.8938519e+29
-4.9016731e+29
-4.8466195e+29
-4.8759927e+29
-4.8837453e+29
-4.7959473e+29
-4.8114664e+29
-4.7361699e+29
-4.7028856e+29
-4.7160736e+29
-4.7496952e+29
-4.7425764e+29
-4.7284301e+29
-4.7625455e+29
-4.7773947e+29
-4.9582568e+29
-5.0627231e+29
-5.044238e+29