/*--------------------------------*- C++ -*----------------------------------*\
  =========                 |
  \\      /  F ield         | OpenFOAM: The Open Source CFD Toolbox
   \\    /   O peration     | Website:  https://openfoam.org
    \\  /    A nd           | Version:  7
     \\/     M anipulation  |
\*---------------------------------------------------------------------------*/
FoamFile
{
    version     2.0;
    format      ascii;
    class       volScalarField;
    location    "2000";
    object      pMean;
}
// * * * * * * * * * * * * * * * * * * * * * * * * * * * * * * * * * * * * * //

dimensions      [0 2 -2 0 0 0 0];

internalField   nonuniform List<scalar> 
33730
(
-6.7169214e+26
-6.4326545e+26
-6.7586817e+26
-6.61868e+26
-6.580058e+26
-6.6188085e+26
-6.7118479e+26
-6.5769856e+26
-6.190986e+26
-6.5355764e+26
-6.5284928e+26
-6.4268376e+26
-6.6261644e+26
-6.6271729e+26
-6.65024e+26
-6.6507831e+26
-6.7126169e+26
-6.6618072e+26
-6.6699709e+26
-6.6610199e+26
-6.670351e+26
-6.663309e+26
-6.6641006e+26
-6.667936e+26
-6.6192281e+26
-6.6743715e+26
-6.6012337e+26
-6.5835757e+26
-6.5671644e+26
-6.6426039e+26
-6.1728019e+26
-6.3365198e+26
-6.1817846e+26
-6.1035388e+26
-6.1884253e+26
-6.1965433e+26
-6.1109744e+26
-6.3300928e+26
-6.1907587e+26
-6.6456768e+26
-6.6420401e+26
-6.6354712e+26
-6.6420258e+26
-6.5207116e+26
-6.5093637e+26
-6.6376534e+26
-6.6215116e+26
-6.6227389e+26
-6.6408668e+26
-6.6262139e+26
-6.6440045e+26
-6.6258736e+26
-6.6278458e+26
-6.6448872e+26
-6.644369e+26
-6.628394e+26
-6.6659716e+26
-6.6263044e+26
-6.6643015e+26
-6.624312e+26
-6.6617812e+26
-6.6220581e+26
-6.662609e+26
-6.6440349e+26
-6.6175476e+26
-6.630068e+26
-6.6812893e+26
-6.6808922e+26
-6.6948179e+26
-6.6922349e+26
-6.6799811e+26
-6.6900571e+26
-6.6807791e+26
-6.6945618e+26
-6.6765471e+26
-6.6568698e+26
-6.6875236e+26
-6.6790822e+26
-6.69423e+26
-6.6794679e+26
-6.6791302e+26
-6.694211e+26
-6.6902967e+26
-6.6641376e+26
-6.651888e+26
-6.6601981e+26
-6.6494842e+26
-6.6442803e+26
-6.5847275e+26
-6.6500212e+26
-6.6587878e+26
-6.5539253e+26
-6.5654251e+26
-6.5308247e+26
-6.1736328e+26
-6.3178314e+26
-6.168915e+26
-6.0720644e+26
-6.1619398e+26
-6.1854329e+26
-6.0922011e+26
-6.3251931e+26
-6.5056679e+26
-6.5063997e+26
-6.3981848e+26
-6.3980568e+26
-6.1807538e+26
-6.184067e+26
-6.2818433e+26
-6.2754475e+26
-5.977991e+26
-5.9837666e+26
-6.3903182e+26
-6.3826131e+26
-6.4960538e+26
-6.5043953e+26
-6.2880769e+26
-6.1931323e+26
-6.1954358e+26
-6.288819e+26
-6.3370183e+26
-6.2880574e+26
-6.228239e+26
-6.1844146e+26
-6.0696552e+26
-6.5585115e+26
-6.477356e+26
-6.4138245e+26
-6.7005625e+26
-6.7006956e+26
-6.6955638e+26
-6.6985436e+26
-6.6919766e+26
-6.6337612e+26
-6.6964927e+26
-6.6974781e+26
-6.6987076e+26
-6.628704e+26
-6.6203968e+26
-6.6124843e+26
-6.4910355e+26
-6.5403135e+26
-6.5369719e+26
-6.6382755e+26
-6.6094242e+26
-6.6097558e+26
-6.639492e+26
-6.6346583e+26
-6.617733e+26
-6.6229884e+26
-6.6417662e+26
-6.6353593e+26
-6.6045397e+26
-6.6086583e+26
-6.6389863e+26
-6.6170585e+26
-6.6226908e+26
-6.6532696e+26
-6.6585974e+26
-6.639796e+26
-6.6379928e+26
-6.6648642e+26
-6.6659424e+26
-6.648258e+26
-6.6484067e+26
-6.6601698e+26
-6.6593105e+26
-6.639695e+26
-6.6391453e+26
-6.6665428e+26
-6.6642952e+26
-6.6482283e+26
-6.6490934e+26
-6.6610431e+26
-6.6613076e+26
-6.6380158e+26
-6.6382218e+26
-6.6653346e+26
-6.6630327e+26
-6.6502997e+26
-6.6499556e+26
-6.6626381e+26
-6.6632388e+26
-6.6396241e+26
-6.6390941e+26
-6.6659553e+26
-6.665681e+26
-6.6483764e+26
-6.6493689e+26
-6.6624587e+26
-6.6629484e+26
-6.5787081e+26
-6.5949172e+26
-6.583755e+26
-6.6040544e+26
-6.6294223e+26
-6.6104688e+26
-6.6177982e+26
-6.6352429e+26
-6.6109465e+26
-6.6150973e+26
-6.6436415e+26
-6.6492335e+26
-6.6950814e+26
-6.7047294e+26
-6.6961907e+26
-6.7080647e+26
-6.6961086e+26
-6.6942846e+26
-6.7046603e+26
-6.7074824e+26
-6.691925e+26
-6.6940648e+26
-6.7028477e+26
-6.7071255e+26
-6.6955244e+26
-6.7068331e+26
-6.6940718e+26
-6.703714e+26
-6.6728986e+26
-6.688113e+26
-6.6906311e+26
-6.6994263e+26
-6.7046158e+26
-6.671821e+26
-6.687493e+26
-6.6851715e+26
-6.6916377e+26
-6.7048632e+26
-6.6903435e+26
-6.7019728e+26
-6.6914966e+26
-6.6927103e+26
-6.705724e+26
-6.7026439e+26
-6.6929862e+26
-6.6904881e+26
-6.7016831e+26
-6.7047974e+26
-6.6687374e+26
-6.6710341e+26
-6.679927e+26
-6.6868694e+26
-6.664022e+26
-6.6656233e+26
-6.6773214e+26
-6.6762099e+26
-6.6329713e+26
-6.6758186e+26
-6.6610897e+26
-6.6579852e+26
-6.668654e+26
-6.6361576e+26
-6.6261446e+26
-6.6423427e+26
-6.6173261e+26
-6.6310147e+26
-6.2739553e+26
-6.1762248e+26
-6.1722498e+26
-6.2689254e+26
-5.9713022e+26
-6.4856501e+26
-6.4765448e+26
-6.3743554e+26
-6.3666816e+26
-6.3056958e+26
-6.156251e+26
-6.256972e+26
-6.1551603e+26
-6.2640081e+26
-6.1626251e+26
-5.9684476e+26
-6.4915136e+26
-6.3811933e+26
-6.3774853e+26
-6.4954505e+26
-6.55874e+26
-6.5592719e+26
-6.6173979e+26
-6.6158156e+26
-6.5565861e+26
-6.5544894e+26
-6.6119407e+26
-6.6152029e+26
-6.4164369e+26
-6.4154937e+26
-6.4786305e+26
-6.4786719e+26
-6.474592e+26
-6.4129116e+26
-6.4120473e+26
-6.4764133e+26
-6.1655854e+26
-6.211723e+26
-6.1692656e+26
-6.2151099e+26
-6.0568457e+26
-6.1719355e+26
-6.217968e+26
-6.2204297e+26
-6.174439e+26
-6.0643809e+26
-6.2818521e+26
-6.2789231e+26
-6.330753e+26
-6.3334061e+26
-6.2753351e+26
-6.2722394e+26
-6.3233064e+26
-6.3269155e+26
-5.9582917e+26
-5.9663184e+26
-6.0678184e+26
-6.0697896e+26
-6.4732838e+26
-6.4087003e+26
-6.4743106e+26
-6.4107899e+26
-6.4047282e+26
-6.4016309e+26
-6.4653005e+26
-6.4696596e+26
-6.5518811e+26
-6.5473108e+26
-6.6076612e+26
-6.6131712e+26
-6.6158804e+26
-6.5552616e+26
-6.5552992e+26
-6.6142565e+26
-6.335382e+26
-6.288878e+26
-6.2863071e+26
-6.3375717e+26
-6.2268009e+26
-6.2229571e+26
-6.177791e+26
-6.1817228e+26
-6.1840674e+26
-6.229242e+26
-6.1851187e+26
-6.2296089e+26
-6.2898894e+26
-6.2899708e+26
-6.3399914e+26
-6.3401001e+26
-6.3401118e+26
-6.36439e+26
-6.3395475e+26
-6.364001e+26
-6.2818684e+26
-6.3028447e+26
-6.2808732e+26
-6.3021415e+26
-6.2218274e+26
-6.2420648e+26
-6.220928e+26
-6.2411312e+26
-6.1873698e+26
-6.1863071e+26
-6.1693924e+26
-6.1155328e+26
-6.1684602e+26
-6.1863407e+26
-6.1152507e+26
-6.1684305e+26
-6.0698067e+26
-6.0705628e+26
-6.5769972e+26
-6.6120786e+26
-6.5782481e+26
-6.4846202e+26
-6.5215607e+26
-6.4851787e+26
-6.5229426e+26
-6.4103673e+26
-6.4387675e+26
-6.4100095e+26
-6.4391556e+26
-6.7215308e+26
-6.7224596e+26
-6.7196711e+26
-6.7218362e+26
-6.7176596e+26
-6.7198939e+26
-6.7203448e+26
-6.7193956e+26
-6.7133931e+26
-6.7166906e+26
-6.6913421e+26
-6.6912078e+26
-6.7178028e+26
-6.7172484e+26
-6.7196706e+26
-6.7186065e+26
-6.7175288e+26
-6.7195953e+26
-6.6881128e+26
-6.6821544e+26
-6.6777791e+26
-6.67941e+26
-6.6744761e+26
-6.6694528e+26
-6.6094948e+26
-6.5988893e+26
-6.5920889e+26
-6.5289888e+26
-6.5170773e+26
-6.4380656e+26
-6.4305572e+26
-6.6261045e+26
-6.6693699e+26
-6.6698835e+26
-6.5478517e+26
-6.5498223e+26
-6.6293419e+26
-6.6707113e+26
-6.6694359e+26
-6.6286621e+26
-6.5975793e+26
-6.6015313e+26
-6.6335924e+26
-6.6222006e+26
-6.6659687e+26
-6.6680465e+26
-6.5424843e+26
-6.545817e+26
-6.6253327e+26
-6.6692549e+26
-6.6691722e+26
-6.6571192e+26
-6.6310795e+26
-6.6597661e+26
-6.6335422e+26
-6.6336954e+26
-6.6353287e+26
-6.6587544e+26
-6.6626935e+26
-6.6502162e+26
-6.6397857e+26
-6.6415572e+26
-6.6522515e+26
-6.6448957e+26
-6.6528799e+26
-6.6418676e+26
-6.655437e+26
-6.6913088e+26
-6.6928975e+26
-6.6691987e+26
-6.6690549e+26
-6.6693675e+26
-6.668519e+26
-6.6692904e+26
-6.6707133e+26
-6.6702198e+26
-6.6697888e+26
-6.6784028e+26
-6.6789297e+26
-6.6812388e+26
-6.6805134e+26
-6.6772985e+26
-6.6776119e+26
-6.6782606e+26
-6.6804401e+26
-6.6941671e+26
-6.6928541e+26
-6.6706269e+26
-6.6713898e+26
-6.6712973e+26
-6.6714174e+26
-6.6708813e+26
-6.6709508e+26
-6.6704573e+26
-6.6718333e+26
-6.6799569e+26
-6.6810911e+26
-6.6845825e+26
-6.6818059e+26
-6.6801686e+26
-6.6841087e+26
-6.6817272e+26
-6.6803879e+26
-6.695549e+26
-6.6947651e+26
-6.6716303e+26
-6.672054e+26
-6.672647e+26
-6.6722236e+26
-6.6721364e+26
-6.6722285e+26
-6.6718981e+26
-6.6729057e+26
-6.682828e+26
-6.6880317e+26
-6.6827884e+26
-6.6865603e+26
-6.6813097e+26
-6.6825511e+26
-6.6824944e+26
-6.6857955e+26
-6.6949346e+26
-6.6940233e+26
-6.672551e+26
-6.6728507e+26
-6.6733235e+26
-6.6731101e+26
-6.6722048e+26
-6.6725975e+26
-6.67233e+26
-6.6737163e+26
-6.6836434e+26
-6.6876721e+26
-6.6842594e+26
-6.689621e+26
-6.6833934e+26
-6.6837038e+26
-6.6889207e+26
-6.6869963e+26
-6.5847033e+26
-6.5745455e+26
-6.6020717e+26
-6.6006807e+26
-6.5915364e+26
-6.6091499e+26
-6.6204099e+26
-6.5812272e+26
-6.612256e+26
-6.5902652e+26
-6.5989348e+26
-6.6222003e+26
-6.6308013e+26
-6.6177737e+26
-6.5840944e+26
-6.5930958e+26
-6.6252077e+26
-6.6241511e+26
-6.6203115e+26
-6.6457267e+26
-6.6493256e+26
-6.626362e+26
-6.6504247e+26
-6.6289099e+26
-6.6551883e+26
-6.6274802e+26
-6.6372864e+26
-6.6301306e+26
-6.6401226e+26
-6.6366432e+26
-6.6433294e+26
-6.6331337e+26
-6.6468258e+26
-6.7012169e+26
-6.7006279e+26
-6.7152022e+26
-6.7184939e+26
-6.7183091e+26
-6.7020548e+26
-6.6993154e+26
-6.7157724e+26
-6.6997406e+26
-6.7008854e+26
-6.7158824e+26
-6.7181318e+26
-6.6993617e+26
-6.7005504e+26
-6.7175345e+26
-6.7149035e+26
-6.7008398e+26
-6.6997709e+26
-6.7130994e+26
-6.7173194e+26
-6.7018893e+26
-6.6990528e+26
-6.7177515e+26
-6.7153376e+26
-6.7003731e+26
-6.6998619e+26
-6.7153029e+26
-6.7178947e+26
-6.7008256e+26
-6.6991147e+26
-6.7167311e+26
-6.7141861e+26
-6.6865688e+26
-6.6853632e+26
-6.6973279e+26
-6.6995617e+26
-6.6980015e+26
-6.6964469e+26
-6.7085629e+26
-6.7128609e+26
-6.699535e+26
-6.6973344e+26
-6.7137169e+26
-6.7118668e+26
-6.6847499e+26
-6.6862397e+26
-6.6999177e+26
-6.6958206e+26
-6.6990533e+26
-6.6996778e+26
-6.7122221e+26
-6.714726e+26
-6.6982099e+26
-6.6997002e+26
-6.7138916e+26
-6.711502e+26
-6.6997314e+26
-6.6999767e+26
-6.7122856e+26
-6.7152742e+26
-6.6986861e+26
-6.6998869e+26
-6.7153715e+26
-6.7133702e+26
-6.6996258e+26
-6.7132481e+26
-6.7156868e+26
-6.7007512e+26
-6.6992592e+26
-6.6979634e+26
-6.7146554e+26
-6.7120977e+26
-6.6808228e+26
-6.6833876e+26
-6.6963846e+26
-6.6914168e+26
-6.6840642e+26
-6.6830951e+26
-6.6941347e+26
-6.6962113e+26
-6.6771189e+26
-6.6794399e+26
-6.6869651e+26
-6.6912351e+26
-6.6909976e+26
-6.6799193e+26
-6.6787503e+26
-6.6888186e+26
-6.6502826e+26
-6.652923e+26
-6.6653439e+26
-6.6663984e+26
-6.6753954e+26
-6.6745542e+26
-6.6871284e+26
-6.6853754e+26
-6.6806047e+26
-6.6712372e+26
-6.673966e+26
-6.6863196e+26
-6.655836e+26
-6.6438047e+26
-6.6479072e+26
-6.6639579e+26
-6.6350582e+26
-6.652004e+26
-6.638221e+26
-6.6517384e+26
-6.2719961e+26
-6.2708828e+26
-6.3220662e+26
-6.3226682e+26
-6.1637163e+26
-6.1658517e+26
-6.2101592e+26
-6.2115006e+26
-6.0549694e+26
-6.1555302e+26
-6.1603998e+26
-6.2022716e+26
-6.2066576e+26
-6.0526401e+26
-6.3149815e+26
-6.2672195e+26
-6.2634064e+26
-6.3193073e+26
-5.9597766e+26
-5.9551887e+26
-6.5368274e+26
-6.5343154e+26
-6.5959592e+26
-6.5949112e+26
-6.5310249e+26
-6.5265292e+26
-6.472162e+26
-6.5916548e+26
-6.5858572e+26
-6.391934e+26
-6.3888546e+26
-6.4537296e+26
-6.4558633e+26
-6.3608026e+26
-6.3849554e+26
-6.449895e+26
-6.3824494e+26
-6.4463734e+26
-6.3534035e+26
-6.4657416e+26
-6.245725e+26
-6.1483577e+26
-6.1510869e+26
-6.2530346e+26
-5.9586639e+26
-6.3043659e+26
-6.2562357e+26
-6.2534084e+26
-6.3071847e+26
-6.1934965e+26
-6.190709e+26
-6.1434419e+26
-6.1471101e+26
-6.0390258e+26
-6.3108655e+26
-6.2620589e+26
-6.2597443e+26
-6.3131989e+26
-6.2001434e+26
-6.1971914e+26
-6.1506697e+26
-6.153921e+26
-6.0490836e+26
-5.9476883e+26
-5.9565707e+26
-6.4595388e+26
-5.8878006e+26
-5.895589e+26
-6.544185e+26
-6.5394662e+26
-6.5989168e+26
-6.6056061e+26
-6.4650782e+26
-6.3995752e+26
-6.4009958e+26
-6.4648719e+26
-6.4573814e+26
-6.3972304e+26
-6.3936144e+26
-6.4623519e+26
-6.6086466e+26
-6.5464493e+26
-6.5464332e+26
-6.607771e+26
-6.5777465e+26
-6.577576e+26
-6.6136567e+26
-6.6128048e+26
-6.5760662e+26
-6.6109393e+26
-6.5772625e+26
-6.6131223e+26
-6.6548405e+26
-6.6718261e+26
-6.6566471e+26
-6.6746879e+26
-6.6573419e+26
-6.6753989e+26
-6.6563115e+26
-6.6736133e+26
-6.5747695e+26
-6.575647e+26
-6.6107643e+26
-6.6108477e+26
-6.6083069e+26
-6.5731839e+26
-6.5734717e+26
-6.6096232e+26
-6.6519708e+26
-6.6533035e+26
-6.6694673e+26
-6.6720208e+26
-6.6546491e+26
-6.6545646e+26
-6.6728899e+26
-6.6716778e+26
-6.4120073e+26
-6.4119784e+26
-6.4406511e+26
-6.4401265e+26
-6.4102307e+26
-6.4112545e+26
-6.4385999e+26
-6.4399346e+26
-6.4845633e+26
-6.5215383e+26
-6.4857153e+26
-6.5231656e+26
-6.4862287e+26
-6.4856403e+26
-6.5237585e+26
-6.5228527e+26
-6.4814342e+26
-6.5180906e+26
-6.4819889e+26
-6.5188411e+26
-6.408263e+26
-6.4095728e+26
-6.437014e+26
-6.4381188e+26
-6.4069065e+26
-6.4354844e+26
-6.407168e+26
-6.4360182e+26
-6.483218e+26
-6.4841142e+26
-6.5202459e+26
-6.5208984e+26
-6.1691802e+26
-6.1698133e+26
-6.099783e+26
-6.1514699e+26
-6.1507717e+26
-6.2040803e+26
-6.2052146e+26
-6.2250179e+26
-6.2260751e+26
-6.1716139e+26
-6.1735592e+26
-6.102225e+26
-6.1557219e+26
-6.1534864e+26
-6.2066936e+26
-6.2084872e+26
-6.2276346e+26
-6.2293388e+26
-6.0574588e+26
-6.059177e+26
-6.1745009e+26
-6.1760461e+26
-6.1041329e+26
-6.1580786e+26
-6.1568538e+26
-6.2096452e+26
-6.2304966e+26
-6.2112934e+26
-6.2323952e+26
-6.2131917e+26
-6.2341301e+26
-6.2147297e+26
-6.2356846e+26
-6.177791e+26
-6.1798751e+26
-6.1066187e+26
-6.161685e+26
-6.159702e+26
-6.0629869e+26
-6.060234e+26
-6.2742771e+26
-6.2759123e+26
-6.2962057e+26
-6.2976516e+26
-6.2707366e+26
-6.292499e+26
-6.2723693e+26
-6.2943501e+26
-6.3309923e+26
-6.356347e+26
-6.3327029e+26
-6.3582283e+26
-6.3344335e+26
-6.3599236e+26
-6.3354268e+26
-6.3608711e+26
-6.2675332e+26
-6.2896749e+26
-6.2694038e+26
-6.2913217e+26
-6.2650302e+26
-6.2868985e+26
-6.2658771e+26
-6.2879935e+26
-6.3249989e+26
-6.3504971e+26
-6.3262559e+26
-6.3519455e+26
-6.3279448e+26
-6.3536214e+26
-6.3296025e+26
-6.3551575e+26
-6.0011445e+26
-5.9609641e+26
-5.9632916e+26
-6.0042546e+26
-5.963645e+26
-6.0055255e+26
-6.0066449e+26
-6.0063564e+26
-6.0631334e+26
-6.1098083e+26
-6.067039e+26
-6.1143907e+26
-6.069222e+26
-6.0687548e+26
-6.1165758e+26
-6.1169874e+26
-6.4782223e+26
-6.4799733e+26
-6.5160583e+26
-6.5180511e+26
-6.4026603e+26
-6.4043442e+26
-6.4316016e+26
-6.4335917e+26
-6.4812886e+26
-6.5193045e+26
-6.4815739e+26
-6.5189342e+26
-6.4069842e+26
-6.405878e+26
-6.4350663e+26
-6.4357078e+26
-6.3997438e+26
-6.4292154e+26
-6.4015107e+26
-6.4305852e+26
-6.3967907e+26
-6.4257375e+26
-6.3980436e+26
-6.4274628e+26
-6.4718848e+26
-6.5096005e+26
-6.4736362e+26
-6.5120051e+26
-6.4755797e+26
-6.5140248e+26
-6.4769592e+26
-6.515113e+26
-6.5690854e+26
-6.5705307e+26
-6.6062724e+26
-6.6066014e+26
-6.565057e+26
-6.5670376e+26
-6.6015698e+26
-6.6043871e+26
-6.6464093e+26
-6.6490989e+26
-6.6653269e+26
-6.6691641e+26
-6.6508411e+26
-6.651131e+26
-6.670544e+26
-6.6695817e+26
-6.6518254e+26
-6.6698706e+26
-6.6536797e+26
-6.6724534e+26
-6.5713366e+26
-6.60718e+26
-6.5728827e+26
-6.6094869e+26
-6.5737232e+26
-6.5738095e+26
-6.6102242e+26
-6.6094152e+26
-6.654253e+26
-6.6729905e+26
-6.6533068e+26
-6.671292e+26
-6.3358604e+26
-6.3606214e+26
-6.3365797e+26
-6.3610477e+26
-6.2797649e+26
-6.2812472e+26
-6.3008439e+26
-6.3020979e+26
-6.2772849e+26
-6.2986264e+26
-6.2782117e+26
-6.2995117e+26
-6.3378867e+26
-6.3391104e+26
-6.362309e+26
-6.3635712e+26
-6.2202776e+26
-6.2405499e+26
-6.22234e+26
-6.2421423e+26
-6.2166332e+26
-6.2374458e+26
-6.2182189e+26
-6.2388963e+26
-6.181259e+26
-6.1832094e+26
-6.1633011e+26
-6.1652036e+26
-6.1847034e+26
-6.1870333e+26
-6.169012e+26
-6.1667887e+26
-6.1871356e+26
-6.187822e+26
-6.1696505e+26
-6.1692067e+26
-6.2222019e+26
-6.2426975e+26
-6.2234457e+26
-6.2437958e+26
-6.1882882e+26
-6.1885945e+26
-6.1706647e+26
-6.170014e+26
-6.2238892e+26
-6.244439e+26
-6.2237125e+26
-6.2440623e+26
-6.2829543e+26
-6.3044969e+26
-6.2829323e+26
-6.3041523e+26
-6.2815676e+26
-6.3026644e+26
-6.2823835e+26
-6.3037554e+26
-6.3400248e+26
-6.3647238e+26
-6.3411281e+26
-6.3660538e+26
-6.3418599e+26
-6.3669533e+26
-6.3413985e+26
-6.366492e+26
-6.3440327e+26
-6.3333272e+26
-6.3446637e+26
-6.332784e+26
-6.3648691e+26
-6.3768192e+26
-6.3764827e+26
-6.3643751e+26
-6.3324286e+26
-6.3437122e+26
-6.3325745e+26
-6.3439055e+26
-6.3642085e+26
-6.3762676e+26
-6.3640118e+26
-6.375986e+26
-6.283409e+26
-6.2750853e+26
-6.2841548e+26
-6.2744299e+26
-6.3031339e+26
-6.3124315e+26
-6.3119481e+26
-6.3025658e+26
-6.2829489e+26
-6.2742222e+26
-6.2832494e+26
-6.2739991e+26
-6.302423e+26
-6.3117054e+26
-6.3021976e+26
-6.3115407e+26
-6.2273248e+26
-6.222285e+26
-6.2279934e+26
-6.2217199e+26
-6.2465678e+26
-6.2540259e+26
-6.2533991e+26
-6.2461052e+26
-6.2266895e+26
-6.2215291e+26
-6.2271756e+26
-6.2211273e+26
-6.2458071e+26
-6.2531454e+26
-6.2453831e+26
-6.2528832e+26
-6.2008325e+26
-6.2003458e+26
-6.2029882e+26
-6.2023275e+26
-6.2021573e+26
-6.2016256e+26
-6.2004627e+26
-6.1999453e+26
-6.1671385e+26
-6.1384793e+26
-6.1204699e+26
-6.1196425e+26
-6.1374548e+26
-6.1667832e+26
-6.1995966e+26
-6.199197e+26
-6.2014032e+26
-6.201047e+26
-6.1375061e+26
-6.1200463e+26
-6.1195481e+26
-6.1370744e+26
-6.1661461e+26
-6.0904706e+26
-6.0736483e+26
-6.0723262e+26
-6.0895669e+26
-6.0897298e+26
-6.0729131e+26
-6.0731915e+26
-6.0902757e+26
-6.6741663e+26
-6.6889168e+26
-6.7051795e+26
-6.6003524e+26
-6.5772142e+26
-6.5994979e+26
-6.5776579e+26
-6.6256721e+26
-6.6467307e+26
-6.6481773e+26
-6.6264876e+26
-6.6006937e+26
-6.5779947e+26
-6.6008143e+26
-6.5781766e+26
-6.4979538e+26
-6.4768187e+26
-6.4978031e+26
-6.4769144e+26
-6.5244739e+26
-6.5464392e+26
-6.5470614e+26
-6.5247027e+26
-6.4770658e+26
-6.4982501e+26
-6.4769208e+26
-6.4981682e+26
-6.5250918e+26
-6.5473991e+26
-6.5252014e+26
-6.5473278e+26
-6.4134635e+26
-6.4003309e+26
-6.4136466e+26
-6.3999707e+26
-6.4353155e+26
-6.4499588e+26
-6.4500799e+26
-6.4352515e+26
-6.4132343e+26
-6.399836e+26
-6.4133555e+26
-6.3997315e+26
-6.4351922e+26
-6.4500402e+26
-6.4351543e+26
-6.4500234e+26
-6.7306253e+26
-6.7289441e+26
-6.7291471e+26
-6.7309181e+26
-6.7277472e+26
-6.7302928e+26
-6.7306651e+26
-6.7294315e+26
-6.725585e+26
-6.7284259e+26
-6.7278156e+26
-6.7287053e+26
-6.7273668e+26
-6.7297136e+26
-6.7277362e+26
-6.7291096e+26
-6.7133939e+26
-6.7208669e+26
-6.7242078e+26
-6.7247489e+26
-6.7250268e+26
-6.713863e+26
-6.7103839e+26
-6.7133177e+26
-6.7246577e+26
-6.7270144e+26
-6.726687e+26
-6.7254587e+26
-6.7264142e+26
-6.7282839e+26
-6.7277119e+26
-6.7262976e+26
-6.7254052e+26
-6.7275921e+26
-6.7280048e+26
-6.7270659e+26
-6.7091835e+26
-6.7092819e+26
-6.7036632e+26
-6.7073017e+26
-6.6985793e+26
-6.7016964e+26
-6.7028349e+26
-6.7025776e+26
-6.6972307e+26
-6.697801e+26
-6.6916288e+26
-6.6685488e+26
-6.6956157e+26
-6.6666079e+26
-6.6624324e+26
-6.6555304e+26
-6.6506901e+26
-6.6538771e+26
-6.4781069e+26
-6.4991571e+26
-6.4226898e+26
-6.4089972e+26
-6.4932456e+26
-6.5017989e+26
-6.4902085e+26
-6.4916457e+26
-6.6686587e+26
-6.6679333e+26
-6.578371e+26
-6.6850721e+26
-6.6857772e+26
-6.6681734e+26
-6.6691158e+26
-6.5860806e+26
-6.6859242e+26
-6.6858436e+26
-6.6137291e+26
-6.6613391e+26
-6.6590533e+26
-6.5338573e+26
-6.5389488e+26
-6.620237e+26
-6.6633878e+26
-6.6642271e+26
-6.6657196e+26
-6.6629781e+26
-6.5766438e+26
-6.6784573e+26
-6.681268e+26
-6.6672501e+26
-6.6674061e+26
-6.5759377e+26
-6.6835046e+26
-6.6835355e+26
-6.6840314e+26
-6.6867511e+26
-6.6876112e+26
-6.6897252e+26
-6.668493e+26
-6.6690247e+26
-6.6696839e+26
-6.6722051e+26
-6.6616635e+26
-6.6606202e+26
-6.6608259e+26
-6.660898e+26
-6.6634927e+26
-6.6626462e+26
-6.6616911e+26
-6.663608e+26
-6.6707684e+26
-6.6718599e+26
-6.67437e+26
-6.6735216e+26
-6.6656548e+26
-6.6667264e+26
-6.6674304e+26
-6.6652347e+26
-6.6740909e+26
-6.6773368e+26
-6.6725697e+26
-6.6738987e+26
-6.6652083e+26
-6.6641109e+26
-6.6640725e+26
-6.6647223e+26
-6.6745578e+26
-6.6754256e+26
-6.6775108e+26
-6.6759656e+26
-6.7073626e+26
-6.7038269e+26
-6.7283736e+26
-6.7270393e+26
-6.705604e+26
-6.70462e+26
-6.7066053e+26
-6.7081356e+26
-6.7287429e+26
-6.7292931e+26
-6.7065472e+26
-6.7061094e+26
-6.6898884e+26
-6.6913501e+26
-6.6953779e+26
-6.6944659e+26
-6.6954653e+26
-6.6916279e+26
-6.6914906e+26
-6.69605e+26
-6.6959929e+26
-6.6915781e+26
-6.692674e+26
-6.6965654e+26
-6.6960493e+26
-6.6923097e+26
-6.6920547e+26
-6.6965159e+26
-6.680615e+26
-6.6886394e+26
-6.6889654e+26
-6.681011e+26
-6.6805456e+26
-6.6882179e+26
-6.6888635e+26
-6.6803635e+26
-6.6613787e+26
-6.6758334e+26
-6.6758249e+26
-6.6605266e+26
-6.6746752e+26
-6.6761423e+26
-6.660727e+26
-6.6598329e+26
-6.686774e+26
-6.6873865e+26
-6.6779247e+26
-6.6789805e+26
-6.6579953e+26
-6.6721395e+26
-6.6738002e+26
-6.6588995e+26
-6.6802468e+26
-6.687862e+26
-6.6887484e+26
-6.6806127e+26
-6.6746161e+26
-6.6756965e+26
-6.6604276e+26
-6.6591201e+26
-6.708081e+26
-6.7100811e+26
-6.7300599e+26
-6.7305917e+26
-6.7074848e+26
-6.7077229e+26
-6.7095331e+26
-6.7064463e+26
-6.729939e+26
-6.7289542e+26
-6.706682e+26
-6.707205e+26
-6.6965129e+26
-6.69216e+26
-6.693274e+26
-6.6971347e+26
-6.6932657e+26
-6.6930651e+26
-6.6970115e+26
-6.6974229e+26
-6.697143e+26
-6.6928955e+26
-6.6937592e+26
-6.6974921e+26
-6.697179e+26
-6.6935403e+26
-6.6975153e+26
-6.6930741e+26
-6.68035e+26
-6.688783e+26
-6.6891759e+26
-6.6809956e+26
-6.6900346e+26
-6.6894734e+26
-6.6812808e+26
-6.6816573e+26
-6.6768978e+26
-6.6616764e+26
-6.6609365e+26
-6.6759195e+26
-6.6615691e+26
-6.6756118e+26
-6.6759201e+26
-6.6610499e+26
-6.6892828e+26
-6.6897473e+26
-6.6806267e+26
-6.6805074e+26
-6.6757776e+26
-6.6763727e+26
-6.6624941e+26
-6.6616288e+26
-6.6608852e+26
-6.6756813e+26
-6.6750573e+26
-6.660313e+26
-6.6899125e+26
-6.6898464e+26
-6.6812279e+26
-6.6812733e+26
-6.7100632e+26
-6.7120538e+26
-6.7322181e+26
-6.7328565e+26
-6.7094863e+26
-6.7098693e+26
-6.7121577e+26
-6.7089387e+26
-6.7307024e+26
-6.7320968e+26
-6.7086821e+26
-6.7091333e+26
-6.7079348e+26
-6.7082645e+26
-6.6943515e+26
-6.6934141e+26
-6.6977987e+26
-6.698305e+26
-6.6983348e+26
-6.6945629e+26
-6.69403e+26
-6.6985929e+26
-6.7085699e+26
-6.7085094e+26
-6.6952435e+26
-6.6942939e+26
-6.6986701e+26
-6.6990427e+26
-6.6984919e+26
-6.6948081e+26
-6.6943007e+26
-6.6987605e+26
-6.6917435e+26
-6.6917219e+26
-6.683127e+26
-6.6835004e+26
-6.662525e+26
-6.6773609e+26
-6.6782674e+26
-6.6626327e+26
-6.6826531e+26
-6.6908487e+26
-6.6913917e+26
-6.6824499e+26
-6.6766049e+26
-6.6781396e+26
-6.6625321e+26
-6.6616477e+26
-6.6904611e+26
-6.6900358e+26
-6.6809536e+26
-6.6818595e+26
-6.6616163e+26
-6.6755399e+26
-6.6767873e+26
-6.6620883e+26
-6.6827518e+26
-6.6907711e+26
-6.6914289e+26
-6.6828834e+26
-6.6768149e+26
-6.6783733e+26
-6.6632782e+26
-6.6613525e+26
-6.7087802e+26
-6.7108967e+26
-6.7312553e+26
-6.7311873e+26
-6.7105506e+26
-6.7078722e+26
-6.7307097e+26
-6.7303619e+26
-6.6953445e+26
-6.6945391e+26
-6.6988153e+26
-6.6992015e+26
-6.6990766e+26
-6.695449e+26
-6.6949955e+26
-6.6993766e+26
-6.6991892e+26
-6.6949883e+26
-6.6961235e+26
-6.6997294e+26
-6.6954444e+26
-6.6957066e+26
-6.6992464e+26
-6.6998083e+26
-6.6917445e+26
-6.6914951e+26
-6.6824818e+26
-6.6832105e+26
-6.662716e+26
-6.6770147e+26
-6.6781282e+26
-6.6628298e+26
-6.6835551e+26
-6.6917486e+26
-6.6924291e+26
-6.6836424e+26
-6.6776806e+26
-6.6792327e+26
-6.6637249e+26
-6.6619689e+26
-6.6831358e+26
-6.6921344e+26
-6.6923953e+26
-6.683573e+26
-6.6826288e+26
-6.6916128e+26
-6.6922631e+26
-6.6828149e+26
-6.6634972e+26
-6.6781536e+26
-6.6781458e+26
-6.6624359e+26
-6.6766767e+26
-6.6778235e+26
-6.6624184e+26
-6.6615772e+26
-6.5581078e+26
-6.5457106e+26
-6.5931406e+26
-6.57624e+26
-6.5673168e+26
-6.6011658e+26
-6.6114424e+26
-6.5982059e+26
-6.5946348e+26
-6.6189099e+26
-6.6241183e+26
-6.6008057e+26
-6.6043635e+26
-6.6104949e+26
-6.6147441e+26
-6.6034939e+26
-6.6079132e+26
-6.6331866e+26
-6.6287729e+26
-6.6111762e+26
-6.61453e+26
-6.6408491e+26
-6.6352911e+26
-6.6110254e+26
-6.6144831e+26
-6.621168e+26
-6.6247911e+26
-6.6176217e+26
-6.6214957e+26
-6.6282979e+26
-6.6318502e+26
-6.6017088e+26
-6.6515991e+26
-6.647319e+26
-6.5198397e+26
-6.5300167e+26
-6.6109166e+26
-6.6565564e+26
-6.6547101e+26
-6.6727726e+26
-6.6765695e+26
-6.678836e+26
-6.6820555e+26
-6.6503315e+26
-6.6485128e+26
-6.6497986e+26
-6.6504926e+26
-6.6557316e+26
-6.6580058e+26
-6.6569708e+26
-6.660768e+26
-6.6536703e+26
-6.6521851e+26
-6.6517278e+26
-6.6539404e+26
-6.6596071e+26
-6.6628271e+26
-6.6615476e+26
-6.6631712e+26
-6.6576369e+26
-6.6591204e+26
-6.6568301e+26
-6.6592965e+26
-6.6637331e+26
-6.6658595e+26
-6.665356e+26
-6.6690727e+26
-6.6567668e+26
-6.6554807e+26
-6.6553511e+26
-6.6558619e+26
-6.6665366e+26
-6.6676386e+26
-6.670599e+26
-6.6690879e+26
-6.7277773e+26
-6.7264144e+26
-6.7281408e+26
-6.7269611e+26
-6.7277258e+26
-6.7273064e+26
-6.7265097e+26
-6.727343e+26
-6.7263135e+26
-6.7246893e+26
-6.7267567e+26
-6.7258808e+26
-6.727107e+26
-6.7258117e+26
-6.72676e+26
-6.7257271e+26
-6.7069604e+26
-6.6935351e+26
-6.6939173e+26
-6.7098134e+26
-6.6934904e+26
-6.6940645e+26
-6.7092754e+26
-6.7070712e+26
-6.7224447e+26
-6.7202579e+26
-6.7234975e+26
-6.7232384e+26
-6.7057074e+26
-6.694413e+26
-6.6953252e+26
-6.7090582e+26
-6.6945269e+26
-6.6925989e+26
-6.7091307e+26
-6.7071185e+26
-6.7249569e+26
-6.7239026e+26
-6.7240777e+26
-6.7248059e+26
-6.7255507e+26
-6.7246251e+26
-6.7253679e+26
-6.7257563e+26
-6.7251846e+26
-6.7262618e+26
-6.7252274e+26
-6.7244993e+26
-6.6911607e+26
-6.6896259e+26
-6.7008991e+26
-6.705245e+26
-6.6905723e+26
-6.6923885e+26
-6.7059226e+26
-6.7040402e+26
-6.6905341e+26
-6.6912427e+26
-6.7045591e+26
-6.707082e+26
-6.7062372e+26
-6.691958e+26
-6.6913882e+26
-6.7043805e+26
-6.6849916e+26
-6.6864747e+26
-6.6965883e+26
-6.7006261e+26
-6.7010311e+26
-6.6877334e+26
-6.6847479e+26
-6.6990338e+26
-6.6855197e+26
-6.6851875e+26
-6.6988712e+26
-6.7018882e+26
-6.6864976e+26
-6.6860199e+26
-6.7011111e+26
-6.6992616e+26
-6.6649046e+26
-6.6749355e+26
-6.6674401e+26
-6.6795641e+26
-6.668176e+26
-6.6684946e+26
-6.6805297e+26
-6.6787751e+26
-6.6832064e+26
-6.6827103e+26
-6.6941075e+26
-6.6974644e+26
-6.6829746e+26
-6.6832324e+26
-6.6976849e+26
-6.6955372e+26
-6.6818086e+26
-6.6799556e+26
-6.6891716e+26
-6.693546e+26
-6.6814564e+26
-6.6825107e+26
-6.6951135e+26
-6.6935257e+26
-6.657374e+26
-6.6614186e+26
-6.6738347e+26
-6.6676277e+26
-6.6626822e+26
-6.6631167e+26
-6.6752724e+26
-6.6734406e+26
-6.6595684e+26
-6.6493975e+26
-6.6530583e+26
-6.6643914e+26
-6.6538357e+26
-6.6545677e+26
-6.6649792e+26
-6.6659465e+26
-6.2640886e+26
-6.2648378e+26
-6.2861691e+26
-6.2866301e+26
-6.2617492e+26
-6.2836505e+26
-6.262762e+26
-6.2848187e+26
-6.3220334e+26
-6.3472037e+26
-6.3231775e+26
-6.3484969e+26
-6.3244217e+26
-6.3498276e+26
-6.3248402e+26
-6.350294e+26
-6.1655502e+26
-6.1668073e+26
-6.0957189e+26
-6.1471781e+26
-6.1485167e+26
-6.1682834e+26
-6.1691328e+26
-6.0977673e+26
-6.1496958e+26
-6.1511118e+26
-6.2004796e+26
-6.2214896e+26
-6.2018757e+26
-6.2227936e+26
-6.2030279e+26
-6.2039294e+26
-6.2241843e+26
-6.2248559e+26
-6.0501582e+26
-6.0540414e+26
-6.1594265e+26
-6.1607237e+26
-6.0888533e+26
-6.1410152e+26
-6.1422858e+26
-6.1629312e+26
-6.1648941e+26
-6.0928143e+26
-6.1442601e+26
-6.1467433e+26
-6.1942898e+26
-6.215091e+26
-6.1959116e+26
-6.2167048e+26
-6.1976154e+26
-6.2185371e+26
-6.1996586e+26
-6.2204508e+26
-6.0441823e+26
-6.047585e+26
-6.3157202e+26
-6.3412638e+26
-6.3174536e+26
-6.3430853e+26
-6.2586933e+26
-6.2809343e+26
-6.2606519e+26
-6.28275e+26
-6.2554004e+26
-6.2772916e+26
-6.2567779e+26
-6.2789572e+26
-6.3193766e+26
-6.345031e+26
-6.3211169e+26
-6.3466398e+26
-5.961343e+26
-5.9612925e+26
-5.9996188e+26
-6.0007455e+26
-5.9922378e+26
-5.9534713e+26
-5.9598776e+26
-5.9972754e+26
-6.5543579e+26
-6.5557075e+26
-6.5918262e+26
-6.5923148e+26
-6.5506308e+26
-6.5526312e+26
-6.5872685e+26
-6.5901603e+26
-6.6368147e+26
-6.6368856e+26
-6.6561896e+26
-6.6552755e+26
-6.6325844e+26
-6.6351615e+26
-6.6512301e+26
-6.6548457e+26
-6.548213e+26
-6.5495376e+26
-6.5859574e+26
-6.5863625e+26
-6.546148e+26
-6.5444055e+26
-6.581121e+26
-6.5839105e+26
-6.5258092e+26
-6.523727e+26
-6.5854741e+26
-6.5858028e+26
-6.6309574e+26
-6.6314756e+26
-6.6508356e+26
-6.6504769e+26
-6.6289058e+26
-6.626068e+26
-6.6449028e+26
-6.6491838e+26
-6.3851809e+26
-6.4145719e+26
-6.3870824e+26
-6.416065e+26
-6.3817539e+26
-6.4108704e+26
-6.3832181e+26
-6.412692e+26
-6.4578515e+26
-6.4596417e+26
-6.4951792e+26
-6.4975131e+26
-6.461462e+26
-6.4626521e+26
-6.4993504e+26
-6.5002028e+26
-6.3810948e+26
-6.3778322e+26
-6.4424882e+26
-6.4451458e+26
-6.3790103e+26
-6.4085663e+26
-6.3805759e+26
-6.4098307e+26
-6.4554173e+26
-6.4566238e+26
-6.4932332e+26
-6.4940831e+26
-6.3766059e+26
-6.4056231e+26
-6.3773643e+26
-6.4068879e+26
-6.4534932e+26
-6.4520791e+26
-6.4892429e+26
-6.4912814e+26
-6.4328662e+26
-6.3694078e+26
-6.3729142e+26
-6.4375854e+26
-6.5129241e+26
-6.5740026e+26
-6.5184757e+26
-6.581122e+26
-6.2909003e+26
-6.2438173e+26
-6.2402397e+26
-6.2947992e+26
-6.1366365e+26
-6.1827084e+26
-6.1427222e+26
-6.1400912e+26
-6.1869013e+26
-6.0358126e+26
-6.1894769e+26
-6.2507457e+26
-6.300076e+26
-6.2480505e+26
-6.3031106e+26
-5.9461222e+26
-6.3051015e+26
-6.330219e+26
-6.3059269e+26
-6.3309708e+26
-6.2472348e+26
-6.2487965e+26
-6.2692829e+26
-6.2706101e+26
-6.2448043e+26
-6.2668217e+26
-6.2454675e+26
-6.2676e+26
-6.3074901e+26
-6.3326073e+26
-6.3088424e+26
-6.3339306e+26
-6.1855237e+26
-6.206668e+26
-6.1873014e+26
-6.2081166e+26
-6.1828701e+26
-6.2041358e+26
-6.183921e+26
-6.2049821e+26
-6.1478572e+26
-6.1487657e+26
-6.129146e+26
-6.0762119e+26
-6.1301764e+26
-6.1509373e+26
-6.1527325e+26
-6.0790919e+26
-6.1344912e+26
-6.1321641e+26
-6.0327126e+26
-6.0366592e+26
-6.3103809e+26
-6.3117523e+26
-6.3351893e+26
-6.336734e+26
-6.2530944e+26
-6.2547016e+26
-6.2750318e+26
-6.2764339e+26
-6.2502767e+26
-6.2720006e+26
-6.2513757e+26
-6.2733349e+26
-6.313432e+26
-6.3148563e+26
-6.3387325e+26
-6.3403761e+26
-6.1917629e+26
-6.212763e+26
-6.1936763e+26
-6.2142547e+26
-6.1887303e+26
-6.2096547e+26
-6.190123e+26
-6.2109769e+26
-6.1541281e+26
-6.1553665e+26
-6.0824732e+26
-6.1356468e+26
-6.1369379e+26
-6.1572453e+26
-6.1591166e+26
-6.0857795e+26
-6.1385861e+26
-6.1409577e+26
-6.0382945e+26
-6.0421784e+26
-5.980979e+26
-5.939011e+26
-5.9436246e+26
-5.9846117e+26
-5.9488903e+26
-5.9469949e+26
-5.9887714e+26
-5.9906151e+26
-6.4304967e+26
-6.5724759e+26