/*--------------------------------*- C++ -*----------------------------------*\
  =========                 |
  \\      /  F ield         | OpenFOAM: The Open Source CFD Toolbox
   \\    /   O peration     | Website:  https://openfoam.org
    \\  /    A nd           | Version:  7
     \\/     M anipulation  |
\*---------------------------------------------------------------------------*/
FoamFile
{
    version     2.0;
    format      ascii;
    class       volVectorField;
    location    "2000";
    object      U;
}
// * * * * * * * * * * * * * * * * * * * * * * * * * * * * * * * * * * * * * //

dimensions      [0 1 -1 0 0 0 0];

internalField   nonuniform List<vector> 
33730
(
(-1.1039709e+14 3.1732984e+13 6.1371788e+12)
(-1.2842828e+14 1.7074052e+13 9.1907793e+12)
(-9.1562698e+13 3.4760069e+13 8.7144814e+11)
(-9.4644107e+13 1.2013861e+13 6.4574256e+12)
(-1.0917025e+14 2.0250491e+13 2.2215946e+13)
(-1.0970066e+14 -1.8620609e+12 7.0190256e+12)
(-1.2012069e+14 2.3330725e+13 5.4607543e+12)
(-1.1175066e+14 2.0689314e+13 1.9591394e+13)
(-1.3918714e+14 8.5173926e+12 6.0213825e+12)
(-1.091107e+14 1.6220476e+13 1.8002037e+12)
(-1.1330516e+14 1.4871531e+13 7.280391e+11)
(-1.2723282e+14 1.8787888e+13 5.8670946e+12)
(-8.9529191e+13 1.9023947e+13 -4.9711615e+12)
(-1.0755583e+14 2.8713686e+12 -9.1197032e+12)
(-8.7039959e+13 3.8952738e+12 4.7681472e+12)
(-6.3939235e+13 2.5892401e+13 -1.1685789e+12)
(-1.0955857e+14 1.8648832e+13 -3.7063946e+11)
(-8.0006576e+13 2.6484048e+12 7.4784203e+12)
(-1.0078856e+14 1.0200364e+13 1.7977208e+13)
(-8.7430098e+13 -3.6899313e+12 7.8336273e+12)
(-9.8801808e+13 8.8656695e+12 1.9093705e+13)
(-8.8425234e+13 -3.3696725e+12 9.2572588e+12)
(-7.8923383e+13 4.2843857e+12 7.3630348e+12)
(-1.0025106e+14 1.292403e+13 1.8553825e+13)
(-9.5794165e+13 1.2025196e+13 7.2274307e+12)
(-9.6679426e+13 1.2260878e+13 1.7030542e+13)
(-1.1467999e+14 -6.1451041e+12 9.02457e+12)
(-1.0954875e+14 2.2524552e+13 1.7779164e+13)
(-1.1861088e+14 1.8024279e+13 1.8061454e+13)
(-1.2635838e+14 1.0142643e+13 5.6896099e+12)
(-1.3488527e+14 1.0465275e+13 4.6334156e+12)
(-1.2020004e+14 9.2348715e+12 1.3479572e+13)
(-1.1558533e+14 9.4014182e+12 -1.0260363e+13)
(-9.6501605e+13 1.6031978e+13 6.909479e+12)
(-8.9223382e+13 2.5775246e+13 -1.0672144e+13)
(-9.2428455e+13 2.0494942e+13 -1.1048065e+13)
(-9.0498918e+13 2.1883864e+13 6.2558222e+12)
(-1.1397363e+14 1.8134185e+13 1.0504884e+13)
(-1.106173e+14 1.26241e+13 -1.0169222e+13)
(-9.7835401e+13 9.0206597e+12 5.0636364e+12)
(-1.0073581e+14 8.4878472e+12 5.0987364e+12)
(-1.0048358e+14 1.105358e+13 5.93184e+12)
(-9.7906205e+13 1.0409662e+13 4.4228992e+12)
(-1.1142804e+14 1.7492158e+13 5.5923155e+11)
(-1.183131e+14 1.3185201e+13 1.4311919e+12)
(-8.8498752e+13 4.7913018e+12 -3.3966435e+12)
(-9.7664748e+13 9.7568643e+12 -1.1830991e+13)
(-9.5134128e+13 9.8416992e+12 -1.1743279e+13)
(-8.1698727e+13 1.0697492e+13 -3.7331117e+12)
(-9.7105096e+13 1.5355224e+13 -7.2977394e+12)
(-8.991183e+13 5.3430624e+12 -4.1694197e+12)
(-9.7660434e+13 1.0423759e+13 -1.155246e+13)
(-9.4554756e+13 1.1439187e+13 -1.1097904e+13)
(-8.2294162e+13 1.2056882e+13 -3.9916732e+12)
(-7.1129426e+13 2.1156224e+13 1.0560089e+11)
(-7.6552306e+13 1.9123606e+12 -1.2018105e+13)
(-6.0989264e+13 2.3780761e+12 5.1337206e+12)
(-6.7399661e+13 1.1039621e+13 -9.8542816e+12)
(-4.7695548e+13 1.5962321e+13 8.5827213e+11)
(-6.6671212e+13 9.5228544e+12 -1.0173415e+13)
(-6.1488368e+13 1.5398927e+12 5.6184589e+12)
(-7.5600129e+13 1.6290809e+12 -1.2250909e+13)
(-4.6772844e+13 1.5328135e+13 8.6998249e+11)
(-1.2306727e+14 2.3389238e+10 -1.4496766e+12)
(-1.1302383e+14 -1.870737e+12 -1.1367321e+13)
(-9.1678406e+13 -8.9366618e+11 5.5757189e+12)
(-6.9586155e+13 -2.2174752e+12 7.0618296e+12)
(-6.4216116e+13 1.9100511e+12 5.8908548e+12)
(-8.4066395e+13 5.9131133e+12 1.4373541e+13)
(-8.2511369e+13 5.3197762e+12 1.4482791e+13)
(-7.1299589e+13 -2.8947846e+12 8.4066309e+12)
(-8.4954536e+13 6.5866203e+12 1.5630232e+13)
(-6.5297474e+13 2.2480709e+12 6.7362283e+12)
(-8.2571264e+13 6.4119334e+12 1.4343532e+13)
(-7.3630099e+13 -3.7842537e+12 9.7466402e+12)
(-8.1122083e+13 3.6003368e+12 8.1740915e+12)
(-8.5996573e+13 7.9926934e+12 1.5894478e+13)
(-6.739569e+13 1.3334398e+12 7.8590738e+12)
(-8.3676567e+13 7.4053838e+12 1.4595485e+13)
(-7.1730943e+13 -2.7903405e+12 7.8887875e+12)
(-6.5419078e+13 2.422474e+12 6.4653643e+12)
(-8.5194055e+13 6.7763892e+12 1.3716354e+13)
(-8.2245444e+13 7.3230447e+12 1.2989709e+13)
(-9.8018192e+13 1.2587964e+13 1.563601e+13)
(-8.9839402e+13 -4.4356585e+12 8.9729195e+12)
(-1.025023e+14 1.1391193e+13 1.5800546e+13)
(-8.2627793e+13 1.015114e+12 9.8654936e+12)
(-9.1723597e+13 -6.4106252e+12 1.095187e+13)
(-9.9722409e+13 3.1140823e+12 1.0585249e+13)
(-1.0616019e+14 1.0648036e+13 1.8972803e+13)
(-1.0178227e+14 1.0264818e+13 1.7915248e+13)
(-1.164077e+14 1.6206033e+13 1.8465295e+13)
(-1.1656648e+14 -1.2531561e+13 1.1901828e+13)
(-1.2399937e+14 1.3155759e+13 1.7728488e+13)
(-1.132665e+14 1.2292879e+13 -9.9592714e+12)
(-1.1720619e+14 1.7747846e+13 8.4483966e+12)
(-1.1700958e+14 9.8548435e+12 -1.068773e+13)
(-1.0081785e+14 1.5480301e+13 6.6963547e+12)
(-9.5741097e+13 2.367972e+13 -9.4311879e+12)
(-9.7813663e+13 2.0558539e+13 -1.0748308e+13)
(-9.4449587e+13 2.1725682e+13 5.267763e+12)
(-1.2175723e+14 1.0097148e+13 1.0771399e+13)
(-1.0587664e+14 7.0277088e+12 1.0421076e+13)
(-1.0455187e+14 1.1888771e+13 9.457901e+12)
(-1.0019147e+14 8.7175126e+12 -6.5552987e+12)
(-1.0336675e+14 5.3863898e+12 -5.1846988e+12)
(-9.9988322e+13 5.0553478e+12 -8.3685671e+12)
(-9.8914072e+13 5.365625e+12 -9.3977011e+12)
(-1.0558775e+14 3.6313248e+12 3.5963187e+12)
(-1.0315309e+14 9.4752978e+12 3.556844e+12)
(-1.1082332e+14 1.5267228e+13 6.8955063e+12)
(-1.1470511e+14 7.8231171e+12 8.7545132e+12)
(-1.0200208e+14 7.6115424e+12 -5.0338184e+12)
(-1.0394649e+14 7.064259e+12 -4.1344165e+12)
(-1.0330232e+14 1.3905001e+13 9.7325364e+12)
(-1.0621811e+14 7.3582588e+12 1.0391487e+13)
(-1.0135073e+14 8.5231927e+12 2.3036302e+12)
(-9.8325349e+13 4.8857898e+12 -1.0648351e+13)
(-9.6961567e+13 6.8890656e+12 -1.1280842e+13)
(-1.0327466e+14 4.5511052e+12 2.8943435e+12)
(-8.4670156e+13 6.1217586e+12 1.8123416e+12)
(-8.3754012e+13 3.1529092e+12 -4.3267401e+12)
(-8.5801356e+13 4.9993517e+12 1.2937498e+12)
(-8.3677733e+13 2.7234375e+12 -5.3710562e+12)
(-9.8153509e+13 8.626244e+12 -4.3786574e+10)
(-8.6198962e+13 4.7492623e+12 9.9018141e+11)
(-8.5802102e+13 7.5730098e+12 5.4534823e+12)
(-8.3887201e+13 4.2054433e+12 -2.8847261e+12)
(-8.1817313e+13 5.8846529e+12 5.9624695e+12)
(-8.3061201e+13 5.7387616e+12 6.2345429e+12)
(-8.3842025e+13 6.3941675e+12 7.2864898e+12)
(-8.2136348e+13 6.0132907e+12 5.9439201e+12)
(-8.4795174e+13 7.5745736e+12 8.1587645e+12)
(-9.9033009e+13 1.0926916e+13 4.2206816e+12)
(-8.2972366e+13 6.4907479e+12 6.6844216e+12)
(-8.2026612e+13 6.9260325e+12 5.5434593e+12)
(-8.3872188e+13 6.2541531e+12 6.3279834e+12)
(-1.0210908e+14 9.4785328e+12 4.6661635e+12)
(-1.0194789e+14 8.2101768e+12 6.2734865e+12)
(-1.0517809e+14 8.549343e+12 7.5693583e+12)
(-1.1787919e+14 1.3122659e+13 3.0424841e+12)
(-1.1553408e+14 1.0798437e+13 -3.0141693e+12)
(-1.1597581e+14 1.0610906e+13 -3.321801e+12)
(-9.5103424e+13 6.097458e+12 -9.8557404e+12)
(-9.6341526e+13 8.6964362e+12 1.4365246e+12)
(-9.3460522e+13 1.0351396e+13 2.9329941e+12)
(-9.485984e+13 5.4743792e+12 -9.3006764e+12)
(-9.2785442e+13 4.5419548e+12 -4.5110197e+12)
(-9.9371772e+13 1.005842e+13 -1.1735743e+13)
(-9.576653e+13 1.1243352e+13 -1.1198648e+13)
(-8.5221358e+13 1.1569006e+13 -4.4046968e+12)
(-9.613397e+13 6.2061101e+12 -1.0011673e+13)
(-9.8040652e+13 8.8777909e+12 7.8617927e+11)
(-9.5147936e+13 1.0618578e+13 2.0484263e+12)
(-9.5258268e+13 6.2533305e+12 -9.0404785e+12)
(-7.9355337e+13 6.72186e+11 -1.225729e+13)
(-7.02677e+13 9.5472077e+12 -1.0195359e+13)
(-6.356417e+13 9.4277584e+11 5.316734e+12)
(-5.0308698e+13 1.4697596e+13 9.0493518e+11)
(-7.0297814e+13 8.6191744e+12 -1.3317865e+13)
(-7.222227e+13 8.5016804e+12 -1.3493969e+13)
(-6.2284332e+13 2.8766787e+12 -8.7567488e+12)
(-5.8318272e+13 6.9670136e+12 -8.6733438e+12)
(-4.6703072e+13 3.3669884e+12 -8.9017699e+12)
(-4.1405584e+13 8.9554457e+12 -7.8376728e+12)
(-3.4341036e+13 1.1597622e+13 3.4158211e+12)
(-4.3362308e+13 1.5394161e+12 7.1897488e+12)
(-6.8886707e+13 9.1491191e+12 -1.2737866e+13)
(-7.1052003e+13 8.3962568e+12 -1.2894966e+13)
(-5.7587801e+13 7.4134249e+12 -8.1213225e+12)
(-6.1675763e+13 3.0106025e+12 -7.9684429e+12)
(-4.6830543e+13 3.4669957e+12 -8.636814e+12)
(-4.1160709e+13 8.9472823e+12 -7.8758098e+12)
(-4.3388029e+13 1.8942034e+12 7.8126605e+12)
(-3.3682338e+13 1.2327378e+13 2.8623703e+12)
(-6.9353486e+13 7.5019081e+12 -1.2938455e+13)
(-6.7688492e+13 7.6374956e+12 -1.3021916e+13)
(-5.6402599e+13 6.1041824e+12 -7.6624734e+12)
(-6.0047043e+13 2.0861523e+12 -7.3155965e+12)
(-4.5744799e+13 3.3906071e+12 -8.7422645e+12)
(-3.9776781e+13 9.1851955e+12 -7.491672e+12)
(-3.2897427e+13 1.214721e+13 3.3610472e+12)
(-4.230466e+13 1.9155571e+12 7.2477881e+12)
(-6.8321872e+13 8.3042422e+12 -1.3135374e+13)
(-7.0240312e+13 8.4473246e+12 -1.3313671e+13)
(-5.6425221e+13 7.0392473e+12 -7.9953944e+12)
(-6.0600211e+13 3.0994417e+12 -8.0382675e+12)
(-4.556908e+13 2.7445612e+12 -8.1395024e+12)
(-3.9481591e+13 8.2253122e+12 -7.494379e+12)
(-4.2310077e+13 1.4960051e+12 7.9313914e+12)
(-3.2801537e+13 1.1393149e+13 3.2484627e+12)
(-1.1635334e+14 -8.2970393e+12 -1.369949e+13)
(-1.0186453e+14 6.7662618e+12 -9.6697065e+12)
(-9.4491979e+13 -9.2155606e+12 5.4372505e+12)
(-7.5603363e+13 1.1141632e+13 3.5220474e+11)
(-9.4482526e+13 3.3081564e+12 -5.8084968e+12)
(-1.0052056e+14 9.2166345e+12 -1.2582791e+13)
(-9.688823e+13 1.0250786e+13 -1.2001481e+13)
(-8.7335587e+13 9.7306864e+12 -5.3213208e+12)
(-8.0418354e+13 -9.3712143e+11 -1.2259714e+13)
(-7.2068366e+13 7.3145084e+12 -1.0116278e+13)
(-6.3869858e+13 -8.651416e+11 4.6272045e+12)
(-5.1788484e+13 1.1894645e+13 1.2567999e+12)
(-5.992444e+13 -2.1917643e+12 9.1282994e+12)
(-7.1038717e+13 3.7069289e+12 1.3335528e+13)
(-5.6153009e+13 1.5796839e+12 7.745153e+12)
(-6.9624661e+13 3.9867965e+12 1.2368938e+13)
(-5.8500992e+13 -1.6324281e+12 8.2027808e+12)
(-5.6129168e+13 8.8202821e+11 7.7478313e+12)
(-6.9481733e+13 3.2102689e+12 1.2415182e+13)
(-7.0225131e+13 3.4251674e+12 1.232406e+13)
(-6.0902503e+13 -2.645991e+12 9.7983292e+12)
(-5.7706906e+13 1.1082142e+12 8.6733916e+12)
(-7.1516498e+13 3.9259529e+12 1.3833275e+13)
(-7.0289722e+13 4.1480581e+12 1.2941982e+13)
(-5.9597342e+13 -1.7715124e+12 8.5285817e+12)
(-7.089094e+13 3.9177617e+12 1.2318488e+13)
(-5.55781e+13 1.616806e+12 7.3510683e+12)
(-6.93949e+13 4.1111231e+12 1.1811976e+13)
(-6.7353455e+13 1.417528e+12 7.5522969e+12)
(-6.2401653e+13 -3.1364865e+12 1.0305254e+13)
(-5.9502306e+13 1.3629283e+11 9.4510679e+12)
(-7.300615e+13 4.4882052e+12 1.3990403e+13)
(-7.1704584e+13 4.3280907e+12 1.3124811e+13)
(-7.2870777e+13 -3.2661357e+12 8.4106074e+12)
(-8.6008468e+13 7.0045325e+12 1.3357286e+13)
(-8.3469651e+13 7.6753093e+12 1.3086874e+13)
(-6.0996119e+13 -2.3362337e+12 8.8886313e+12)
(-7.2296408e+13 4.0787223e+12 1.2137287e+13)
(-5.7274291e+13 8.4576022e+11 8.0475127e+12)
(-7.0762825e+13 4.2888105e+12 1.1733395e+13)
(-6.1051831e+13 -2.6013764e+12 9.4784455e+12)
(-5.7807866e+13 9.8388882e+11 8.5589221e+12)
(-7.0815638e+13 4.1288178e+12 1.2318886e+13)
(-7.2326231e+13 3.8323679e+12 1.3206257e+13)
(-5.9970997e+13 -1.7686675e+12 8.7327043e+12)
(-5.6981529e+13 1.1585395e+12 8.0277182e+12)
(-6.9676055e+13 4.2612065e+12 1.1574901e+13)
(-7.092543e+13 4.18804e+12 1.1865566e+13)
(-7.4111165e+13 -4.0973563e+12 9.8366819e+12)
(-6.803331e+13 7.7752373e+11 8.1620489e+12)
(-8.7761172e+13 6.9574836e+12 1.5299671e+13)
(-8.4862955e+13 6.6651776e+12 1.4133679e+13)
(-7.4115163e+13 -4.472029e+12 9.2039811e+12)
(-6.8900758e+13 2.484771e+11 8.5826739e+12)
(-8.8645194e+13 5.9805231e+12 1.4106946e+13)
(-8.6153013e+13 6.1937071e+12 1.3903893e+13)
(-8.3809779e+13 -8.4948427e+11 1.0176001e+13)
(-8.7039653e+13 5.7602942e+12 1.5152286e+13)
(-7.0018765e+13 -9.6071035e+11 9.4611018e+12)
(-7.5097952e+13 -5.0551037e+12 1.0562931e+13)
(-8.9438451e+13 6.4773318e+12 1.6165659e+13)
(-1.06472e+14 8.9745273e+12 1.5906915e+13)
(-9.1454598e+13 -7.7124231e+12 1.0450534e+13)
(-1.0309266e+14 8.9865443e+12 1.6706875e+13)
(-8.5028271e+13 -3.5604674e+12 1.1560578e+13)
(-1.042298e+14 7.1519398e+12 1.8008691e+13)
(-1.0585225e+14 4.6249472e+12 1.9567072e+12)
(-9.9774163e+13 6.099763e+12 -9.9786943e+12)
(-1.0123427e+14 4.2250961e+12 -9.5172735e+12)
(-1.0406106e+14 8.3422358e+12 1.2138606e+12)
(-1.1808989e+14 7.5821327e+12 7.1769064e+12)
(-1.0936376e+14 6.1068667e+12 1.0165262e+13)
(-1.0764049e+14 1.1605176e+13 1.002326e+13)
(-1.0408832e+14 6.8594186e+12 -4.6850065e+12)
(-1.0683048e+14 5.6476078e+12 -3.1409443e+12)
(-1.2599333e+14 8.2163796e+12 1.0121162e+13)
(-1.1588541e+14 1.1066308e+13 -9.9824211e+12)
(-1.0573607e+14 8.6910002e+12 2.8552225e+12)
(-1.0318746e+14 4.3472861e+12 -8.3096215e+12)
(-1.0726304e+14 3.9338767e+12 2.1917746e+12)
(-1.0121752e+14 5.1994822e+12 -9.8997154e+12)
(-1.1270402e+14 1.5029225e+13 5.3014551e+12)
(-1.0431033e+14 1.2933676e+13 7.0628444e+12)
(-1.0296763e+14 7.8608902e+12 -4.990206e+12)
(-1.0460706e+14 6.099483e+12 -5.5320354e+12)
(-1.0666344e+14 8.1238843e+12 8.7055871e+12)
(-8.4197909e+13 6.1769714e+12 -1.308852e+12)
(-8.5328053e+13 4.5085195e+12 -1.0000951e+12)
(-8.6926429e+13 8.1728087e+12 9.6828505e+12)
(-8.7852928e+13 4.5963458e+12 1.0320112e+13)
(-8.4765128e+13 5.5992767e+12 -1.0581466e+12)
(-8.6801832e+13 4.3725574e+12 1.9863527e+11)
(-8.8377032e+13 8.4304101e+12 1.0725813e+13)
(-8.8668997e+13 4.3276229e+12 1.0499984e+13)
(-8.1607253e+13 6.143919e+12 -5.6775437e+12)
(-8.2741634e+13 4.1359929e+12 -5.1985469e+12)
(-8.5215658e+13 6.6987071e+12 3.0345884e+12)
(-8.6117035e+13 4.5822211e+12 3.2496011e+12)
(-8.7206945e+13 6.6917443e+12 4.5521502e+12)
(-8.2453991e+13 4.8346064e+12 -4.9780829e+12)
(-8.4037569e+13 3.8968966e+12 -3.8485716e+12)
(-8.7264676e+13 3.5108113e+12 4.0471338e+12)
(-8.4841208e+13 2.6964669e+12 -5.2867217e+12)
(-8.6411085e+13 4.9732845e+12 6.9358096e+11)
(-8.3785864e+13 2.7506436e+12 -6.1915788e+12)
(-8.7177259e+13 1.7731914e+12 3.5285784e+11)
(-1.0019332e+14 8.4441258e+12 -1.1264457e+12)
(-8.4655307e+13 1.6046517e+12 -6.4888278e+12)
(-8.6458617e+13 3.6503527e+12 -5.7646085e+11)
(-8.7094647e+13 1.7899172e+12 -2.4793449e+11)
(-8.3946428e+13 2.9925701e+12 -6.8448589e+12)
(-1.0364299e+14 3.0380971e+12 -7.0006076e+11)
(-8.3545796e+13 3.7242602e+12 -5.6856751e+12)
(-8.4176754e+13 2.4986413e+12 -5.9711554e+12)
(-8.4742734e+13 5.9159413e+12 -6.1015733e+11)
(-8.5654371e+13 3.8298327e+12 -1.3869817e+11)
(-8.3346407e+13 3.9296845e+12 -5.5265207e+12)
(-8.4350025e+13 3.7527968e+12 -4.5653946e+12)
(-8.4822403e+13 6.9338501e+12 9.102934e+11)
(-8.5721257e+13 3.6306337e+12 5.864765e+11)
(-9.8066289e+13 5.2430154e+12 -1.1409578e+13)
(-9.7398306e+13 5.5123204e+12 -1.2348587e+13)
(-9.8101697e+13 8.736871e+12 -3.0175454e+12)
(-1.0072455e+14 4.0908859e+12 -1.9152568e+12)
(-8.6473592e+13 6.9406475e+12 3.0074408e+12)
(-8.406159e+13 4.1311562e+12 -4.6100887e+12)
(-8.7312525e+13 4.5370752e+12 3.2665651e+12)
(-8.3069224e+13 5.4780978e+12 -4.8370187e+12)
(-8.3207409e+13 5.0681735e+12 -4.0916221e+12)
(-8.4332567e+13 5.2583763e+12 -3.0923575e+12)
(-8.6709582e+13 8.3907393e+12 4.7050432e+12)
(-8.7620042e+13 4.2961608e+12 4.3824121e+12)
(-8.5521926e+13 5.885012e+12 -1.7674322e+11)
(-8.70812e+13 6.01434e+12 8.4093903e+11)
(-8.8082042e+13 1.0275379e+13 1.078979e+13)
(-8.9052443e+13 5.4133497e+12 1.0705777e+13)
(-8.765334e+13 9.1531665e+12 9.058014e+12)
(-8.6379119e+13 4.5943327e+12 -6.215069e+11)
(-8.5196438e+13 6.063332e+12 -1.0213123e+12)
(-8.8395812e+13 5.7560856e+12 9.4753367e+12)
(-8.5107856e+13 5.5775222e+12 6.613971e+11)
(-8.2202547e+13 3.7149104e+12 -6.1511398e+12)
(-8.3359925e+13 2.7988555e+12 -5.2406523e+12)
(-8.5580644e+13 2.817518e+12 4.5261827e+11)
(-8.5596155e+13 1.9148544e+12 -2.1783955e+11)
(-8.4930449e+13 4.5963269e+12 -8.4049927e+10)
(-8.3425083e+13 2.6093653e+12 -7.1636099e+12)
(-8.2569391e+13 3.3475513e+12 -7.9777122e+12)
(-8.328222e+13 2.3427302e+12 -7.8239709e+12)
(-8.4454363e+13 4.2886012e+12 -8.756406e+11)
(-8.2388293e+13 4.4653243e+12 -8.4924797e+12)
(-8.5056129e+13 2.9925221e+12 -8.467191e+11)
(-8.1630919e+13 5.0700529e+12 -6.9354452e+12)
(-8.2416275e+13 2.9092485e+12 -6.4892059e+12)
(-8.3201742e+13 6.1136427e+12 -9.9433703e+11)
(-8.3942337e+13 4.6192943e+12 -7.678394e+11)
(-6.6595508e+13 2.7513338e+12 -3.1687002e+12)
(-6.7820957e+13 4.3337204e+12 7.8298491e+11)
(-6.6487786e+13 2.9456945e+12 -3.8541743e+12)
(-6.8363549e+13 2.2253411e+12 3.473066e+11)
(-6.6829178e+13 2.6865281e+12 -2.9876148e+12)
(-6.8392664e+13 3.8307304e+12 6.733122e+11)
(-6.6866216e+13 2.6622897e+12 -3.6698108e+12)
(-6.8891143e+13 1.8787671e+12 1.9625385e+11)
(-6.7783445e+13 2.2828338e+12 -2.4600485e+12)
(-6.8879588e+13 3.5795903e+12 3.2551934e+11)
(-6.7662412e+13 2.4583551e+12 -3.1359464e+12)
(-6.9419858e+13 1.8023408e+12 -1.2863635e+11)
(-7.115243e+13 3.2502195e+12 7.2169371e+11)
(-7.1446142e+13 1.5773006e+12 9.2868414e+10)
(-7.0475427e+13 2.383523e+12 -4.0902717e+12)
(-8.5766936e+13 4.2530689e+12 -5.0996868e+11)
(-7.0185142e+13 2.6130538e+12 -5.2064177e+12)
(-7.1288469e+13 2.2448096e+12 -2.8712365e+11)
(-8.6521954e+13 1.5370239e+12 -1.3108696e+12)
(-7.0558995e+13 1.4428672e+12 -4.9363183e+12)
(-8.464331e+13 1.6034457e+12 -7.5039629e+12)
(-8.4123867e+13 2.6254403e+12 -9.0663062e+12)
(-7.0057415e+13 3.6558535e+12 -2.0124308e+11)
(-7.2198963e+13 5.254232e+12 6.8803601e+12)
(-6.9824176e+13 3.3593295e+12 -9.1003561e+11)
(-6.8126639e+13 3.3191123e+12 -2.4161395e+12)
(-6.9713764e+13 5.21439e+12 2.8024845e+12)
(-6.7904206e+13 3.4044533e+12 -3.0981026e+12)
(-7.034317e+13 2.64637e+12 2.3882924e+12)
(-6.6802494e+13 3.2584731e+12 -2.7592289e+12)
(-6.8510481e+13 4.823948e+12 1.4817207e+12)
(-6.677181e+13 3.0467751e+12 -3.3756274e+12)
(-6.9149047e+13 2.4567063e+12 1.0451954e+12)
(-6.8381092e+13 3.6313157e+12 6.0709643e+12)
(-6.8989697e+13 3.5083825e+12 6.3056147e+12)
(-6.930714e+13 3.9716088e+12 6.9128828e+12)
(-6.8532634e+13 3.562818e+12 6.0306597e+12)
(-6.9838812e+13 4.1952296e+12 7.5923317e+12)
(-6.9183871e+13 3.667749e+12 6.6030378e+12)
(-6.9560948e+13 3.8553266e+12 6.4006555e+12)
(-6.8467962e+13 3.93976e+12 5.8015942e+12)
(-7.1411562e+13 4.5976229e+12 8.186383e+12)
(-7.0592273e+13 3.660033e+12 7.1485977e+12)
(-8.330836e+13 7.2100104e+12 6.0603054e+12)
(-8.5153527e+13 6.5249215e+12 6.5033035e+12)
(-7.0854048e+13 3.7924671e+12 6.6942065e+12)
(-6.9639289e+13 3.9096368e+12 6.1136244e+12)
(-6.9804572e+13 3.9540481e+12 6.3882363e+12)
(-6.8858813e+13 4.0989218e+12 5.9638316e+12)
(-7.0436962e+13 3.9763138e+12 7.1481507e+12)
(-6.9548485e+13 3.7254198e+12 6.2115186e+12)
(-8.4265031e+13 6.0792567e+12 6.6008163e+12)
(-8.6395926e+13 6.3974782e+12 7.8975714e+12)
(-8.7289377e+13 5.430782e+12 7.2990104e+12)
(-8.5500595e+13 5.7422736e+12 6.7969484e+12)
(-8.6546157e+13 4.9197261e+12 7.8554191e+12)
(-8.8045808e+13 5.999285e+12 9.0803341e+12)
(-1.0300017e+14 7.8516999e+12 6.1014443e+12)
(-1.0563079e+14 7.0108817e+12 5.8940045e+12)
(-1.0505322e+14 5.9871383e+12 7.0203094e+12)
(-1.1821932e+14 9.1853288e+12 -3.6893136e+12)
(-1.1865457e+14 8.2705111e+12 -4.5814385e+12)
(-1.1745379e+14 1.004939e+13 -2.8532432e+12)
(-1.1851067e+14 1.0015258e+13 -2.4889741e+12)
(-1.0023335e+14 5.2615485e+12 -8.8368408e+12)
(-7.2863001e+13 6.9725249e+12 -6.4372145e+12)
(-7.1458578e+13 7.2745527e+12 -5.8411723e+12)
(-9.9468999e+13 1.2129991e+13 -6.9312159e+12)
(-1.0099954e+14 7.3152021e+12 -6.844687e+12)
(-9.9895683e+13 4.9547634e+12 -8.2120059e+12)
(-7.1672579e+13 6.2320277e+12 -5.6237674e+12)
(-7.0503602e+13 6.9848728e+12 -5.3876884e+12)
(-9.7556543e+13 5.5337641e+12 -1.0284381e+13)
(-9.9899252e+13 8.136951e+12 -1.1849225e+11)
(-9.6519422e+13 1.0222354e+13 1.2066911e+12)
(-9.6405869e+13 6.0893261e+12 -9.1194726e+12)
(-1.007288e+14 5.3411882e+12 -8.9102486e+12)
(-7.4281611e+13 6.8752237e+12 -7.1512057e+12)
(-7.2721758e+13 7.4563433e+12 -6.6635554e+12)
(-1.0005073e+14 1.2464457e+13 -6.7497236e+12)
(-1.0238171e+14 7.775774e+12 -6.7141792e+12)
(-9.998819e+13 5.2579423e+12 -8.209126e+12)
(-7.3209502e+13 6.7716333e+12 -6.3345966e+12)
(-7.126594e+13 7.8877106e+12 -5.9392327e+12)
(-6.4013784e+13 2.3804462e+12 -9.2999822e+12)
(-7.4321987e+13 8.0742426e+12 -1.3803444e+13)
(-6.0061722e+13 5.9716444e+12 -9.3167159e+12)
(-7.2236498e+13 7.9701068e+12 -1.3653431e+13)
(-7.3089467e+13 8.0944296e+12 -1.3087991e+13)
(-7.0888692e+13 8.8602627e+12 -1.2907359e+13)
(-6.3317533e+13 2.4917256e+12 -8.6663226e+12)
(-5.9131268e+13 6.8001937e+12 -8.6808251e+12)
(-4.425033e+13 5.9009754e+11 7.3463039e+12)
(-4.8127747e+13 2.5584405e+12 -9.0356886e+12)
(-4.2860007e+13 7.7331087e+12 -8.0280795e+12)
(-3.5369522e+13 1.0461767e+13 3.1774762e+12)
(-4.2149477e+13 8.2880594e+12 -8.0323495e+12)
(-4.378488e+13 1.5261318e+12 7.0576312e+12)
(-4.7720737e+13 2.9048968e+12 -8.9104502e+12)
(-3.4706093e+13 1.1408337e+13 2.5079306e+12)
(-6.7531483e+13 1.4224854e+12 -1.4113823e+13)
(-6.7780271e+13 1.4550301e+12 -1.331571e+13)
(-3.5197587e+13 2.3804365e+12 -8.1556753e+12)
(-3.1991882e+13 5.7192589e+12 -8.6172051e+12)
(-4.0672952e+13 7.0511029e+12 -1.2343781e+13)
(-4.2165909e+13 7.0465737e+12 -1.1872012e+13)
(-3.54181e+13 2.2677053e+12 -7.478705e+12)
(-3.2059642e+13 6.189528e+12 -8.4256996e+12)
(-4.0420149e+13 7.3886008e+12 -1.2095223e+13)
(-4.1888795e+13 6.9551924e+12 -1.1383435e+13)
(-2.8242339e+13 3.4576793e+12 -3.8712847e+11)
(-2.3285046e+13 7.6023421e+12 -2.0732039e+12)
(-4.0097351e+13 -7.8560497e+11 1.0434109e+13)
(-3.4206119e+13 6.1245968e+12 6.5308188e+12)
(-2.7608619e+13 3.4256137e+12 -1.377889e+12)
(-3.9894605e+13 -1.2690481e+12 9.6953221e+12)
(-2.3676707e+13 7.1846295e+12 -1.4673235e+12)
(-3.5283246e+13 5.5007243e+12 7.3265521e+12)
(-6.735311e+13 1.6656955e+12 -1.3160331e+13)
(-6.7432597e+13 1.6331789e+12 -1.3854659e+13)
(-4.136278e+13 7.2879056e+12 -1.1589098e+13)
(-3.4812083e+13 2.6562315e+12 -7.8685565e+12)
(-3.9797205e+13 7.3179179e+12 -1.1999138e+13)
(-3.1487158e+13 6.1302144e+12 -8.3291157e+12)
(-4.1089491e+13 6.9781322e+12 -1.1236849e+13)
(-3.9775175e+13 7.3461192e+12 -1.1989628e+13)
(-3.5254796e+13 2.2542077e+12 -7.2150128e+12)
(-3.1822068e+13 6.1928498e+12 -8.3164231e+12)
(-2.7316075e+13 3.8932432e+12 -1.0381334e+12)
(-2.3212687e+13 7.8471255e+12 -1.3942739e+12)
(-3.4981245e+13 6.1135381e+12 7.5844675e+12)
(-3.9749764e+13 -9.2346779e+11 1.0150606e+13)
(-2.326724e+13 7.6874709e+12 -2.0279938e+12)
(-4.0209703e+13 -2.915276e+11 1.0928612e+13)
(-3.4308191e+13 6.5381398e+12 6.9106513e+12)
(-2.8298459e+13 3.641414e+12 7.7621037e+10)
(-6.787187e+13 5.1151335e+11 -1.3367757e+13)
(-6.752948e+13 8.8746954e+11 -1.3727738e+13)
(-4.0896789e+13 7.1307831e+12 -1.1569516e+13)
(-3.942073e+13 7.1192553e+12 -1.1998209e+13)
(-3.488246e+13 2.4310579e+12 -7.7981794e+12)
(-3.1358398e+13 6.1117403e+12 -8.2877249e+12)
(-4.0233968e+13 6.8063498e+12 -1.1048168e+13)
(-3.8623423e+13 7.2692821e+12 -1.163157e+13)
(-3.4861843e+13 2.0250641e+12 -7.0213922e+12)
(-3.1051089e+13 6.2484773e+12 -7.9614094e+12)
(-2.8365815e+13 3.3877219e+12 3.6848381e+11)
(-4.0872314e+13 -7.1685807e+11 1.1364095e+13)
(-2.2822611e+13 7.7735668e+12 -1.567091e+12)
(-3.438975e+13 6.7055793e+12 7.0982098e+12)
(-2.7536099e+13 3.7381365e+12 -9.8706736e+11)
(-4.010356e+13 -9.5626605e+11 1.0266643e+13)
(-2.3352282e+13 7.6960991e+12 -1.2093204e+12)
(-3.5207207e+13 6.2871362e+12 7.5090166e+12)
(-6.7687971e+13 1.2275478e+12 -1.3188099e+13)
(-6.7557431e+13 1.6995068e+12 -1.3876196e+13)
(-3.9402228e+13 6.7450376e+12 -1.1152302e+13)
(-3.7801834e+13 6.9408883e+12 -1.155383e+13)
(-3.3895782e+13 2.1701352e+12 -7.3115705e+12)
(-3.031267e+13 6.0406733e+12 -7.8920146e+12)
(-3.9237801e+13 6.3027992e+12 -1.0916385e+13)
(-3.795124e+13 6.4161922e+12 -1.1632514e+13)
(-3.4397721e+13 1.6377225e+12 -6.7909196e+12)
(-3.0898064e+13 5.465703e+12 -7.8504238e+12)
(-2.6949544e+13 3.5443789e+12 -3.6751926e+11)
(-4.0102939e+13 -8.0405104e+11 1.0743406e+13)
(-2.2463128e+13 7.7400331e+12 -1.041409e+12)
(-3.4415841e+13 6.7768286e+12 7.3790822e+12)
(-2.8134522e+13 2.9720325e+12 7.3263829e+11)
(-2.3000588e+13 6.7450426e+12 -1.3007503e+12)
(-4.0377653e+13 -4.5059716e+11 1.1372908e+13)
(-3.4858007e+13 6.1479969e+12 7.5825959e+12)
(-9.9316919e+13 7.4537986e+12 -1.3811894e+13)
(-1.0265914e+14 7.3706213e+12 -1.4087321e+13)
(-9.1267469e+13 6.1727024e+12 -7.6049463e+12)
(-9.8347963e+13 8.9354953e+12 -1.2826565e+13)
(-1.0160089e+14 8.4536844e+12 -1.303704e+13)
(-9.5924714e+13 2.2977489e+12 -6.3119845e+12)
(-8.9568136e+13 8.0475801e+12 -6.2446801e+12)
(-7.5518864e+13 3.0366808e+12 -1.1029612e+13)
(-5.3751144e+13 6.050696e+12 3.6411202e+11)
(-8.171387e+13 -2.3749361e+12 -1.2593436e+13)
(-7.4336628e+13 4.8027098e+12 -1.0630984e+13)
(-6.4767993e+13 -3.2929982e+12 4.2949158e+12)
(-5.3855602e+13 8.5017143e+12 8.3514455e+11)
(-9.9026799e+13 4.4083762e+12 -1.1135761e+13)
(-1.017935e+14 7.1487994e+12 -1.4347212e+12)
(-9.8656073e+13 9.1690917e+12 -1.285725e+11)
(-9.8045131e+13 5.0542109e+12 -9.5322406e+12)
(-7.4177871e+13 6.9342342e+12 -1.4256563e+13)
(-7.6222898e+13 7.0447329e+12 -1.4488681e+13)
(-6.5360075e+13 1.412909e+12 -1.005964e+13)
(-6.1602068e+13 4.6381095e+12 -9.8637632e+12)
(-7.4891586e+13 7.2739036e+12 -1.3366304e+13)
(-6.4546809e+13 1.5624494e+12 -8.9713898e+12)
(-7.2651886e+13 8.1110027e+12 -1.3308829e+13)
(-6.0641802e+13 5.8138279e+12 -9.0891757e+12)
(-4.9385837e+13 1.129241e+12 -9.5155936e+12)
(-4.4876894e+13 -7.8116312e+11 6.5485729e+12)
(-4.4349357e+13 5.8768179e+12 -8.258435e+12)
(-3.6813416e+13 8.2192231e+12 3.2076033e+12)
(-4.357884e+13 6.9202008e+12 -8.0335958e+12)
(-4.4825355e+13 -1.0491989e+11 7.164761e+12)
(-4.8734826e+13 1.7252937e+12 -8.8856645e+12)
(-3.6481978e+13 9.3906373e+12 3.373489e+12)
(-4.6734028e+13 2.7359052e+12 1.1557078e+13)
(-4.7907654e+13 -5.4560298e+11 1.2027744e+13)
(-6.230036e+13 1.6997238e+12 1.2582309e+13)
(-6.1760906e+13 2.3380276e+12 1.1828916e+13)
(-6.2313335e+13 1.6685658e+12 1.1809033e+13)
(-4.735097e+13 2.2668417e+10 1.1227993e+13)
(-4.556605e+13 3.0892648e+12 1.1164253e+13)
(-6.1582118e+13 2.3992955e+12 1.1140493e+13)
(-4.6120766e+13 2.7979968e+12 1.1375734e+13)
(-4.7430426e+13 -3.1514924e+11 1.1886772e+13)
(-6.2278202e+13 1.5618436e+12 1.2409466e+13)
(-6.1690588e+13 2.1577656e+12 1.1671765e+13)
(-4.6310895e+13 2.2901596e+12 1.1845248e+13)
(-4.6828377e+13 -3.0572142e+11 1.1279943e+13)
(-6.1988593e+13 1.3472064e+12 1.1952673e+13)
(-6.1615664e+13 1.9133388e+12 1.1536139e+13)
(-4.7771117e+13 2.3394375e+12 1.1990077e+13)
(-4.8866766e+13 -7.2607142e+11 1.2325202e+13)
(-6.2165442e+13 2.0848615e+12 1.2305768e+13)
(-6.204519e+13 1.8999872e+12 1.2359059e+13)
(-4.8461376e+13 -1.2632086e+11 1.147564e+13)
(-4.7152833e+13 2.8587945e+12 1.1531993e+13)
(-6.2430168e+13 2.0399427e+12 1.1574928e+13)
(-6.214863e+13 2.0451044e+12 1.1706536e+13)
(-4.6784226e+13 2.8106383e+12 1.1608584e+13)
(-4.8161017e+13 -4.106668e+11 1.1951379e+13)
(-6.2464657e+13 2.1147123e+12 1.2011529e+13)
(-6.2092587e+13 2.1245408e+12 1.1980776e+13)
(-4.74941e+13 -1.5057415e+10 1.1372334e+13)
(-4.5716038e+13 2.8548616e+12 1.1348032e+13)
(-6.1890084e+13 2.2029495e+12 1.1336716e+13)
(-6.1336089e+13 2.3955831e+12 1.1106651e+13)
(-6.1254548e+13 -2.2003626e+12 9.0303865e+12)
(-5.8899412e+13 3.059531e+11 8.9389841e+12)
(-7.1242855e+13 4.4424544e+12 1.184458e+13)
(-7.2404733e+13 4.3115338e+12 1.1854749e+13)
(-4.9017781e+13 1.7382939e+12 1.1744073e+13)
(-4.9981517e+13 -7.2097714e+11 1.1996997e+13)
(-6.3306099e+13 2.2930028e+12 1.2284465e+13)
(-6.3140959e+13 1.7378698e+12 1.2285241e+13)
(-4.9771457e+13 -4.6916097e+11 1.124552e+13)
(-4.8880268e+13 2.1513064e+12 1.1633144e+13)
(-6.3492893e+13 1.8644752e+12 1.1350226e+13)
(-6.3121568e+13 1.872793e+12 1.1486717e+13)
(-6.207437e+13 -2.5575861e+12 9.8040847e+12)
(-5.9069591e+13 5.8191114e+11 9.0872844e+12)
(-7.1942602e+13 4.0878877e+12 1.2467624e+13)
(-7.3509391e+13 3.9983861e+12 1.3251524e+13)
(-4.8258971e+13 2.174101e+12 1.154292e+13)
(-4.9450337e+13 -6.2350806e+11 1.1734177e+13)
(-6.3280839e+13 2.0361731e+12 1.1749556e+13)
(-6.2914745e+13 1.8603876e+12 1.171212e+13)
(-4.7560686e+13 2.266832e+12 1.1468192e+13)
(-4.8728501e+13 -3.3431128e+11 1.1202096e+13)
(-6.269028e+13 2.0170086e+12 1.1095306e+13)
(-6.2117501e+13 2.2786897e+12 1.0840772e+13)
(-4.7904192e+13 2.2618565e+12 1.1546718e+13)
(-4.912079e+13 -6.920283e+11 1.1873668e+13)
(-6.3047356e+13 1.6466055e+12 1.2325424e+13)
(-6.248909e+13 2.1255326e+12 1.1535496e+13)
(-4.7747117e+13 2.6726879e+12 1.1413549e+13)
(-4.8693557e+13 -2.9194465e+11 1.1132657e+13)
(-6.3096121e+13 1.5961103e+12 1.1527572e+13)
(-6.2333435e+13 2.3585079e+12 1.0888162e+13)
(-4.8906665e+13 -3.6367389e+11 1.1954135e+13)
(-6.2682013e+13 1.9024509e+12 1.2129247e+13)
(-6.1980386e+13 2.4016901e+12 1.1389067e+13)
(-4.705903e+13 2.6802081e+12 1.1405161e+13)
(-4.8343378e+13 -2.3848041e+10 1.1216265e+13)
(-4.7547187e+13 2.4663156e+12 1.1698373e+13)
(-6.2213319e+13 2.0955479e+12 1.1167571e+13)
(-6.1938308e+13 2.0253361e+12 1.1409209e+13)
(-6.2751354e+13 -3.1312971e+12 1.0441862e+13)
(-5.9800284e+13 8.8428158e+10 9.6084205e+12)
(-7.281519e+13 4.0003841e+12 1.3030489e+13)
(-7.4184402e+13 4.0765252e+12 1.3869162e+13)
(-6.1709751e+13 -2.4025404e+12 9.0520763e+12)
(-5.8205659e+13 6.0142538e+11 8.4986258e+12)
(-7.177207e+13 4.162976e+12 1.1675411e+13)
(-7.3445701e+13 3.8893617e+12 1.2060576e+13)
(-6.2888511e+13 -3.4372354e+12 1.0278385e+13)
(-6.0009784e+13 -2.2261342e+11 9.5808582e+12)
(-7.4541656e+13 3.4752673e+12 1.3394651e+13)
(-7.3176417e+13 3.5605178e+12 1.2670373e+13)
(-7.3934215e+13 3.6181127e+12 1.2204865e+13)
(-6.1871843e+13 -2.6875861e+12 9.2437975e+12)
(-5.9253035e+13 -4.0768698e+10 9.2208861e+12)
(-7.2499892e+13 3.8495189e+12 1.2058537e+13)
(-7.4262806e+13 -5.1572888e+12 9.316114e+12)
(-6.9978826e+13 -1.0542515e+12 9.1761888e+12)
(-8.6729579e+13 5.622111e+12 1.3602466e+13)
(-8.9126426e+13 5.1961847e+12 1.3584076e+13)
(-6.2428682e+13 -3.1937012e+12 9.5532717e+12)
(-6.0408729e+13 -5.8837683e+11 9.6171251e+12)
(-7.4605108e+13 3.0142902e+12 1.2471562e+13)
(-7.32822e+13 3.3314979e+12 1.2229028e+13)