/*--------------------------------*- C++ -*----------------------------------*\
  =========                 |
  \\      /  F ield         | OpenFOAM: The Open Source CFD Toolbox
   \\    /   O peration     | Website:  https://openfoam.org
    \\  /    A nd           | Version:  7
     \\/     M anipulation  |
\*---------------------------------------------------------------------------*/
FoamFile
{
    version     2.0;
    format      ascii;
    class       volScalarField;
    location    "5000";
    object      omega;
}
// * * * * * * * * * * * * * * * * * * * * * * * * * * * * * * * * * * * * * //

dimensions      [0 0 -1 0 0 0 0];

internalField   nonuniform List<scalar> 
34387
(
272.82053
262.2093
291.56633
262.0833
287.44407
265.95338
273.5885
277.62891
273.28349
269.64586
257.62986
257.26555
258.69688
261.34058
260.11791
263.01543
260.49012
257.83148
260.7499
285.31122
287.14866
287.01513
261.30015
253.52655
257.98403
261.31115
260.68431
263.21637
263.78385
292.43209
273.91389
291.59797
284.36088
279.36829
286.25678
260.56658
266.11348
266.96506
269.71143
263.88868
271.27864
275.27286
269.69876
266.49727
254.08256
256.99023
254.78344
253.42164
255.76845
258.45085
256.22378
253.98268
256.31537
251.906
252.97801
254.86324
256.61849
254.13285
255.30056
260.69255
258.06819
253.37073
255.9681
285.37592
279.75887
278.75485
292.28716
279.77066
282.87054
262.58763
254.84168
257.31134
259.39775
259.36725
261.74065
261.95582
264.53463
251.55132
255.04517
257.41008
256.8006
258.80689
259.36773
258.34962
258.69864
260.89819
260.55643
294.08155
277.36529
288.4269
290.0639
298.86524
297.15552
264.98538
272.61241
278.22136
274.73479
269.72786
286.89797
281.49979
274.81631
279.28826
256.89775
260.47001
261.68904
263.12733
259.36308
264.1659
263.53351
267.53297
260.88164
287.15394
296.79045
291.22131
282.73882
251.52032
252.8582
254.59146
252.81109
251.01761
250.58112
251.68307
253.4432
252.31856
253.1754
251.74412
248.51023
249.82703
250.08541
251.7174
255.8727
254.02072
249.62905
251.38314
246.67405
262.93765
247.01993
261.73675
266.35421
248.54128
270.73088
249.2421
274.84598
267.90965
265.9223
273.69564
271.94683
277.58224
277.41634
273.36685
273.1139
272.80113
283.31869
280.73164
273.12301
279.15407
266.65361
262.78832
257.80737
259.91149
259.0038
261.90634
258.47007
257.33134
260.08769
261.42358
264.87614
252.56693
257.75703
255.97585
254.51838
255.66792
257.6513
256.98055
256.90391
258.69177
259.01775
255.03693
250.85644
253.00522
253.96394
255.4392
254.43967
255.9299
254.69456
254.96608
256.69236
256.3698
264.25825
264.00138
266.72579
268.03445
295.31403
277.59474
299.73892
300.37342
290.99622
290.33083
265.98632
273.83726
274.58033
281.95969
280.88136
287.47852
289.88948
296.86852
293.60537
260.07024
264.67282
268.3759
266.55206
263.34589
271.39239
276.15794
270.65612
266.99465
311.11699
299.91126
290.94642
300.55268
256.66951
254.47491
257.7072
258.45578
256.02268
258.80635
258.65014
261.33245
256.62793
273.34132
275.53778
279.29996
270.25986
294.23336
307.52903
302.08258
289.61358
249.75061
250.43254
249.52216
250.7708
249.80416
248.50181
248.86187
250.20328
251.70476
250.81974
252.31858
248.29921
248.90994
247.0705
247.48618
246.04762
249.1163
250.35984
247.24382
258.34291
255.68027
243.88263
254.04624
243.91019
245.13625
257.40302
245.25988
262.49225
258.25305
255.95323
259.77874
250.88629
260.73905
268.08095
262.79964
262.38591
268.30648
253.37944
266.36533
278.92758
269.06884
282.69037
272.57352
272.03284
283.36722
266.43686
268.41672
270.11373
267.46397
267.05113
267.56887
272.60804
271.52581
267.69173
276.74224
276.78465
268.25019
264.59694
260.78136
265.0251
268.53098
259.26251
255.6029
254.20222
254.89924
257.22389
257.88625
255.83769
253.62702
254.29822
256.71819
257.12296
255.33972
254.24213
258.39787
256.59541
254.75602
251.32549
253.45542
256.81759
255.43418
251.75432
255.19272
253.71355
254.76758
252.62449
253.43496
253.02681
254.46088
253.48674
255.10214
264.80916
265.5846
268.7435
267.62624
259.8893
252.82942
250.67367
252.01962
251.66112
252.27126
253.38642
253.04656
252.02491
253.43088
251.81386
253.18556
258.32201
259.20987
261.66987
261.08361
264.86506
263.47963
267.25807
270.19484
296.15903
277.94091
291.43488
291.47236
301.73444
301.34785
265.76367
274.78588
282.40602
282.05601
274.57323
296.83527
299.56222
292.22873
290.30598
260.92952
265.62166
269.69057
269.48622
265.7993
274.92937
275.87951
282.2615
280.64781
299.57543
305.60332
313.3375
306.31847
257.11419
259.65575
261.98762
261.14315
258.97266
264.34876
267.74505
263.99182
261.10141
283.72394
291.0604
283.24808
277.26693
324.51971
308.05456
295.15921
308.62299
254.96924
255.37991
252.89355
254.80614
254.25394
253.54008
254.94885
256.79004
253.34524
265.11262
266.18722
269.02954
262.95727
273.65934
279.12844
282.25498
271.4046
248.5696
248.07103
248.77924
249.65636
248.31426
247.34286
247.02247
248.02502
248.94766
248.54944
247.14458
248.07661
245.2254
246.85249
244.40011
245.74801
245.1639
246.1421
249.60419
253.1197
255.4943
253.2137
242.86552
242.91043
242.11965
251.2459
242.18523
249.93426
252.18224
253.94319
251.7303
258.27844
255.22365
246.8529
251.69545
254.91677
252.32958
248.68841
255.35799
260.01221
256.60631
264.65936
258.73555
257.16684
262.90855
261.42837
260.08127
263.83976
262.27521
261.87228
263.77145
262.77818
264.75535
263.76783
275.38538
291.2158
265.51666
271.65541
272.60379
278.83274
277.96121
264.32858
261.53736
261.89008
259.28784
256.93269
259.92635
262.41381
261.2349
264.17509
269.88024
253.26682
254.15856
251.62275
252.54975
253.53861
251.70992
252.48425
250.72092
251.2219
253.04931
250.97172
250.79353
252.90221
252.78583
255.02148
249.59614
248.14841
251.15659
252.7661
265.09773
250.08317
271.95783
248.75165
252.81608
280.84478
251.403
262.54166
261.86363
266.65371
267.55017
261.30794
252.99384
251.53608
262.88147
260.37757
252.39825
251.38068
252.55577
251.55589
252.25849
251.2993
251.16415
250.82758
252.10038
259.87723
262.38234
265.49732
266.21643
270.25212
269.31512
260.92984
253.92493
252.35882
250.78158
249.7635
251.41234
250.80603
250.66614
250.76311
251.57783
249.61471
250.65864
250.84946
255.10983
257.11767
254.46291
256.28784
257.59612
258.30087
260.8372
260.81999
296.74828
278.46297
292.00948
302.34634
302.23562
291.92296
265.54398
274.68475
274.66995
282.57123
282.53159
293.82805
292.12849
299.85495
301.95446
260.77059
265.72868
269.78757
269.73258
265.94268
277.15954
283.71155
282.81721
276.63551
315.97684
322.00318
312.8937
307.76687
258.0084
260.48148
262.90161
263.19208
260.86535
267.7314
271.79885
271.01531
267.16955
287.6292
292.74379
299.78653
294.28172
301.59868
313.61844
326.27945
310.88357
255.32069
256.56664
256.05614
257.5337
258.03452
259.62682
261.87653
258.99016
257.03409
271.95056
277.28806
272.23622
268.15526
285.18852
294.77034
284.79995
277.23156
258.88027
253.53617
251.87898
253.35795
252.51466
251.88635
252.77205
252.11983
252.30961
251.01432
260.195
261.81543
257.90332
263.76553
266.06981
268.10787
262.26189
247.80489
247.63298
246.30425
247.06587
248.27283
246.7787
247.70677
247.0969
246.02178
245.6999
246.92454
247.67918
244.54367
245.31197
243.92132
244.48464
243.06631
243.77703
246.39302
249.90461
249.30995
250.77955
241.64509
248.2574
241.53775
241.07751
246.96251
240.93066
248.12193
249.49534
251.46704
252.06929
254.97609
253.27809
249.09715
245.17917
248.87314
246.79125
244.00551
250.66714
246.71124
249.51421
251.37499
253.21731
251.66474
257.21106
257.7632
254.20418
255.63237
259.29017
258.12378
261.08018
259.98328
260.9645
275.02956
288.68059
281.98861
272.83012
268.27162
274.25709
283.71417
260.19295
267.85317
264.14893
264.07774
267.63575
268.28351
269.11336
274.01826
272.44015
279.36204
259.11379
274.42927
257.01329
257.44606
255.63726
254.38916
258.01909
256.18407
256.55111
258.71426
269.53401
275.8953
273.28054
258.97431
251.75138
249.85892
251.47315
250.26751
249.40784
250.77857
249.12078
248.56892
249.93019
250.40982
250.47409
249.55801
249.78641
248.22241
248.24148
247.10337
246.00311
248.66389
249.84666
246.48573
257.60761
245.16988
248.0885
263.27176
246.75645
261.95773
257.57591
254.14324
256.79669
259.40639
266.10669
253.88696
267.24969
280.35858
266.19943
276.43708
257.55008
293.52075
275.08086
266.14439
266.15244
273.50106
274.04547
262.31183
255.19416
252.46512
251.62677
263.22194
260.50584
258.12319
250.60344
250.27351
251.00624
250.82293
250.13471
250.20482
249.33304
249.80674
248.92485
256.12358
255.58143
257.67517
259.98289
262.70866
260.8132
253.9464
253.08689
252.44261
251.03024
248.95406
251.78173
250.30589
249.72891
249.81934
250.37918
250.29778
248.28912
248.08436
248.81839
251.65677
253.05867
253.41697
254.22722
256.21393
253.608
255.42629
297.40307
278.74557
291.08941
292.78348
303.54592
301.18478
265.66237
274.88723
274.86222
282.88301
282.96595
295.16947
304.22918
302.20675
293.94877
260.47586
265.55822
269.53026
269.52495
265.41939
277.50897
277.97907
284.66225
283.62605
323.64383
316.07813
324.65027
334.28332
258.05699
260.68559
262.98884
263.22089
260.92528
269.31797
272.81122
273.37817
268.70452
296.54567
305.66509
301.49481
294.06637
328.77955
340.7137
325.6989
315.26213
256.1447
257.62095
257.39087
259.178
258.86571
262.48024
265.05249
264.62009
262.21743
276.70428
283.58366
279.87361
273.6365
287.39487
294.58705
303.29499
294.56569
254.22825
254.18034
254.65595
255.59923
255.18556
256.41024
254.14845
255.52732
257.90041
264.25738
267.69831
264.49849
261.67921
271.59409
277.47091
271.67538
267.54841
257.48754
256.59253
251.2587
251.28278
251.91934
251.45088
250.87997
251.3261
250.50254
249.25602
250.09314
255.82139
254.5187
254.11437
259.37148
260.39581
257.05324
247.34636
246.91159
245.35391
246.40345
247.34474
246.20549
245.64777
246.89307
245.96892
245.78523
242.94959
243.57455
243.44896
244.24313
246.2981
242.63818
245.19101
244.80556
242.25453
246.98885
247.75511
248.84358
240.52203
246.75205
240.64807
240.17034
245.78992
240.26358
244.87559
245.79179
248.14013
248.66796
248.52177
249.9756
243.10092
244.89549
247.69768
245.03465
242.32905
243.6893
246.33325
243.8448
247.27284
248.67447
250.24366
250.80582
254.53491
254.1482
250.11091
247.43821
251.55979
251.397
247.09953
255.46869
255.32399
259.24332
256.00447
259.0467
275.49014
288.16658
267.26891
272.96152
271.67835
280.63567
282.15102
278.31579
270.64326
268.53844
262.03128
264.73407
266.35955
270.18647
272.16425
279.93373
257.03754
259.32891
259.21741
261.51381
261.60611
265.92547
262.76165
262.06511
265.08532
275.85082
283.7804
291.55395
282.3408
282.15379
269.94227
275.89142
266.20325
255.20566
253.6547
254.44311
253.21539
252.76826
253.59762
254.89792
254.77501
253.26977
261.79827
265.1098
271.57566
280.89933
258.18606
256.51353
248.68468
247.81833
248.65598
249.52808
248.80402
247.74304
247.042
248.05722
248.63184
249.40754
248.50956
246.24393
246.37229
247.24584
247.53564
246.84344
244.31125
245.18125
247.70726
254.00384
245.26646
253.67076
243.99832
244.28079
251.11911
243.07122
251.48558
249.75412
252.69594
254.70574
248.2087
253.92353
259.58228
253.68865
259.53737
250.80159
267.75005
259.1589
261.64148
259.8517
255.19988
257.31179
260.93525
274.15614
274.50557
277.08315
276.12113
289.71614
281.34783
281.2175
288.17239
264.61309
255.05738
254.236
252.48051
251.8694
258.16751
250.14579
249.83443
249.98196
249.5083
249.30924
247.90699
248.59501
248.22044
247.57408
254.32688
252.84929
253.85833
252.24734
256.09129
255.44324
257.66079
260.97116
253.36423
253.0684
253.11738
252.70825
251.35601
250.53459
251.06665
250.05581
249.24618
249.11359
249.54331
249.63781
247.27841
247.04822
247.55022
247.775
249.3949
249.48975
250.543
250.90982
252.27165
252.59441
297.69256
279.08844
292.14775
302.62796
302.30941
291.74065
265.6008
282.48422
274.41995
275.06816
283.48929
294.6415
296.64432
306.34559
303.33775
260.47815
265.63512
269.64959
269.60748
265.4842
277.99884
277.93955
284.4639
285.22903
329.63418
342.99572
333.79219
322.88456
257.91391
260.6663
260.4232
262.72217
262.85272
270.3152
274.3059
273.90892
269.9742
297.45508
298.4264
310.77813
307.15598
343.19116
329.34969
344.50845
362.39157
256.23726
257.70957
257.56354
259.24066
259.04479
264.33127
266.77725
266.15788
263.71327
278.46412
283.90607
285.58016
276.87009
301.31945
312.85373
305.37098
296.59548
254.98507
256.42904
255.51152
255.45794
256.5445
258.79849
258.98141
260.41639
260.58868
267.4759
271.35686
268.58325
265.05597
276.77146
284.2177
279.29946
272.96039
253.59814
254.0768
253.43454
253.04382
253.70764
252.17695
254.24014
255.2316
253.09765
259.78678
257.84017
259.59975
261.81453
263.66712
267.17302
263.93153
261.0955
255.38096
250.91319
250.50104
250.94925
250.63118
250.2111
249.19749
249.80588
248.63253
248.12111
252.9351
251.68571
251.48286
252.73035
254.93707
253.39057
253.16235
247.1293
246.01416
246.35378
245.41714
244.96159
245.23794
246.47234
246.77406
245.68292
245.05142
241.64796
242.97171
244.18894
245.38547
242.65334
243.48133
242.39718
244.48691
241.97123
246.26983
239.61003
244.31495
239.71757
244.94461
239.9096
240.00134
247.0529
243.98529
246.19149
245.42828
243.34985
246.30268
246.74024
247.72343
241.77424
242.70654
245.85152
242.67276
241.96088
241.47475
244.864
241.95375
244.31144
245.16077
247.37909
249.28113
249.04759
244.81153
245.15566
247.21155
247.41715
243.43141
243.7311
252.27616
253.17452
258.22807
252.74511
257.96351
276.87014
287.94175
280.32067
271.35526
267.60797
272.71398
281.72192
261.16342
267.34417
263.73627
264.92746
268.65934
271.75717
270.33858
278.14006
279.80858
305.36409
293.65049
267.68862
258.92561
261.66317
260.24077
262.52964
263.92315
263.99433
265.3115
269.17199
288.03018
298.47601
255.11908
257.5893
256.08045
256.30411
257.77278
257.56002
258.00348
260.23468
259.7007
276.08
270.52808
265.85315
270.31196
275.06559
284.86634
293.60837
283.50287
270.81548
266.65806
262.98968
260.16384
252.35197
251.26039
252.46478
251.62666
251.75467
251.84637
252.76238
250.87857
252.03799
259.26378
256.95455
261.5435
265.52302
255.69766
245.99739
246.72295
247.60223
247.93477
248.20276
247.46712
246.78537
247.49241
246.89784
244.79668
245.04137
246.97543
247.67456
245.49363
245.88881
245.50598
243.04224
243.66767
246.13276
252.10409
250.56469
242.78771
248.08662
241.70185
243.51044
249.23611
242.36001
249.84797
247.36462
248.31635
251.20659
253.09038
249.84948
246.01675
254.15895
249.6619
244.4322
247.21898
250.59899
246.87392
251.81232
249.74125
252.47785
254.72742
263.32089
261.84596
258.00805
258.23425
266.25759
268.09065
269.071
266.03251
287.08509
284.93153
287.81697
296.75203
297.1584
296.5679
263.36982
256.85356
253.87108
254.18703
252.69659
252.19126
249.37812
249.03966
249.92727
248.77331
249.18789
247.12969
247.41021
247.00303
246.73993
250.45175
251.62665
250.91697
249.78347
254.17145
252.56018
253.71582
252.02129
260.97485
253.234
252.43933
253.09054
253.37932
253.06013
251.72691
249.90943
249.98932
248.77314
249.08302
249.19523
248.93695
246.35894
246.6288
246.94012
246.70135
248.03383
248.00456
248.72429
248.64692
248.79682
248.78299
249.82767
298.13207
279.47777
301.98557
291.56463
292.96087
303.32534
265.9075
274.89442
274.27998
282.72692
283.13297
297.16883
306.65454
305.48761
296.14141
260.27481
265.4476
265.23341
269.28178
269.67798
285.44054
278.18482
278.71231
286.18343
326.93538
335.42032
349.12418
342.42756
257.98735
260.50086
260.74748
262.76541
262.90443
269.7971
273.88155
274.10818
270.10746
298.69747
298.8429
310.62823
313.08037
352.19941
374.22093
361.09263
340.95998
256.19348
257.45331
257.58132
258.8709
259.0285
265.42903
265.09482
267.54329
267.82147
279.44087
286.60348
286.67737
279.93374
304.44921
305.90474
322.43125
315.80509
255.08066
255.617
255.56612
256.64727
256.57825
260.37976
260.9693
261.95362
262.52717
269.39404
273.09974
271.27159
267.58528
280.74874
285.37344
288.50163
278.07703
254.29124
254.91913
254.27384
254.10741
254.83445
257.73789
256.80579
256.53958
257.56603
260.88649
262.30946
262.67333
264.62169
267.38749
271.1879
267.88122
264.41236
253.27698
252.65048
253.1198
252.83846
252.44049
253.51383
252.9854
250.88564
251.49279
255.10216
256.79882
258.22381
256.43524
259.42199
257.38893
259.10732
261.33393
250.77328
250.02024
249.79333
250.11915
250.34773
248.35973
248.74573
247.75714
247.45296
250.0636
250.85289
250.46064
249.51763
251.90871
250.71528
250.61489
251.8123
247.08893
244.71981
245.87312
246.25329
246.45379
245.40099
245.0923
245.12915
246.08608
243.80196
243.9906
241.48634
242.98248
241.35981
242.64511
241.994
244.58214
244.79257
242.21266
245.28684
239.3638
242.44326
239.2809
244.60308
245.79834
243.67979
239.44935
239.55579
243.19255
245.00533
242.83256
245.43068
241.12641
241.01527
243.4782
241.00568
244.03573
241.43149
241.2642
241.35087
246.13282
243.42956
245.58517
244.88627
242.80874
245.75757
245.87289
242.41661
242.31705
241.50858
244.70178
244.65322
241.47736
249.69471
251.80022
250.00874
257.3648
257.05166
279.38129
287.59121
267.51783
272.94794
272.1813
281.18718
281.98218
278.74637
270.75784
267.30407
263.96596
261.49485
264.70432
268.34029
271.36191
279.66077
258.21269
260.42917
259.61668
261.73858
262.66528
267.29269
263.4377
264.78534
268.8181
292.7349
293.83878
307.50563
305.65684
309.80864
297.31791
279.93413
258.84931
257.37235
256.9885
258.48168
260.00832
260.33766
259.2825
261.51358
262.726
272.96803
269.09106
275.63002
289.07268
301.36374
253.94598
254.34284
254.09022
255.10864
255.33734
256.25336
254.86679
254.37917
255.86743
259.6444
263.134
266.51371
262.52602
276.04728
269.9652
263.883
268.68305
263.32465
260.33139
257.8469
255.89935
250.33675
249.59952
251.18678
250.60569
251.15622
250.6971
251.35257
249.17531
249.95793
253.73411
255.17699
258.82984
256.38071
242.1519
244.10516
245.94009
243.74576
246.55998
245.89497
247.33623
247.48712
246.92467
246.79074
245.37525
246.0058
246.37605
246.38336
244.26449
244.7487
242.59805
245.01513
244.64023
241.72468
246.20064
240.77907
248.58932
249.57184
242.24762
247.05544
241.24096
247.75228
245.65579
246.43143
248.8211
251.19887
249.67991
242.74315
244.35469
246.99965
243.69857
243.44497
245.44283
248.37606
244.91153
249.48707
247.22786
248.23237
250.90446
251.88894
256.01496
258.16516
252.06414
252.71698
250.68705
247.7054
247.65891
271.60944
265.44197
269.9076
278.52083
274.00597
279.5041
298.00304
289.05797
303.09175
317.936
262.68627
255.09874
255.74142
253.71068
254.41336
253.00895
252.56089
246.6843
246.41206
249.02803
249.88166
248.78734
248.78687
248.52048
246.11726
246.43097
248.88838
249.50167
248.64441
248.19738
250.01733
251.26698
250.68286
249.53119
261.08056
253.00387
252.36243
252.42691
253.35435
253.73398
253.45422
252.12207
250.06655
248.75205
248.65926
248.9853
248.86951
246.24977
246.44306
246.16281
246.03686
246.92847
247.257
247.65864
247.44517
247.53587
247.39041
248.06006
248.11333
298.86279
279.43091
292.32111
291.72027
302.42798
302.92133
266.03745
274.22732
282.59514
283.9285
275.45548
306.95771
297.19963
297.07981
306.94235
260.59108
265.22806
265.55054
269.64905
269.25536
278.6847
278.52707
285.5813
286.3736
339.18505
352.14331
345.57171
332.95467
257.79838
260.33171
260.44279
262.6881
262.5145
270.12681
269.80803
273.90265
274.2524
310.48577
299.36801
300.17139
313.53815
348.63593
358.45618
381.09664
374.13216
256.34195
257.72773
257.57503
258.96357
259.12632
265.18316
264.86981
267.66455
267.28904
278.77877
286.56892
287.22227
280.10067
306.00092
305.3423
320.79448
326.78465
255.06936
255.55738
256.56375
256.48014
255.49545
261.94353
262.19268
263.41877
263.68504
270.92751
271.67538
274.88607
274.2791
283.90796
291.73256
292.38306
285.38072
254.38599
255.02927
254.39311
254.20311
254.94322
258.77969
258.22627
259.20595
259.76872
263.53941
265.23083
265.19796
267.00756
271.74776
275.24864
272.40617
268.83751
253.91659
253.31874
253.45913
253.93417
253.79901
256.13343
255.63209
255.22751
255.81704
260.66787
259.25084
258.48924
259.68685
260.66447
262.79661
262.2176
264.78031
253.16763
252.22041
252.53959
252.39057
252.11814
252.13663
252.53263
250.46166
250.14713
255.79486
254.93382
253.08347
254.04868
254.73463
256.73087
258.00817
256.05505
250.78801
249.78789
250.00863
249.8121
249.60056
247.87896
246.98446
247.21306
248.09849
248.98776
249.53707
248.78927
248.25055
249.31207
249.99868
249.67812
248.76581
247.183
246.01074
245.90851
246.22726
246.33811
245.32264
245.07574
244.64394
244.97362
241.19983
242.44644
243.61779
244.38439
244.47154
241.90858
242.74598
241.84553
241.29932
243.71473
244.04236
244.36619
239.30265
242.10199
239.21609
239.29809
241.83756
239.17538
242.48122
244.75011
245.06217
242.81146
244.61179
240.69765
240.38152
242.00334
240.3803
244.05689
245.03195
242.84986
240.72426
240.86634
240.6722
242.36407
244.47834
242.33994
240.57892
243.61514
243.49179
240.47503
240.92923
243.98511
243.90863
240.85734
247.68693
250.47736
247.86559
246.18861
249.14254
246.1304
256.8173
256.37956
282.80817
287.84865
280.86086
271.52608
266.94006
272.49109
281.73082
261.23302
267.68622
264.15707
264.97426
268.52136
273.1652
272.45794
281.6613
282.40796
307.15275
294.9256
267.81553
263.87598
262.14756
260.28136
258.76514
260.43775
262.58858
264.08407
268.13443
294.59255
307.67628
258.27123
256.84176
256.29426
257.3224
258.87712
259.93673
258.90754
261.08512
262.2752
279.15427
271.75321
270.20864
277.68046
295.37492
297.89437
312.89915
309.86199
280.87189
257.48373
256.10175
256.53267
255.55464
255.81883
256.39669
257.42389
256.85417
258.4578
262.33194
265.4208
268.74915
265.33613
272.98608
267.03552
274.23037
253.54815
252.90218
253.25083
253.04433
253.75098
252.16313
252.61868
253.65097
253.18156
260.55485
258.328
255.57321
257.47706
257.93213
262.54436
265.90357
260.66021
257.97772
255.94418
254.3019
252.93364
248.97568
248.49105
250.38702
250.85744
249.97489
250.0097
250.46524
248.01668
248.55223
251.54813
252.60587
253.25574
254.66811
240.10986
241.87565
244.22174
240.97258
243.9709
244.62223
243.42116
246.9561
245.52171
247.27429
245.54028
246.49226
246.8042
245.99733
245.46228
245.04045
246.35738
246.06358
245.2576
244.32801
241.61338
243.51359
243.13966
244.06537
247.81584
241.3551
245.35605
240.45845
244.87909
246.98083
246.2133
241.78721
242.80227
245.25569
242.04651
247.8759
248.77811
242.25748
243.49139
246.06279
242.7674
247.34008
245.50115
246.3038
248.44451
245.12437
246.14814
243.55737
242.98426
248.71392
247.1375
245.06457
244.67691
261.41268
258.34891
264.24494
256.8127
253.05187
253.80599
268.50913
266.68815
276.4826
280.06036
290.7617
311.09492
263.03792
254.08922
253.93182
255.6554
253.86878
254.74666
253.37526
252.96094
247.972
246.21603
247.40551
248.86634
249.96202
248.62055
248.41996
248.71712
246.05617
245.93519
245.80399
247.23565
247.71504
248.5906
249.03677
248.09812
247.85296
261.79422
252.90996
252.15588
252.40125
252.66167
253.7111
254.13223
253.86981
252.53665
250.25091
248.83179
248.72195
248.71751
248.89389
245.89212
246.0963
245.97944
246.18643
246.72398
247.02039
246.61169
246.32268
246.45839
246.78866
247.18653
246.88554
299.59716
279.71836
292.44059
303.16791
303.20865
292.28534
265.7566
274.55093
283.08123
282.89228
274.55001
299.7261
296.23103
307.06748
309.95935
260.58605
265.3329
265.78755
270.09035
269.26048
278.2187
286.34543
286.95121
279.13349
349.23489
334.71554
331.68416
351.12892
258.2324
262.68084
260.69509
262.83881
260.62948
270.42809
270.11985
274.13207
274.34169
301.21611
302.46037
315.41636
316.02154
374.30245
405.39123
382.96797
360.35365
256.18571
257.53381
257.38132
258.89371
258.76706
264.85689
265.21992
267.68527
267.28066
280.48855
280.04991
287.56221
288.45794
323.83609
306.68563
307.95816
327.62728
255.27836
255.74587
256.72655
256.67211
255.79568
261.60307
261.93524
263.45799
263.11724
271.19638
269.41259
274.72774
273.13194
281.5401
290.76901
291.49044
283.48082
254.39682
254.29449
254.19301
254.90843
254.97129
260.0754
261.04361
260.8986
260.12011
268.1803
267.54661
269.57733
268.91478
276.23856
278.24126
280.67047
278.92994
254.01203
253.39117
253.58805
254.05618
253.88625
258.07904
257.58152
257.00966
257.56497
262.91744
261.67753
262.58375
263.99331
265.46515
268.61821
266.73852
269.81322
253.76576
252.89177
252.96378
253.30678
253.20905
254.47585
254.86794
255.22354
254.81871
258.22815
257.5291
256.95625
257.69042
261.60204
260.53134
258.70106
259.71128
253.21577
252.16447
252.2602
252.0955
251.96649
251.65345
251.86801
249.92434
249.75043
253.96736
254.41332
252.3728
251.74983
255.85229
255.00036
252.77735
253.71404
250.92328
249.7348
249.53094
249.71105
249.87999
247.69562
247.78265
246.88964
246.85559
248.34517
247.47483
247.86238
248.68425
248.42616
248.89348
248.05051
247.54287
247.38723
246.03035
246.33185
246.1071
244.95942
244.7312
245.12918
245.35645
246.38009
243.62109
243.65706
244.37916
244.38704
241.85808
242.62523
241.8756
242.44155
241.16716
241.21073
239.32027
241.62605
239.15746
243.65176
244.43139
244.62516
239.17914
242.17871
239.33069
241.96135
241.68288
243.85781
243.49142
243.80706
240.64971
240.10131
241.72189
240.1277
240.68334
239.86994
241.45969
239.94945
241.78194
244.22172
244.45363
242.03822
243.03564
242.96364
239.89674
239.87283
240.17532
243.30988
243.19915
240.15462
244.61292
248.43972
244.55012
245.11947
248.45535
245.07903
256.7027
256.07236
287.65422
288.04027
266.89234
272.32482
271.61584
281.00107
281.71511
280.02239
271.09982
266.91894
260.52407
263.32755
264.30643
267.92397
272.38959
281.92334
258.56892
260.81741
260.31504
262.22677
262.84509
268.88917
264.87361
265.56858
269.70188
297.31544
296.82129
309.93271
309.37428
312.69407
298.70572
279.71712
272.05498
261.5279
259.40134
259.00722
257.67723
256.92714
257.4304
258.99953
259.50141
261.7168
271.20633
278.90334
299.09635
314.41562
257.12578
255.7147
255.94579
255.11252
254.92067
255.38933
256.38175
256.46698
258.07106
263.29112
264.31192
267.43086
266.26623
280.25123
271.8443
268.85169
277.15823
262.88789
260.61456
254.93391
254.01476
255.08595
254.41188
255.14249
255.06022
255.76616
254.47891
255.55806
258.15309
260.13459
260.60299
265.2442
268.635
263.42392
251.79496
251.17361
252.62607
252.87616
252.18893
252.21013
252.72214
250.65886
251.35351
252.91608
255.15288
256.66519
254.17936
260.00812
257.69943
254.24484
255.97971
254.33278
252.89235
251.84252
248.09424
250.90137
249.9096
249.62509
250.76593
249.95551
249.67868
247.78782
247.25535
247.62204
249.95029
250.74178
251.13432
252.19849
240.87179
241.11985
239.87838
243.63556
243.95037
240.74566
241.60159
243.83689
243.98161
246.4055
246.38485
247.24187
245.30493
246.28346
246.48906
245.65345
245.22495
244.89922
245.92188
246.14958
242.74456
243.11612
244.84671
245.04183
242.96078
243.49255
241.47836
241.34113
243.90544
243.79044
245.80237
245.63106
243.11649
239.70463
240.60073
243.46198
245.08658
247.17488
241.46129
242.14418
244.48969
241.38255
244.66386
246.5867
245.76735
243.2408
243.61556
241.98679
241.18604
244.53184
243.96463
242.66166
241.93119
245.94141
247.32783
247.70899
251.26788
249.42471
248.75273
259.25917
261.13472
255.59205
254.0107
268.55187
277.82922
262.95049
254.2526
252.9267
253.79892
255.88731
254.15043
255.13708
253.77595
253.38075
247.40009
246.9405
246.81147
245.96919
250.14387
248.86004
248.74354
248.43208
248.60708
245.77879
245.781
245.91167
246.55062
246.90932
246.5922
246.89529
247.36563
261.1463
253.58738
252.03381
252.22177
252.66311
252.99495
254.11238
254.5512
254.30088
252.96472
248.85192
250.52211
248.79492
248.95614
248.9311
246.13014
246.19166
245.88653
245.90471
246.09566
246.3421
246.19595
246.53136
246.24668
246.54519
246.2163
245.96511
299.72511
280.68067
303.7428
293.28944
293.84274
304.4214
265.65489
274.62471
274.49157
283.09092
283.23042
300.08715
311.00551
309.2457
298.3632
260.23309
265.08416
269.26729
269.3581
265.14301
278.98437
288.33628
285.93519
278.23672
343.25345
334.2619
354.06408
357.81311
258.14719
262.69341
260.60926
260.78685
263.02069
269.75086
270.57259
274.74466
273.69944
301.55591
319.63272
318.29391
302.6022
391.79037
366.94228
363.72416
394.24783
256.70338
257.88529
259.18846
259.18635
257.90805
268.11064
265.17173
267.63962
265.82333
282.98293
281.57587
289.65842
290.88012
309.56414
309.70377
330.49578
333.59172
255.14239
255.56668
256.46494
256.57451
255.64426
261.9828
261.55264
263.51445
263.08911
270.57462
270.91984
274.69468
274.37228
283.50564
283.26699
291.8867
292.89797
254.6211
254.49659
255.16334
255.229
254.59656
259.4063
260.41729
260.80399
259.90451
265.32309
266.95861
268.74147
267.0423
275.07993
272.09633
278.11639
275.59519
254.0403
253.37517
253.54913
253.99196
253.88015
258.71978
258.98623
259.53848
259.34109
266.22373
266.82985
267.51349
267.04509
276.7286
274.79367
277.04032
275.12473
253.86755
252.94741
253.10104
253.43636
253.27962
256.28979
256.76766
257.15353
256.62855
262.21988
261.68788
260.65556
261.15158
267.7248
264.52847
264.97226
268.05944
253.78133
252.72072
252.90765
252.95845
252.71562
254.08486
254.39136
254.6065
254.2602
256.34636
256.99012
257.20028
256.62643
259.80817
259.36704
257.52729
258.08933
253.38099
252.21732
252.1081
251.95211
252.10785
249.68551
251.57188
251.55794
249.66402
253.31763
253.6739
251.28498
250.93771
254.27086
254.57351
252.15363
251.57365
251.15445
249.81276
249.59208
249.71895
249.9052
247.72207
246.85433
246.86726
247.71187
248.01442
248.19083
247.24234
247.05508
247.93519
246.89937
247.21456
248.20771
247.68004
246.54956
245.29
245.47421
246.54272
245.11363
246.27081
246.2777
244.92033
243.72693
244.50836
243.70778
241.23042
242.6589
241.28432
242.53344
241.98156
241.95933
244.45275
243.60818
243.54991
244.33281
244.4115
239.22856
241.80618
239.38337
241.74494
239.32611
239.46093
241.50453
241.58337
240.78623
239.67752
241.18659
239.69409
243.16055
244.00108
244.14219
239.80863
240.75234
241.54882
239.74
241.3918
241.30387
243.31872
242.76577
242.87102
239.62308
239.66321
242.75165
242.57804
239.38247
239.49767
244.0289
249.33745
244.05597
244.27683
248.75292
244.23973
256.81561
257.56066
293.0493
289.32115
280.47712
270.78763
266.78212
272.25158
281.80341
260.35207
266.95343
263.31013
264.06458
267.71746
271.87195
271.48506
280.54781
280.8747
310.41205
267.70597
295.8593
257.8776