/*--------------------------------*- C++ -*----------------------------------*\
  =========                 |
  \\      /  F ield         | OpenFOAM: The Open Source CFD Toolbox
   \\    /   O peration     | Website:  https://openfoam.org
    \\  /    A nd           | Version:  7
     \\/     M anipulation  |
\*---------------------------------------------------------------------------*/
FoamFile
{
    version     2.0;
    format      ascii;
    class       volScalarField;
    location    "5000";
    object      p;
}
// * * * * * * * * * * * * * * * * * * * * * * * * * * * * * * * * * * * * * //

dimensions      [0 2 -2 0 0 0 0];

internalField   nonuniform List<scalar> 
34387
(
-8.0141406e+61
-7.6014191e+61
-7.7167869e+61
-7.591612e+61
-7.9967591e+61
-7.5811163e+61
-7.9068677e+61
-8.1336471e+61
-8.1389318e+61
-7.9157025e+61
-7.1883728e+61
-7.5051741e+61
-7.5026599e+61
-7.7143805e+61
-7.7150159e+61
-7.7137257e+61
-7.4991171e+61
-7.503915e+61
-7.7145033e+61
-7.7167951e+61
-7.7167954e+61
-7.5098045e+61
-7.5838047e+61
-7.5671771e+61
-7.1790166e+61
-7.4977827e+61
-7.4925574e+61
-7.7054832e+61
-7.7104394e+61
-7.9804612e+61
-7.5457115e+61
-8.1269065e+61
-7.8887861e+61
-7.8989563e+61
-8.1291083e+61
-7.1643044e+61
-7.4763735e+61
-7.7064047e+61
-7.6950635e+61
-7.4900986e+61
-7.914625e+61
-8.134986e+61
-8.1395212e+61
-7.9223357e+61
-6.789574e+61
-7.3017821e+61
-7.0940858e+61
-7.0991746e+61
-7.3024003e+61
-7.297562e+61
-7.089254e+61
-7.0997116e+61
-7.3017709e+61
-7.5091553e+61
-7.5054261e+61
-7.5091077e+61
-7.7145086e+61
-7.7162356e+61
-7.7177927e+61
-7.7142423e+61
-7.5057688e+61
-7.5080487e+61
-7.7159686e+61
-7.7168785e+61
-7.716804e+61
-7.5097986e+61
-7.7168717e+61
-7.5098088e+61
-7.3085646e+61
-7.5806555e+61
-7.5576516e+61
-7.1731604e+61
-7.4886533e+61
-7.4870016e+61
-7.6973675e+61
-7.7011736e+61
-7.5166626e+61
-7.1525631e+61
-6.7820144e+61
-7.0900339e+61
-7.0854557e+61
-7.2918283e+61
-7.2965837e+61
-7.5037638e+61
-7.4985625e+61
-7.7057904e+61
-7.7108355e+61
-7.9624909e+61
-7.4966485e+61
-7.8796725e+61
-7.8702821e+61
-8.1228607e+61
-8.1240207e+61
-7.1273962e+61
-7.4452322e+61
-7.6693318e+61
-7.6837337e+61
-7.4630576e+61
-8.1291614e+61
-7.8985478e+61
-7.9074165e+61
-8.1308301e+61
-6.7674347e+61
-7.0636788e+61
-7.287111e+61
-7.2725099e+61
-7.0790222e+61
-7.4846604e+61
-7.7077776e+61
-7.6973408e+61
-7.4972568e+61
-7.9154011e+61
-8.1357428e+61
-8.1398804e+61
-7.9227605e+61
-6.4040366e+61
-6.6934807e+61
-6.89445e+61
-6.9020957e+61
-6.7030506e+61
-6.706821e+61
-6.6995014e+61
-6.8996388e+61
-6.9032961e+61
-7.3031427e+61
-7.1007961e+61
-7.1038529e+61
-7.1031074e+61
-7.3046938e+61
-7.3066225e+61
-7.2988745e+61
-7.0961984e+61
-7.1046008e+61
-7.3042395e+61
-7.5091748e+61
-7.5094391e+61
-7.509276e+61
-7.5094654e+61
-7.7148204e+61
-7.716777e+61
-7.7165826e+61
-7.7169e+61
-7.71475e+61
-7.5063869e+61
-7.5083388e+61
-7.7163853e+61
-7.7168796e+61
-7.7167927e+61
-7.5097625e+61
-7.7168704e+61
-7.5098015e+61
-7.3085455e+61
-7.716965e+61
-7.5099006e+61
-7.3085572e+61
-7.1113081e+61
-7.5546897e+61
-7.6836807e+61
-7.1730074e+61
-7.4712626e+61
-7.4816793e+61
-7.6887334e+61
-7.4863062e+61
-7.4877992e+61
-7.6927692e+61
-7.6964713e+61
-7.5012254e+61
-7.1457739e+61
-7.2882215e+61
-7.08285e+61
-6.7777867e+61
-7.0823112e+61
-7.2885449e+61
-7.4942358e+61
-7.4928104e+61
-7.6971376e+61
-7.7009947e+61
-7.1073182e+61
-6.7591953e+61
-6.3991364e+61
-6.6926448e+61
-6.8914965e+61
-6.696484e+61
-6.8956758e+61
-7.096506e+61
-7.0917887e+61
-7.2930517e+61
-7.298072e+61
-7.5041733e+61
-7.4989081e+61
-7.7060624e+61
-7.7111373e+61
-7.9468754e+61
-7.4526837e+61
-8.1222776e+61
-8.1230415e+61
-7.8547388e+61
-7.8630405e+61
-7.081875e+61
-7.4263148e+61
-7.4061321e+61
-7.6384803e+61
-7.653645e+61
-7.8906274e+61
-7.8826881e+61
-8.126716e+61
-8.127415e+61
-6.7359706e+61
-7.0307047e+61
-7.2392876e+61
-7.2583941e+61
-7.0503314e+61
-7.456849e+61
-7.6744e+61
-7.687392e+61
-7.4726247e+61
-8.1301391e+61
-7.8995855e+61
-7.9080955e+61
-8.13157e+61
-6.670811e+61
-6.3858154e+61
-6.8847028e+61
-6.8693609e+61
-6.6846908e+61
-7.071344e+61
-7.2891884e+61
-7.2753798e+61
-7.0861065e+61
-7.4855918e+61
-7.7083453e+61
-7.69815e+61
-7.4979676e+61
-7.9154666e+61
-8.1357955e+61
-8.1399059e+61
-7.9228068e+61
-6.0295765e+61
-6.3099161e+61
-6.3158301e+61
-6.5107824e+61
-6.5143031e+61
-6.3202886e+61
-6.3197684e+61
-6.5118251e+61
-6.5049588e+61
-6.7000096e+61
-6.8959873e+61
-6.9046561e+61
-6.9097803e+61
-6.7074729e+61
-6.709776e+61
-6.7125371e+61
-6.70631e+61
-6.9013669e+61
-6.9067362e+61
-7.3037341e+61
-7.1014155e+61
-7.1080874e+61
-7.1043051e+61
-7.1081838e+61
-7.3064056e+61
-7.3050265e+61
-7.3065896e+61
-7.2996981e+61
-7.0970284e+61
-7.1050516e+61
-7.3045903e+61
-7.5097262e+61
-7.509232e+61
-7.5094478e+61
-7.5094153e+61
-7.5094873e+61
-7.7148457e+61
-7.716921e+61
-7.7167951e+61
-7.7165978e+61
-7.7169676e+61
-7.7147962e+61
-7.5064396e+61
-7.5083557e+61
-7.7164033e+61
-7.5097472e+61
-7.5092445e+61
-7.3083241e+61
-7.509878e+61
-7.3085364e+61
-7.1112877e+61
-7.5094406e+61
-7.3084765e+61
-7.1112918e+61
-6.9143372e+61
-7.5034234e+61
-7.6572226e+61
-7.4435282e+61
-7.1458627e+61
-7.4599367e+61
-7.672394e+61
-7.6818573e+61
-7.071717e+61
-6.7776146e+61
-7.0837921e+61
-7.2832836e+61
-7.274294e+61
-7.289346e+61
-7.0877953e+61
-7.0829312e+61
-7.2885295e+61
-7.475833e+61
-7.484328e+61
-7.4867045e+61
-7.688455e+61
-7.6943956e+61
-7.4926996e+61
-7.4927457e+61
-7.6938198e+61
-7.6963046e+61
-7.0980508e+61
-6.754638e+61
-7.2895551e+61
-7.0894456e+61
-6.8899075e+61
-6.3957233e+61
-6.6907348e+61
-6.691336e+61
-6.8890415e+61
-7.0885904e+61
-7.2896064e+61
-7.494476e+61
-7.4929516e+61
-7.6972749e+61
-7.7011772e+61
-7.0480859e+61
-6.7262654e+61
-6.3809362e+61
-6.314694e+61
-6.0263377e+61
-6.3151554e+61
-6.5086071e+61
-6.5063491e+61
-6.6991458e+61
-6.8931691e+61
-6.7030318e+61
-6.8974885e+61
-7.0970006e+61
-7.0922068e+61
-7.2934677e+61
-7.2985668e+61
-7.5042043e+61
-7.498934e+61
-7.706086e+61
-7.7111648e+61
-7.932537e+61
-7.4159611e+61
-7.8379528e+61
-7.8465849e+61
-8.120647e+61
-8.1197895e+61
-7.0401005e+61
-7.3701338e+61
-7.6104025e+61
-7.6245463e+61
-7.3884526e+61
-8.1279108e+61
-8.1296112e+61
-7.8707677e+61
-7.8771457e+61
-6.699219e+61
-6.9907748e+61
-7.1988007e+61
-7.2204933e+61
-7.0125601e+61
-7.4404999e+61
-7.4222407e+61
-7.6473379e+61
-7.6609929e+61
-7.8914854e+61
-7.8837942e+61
-8.1278358e+61
-8.1283692e+61
-6.3601698e+61
-6.6386874e+61
-6.8369687e+61
-6.8558054e+61
-6.6565084e+61
-7.0400572e+61
-7.2448279e+61
-7.2627186e+61
-7.0589187e+61
-7.4579779e+61
-7.6753816e+61
-7.688189e+61
-7.4735119e+61
-8.1302175e+61
-7.8996883e+61
-7.9081634e+61
-8.131627e+61
-6.6776004e+61
-6.484673e+61
-6.0151125e+61
-6.495946e+61
-6.2920283e+61
-6.3008359e+61
-6.8867659e+61
-6.871383e+61
-6.691243e+61
-7.0721718e+61
-7.2900201e+61
-7.2763232e+61
-7.086888e+61
-7.4856839e+61
-7.7084083e+61
-7.6982324e+61
-7.4980422e+61
-5.6640118e+61
-5.9447567e+61
-5.9368005e+61
-6.1263914e+61
-6.1315092e+61
-5.9419945e+61
-5.946313e+61
-6.1335195e+61
-6.1333043e+61
-6.3156533e+61
-6.322222e+61
-6.5125626e+61
-6.5173528e+61
-6.5205625e+61
-6.3248409e+61
-6.3246285e+61
-6.3236769e+61
-6.5141435e+61
-6.5060695e+61
-6.7006754e+61
-6.8967544e+61
-6.905332e+61
-6.9105975e+61
-6.9112886e+61
-6.7144406e+61
-6.7080905e+61
-6.7158231e+61
-6.7130678e+61
-6.7069336e+61
-6.9020103e+61
-6.9072474e+61
-7.3037712e+61
-7.1014605e+61
-7.1105727e+61
-7.108431e+61
-7.1043444e+61
-7.108505e+61
-7.3079664e+61
-7.3066094e+61
-7.3050487e+61
-7.3068406e+61
-7.2997659e+61
-7.0971048e+61
-7.1050984e+61
-7.3046263e+61
-7.3082932e+61
-7.3066358e+61
-7.110959e+61
-7.3084362e+61
-7.1112703e+61
-6.9143206e+61
-7.3068702e+61
-7.1110084e+61
-6.9143126e+61
-6.718033e+61
-7.4094024e+61
-7.1001156e+61
-7.4231603e+61
-7.3974137e+61
-7.613229e+61
-7.6384926e+61
-7.6574678e+61
-7.4496128e+61
-7.2451048e+61
-7.0420708e+61
-6.7550489e+61
-7.0607434e+61
-7.262619e+61
-7.4647044e+61
-7.671389e+61
-7.6824906e+61
-7.0777767e+61
-6.8799492e+61
-6.3945776e+61
-6.6803295e+61
-6.8867692e+61
-6.6874889e+61
-6.8897384e+61
-6.6900848e+61
-6.6882626e+61
-6.8888565e+61
-7.0877907e+61
-7.0894165e+61
-7.2845774e+61
-7.2917364e+61
-7.274248e+61
-7.2931212e+61
-7.0936663e+61
-7.0901292e+61
-7.2902738e+61
-7.4765649e+61
-7.4898444e+61
-7.4848133e+61
-7.4926132e+61
-7.6929658e+61
-7.6886685e+61
-7.6943772e+61
-7.4929294e+61
-7.4929831e+61
-7.6938629e+61
-7.6964463e+61
-7.0351376e+61
-6.7207889e+61
-6.3781271e+61
-7.2898174e+61
-7.0897683e+61
-6.8918516e+61
-6.024606e+61
-6.5020427e+61
-6.3073958e+61
-6.5044907e+61
-6.3115428e+61
-6.6972126e+61
-6.697826e+61
-6.8905159e+61
-7.0889054e+61
-7.2898906e+61
-7.4944889e+61
-7.4929579e+61
-7.6972778e+61
-7.7011873e+61
-7.0012207e+61
-6.6894982e+61
-6.3563222e+61
-6.0121931e+61
-6.32168e+61
-6.1317258e+61
-5.66195e+61
-5.9416968e+61
-5.9423643e+61
-6.1318449e+61
-6.3216453e+61
-6.510658e+61
-6.5085525e+61
-6.699556e+61
-6.8935912e+61
-6.7035323e+61
-6.8980045e+61
-7.0970338e+61
-7.0922329e+61
-7.2934939e+61
-7.2985994e+61
-7.9160971e+61
-7.3852453e+61
-7.8206663e+61
-8.1139282e+61
-8.1173725e+61
-7.8297081e+61
-7.0018193e+61
-7.3547125e+61
-7.3367371e+61
-7.5832935e+61
-7.5971359e+61
-7.856158e+61
-7.8640229e+61
-8.1289808e+61
-8.1284568e+61
-6.6628805e+61
-6.9523039e+61
-7.1805536e+61
-7.1601939e+61
-6.9732364e+61
-7.3899143e+61
-7.6232695e+61
-7.6356166e+61
-7.4063399e+61
-8.129097e+61
-8.1308996e+61
-7.8719909e+61
-7.878159e+61
-6.3308317e+61
-6.6034975e+61
-6.7993994e+61
-6.8199092e+61
-6.6224254e+61
-7.0017331e+61
-7.2069109e+61
-7.2275047e+61
-7.0228428e+61
-7.4415842e+61
-7.4235894e+61
-7.6484232e+61
-7.661901e+61
-7.8915838e+61
-7.883921e+61
-8.1279372e+61
-8.1284571e+61
-5.9947178e+61
-6.2637195e+61
-6.2786395e+61
-6.4704905e+61
-6.4541269e+61
-6.6449034e+61
-6.8394752e+61
-6.8581224e+61
-6.6627359e+61
-7.0408793e+61
-7.2459179e+61
-7.263569e+61
-7.0595856e+61
-7.458079e+61
-7.6754825e+61
-7.6882717e+61
-7.4736002e+61
-6.678223e+61
-6.4861062e+61
-5.6529685e+61
-6.1105162e+61
-5.9222919e+61
-5.9309934e+61
-6.1183488e+61
-6.4968635e+61
-6.2979349e+61
-6.3059572e+61
-6.8874846e+61
-6.8721461e+61
-6.6919211e+61
-7.0722502e+61
-7.2900983e+61
-7.276411e+61
-7.0869651e+61
-5.3064194e+61
-5.5742761e+61
-5.5791376e+61
-5.7606518e+61
-5.7588224e+61
-5.763417e+61
-5.7650559e+61
-5.5781945e+61
-5.5790828e+61
-5.9508452e+61
-5.941241e+61
-6.126413e+61
-6.1323665e+61
-6.1374352e+61
-5.9442866e+61
-5.9450604e+61
-5.9503451e+61
-6.1359343e+61
-6.1346396e+61
-6.3162289e+61
-6.3226456e+61
-6.5131169e+61
-6.5219886e+61
-6.5179827e+61
-6.5210414e+61
-6.3294033e+61
-6.325304e+61
-6.3287388e+61
-6.324007e+61
-6.5146137e+61
-6.50674e+61
-6.7007414e+61
-6.8968283e+61
-6.9053919e+61
-6.9109397e+61
-6.9135876e+61
-6.9117122e+61
-6.7148166e+61
-6.717534e+61
-6.7081469e+61
-6.7162792e+61
-6.7131076e+61
-6.7069848e+61
-6.9020619e+61
-6.9072908e+61
-7.1109328e+61
-7.1109803e+61
-7.1084625e+61
-7.1085343e+61
-6.9139875e+61
-6.9142955e+61
-6.718028e+61
-6.9138702e+61
-6.7180139e+61
-6.5235737e+61
-7.3523212e+61
-7.564581e+61
-7.3385272e+61
-7.0404462e+61
-7.3647494e+61
-7.5873802e+61
-6.7214067e+61
-7.1978669e+61
-6.9972623e+61
-7.0220192e+61
-7.2238447e+61
-7.4308026e+61
-7.4076454e+61
-7.6193501e+61
-7.6406572e+61
-7.6583986e+61
-7.2463443e+61
-7.4505009e+61
-7.0485171e+61
-6.8519015e+61
-6.6556074e+61
-6.378007e+61
-6.8686949e+61
-6.6697989e+61
-7.0668836e+61
-7.2633063e+61
-7.4653591e+61
-7.6720554e+61
-7.6825546e+61
-7.0784409e+61
-6.8808099e+61
-6.0240736e+61
-6.4921936e+61
-6.2978353e+61
-6.3043203e+61
-6.4956561e+61
-6.3053458e+61
-6.3067045e+61
-6.4980665e+61
-6.4997357e+61
-6.6859414e+61
-6.8882985e+61
-6.8934577e+61
-6.6906683e+61
-6.6907922e+61
-6.8924841e+61
-6.694138e+61
-6.6939912e+61
-6.8902644e+61
-7.0929174e+61
-7.0882069e+61
-7.0945636e+61
-7.290641e+61
-7.2851547e+61
-7.2932776e+61
-7.2750373e+61
-7.2935312e+61
-7.0940581e+61
-7.0906165e+61
-7.2906882e+61
-7.4766445e+61
-7.4930905e+61
-7.4903081e+61
-7.4848729e+61
-7.4931833e+61
-7.6933571e+61
-7.6959895e+61
-7.6887124e+61
-7.6948308e+61
-7.4929476e+61
-7.4930029e+61
-7.6938726e+61
-7.6964484e+61
-6.9865145e+61
-6.683352e+61
-6.3538844e+61
-6.010885e+61
-7.2898317e+61
-7.0897869e+61
-6.892136e+61
-5.6618875e+61
-5.9395444e+61
-6.1257686e+61
-6.1300072e+61
-5.9415776e+61
-6.5030272e+61
-6.3126839e+61
-6.5060941e+61
-6.3176641e+61
-6.6974566e+61
-6.6980744e+61
-6.8908486e+61
-7.0889224e+61
-7.289905e+61
-6.9619175e+61
-6.6524643e+61
-6.3281092e+61
-5.9928521e+61
-5.6508827e+61
-6.1334328e+61
-6.3219511e+61
-5.3052626e+61
-5.577339e+61
-5.5769104e+61
-5.7626509e+61
-5.7624098e+61
-5.9474224e+61
-5.9477597e+61
-6.1332731e+61
-6.3220499e+61
-6.5111251e+61
-6.5089006e+61
-6.6995829e+61
-6.8936178e+61
-6.7035664e+61
-6.8980395e+61
-7.9004507e+61
-7.3584898e+61
-7.8014698e+61
-7.8115e+61
-8.1074588e+61
-8.0998276e+61
-6.9685079e+61
-7.3059801e+61
-7.3226503e+61
-7.5709016e+61
-7.5576423e+61
-7.8394343e+61
-8.1237795e+61
-8.126807e+61
-7.8479703e+61
-6.6281534e+61
-6.9152633e+61
-7.124198e+61
-7.1430244e+61
-6.9340385e+61
-7.3755028e+61
-7.3580955e+61
-7.5979235e+61
-7.6115296e+61
-7.8574373e+61
-7.8651943e+61
-8.1302592e+61
-8.1298357e+61
-6.3001286e+61
-6.5695821e+61
-6.762671e+61
-6.7826767e+61
-6.5880992e+61
-6.9642999e+61
-7.1895702e+61
-7.1702698e+61
-6.9846175e+61
-7.3916805e+61
-7.6245893e+61
-7.6367246e+61
-7.4077265e+61
-8.1292067e+61
-8.1310137e+61
-7.8721454e+61
-7.8782832e+61
-5.9710092e+61
-6.2512515e+61
-6.2368049e+61
-6.4396627e+61
-6.4226849e+61
-6.6099111e+61
-6.8024726e+61
-6.8224617e+61
-6.6285014e+61
-7.0026217e+61
-7.2082356e+61
-7.2285479e+61
-7.0235332e+61
-7.4416801e+61
-7.423704e+61
-7.6485438e+61
-7.6620022e+61
-5.6364386e+61
-5.9116085e+61
-5.9025968e+61
-6.0863205e+61
-6.098418e+61
-6.2684808e+61
-6.283249e+61
-6.4709142e+61
-6.4544926e+61
-6.6453819e+61
-6.8400976e+61
-6.8587493e+61
-6.6632735e+61
-7.0409438e+61
-7.2460024e+61
-7.2636454e+61
-7.0596487e+61
-6.678287e+61
-6.4866684e+61
-5.2972893e+61
-5.5625893e+61
-5.7456784e+61
-5.7543716e+61
-5.5706423e+61
-6.1108678e+61
-5.92721e+61
-5.9355768e+61
-6.1182658e+61
-6.4975403e+61
-6.2984109e+61
-6.3065138e+61
-6.8875571e+61
-6.872218e+61
-6.6919887e+61
-4.9555978e+61
-5.2182653e+61
-5.2255138e+61
-5.2221745e+61
-5.399679e+61
-5.4018209e+61
-5.2221822e+61
-5.4033695e+61
-5.4026852e+61
-5.5786417e+61
-5.5818884e+61
-5.5791486e+61
-5.7612676e+61
-5.7644905e+61
-5.7583559e+61
-5.7648383e+61
-5.7656198e+61
-5.5831226e+61
-5.582233e+61
-5.9510603e+61
-5.9415835e+61
-6.1268972e+61
-6.1364399e+61
-6.1327093e+61
-6.1376558e+61
-5.9471788e+61
-5.944548e+61
-5.9487815e+61
-5.9505002e+61
-6.1361869e+61
-6.1349576e+61
-6.3162893e+61
-6.3226759e+61
-6.5131591e+61
-6.5235073e+61
-6.5222549e+61
-6.5180278e+61
-6.521228e+61
-6.3304702e+61
-6.3296085e+61
-6.3253399e+61
-6.3288752e+61
-6.3240448e+61
-6.5146625e+61
-6.5068051e+61
-6.9109655e+61
-6.913859e+61
-6.9139671e+61
-6.9117416e+61
-6.7148444e+61
-6.7176211e+61
-6.7178189e+61
-6.716307e+61
-6.7178297e+61
-6.7180076e+61
-6.5235823e+61
-6.7176185e+61
-6.5235721e+61
-6.3302961e+61
-7.3139506e+61
-6.993412e+61
-7.3145464e+61
-7.2937054e+61
-7.5283991e+61
-7.5447545e+61
-7.5787287e+61
-7.3572815e+61
-7.1433682e+61
-6.683145e+61
-6.9481491e+61
-6.9732894e+61
-7.169621e+61
-7.3810621e+61
-7.5975862e+61
-6.3539185e+61
-6.6407538e+61
-6.6238412e+61
-6.8131713e+61
-6.8340768e+61
-7.2014164e+61
-7.0040472e+61
-7.0282926e+61
-7.2261228e+61
-7.4317789e+61
-7.4088524e+61
-7.6207006e+61
-7.6417533e+61
-7.6585003e+61
-7.2472612e+61
-7.4506007e+61
-7.0493768e+61
-6.8527658e+61
-6.6609055e+61
-6.4718089e+61
-6.2816651e+61
-6.0111413e+61
-6.2911723e+61
-6.483216e+61
-6.869568e+61
-6.6748552e+61
-7.0675821e+61
-7.2640062e+61
-7.4654429e+61
-7.6721266e+61
-7.0785126e+61
-6.8814109e+61
-5.6635749e+61
-5.9366715e+61
-5.930469e+61
-6.116923e+61
-6.1204024e+61
-5.9385917e+61
-5.9389641e+61
-6.1229221e+61
-6.124421e+61
-6.4914968e+61
-6.301556e+61
-6.3063867e+61
-6.3066027e+61
-6.4961737e+61
-6.5005035e+61
-6.3100143e+61
-6.3097233e+61
-6.4994321e+61
-6.4997289e+61
-6.6864151e+61
-6.8927008e+61
-6.8887033e+61
-6.8936179e+61
-6.6939942e+61
-6.6909967e+61
-6.6947455e+61
-6.8928617e+61
-6.694411e+61
-6.6942165e+61
-6.8906914e+61
-7.0942707e+61
-7.0928544e+61
-7.0882459e+61
-7.0945714e+61
-7.2907309e+61
-7.2928117e+61
-7.285212e+61
-7.2935127e+61
-7.2751214e+61
-7.2935551e+61
-7.094079e+61
-7.0906491e+61
-7.2907195e+61
-7.4934084e+61
-7.4929845e+61
-7.4903376e+61
-7.4932032e+61
-7.6933915e+61
-7.6964897e+61
-7.6965645e+61
-7.694869e+61
-6.9469475e+61
-6.6463575e+61
-6.3264188e+61
-5.992208e+61
-5.6506434e+61
-6.89215e+61
-5.3060948e+61
-5.7625506e+61
-5.7626032e+61
-5.5789474e+61
-5.5768932e+61
-5.9446935e+61
-6.1262473e+61
-6.131397e+61
-5.9473769e+61
-6.503313e+61
-6.3129183e+61
-6.5063819e+61
-6.3179289e+61
-6.6974655e+61
-6.6980881e+61
-6.8908672e+61
-6.9287928e+61
-6.6178953e+61
-6.2977451e+61
-5.9698076e+61
-5.6351617e+61
-5.2958758e+61
-6.1338071e+61
-6.3219677e+61
-4.954484e+61
-5.223256e+61
-5.2222013e+61
-5.4027744e+61
-5.4028463e+61
-5.582242e+61
-5.5815461e+61
-5.7631724e+61
-5.7631357e+61
-5.947793e+61
-5.9481401e+61
-6.1336707e+61
-6.3220739e+61
-6.5111548e+61
-6.5089225e+61
-7.8866808e+61
-7.3366776e+61
-7.7826331e+61
-8.0859781e+61
-8.0936007e+61
-7.7917262e+61
-6.9396805e+61
-7.5337018e+61
-7.2780301e+61
-7.2921552e+61
-7.5456841e+61
-7.8198451e+61
-7.8297034e+61
-8.1167362e+61
-8.1082484e+61
-6.5964447e+61
-6.8827217e+61
-7.0917481e+61
-7.1088214e+61
-6.8992075e+61
-7.3276381e+61
-7.3440974e+61
-7.5857924e+61
-7.5723833e+61
-7.8403689e+61
-8.1248613e+61
-8.1280894e+61
-7.8489617e+61
-6.2703074e+61
-6.5366106e+61
-6.5531791e+61
-6.7449214e+61
-6.7270886e+61
-6.9271942e+61
-7.1347817e+61
-7.1530084e+61
-6.9454167e+61
-7.377473e+61
-7.3601131e+61
-7.5994527e+61
-7.6130577e+61
-7.8576097e+61
-7.8653541e+61
-8.1303909e+61
-8.1299716e+61
-5.9449782e+61
-6.2231372e+61
-6.2065499e+61
-6.4085186e+61
-6.3911887e+61
-6.5763046e+61
-6.7662918e+61
-6.7858394e+61
-6.594549e+61
-6.9653331e+61
-7.1908971e+61
-7.1719741e+61
-6.9854056e+61
-7.3918242e+61
-7.624744e+61
-7.6368533e+61
-7.4078457e+61
-5.6163387e+61
-6.0624693e+61
-5.8797612e+61
-5.8912201e+61
-6.0749376e+61
-6.2559909e+61
-6.2419335e+61
-6.4397737e+61
-6.423023e+61
-6.6103271e+61
-6.8030604e+61
-6.8229873e+61
-6.6288697e+61
-7.0026789e+61
-7.20833e+61
-7.228626e+61
-7.0235838e+61
-5.2836833e+61
-5.7275287e+61
-5.5445799e+61
-5.5543895e+61
-5.7360785e+61
-5.9156788e+61
-5.9072274e+61
-6.0861943e+61
-6.0978711e+61
-6.2688382e+61
-6.2836533e+61
-6.4713783e+61
-6.4548868e+61
-6.6454227e+61
-6.840147e+61
-6.8588056e+61
-6.6633253e+61
-6.4867255e+61
-4.9478896e+61
-5.2090086e+61
-5.3890636e+61
-5.3955653e+61
-5.2139457e+61
-5.5672177e+61
-5.745811e+61
-5.7546791e+61
-5.5753402e+61
-6.1113622e+61
-5.9276907e+61
-5.9359106e+61
-6.1186926e+61
-6.4976034e+61
-6.2984596e+61
-6.3065694e+61
-4.6107261e+61
-4.8707607e+61
-5.0500475e+61
-5.0505629e+61
-4.8732966e+61
-4.87374e+61
-4.8704659e+61
-5.0475814e+61
-5.0480842e+61
-5.2223361e+61
-5.2288914e+61
-5.225591e+61
-5.2266081e+61
-5.3991618e+61
-5.4023773e+61
-5.4054338e+61
-5.2244671e+61
-5.4033242e+61
-5.4041625e+61
-5.5789602e+61
-5.5817533e+61
-5.582046e+61
-5.5822585e+61
-5.7614361e+61
-5.7628136e+61
-5.7639276e+61
-5.7587021e+61
-5.7650989e+61
-5.76596e+61
-5.5834895e+61
-5.5825282e+61
-5.9510746e+61
-5.9416175e+61
-6.1269464e+61
-6.137888e+61
-6.1365663e+61
-6.1327426e+61
-6.1378382e+61
-5.9473631e+61
-5.9485696e+61
-5.9445736e+61
-5.949026e+61
-5.9505068e+61
-6.1362055e+61
-6.1349786e+61
-6.523424e+61
-6.5235924e+61
-6.5222738e+61
-6.5212464e+61
-6.3304761e+61
-6.3303759e+61
-6.3296261e+61
-6.3288913e+61
-6.5235957e+61
-6.5235807e+61
-6.3303119e+61
-6.5234196e+61
-6.3303079e+61
-6.1378941e+61
-7.2870058e+61
-7.5060353e+61
-7.2611201e+61
-6.9554162e+61
-7.2766172e+61
-7.5159563e+61
-6.6455448e+61
-7.098874e+61
-6.9064103e+61
-6.9277313e+61
-7.1202889e+61
-7.3354829e+61
-7.3166599e+61
-7.5461662e+61
-7.561318e+61
-7.5804786e+61
-7.3590027e+61
-7.150047e+61
-6.3261773e+61
-6.6057307e+61
-6.586314e+61
-6.770335e+61
-6.7928912e+61
-6.9558353e+61
-6.9806679e+61
-7.1753687e+61
-7.3824147e+61
-7.5989421e+61
-5.9929557e+61
-6.444473e+61
-6.2572418e+61
-6.2710916e+61
-6.4592346e+61
-6.6455465e+61
-6.6287989e+61
-6.8138084e+61
-6.8345425e+61
-7.2024981e+61
-7.0047588e+61
-7.0290165e+61
-7.2270166e+61
-7.4318969e+61
-7.4089703e+61
-7.6208579e+61
-7.6418816e+61
-7.2473566e+61
-7.0494666e+61
-6.8535093e+61
-6.6614964e+61
-6.4713681e+61
-6.285753e+61
-6.1031992e+61
-5.9182175e+61
-5.6518922e+61
-5.9252409e+61
-6.1109942e+61
-6.2949174e+61
-6.4826784e+61
-6.870315e+61
-6.6755088e+61
-7.0676614e+61
-7.2640872e+61
-6.8814742e+61
-5.5826376e+61
-5.5825131e+61
-5.5757149e+61
-5.3084469e+61
-5.7564739e+61
-5.7603719e+61
-5.7615159e+61
-5.7630071e+61
-5.5799808e+61
-5.9389619e+61
-5.9390184e+61
-5.9342263e+61
-6.1155514e+61
-6.1205798e+61
-6.1249792e+61
-5.9435664e+61
-5.9422821e+61
-6.1241328e+61
-6.1241113e+61
-6.49201e+61
-6.3020082e+61
-6.3093503e+61
-6.3066763e+61
-6.3101621e+61
-6.4993836e+61
-6.4964769e+61
-6.5001993e+61
-6.3101741e+61
-6.3099589e+61
-6.4996838e+61
-6.4999048e+61
-6.6864663e+61
-6.8927673e+61
-6.8940568e+61
-6.888741e+61
-6.8937229e+61
-6.6956451e+61
-6.6942508e+61
-6.6910287e+61
-6.6950251e+61
-6.8928838e+61
-6.694428e+61
-6.6942242e+61
-6.890715e+61
-7.0940562e+61
-7.0939166e+61
-7.0928567e+61
-7.0945709e+61
-7.2907298e+61
-7.2923144e+61
-7.2926541e+61
-7.2935104e+61
-7.4933902e+61
-7.4933096e+61
-7.4929506e+61
-7.696493e+61
-7.6966599e+61
-7.6965701e+61
-6.914352e+61
-6.6123374e+61
-6.2966396e+61
-5.9700123e+61
-5.635437e+61
-5.2963285e+61
-5.4051585e+61
-5.2248045e+61
-4.9559424e+61
-5.2232698e+61
-5.4026798e+61
-5.7631321e+61
-5.763215e+61
-5.5839478e+61
-5.5817083e+61
-5.9448563e+61
-6.1264229e+61
-6.1316117e+61
-5.9476386e+61
-6.503321e+61
-6.312926e+61
-6.5063955e+61
-6.3179412e+61
-6.9000906e+61
-6.5863493e+61
-6.2677768e+61
-5.9443192e+61
-5.6158155e+61
-5.2826687e+61
-4.9464977e+61
-6.1338268e+61
-4.6093018e+61
-4.8715982e+61
-5.0503454e+61
-5.0510262e+61
-4.8716337e+61
-5.2281752e+61
-5.2268127e+61
-5.4030837e+61
-5.4032264e+61
-5.5825004e+61
-5.5818512e+61
-5.7634889e+61
-5.7634165e+61
-5.9478135e+61
-5.9481647e+61
-6.1336936e+61
-7.8712201e+61
-7.3189588e+61
-8.0718222e+61
-7.7662827e+61
-7.7764718e+61
-8.0793205e+61
-6.9154467e+61
-7.2562173e+61
-7.2662778e+61
-7.5226031e+61
-7.5129677e+61
-7.8008651e+61
-8.093435e+61
-8.1012748e+61
-7.809606e+61
-6.5684618e+61
-6.8687518e+61
-6.8545524e+61
-7.0630637e+61
-7.0773998e+61
-7.5483196e+61
-7.2994434e+61
-7.3133748e+61
-7.5604011e+61
-7.820639e+61
-7.8304945e+61
-8.1172542e+61
-8.1087851e+61
-6.2419057e+61
-6.5211269e+61
-6.5063414e+61
-6.7110489e+61
-6.6953814e+61
-6.8944954e+61
-7.1022757e+61
-7.1189502e+61
-6.9105182e+61
-7.3296523e+61
-7.3460822e+61
-7.5871336e+61
-7.5737251e+61
-7.8405442e+61
-8.1249909e+61
-8.1282271e+61
-7.8491247e+61
-5.9188755e+61
-6.1946698e+61
-6.1789209e+61
-6.3768005e+61
-6.3608854e+61
-6.5433235e+61
-6.5595294e+61
-6.7480423e+61
-6.7306559e+61
-6.9283246e+61
-7.1366685e+61
-7.1548433e+61
-6.9464571e+61
-7.3776234e+61
-7.360273e+61
-7.599628e+61
-7.6132222e+61
-5.5938166e+61
-5.8538501e+61
-5.8668756e+61
-6.0490354e+61
-6.0341329e+61
-6.2281297e+61
-6.2115784e+61
-6.4090393e+61
-6.3918642e+61
-6.5768193e+61
-6.7669801e+61
-6.7864224e+61
-6.5949442e+61
-6.9653992e+61
-7.1909937e+61
-7.1720889e+61
-6.9854586e+61
-5.2663766e+61
-5.7059162e+61
-5.5238854e+61
-5.5347139e+61
-5.7167549e+61
-6.0628614e+61
-5.8847426e+61
-5.8954714e+61
-6.0747353e+61
-6.2562569e+61
-6.2422003e+61
-6.4400521e+61
-6.4233462e+61
-6.6103557e+61
-6.8030994e+61
-6.8230225e+61
-6.6288974e+61
-4.9363175e+61
-5.1931739e+61
-5.3721904e+61
-5.3819744e+61
-5.2028159e+61
-5.7269603e+61
-5.5483546e+61
-5.5582793e+61
-5.7353436e+61
-5.9159614e+61
-5.9073984e+61
-6.0864523e+61
-6.0982224e+61
-6.2688699e+61
-6.2836955e+61
-6.4714243e+61
-6.4549205e+61
-4.6032195e+61
-4.8620785e+61
-4.8680961e+61
-5.0438488e+61
-5.0389954e+61
-5.2132879e+61
-5.3889069e+61
-5.3952382e+61
-5.217799e+61
-5.5676146e+61
-5.7462635e+61
-5.7550117e+61
-5.5756847e+61
-6.1114081e+61
-5.9277371e+61
-5.9359486e+61
-6.1187374e+61
-4.270391e+61
-4.5297597e+61
-4.5283271e+61
-4.5264952e+61
-4.7022513e+61
-4.7041947e+61
-4.5321791e+61
-4.7023899e+61
-4.7027461e+61
-4.8745436e+61
-5.049572e+61
-5.0516189e+61
-5.0524558e+61
-4.8757281e+61
-4.8736117e+61
-4.8767006e+61
-4.8749973e+61
-5.0472561e+61
-5.048765e+61
-5.2226708e+61
-5.2291823e+61
-5.2290397e+61
-5.2282963e+61
-5.2269045e+61
-5.399512e+61
-5.4026824e+61
-5.4043808e+61
-5.4050112e+61
-5.2247738e+61
-5.4036647e+61
-5.4043799e+61
-5.5789892e+61
-5.5819004e+61
-5.5826206e+61
-5.5820602e+61
-5.5824946e+61
-5.7614532e+61
-5.7629012e+61
-5.7639189e+61
-5.7640883e+61
-5.7587321e+61
-5.7651097e+61
-5.7659785e+61
-5.5835103e+61
-5.5825449e+61
-6.1379925e+61
-6.1379333e+61
-6.136579e+61
-6.1378497e+61
-5.9473797e+61
-5.9487167e+61
-5.94878e+61
-5.9490388e+61
-6.3304785e+61
-6.3303228e+61
-6.330377e+61
-6.1379018e+61
-6.1379e+61
-5.948877e+61
-7.2647122e+61
-6.9240876e+61
-7.2494027e+61
-7.2377788e+61
-7.4900857e+61
-7.497801e+61
-7.5258941e+61
-7.2866748e+61
-7.0647804e+61
-6.8735031e+61
-6.6119948e+61
-6.8902482e+61
-7.0811874e+61
-7.3008999e+61
-7.5350865e+61
-6.2962963e+61
-6.5691019e+61
-6.5516634e+61
-6.7320855e+61
-6.7518714e+61
-7.1074278e+61
-6.9147325e+61
-6.9354541e+61
-7.1277736e+61
-7.3373624e+61
-7.3187923e+61
-7.5483514e+61
-7.5631841e+61
-7.5806915e+61
-7.3591272e+61
-7.151174e+61
-6.4129412e+61
-6.2309643e+61
-5.9711994e+61
-6.2453071e+61
-6.429474e+61
-6.6098212e+61
-6.5903905e+61
-6.7701732e+61
-6.7927967e+61
-6.9563036e+61
-6.9811066e+61
-7.1763597e+61
-7.3825235e+61
-7.5991189e+61
-5.6372493e+61
-5.9103905e+61
-5.9005616e+61
-6.081956e+61
-6.0939551e+61
-6.4437818e+61
-6.2609862e+61
-6.2749401e+61
-6.4586523e+61
-6.6459658e+61
-6.629119e+61
-6.8142314e+61
-6.8350826e+61
-7.2025796e+61
-7.0048191e+61
-7.0290896e+61
-7.2271008e+61
-6.8535877e+61
-6.6615591e+61
-6.4718413e+61
-6.2861256e+61
-6.1022143e+61
-5.9220948e+61
-5.7438007e+61
-5.5621802e+61
-5.2983479e+61
-5.5681076e+61
-5.7500958e+61
-5.928712e+61
-6.1098479e+61
-6.2952956e+61
-6.4831619e+61
-6.8703917e+61
-6.6755769e+61
-5.5861876e+61
-5.5852311e+61
-5.4064307e+61
-5.5860703e+61
-5.4056199e+61
-5.5809931e+61
-5.4020026e+61
-4.9578341e+61
-5.2203792e+61
-5.4071626e+61
-5.2272219e+61
-5.2252597e+61
-5.2262634e+61
-5.7563752e+61
-5.7615842e+61
-5.7652585e+61
-5.7629401e+61
-5.7633103e+61
-5.5853326e+61
-5.9418586e+61
-5.9392931e+61
-5.9426216e+61
-5.9346414e+61
-6.1159734e+61
-6.123774e+61
-6.1208834e+61
-6.1246422e+61
-5.9437124e+61
-5.9425273e+61
-6.1243702e+61
-6.1242981e+61
-6.4920586e+61
-6.3020519e+61
-6.3107064e+61
-6.3095526e+61
-6.3067052e+61
-6.3103926e+61
-6.5009777e+61
-6.4995895e+61
-6.4965066e+61
-6.5004447e+61
-6.3101799e+61
-6.309974e+61
-6.4996992e+61
-6.4999089e+61
-6.8927814e+61
-6.8941716e+61
-6.8942139e+61
-6.8937348e+61
-6.696035e+61
-6.6959541e+61
-6.6942746e+61
-6.6950463e+61
-7.094061e+61
-7.0939367e+61
-7.0939139e+61
-7.2922832e+61
-7.292455e+61
-7.2926352e+61
-7.4933149e+61
-7.4932928e+61
-7.696667e+61
-7.696674e+61
-6.8861097e+61
-6.5813318e+61
-6.2670904e+61
-5.9451705e+61
-5.6167912e+61
-5.2834407e+61
-4.9472913e+61
-5.4057856e+61
-5.2298119e+61
-5.053314e+61
-4.6106621e+61
-4.8751145e+61
-5.0527371e+61
-4.8745803e+61
-5.2283113e+61
-5.4030254e+61
-5.7634725e+61
-5.7634845e+61
-5.5842746e+61
-5.58205e+61
-5.9448629e+61
-6.1264275e+61
-6.1316202e+61
-5.9476521e+61
-6.8748434e+61
-6.5580847e+61
-6.2393082e+61
-5.9183133e+61
-5.5939558e+61
-5.2661028e+61
-4.9351033e+61
-4.6021174e+61
-4.2691448e+61
-4.5271543e+61
-4.5281643e+61
-4.7023618e+61
-4.7028973e+61
-4.8757719e+61
-5.05054e+61
-5.0512753e+61
-4.8757324e+61
-5.2283222e+61
-5.2270929e+61
-5.4033596e+61
-5.4034407e+61
-5.5825163e+61
-5.5818706e+61
-5.7635084e+61
-5.7634318e+61
-7.8523257e+61
-7.3013347e+61
-7.7469443e+61
-7.7583415e+61
-8.0624425e+61
-8.0528107e+61
-6.8942994e+61
-7.2372069e+61
-7.4955935e+61
-7.5058308e+61
-7.2475006e+61
-8.0788308e+61
-7.7845013e+61
-7.7949421e+61
-8.0864897e+61
-6.5442549e+61
-6.8431445e+61
-6.8311403e+61
-7.040127e+61
-7.0509051e+61
-7.2774967e+61
-7.2873241e+61
-7.5371348e+61
-7.5276498e+61
-7.8018285e+61
-8.0931153e+61
-8.1012793e+61
-7.8106913e+61
-6.2160529e+61
-6.4799237e+61
-6.4929298e+61
-6.681511e+61
-6.6680468e+61
-6.8800076e+61
-6.8660493e+61
-7.0732136e+61
-7.0873746e+61
-7.5499472e+61
-7.3016539e+61
-7.3156073e+61
-7.5620458e+61
-7.8207986e+61
-7.8306527e+61
-8.117373e+61
-8.1088949e+61
-5.8940255e+61
-6.1521048e+61
-6.1657527e+61
-6.3461688e+61
-6.3322332e+61
-6.5271738e+61
-6.5127947e+61
-6.714022e+61
-6.6987721e+61
-6.895652e+61
-7.10423e+61
-7.1208937e+61
-6.9116132e+61
-7.3298073e+61
-7.3462361e+61
-7.5872935e+61
-7.573895e+61
-5.5706799e+61
-5.8271381e+61
-6.007345e+61
-6.0222333e+61
-5.8409292e+61
-6.1998701e+61
-6.1841018e+61
-6.3774991e+61
-6.3617479e+61
-6.543835e+61
-6.5599645e+61
-6.7486635e+61
-6.7313392e+61
-6.9283989e+61
-7.1367937e+61
-7.1549667e+61
-6.9465272e+61
-5.2466002e+61
-5.6817909e+61
-5.5012612e+61
-5.5128452e+61
-5.6938298e+61
-5.8584513e+61
-5.8711282e+61
-6.0489481e+61
-6.0342045e+61
-6.2284108e+61
-6.2119141e+61
-6.4093245e+61
-6.3922448e+61
-6.576852e+61
-6.7670201e+61
-6.7864547e+61
-6.5949697e+61
-4.9214167e+61
-5.1847895e+61
-5.1755547e+61
-5.3529055e+61
-5.3630077e+61
-5.7052907e+61
-5.5273302e+61
-5.5378994e+61
-5.7157506e+61
-6.0630787e+61
-5.8849356e+61
-5.8956556e+61
-6.0749604e+61
-6.2562785e+61
-6.2422198e+61
-6.4400732e+61
-6.4233675e+61
-4.5929042e+61
-4.8503323e+61
-5.0248039e+61
-5.0339921e+61
-4.8576194e+61
-5.1969472e+61
-5.3713262e+61
-5.3813061e+61
-5.2068796e+61
-5.7272043e+61
-5.5486212e+61
-5.5584686e+61
-5.735595e+61
-5.9159912e+61
-5.9074156e+61
-6.0864758e+61
-6.098258e+61
-4.2630368e+61
-4.5177637e+61
-4.6934132e+61
-4.6990263e+61
-4.5225465e+61
-4.866579e+61
-4.872746e+61
-5.0438849e+61
-5.0389855e+61
-5.2136354e+61
-5.3892957e+61
-5.3956352e+61
-5.2181787e+61
-5.5676542e+61
-5.7463074e+61
-5.7550458e+61