/*--------------------------------*- C++ -*----------------------------------*\
  =========                 |
  \\      /  F ield         | OpenFOAM: The Open Source CFD Toolbox
   \\    /   O peration     | Website:  https://openfoam.org
    \\  /    A nd           | Version:  7
     \\/     M anipulation  |
\*---------------------------------------------------------------------------*/
FoamFile
{
    version     2.0;
    format      ascii;
    class       volVectorField;
    location    "5000";
    object      U;
}
// * * * * * * * * * * * * * * * * * * * * * * * * * * * * * * * * * * * * * //

dimensions      [0 1 -1 0 0 0 0];

internalField   nonuniform List<vector> 
34387
(
(-1.5876833e+30 7.0076392e+28 -2.0968447e+28)
(-1.5836736e+30 1.3288465e+28 -1.4302986e+28)
(-8.73956e+29 -7.5281881e+27 -6.9626908e+27)
(-1.5935856e+30 3.8599827e+27 -1.232419e+28)
(-1.6342382e+30 1.0896512e+29 9.4161432e+27)
(-1.5719574e+30 2.6236153e+28 -1.7382558e+28)
(-1.0094362e+30 1.6594319e+28 1.4144589e+29)
(-9.4250428e+29 8.0672949e+28 -1.3036082e+29)
(-1.0103683e+30 7.1925357e+27 -1.3000185e+29)
(-1.0458276e+30 6.1047478e+28 1.464848e+29)
(-1.565556e+30 -8.5173241e+27 -2.2511504e+28)
(-9.5927101e+29 1.7024355e+29 3.6559034e+28)
(-9.9794419e+29 1.5482019e+29 -4.1002187e+28)
(-1.0045616e+30 -1.1936105e+29 3.5334108e+28)
(-9.6721957e+29 -1.2708102e+29 -1.7365035e+28)
(-9.8950218e+29 6.7273406e+28 -1.3449311e+29)
(-1.0083445e+30 -1.2457282e+28 1.3269319e+29)
(-9.7429628e+29 5.0529811e+28 1.5621673e+29)
(-9.873356e+29 3.3545849e+27 -1.3829224e+29)
(-8.6998807e+29 -7.6411272e+27 -5.6760244e+27)
(-8.594478e+29 -6.5701138e+27 -6.8538921e+27)
(-9.1833158e+29 -7.1057495e+27 -7.0429016e+27)
(-1.5897968e+30 2.9271438e+27 -1.2791182e+28)
(-1.5752076e+30 7.6737667e+27 -1.6367232e+28)
(-1.5816316e+30 -1.4363044e+28 -1.2224904e+28)
(-1.0159316e+30 1.4937613e+29 2.6160362e+28)
(-1.0245926e+30 1.4823143e+29 -3.6909642e+28)
(-9.9071656e+29 -1.0634959e+29 2.498966e+28)
(-9.9678825e+29 -1.0551573e+29 -2.4886513e+28)
(-1.7561087e+30 1.1379341e+29 2.0061749e+28)
(-1.54156e+30 2.7093737e+28 -2.6388013e+28)
(-9.876689e+29 9.3868687e+28 -1.1306649e+29)
(-1.0564578e+30 1.2086536e+28 1.7105736e+29)
(-1.0671956e+30 8.6436581e+28 1.7318332e+29)
(-1.057102e+30 2.9437893e+28 -1.0879674e+29)
(-1.5499727e+30 -4.8543296e+27 -2.6750916e+28)
(-1.0417483e+30 8.4213485e+27 1.3389587e+29)
(-1.0612716e+30 4.936972e+27 -1.1556537e+29)
(-1.003166e+30 7.5506972e+28 -1.1213716e+29)
(-1.0715041e+30 4.9637582e+28 1.3520547e+29)
(-9.6319894e+29 5.017356e+28 -2.151234e+28)
(-9.556408e+29 5.0531435e+28 -2.8694006e+27)
(-1.0416383e+30 3.1215199e+28 -3.0279229e+27)
(-1.056313e+30 2.5026598e+28 -2.1098132e+28)
(-1.5478325e+30 -2.4866914e+28 -2.6937751e+28)
(-9.9390071e+29 -1.1498909e+29 3.3578278e+28)
(-9.9543914e+29 1.4472472e+29 -3.9602288e+28)
(-1.0015583e+30 1.514606e+29 2.1031998e+28)
(-1.0105108e+30 -1.2168688e+29 -1.4474559e+28)
(-9.7675406e+29 5.8695728e+28 -1.2564803e+29)
(-9.9972289e+29 -1.9908664e+28 1.2269341e+29)
(-1.0051863e+30 3.139085e+28 1.3011703e+29)
(-1.0439001e+30 2.2310151e+26 -1.3636571e+29)
(-9.8296856e+29 -9.8465492e+27 1.627107e+28)
(-1.0123913e+30 1.10559e+28 -2.8235106e+26)
(-1.0009791e+30 -1.7527185e+28 2.8339415e+26)
(-1.0397271e+30 6.8895786e+27 -1.8919357e+27)
(-9.6898993e+29 3.2698248e+26 2.9073119e+27)
(-1.0256632e+30 1.8778218e+28 8.3576877e+27)
(-1.0235575e+30 3.4015312e+28 -1.5479621e+27)
(-9.9286464e+29 3.1919883e+28 -2.4330627e+28)
(-1.0028261e+30 3.5687878e+28 -1.5373884e+28)
(-9.9741467e+29 3.0995623e+28 -5.4881079e+27)
(-9.440594e+29 -8.1567023e+27 -4.172463e+27)
(-8.3734247e+29 -6.9931821e+27 -5.900216e+27)
(-9.1569856e+29 -7.3965595e+27 -5.511318e+27)
(-9.6276497e+29 -9.4484421e+26 -7.498672e+27)
(-9.1097683e+29 -4.528134e+27 -7.1760087e+27)
(-9.4152677e+29 -7.5539693e+27 -7.7862691e+27)
(-1.5619602e+30 -2.4864513e+27 -4.7918934e+27)
(-1.5680135e+30 3.9600755e+27 -1.4753771e+28)
(-1.5812072e+30 -1.8942403e+28 -6.8279473e+27)
(-1.0334727e+30 1.4949496e+29 3.084874e+28)
(-1.0899377e+30 1.4450562e+29 -2.9438639e+28)
(-1.0331222e+30 -1.0102047e+29 2.634194e+28)
(-9.9216999e+29 -1.0282699e+29 -2.7717498e+28)
(-1.5013372e+30 -8.3153667e+28 -2.7716099e+28)
(-1.5373953e+30 -2.3010628e+28 -1.6526987e+28)
(-1.5666938e+30 -2.3223215e+28 -9.806365e+27)
(-1.0466459e+30 1.3344886e+29 2.3402974e+28)
(-1.0560168e+30 1.3574885e+29 -3.661444e+28)
(-1.0334108e+30 -1.0087097e+29 1.9224928e+28)
(-1.0345811e+30 -1.0196051e+29 -2.9364265e+28)
(-9.6826905e+29 -1.2300295e+28 -1.3086616e+28)
(-9.7925716e+29 -1.6232368e+28 -1.1068368e+28)
(-9.7633549e+29 2.922748e+27 -7.5781282e+27)
(-9.6434459e+29 7.2400882e+27 -5.9863349e+27)
(-1.8520574e+30 1.0289572e+29 9.2820057e+27)
(-1.5731377e+30 3.257099e+28 -1.4114714e+29)
(-1.0960861e+30 9.5699086e+28 2.0316661e+29)
(-1.1048969e+30 2.0838493e+28 1.8601063e+29)
(-1.0086971e+30 9.6163199e+28 -9.882264e+28)
(-1.0516543e+30 3.2099354e+28 -9.5718398e+28)
(-1.5280548e+30 -1.2287215e+28 -5.4904966e+28)
(-1.06036e+30 6.1721587e+27 1.3225276e+29)
(-1.0639076e+30 7.4066631e+28 -9.6086497e+28)
(-1.1177174e+30 2.0561845e+28 -1.0170022e+29)
(-1.0873324e+30 6.7016975e+28 1.3384296e+29)
(-9.7005703e+29 7.1330112e+28 1.4257271e+27)
(-9.9919499e+29 5.7230718e+28 -1.5353038e+28)
(-1.0563892e+30 4.8175666e+28 -1.8357203e+28)
(-1.0428153e+30 6.2919902e+28 -1.8710206e+27)
(-1.5389295e+30 -1.7888772e+28 -3.1344507e+28)
(-1.0798722e+30 -2.0050106e+27 1.1547252e+29)
(-1.0908087e+30 -4.2380536e+27 -1.119771e+29)
(-1.0463967e+30 6.0452207e+28 -1.0734314e+29)
(-1.0925157e+30 3.9355584e+28 1.1631706e+29)
(-1.0068025e+30 3.9040671e+28 -1.8762744e+28)
(-1.0603846e+30 1.8688748e+28 -1.3452113e+27)
(-9.9644506e+29 4.2182114e+28 5.6657669e+26)
(-1.0713462e+30 1.2202469e+28 -2.0731739e+28)
(-8.3379883e+29 4.9098428e+28 -7.7752203e+27)
(-8.4409607e+29 4.9476949e+28 -1.0687037e+28)
(-9.1206178e+29 3.1712258e+28 -9.0377486e+27)
(-9.3677382e+29 2.5994767e+28 -6.821476e+27)
(-1.5370007e+30 -2.9653036e+28 -2.6485066e+28)
(-1.0184568e+30 -2.4421659e+28 1.1358673e+29)
(-9.9323138e+29 4.4933987e+28 -1.1995649e+29)
(-1.0238591e+30 -1.477767e+28 -1.315232e+29)
(-1.0176982e+30 1.7425655e+28 1.2397774e+29)
(-1.0281936e+30 1.2391266e+29 8.021362e+27)
(-1.0199049e+30 1.292216e+29 -4.6001196e+28)
(-1.0051162e+30 -1.1015252e+29 2.4941664e+28)
(-1.0557978e+30 -1.2452804e+29 -3.045064e+28)
(-9.8940087e+29 1.0971613e+27 4.3499536e+26)
(-9.8243764e+29 -1.7827e+28 -1.2917976e+27)
(-1.023488e+30 -1.056913e+28 -3.133667e+27)
(-1.0639672e+30 5.7808002e+27 -1.4679156e+28)
(-1.0198308e+30 -2.0940754e+27 9.1791021e+27)
(-1.0841899e+30 1.9896669e+28 3.7385388e+27)
(-9.7532555e+29 2.5149791e+28 -5.1824596e+27)
(-9.7334276e+29 1.6896098e+28 -2.4341147e+28)
(-1.0128203e+30 1.0587221e+28 -1.7491231e+28)
(-1.0474871e+30 2.3243611e+28 -8.7569883e+27)
(-9.9958257e+29 -1.0764475e+28 4.0486597e+27)
(-8.6078132e+29 -7.8964523e+27 1.4497792e+28)
(-1.0074462e+30 2.0298722e+28 -1.609109e+28)
(-9.2368655e+29 -7.400211e+27 6.9155184e+26)
(-9.44677e+29 -8.1037385e+27 -1.8909586e+27)
(-9.9970383e+29 5.6347547e+27 -2.0372156e+27)
(-8.6255976e+29 -9.2670224e+27 2.6007279e+27)
(-1.0018029e+30 1.3345464e+28 1.6233785e+27)
(-9.4819028e+29 3.2319386e+28 -9.7202446e+27)
(-9.2721324e+29 3.1481844e+28 -9.4273267e+27)
(-8.9133366e+29 3.4731697e+28 -7.4114973e+27)
(-8.8222297e+29 2.9499579e+28 -9.3737796e+27)
(-8.5363092e+29 -6.8933577e+27 -4.2736285e+27)
(-8.7423987e+29 -1.0118313e+28 -3.1822288e+27)
(-9.6382727e+29 -8.4594914e+27 -2.7618305e+27)
(-8.9250728e+29 -1.2473219e+27 -6.2857253e+27)
(-8.9265802e+29 -4.956435e+27 -5.8628249e+27)
(-9.5928919e+29 -7.976377e+27 -6.8894767e+27)
(-8.8750503e+29 1.150463e+28 -9.4279591e+27)
(-9.8122847e+29 2.0210429e+27 -8.3045783e+27)
(-9.5547476e+29 -4.9719695e+27 -8.0781233e+27)
(-9.3603904e+29 -8.2668682e+27 -8.2847878e+27)
(-1.5668212e+30 3.1851686e+26 -4.8124726e+27)
(-9.5111588e+29 6.0719322e+28 1.2942465e+29)
(-1.5494582e+30 -3.1140102e+28 1.2144416e+28)
(-1.0108697e+30 -1.7632801e+28 -1.3695047e+29)
(-9.7542925e+29 3.6638244e+28 -1.4948515e+29)
(-9.6331442e+29 2.2252803e+27 1.3594457e+29)
(-9.7520958e+29 1.5597505e+29 4.1919321e+28)
(-1.0246735e+30 1.563926e+29 -2.5504783e+28)
(-9.9788673e+29 -1.1887418e+29 2.1097187e+28)
(-9.4248314e+29 -1.0998848e+29 -3.2515601e+28)
(-1.5029153e+30 -9.6027605e+28 -7.9429158e+27)
(-1.527549e+30 -2.7604446e+28 -1.1200648e+28)
(-1.0749758e+30 -1.0308574e+29 2.7038903e+28)
(-1.1092869e+30 1.2689715e+29 -2.2589296e+28)
(-1.5691341e+30 -2.9989909e+28 -3.7564494e+27)
(-1.0751558e+30 1.3504511e+29 3.3005002e+28)
(-1.0447465e+30 -9.9775709e+28 -2.3914689e+28)
(-1.0109492e+30 -1.4327067e+28 -2.1425756e+27)
(-1.0873188e+30 -1.4706875e+28 2.8230863e+27)
(-1.0834681e+30 3.9801494e+27 6.1349766e+26)
(-9.9431773e+29 3.8865938e+27 -6.4068543e+27)
(-1.4927688e+30 -6.8001269e+28 -3.7624714e+28)
(-1.5314026e+30 -2.4747731e+28 -1.3244815e+28)
(-1.5535955e+30 -2.873573e+28 -7.4352523e+27)
(-1.0878921e+30 1.2087863e+29 -3.0077229e+28)
(-1.0626139e+30 -9.9923038e+28 1.8525204e+28)
(-1.0634704e+30 1.1882122e+29 2.0692912e+28)
(-1.0513086e+30 -1.0130833e+29 -2.7356537e+28)
(-9.9377329e+29 -1.6257727e+28 -1.2578541e+28)
(-1.0219339e+30 -1.7674552e+28 -1.2417869e+28)
(-1.0112279e+30 -4.9945673e+26 -1.2886085e+28)
(-1.0013132e+30 1.803763e+27 -1.4619038e+28)
(-8.8719145e+29 -6.9277851e+27 -1.149887e+28)
(-8.8473622e+29 -8.6006683e+27 -9.2780946e+27)
(-8.6922829e+29 -9.3650924e+27 -5.5712982e+27)
(-8.6695867e+29 -7.7707773e+27 -5.0028673e+27)
(-1.8881689e+30 1.0246347e+29 -5.8841089e+27)
(-1.6436983e+30 5.1830773e+28 -1.8350553e+29)
(-1.1231372e+30 3.6083078e+28 -9.99351e+28)
(-1.0581799e+30 9.244179e+28 -1.0352988e+29)
(-1.1490404e+30 1.4207771e+28 1.9793579e+29)
(-1.1561071e+30 1.0279525e+29 2.0257957e+29)
(-1.4918839e+30 5.9667732e+27 -1.0598943e+29)
(-1.1031813e+30 6.2304889e+28 1.2013476e+29)
(-1.0842038e+30 1.9554229e+28 1.1775046e+29)
(-1.1051524e+30 8.8221959e+28 -9.9772642e+28)
(-1.1600261e+30 1.5947748e+28 -1.0458124e+29)
(-1.0486525e+30 5.9702498e+28 -1.2740586e+28)
(-1.0141843e+30 8.0395667e+28 -1.101906e+28)
(-9.8516654e+29 8.8878655e+28 3.021406e+27)
(-1.0185582e+30 7.1638797e+28 1.030867e+27)
(-1.5077843e+30 -1.8561627e+28 -4.2750215e+28)
(-1.072009e+30 1.8987918e+27 9.8297449e+28)
(-1.0653614e+30 6.116919e+28 -1.0611953e+29)
(-1.1191351e+30 8.7337893e+27 -1.1112598e+29)
(-1.081562e+30 5.0967618e+28 1.0007111e+29)
(-1.0149192e+30 4.3429313e+28 -2.0046699e+28)
(-1.031071e+30 4.4250219e+28 3.6442326e+27)
(-1.0724482e+30 4.1240496e+28 -1.9984832e+27)
(-1.0718349e+30 3.5980997e+28 -2.2064239e+28)
(-8.4040334e+29 6.5984783e+28 -1.0677449e+28)
(-8.4951546e+29 5.3609972e+28 -6.1727866e+27)
(-9.3725842e+29 4.7486348e+28 -5.8595754e+27)
(-9.1322578e+29 6.1421666e+28 -9.0315562e+27)
(-1.123896e+30 -1.9646634e+28 1.0003033e+29)
(-1.530929e+30 -2.0790981e+28 -2.5819574e+28)
(-1.0916436e+30 -1.0110076e+28 -1.1141785e+29)
(-1.0812093e+30 4.2379037e+28 -1.0869772e+29)
(-1.0828684e+30 3.1753433e+28 1.0381464e+29)
(-1.050335e+30 2.6383061e+28 -2.1598677e+28)
(-1.075734e+30 1.0209621e+28 -5.8459699e+27)
(-1.0459505e+30 3.1296229e+28 -3.9736081e+27)
(-1.0785235e+30 8.3023709e+27 -2.286402e+28)
(-9.1484229e+29 4.0090104e+28 -8.0293e+27)
(-9.637376e+29 1.9927017e+28 -8.0327662e+27)
(-8.771966e+29 4.4078462e+28 -8.4719637e+27)
(-9.9394869e+29 1.3781641e+28 -7.8850658e+27)
(-8.515375e+29 4.8583862e+28 -9.1610677e+27)
(-8.323003e+29 4.94733e+28 -9.7704463e+27)
(-9.1005092e+29 3.2302295e+28 -9.168881e+27)
(-9.3463993e+29 2.6703461e+28 -8.7754925e+27)
(-1.5288606e+30 -3.1244529e+28 -1.8454365e+28)
(-1.0382791e+30 -4.151505e+28 1.0866564e+29)
(-1.058744e+30 1.1725528e+29 -4.254878e+28)
(-1.0263593e+30 -1.1163139e+29 1.9284483e+28)
(-1.0288504e+30 -1.2421799e+29 -3.7469008e+28)
(-1.0455211e+30 1.1684439e+29 -1.4262832e+27)
(-1.0489274e+30 2.9996974e+27 1.0858865e+29)
(-1.0590492e+30 -2.9530691e+28 -1.2847924e+29)
(-1.007945e+30 3.1580319e+28 -1.1603049e+29)
(-9.8739384e+29 1.1228796e+28 -2.4400384e+28)
(-9.8990243e+29 1.2789182e+28 -6.6454955e+27)
(-1.0144456e+30 3.3757273e+27 -8.9920664e+27)
(-1.1008969e+30 5.9814402e+27 -6.4172787e+27)
(-1.0273428e+30 -3.387487e+27 -1.7463117e+28)
(-1.0795773e+30 -1.4454358e+28 -1.3396964e+28)
(-1.0377899e+30 -1.7115153e+28 -1.8863773e+28)
(-1.0154897e+30 -2.02527e+28 -1.6887238e+28)
(-1.0069482e+30 -1.3118985e+27 -1.0726006e+28)
(-1.0864865e+30 -6.538285e+27 -1.6048514e+28)
(-9.0368124e+29 -1.0764573e+28 1.7101626e+27)
(-8.7651473e+29 -9.7734153e+27 9.1144355e+26)
(-1.0636552e+30 -1.2187616e+28 -1.2855088e+28)
(-9.1656022e+29 -7.9874668e+27 -3.541371e+26)
(-1.0573065e+30 1.1775122e+28 -2.0517727e+28)
(-1.0581219e+30 5.468399e+27 -2.3459962e+27)
(-8.8179039e+29 -8.306244e+27 1.0518478e+28)
(-1.0512049e+30 1.7377138e+28 -1.9944173e+27)
(-8.921136e+29 2.674444e+28 -1.2079094e+28)
(-8.7208487e+29 2.0168808e+28 -1.0574671e+28)
(-9.3858031e+29 1.3367592e+28 -8.2654333e+27)
(-9.2697978e+29 2.5418912e+28 -8.3806146e+27)
(-9.7999125e+29 2.1063272e+27 -3.8352926e+27)
(-8.646578e+29 -7.0373575e+27 3.8100971e+27)
(-8.5746525e+29 -1.0832595e+28 1.4015886e+28)
(-8.7434862e+29 1.9019702e+28 -8.4508937e+27)
(-9.008524e+29 -1.0890111e+28 8.0860537e+26)
(-9.0407487e+29 -1.0586634e+28 -1.6217213e+27)
(-9.7376258e+29 -8.7147004e+26 -4.0395316e+27)
(-8.1891797e+29 -8.5127437e+27 -2.1053666e+27)
(-8.3143752e+29 -1.0773991e+28 2.3731837e+27)
(-8.3486167e+29 1.2767917e+28 -8.830859e+27)
(-9.1469999e+29 3.2919524e+28 -1.0527603e+28)
(-8.9762019e+29 3.2012139e+28 -1.0693906e+28)
(-8.8431904e+29 3.452647e+28 -9.5188832e+27)
(-8.5849895e+29 2.9228527e+28 -9.8950233e+27)
(-9.2919501e+29 -6.0205168e+27 -3.0535233e+27)
(-9.1020588e+29 -1.0052613e+28 2.6228507e+27)
(-9.5569024e+29 -9.3185749e+27 -6.5637993e+27)
(-9.6501104e+29 1.6432345e+27 -7.4865468e+27)
(-9.5544288e+29 -5.5906179e+27 -7.5479443e+27)
(-9.5423124e+29 -8.740958e+27 -8.3696434e+27)
(-9.1515326e+29 1.7417732e+28 -1.0124687e+28)
(-9.5943511e+29 4.6414153e+26 -9.5987616e+27)
(-9.5323801e+29 -6.7005187e+27 -8.6115309e+27)
(-9.1614971e+29 -9.0268723e+27 -8.5117014e+27)
(-1.5380494e+30 -8.1744371e+28 3.1956462e+26)
(-1.0430858e+30 7.0774484e+28 1.1805165e+29)
(-1.1052984e+30 -1.5771803e+27 -1.1946949e+29)
(-1.5314371e+30 -3.0513309e+28 1.2097675e+28)
(-1.0502792e+30 5.9824638e+28 -1.3337597e+29)
(-1.0176502e+30 1.4719169e+28 1.1207802e+29)
(-9.9806142e+29 2.1155488e+28 -3.5301253e+26)
(-1.0527879e+30 -3.2372441e+28 -1.2140937e+29)
(-1.5442067e+30 -3.4868817e+28 1.9846347e+28)
(-9.9858202e+29 1.4696158e+28 -1.2611873e+29)
(-1.0195335e+30 -1.7447816e+28 1.3239841e+29)
(-1.0040985e+30 4.6378158e+28 1.1881326e+29)
(-1.0232643e+30 -1.2840698e+29 2.6591676e+28)
(-1.0120106e+30 1.2867543e+29 -7.2858001e+27)
(-9.9327597e+29 1.3676201e+29 4.7240232e+28)
(-9.7328525e+29 -1.1046633e+29 -2.6850152e+28)
(-1.0054701e+30 1.8253061e+28 1.9718975e+28)
(-9.746178e+29 1.1249754e+28 1.2783881e+28)
(-9.9561413e+29 2.5307154e+27 1.6187241e+27)
(-9.635433e+29 2.2210638e+28 2.3316984e+27)
(-1.0038211e+30 2.2210318e+28 -4.6341826e+27)
(-9.4656918e+29 -1.300331e+28 -4.3606767e+26)
(-1.0507958e+30 -9.313076e+27 1.1186144e+26)
(-1.0481279e+30 3.4383299e+27 -3.4185554e+27)
(-9.5465853e+29 6.8686143e+27 -4.1152562e+27)
(-1.470984e+30 -7.9419277e+28 -6.806747e+27)
(-1.5236209e+30 -3.0650421e+28 -9.3413157e+27)
(-1.1006958e+30 1.2581821e+26 6.5714266e+27)
(-1.1023395e+30 -1.8679886e+28 1.133233e+28)
(-1.0930374e+30 -1.076046e+29 2.8254898e+28)
(-1.556162e+30 -2.7316422e+28 -8.2752392e+27)
(-1.1025851e+30 1.1064418e+29 -2.2853334e+28)
(-1.1231142e+30 1.1460396e+29 3.3097707e+28)
(-1.0943525e+30 -1.0291757e+29 -1.8206926e+28)
(-1.0635373e+30 -1.7813127e+28 6.8613681e+27)
(-1.0549778e+30 7.765469e+26 2.1357621e+27)
(-9.0091528e+29 -8.3749142e+27 -8.0673656e+26)
(-9.6721779e+29 -7.2912446e+27 3.6649669e+27)
(-9.4716279e+29 -8.9701524e+27 2.6887214e+27)
(-8.8501042e+29 -9.6905032e+27 -3.7810275e+27)
(-1.4421859e+30 -6.2080394e+28 -9.7122986e+28)
(-1.4962651e+30 -3.0455315e+28 -2.4916385e+28)
(-1.5272923e+30 -1.9845622e+28 -7.5660055e+27)
(-1.1066172e+30 1.0153085e+29 -2.7940236e+28)
(-1.5472608e+30 -2.7650254e+28 -5.6208888e+27)
(-1.0801471e+30 1.0835875e+29 2.4626494e+28)
(-1.0596397e+30 -1.0105202e+29 -2.3891115e+28)
(-1.0999416e+30 -1.0489906e+29 2.1319209e+28)
(-1.0570873e+30 -2.0180234e+28 -5.0407711e+27)
(-1.0543707e+30 -3.2956613e+27 -9.9432013e+27)
(-1.0071529e+30 -1.8448153e+28 -1.2634626e+28)
(-1.0153918e+30 -2.0400211e+27 -1.2671688e+28)
(-9.0430343e+29 -8.822749e+27 -1.1005862e+28)
(-9.1072093e+29 -9.6630462e+27 -1.1205564e+28)
(-9.0464064e+29 -1.0741353e+28 -1.1293939e+28)
(-9.1025477e+29 -9.3617073e+27 -1.2961266e+28)
(-8.7393673e+29 -1.0398431e+28 -1.1910918e+28)
(-8.8124007e+29 -1.1319789e+28 -9.9813878e+27)
(-8.7509445e+29 -1.1123835e+28 -6.5803307e+27)
(-8.5924886e+29 -1.0515016e+28 -5.744552e+27)
(-1.9176213e+30 1.028729e+29 -2.1787252e+28)
(-1.6888105e+30 6.4511528e+28 -2.0523505e+29)
(-1.1724016e+30 1.7813299e+28 1.9803044e+29)
(-1.1496397e+30 1.0914627e+29 2.1153252e+29)
(-1.1326986e+30 3.2707542e+28 -1.0458261e+29)
(-1.0828775e+30 9.856429e+28 -1.0813639e+29)
(-1.4978945e+30 3.3537624e+28 -1.2072394e+29)
(-1.1069722e+30 2.574736e+28 1.1189833e+29)
(-1.1489323e+30 8.9010812e+28 -1.021919e+29)
(-1.2041386e+30 2.5060624e+28 -1.0655126e+29)
(-1.1216646e+30 7.5758384e+28 1.1496328e+29)
(-1.0813829e+30 8.7151845e+28 -5.3652165e+27)
(-1.0470039e+30 8.1703706e+28 -1.8250659e+27)
(-1.0710698e+30 7.6675142e+28 -1.2307915e+28)
(-1.1093479e+30 7.0364842e+28 -1.4404038e+28)
(-1.4734404e+30 -2.7084125e+27 -5.2281272e+28)
(-1.0898597e+30 1.3747917e+28 8.5222045e+28)
(-1.0940874e+30 7.1969301e+28 -1.1413733e+29)
(-1.1472352e+30 6.6568946e+27 -1.1988982e+29)
(-1.0893675e+30 4.8636821e+28 8.4995339e+28)
(-1.0823701e+30 3.6001259e+28 -2.7543684e+28)
(-1.0377917e+30 5.472155e+28 -2.5525501e+28)
(-1.0539765e+30 6.4709136e+28 5.0320974e+27)
(-1.0992835e+30 4.3160233e+28 -6.6096807e+26)
(-8.8222829e+29 5.362387e+28 -2.8606797e+27)
(-8.41226e+29 7.1851499e+28 -3.357014e+27)
(-7.9645909e+29 8.0023914e+28 -9.9590375e+27)
(-8.3151724e+29 6.4033622e+28 -9.1457128e+27)
(-1.5045204e+30 -1.8973559e+28 -2.6027379e+28)
(-1.0872427e+30 -8.0948971e+27 9.1122282e+28)
(-1.0532165e+30 4.9076143e+28 -1.097116e+29)
(-1.0713596e+30 1.8455019e+27 -1.1118487e+29)
(-1.0712675e+30 3.7703899e+28 9.4822177e+28)
(-1.0198189e+30 3.1319979e+28 -2.5264659e+28)
(-1.0334084e+30 3.4668953e+28 -8.8515794e+27)
(-1.0774376e+30 3.1379755e+28 -9.7856768e+27)
(-1.0437712e+30 2.7052243e+28 -2.5964325e+28)
(-9.4381159e+29 4.2325911e+28 -6.9858274e+27)
(-9.1033017e+29 4.391174e+28 -5.8341934e+27)
(-9.6352437e+29 4.1562653e+28 -7.1546264e+27)
(-9.8472573e+29 3.7153489e+28 -7.4175916e+27)
(-8.5597149e+29 6.6795654e+28 -9.9682955e+27)
(-8.6572879e+29 5.3669476e+28 -9.2911803e+27)
(-9.2956911e+29 4.8744329e+28 -8.571383e+27)
(-9.0029301e+29 6.2714407e+28 -9.1365497e+27)
(-1.0977674e+30 3.0437592e+27 -2.3781457e+28)
(-1.0873707e+30 2.8906309e+28 -1.10071e+29)
(-1.5285143e+30 -2.0179547e+28 -1.8617706e+28)
(-1.0693033e+30 -1.2932808e+28 -1.0504836e+29)
(-1.1138955e+30 -2.4956645e+28 9.4330903e+28)
(-1.095874e+30 2.5640131e+28 1.0592269e+29)
(-1.0718523e+30 7.2025788e+27 -7.773006e+27)
(-1.0951409e+30 1.1372512e+28 -7.8115149e+27)
(-1.0406026e+30 6.5811217e+27 -2.324405e+28)
(-9.6150661e+29 2.9337769e+28 -9.1624581e+27)
(-9.9063605e+29 1.232936e+28 -1.0087313e+28)
(-9.4570188e+29 3.4628566e+28 -9.8858009e+27)
(-9.9042071e+29 1.1270236e+28 -9.2197084e+27)
(-8.9658328e+29 4.0985934e+28 -9.4984722e+27)
(-9.4791285e+29 2.0877495e+28 -8.9822206e+27)
(-8.8175941e+29 4.409606e+28 -9.3842048e+27)
(-9.5979978e+29 1.5236016e+28 -9.2079582e+27)
(-1.5201851e+30 -2.5031251e+28 -1.5868663e+28)
(-1.0782744e+30 1.0059844e+29 -4.1472417e+28)
(-1.0521409e+30 -3.64427e+28 1.0791892e+29)
(-1.0194328e+30 1.9510318e+28 -1.1036924e+29)
(-1.0396947e+30 -3.1190418e+28 -1.2257306e+29)
(-1.0597922e+30 7.5198946e+27 1.1238602e+29)
(-1.0707334e+30 1.0460778e+29 1.2790845e+28)
(-1.0620178e+30 -1.2225217e+29 -3.3492627e+28)
(-1.060969e+30 -1.1307272e+29 1.9482889e+28)
(-1.0003409e+30 -1.4732581e+28 -2.403084e+28)
(-1.0499055e+30 -2.3093551e+28 -1.3334595e+28)
(-1.0538926e+30 -5.9590227e+27 -1.6939736e+28)
(-1.0480089e+30 -1.0911095e+28 -2.6736932e+28)
(-1.1020837e+30 -8.5802664e+27 -1.1520084e+28)
(-1.0524676e+30 -1.9404824e+28 -2.8331202e+28)
(-1.0647748e+30 -1.7624622e+28 -2.7043341e+28)
(-1.0443784e+30 -1.9150771e+28 -1.9665269e+28)
(-1.0698792e+30 -1.5108663e+28 -1.0643018e+28)
(-1.0007157e+30 -3.3069428e+27 -7.7989846e+27)
(-8.9839451e+29 1.395465e+28 -1.061674e+28)
(-8.8942981e+29 1.6608601e+28 -1.1869854e+28)
(-9.291391e+29 5.8776307e+27 -1.0607424e+28)
(-1.0608577e+30 -1.2189863e+27 -5.8559584e+27)
(-1.0725665e+30 -8.5475862e+26 -1.5458447e+28)
(-1.063133e+30 -1.0762197e+28 -2.0788311e+28)
(-9.3281515e+29 1.0397313e+26 -1.0171664e+28)
(-1.0685849e+30 -2.0460659e+28 -1.2868061e+28)
(-9.6440946e+29 -1.0113187e+28 -1.5816913e+28)
(-9.0288745e+29 -1.1106435e+28 -1.2462543e+28)
(-8.9374801e+29 -1.1841645e+28 -6.5888552e+27)
(-9.6590948e+29 -9.3014822e+27 -1.187288e+28)
(-8.9356321e+29 -1.1901601e+28 1.6577859e+27)
(-8.8390181e+29 -1.2417528e+28 8.2975535e+26)
(-1.0391265e+30 -4.0479532e+27 -1.3819984e+28)
(-9.6660446e+29 -7.6276292e+27 -1.1177543e+28)
(-9.0707435e+29 -1.1167886e+28 -1.3973081e+26)
(-9.5703747e+29 1.1945659e+28 -9.1545019e+27)
(-1.037319e+30 -1.415446e+27 -9.8213862e+27)
(-9.3594002e+29 -8.2759188e+27 -1.7837382e+27)
(-8.8829798e+29 -1.1061315e+28 1.0288551e+28)
(-9.342308e+29 1.6823398e+28 -9.7799359e+27)
(-8.8311735e+29 2.647465e+28 -1.1100671e+28)
(-8.7858146e+29 1.9439732e+28 -1.0995447e+28)
(-9.1927952e+29 1.4085312e+28 -9.6187985e+27)
(-9.2680924e+29 2.5489879e+28 -9.6204897e+27)
(-9.6578928e+29 -8.3995912e+27 -7.2946697e+27)
(-9.2662016e+29 -1.0373308e+28 -1.7596088e+27)
(-9.3336442e+29 -9.2973048e+27 -1.0780443e+28)
(-9.8089287e+29 -1.4706266e+26 -1.0934701e+28)
(-9.5737696e+29 -7.1767681e+27 -8.9728277e+27)
(-9.2223113e+29 -9.4169956e+27 -9.6777128e+27)
(-9.2238134e+29 1.7139089e+28 -1.0427057e+28)
(-9.2805031e+29 -2.4042902e+27 -9.3134038e+27)
(-9.2548742e+29 -8.9563695e+27 -8.7556815e+27)
(-8.8865025e+29 -9.1335462e+27 -8.1253986e+27)
(-1.5166073e+30 -6.2491624e+28 1.3389054e+29)
(-1.4901545e+30 -7.2116676e+28 2.6033492e+28)
(-1.0563082e+30 6.2954235e+28 -1.2042706e+29)
(-1.0992726e+30 -2.6385994e+28 -1.0766197e+29)
(-1.14534e+30 5.7590931e+28 1.0091493e+29)
(-1.0944436e+30 1.6588167e+28 1.0124617e+29)
(-1.0877491e+30 2.7886323e+28 4.0639683e+27)
(-1.1006128e+30 2.2270501e+28 2.1623739e+28)
(-1.0620758e+30 4.5406528e+28 1.1037646e+29)
(-1.1124242e+30 -2.5777345e+28 -1.0748931e+29)
(-1.5248082e+30 -3.5638313e+28 1.9026877e+28)
(-1.0655385e+30 3.3049852e+28 -1.1027162e+29)
(-1.0671977e+30 1.0218629e+27 1.0952204e+29)
(-1.0211112e+30 2.9153687e+28 1.8589216e+28)
(-1.0152942e+30 2.9105296e+28 1.8433619e+26)
(-8.9336616e+29 2.2732397e+28 1.244565e+28)
(-1.0633768e+30 -2.9012857e+27 2.2402724e+28)
(-1.0329674e+30 3.1985069e+28 1.2483596e+29)
(-1.5319706e+30 -2.4311713e+28 9.3877803e+27)
(-1.0558705e+30 -3.7891216e+28 -1.0880687e+29)
(-1.0065844e+30 -2.2578705e+28 1.3507519e+29)
(-1.0071541e+30 1.9084234e+28 -1.190077e+29)
(-1.0065574e+30 -1.3032823e+29 3.55383e+28)
(-1.0163756e+30 1.2375613e+29 -8.8234684e+27)
(-1.0333996e+30 1.2398705e+29 3.9408843e+28)
(-1.0018417e+30 -1.1601875e+29 -2.3937356e+28)
(-9.9829256e+29 -9.5163192e+27 1.7290958e+28)
(-1.0230482e+30 -1.1951969e+28 1.4000062e+28)
(-1.019696e+30 -4.8110532e+27 6.083835e+27)
(-1.0644474e+30 2.9802082e+27 -3.6450011e+27)
(-1.049569e+30 5.561177e+27 1.9193965e+27)
(-1.0655209e+30 -6.9218783e+27 1.0924217e+28)
(-1.0246928e+30 -1.8875653e+28 1.8618864e+28)
(-9.846048e+29 -2.0500646e+28 1.5905183e+28)
(-9.7901615e+29 2.4747582e+27 9.3643255e+27)
(-8.9558319e+29 2.0816106e+28 1.0897142e+28)
(-9.6634338e+29 1.2003199e+26 2.1215769e+28)
(-9.071199e+29 1.2260832e+28 9.8416569e+27)
(-9.7394032e+29 -1.7548415e+28 5.0091818e+27)
(-9.5160911e+29 1.0192645e+28 1.2708062e+27)
(-8.5283751e+29 2.3436201e+28 8.8805497e+27)
(-9.7116236e+29 9.2622369e+27 8.3921017e+27)
(-8.3297133e+29 -6.2452432e+27 -6.8721424e+25)
(-9.7018046e+29 -6.3240706e+27 1.732744e+27)
(-8.9982467e+29 -6.378922e+27 -2.0870758e+27)
(-8.1686867e+29 -8.5116873e+27 -2.5779519e+27)
(-1.3897407e+30 -7.6610946e+28 -3.2729508e+27)
(-1.4815052e+30 -3.9898992e+28 -9.6610825e+27)
(-1.5224234e+30 -2.1555201e+28 -9.7202854e+27)
(-9.8731538e+29 -9.1671308e+27 6.5695558e+27)
(-9.9804129e+29 -8.9104675e+27 1.0959984e+28)
(-1.110856e+30 -5.1001121e+27 1.115296e+28)
(-1.5482061e+30 -2.5492309e+28 -9.9133579e+27)
(-1.07661e+30 -1.0156798e+29 2.0223665e+28)
(-1.1104882e+30 1.1099664e+29 -3.0108481e+28)
(-1.1054731e+30 -1.0673148e+29 -2.2530008e+28)
(-1.1347026e+30 1.0214254e+29 1.6820583e+28)
(-1.0715004e+30 -2.1864277e+28 4.892723e+27)
(-1.1257673e+30 -2.1702532e+28 9.5306357e+27)
(-1.1193315e+30 -4.6110885e+27 1.0180523e+28)
(-9.5158603e+29 -9.371712e+27 6.8844812e+27)
(-9.3637632e+29 -9.883418e+27 2.6947763e+27)
(-8.943555e+29 -1.1361455e+28 -8.1323377e+26)
(-9.5253928e+29 -1.0591602e+28 3.8488046e+27)
(-9.3556403e+29 -1.0672652e+28 2.868845e+27)
(-8.8183275e+29 -1.1424044e+28 -3.789528e+27)
(-1.4022732e+30 9.628964e+27 -1.2021617e+29)
(-1.4554981e+30 -1.7273023e+28 -3.9703779e+28)
(-1.5013468e+30 -1.7072971e+28 -1.0832309e+28)
(-1.5283374e+30 -1.5421879e+28 -3.3063803e+27)
(-1.065738e+30 -2.4881417e+28 -3.7512196e+27)
(-1.077272e+30 -1.0515478e+29 2.0618155e+28)
(-1.545252e+30 -2.0925339e+28 -2.5764917e+27)
(-1.0997827e+30 9.7871171e+28 -2.5843411e+28)
(-1.1032359e+30 1.0152881e+29 1.6889487e+28)
(-1.0714387e+30 -9.9953948e+28 -2.1547775e+28)
(-1.0234465e+30 -2.0593255e+28 -1.4729704e+27)
(-1.0265441e+30 -5.0993571e+27 -8.3057403e+27)
(-1.1053491e+30 -7.9152967e+27 -4.0961474e+27)
(-9.4184712e+29 -1.0423551e+28 -4.6159826e+27)
(-9.3134005e+29 -1.1299818e+28 -8.8286166e+27)
(-9.1212501e+29 -1.037167e+28 -1.0760278e+28)
(-9.1613216e+29 -1.0992536e+28 -1.0677353e+28)
(-9.0369916e+29 -1.160793e+28 -1.1641372e+28)
(-9.0989632e+29 -1.219164e+28 -1.2018866e+28)
(-8.9919862e+29 -1.187273e+28 -1.2008213e+28)
(-8.9918768e+29 -1.0979506e+28 -1.3475444e+28)
(-1.9292309e+30 9.8773966e+28 -2.9834472e+28)
(-1.7202344e+30 7.3024333e+28 -2.1347377e+29)
(-1.1989622e+30 2.1789102e+28 1.9150303e+29)
(-1.1071978e+30 9.9187643e+28 -1.1618497e+29)
(-1.1558291e+30 3.9730016e+28 -1.1131294e+29)
(-1.1771655e+30 1.1450829e+29 2.0603882e+29)
(-1.5114374e+30 4.754791e+28 -1.2155986e+29)
(-1.1119539e+30 7.9347183e+28 1.0965667e+29)
(-1.1271665e+30 2.6955393e+28 1.079736e+29)
(-1.1632975e+30 9.2118788e+28 -1.0446509e+29)
(-1.2227413e+30 2.5467018e+28 -1.1050726e+29)
(-1.0804677e+30 8.4788334e+28 -1.4806447e+28)
(-1.096031e+30 7.8793838e+28 -1.190948e+28)
(-1.0843937e+30 8.6179081e+28 -3.2509484e+27)
(-1.0635807e+30 9.3765626e+28 -6.3243692e+27)
(-1.4557933e+30 1.853904e+28 -5.8549309e+28)
(-1.1048173e+30 1.8356719e+28 7.7930123e+28)
(-1.175492e+30 2.0216653e+28 -1.1836735e+29)
(-1.1246419e+30 7.735735e+28 -1.1564164e+29)
(-1.1017036e+30 6.2439944e+28 7.9705e+28)
(-1.0687271e+30 6.5696838e+28 -3.1031672e+28)
(-1.097519e+30 6.7361638e+28 3.0648965e+27)
(-1.1243275e+30 5.946659e+28 -6.2037412e+26)
(-1.1043235e+30 5.2721421e+28 -3.0591721e+28)
(-9.0530451e+29 7.6731747e+28 -9.9320647e+27)
(-8.4785822e+29 7.0767178e+28 -9.878964e+27)
(-9.0010535e+29 6.4449411e+28 -5.5524437e+26)
(-9.532521e+29 6.1586769e+28 -2.1138532e+27)
(-1.4790569e+30 -5.3938636e+27 -2.767975e+28)
(-1.109948e+30 1.5486581e+27 8.6044831e+28)
(-1.0723019e+30 5.9222764e+28 -1.1024152e+29)
(-1.0868427e+30 3.9244598e+27 -1.1280334e+29)
(-1.0792926e+30 4.3212154e+28 8.7580415e+28)
(-1.0416775e+30 3.7350548e+28 -2.8359805e+28)
(-1.0531115e+30 4.1553011e+28 -1.4140893e+28)
(-1.0809829e+30 3.0148848e+28 -1.5121186e+28)
(-1.0381155e+30 2.5199026e+28 -3.0216848e+28)
(-1.0212852e+30 3.370632e+28 -5.9057644e+27)
(-1.0054847e+30 5.0130618e+28 -6.0674047e+27)
(-9.480587e+29 6.0199393e+28 -2.4219422e+27)
(-9.8141816e+29 4.0870994e+28 -3.7179607e+27)
(-8.780108e+29 5.551298e+28 -8.6688377e+27)
(-8.5132014e+29 7.3815312e+28 -8.7261243e+27)
(-8.2919983e+29 8.2635399e+28 -1.0177149e+28)
(-8.4745949e+29 6.6070192e+28 -1.0000616e+28)
(-1.5122044e+30 -1.5829962e+28 -1.8913732e+28)
(-1.1039489e+30 -1.606184e+28 9.3407682e+28)
(-1.0836242e+30 2.401488e+28 9.8169329e+28)
(-1.0629235e+30 -1.4271163e+28 -1.0230828e+29)
(-1.0538104e+30 3.7266131e+28 -1.0266489e+29)
(-1.0256199e+30 1.733176e+28 -2.3205914e+28)
(-1.0304005e+30 2.1933126e+28 -1.0929843e+28)
(-1.0237531e+30 2.4665914e+28 -1.0635189e+28)
(-1.0147079e+30 1.3262395e+28 -2.3070827e+28)
(-9.4387713e+29 3.474833e+28 -9.7510865e+27)
(-9.4449632e+29 3.8475188e+28 -9.8802864e+27)
(-9.8512019e+29 3.4393803e+28 -9.1468675e+27)
(-9.7766517e+29 2.9911784e+28 -8.6487502e+27)
(-9.0562738e+29 4.4127512e+28 -8.9676225e+27)
(-8.9610106e+29 4.4745972e+28 -8.6802666e+27)
(-9.4350752e+29 4.29634e+28 -8.9244911e+27)
(-9.5298545e+29 3.903048e+28 -9.0780695e+27)
(-1.0038099e+30 8.1228649e+27 -9.3961217e+27)
(-1.0924214e+30 -5.9390629e+26 -9.2248891e+27)
(-1.5280955e+30 -1.7882189e+28 -1.7506494e+28)
(-1.0618342e+30 2.3843022e+28 -1.023991e+29)
(-1.0968319e+30 -2.8348016e+28 9.7824602e+28)
(-1.1361904e+30 1.6705619e+28 1.0073863e+29)
(-1.1031477e+30 -2.1438853e+28 -1.0036314e+29)
(-1.0428178e+30 7.3639275e+27 -6.8359936e+27)
(-1.057894e+30 -2.5196519e+27 -2.3918948e+28)
(-1.0566004e+30 1.8565932e+27 -2.1086521e+28)
(-9.8536234e+29 1.0919324e+28 -1.0359606e+28)
(-9.9017626e+29 1.7144192e+28 -1.0752756e+28)
(-9.7212318e+29 1.0180035e+28 -1.0095743e+28)
(-9.3903969e+29 3.0097976e+28 -9.7182269e+27)
(-9.6563133e+29 1.2976279e+28 -9.5727425e+27)
(-9.2127753e+29 3.5592965e+28 -9.675289e+27)
(-9.7041492e+29 1.1680639e+28 -9.6118964e+27)
(-1.5154254e+30 -2.6077275e+28 -1.4052835e+28)
(-1.0653954e+30 -3.3271609e+28 1.0295868e+29)
(-1.0763307e+30 1.3035212e+28 1.0614665e+29)
(-1.066239e+30 -2.382606e+28 -1.1160059e+29)