/*--------------------------------*- C++ -*----------------------------------*\
  =========                 |
  \\      /  F ield         | OpenFOAM: The Open Source CFD Toolbox
   \\    /   O peration     | Website:  https://openfoam.org
    \\  /    A nd           | Version:  7
     \\/     M anipulation  |
\*---------------------------------------------------------------------------*/
FoamFile
{
    version     2.0;
    format      ascii;
    class       volVectorField;
    location    "0";
    object      U;
}
// * * * * * * * * * * * * * * * * * * * * * * * * * * * * * * * * * * * * * //

dimensions      [0 1 -1 0 0 0 0];

internalField   nonuniform List<vector> 
33899
(
(0.091628074 0.00010992544 0.00091749903)
(0.091628143 0.000150684 0.00091763665)
(0.09063094 0.00024811602 0.0016200741)
(0.091627656 0.00019394463 0.00091781265)
(0.091625893 0.00024047605 0.00091800104)
(0.091341198 0.00015081499 0.00037345345)
(0.091341078 0.00011002898 0.00037336778)
(0.091999041 0.00010939464 8.6085101e-05)
(0.091997229 0.00014922199 8.6245275e-05)
(0.090581434 0.00034227697 0.0016194465)
(0.090609613 0.00040128116 0.0016150759)
(0.091600947 0.00030312034 0.0021058222)
(0.090263482 0.00029270233 0.0025878459)
(0.091123916 0.00028419073 0.0022069233)
(0.089661265 0.00021548059 0.001006113)
(0.091081272 0.00027788149 0.0023114048)
(0.090333969 0.0003778132 0.0026751053)
(0.088398226 0.00026360418 0.0018237681)
(0.088414419 0.00022190323 0.0018166332)
(0.089679675 0.00030901941 0.001008301)
(0.091616792 0.00034689401 0.00091846834)
(0.091622674 0.00029115215 0.00091823097)
(0.091338966 0.00024066007 0.00037369866)
(0.091340655 0.00019410022 0.00037357601)
(0.09199406 0.00019118462 8.6441073e-05)
(0.091989052 0.00023590364 8.6670549e-05)
(0.091224635 0.00015088377 0.00011819773)
(0.091483969 0.00014936548 3.1533847e-05)
(0.091224506 0.00011008339 0.00011814759)
(0.091485767 0.00010950631 3.1433651e-05)
(0.091688129 0.00014568557 -0.00080370209)
(0.088642939 0.00021358334 0.0005344604)
(0.090501288 0.00044363251 0.0016180744)
(0.090546746 0.00049893999 0.0016113793)
(0.09020967 0.00038449237 0.0025860019)
(0.091071994 0.0003828002 0.0022049186)
(0.091035488 0.00037328508 0.0023101795)
(0.090286316 0.000467143 0.0026722136)
(0.089609432 0.00029727986 0.0010040445)
(0.090300374 0.000259337 0.0026749443)
(0.091049982 0.00038160916 0.0023075123)
(0.091113098 0.0003754379 0.002206021)
(0.090251936 0.00034388745 0.0025846267)
(0.089638331 0.00038808547 0.0010076245)
(0.088346815 0.0003337751 0.0018231252)
(0.088370499 0.00029133471 0.0018134066)
(0.091525269 0.0003050395 0.0019938361)
(0.091591576 0.00037665839 0.0021029273)
(0.091576041 0.00035746 0.0026000683)
(0.091874577 0.00030683665 0.0024577231)
(0.091621201 0.00038812348 0.0026942833)
(0.091827449 0.00026175721 0.0025627079)
(0.091602699 0.00024486942 0.0026530597)
(0.089220114 0.00014943511 0.0021883033)
(0.090916351 0.00025753769 0.0031403796)
(0.09096008 0.00028471045 0.0030453687)
(0.090165787 0.00029073707 0.0036978679)
(0.090228979 0.00040779295 0.0037765049)
(0.091123693 0.00039034012 0.0026301672)
(0.091170025 0.00032378121 0.0027431619)
(0.091423078 0.00027987461 0.0024956783)
(0.091469616 0.00026067755 0.0023963091)
(0.089373144 0.0002876583 0.0020925557)
(0.08757294 0.00023340326 0.0026196165)
(0.088016009 0.00021394903 0.002529817)
(0.091193823 0.00029862845 0.0027802712)
(0.091137093 0.00027818762 0.0026681632)
(0.091451637 0.00034402628 0.0024388177)
(0.091406073 0.00032368784 0.0025358277)
(0.090993217 0.00030056797 0.0030534476)
(0.090934423 0.00030598298 0.0031421458)
(0.090201936 0.00030623861 0.0036931324)
(0.090245715 0.00019952052 0.0037708611)
(0.088023413 0.00021779093 0.0014162228)
(0.088034075 0.00026629303 0.0014160131)
(0.089381216 0.00024479495 0.0020919913)
(0.088023282 0.00030080824 0.002535796)
(0.08760095 0.0002810918 0.0026140855)
(0.090206785 0.00023850393 0.0036948095)
(0.089059021 0.00015666765 -0.00049253057)
(0.091607677 0.00040874934 0.00091873001)
(0.091593404 0.00047786199 0.00091896983)
(0.091329889 0.0003471217 0.00037401893)
(0.091335673 0.00029135801 0.00037386142)
(0.091970924 0.00033629244 8.7258933e-05)
(0.091981637 0.00028404773 8.6941439e-05)
(0.093306037 0.00033584678 0.0002018128)
(0.091222407 0.000240751 0.00011831248)
(0.091475821 0.00023611135 3.1793522e-05)
(0.091224078 0.00019418024 0.00011825015)
(0.091480806 0.00019135754 3.1651302e-05)
(0.091682809 0.00018573844 -0.00080348227)
(0.091675163 0.00022800769 -0.00080322139)
(0.091217305 0.00015089534 2.0179901e-05)
(0.091304829 0.00014943467 9.1407707e-06)
(0.091308697 0.0001458399 -0.00034047893)
(0.091217182 0.00011009232 2.0162253e-05)
(0.091306624 0.00010956152 9.0897872e-06)
(0.090937901 0.00014047649 -0.0011270018)
(0.088553066 0.00021280782 -0.00010038168)
(0.088595739 0.00026924082 0.00053315341)
(0.088271882 0.00040069748 0.0018206087)
(0.089529628 0.00038015263 0.00099987287)
(0.089573647 0.00047110811 0.0010058151)
(0.088305226 0.00036118311 0.0018082388)
(0.090123439 0.00048020489 0.0025830342)
(0.090209602 0.00056222913 0.0026681684)
(0.090231941 0.00035381126 0.0026724882)
(0.09098344 0.00048438224 0.0023041947)
(0.091054299 0.00047613236 0.0022040344)
(0.090191159 0.00043702608 0.0025812622)
(0.091514509 0.00037900766 0.0025558361)
(0.090175919 0.00049732344 0.003772585)
(0.090109547 0.00038138521 0.0036949471)
(0.090904312 0.00037873651 0.0030430002)
(0.090863532 0.00035041299 0.0031380705)
(0.08916564 0.0002346232 0.0021855788)
(0.091115156 0.00042087708 0.0027416576)
(0.091072078 0.00048619242 0.0026280641)
(0.091369662 0.00038051301 0.0024938188)
(0.09141951 0.00035987662 0.0023947359)
(0.091088542 0.0003731358 0.0026665843)
(0.091404516 0.00044196911 0.002437064)
(0.091148196 0.00039222978 0.0027780963)
(0.091361981 0.00042008093 0.0025342831)
(0.090884986 0.00039789612 0.0031387765)
(0.090195981 0.00028844227 0.0037670105)
(0.089324741 0.00037137769 0.0020907144)
(0.090155212 0.00039361572 0.0036887256)
(0.090946465 0.0003912543 0.0030504388)
(0.087966812 0.00029211806 0.0025263539)
(0.087518974 0.00031197605 0.002618206)
(0.089337995 0.00032718148 0.0020900032)
(0.090905245 0.00033535246 0.0031415197)
(0.090954435 0.00034286528 0.0030517094)
(0.090163204 0.00032504311 0.0036915606)
(0.090216934 0.00043050009 0.0037674085)
(0.091109359 0.00037454809 0.0026655705)
(0.091154831 0.00035565825 0.0027800834)
(0.091368565 0.00034147695 0.002533709)
(0.091425329 0.00032017626 0.0024372376)
(0.091164762 0.00032898752 0.0027407383)
(0.091107338 0.00026192283 0.002629969)
(0.091453623 0.00040294824 0.0023952839)
(0.091418113 0.00038368261 0.0024952801)
(0.089209189 0.00046433399 0.0021888195)
(0.090953752 0.00035726412 0.0030439264)
(0.090900583 0.00038337068 0.0031377652)
(0.090212582 0.00022193161 0.0037762129)
(0.090159392 0.0003392512 0.0036955566)
(0.087561475 0.00035680831 0.0026111935)
(0.087979262 0.00037819198 0.0025348883)
(0.087972968 0.00028721508 0.001414525)
(0.087989378 0.00033530683 0.0014147124)
(0.0915213 0.00039602259 0.00255768)
(0.091577328 0.00042945577 0.002650641)
(0.091814252 0.00038025007 0.0025247848)
(0.091570919 0.00031630728 0.0025981842)
(0.091605674 0.00028561517 0.0026946526)
(0.091812858 0.00042176491 0.0025609271)
(0.091869788 0.00037744007 0.0024565853)
(0.091554939 0.00038011239 0.0027025269)
(0.091607498 0.00030487111 0.0027407835)
(0.091558582 0.00028143744 0.0028316967)
(0.091600147 0.00038825603 0.0027908452)
(0.091938781 0.00027673023 0.0027637364)
(0.0916998 0.000357219 0.0027127413)
(0.091649782 0.00040327369 0.002610479)
(0.09198566 0.00028725374 0.0026626256)
(0.091602876 0.00029467023 0.0027866841)
(0.091569643 0.00033009547 0.0028330477)
(0.091626361 0.00032129969 0.0027447475)
(0.091566503 0.00028293546 0.0027030992)
(0.091714386 0.00031591465 0.0027503988)
(0.09165882 0.00032168381 0.002647835)
(0.091962974 0.00035031663 0.0027040725)
(0.091914295 0.00035530215 0.0027988304)
(0.09159696 0.00033338314 0.0027786911)
(0.091561465 0.00034414406 0.0026951594)
(0.091626566 0.00027648051 0.0027377749)
(0.091571952 0.0002756572 0.0028220548)
(0.091714506 0.0003149288 0.0027417945)
(0.088942245 0.00012911358 0.0035793016)
(0.08690379 0.00025625971 0.0040011785)
(0.087329347 0.00023236808 0.003941884)
(0.089086678 0.00028152459 0.0034813548)
(0.091463345 0.0003068099 0.0034208107)
(0.091407838 0.00030013655 0.0033158651)
(0.091544167 0.00034926279 0.0030610514)
(0.091499229 0.00032613026 0.0031539973)
(0.091393723 0.00037986827 0.0032787041)
(0.091442412 0.00032965732 0.0033826252)
(0.091519557 0.00027579595 0.0031177408)
(0.091563394 0.00025312858 0.0030203577)
(0.091243458 0.0002712429 0.0042690139)
(0.090348391 0.00028660235 0.004978589)
(0.090410073 0.00041335139 0.0050575495)
(0.091195401 0.0002637668 0.0043525285)
(0.090380219 0.00032482057 0.0049729132)
(0.090425764 0.00020503607 0.0050492927)
(0.091214641 0.00029752802 0.0043509508)
(0.091274295 0.00031320442 0.0042720535)
(0.091450061 0.00027806779 0.0027673788)
(0.091494633 0.0002770051 0.0028591798)
(0.091357857 0.0003101828 0.0028220593)
(0.091411696 0.00031077585 0.0027236887)
(0.091514639 0.0003641479 0.0028990489)
(0.091472331 0.00037173612 0.002803699)
(0.091396032 0.00030208155 0.00276398)
(0.091347612 0.00024868332 0.0028593875)
(0.091392133 0.00034947872 0.0026152963)
(0.091345604 0.00037049587 0.0025245385)
(0.091549311 0.00026629229 0.0025526557)
(0.091503744 0.00027610987 0.0026406688)
(0.09151658 0.00034699329 0.0026387642)
(0.091356603 0.00029911315 0.0025229553)
(0.091412632 0.00030982543 0.0026079227)
(0.091551835 0.00033504377 0.0025580041)
(0.089116531 0.00021647583 0.0034743171)
(0.088993404 0.00042266311 0.0035640294)
(0.086984606 0.00032051268 0.0039910031)
(0.087394671 0.00031485685 0.0039074059)
(0.086993827 0.0002073443 0.002526391)
(0.087125496 0.00025368136 0.0024346977)
(0.091495393 0.0002346938 0.0028159253)
(0.091532048 0.00024872502 0.0029095614)
(0.091360702 0.00035398853 0.0028701492)
(0.09141375 0.00030570656 0.0027766466)
(0.091507621 0.00034085583 0.0028707255)
(0.091455639 0.00034911751 0.0027753678)
(0.091365443 0.00028994685 0.002834136)
(0.091413346 0.00029467829 0.0027340735)
(0.091412841 0.00032934546 0.0026174412)
(0.091510997 0.00026342269 0.0026478116)
(0.091546672 0.0002741408 0.0025662557)
(0.091360814 0.00033069483 0.0025353392)
(0.09140483 0.00026672741 0.0026310359)
(0.091353112 0.00025453011 0.0025414399)
(0.091541503 0.00034674194 0.0025679661)
(0.091501226 0.00033967715 0.0026546365)
(0.091546277 0.00032168043 0.0031293142)
(0.091422294 0.00022140279 0.0032887647)
(0.091475427 0.00026597707 0.0033918605)
(0.09158409 0.00034092742 0.0030324182)
(0.091423662 0.00030391159 0.0033192417)
(0.091470222 0.00029946112 0.0034236647)
(0.091504967 0.00026175554 0.003157751)
(0.091558969 0.00024078786 0.0030646353)
(0.090381129 0.00029843241 0.0049757329)
(0.090439238 0.00016900676 0.0050529666)
(0.091226799 0.00031036449 0.0043491876)
(0.091277906 0.00031556975 0.0042683478)
(0.090444005 0.00037607299 0.0050485269)
(0.090389842 0.00025437514 0.0049713528)
(0.091282701 0.00025014641 0.0042721987)
(0.09123094 0.00027002151 0.0043515666)
(0.08749584 0.00020773443 0.00034698442)
(0.087506623 0.00027510918 0.00034650437)
(0.08713744 0.00026009654 0.0024356934)
(0.088996865 0.00011380874 0.0035641778)
(0.089129795 0.00031984024 0.0034752399)
(0.087410397 0.00021335247 0.0039032741)
(0.086985425 0.00020860404 0.00399738)
(0.091281734 0.00023141299 0.0042693351)
(0.090384747 0.00024405794 0.004976617)
(0.090443708 0.00037278568 0.0050540282)
(0.091231058 0.00023534826 0.0043515227)
(0.090455675 0.00016551475 0.0050505216)
(0.089026781 0.00021297077 -0.00049243156)
(0.089665171 0.00016226523 -0.00045916462)
(0.089652462 0.0001367528 -0.00045718678)
(0.090098458 0.00016772212 -0.00025850397)
(0.090111655 0.00015732308 -0.00025716214)
(0.089192051 0.00021919058 -0.0011384753)
(0.089528743 0.0002251488 -0.00052980814)
(0.089535986 0.00012506215 -0.0005281067)
(0.089198957 0.00012921226 -0.0011381565)
(0.0901681 0.00013396845 -0.00089353703)
(0.091306581 0.00047808334 0.00037438394)
(0.091320704 0.00040898247 0.00037421478)
(0.09195585 0.00039333296 8.7630821e-05)
(0.091934876 0.00045589071 8.8066417e-05)
(0.093290768 0.00039280016 0.00020229363)
(0.093269498 0.00045528132 0.00020284414)
(0.091213338 0.00034723584 0.00011844107)
(0.091457756 0.0003365797 3.2149648e-05)
(0.091219094 0.00029146117 0.00011836478)
(0.091468421 0.00028429122 3.1956648e-05)
(0.091650089 0.00032101098 -0.00080251747)
(0.091664506 0.00027295728 -0.00080290457)
(0.092552573 0.0003204138 -0.0018050951)
(0.095826965 0.00037561741 -0.00063150013)
(0.09581928 0.00028737915 -0.00063250273)
(0.095753215 0.00042122168 0.0012970451)
(0.091215069 0.00024075765 2.0210888e-05)
(0.091296686 0.00023620528 9.2517552e-06)
(0.091295734 0.00022823561 -0.00034020521)
(0.091216744 0.00019419192 2.0192195e-05)
(0.091301666 0.00019143961 9.1872791e-06)
(0.091303388 0.00018592755 -0.00034035305)
(0.09093085 0.00017817232 -0.0011267872)
(0.090921276 0.00021753528 -0.0011265491)
(0.091216815 0.00015089556 6.5034548e-06)
(0.091293406 0.00014944426 1.543116e-06)
(0.091170259 0.0001459114 -0.0001086526)
(0.090906105 0.00014063784 -0.00050382536)
(0.091216691 0.00011009251 6.5029692e-06)
(0.091295204 0.00010957083 1.5267479e-06)
(0.099190352 0.00035220359 0.0023897777)
(0.087892499 0.00024636693 -0.00097540534)
(0.088505782 0.00026765174 -0.00010082078)
(0.087881585 0.00023644618 -0.00097642616)
(0.088530346 0.00031943643 0.0005302407)
(0.088212471 0.00042398869 0.0017984098)
(0.089475514 0.00055091145 0.00099999092)
(0.090094251 0.00053231929 0.002574717)
(0.087898866 0.00035205872 0.0014105501)
(0.08908053 0.00032055941 0.00218065)
(0.087437494 0.00038839669 0.0026145373)
(0.087891393 0.00037085916 0.0025205808)
(0.089248351 0.00045801442 0.0020873587)
(0.089269351 0.00041380979 0.0020866018)
(0.089147974 0.00055019247 0.0021864216)
(0.087499957 0.00043561596 0.0026066614)
(0.087911751 0.00045734797 0.0025325952)
(0.087923296 0.00040401995 0.0014119231)
(0.090814592 0.0004769091 0.0030387292)
(0.090020289 0.00047376429 0.0036906694)
(0.090091592 0.00058974478 0.0037679344)
(0.09077901 0.00044808349 0.0031346955)
(0.090079973 0.00048645851 0.0036849666)
(0.090116453 0.00038101544 0.003763778)
(0.090805788 0.00049521044 0.0031349771)
(0.090871612 0.00048850549 0.0030472941)
(0.09088391 0.00043970219 0.0030486899)
(0.090092289 0.00041772742 0.003688507)
(0.090149768 0.00052239917 0.003763569)
(0.090838451 0.00043120349 0.0031389502)
(0.09108474 0.00045645684 0.0027776634)
(0.091043453 0.00047434203 0.0026626635)
(0.091392938 0.00050591869 0.002393176)
(0.09104545 0.00036098876 0.0026280795)
(0.09110658 0.00042701286 0.0027381771)
(0.091361304 0.00048538587 0.0024935332)
(0.090149218 0.00031347049 0.0037732027)
(0.090099493 0.00043033531 0.0036920752)
(0.090838003 0.00047850758 0.003134704)
(0.090894499 0.00045193033 0.0030414497)
(0.091508351 0.0003438688 0.002687483)
(0.091547858 0.00033634862 0.0027742584)
(0.091575456 0.00042035426 0.0027227206)
(0.08903433 0.00036781405 0.003478168)
(0.090327687 0.0004138887 0.0049667596)
(0.090372007 0.00029477583 0.005043575)
(0.091159654 0.00038905172 0.0043462104)
(0.091220216 0.00040436281 0.0042672864)
(0.088886381 0.00021621392 0.0035757578)
(0.090353916 0.00050310287 0.0050523709)
(0.090290889 0.00037684598 0.0049742833)
(0.091185601 0.00036304024 0.0042659424)
(0.091138351 0.00035515929 0.004349109)
(0.091337581 0.00047228576 0.0032764066)
(0.091384965 0.00042279451 0.0033807072)
(0.091462825 0.00037047333 0.0031157193)
(0.091507992 0.00034746908 0.0030186163)
(0.091490434 0.00044392808 0.0030591109)
(0.091353349 0.00039174414 0.0033135401)
(0.091409715 0.00039805059 0.0034181769)
(0.091446845 0.00042037275 0.0031520985)
(0.086848762 0.00033978183 0.0039987497)
(0.087277621 0.00031551579 0.0039375607)
(0.091340515 0.00040056056 0.0027622397)
(0.091416214 0.00046847546 0.0028020989)
(0.091459879 0.00046009064 0.0028973795)
(0.091293811 0.00034658485 0.002857969)
(0.091398533 0.00037212002 0.0027655782)
(0.09144159 0.00037163048 0.0028577969)
(0.091305612 0.00040811443 0.0028200816)
(0.091361003 0.00040827171 0.0027221023)
(0.091292494 0.00046954196 0.0025229565)
(0.091337153 0.00044943834 0.0026138524)
(0.091449564 0.00037786659 0.0026388907)
(0.091497033 0.00036730389 0.0025511967)
(0.091500984 0.00043540886 0.0025563428)
(0.091304794 0.00039727 0.0025214887)
(0.09136285 0.00040745513 0.0026060838)
(0.091467487 0.00044662627 0.0026372573)
(0.091364118 0.00039105481 0.0027324586)
(0.091405698 0.00044342323 0.0027738979)
(0.091317675 0.00038530954 0.0028328126)
(0.091458954 0.00043493438 0.0028690545)
(0.091463229 0.00036247025 0.0026461221)
(0.091364263 0.00042676477 0.0026160992)
(0.09131389 0.00042739139 0.0025338775)
(0.091500604 0.00037238843 0.0025648626)
(0.091449352 0.00032817775 0.0028140964)
(0.091484908 0.00034276412 0.0029076978)
(0.091314376 0.00044862631 0.0028682248)
(0.091368838 0.00039977998 0.0027749319)
(0.091360742 0.00036226186 0.0026292678)
(0.091307465 0.00035067762 0.0025399289)
(0.091496691 0.00044429284 0.0025663157)
(0.091458048 0.00043651475 0.0026531133)
(0.091454013 0.00035489967 0.0031553725)
(0.091418194 0.00039074842 0.0034210309)
(0.091509257 0.00033322874 0.0030622409)
(0.091372632 0.00039497891 0.0033160995)
(0.0890672 0.00030215797 0.0034709233)
(0.091230648 0.00034054498 0.0042667099)
(0.090339722 0.00034306021 0.0049646942)
(0.090395038 0.00046312138 0.0050409729)
(0.091179619 0.00035944469 0.004345742)
(0.088947297 0.00050723373 0.0035611413)
(0.087345418 0.00039753237 0.0039051795)
(0.086938825 0.00040236761 0.0039869875)
(0.091177808 0.00039945812 0.0043424012)
(0.09039264 0.0002553437 0.0050454499)
(0.090335734 0.00038377782 0.0049683395)
(0.09122997 0.00040402252 0.0042622462)
(0.09142772 0.00035656535 0.0033884091)
(0.091373232 0.00031257055 0.0032853473)
(0.091535999 0.00043231684 0.0030296892)
(0.0914994 0.00041248991 0.0031267646)
(0.087076156 0.0003314496 0.0024327553)
(0.086941184 0.000285444 0.0025241557)
(0.088953294 0.00019773945 0.0035614825)
(0.089088937 0.00040276675 0.0034730594)
(0.086941628 0.00028996557 0.0039958234)
(0.087369323 0.00029385116 0.0039001151)
(0.091443554 0.00033908442 0.0034209863)
(0.091393726 0.00033451747 0.0033168817)
(0.091528094 0.00040376039 0.0030625621)
(0.09147905 0.0003823526 0.003156633)
(0.091383383 0.0004174797 0.0032861444)
(0.091432925 0.00037474247 0.0033896178)
(0.091503564 0.0003242332 0.0031264982)
(0.091546278 0.00030414133 0.0030307425)
(0.091236392 0.00031957791 0.004263624)
(0.090341375 0.00032964091 0.0049704644)
(0.090401488 0.00045786859 0.0050485015)
(0.091187167 0.00032250499 0.0043465572)
(0.091202109 0.00036240408 0.0043470125)
(0.090415382 0.00025057797 0.0050453631)
(0.090362987 0.00037262996 0.0049681568)
(0.091255175 0.00038311506 0.0042689687)
(0.091429925 0.00030073385 0.0027736649)
(0.091476742 0.00030924241 0.0028694861)
(0.091334949 0.000365243 0.0028314231)
(0.091388509 0.00036112047 0.0027324359)
(0.091495055 0.000401949 0.0029077636)
(0.091453355 0.00041721364 0.0028146258)
(0.091372187 0.00035174459 0.0027753189)
(0.091324727 0.00030173158 0.002869802)
(0.091318435 0.00040674438 0.002540326)
(0.091363274 0.00039614071 0.0026305395)
(0.091460602 0.00032847972 0.0026527722)
(0.09150769 0.00032039458 0.0025670514)
(0.091516915 0.00039246396 0.0025644633)
(0.091330297 0.00033013465 0.002533615)
(0.091389189 0.00033202319 0.0026151275)
(0.091488012 0.00040308722 0.0026469361)
(0.091469175 0.00027776028 0.0028028637)
(0.091506467 0.00028489949 0.0028985391)
(0.091339428 0.00040559466 0.0028575365)
(0.091393376 0.00035332043 0.0027632559)
(0.091480504 0.00037209972 0.0028579306)
(0.091430861 0.0003714863 0.0027665497)
(0.091392502 0.00034477402 0.002722913)
(0.091344282 0.00034420188 0.0028223557)
(0.091497325 0.00031921089 0.0026375475)
(0.091393012 0.00035123269 0.0026081084)
(0.091343811 0.00036073322 0.0025226298)
(0.091539294 0.00033057178 0.0025577637)
(0.091540751 0.00039918565 0.0025516933)
(0.09133693 0.00028924338 0.0025237387)
(0.091390188 0.00031121087 0.0026139886)
(0.091501873 0.00038972891 0.0026406801)
(0.089068975 0.0003372862 0.0034798192)
(0.088937315 0.00048965696 0.0035789696)
(0.087308729 0.00037590325 0.0039464353)
(0.086901183 0.00035195632 0.0039936091)
(0.091438507 0.0003086974 0.0033812549)
(0.091386533 0.00025755274 0.003277555)
(0.091555419 0.00039050171 0.0030190825)
(0.091516437 0.00036820908 0.0031175697)
(0.091391963 0.0003373183 0.0033145372)
(0.091444246 0.00033146659 0.0034198154)
(0.091479702 0.00031771106 0.0031519858)
(0.091529478 0.0002944008 0.003060005)
(0.091256362 0.00031991759 0.0042706173)
(0.090362576 0.0003021067 0.0049715175)
(0.090409961 0.00042118973 0.0050476637)
(0.091197942 0.00033416467 0.0043508265)
(0.091189238 0.00036789073 0.0043499785)
(0.090403523 0.00021283681 0.0050565649)
(0.090343781 0.00034013926 0.0049774585)
(0.09123861 0.0003616913 0.0042678955)
(0.086975896 0.0003807983 0.0025248822)
(0.08709466 0.00033712875 0.0024343191)
(0.087445415 0.00027650464 0.00034632401)
(0.087461792 0.0003437354 0.00034571605)
(0.091578583 0.00035858733 0.0027233727)
(0.091511654 0.00042792963 0.0026882775)
(0.091558434 0.00043492741 0.0027743998)
(0.091531517 0.00034649852 0.0028138856)
(0.091538204 0.00032756018 0.0026936201)
(0.091568016 0.00033836917 0.0027776029)
(0.091543946 0.00040094326 0.0028194893)
(0.091603945 0.00040075792 0.0027362545)
(0.091692984 0.00036710858 0.0027400398)
(0.0916366 0.00036815147 0.0026358388)
(0.09155242 0.00029090676 0.0027017188)
(0.091592006 0.00028228773 0.0027904445)
(0.091605126 0.00037167197 0.0027400347)
(0.091550813 0.00039388067 0.0028298654)
(0.091590261 0.0003759873 0.0027858855)
(0.091548264 0.00038843081 0.00270276)
(0.091557049 0.00034535074 0.0028337592)
(0.091608398 0.00035559567 0.0027444292)
(0.091696037 0.00036576198 0.002750477)
(0.091646965 0.00035889414 0.0026474443)
(0.091951652 0.00033563078 0.0027036673)
(0.091977584 0.00039858399 0.002661622)
(0.09164159 0.00027720611 0.0026095855)
(0.091698108 0.00032426959 0.0027114232)
(0.091937279 0.00040947756 0.0027637272)
(0.091508427 0.00033242133 0.0027779416)
(0.091580055 0.00034104226 0.0027879018)
(0.091576729 0.00033552617 0.0028255721)
(0.091517496 0.00032593362 0.0027772877)
(0.091859471 0.00033975118 0.0029017487)
(0.091690425 0.00033181001 0.0028679643)
(0.09168643 0.00032720722 0.0028304389)
(0.091866978 0.00033451266 0.0029030187)
(0.091520923 0.00031815878 0.0027780589)
(0.091581094 0.00031784304 0.0028269567)
(0.091589749 0.00030899984 0.0027953151)
(0.091517385 0.00031142573 0.0027753628)
(0.091696632 0.00032106068 0.0028768454)
(0.09168907 0.00033128868 0.0028407257)
(0.091864561 0.00032804545 0.0029108324)
(0.091857554 0.00031832298 0.002914576)
(0.091521734 0.00030090733 0.0027746603)
(0.091517269 0.00030667086 0.0027739939)
(0.09159068 0.00031079551 0.0027925985)
(0.091698494 0.00030099923 0.0028743361)
(0.088941304 0.00010726598 0.0053693047)
(0.086674313 0.00026936719 0.0055378265)
(0.089084913 0.00031576441 0.0052710698)
(0.087090859 0.00025465109 0.0054774972)
(0.08643016 0.000242741 0.0044342427)
(0.086530322 0.00022361178 0.0043428636)
(0.08674174 0.0003276442 0.0055396613)
(0.087151972 0.00033212185 0.0054354078)
(0.089112653 0.00019043381 0.0052663)
(0.088987307 0.00044453914 0.0053529931)
(0.092196299 0.00030316945 0.003363526)
(0.09218621 0.00031031531 0.0033282831)
(0.091899158 0.0003100529 0.0029002929)
(0.091895839 0.00030348524 0.0029052756)
(0.092180801 0.00030502656 0.0033176043)
(0.092181173 0.00030993864 0.003352103)
(0.091891583 0.00031854822 0.0028907984)
(0.091899441 0.00031404969 0.0028927772)
(0.0924097 0.00031621401 0.0042937311)
(0.091643029 0.00030423935 0.0062357067)
(0.091664262 0.00029274858 0.0062299651)
(0.092409635 0.00030877925 0.0043295627)
(0.091671523 0.0002858937 0.0062306544)
(0.091677016 0.00028920069 0.0062294634)
(0.092418785 0.0002943043 0.0043307786)
(0.092432336 0.00028826413 0.0043030877)
(0.09164906 0.00030394122 0.0027178467)
(0.091653449 0.00030653373 0.0027227694)
(0.091495561 0.00030459735 0.0026766738)
(0.091503736 0.00030268745 0.0026420707)
(0.091654395 0.00031328388 0.0027291742)
(0.091646873 0.00032114544 0.0027298826)
(0.091495431 0.00032901584 0.0026509318)
(0.091492311 0.00032067788 0.0026863309)
(0.091437831 0.00032099731 0.0026545796)
(0.091435266 0.00031368366 0.0026188379)
(0.091461887 0.00032322701 0.0026651143)
(0.091452814 0.0003293928 0.0026639066)
(0.091462143 0.00031267486 0.0026665216)
(0.091440072 0.00031773677 0.0026178077)
(0.091448628 0.0003145673 0.002647108)
(0.091465533 0.00031795793 0.0026652737)
(0.089001899 8.7416921e-05 0.005351929)
(0.086775102 0.00022786281 0.0055273736)
(0.087189368 0.00024691316 0.0054407156)
(0.089136906 0.00035566541 0.0052625009)
(0.089120371 0.00024159503 0.0052717121)
(0.087138422 0.00032459618 0.0054700358)
(0.086730344 0.00030965655 0.0055328918)
(0.088982408 0.00046642626 0.005368095)
(0.086488761 0.00031383934 0.0044149142)
(0.086606002 0.00027533799 0.0043233104)
(0.08562368 0.00017239243 0.0014264332)
(0.085776787 0.00031146168 0.0014155235)
(0.091669175 0.00028302178 0.0027368826)
(0.091671038 0.00029120009 0.0027355265)
(0.091505254 0.00028940668 0.0026934871)
(0.091513215 0.00028038432 0.0026592376)
(0.091664103 0.00029865819 0.0027274007)
(0.091652814 0.00030254295 0.0027210588)
(0.091503304 0.00030677124 0.002683277)
(0.091506371 0.00031052655 0.0026451599)
(0.091450045 0.0003022977 0.002650535)
(0.091462193 0.00030650133 0.0026686168)
(0.091466744 0.00030061612 0.0026688476)
(0.091444431 0.00029772603 0.0026229098)
(0.091450402 0.00029292114 0.0026620732)
(0.09144373 0.00030084973 0.0026261944)
(0.091465542 0.00029512035 0.0026704243)
(0.091460076 0.00028899453 0.0026693761)
(0.091918264 0.00028026477 0.0028983495)
(0.092204665 0.00028605559 0.0033226629)
(0.092212142 0.00028296011 0.0033578971)
(0.091919731 0.00028449858 0.0028993311)
(0.092201575 0.00027929587 0.0033302931)
(0.092201455 0.00028579752 0.0033651918)
(0.091900362 0.00029540882 0.0029067588)
(0.09191229 0.00028854691 0.0029044422)
(0.091677018 0.00027662313 0.0062370949)
(0.091691475 0.00028197711 0.0062308603)
(0.092435501 0.00027425977 0.004332314)
(0.092443109 0.00027071197 0.004298607)
(0.091695817 0.00028023208 0.0062289998)
(0.091678961 0.00027983424 0.0062311)
(0.092438183 0.00029031341 0.0043033552)
(0.092435853 0.00028583544 0.0043333289)
(0.085820794 0.00017818684 -0.00096610493)
(0.085949142 0.00031851197 -0.00096564509)
(0.08596145 0.0001939661 -0.00096637381)
(0.085788312 0.00020167894 0.0014156872)
(0.086495012 0.00021324751 0.0044160189)
(0.086617316 0.00025205059 0.0043231801)
(0.087146894 0.0002095868 0.0054675051)
(0.086728971 0.00022609789 0.0055378613)
(0.088984126 7.2110793e-05 0.0053683762)
(0.089126389 0.0002962607 0.0052728077)
(0.089147205 0.00018212893 0.0052626852)
(0.087197596 0.00028723162 0.005444253)
(0.086793068 0.00030799236 0.0055233946)
(0.08901638 0.00045105859 0.0053529945)
(0.092214203 0.00026719535 0.0033584419)
(0.091920439 0.0002743464 0.0028985952)
(0.092444943 0.00027494125 0.0042992023)
(0.091678667 0.00026490892 0.0062377888)
(0.091697396 0.00025904733 0.0062321114)
(0.092442272 0.00027077935 0.0043343621)
(0.091704582 0.00026080584 0.006232272)
(0.088979082 0.00026812394 -0.00049216913)
(0.090061892 0.00022783634 -0.00025878054)
(0.089616256 0.00018936001 -0.00045649598)
(0.08963581 0.00021499423 -0.0004595238)
(0.090082781 0.0002168773 -0.00025662934)
(0.08915859 0.00028673331 -0.0011381996)
(0.089495069 0.00029325964 -0.0005299477)
(0.089506949 0.00019160575 -0.00052732611)
(0.089169922 0.00019519096 -0.0011378653)
(0.089730087 0.00013650019 -0.00012305071)
(0.089717011 0.00016289908 -0.00012254365)
(0.089961137 0.00017753811 -0.00010396605)
(0.090252397 0.0001928179 -0.00028230043)
(0.089974014 0.00014793284 -0.00010383434)
(0.090264121 0.00015719963 -0.00028144892)
(0.090148951 0.0002051759 -0.00089321617)
(0.090159302 0.00016903244 -0.00089335105)
(0.090510971 0.00013412301 -0.00041482796)
(0.091906085 0.0005246653 8.8591711e-05)
(0.091866787 0.00060028475 8.9215458e-05)
(0.093240208 0.00052391914 0.00020348841)
(0.093200079 0.00059943198 0.00020424666)
(0.09119008 0.00047820751 0.00011856999)
(0.091421915 0.00045631136 3.2652029e-05)
(0.091204145 0.0004091035 0.00011849818)
(0.091442746 0.00039367922 3.2375854e-05)
(0.091630723 0.00037256533 -0.00080202167)
(0.091605129 0.00042790631 -0.00080137902)
(0.092533106 0.00037182115 -0.0018043338)
(0.095810855 0.00042967649 -0.00063070582)
(0.095800933 0.00034409826 -0.00063196874)
(0.09573854 0.00048050519 0.0012974929)
(0.095746301 0.00031211802 0.0012965022)
(0.092507315 0.00042690175 -0.0018033395)
(0.095789381 0.00048873387 -0.0006296147)
(0.09577513 0.00040611319 -0.00063146367)
(0.095715334 0.0005468906 0.0012981952)
(0.095728706 0.00037500827 0.0012965824)
(0.091205988 0.00034724063 2.0235929e-05)
(0.091278641 0.00033671092 9.383674e-06)
(0.091270678 0.0003213647 -0.00033981072)
(0.09121175 0.00029146849 2.0214878e-05)
(0.09128929 0.00028440139 9.3015187e-06)
(0.091285095 0.00027323509 -0.00034002858)
(0.090891246 0.00030239029 -0.0011258855)
(0.090908129 0.00025888451 -0.0011262419)
(0.090917787 0.00030160195 -0.0022606275)
(0.092906364 0.00021322263 -0.0040541495)
(0.094926904 0.00027615536 -0.003175272)
(0.094935485 0.00037136967 -0.0031765651)
(0.092916422 0.00041638335 -0.0040530299)
(0.098986267 0.00031793635 -0.0017838917)
(0.098978587 0.00034449263 -0.0017837489)
(0.091214579 0.00024075807 6.5074416e-06)
(0.091285259 0.00023621116 1.5692945e-06)
(0.091157297 0.00022833602 -0.00010854493)
(0.090889413 0.00021777649 -0.00050357113)
(0.091216254 0.00019419216 6.5064373e-06)
(0.091290242 0.00019144926 1.5521882e-06)
(0.091164954 0.00018601337 -0.00010860417)
(0.090899097 0.00017836469 -0.00050369672)
(0.091292625 0.00014944453 4.9389007e-07)