/*--------------------------------*- C++ -*----------------------------------*\
  =========                 |
  \\      /  F ield         | OpenFOAM: The Open Source CFD Toolbox
   \\    /   O peration     | Website:  https://openfoam.org
    \\  /    A nd           | Version:  7
     \\/     M anipulation  |
\*---------------------------------------------------------------------------*/
FoamFile
{
    version     2.0;
    format      ascii;
    class       volVectorField;
    location    "8000";
    object      UMean;
}
// * * * * * * * * * * * * * * * * * * * * * * * * * * * * * * * * * * * * * //

dimensions      [0 1 -1 0 0 0 0];

internalField   nonuniform List<vector> 
33730
(
(-1.1360602e+45 -1.8152587e+43 8.7221103e+43)
(-1.4716247e+45 -4.7181535e+42 8.7475314e+43)
(-1.0483876e+45 -2.4317991e+43 -1.6222509e+43)
(-1.0681574e+45 1.0609747e+43 1.4609946e+44)
(-1.2061539e+45 7.0618956e+41 1.244125e+44)
(-1.0675549e+45 -2.1839987e+43 1.3894316e+44)
(-1.1621887e+45 -4.0518754e+43 9.8708878e+43)
(-1.1902895e+45 1.3811916e+43 1.1525833e+44)
(-1.5082271e+45 4.6184379e+41 2.2769731e+43)
(-1.1627486e+45 1.4780104e+42 7.8435947e+43)
(-1.1542964e+45 1.5531837e+43 7.3625296e+43)
(-1.4569487e+45 -2.247658e+43 8.9101144e+43)
(-1.0427369e+45 2.5228662e+43 -1.3193434e+44)
(-1.0494195e+45 -8.4877958e+42 -1.3174832e+44)
(-8.4983199e+44 -4.7365015e+43 -4.6408377e+42)
(-8.3329443e+44 2.0044717e+43 -6.6502832e+42)
(-1.0718422e+45 -6.0147959e+43 -1.2030273e+43)
(-8.8722005e+44 4.316785e+42 1.0997833e+44)
(-1.1230508e+45 1.6207558e+43 1.2962371e+44)
(-8.9469482e+44 -1.512609e+42 1.0798801e+44)
(-1.1187261e+45 -7.5095315e+42 1.3250099e+44)
(-8.916025e+44 -6.9031266e+42 1.0490798e+44)
(-8.8647328e+44 2.2799692e+42 1.0332402e+44)
(-1.1059099e+45 1.6937033e+43 1.2172354e+44)
(-1.0525657e+45 -2.2273552e+40 1.392754e+44)
(-1.1057944e+45 -4.7212741e+42 1.1944155e+44)
(-1.0805892e+45 -3.8444884e+43 1.4102973e+44)
(-1.1777696e+45 -2.5072966e+42 1.1386619e+44)
(-1.2061651e+45 4.2654549e+42 1.2498728e+44)
(-1.1838535e+45 -7.7092859e+43 1.1252271e+44)
(-1.4936091e+45 -9.2308773e+42 2.4637158e+43)
(-1.2343712e+45 -9.4172741e+40 4.570266e+43)
(-1.1768256e+45 1.4242028e+43 -2.787781e+43)
(-9.893588e+44 5.5986841e+42 -1.0645237e+43)
(-9.8476298e+44 8.035095e+42 -1.2869448e+43)
(-1.0101715e+45 1.7777071e+43 -1.4022927e+43)
(-1.0084396e+45 1.8459533e+43 -9.5252364e+42)
(-1.226002e+45 1.7656472e+43 4.2215158e+43)
(-1.1790843e+45 8.6180801e+42 -2.9115537e+43)
(-1.0507214e+45 -1.8454038e+41 7.888944e+43)
(-1.0577338e+45 1.8800882e+43 7.7587336e+43)
(-1.0446096e+45 1.9723054e+43 7.6466477e+43)
(-1.0476625e+45 -9.2999457e+41 7.5211152e+43)
(-1.1531116e+45 1.3076889e+42 7.4447614e+43)
(-1.1597952e+45 1.2778323e+43 7.4638831e+43)
(-9.7829274e+44 1.2978317e+43 -1.195529e+44)
(-1.0269791e+45 2.5910084e+43 -1.1078834e+44)
(-1.0205343e+45 8.5754744e+42 -1.0870342e+44)
(-9.7214683e+44 1.4801966e+43 -1.2086775e+44)
(-1.039765e+45 1.9411585e+43 -1.2638564e+44)
(-9.7637926e+44 1.0521879e+43 -1.1847047e+44)
(-1.0249607e+45 2.6002358e+43 -1.0801302e+44)
(-1.0235915e+45 1.0497148e+43 -1.0713799e+44)
(-9.7279997e+44 1.5050802e+43 -1.1903816e+44)
(-8.312748e+44 3.1152989e+42 -8.7167272e+42)
(-7.9255986e+44 2.5858838e+42 -1.5477803e+44)
(-6.0675339e+44 -3.0970802e+43 8.6321977e+41)
(-7.8881084e+44 1.8188468e+43 -1.5487353e+44)
(-6.0205939e+44 1.2904182e+43 1.1158139e+39)
(-7.8577524e+44 1.6829607e+43 -1.5590428e+44)
(-6.1510349e+44 -2.3682767e+43 4.4084081e+42)
(-7.9514336e+44 6.3903405e+42 -1.5668791e+44)
(-5.9937176e+44 1.4443922e+43 1.8562147e+42)
(-1.0989527e+45 -1.2279509e+44 -1.596359e+42)
(-1.0561324e+45 -2.2116593e+43 -1.2620089e+44)
(-8.4698415e+44 -7.115992e+43 -6.9037068e+41)
(-7.5050657e+44 3.0525515e+42 8.4621418e+43)
(-7.4613992e+44 5.2833033e+42 8.7270879e+43)
(-9.7265155e+44 1.2705541e+43 1.1106727e+44)
(-9.6897062e+44 -3.9149587e+42 1.1374811e+44)
(-7.5111531e+44 -1.5221305e+41 8.6990646e+43)
(-9.7362108e+44 1.5847475e+43 1.1130245e+44)
(-7.4292825e+44 3.6576507e+42 8.134721e+43)
(-9.7118117e+44 8.2012441e+41 1.0766009e+44)
(-7.5416313e+44 -3.5389617e+42 8.5294914e+43)
(-8.8794062e+44 -1.311837e+42 1.0867052e+44)
(-9.6928637e+44 1.3801495e+43 1.0868393e+44)
(-7.4406223e+44 5.0855785e+39 7.8830235e+43)
(-9.6699473e+44 -1.041324e+42 1.0502487e+44)
(-7.5285565e+44 -4.9437488e+41 8.283651e+43)
(-7.4778497e+44 3.6582969e+42 8.5233808e+43)
(-9.745684e+44 1.0421871e+43 1.0745711e+44)
(-9.6628423e+44 -3.7726746e+42 1.0756172e+44)
(-1.0997729e+45 -9.7295e+42 1.2441205e+44)
(-8.957862e+44 -6.9773475e+42 1.0612691e+44)
(-1.1106535e+45 1.5239383e+43 1.2374626e+44)
(-8.900458e+44 -4.3094693e+42 1.0730527e+44)
(-9.0199089e+44 -1.5964441e+43 1.1156689e+44)
(-1.0681215e+45 -1.9453738e+43 1.4857361e+44)
(-1.1226123e+45 1.0003405e+43 1.2958361e+44)
(-1.1187016e+45 -7.6637091e+42 1.2564827e+44)
(-1.1939534e+45 -1.9568662e+43 1.3094548e+44)
(-1.0800101e+45 -6.8498537e+43 1.414434e+44)
(-1.1877945e+45 -1.4544221e+43 1.2495586e+44)
(-1.170949e+45 6.0680103e+42 -2.7230286e+43)
(-1.2294788e+45 1.5232092e+43 4.1366297e+43)
(-1.1609797e+45 1.3559742e+43 -3.2218679e+43)
(-1.0002818e+45 4.1104285e+42 -6.2283006e+42)
(-9.9030076e+44 2.5281961e+42 -1.0127645e+43)
(-9.8353156e+44 9.4262933e+42 -1.2702118e+43)
(-9.9085248e+44 1.0989387e+43 -9.6999236e+42)
(-1.2224635e+45 -2.0294373e+42 4.2367018e+43)
(-1.1084417e+45 8.5201792e+41 6.565888e+43)
(-1.1195736e+45 1.7089101e+43 6.5857449e+43)
(-1.0606725e+45 7.1469362e+42 -6.7990424e+41)
(-1.0643455e+45 1.3004142e+43 -2.8376135e+42)
(-1.0451407e+45 1.2914575e+43 -4.4116349e+43)
(-1.0527766e+45 7.4007283e+42 -4.4781396e+43)
(-1.0818513e+45 3.7344314e+42 -1.8715046e+43)
(-1.0787569e+45 1.4649807e+43 -1.7637742e+43)
(-1.1926016e+45 2.2133141e+43 -2.0749573e+43)
(-1.1895959e+45 4.6318183e+42 -2.4085185e+43)
(-1.0643301e+45 2.1596048e+42 1.1400023e+42)
(-1.0637705e+45 1.3538579e+43 2.5763177e+42)
(-1.1004628e+45 1.8166032e+43 6.196986e+43)
(-1.1031893e+45 -1.0499047e+42 6.1029127e+43)
(-1.0782726e+45 1.3838924e+43 -2.2997666e+43)
(-1.046796e+45 1.2340899e+43 -5.105469e+43)
(-1.0486426e+45 7.7074963e+42 -4.8148998e+43)
(-1.07331e+45 5.5020355e+42 -2.1148735e+43)
(-9.2469298e+44 1.3934324e+43 -1.7148107e+43)
(-9.0543236e+44 1.0907963e+43 -3.3318039e+43)
(-9.2829446e+44 1.1635111e+43 -3.1360321e+43)
(-9.1458218e+44 9.1286503e+42 -3.948331e+43)
(-1.0607236e+45 1.4979948e+43 -4.4081255e+43)
(-9.293625e+44 1.5907159e+43 3.3738499e+43)
(-9.4411463e+44 1.687549e+43 1.5748801e+43)
(-9.0909066e+44 1.3680601e+43 -1.2950097e+43)
(-9.1195385e+44 8.0264437e+41 7.2332359e+43)
(-9.1485985e+44 1.6788041e+43 6.9558337e+43)
(-9.167667e+44 1.6755031e+43 7.0793227e+43)
(-9.1569674e+44 1.7517359e+42 6.8047125e+43)
(-9.1237221e+44 1.5664607e+43 7.1703754e+43)
(-1.0460595e+45 -1.4390828e+42 8.0052536e+43)
(-9.1204253e+44 -2.6674749e+41 6.8563819e+43)
(-9.125289e+44 5.576891e+41 7.0182698e+43)
(-9.1554586e+44 1.4441098e+43 6.7526692e+43)
(-1.0473928e+45 1.9986215e+43 7.595743e+43)
(-1.0582393e+45 -1.5027289e+42 7.6266817e+43)
(-1.0581285e+45 1.4956369e+43 7.9697791e+43)
(-1.1600118e+45 -1.1848428e+43 8.2117153e+43)
(-1.2028611e+45 1.0683564e+43 -1.0943476e+44)
(-1.1995471e+45 1.3074472e+43 -1.0718612e+44)
(-1.0390944e+45 1.5541961e+43 -1.3624522e+44)
(-1.0036853e+45 2.7575374e+43 -8.5165877e+43)
(-9.9820595e+44 1.0249115e+43 -8.3506439e+43)
(-1.0340254e+45 1.0988026e+43 -1.3580069e+44)
(-9.8017004e+44 7.4188883e+42 -1.1546313e+44)
(-1.0298207e+45 2.3296863e+43 -1.0685676e+44)
(-1.0209882e+45 6.4377858e+42 -1.0426366e+44)
(-9.7133567e+44 1.0436463e+43 -1.1735046e+44)
(-1.0357594e+45 1.4261423e+43 -1.3411398e+44)
(-1.0019123e+45 2.8747005e+43 -8.3583402e+43)
(-1.0038768e+45 1.0934836e+43 -8.271536e+43)
(-1.035057e+45 9.7147728e+42 -1.3514728e+44)
(-7.9895055e+44 -6.1884661e+41 -1.5339066e+44)
(-7.8558005e+44 1.1787933e+43 -1.5265463e+44)
(-6.1731127e+44 -3.7479176e+43 6.2984682e+42)
(-6.0004723e+44 2.8660567e+42 9.0299068e+41)
(-8.3359476e+44 1.1279315e+43 -1.3758101e+44)
(-8.345398e+44 2.0779057e+43 -1.3829884e+44)
(-7.0073159e+44 1.0326373e+43 -1.638502e+44)
(-6.9952067e+44 1.0471361e+43 -1.6246119e+44)
(-4.8374027e+44 4.2051148e+42 -1.4736623e+44)
(-4.8381474e+44 1.1749495e+43 -1.4557408e+44)
(-4.2099109e+44 9.6331814e+42 3.1263638e+43)
(-4.2472888e+44 -1.7856264e+43 3.1792673e+43)
(-8.3104639e+44 9.8178963e+42 -1.3924178e+44)
(-8.3534523e+44 2.1125546e+43 -1.392162e+44)
(-6.9915915e+44 9.9659356e+42 -1.6553175e+44)
(-7.0269173e+44 1.2962751e+43 -1.6357566e+44)
(-4.882846e+44 7.4151512e+42 -1.4725319e+44)
(-4.8332252e+44 1.0950736e+43 -1.4881249e+44)
(-4.3147733e+44 -1.3915727e+43 3.6814026e+43)
(-4.2382083e+44 1.2960004e+43 3.2920331e+43)
(-8.3174511e+44 2.1343029e+43 -1.3964722e+44)
(-8.2865595e+44 9.3828537e+42 -1.4005715e+44)
(-6.9647037e+44 1.0182472e+43 -1.6642099e+44)
(-6.9916217e+44 1.3533446e+43 -1.6395043e+44)
(-4.8762173e+44 6.7049785e+42 -1.5041536e+44)
(-4.8390542e+44 1.3007402e+43 -1.4807656e+44)
(-4.2326104e+44 1.2540604e+43 3.2102237e+43)
(-4.288868e+44 -1.4823647e+43 3.2225744e+43)
(-8.3313008e+44 1.1563574e+43 -1.3944797e+44)
(-8.3607009e+44 2.2697272e+43 -1.4053606e+44)
(-6.9938783e+44 1.1444441e+43 -1.6460599e+44)
(-7.0409425e+44 1.3249997e+43 -1.6585758e+44)
(-4.8446317e+44 8.5711315e+42 -1.4750846e+44)
(-4.7966866e+44 1.1040223e+43 -1.4953971e+44)
(-4.3029533e+44 -1.1182117e+43 3.8251588e+43)
(-4.2251208e+44 1.4176174e+43 3.3875545e+43)
(-1.0523807e+45 -4.4020881e+43 -1.2385478e+44)
(-1.0429913e+45 1.2874772e+42 -1.2215772e+44)
(-8.5118178e+44 -1.0578305e+44 3.5142368e+41)
(-8.3570505e+44 -2.2149652e+43 -1.2852624e+42)
(-9.8054718e+44 9.9881926e+41 -1.150446e+44)
(-1.0301641e+45 1.9698063e+43 -1.0525314e+44)
(-1.0241975e+45 7.4890792e+42 -1.0292681e+44)
(-9.7246401e+44 8.9740521e+42 -1.1252966e+44)
(-8.024883e+44 -8.2667262e+42 -1.5073593e+44)
(-7.9010413e+44 9.763757e+42 -1.489121e+44)
(-6.0903654e+44 -4.6475559e+43 2.9970147e+42)
(-6.0323173e+44 -3.3919877e+42 4.655465e+42)
(-6.5170269e+44 1.2561914e+41 8.3047943e+43)
(-8.3426274e+44 1.1908401e+43 1.0217036e+44)
(-6.4592087e+44 5.2819316e+42 7.816866e+43)
(-8.3279566e+44 4.2717614e+42 9.9718187e+43)
(-6.5011239e+44 4.3576927e+42 8.1599073e+43)
(-6.4604948e+44 5.8536256e+42 8.2517503e+43)
(-8.2872821e+44 -1.0276655e+42 1.0397188e+44)
(-8.3253304e+44 9.8843935e+42 1.0303076e+44)
(-6.5262001e+44 -1.8272864e+42 8.5372639e+43)
(-6.488909e+44 1.5372139e+42 8.1024873e+43)
(-8.3293834e+44 1.1622242e+43 1.0447569e+44)
(-8.3288131e+44 2.3191731e+42 1.0230578e+44)
(-6.4989014e+44 -6.0429811e+39 8.0793097e+43)
(-8.3357076e+44 8.3762871e+42 1.005134e+44)
(-6.4231781e+44 4.9151234e+42 7.973908e+43)
(-8.2876542e+44 -8.426877e+41 1.0031134e+44)
(-7.4890669e+44 1.2140407e+42 8.7083894e+43)
(-6.5852569e+44 -4.7111557e+42 8.5864025e+43)
(-6.5242801e+44 -1.1639913e+42 8.1096782e+43)
(-8.3543629e+44 9.1599099e+42 1.03577e+44)
(-8.346225e+44 5.2877053e+41 1.0124326e+44)
(-7.561835e+44 1.0034434e+42 8.4963943e+43)
(-9.7359805e+44 1.1550966e+43 1.1039645e+44)
(-9.6516935e+44 -6.1879955e+42 1.1134754e+44)
(-6.5243407e+44 -1.8007988e+42 8.0405474e+43)
(-8.3434355e+44 5.9481693e+42 9.9177424e+43)
(-6.435961e+44 1.6722623e+42 7.9275056e+43)
(-8.2927866e+44 -3.5743814e+42 9.9028526e+43)
(-6.5222664e+44 -2.0802979e+42 8.1978472e+43)
(-6.4813887e+44 2.0448995e+42 7.8069519e+43)
(-8.3642265e+44 2.1710076e+42 9.8199395e+43)
(-8.3704658e+44 8.9878437e+42 1.0002779e+44)
(-6.5286876e+44 2.1708268e+42 8.1530774e+43)
(-6.48285e+44 4.4443029e+42 8.2475492e+43)
(-8.2948416e+44 -2.0635317e+42 1.0190058e+44)
(-8.3415503e+44 8.310985e+42 1.0148855e+44)
(-7.5711722e+44 -2.8626653e+42 8.7399297e+43)
(-7.4332628e+44 2.025202e+42 7.9005706e+43)
(-9.744664e+44 1.33274e+43 1.0907945e+44)
(-9.6946302e+44 3.8535521e+41 1.0391474e+44)
(-7.5712013e+44 -5.2346514e+42 8.5879996e+43)
(-7.5068792e+44 -4.708437e+41 8.8270256e+43)
(-9.7527452e+44 7.9135855e+42 1.087104e+44)
(-9.7047085e+44 -7.3355447e+42 1.1016739e+44)
(-8.9618105e+44 -1.0432304e+43 1.1631819e+44)
(-9.7185768e+44 -4.7315839e+42 1.0978021e+44)
(-7.5148473e+44 -4.6651684e+42 8.58017e+43)
(-7.6123258e+44 -8.2852496e+42 9.1454155e+43)
(-9.7456697e+44 9.6644043e+42 1.1335237e+44)
(-1.1104889e+45 2.5293638e+42 1.279928e+44)
(-9.0045692e+44 -2.1181775e+43 1.1060927e+44)
(-1.1104431e+45 -1.997979e+43 1.3481134e+44)
(-8.9312305e+44 -1.9424658e+43 1.0976594e+44)
(-1.1081019e+45 -1.9904576e+43 1.2413207e+44)
(-1.0808899e+45 2.2873685e+42 -1.5550997e+43)
(-1.0513354e+45 5.6852898e+42 -4.2454061e+43)
(-1.0499046e+45 1.2691493e+43 -4.6000914e+43)
(-1.0799793e+45 1.4152882e+43 -2.0037809e+43)
(-1.1921016e+45 1.3851039e+42 -2.165014e+43)
(-1.1176712e+45 -1.5414929e+42 6.1973581e+43)
(-1.1157995e+45 1.3848136e+43 6.4263334e+43)
(-1.0678304e+45 4.7676265e+42 -5.6116526e+42)
(-1.0680934e+45 8.8829859e+42 -1.4879033e+42)
(-1.2251197e+45 -1.2793376e+43 4.5098565e+43)
(-1.154357e+45 9.9643883e+40 -2.95376e+43)
(-1.0852715e+45 1.0631574e+43 -2.0479035e+43)
(-1.0522393e+45 8.1330158e+42 -4.7643599e+43)
(-1.085807e+45 4.2082432e+42 -2.4950373e+43)
(-1.0553553e+45 7.1816781e+42 -5.2945594e+43)
(-1.1780802e+45 1.8525711e+43 -2.6758942e+43)
(-1.1025176e+45 1.7696669e+43 5.9909179e+43)
(-1.065932e+45 3.2312102e+42 5.191231e+42)
(-1.064372e+45 1.5064588e+43 3.0551762e+41)
(-1.1004267e+45 -1.5103151e+42 6.4021221e+43)
(-9.2271053e+44 5.6356714e+42 3.0323832e+43)
(-9.2389415e+44 1.4725374e+43 2.7646348e+43)
(-9.6900301e+44 1.6035424e+43 7.4595852e+43)
(-9.6562011e+44 8.3379538e+41 7.7064133e+43)
(-9.2461793e+44 4.9509294e+42 2.5073522e+43)
(-9.2718899e+44 1.1997191e+43 2.7075644e+43)
(-9.7372241e+44 1.6848761e+43 7.567815e+43)
(-9.7052558e+44 2.2273861e+42 7.2954638e+43)
(-9.0368134e+44 9.5486416e+42 -1.7116105e+43)
(-9.0635006e+44 1.2319133e+43 -1.8610912e+43)
(-9.3665445e+44 1.4042643e+43 8.4084922e+42)
(-9.3478293e+44 6.294694e+42 1.0691231e+43)
(-9.4471078e+44 1.2042086e+43 9.4016369e+42)
(-9.0668799e+44 8.9012537e+42 -2.0939816e+43)
(-9.0644118e+44 8.7932166e+42 -2.0441237e+43)
(-9.4072398e+44 5.8806835e+42 7.3486463e+42)
(-9.1508986e+44 8.8527308e+42 -3.7877503e+43)
(-9.2463821e+44 1.0130824e+43 -3.1569022e+43)
(-9.1294338e+44 1.0614925e+43 -4.141213e+43)
(-9.2376119e+44 8.8953761e+42 -3.4062281e+43)
(-1.0566682e+45 1.4670133e+43 -4.5270454e+43)
(-9.1944326e+44 7.5260619e+42 -4.1966421e+43)
(-9.293993e+44 8.5598569e+42 -3.4641645e+43)
(-9.2823912e+44 6.1630111e+42 -3.1628986e+43)
(-9.1780337e+44 8.1933017e+42 -3.9242661e+43)
(-1.0739625e+45 7.5485046e+42 -4.4143557e+43)
(-9.0667044e+44 5.9982959e+42 -3.2155923e+43)
(-9.0897031e+44 7.7103742e+42 -3.5352457e+43)
(-9.2206056e+44 9.0947856e+42 -2.2592977e+43)
(-9.1969297e+44 4.656819e+42 -1.9978796e+43)
(-9.0389668e+44 8.8611785e+42 -3.491564e+43)
(-9.0526451e+44 9.0688165e+42 -3.2328343e+43)
(-9.1801219e+44 1.0729466e+43 -1.9742063e+43)
(-9.1760104e+44 7.1858503e+42 -2.1686136e+43)
(-1.0358348e+45 1.463935e+43 -6.4214779e+43)
(-1.039724e+45 9.2081269e+42 -6.7187474e+43)
(-1.0537292e+45 1.4612048e+43 -5.3408252e+43)
(-1.0581352e+45 6.7259544e+42 -4.703308e+43)
(-9.4151261e+44 1.0268283e+43 9.425072e+42)
(-9.101824e+44 9.0521282e+42 -1.7725354e+43)
(-9.3809951e+44 1.4066528e+42 1.1587605e+43)
(-9.0770348e+44 4.4600037e+42 -1.526569e+43)
(-9.062311e+44 6.2811586e+42 -1.6665539e+43)
(-9.0670784e+44 1.0357935e+43 -1.445945e+43)
(-9.3922139e+44 1.2808989e+43 1.3153075e+43)
(-9.3779152e+44 3.724185e+42 1.0883773e+43)
(-9.2483911e+44 2.0529463e+42 2.9898968e+43)
(-9.2651828e+44 1.2357808e+43 3.264862e+43)
(-9.6644538e+44 1.5856601e+43 7.620609e+43)
(-9.6614613e+44 3.3849149e+41 7.4014394e+43)
(-9.7031157e+44 1.3011668e+43 7.2430853e+43)
(-9.2739377e+44 1.1264687e+43 2.8079217e+43)
(-9.2572239e+44 1.7420968e+42 3.0670782e+43)
(-9.6485304e+44 -6.3167751e+41 7.3853354e+43)
(-9.2104305e+44 9.2120534e+42 -2.360318e+43)
(-8.9962915e+44 1.1184844e+43 -4.021876e+43)
(-8.9894681e+44 7.2908907e+42 -4.0074125e+43)
(-9.2097931e+44 8.8923078e+42 -2.3921056e+43)
(-9.2062972e+44 1.0595416e+43 -4.0076315e+43)
(-9.1818769e+44 8.5992872e+42 -4.0357324e+43)
(-9.11732e+44 7.6397471e+42 -4.5787651e+43)
(-9.1304959e+44 1.1565146e+43 -4.6016991e+43)
(-9.1725392e+44 9.7851497e+42 -4.2251372e+43)
(-9.2230721e+44 1.0610059e+43 -3.7242777e+43)
(-9.1422538e+44 9.62159e+42 -4.1476812e+43)
(-9.1875776e+44 8.9824827e+42 -3.6062571e+43)
(-9.0036743e+44 1.0010344e+43 -3.5016807e+43)
(-9.0236786e+44 1.1181417e+43 -3.6536398e+43)
(-9.1699194e+44 1.2368747e+43 -2.3684461e+43)
(-9.1344261e+44 9.3283352e+42 -2.2336457e+43)
(-7.4841042e+44 9.292907e+42 -2.383029e+43)
(-7.6619447e+44 1.0717144e+43 -1.5696927e+43)
(-7.4985091e+44 7.8154119e+42 -2.4535095e+43)
(-7.6771184e+44 7.0871827e+42 -1.6360394e+43)
(-7.5371438e+44 9.3646931e+42 -2.6976535e+43)
(-7.653483e+44 9.9867883e+42 -2.274163e+43)
(-7.5595148e+44 8.8808273e+42 -2.7529153e+43)
(-7.6687784e+44 8.2685386e+42 -2.3415824e+43)
(-7.6188426e+44 9.7215188e+42 -2.7537792e+43)
(-7.7140765e+44 1.031939e+43 -2.3392507e+43)
(-7.6432448e+44 9.3914128e+42 -2.8378034e+43)
(-7.7364099e+44 8.8339388e+42 -2.3903538e+43)
(-7.8772562e+44 1.0431165e+43 -2.6096613e+43)
(-7.8974164e+44 9.0632702e+42 -2.708284e+43)
(-7.9357258e+44 1.0493695e+43 -3.5189955e+43)
(-9.3164286e+44 9.4244075e+42 -3.2788569e+43)
(-7.967878e+44 8.9295194e+42 -3.5523221e+43)
(-7.9098966e+44 9.386482e+42 -2.8852599e+43)
(-9.3456965e+44 9.6258102e+42 -3.5751608e+43)
(-7.9696751e+44 9.347704e+42 -3.7945631e+43)
(-9.2221023e+44 6.2843492e+42 -4.0897867e+43)
(-9.2497529e+44 9.443584e+42 -4.582672e+43)
(-7.8690706e+44 1.0931835e+43 1.3688305e+43)
(-8.1838763e+44 1.3125132e+43 3.9929148e+43)
(-7.8848237e+44 4.1556981e+42 1.2320676e+43)
(-7.6532935e+44 9.9427654e+42 -1.0876995e+43)
(-7.9433279e+44 1.171233e+43 6.6766814e+42)
(-7.6632267e+44 5.871297e+42 -1.1968552e+43)
(-7.9604874e+44 5.3648831e+42 5.6955308e+42)
(-7.5422691e+44 9.8001613e+42 -1.9384341e+43)
(-7.7518005e+44 1.0836403e+43 -1.2152681e+43)
(-7.5580274e+44 6.8940998e+42 -2.0128985e+43)
(-7.7644078e+44 6.6797093e+42 -1.3098268e+43)
(-7.8012867e+44 1.5198668e+42 7.4721577e+43)
(-7.8265793e+44 1.3328209e+43 7.2912013e+43)
(-7.8296625e+44 1.3283942e+43 7.1660868e+43)
(-7.8318889e+44 3.8576617e+42 6.9828851e+43)
(-7.8222885e+44 1.1808173e+43 7.4338006e+43)
(-7.8314724e+44 5.9187563e+41 7.2254347e+43)
(-7.8264514e+44 1.1420567e+43 6.9885062e+43)
(-7.7954101e+44 1.7867e+42 7.0514973e+43)
(-7.8594054e+44 1.0799588e+43 7.5143879e+43)
(-7.8642355e+44 -1.7282834e+41 7.2944722e+43)
(-9.1309061e+44 -1.7931555e+40 7.4406831e+43)
(-9.1661734e+44 1.7515558e+43 7.1786982e+43)
(-7.8506174e+44 9.192046e+42 7.0016815e+43)
(-7.8152291e+44 -7.5813356e+41 7.0647131e+43)
(-7.84909e+44 1.1224928e+43 7.2048761e+43)
(-7.8218237e+44 -1.6447187e+41 7.397106e+43)
(-7.8600695e+44 1.0062495e+43 7.0365173e+43)
(-7.8654666e+44 1.597513e+42 6.8722135e+43)
(-9.1437945e+44 2.9527891e+42 6.7753185e+43)
(-9.1659905e+44 1.6614802e+43 7.1116724e+43)
(-9.2063628e+44 1.3142436e+43 6.9978565e+43)
(-9.1755257e+44 -1.217786e+42 7.1600546e+43)
(-9.19535e+44 -3.3249042e+42 7.2994239e+43)
(-9.2039232e+44 1.2128817e+43 7.6171561e+43)
(-1.0513403e+45 -9.2299527e+42 8.2726785e+43)
(-1.0538956e+45 9.5293736e+42 7.874202e+43)
(-1.0539403e+45 -1.1640727e+43 7.7921675e+43)
(-1.2009489e+45 6.2327033e+42 -1.0438348e+44)
(-1.1986289e+45 6.6468988e+42 -1.0185581e+44)
(-1.220685e+45 1.0927604e+43 -6.2275659e+43)
(-1.2198858e+45 1.4922867e+43 -6.1218293e+43)
(-1.0626188e+45 1.5180848e+43 -1.1425845e+44)
(-8.3997292e+44 2.3517988e+43 -1.4460854e+44)
(-8.3786414e+44 8.923742e+42 -1.4365044e+44)
(-1.0515611e+45 2.331675e+43 -6.6413368e+43)
(-1.0433301e+45 1.1353177e+43 -6.4200801e+43)
(-1.0571149e+45 1.1416926e+43 -1.1360497e+44)
(-8.3463792e+44 2.2753598e+43 -1.4298348e+44)
(-8.3389546e+44 8.3384027e+42 -1.4415852e+44)
(-1.0379574e+45 1.060426e+43 -1.3243035e+44)
(-1.0071267e+45 2.6931863e+43 -8.1676421e+43)
(-1.0007075e+45 1.0095272e+43 -8.0072244e+43)
(-1.0320581e+45 7.0181355e+42 -1.3292881e+44)
(-1.0589048e+45 1.5179312e+43 -1.1281637e+44)
(-8.3698277e+44 2.2219413e+43 -1.4191152e+44)
(-8.3594118e+44 9.0482763e+42 -1.4139789e+44)
(-1.0485667e+45 2.512113e+43 -6.499356e+43)
(-1.0495147e+45 1.2423854e+43 -6.3996492e+43)
(-1.0598705e+45 1.0730726e+43 -1.1365476e+44)
(-8.3822059e+44 2.2988307e+43 -1.4334007e+44)
(-8.346976e+44 8.6745169e+42 -1.4415454e+44)
(-7.0544874e+44 8.1867609e+42 -1.6288624e+44)
(-8.3850588e+44 1.97232e+43 -1.378398e+44)
(-7.0038252e+44 7.3233116e+42 -1.6217092e+44)
(-8.3511456e+44 9.547245e+42 -1.3666013e+44)
(-8.3464145e+44 1.9393768e+43 -1.3773246e+44)
(-8.3042841e+44 7.8097368e+42 -1.3724437e+44)
(-7.0200136e+44 1.0002377e+43 -1.6249367e+44)
(-6.9720895e+44 6.5702786e+42 -1.6384651e+44)
(-4.3279265e+44 -2.0205913e+43 3.534683e+43)
(-4.8909277e+44 1.7086238e+42 -1.4620158e+44)
(-4.8420292e+44 8.8997015e+42 -1.4499855e+44)
(-4.2313566e+44 7.9383277e+42 3.2268493e+43)
(-4.7970442e+44 7.5175954e+42 -1.4666212e+44)
(-4.34186e+44 -1.5132993e+43 3.8340968e+43)
(-4.8759635e+44 4.7692355e+42 -1.4572741e+44)
(-4.2085167e+44 8.6884485e+42 3.2281071e+43)
(-7.2695796e+44 1.1073235e+43 -1.7402449e+44)
(-7.2789401e+44 8.9614083e+42 -1.7356098e+44)
(-3.6171219e+44 8.5323594e+42 -1.6357175e+44)
(-3.5802334e+44 6.7617793e+42 -1.6106459e+44)
(-5.0401019e+44 9.2642791e+42 -1.4776232e+44)
(-5.0564108e+44 1.284759e+43 -1.4977221e+44)
(-3.6091557e+44 9.2046414e+42 -1.6055748e+44)
(-3.5883353e+44 6.3663096e+42 -1.6330004e+44)
(-5.0385604e+44 8.8953861e+42 -1.4899515e+44)
(-5.0538547e+44 1.3060578e+43 -1.4749435e+44)
(-2.9266278e+44 2.8572703e+42 -4.3317256e+43)
(-2.8402027e+44 5.7806478e+42 -5.1698775e+43)
(-4.1357782e+44 -5.1312431e+42 6.3150592e+43)
(-4.0134494e+44 9.1585416e+42 5.6100999e+43)
(-2.847618e+44 1.0598622e+42 -5.4756403e+43)
(-4.0849412e+44 -8.540268e+42 5.7710825e+43)
(-2.8840692e+44 3.6550798e+42 -4.4545547e+43)
(-4.0821741e+44 4.1241701e+42 5.9137651e+43)
(-7.285228e+44 9.466938e+42 -1.7634215e+44)
(-7.3086677e+44 1.3145917e+43 -1.7451052e+44)
(-5.0804683e+44 1.455842e+43 -1.499586e+44)
(-3.6341389e+44 1.0058573e+43 -1.640621e+44)
(-5.0557576e+44 1.0614261e+43 -1.4817269e+44)
(-3.5966148e+44 8.1572721e+42 -1.6196691e+44)
(-5.064653e+44 1.3857313e+43 -1.4972402e+44)
(-5.0565372e+44 8.7921912e+42 -1.5188613e+44)
(-3.628356e+44 1.0419612e+43 -1.6240886e+44)
(-3.6139005e+44 6.3469833e+42 -1.6633851e+44)
(-2.8494464e+44 3.4696226e+42 -5.4545748e+43)
(-2.8723157e+44 6.2333405e+42 -4.7472312e+43)
(-4.0698468e+44 6.9577784e+42 5.7658456e+43)
(-4.0523746e+44 -5.5511509e+42 5.6733379e+43)
(-2.8357398e+44 6.7897484e+42 -5.7647643e+43)
(-4.1488741e+44 -1.4590271e+41 6.3638546e+43)
(-4.0257084e+44 1.2390296e+43 5.4915477e+43)
(-2.9300696e+44 6.2586448e+42 -4.4928712e+43)
(-7.2684581e+44 9.667431e+42 -1.7709266e+44)
(-7.2927609e+44 1.3148332e+43 -1.7504218e+44)
(-5.1054442e+44 1.4339714e+43 -1.5205316e+44)
(-5.08344e+44 1.0121179e+43 -1.4982934e+44)
(-3.6698961e+44 1.0079246e+43 -1.6597149e+44)
(-3.6296811e+44 7.8408199e+42 -1.6322491e+44)
(-5.0547191e+44 1.3463669e+43 -1.4919664e+44)
(-5.0315053e+44 9.2792621e+42 -1.5029686e+44)
(-3.6186813e+44 1.0020519e+43 -1.6255826e+44)
(-3.5947632e+44 7.5040181e+42 -1.6484193e+44)
(-2.9261561e+44 4.3782891e+42 -4.4748093e+43)
(-4.1563492e+44 -5.3638577e+42 6.3276091e+43)
(-2.8396404e+44 6.8587507e+42 -5.3063126e+43)
(-4.036513e+44 1.1074249e+43 5.6600418e+43)
(-2.8660459e+44 4.1512326e+42 -5.8046476e+43)
(-4.079151e+44 -6.2539103e+42 5.7102391e+43)
(-2.902544e+44 5.0363639e+42 -4.7886702e+43)
(-4.0916061e+44 5.0456941e+42 5.875821e+43)
(-7.3009279e+44 9.4664912e+42 -1.7588473e+44)
(-7.3330105e+44 1.3312726e+43 -1.7627665e+44)
(-5.035054e+44 1.4608947e+43 -1.4976748e+44)
(-5.0152452e+44 1.0648367e+43 -1.4787215e+44)
(-3.6013539e+44 1.0766569e+43 -1.6465889e+44)
(-3.5746137e+44 8.5689771e+42 -1.6213637e+44)
(-5.0350547e+44 1.3690281e+43 -1.4994939e+44)
(-5.0150454e+44 8.2334641e+42 -1.5166468e+44)
(-3.6012545e+44 1.0485807e+43 -1.6320064e+44)
(-3.5857021e+44 5.5940778e+42 -1.6640627e+44)
(-2.835547e+44 4.7214762e+42 -5.3683333e+43)
(-4.0804924e+44 -4.9860215e+42 5.7838449e+43)
(-2.8632423e+44 7.2778681e+42 -4.6735758e+43)
(-4.0667985e+44 1.0242263e+43 5.7953415e+43)
(-2.9081021e+44 6.5519678e+42 -4.5091702e+43)
(-2.822778e+44 6.0332439e+42 -5.556091e+43)
(-4.1266111e+44 1.5899504e+42 6.2625351e+43)
(-4.0269756e+44 1.2224931e+43 5.6075301e+43)
(-1.0190933e+45 -9.8429394e+41 -1.0368726e+44)
(-1.0223251e+45 1.0074267e+43 -1.0426508e+44)
(-9.7543964e+44 -1.3460282e+42 -1.1377813e+44)
(-1.0244714e+45 1.2761071e+40 -1.0219886e+44)
(-1.0305627e+45 1.5542585e+43 -1.0462695e+44)
(-9.8098547e+44 -3.3853634e+42 -1.1307134e+44)
(-9.7344096e+44 1.4193397e+42 -1.1508026e+44)
(-7.9591049e+44 -1.2613438e+42 -1.4862634e+44)
(-6.0333815e+44 -2.1068211e+43 3.5137005e+42)
(-8.0308497e+44 -1.2505032e+43 -1.4937791e+44)
(-7.9384419e+44 2.1691254e+42 -1.4929674e+44)
(-6.1791249e+44 -5.3995096e+43 8.2422312e+42)
(-6.0366795e+44 -9.3056125e+42 5.7661188e+42)
(-1.0374085e+45 5.7098741e+42 -1.3224711e+44)
(-1.0092294e+45 2.5081358e+43 -8.1115611e+43)
(-1.0047209e+45 9.9765678e+42 -7.8111955e+43)
(-1.0332015e+45 3.5476494e+42 -1.2938988e+44)
(-8.3733008e+44 5.9237906e+42 -1.3606336e+44)
(-8.396152e+44 1.4750282e+43 -1.3782484e+44)
(-7.0628351e+44 2.211102e+42 -1.6085658e+44)
(-7.0221108e+44 2.6013514e+42 -1.592888e+44)
(-8.3435557e+44 1.6672377e+43 -1.3472028e+44)
(-7.0093139e+44 5.3718918e+42 -1.5847594e+44)
(-8.2994041e+44 6.7020348e+42 -1.3432636e+44)
(-6.9665919e+44 4.3813873e+42 -1.6078418e+44)
(-4.9107742e+44 -4.6041534e+42 -1.4434476e+44)
(-4.297516e+44 -2.5465929e+43 3.4440589e+43)
(-4.8684527e+44 2.7722209e+42 -1.414273e+44)
(-4.2690181e+44 4.6387783e+41 3.5311444e+43)
(-4.800726e+44 5.0730402e+42 -1.4300615e+44)
(-4.3588307e+44 -2.3116906e+43 4.0334715e+43)
(-4.8728309e+44 -1.2933776e+42 -1.4158303e+44)
(-4.2528165e+44 4.9102202e+42 3.6103385e+43)
(-5.6248848e+44 2.0215716e+42 8.0932313e+43)
(-5.6190863e+44 -4.5803214e+42 8.3768249e+43)
(-7.236642e+44 9.5768975e+42 8.9213926e+43)
(-7.2227797e+44 3.0669082e+42 8.7400836e+43)
(-7.2418236e+44 7.7267561e+42 8.7122738e+43)
(-5.601268e+44 -4.324892e+41 8.0522624e+43)
(-5.5627545e+44 6.698219e+42 7.971836e+43)
(-7.2002215e+44 1.6533384e+42 8.4281665e+43)
(-5.6215238e+44 7.3098356e+42 8.0694907e+43)
(-5.6318323e+44 -2.0149054e+42 8.4715996e+43)
(-7.2430072e+44 1.0583982e+43 8.919379e+43)
(-7.220267e+44 5.4259115e+42 8.6745877e+43)
(-5.6067231e+44 6.6155395e+42 8.3707333e+43)
(-5.6126016e+44 2.337382e+42 8.2357572e+43)
(-7.2207425e+44 8.6454452e+42 9.1146346e+43)
(-7.1871176e+44 7.3201628e+40 8.9190931e+43)
(-5.6438695e+44 -3.3975847e+41 8.3080968e+43)
(-5.6558523e+44 -5.4820569e+42 8.6434766e+43)
(-7.2141999e+44 7.9047977e+42 9.0290795e+43)
(-7.2328608e+44 6.865944e+41 9.1607875e+43)
(-5.631423e+44 -3.7572163e+42 8.2115558e+43)
(-5.6392688e+44 4.6108444e+42 8.4247127e+43)
(-7.2305191e+44 4.7392163e+42 8.7693249e+43)
(-7.2321779e+44 -1.4969169e+42 8.8470597e+43)
(-5.6073512e+44 2.0086125e+42 8.0736383e+43)
(-5.5999599e+44 -5.6275785e+42 8.1900035e+43)
(-7.2210858e+44 8.0585844e+42 8.5542844e+43)
(-7.2334063e+44 2.9248932e+42 8.6930646e+43)
(-5.6035022e+44 -3.6369265e+41 8.1869113e+43)
(-5.5636822e+44 6.0177321e+42 8.1635718e+43)
(-7.1926353e+44 7.9829374e+42 8.7329895e+43)
(-7.1638161e+44 -3.851279e+41 8.5908752e+43)
(-6.5614598e+44 2.6546454e+42 8.2729474e+43)
(-6.5039191e+44 2.0077486e+42 8.4016691e+43)
(-8.314671e+44 -3.7492922e+42 1.0431768e+44)
(-8.3652207e+44 8.1948913e+42 1.0363606e+44)
(-5.7068308e+44 -2.990676e+42 8.4245128e+43)
(-5.695663e+44 -7.7126152e+42 8.5885891e+43)
(-7.2666984e+44 6.3284881e+42 9.0561325e+43)
(-7.2916609e+44 -5.9274273e+41 9.2107264e+43)
(-5.6654625e+44 -5.3610019e+42 8.2026285e+43)
(-5.6680872e+44 4.2474152e+40 8.4414707e+43)
(-7.2726938e+44 3.20115e+42 8.7997811e+43)
(-7.2719633e+44 -3.3728621e+42 8.896894e+43)
(-6.5897028e+44 1.7203586e+41 8.5730616e+43)
(-6.5183392e+44 4.8512216e+42 7.9997896e+43)
(-8.3882652e+44 3.8883297e+42 9.992931e+43)
(-8.4104886e+44 1.1209371e+43 1.0261488e+44)
(-5.6406661e+44 7.1605981e+41 8.1426485e+43)
(-5.6456018e+44 -7.9205003e+42 8.366571e+43)
(-7.2520311e+44 5.8385776e+42 8.6411342e+43)
(-7.2680217e+44 1.0490577e+42 8.7431638e+43)
(-5.6004225e+44 1.6762212e+42 8.3394721e+43)
(-5.6192491e+44 -2.653532e+42 8.2126251e+43)
(-7.2171041e+44 5.3101262e+42 8.7811025e+43)
(-7.1906964e+44 -3.3345413e+42 8.6860622e+43)
(-5.6276014e+44 2.2014596e+42 8.0604728e+43)
(-5.6478585e+44 -6.2657383e+42 8.5435297e+43)
(-7.2611101e+44 6.8604426e+42 8.9203299e+43)
(-7.2478772e+44 9.6538519e+41 8.6499529e+43)
(-5.6401711e+44 4.5176809e+42 8.291703e+43)
(-5.605643e+44 -3.360845e+42 7.9404604e+43)
(-7.2695898e+44 5.0431042e+42 8.5952047e+43)
(-7.2385333e+44 -3.6720907e+41 8.4404513e+43)
(-5.6345592e+44 -3.5837868e+42 8.3017914e+43)
(-7.2678865e+44 8.8984477e+42 8.8346884e+43)
(-7.2504545e+44 3.3515448e+42 8.6808363e+43)
(-5.627045e+44 4.4487146e+42 8.0626914e+43)
(-5.6356862e+44 1.1950161e+42 8.1944817e+43)
(-5.6639259e+44 3.8989284e+42 8.6387087e+43)
(-7.2288791e+44 6.6561768e+42 8.9427174e+43)
(-7.2272933e+44 -2.200764e+42 9.1105306e+43)
(-6.6000656e+44 -2.7886871e+42 8.7773116e+43)
(-6.5069357e+44 2.3192348e+42 8.1146195e+43)
(-8.3525801e+44 2.2191248e+42 1.0068179e+44)
(-8.3753141e+44 1.0077259e+43 1.0413951e+44)
(-6.5205591e+44 7.5075582e+41 7.9666226e+43)
(-6.4382886e+44 3.6120901e+42 7.9412255e+43)
(-8.3042641e+44 -1.2173083e+42 9.8240877e+43)
(-8.3569562e+44 8.2199664e+42 9.8049231e+43)
(-6.603528e+44 -6.2802581e+42 8.7645299e+43)
(-6.5370388e+44 7.8787355e+41 8.2968292e+43)
(-8.3843152e+44 6.9890152e+42 1.0270726e+44)
(-8.3687463e+44 -1.9863141e+41 1.0032131e+44)
(-8.3626829e+44 6.2926395e+42 1.0262068e+44)
(-6.5489462e+44 -4.3149408e+40 8.3051883e+43)
(-6.4874207e+44 1.7965547e+42 8.4352066e+43)
(-8.3124135e+44 -4.4309086e+42 1.033645e+44)
(-7.5803177e+44 -8.1601297e+42 8.8337274e+43)
(-7.553302e+44 -4.8388885e+42 9.340678e+43)
(-9.6594598e+44 -1.2188236e+43 1.1530611e+44)
(-9.7168262e+44 3.1590553e+42 1.1286633e+44)
(-6.5699957e+44 -5.8679867e+42 8.4080035e+43)