/*--------------------------------*- C++ -*----------------------------------*\
  =========                 |
  \\      /  F ield         | OpenFOAM: The Open Source CFD Toolbox
   \\    /   O peration     | Website:  https://openfoam.org
    \\  /    A nd           | Version:  7
     \\/     M anipulation  |
\*---------------------------------------------------------------------------*/
FoamFile
{
    version     2.0;
    format      ascii;
    class       volScalarField;
    location    "4000";
    object      nut;
}
// * * * * * * * * * * * * * * * * * * * * * * * * * * * * * * * * * * * * * //

dimensions      [0 2 -1 0 0 0 0];

internalField   nonuniform List<scalar> 
34387
(
2.3625454e-26
2.2434618e-26
2.3567015e-26
2.4137349e-26
1.0606852e-25
2.2275389e-26
2.2766438e-26
2.408081e-26
2.4427851e-26
4.5420414e-26
4.6346172e-26
3.136576e-26
3.3737857e-26
3.1719804e-26
3.3065484e-26
3.0263035e-26
4.9591115e-26
4.8227595e-26
3.0461399e-26
3.1753346e-26
3.0275096e-26
1.5315309e-26
1.6482569e-26
2.3638101e-26
2.3621916e-26
1.6415228e-26
1.6309953e-26
2.3199955e-26
2.231976e-26
1.6949544e-26
1.5750134e-26
4.6099463e-26
5.0149366e-26
4.0973236e-26
2.3739388e-26
2.3515865e-26
2.5525363e-26
2.5898597e-26
8.9644343e-26
8.363199e-26
1.2075687e-25
1.070405e-25
2.9011972e-26
3.0044431e-26
3.125974e-26
2.9101475e-26
3.3077971e-26
2.9218487e-26
3.172889e-26
3.0630249e-26
1.6540303e-26
2.2707874e-26
2.4719593e-26
1.5470825e-26
1.6467795e-26
1.5576696e-26
1.6441494e-26
2.4477673e-26
2.2194857e-26
1.6891177e-26
4.7412751e-26
4.6658592e-26
3.4638011e-26
3.7448101e-26
3.1411132e-26
4.5887101e-26
4.3428211e-26
3.4959027e-26
3.2058056e-26
4.593831e-26
4.317089e-26
3.8004699e-26
3.7407533e-26
4.4638727e-26
3.8145488e-26
4.7897144e-26
4.1060265e-26
3.9626855e-26
4.5186082e-26
3.6898864e-26
2.9299166e-26
3.8055605e-26
3.0068243e-26
3.3324754e-26
3.3280714e-26
3.7498455e-26
3.9984784e-26
3.3647678e-26
3.1952914e-26
3.5889294e-26
3.5375123e-26
5.0639084e-26
3.8799781e-26
3.982906e-26
4.8689068e-26
3.7592315e-26
4.8638107e-26
3.3466781e-26
3.5686393e-26
3.6456578e-26
4.356724e-26
4.1486645e-26
4.1668344e-26
3.7440202e-26
3.2018799e-26
3.31974e-26
3.518859e-26
3.1040525e-26
3.1043184e-26
3.0991831e-26
3.6778137e-26
3.5183951e-26
1.2286463e-26
8.5488368e-27
8.3548271e-27
1.2623106e-26
1.817206e-26
2.1489275e-26
1.7623733e-26
1.9859377e-26
1.4402935e-26
1.3557756e-26
9.92218e-27
9.5583851e-27
1.3905983e-26
8.7680881e-27
9.5894513e-27
1.4140925e-26
1.5014924e-26
1.52747e-26
1.6047527e-26
1.5848688e-26
1.6931937e-26
1.7100144e-26
1.4973444e-26
1.4991202e-26
1.3730156e-26
1.4419968e-26
8.3761819e-27
9.5150043e-27
9.4845187e-27
1.4536768e-26
1.3701274e-26
8.4874125e-27
1.0039541e-26
9.6989188e-27
1.7003995e-26
1.7183996e-26
1.7681017e-26
1.712394e-26
1.1762051e-26
1.2901309e-26
1.3295524e-26
1.3270543e-26
8.8401925e-26
3.6019121e-26
4.1609366e-26
3.0647805e-26
3.2109185e-26
3.1494072e-26
3.2109629e-26
2.9269184e-26
3.2218888e-26
3.095408e-26
3.2045538e-26
1.7615135e-26
2.4510656e-26
2.573341e-26
1.7173493e-26
1.6388451e-26
1.7383127e-26
2.6055872e-26
2.4718057e-26
1.7456046e-26
1.6462321e-26
5.1759941e-26
5.1511339e-26
3.5294386e-26
3.4576788e-26
3.8598023e-26
4.0068704e-26
3.193848e-26
3.0870472e-26
3.494754e-26
3.5957494e-26
3.4150821e-26
3.3192242e-26
3.8346627e-26
3.919313e-26
3.705567e-26
3.7150338e-26
3.5024761e-26
3.5457918e-26
4.1424065e-26
3.833106e-26
4.5940219e-26
5.0556743e-26
3.5100695e-26
3.4016758e-26
3.8653429e-26
3.8236054e-26
3.4126928e-26
4.0330478e-26
4.944372e-26
3.7175989e-26
3.1241959e-26
3.0809105e-26
3.5000687e-26
3.5338768e-26
1.9154235e-26
1.7720967e-26
1.5437443e-26
1.5627259e-26
8.3405613e-27
1.2982253e-26
9.4509234e-27
1.546911e-26
1.01682e-26
1.4336487e-26
1.3594925e-26
8.9886032e-27
9.4078586e-27
8.3187507e-27
1.2435542e-26
1.2509929e-26
1.5847536e-26
1.5593635e-26
1.6090393e-26
1.5810355e-26
8.2739172e-27
8.2904865e-27
1.198411e-26
1.2824914e-26
1.7064542e-26
1.7215382e-26
1.5069338e-26
1.5274758e-26
1.4884673e-26
1.4148195e-26
9.5162656e-27
9.4123731e-27
1.3989247e-26
9.2155869e-27
1.0568546e-26
1.4356632e-26
1.8984902e-26
1.6312478e-26
1.6651132e-26
1.7725052e-26
1.3069184e-26
1.2870708e-26
1.5535572e-25
1.5683312e-25
1.0346301e-25
1.0579288e-25
1.1512336e-25
1.1377366e-25
1.7780132e-25
1.7464639e-25
2.7971671e-26
3.1162174e-26
3.3554504e-26
2.9263623e-26
8.2020111e-26
7.834161e-26
1.6498401e-25
1.6490841e-25
1.0761861e-25
1.0815147e-25
3.3645951e-26
3.1567303e-26
2.7679922e-26
2.9293335e-26
8.0492605e-26
7.710747e-26
3.1613593e-26
2.9760221e-26
2.8238635e-26
3.0316814e-26
3.1347094e-26
2.9484252e-26
2.8029159e-26
3.0506149e-26
7.8302646e-26
2.8999044e-26
3.3286956e-26
3.6185396e-26
3.121539e-26
8.5502656e-26
3.0260302e-26
3.5871895e-26
3.0161043e-26
3.1073429e-26
3.3150437e-26
3.1782624e-26
3.2100683e-26
3.1774033e-26
3.3194298e-26
2.3276044e-26
2.7315031e-26
2.9040933e-26
2.4521091e-26
2.4660216e-26
2.395328e-26
2.3521592e-26
2.4624605e-26
2.3886332e-26
2.9312232e-26
3.0080059e-26
2.4948681e-26
2.5832848e-26
2.2949698e-26
2.3315565e-26
2.4691917e-26
2.5997441e-26
2.6872578e-26
2.614289e-26
2.7303014e-26
2.671396e-26
2.3005812e-26
2.3625068e-26
2.7263052e-26
2.3753292e-26
2.6272527e-26
2.9542665e-26
2.5735602e-26
3.1596677e-26
2.8238279e-26
2.5721222e-26
2.7112028e-26
2.6216498e-26
2.864284e-26
2.9607554e-26
3.2728165e-26
2.7490415e-26
2.5739842e-26
2.8903423e-26
3.0768571e-26
2.8478983e-26
2.7429027e-26
2.708309e-26
2.5388934e-26
2.9603167e-26
2.6134874e-26
2.5599258e-26
2.8518761e-26
8.6208338e-26
8.7856669e-26
7.5037289e-26
7.3462122e-26
1.7670512e-25
1.7337107e-25
1.1627805e-25
1.1656235e-25
1.1961506e-25
1.178923e-25
1.8353128e-25
1.7907734e-25
8.3422154e-26
3.1932338e-26
3.7154165e-26
3.6871404e-26
3.1990599e-26
8.5829092e-26
1.5598873e-25
1.5372026e-25
1.0241061e-25
1.0336821e-25
1.0697666e-25
1.0637222e-25
1.6429965e-25
1.6408967e-25
2.7316783e-26
3.1636989e-26
3.3101824e-26
2.8634668e-26
7.8529249e-26
7.5961877e-26
3.2624388e-26
3.3300215e-26
3.3051049e-26
3.2389596e-26
2.8084129e-26
2.780321e-26
2.9611084e-26
2.8788168e-26
2.209951e-26
2.1603169e-26
2.3397172e-26
2.402174e-26
2.5199326e-26
2.2934797e-26
1.9977409e-26
2.2475937e-26
2.1419553e-26
2.5155549e-26
2.4416721e-26
2.1506391e-26
2.2677438e-26
2.1757374e-26
2.2465396e-26
2.1775988e-26
2.3490394e-26
2.1176945e-26
2.1152289e-26
2.3713955e-26
2.3796665e-26
2.2510217e-26
2.43526e-26
2.5587516e-26
2.6200576e-26
2.8743056e-26
2.990569e-26
2.6316242e-26
2.6055121e-26
2.4015892e-26
2.1520374e-26
2.3011441e-26
9.0348712e-27
3.7110017e-27
3.757501e-27
5.8990618e-27
6.028977e-27
3.6670502e-27
3.6457433e-27
5.3689839e-27
5.446471e-27
9.8898631e-27
1.7290384e-26
1.9612912e-26
2.0424159e-26
1.806226e-26
2.0901181e-26
1.8540313e-26
1.7478088e-26
2.0148273e-26
1.7573781e-26
2.0801596e-26
1.8311102e-26
1.9763121e-26
2.162085e-26
1.674892e-26
1.6028088e-26
1.8693537e-26
9.8846533e-27
9.5704476e-27
9.869987e-27
9.7825783e-27
9.8595293e-27
7.9746183e-27
9.4505111e-27
9.7959617e-27
1.1111409e-26
9.9298602e-27
9.8212808e-27
1.0267666e-26
9.7317768e-27
9.4203185e-27
9.9356661e-27
1.0101971e-26
1.159484e-26
7.627193e-27
1.0387366e-26
1.0800379e-26
8.782432e-27
7.9495908e-27
8.4488563e-27
8.9685174e-27
9.0481071e-27
8.8131089e-27
9.9803352e-27
8.8092585e-27
9.9772859e-27
8.1009878e-27
9.2399298e-27
1.0206624e-26
1.8793948e-26
1.6048318e-26
1.670217e-26
1.9560106e-26
2.097422e-26
1.9769551e-26
1.7884071e-26
1.9146786e-26
1.7846604e-26
2.0087113e-26
1.9966154e-26
1.7977451e-26
1.6428497e-26
1.4090894e-26
1.4863484e-26
1.6790984e-26
1.6949595e-26
1.6676401e-26
1.920542e-26
1.9683303e-26
1.6887387e-26
1.6119803e-26
1.906477e-26
1.9521051e-26
1.8332256e-26
1.9444974e-26
1.94991e-26
1.7987936e-26
1.9874237e-26
1.9400176e-26
1.781984e-26
1.8152405e-26
3.6844145e-27
7.3244462e-27
9.8511648e-27
9.1341369e-27
1.0866237e-26
3.7387643e-27
8.4353963e-27
1.0437872e-26
9.2248069e-27
1.0533364e-26
5.4222901e-27
5.6091125e-27
8.7042564e-27
8.1140659e-27
9.0287917e-27
9.3698492e-27
8.4446869e-27
8.1783606e-27
9.1511536e-27
9.2002954e-27
3.7225977e-27
7.9622666e-27
1.0311034e-26
9.4372363e-27
1.0985641e-26
3.7051379e-27
8.3813894e-27
1.0531858e-26
9.0326332e-27
9.1436663e-27
5.3551955e-27
5.6859907e-27
9.8169681e-27
8.694718e-27
9.8799269e-27
1.0816429e-26
8.8626927e-27
8.4167846e-27
9.3724723e-27
9.8383236e-27
2.0563055e-26
2.4235765e-26
2.2964917e-26
2.0331379e-26
2.0251143e-26
1.6880544e-26
1.7801317e-26
2.0777304e-26
1.8884334e-26
1.7838724e-26
2.051761e-26
2.163106e-26
2.0805463e-26
2.2237778e-26
2.3563417e-26
2.1492029e-26
1.0295371e-26
1.0048492e-26
1.1148884e-26
1.131245e-26
4.8306781e-26
9.4824851e-26
7.710248e-26
1.0100318e-25
1.1514617e-25
2.1116302e-25
2.2559055e-25
3.5828874e-26
1.4990042e-26
1.4929904e-26
4.2953574e-26
3.2759044e-26
3.5755385e-26
3.7757081e-26
3.9491532e-26
3.7909404e-26
3.4140699e-26
4.5903782e-26
4.2407902e-26
3.4732955e-26
3.4139415e-26
3.0845707e-26
3.4099082e-26
3.194794e-26
3.7034981e-26
4.3810345e-26
3.3010848e-26
3.6609742e-26
3.6341624e-26
3.9936908e-26
4.0358383e-26
4.0090033e-26
3.6270101e-26
4.9350107e-26
4.5640367e-26
3.238285e-26
3.1195852e-26
3.5485479e-26
3.585641e-26
3.4415868e-26
4.0225441e-26
4.8119229e-26
3.7029192e-26
1.7331024e-26
1.736621e-26
1.7191774e-26
1.5231077e-26
1.5460742e-26
1.394567e-26
1.0038684e-26
9.677331e-27
8.4983349e-27
9.728928e-27
1.4831406e-26
1.5064371e-26
9.6939877e-27
8.5260854e-27
1.5706496e-26
1.6199918e-26
1.5359271e-26
1.5913019e-26
1.2784036e-26
1.2415172e-26
1.7415637e-26
1.5509738e-26
1.792755e-26
1.5992552e-26
1.5479988e-26
1.4878005e-26
9.8189246e-27
8.3531048e-27
9.6760598e-27
1.4704128e-26
1.5612095e-26
8.2982915e-27
9.9396535e-27
1.0229499e-26
1.8434068e-26
1.7467465e-26
1.6800761e-26
1.7614259e-26
1.274618e-26
1.2927303e-26
1.3188143e-26
1.2700681e-26
2.8837323e-26
3.4641116e-26
3.3601417e-26
2.8091862e-26
2.6993336e-26
3.1506775e-26
3.3726296e-26
2.8707577e-26
2.9009926e-26
3.0161826e-26
3.1092152e-26
2.975712e-26
3.1228963e-26
3.1101448e-26
3.0708239e-26
2.9528802e-26
2.2819108e-26
2.5420952e-26
2.4693998e-26
2.4351179e-26
2.3982337e-26
2.5019742e-26
2.4080024e-26
2.5052068e-26
2.3214167e-26
2.5478785e-26
2.7880475e-26
2.3967239e-26
2.7689494e-26
2.6949965e-26
2.4105973e-26
2.3875107e-26
2.5892704e-26
2.2910309e-26
2.3225961e-26
2.6222539e-26
2.5467971e-26
2.270407e-26
2.363096e-26
2.6429909e-26
2.3714084e-26
2.6503121e-26
2.8700479e-26
2.4932137e-26
2.3060686e-26
2.5810225e-26
2.8001911e-26
2.4133469e-26
3.0517996e-26
2.8788361e-26
2.7370569e-26
2.9331121e-26
3.1479299e-26
2.9814982e-26
2.8756494e-26
3.0421926e-26
2.9559894e-26
3.2828914e-26
3.4339327e-26
3.0376973e-26
3.2929001e-26
3.1140217e-26
2.7890773e-26
2.956464e-26
3.2008918e-26
3.4182848e-26
3.7233785e-26
4.1190607e-26
2.8556038e-26
3.0791404e-26
3.3352543e-26
3.4808226e-26
3.3789048e-26
3.4548041e-26
3.7527989e-26
3.6476429e-26
3.4139684e-26
3.1527166e-26
3.1039265e-26
3.3118145e-26
3.1596365e-26
2.9239157e-26
3.6296917e-26
3.2486988e-26
3.5671306e-26
3.4257058e-26
2.9218449e-26
3.0458706e-26
3.265247e-26
3.1036098e-26
2.9118872e-26
3.167706e-26
3.2311659e-26
3.0497218e-26
2.9841517e-26
3.1294334e-26
2.7443858e-26
2.7374289e-26
2.7045547e-26
2.8857162e-26
2.7161551e-26
2.9305555e-26
3.2997251e-26
2.8634893e-26
2.7787711e-26
3.4732725e-26
2.7975934e-26
3.3012577e-26
3.0384494e-26
2.7526671e-26
2.5917605e-26
2.6658109e-26
2.4919609e-26
2.4446517e-26
2.3783546e-26
2.5976314e-26
2.4653023e-26
2.2681394e-26
2.4112662e-26
2.5694065e-26
2.8958519e-26
2.7265527e-26
2.3677029e-26
2.4951787e-26
2.3614725e-26
2.5857566e-26
2.918677e-26
2.4956917e-26
1.6855998e-26
1.7560429e-26
2.0476827e-26
1.9711186e-26
2.0799838e-26
1.8938126e-26
2.1011872e-26
2.0197718e-26
1.9109699e-26
2.0800266e-26
1.8997536e-26
1.8137847e-26
1.9113499e-26
2.0081828e-26
1.9164625e-26
1.7607767e-26
3.5868233e-27
5.5628937e-27
5.6360584e-27
3.7000885e-27
1.0620816e-26
8.7662754e-27
1.1012533e-26
1.1092083e-26
9.4808666e-27
9.9926296e-27
9.9682226e-27
9.3295881e-27
9.2036803e-27
9.7946579e-27
9.1462772e-27
1.0435757e-26
9.7433389e-27
9.6681035e-27
1.038345e-26
1.0324848e-26
3.6223616e-27
1.0091203e-26
8.3443732e-27
1.1165301e-26
1.1068506e-26
3.6322774e-27
1.1054901e-26
1.026254e-26
1.1282303e-26
1.0459376e-26
9.5276366e-27
8.9978059e-27
9.0311457e-27
9.4574934e-27
9.5317671e-27
8.242827e-27
8.979503e-27
1.0051339e-26
5.3855798e-27
5.40395e-27
8.6180384e-27
9.2028372e-27
2.0009332e-26
2.3217459e-26
2.167412e-26
1.926557e-26
1.9950876e-26
1.70916e-26
1.7354573e-26
1.9825703e-26
2.0339395e-26
2.3635068e-26
2.2740142e-26
1.9903849e-26
1.9494603e-26
1.6434567e-26
1.7780138e-26
1.9783981e-26
3.6313039e-27
3.6697389e-27
5.3062394e-27
5.4407294e-27
3.6526574e-27
5.2846178e-27
5.6112307e-27
3.7078944e-27
9.6234451e-27
9.2235589e-27
1.8530093e-26
1.9072281e-26
2.1224564e-26
1.9073178e-26
1.8444484e-26
1.8546528e-26
1.8620903e-26
2.0725886e-26
2.0748213e-26
1.7967272e-26
1.7451272e-26
1.887085e-26
1.8316801e-26
1.8458924e-26
2.1217594e-26
1.90919e-26
1.0185803e-26
8.0168278e-27
1.084126e-26
1.147097e-26
1.0795432e-26
7.2126131e-27
1.0483652e-26
1.0897713e-26
9.5166038e-27
8.6211035e-27
9.0877647e-27
9.633921e-27
9.3180707e-27
8.3147954e-27
9.0366687e-27
9.6971113e-27
1.0434867e-26
1.0101153e-26
1.1332091e-26
1.1776229e-26
9.5649127e-27
9.3444137e-27
9.9994052e-27
9.9976467e-27
1.3026085e-26
1.1270305e-26
1.1758169e-26
1.2183149e-26
9.6348153e-27
1.0067545e-26
8.8830121e-27
1.0280353e-26
1.906745e-26
1.7727603e-26
2.0998557e-26
2.2286332e-26
1.947612e-26
1.8607844e-26
2.1808333e-26
2.3189475e-26
2.1461345e-26
2.3334869e-26
2.4840415e-26
2.232883e-26
2.4460252e-26
2.3694761e-26
2.2034614e-26
2.1947106e-26
1.0569686e-26
1.0599476e-26
1.242681e-25
1.2699343e-25
1.0672411e-25
1.1263827e-25
1.222894e-25
1.2144945e-25
1.3402157e-25
1.3004585e-25
9.0883227e-26
8.6674778e-26
9.4103344e-26
9.6001998e-26
2.3048141e-26
2.3457266e-26
2.8872738e-26
2.8477146e-26
2.2040204e-26
2.0317688e-26
2.5203107e-26
2.7581915e-26
1.2423298e-25
1.2598457e-25
1.1236892e-25
1.1743184e-25
9.155771e-26
8.7506154e-26
9.0274304e-26
9.3590527e-26
2.2224489e-26
2.2572921e-26
2.7838505e-26
2.7433437e-26
2.242703e-26
2.1482771e-26
2.6740907e-26
2.7790463e-26
8.2496573e-26
8.0933221e-26
7.7597641e-26
8.1554991e-26
8.5455473e-26
8.0054869e-26
7.7121337e-26
8.487555e-26
9.0716666e-26
2.2506795e-26
2.0842447e-26
2.5591049e-26
2.7770515e-26
8.9998344e-26
9.7433282e-26
9.9506553e-26
2.3330923e-26
2.3853898e-26
2.9175453e-26
2.8670226e-26
9.1343681e-26
9.6758406e-26
8.4113563e-26
8.4065068e-26
8.6859964e-26
8.6921292e-26
8.6287439e-26
8.3742152e-26
8.464587e-26
6.8668224e-26
7.0279651e-26
7.4563952e-26
7.4800576e-26
6.19075e-26
5.9896414e-26
5.7461992e-26
6.1054551e-26
6.9681498e-26
7.7631293e-26
7.3351942e-26
7.2432811e-26
6.3416626e-26
5.7121116e-26
5.791915e-26
6.1471228e-26
6.4404681e-26
6.5546201e-26
6.6087195e-26
6.6503585e-26
6.3496502e-26
5.973525e-26
5.8945378e-26
6.6833934e-26
7.1278237e-26
7.055981e-26
7.679388e-26
7.5833171e-26
7.5424313e-26
7.2615415e-26
7.3291948e-26
7.5257185e-26
8.6123167e-26
9.5149968e-26
8.206152e-26
9.1962785e-26
9.0645332e-26
8.7620516e-26
8.4152528e-26
8.7197424e-26
7.7959659e-26
7.8371061e-26
7.7784439e-26
7.5181638e-26
8.3213501e-26
7.4435734e-26
7.4922079e-26
8.3826084e-26
7.6085777e-26
7.5536882e-26
7.0712151e-26
7.1203272e-26
1.3345952e-25
1.3478046e-25
1.1547327e-25
1.2025505e-25
1.238234e-25
1.2263148e-25
1.3917695e-25
1.3290553e-25
9.6602137e-26
2.4517428e-26
2.3066953e-26
2.8539191e-26
3.039778e-26
9.8114839e-26
9.5439849e-26
1.0040378e-25
2.348373e-26
2.4743011e-26
3.0433797e-26
2.9100606e-26
1.2653952e-25
1.2538529e-25
1.099839e-25
1.1417882e-25
1.1768143e-25
1.1763447e-25
1.3168217e-25
1.2688869e-25
8.645242e-26
9.0203929e-26
8.8244302e-26
9.0927505e-26
2.136452e-26
2.1986594e-26
2.7431876e-26
2.6817361e-26
2.1892184e-26
2.1543084e-26
2.6663599e-26
2.7424275e-26
8.9060966e-26
8.8809232e-26
8.6804814e-26
8.814895e-26
7.9792569e-26
7.6845195e-26
7.9701376e-26
8.022432e-26
5.5698328e-26
5.5144475e-26
5.8991178e-26
6.0829415e-26
7.1192636e-26
6.5420874e-26
6.4253499e-26
7.256238e-26
6.7916208e-26
6.995398e-26
6.5896478e-26
6.6687489e-26
5.7742452e-26
5.6863685e-26
5.8038825e-26
5.4290745e-26
5.6986704e-26
5.4837376e-26
5.4417442e-26
5.9807041e-26
5.9175378e-26
5.8035539e-26
6.2374886e-26
6.4219731e-26
7.4976562e-26
7.2565369e-26
7.5006328e-26
7.6132493e-26
6.9006591e-26
6.5518512e-26
6.6340373e-26
6.9551479e-26
9.3002557e-27
6.5956153e-27
8.239945e-27
3.3502787e-27
3.344905e-27
3.348781e-27
3.3182993e-27
3.4674575e-27
3.3331627e-27
3.3370407e-27
3.4706476e-27
3.3811095e-27
3.2017066e-27
3.3268959e-27
3.591813e-27
3.4196056e-27
3.3134207e-27
3.315909e-27
3.6338419e-27
8.6415952e-27
8.4602071e-27
1.0602256e-26
4.4117959e-26
4.5989575e-26
4.7998588e-26
4.8416671e-26
3.9665139e-26
4.0990284e-26
3.7399042e-26
3.6641557e-26
4.5297549e-26
5.2083596e-26
4.7931365e-26
4.5337046e-26
3.9015898e-26
3.6513124e-26
3.5397594e-26
3.5233081e-26
2.5981779e-26
3.7909398e-26
1.3537473e-26
1.425659e-26
2.3522381e-26
2.7138323e-26
1.4807099e-26
1.4204823e-26
2.9504863e-26
2.7177075e-26
2.5728964e-26
2.734791e-26
2.3814216e-26
2.4228969e-26
2.6543267e-26
2.6003338e-26
2.0527132e-26
3.4499716e-26
1.1020226e-26
1.5022932e-26
2.6200642e-26
2.2901169e-26
2.6359401e-26
2.8052702e-26
2.349739e-26
2.2201236e-26
2.8001068e-26
2.9229653e-26
1.1019433e-26
3.2233009e-26
1.7463647e-26
2.5054204e-26
3.6767781e-26
3.624384e-26
3.7188713e-26
3.7323469e-26
4.6002165e-26
4.6682574e-26
4.5748542e-26
4.7899087e-26
4.4919534e-26
4.4682164e-26
4.4668321e-26
4.5719291e-26
3.2650921e-26
3.2822106e-26
3.6219748e-26
3.3910905e-26
3.8028535e-26
3.7960889e-26
3.6634873e-26
3.6364155e-26
3.6376626e-26
3.7072743e-26
3.6020447e-26
3.5611612e-26
4.6115198e-26
4.4816709e-26
4.4836121e-26
4.5990852e-26
4.533289e-26
4.5812455e-26
4.6078832e-26
4.6225047e-26
3.3959682e-27
3.4919409e-27
3.5170095e-27
3.5609441e-27
3.2099169e-26
1.1329987e-26
1.6421351e-26
1.9981902e-26
3.4432639e-27
3.2846674e-27
3.4213758e-27
3.6900223e-27
4.6954989e-26
1.0841273e-26
1.7432134e-26
1.9467071e-26
7.3829995e-27
8.4983151e-27
2.5918306e-26
2.4558425e-26
2.702384e-26
2.7104911e-26
2.4217308e-26
2.5501659e-26
2.737366e-26
2.6197833e-26
3.5264692e-27
3.3006092e-27
3.3970262e-27
3.6903916e-27
4.1853804e-26
1.1746374e-26
1.7851552e-26
2.0316414e-26
3.3808236e-27
3.2027513e-27
3.3531697e-27
3.594046e-27
3.547455e-26
1.1981802e-26
1.8554715e-26
2.1318208e-26
8.8129483e-27
8.1412857e-27
3.2021914e-26
2.7879042e-26
2.9609228e-26
3.3199786e-26
2.7320205e-26
2.7076808e-26
2.890685e-26
2.8938261e-26
5.1582613e-26
5.1810304e-26
5.007332e-26
5.0225992e-26
3.9105983e-26
4.0285254e-26
3.9676401e-26
3.9311961e-26
4.4994287e-26
4.143277e-26
3.9788339e-26
4.3553386e-26
5.0694424e-26
5.0376992e-26
5.3442626e-26
5.3958347e-26
1.0912645e-26
1.0915285e-26
1.0191232e-26
1.1375152e-26
1.1882536e-26
1.186604e-26
8.1795486e-26
9.7601473e-26
9.2584705e-26
8.0957145e-26
2.0197369e-25
4.0685294e-26
4.3518111e-26
4.5222632e-26
3.7669996e-26
3.4967712e-26
3.4111912e-26
3.7546521e-26
3.9200899e-26
1.7330896e-25
1.8682347e-25
1.8923538e-25
3.4721205e-26
9.199804e-26
8.569133e-26
8.5656229e-26
8.8310775e-26
8.9460959e-26
9.530607e-26
3.7661125e-26
1.4238911e-26
1.4148358e-26
1.2659015e-26
2.8352287e-26
3.2412356e-26
1.3612951e-26
2.4958112e-26
3.3631104e-26
1.3539125e-26
1.312604e-26
3.0616203e-26
2.7616049e-26
2.3517577e-26
2.6424788e-26
3.177436e-26
2.7777141e-26
3.0186223e-26
3.4764793e-26
2.5265496e-26
2.689067e-26
2.9680903e-26
2.7555946e-26
3.1619145e-26
3.0925746e-26
3.0485868e-26
2.8658369e-26
3.2414834e-26
3.7039865e-26
3.2254369e-26
3.722104e-26
3.1295921e-26
3.0449055e-26
2.6456002e-26
2.699159e-26
3.1154103e-26
3.0449371e-26
2.815746e-26
2.9145553e-26
3.2765212e-26
3.2070208e-26
3.183333e-26
3.2284433e-26
2.0804676e-26
2.5231737e-26
2.7242844e-26
2.2671232e-26
2.3509838e-26
2.3373607e-26
2.5305738e-26
2.5088094e-26
2.3923407e-26
2.4593042e-26
2.3639749e-26
2.4896703e-26
2.3424935e-26
2.5691586e-26
2.8160857e-26
2.4108776e-26
2.4534891e-26
2.3134856e-26
2.4436667e-26
2.558111e-26
2.9411692e-26
2.8298973e-26
2.5116146e-26
2.5637464e-26
2.4794932e-26
3.1323159e-26
2.819009e-26
2.4464221e-26
2.7145474e-26
2.4385025e-26
2.5974659e-26
2.4916401e-26
2.9716926e-26
3.5317655e-26
3.5729928e-26
3.0268728e-26
3.0135815e-26
3.493825e-26
3.5623853e-26
3.0501454e-26
3.1938635e-26
3.3070198e-26
3.2338935e-26
3.1369704e-26
3.2270087e-26
3.1804863e-26
3.2595816e-26
3.1455873e-26
3.160505e-26
3.5175459e-26
3.9012796e-26
3.2680586e-26
3.2095635e-26
3.2428139e-26
2.7938587e-26
2.7462578e-26
3.2364445e-26
3.2865332e-26
3.0110737e-26
3.0154439e-26
3.5011023e-26
3.3291891e-26
3.1521379e-26
3.423622e-26
2.5054179e-26
2.4102877e-26
2.5294265e-26
2.583972e-26
2.6999858e-26
2.4245044e-26
2.5446701e-26
2.5898726e-26
2.5365304e-26
2.8553848e-26
2.7888227e-26
2.5005382e-26
2.9193829e-26
2.8226561e-26
2.4426734e-26
2.4943662e-26
2.7337045e-26
2.6822686e-26
2.6184215e-26
2.8361623e-26
2.627183e-26
2.832314e-26
3.2119135e-26
2.7664781e-26
2.6896345e-26
3.4806223e-26
3.2840659e-26
2.6128926e-26
3.0640201e-26
2.7639454e-26
2.60889e-26
2.642638e-26
1.8494093e-26
2.3232557e-26
2.2884548e-26
1.9076103e-26
2.2893705e-26
1.8737706e-26
1.9417039e-26
2.0649108e-26
1.7714225e-26
1.918204e-26
1.8764288e-26
2.0006404e-26
1.7904158e-26
1.8222713e-26
2.0405679e-26
1.8197099e-26
3.6560247e-27
1.0894841e-26
8.3404504e-27
1.1736199e-26
1.226395e-26
3.6411504e-27
1.1525245e-26
7.3788527e-27
1.2300788e-26
1.1706388e-26
9.6270121e-27
9.4868291e-27
1.0052751e-26
1.0148048e-26
9.4393034e-27
8.3588634e-27
9.2000863e-27
9.5181762e-27
5.5217949e-27
5.2978757e-27
9.8842482e-27
9.2820633e-27
9.2274937e-27
9.4013599e-27
3.6734257e-27
1.0357672e-26
1.0495886e-26
1.1556669e-26
1.1408956e-26
3.6612986e-27
1.0412169e-26
8.264535e-27
1.190719e-26
1.1959242e-26
9.7316407e-27
8.4715009e-27
9.6061778e-27
1.0104007e-26
5.296527e-27
5.3494238e-27
1.7601259e-26
1.4973654e-26
1.61748e-26
1.8738449e-26
1.776228e-26
1.7838519e-26
2.0083065e-26
1.9388458e-26
2.1152907e-26
1.9758775e-26
1.7676379e-26
1.9231098e-26
2.1359842e-26
1.9385411e-26
2.0056973e-26
2.2027625e-26
8.9328394e-27
9.3732261e-27
1.8940915e-26
1.7527595e-26
2.0053323e-26
2.0997776e-26
2.0465498e-26
1.8486685e-26
1.9912063e-26
2.1040602e-26
2.2926504e-26
1.8070988e-26
2.0165424e-26
2.0378371e-26
1.9680418e-26
2.1325819e-26
1.7980644e-26
1.8957397e-26
3.6972982e-27
1.0521038e-26
8.1897703e-27
1.154466e-26
1.1669335e-26
3.6646346e-27
1.1335114e-26
7.3356767e-27
1.1323302e-26
1.1600671e-26
9.3932104e-27
8.8379595e-27
9.4908406e-27
9.95297e-27
5.3277797e-27
5.389594e-27
8.5108094e-27
9.239115e-27
1.0401424e-26
9.5065337e-27
3.573584e-27
9.0893706e-27
8.0359528e-27
1.1667036e-26
1.2100369e-26
3.6123547e-27
1.0885868e-26
7.717838e-27
1.1763009e-26
1.1403355e-26
5.3562427e-27
5.4888838e-27
8.773663e-27
9.5544732e-27
1.1256726e-26
9.9488387e-27
9.405598e-27
1.0674568e-26
1.2023968e-26
1.056072e-26
2.0934659e-26
2.0219291e-26
2.3238029e-26
2.2591028e-26
2.0388207e-26
1.7487943e-26
2.0227116e-26
2.2250853e-26
2.0630295e-26
2.2387149e-26
2.420792e-26
2.1907188e-26
2.4667955e-26
2.5213207e-26
2.2395701e-26
2.1840468e-26
9.0724277e-27
8.4724506e-27
1.0469291e-26
1.0192297e-26
9.5819752e-26
1.0269161e-25
9.1817209e-26
9.2894663e-26
8.7485475e-26
8.7699209e-26
9.7566644e-26
9.8440233e-26
8.2855278e-26
8.4185255e-26
8.7656797e-26
8.6502649e-26
9.0650357e-26
8.8465524e-26
8.3173426e-26
8.2059588e-26
5.8607906e-26
6.6428952e-26
6.6774887e-26
6.2246569e-26
6.1643439e-26
6.450122e-26
6.2571443e-26
6.5135101e-26
7.1366899e-26
7.1264991e-26
7.784169e-26
7.6237786e-26
7.2883752e-26
7.6506412e-26
7.6483361e-26
7.1999751e-26
6.3298306e-26
6.0900643e-26
5.9769309e-26
6.5004658e-26
6.3756765e-26
6.0517815e-26
5.999124e-26
6.7378353e-26
7.2913896e-26
7.2310147e-26
7.7414553e-26
7.5816869e-26
7.1646229e-26
7.1501504e-26
7.4201553e-26
7.2585652e-26
8.3030154e-26
8.191715e-26
8.0404538e-26
8.2106562e-26
8.7059831e-26
8.4163419e-26
8.2748066e-26
8.6521422e-26
9.5630555e-26
9.1281878e-26
9.5549285e-26
9.8658097e-26
9.0196859e-26
8.8746721e-26
9.2110665e-26
9.3802695e-26
9.8471007e-26
1.0255142e-25
9.9000227e-26
1.0998994e-25
8.6743642e-26
1.014309e-25
8.6477054e-26
9.762284e-26
9.3469814e-26
9.4407118e-26
1.0023628e-25
9.7527717e-26
9.3387024e-26
8.7668513e-26
7.8284776e-26
8.4604049e-26
1.0033047e-25
9.4145799e-26
9.7462828e-26
9.1296986e-26
1.0023143e-25
9.234699e-26
9.4026226e-26
1.0042328e-25
8.7087393e-26
8.5587023e-26
8.3146412e-26
8.6889697e-26
8.9162133e-26
8.2366604e-26
8.2638164e-26
8.9332347e-26
6.9131423e-26
6.9767197e-26
7.0587165e-26
7.1890023e-26
7.975096e-26
7.8039576e-26
8.4609274e-26
8.5245098e-26
8.0898919e-26
9.1318351e-26
7.6843936e-26
7.5265963e-26
7.5440844e-26
6.9783686e-26
6.2824958e-26
6.466326e-26
6.2196024e-26
6.1219357e-26
6.1700076e-26
6.5037697e-26
6.1747283e-26
5.770309e-26
6.0873586e-26
6.5545429e-26
7.793251e-26
7.1797187e-26
7.1223017e-26
7.6703228e-26
7.1700033e-26
7.0736975e-26
7.635759e-26
7.5102688e-26
3.7455999e-26
3.8036511e-26
3.8546761e-26
3.6701578e-26
4.5406313e-26
4.2939883e-26
4.0444367e-26
3.9287791e-26
4.980727e-26
5.0527078e-26
4.767968e-26
4.8353644e-26
5.0645289e-26
4.9098019e-26
4.5987718e-26
4.6724257e-26
3.157255e-27
3.1886556e-27
3.3507884e-27
3.3223401e-27
6.4195159e-27
7.8219711e-27
3.2067551e-27
3.4387163e-27
3.3513029e-27
3.2002111e-27
1.8437229e-26
2.1510025e-26
1.6639242e-26
1.4794942e-26
3.1331572e-26
3.1450889e-26
3.0905227e-26
2.9512326e-26
1.5635013e-26
2.643671e-26
2.2484887e-26
1.4629595e-26
2.521117e-26
2.3953161e-26
2.6824217e-26
2.7477834e-26
3.2864189e-27
3.1315449e-27
3.2389466e-27
3.518076e-27
2.2888295e-26
2.0229918e-26
1.2250764e-26
1.7604007e-26
3.2486021e-27
3.2599086e-27
3.5369134e-27
3.5682122e-27
1.9857815e-26
2.4289885e-26
1.5580233e-26
1.5797529e-26
2.8904829e-26
2.7630884e-26
2.853538e-26
2.9070557e-26
3.2800876e-26
2.3988352e-26
2.6447416e-26
3.1853508e-26
8.0865262e-27
7.9318436e-27
8.7929666e-27
9.6590634e-27
4.9751678e-26
5.2223279e-26
4.8466616e-26
4.9498767e-26
3.8869043e-26
3.9475813e-26
3.9289153e-26
3.80884e-26
5.2183659e-26
5.1783286e-26
5.1011123e-26
5.0794295e-26
3.800205e-26
3.799486e-26
4.2785963e-26
4.1275408e-26
3.2565078e-27
3.3292574e-27
3.3513021e-27
3.4448612e-27
3.2939695e-27
3.1546746e-27
3.3093507e-27
3.5382469e-27
7.1553426e-27
8.1943727e-27
3.2620913e-27
3.2076379e-27
3.5610552e-27
3.5613188e-27
8.6257003e-27
7.8378893e-27
3.2260108e-27
3.1454495e-27
3.3528811e-27
3.4085015e-27
9.9083315e-27
9.6854929e-27
4.3109795e-26
4.0858408e-26
4.0769752e-26
3.7083954e-26
4.0053295e-26
4.0053466e-26
3.6565688e-26
3.9008293e-26
4.9226208e-26
4.4059589e-26
4.5486203e-26
4.9184638e-26
4.661008e-26
4.5037076e-26
5.0592465e-26
4.9820683e-26
1.6898044e-26
3.8864009e-26
1.1254213e-26
1.7772835e-26
1.9931937e-26
2.238893e-26
1.2352419e-26
1.677491e-26
2.7223253e-26
2.4815894e-26
2.8825486e-26
2.8559072e-26
2.7282976e-26
2.4060015e-26
3.0604878e-26
3.0761828e-26
1.8069575e-26
2.8976421e-26
1.5980936e-26
1.6655652e-26
3.1204487e-26
3.1602192e-26
3.3040941e-26
3.324237e-26
3.2719312e-26
3.2695212e-26
3.5955767e-26
3.6246456e-26
1.8118646e-26
2.7650539e-26
2.133819e-26
1.7384293e-26
4.8214625e-26
4.4403573e-26
4.2724944e-26
4.6156069e-26
4.6131727e-26
4.5434436e-26
4.3789907e-26
4.5476926e-26
5.3990402e-26
5.4102503e-26
5.6242272e-26
5.6067395e-26
5.5055776e-26
5.6147254e-26
5.7183676e-26
5.3893343e-26
9.5649489e-27
1.0410567e-26
1.0846214e-26
1.0625969e-26
2.341189e-26
2.5619098e-26
5.9806362e-26
6.422659e-26
6.6272023e-26
6.4703809e-26
2.6585095e-26
2.6281618e-26
1.8179372e-26
1.851976e-26
2.0290535e-26
1.974461e-26
1.6219232e-26
1.7072041e-26
1.8961484e-26
1.7856132e-26
1.9854776e-26
2.0184279e-26
1.8791054e-26
1.8652335e-26
2.0739012e-26
2.1157929e-26
2.1000306e-26
2.0620813e-26
8.0047166e-26
8.2712565e-26
6.7630385e-26
6.6354047e-26
8.0253366e-26
7.7915384e-26
6.442999e-26
6.6840989e-26
2.4771387e-26
2.5855239e-26
6.2511421e-26
6.4661979e-26
1.9008976e-26
1.9239054e-26
1.8016997e-26
1.7944256e-26
1.7065505e-26
1.8176811e-26
1.9091478e-26
1.789481e-26
1.8955998e-26
1.9568529e-26
2.0278914e-26
1.989401e-26
1.9932962e-26
2.0272774e-26
2.0200874e-26
1.9828895e-26
7.8056032e-26
8.0653733e-26
6.6585843e-26
6.4970317e-26
8.0093907e-26
7.959068e-26
6.6045734e-26
6.6589235e-26
1.7015235e-26
1.7205986e-26
1.5886874e-26
1.5863835e-26
1.7182899e-26
1.6474414e-26
1.5074873e-26
1.5757916e-26
1.5900329e-26
1.707935e-26
1.800713e-26
1.6700053e-26
1.6904707e-26
1.8000308e-26
1.8000189e-26
1.6816361e-26
1.7899385e-26
1.8186018e-26
1.6765252e-26
1.6742546e-26
1.4285219e-26
1.5398079e-26
1.6958057e-26
1.5640353e-26
1.4985624e-26
1.6162005e-26
1.7832044e-26
1.6657899e-26
1.774983e-26
1.8973401e-26
1.890028e-26
1.7647609e-26
1.8483597e-26
1.8979119e-26
2.0542848e-26
1.9922167e-26
8.1571921e-26
7.9282366e-26
6.5111074e-26
6.7375869e-26
1.6710451e-26
1.7816923e-26
1.9241572e-26
1.7954984e-26
2.0149636e-26
2.0539694e-26
1.9237097e-26
1.9062176e-26
2.1200328e-26
2.15768e-26
2.1356567e-26
2.0995463e-26
8.0217358e-26
8.3172672e-26
6.8150761e-26
6.6582828e-26
1.9041324e-26
1.9645218e-26
2.0181373e-26
1.9571489e-26
1.7548995e-26
1.8695948e-26
1.9424419e-26
1.8073311e-26
1.5947678e-26
1.7295837e-26
1.867126e-26
1.7067965e-26
1.5253834e-26
1.6388064e-26
1.7860367e-26
1.6288059e-26
1.8110154e-26
1.8486125e-26
1.699304e-26
1.6904581e-26
1.8055326e-26
1.9202207e-26
1.9129025e-26
1.7910878e-26
1.687554e-26
1.7919577e-26
1.9021319e-26
1.7354444e-26
1.7847508e-26
1.6992891e-26
1.5786945e-26
1.6598702e-26
1.6084731e-26
1.7505363e-26
1.6046214e-26
1.5083601e-26
1.3458126e-26
1.4717532e-26
1.6128076e-26
1.4650032e-26
1.2678791e-26
1.3864876e-26
1.5030544e-26
1.3671768e-26
1.5840978e-26
1.611884e-26
1.4663753e-26
1.4633092e-26
1.5729633e-26
1.691933e-26
1.6871018e-26
1.5630981e-26
1.2042458e-26
1.3354383e-26
1.4321003e-26
1.2837915e-26
1.1408277e-26
1.2591126e-26
1.3459957e-26
1.2077891e-26
1.3386878e-26
1.3830154e-26
1.2459372e-26
1.2275474e-26
1.3579407e-26
1.4547444e-26
1.4586254e-26
1.3458854e-26
1.4377736e-26
1.5811587e-26
1.6469956e-26
1.4875331e-26
1.3767804e-26
1.5079502e-26