/*--------------------------------*- C++ -*----------------------------------*\
  =========                 |
  \\      /  F ield         | OpenFOAM: The Open Source CFD Toolbox
   \\    /   O peration     | Website:  https://openfoam.org
    \\  /    A nd           | Version:  7
     \\/     M anipulation  |
\*---------------------------------------------------------------------------*/
FoamFile
{
    version     2.0;
    format      ascii;
    class       volScalarField;
    location    "4000";
    object      omega;
}
// * * * * * * * * * * * * * * * * * * * * * * * * * * * * * * * * * * * * * //

dimensions      [0 0 -1 0 0 0 0];

internalField   nonuniform List<scalar> 
34387
(
519.19718
515.88288
435.27758
437.14211
310.42938
519.76043
525.14982
438.73193
440.94497
3056.3402
3063.1899
1109.5831
1138.791
956.14324
981.57632
1116.8867
3100.3803
3043.6007
1108.0257
967.21318
953.04413
369.3416
792.42492
646.23073
637.71194
777.36686
780.0009
639.81448
650.43
798.21319
369.99374
305.04098
305.30034
272.92545
523.24056
528.02086
442.56637
443.91105
292.6265
292.69465
305.24401
305.84388
1128.9614
978.81787
967.06324
1121.6118
1164.6489
1128.0596
1005.6425
970.16912
799.76163
660.69365
648.86548
372.04264
791.11387
372.86659
790.71438
648.11
661.91621
815.22964
306.97895
307.16431
7075.4629
7269.5349
2639.0459
6187.1039
6026.0547
7066.289
2639.1481
6230.6197
6017.8811
2482.5382
2481.6392
6100.0042
2676.0989
6334.7066
2717.5584
2520.6806
2575.2582
2144.5835
1959.63
2141.2616
1953.7199
2058.2745
1997.3541
2181.2469
2236.9112
2631.4003
2614.1199
2463.9465
2488.1122
8366.0343
7431.8049
7453.344
6340.6223
2661.6928
6357.2979
6996.676
7197.8106
2622.7232
6126.1499
5942.4398
2488.3343
2466.7872
1991.9988
2161.3849
2129.9523
1951.5661
1952.4678
1941.7683
2138.6005
2129.716
443.23542
556.59514
552.73291
440.04029
1703.2177
1476.4512
1658.7892
1431.3117
959.95488
993.68869
1219.7429
1178.2572
949.8651
1163.134
1169.0018
958.91844
1417.4772
1646.6975
1656.6545
1431.7854
1424.957
1435.0549
1667.602
1657.8647
967.41338
955.98919
554.03503
1167.6277
1181.325
973.23488
997.05708
555.92489
1226.9542
1193.6635
1695.6252
1459.6628
1508.5098
1749.3275
440.32454
440.71025
375.78809
375.50039
449.64966
270.84797
273.71708
1130.3913
1130.0027
984.4735
978.55006
1138.8783
1162.9588
981.34342
1007.6957
805.44182
668.16595
657.14096
799.80656
374.25386
799.60933
656.1048
666.24159
819.35203
374.79925
308.56107
308.55949
2659.2428
2645.7985
2513.9767
2513.5063
1993.4704
2023.2757
2185.546
2172.9532
1994.9709
1970.536
2149.607
2164.9645
2498.5614
2485.101
2643.3289
2647.2857
2767.7994
2790.9413
2613.2434
2659.9818
2681.8483
2679.3729
2524.9972
2520.3744
2068.4128
2261.6942
2320.255
2141.1946
1995.8433
1995.3959
2179.2351
2179.9618
1461.4794
1507.2704
1732.4518
1695.3566
566.67418
1025.8117
1246.5712
982.51519
1203.4037
982.12598
971.67307
1189.9114
1201.4442
562.10777
449.40717
446.09061
1675.8937
1446.8476
1697.8452
1467.8733
561.60305
564.52881
445.12665
445.74008
1458.8839
1466.2967
1701.4352
1695.4768
976.41506
988.23692
1206.6938
1194.5752
989.69216
1223.272
1261.5796
1007.5643
1567.0609
1505.3826
1754.662
1822.1934
379.61564
378.84619
19665.513
19738.355
17927.399
18088.49
18587.503
18681.921
20411.926
20415.079
5363.1907
5290.8303
5433.1459
5494.1653
19631.475
18951.369
19801.587
19840.635
18045.163
18162.305
5472.073
5290.6461
5358.7455
5537.2799
19376.75
19067.822
4906.8407
4760.8911
4823.4725
4975.1482
4873.7407
4759.2094
4823.0238
4937.5263
19173.704
5433.2286
5371.0591
5586.8303
5638.228
19861.545
5478.6759
5439.3514
4901.9926
4842.5533
5025.9509
5082.975
4975.895
4916.5437
5018.3503
4336.7149
4260.1693
4333.1668
4421.0949
3843.6847
3711.3779
3741.7852
3888.8813
4338.9831
4265.7147
4367.356
4456.7249
3844.4069
3699.0582
3780.3301
3928.3398
3995.2596
3888.0777
4004.442
4104.7668
3911.2952
3782.5972
3905.1357
4044.0765
4412.5084
4326.2553
4495.393
4571.1904
4520.1117
4418.84
4495.374
4591.0896
5233.1746
5412.171
5180.9362
5378.4736
5442.8758
5241.8024
5199.0705
5389.0702
4839.1233
4714.9759
4894.971
4750.3261
4860.0303
4686.953
4736.6482
4902.337
18541.204
18667.49
17104.695
16917.797
20561.935
20610.465
18816.38
18932.466
18984.055
19050.225
20787.356
20770.019
19797.112
5620.942
5564.3505
5536.6019
5639.8888
19976.873
19800.031
19832.647
18047.375
18157.527
18235.512
18343.956
19986.672
19992.69
5295.0068
5242.6467
5385.2311
5445.8188
19185.974
19020.435
5026.5069
4937.046
4955.6457
5043.4736
4782.6265
4718.115
4841.1347
4902.614
3848.375
3769.7795
3824.2672
3930.5253
4357.2685
4233.0975
4289.7058
4424.667
4309.307
4258.8762
4313.1715
4392.5914
3854.3076
3752.254
3765.166
3879.8937
3778.5539
3693.7753
3810.8591
3901.2338
3767.6306
3723.8372
3889.9617
3923.7934
4467.504
4334.4031
4374.2547
4485.8373
4329.0234
4221.0313
4299.583
4405.8022
523.91306
874.55311
853.42558
653.86206
642.09203
845.12889
841.59173
628.28243
629.78641
505.03917
3416.7399
3308.1818
3291.5124
3437.9453
2940.2337
2733.8635
2686.5109
2905.7897
3379.6778
3246.0815
3376.9217
3223.014
2856.4711
2628.9325
2617.5036
2842.2428
1243.2169
1237.7184
1547.7212
1553.9552
1305.6401
1336.9996
1659.8435
1615.0663
2359.904
2058.6796
2005.6128
2308.8444
1937.7727
1936.221
2253.0109
2244.1678
1210.577
1242.3003
1531.8177
1512.2623
2195.2327
1901.6737
1893.3226
2198.4749
2222.3583
1935.5065
2274.6585
1990.2787
1545.8982
1249.6805
1576.254
1239.227
2770.3349
2552.1617
2567.0626
2793.3533
3180.7471
3151.4476
3331.1757
3361.9484
3319.0774
3175.088
3241.1469
3392.5576
2802.2583
2595.3261
2654.9927
2858.2822
2603.8864
2552.7931
2774.8559
2824.6549
2587.5707
2575.5584
2788.1976
2802.5451
3326.1869
3158.3635
3183.1206
3347.7909
3213.6843
3149.9988
3318.0088
3383.0073
853.21602
1267.8768
1563.3912
1554.4403
1240.1531
843.86258
1226.145
1514.7961
1542.8433
1221.6608
635.32996
629.46964
1934.4911
1886.6512
2186.0595
2227.9305
1938.3116
1932.7191
2219.1647
2221.5621
856.94386
1271.1602
1569.7347
1584.012
1251.1139
866.65015
1315.804
1626.1117
1690.4869
1324.1239
637.6507
640.71761
2135.8817
2031.1689
2337.7968
2444.5811
1996.252
1956.6998
2260.2278
2300.571
3397.7408
3249.3407
3338.4793
3501.7002
2866.0603
2637.4101
2697.0104
2930.7925
2854.8413
2728.3353
2954.0944
3072.5596
3504.7896
3345.8529
3472.0596
3614.855
506.54359
512.46803
366.61748
367.34689
408.74269
658.93071
637.05495
646.20738
671.69505
2003.1335
2019.5969
270.46456
357.05053
357.05864
274.45847
2627.2592
2659.4802
2516.6045
2517.3103
2700.1117
2662.4136
2528.5895
2541.8978
2196.3194
2048.5826
2003.7699
2176.9092
2006.3056
2195.5359
2197.7902
2025.5076
2713.8493
2709.3808
2560.8044
2562.7994
2748.0662
2744.8995
2625.2467
2603.0612
2029.2032
2035.9341
2217.1811
2213.6745
2075.738
2259.0574
2295.8684
2130.2863
1755.0102
1537.7771
1482.3322
1706.8583
1015.1625
1047.6445
1267.9673
1226.3793
571.86575
1205.3547
989.48809
999.56951
1222.2236
567.70935
1470.6092
1491.6213
1704.6433
1725.2583
453.9021
451.02039
1495.1117
1733.9569
1484.5326
1723.2688
995.50678
1006.9233
1228.7198
567.68259
1216.8552
1033.7673
1007.9902
570.79022
1238.2071
1277.7127
1573.455
1517.5561
1763.848
1820.1505
448.96573
450.09272
382.66368
381.44042
5467.5877
5452.0819
5407.6579
5456.0726
5240.6951
5216.3197
5388.8727
5419.5481
4785.132
4763.4786
4868.7412
4908.8229
4987.4917
4948.4046
4870.9809
4927.8217
3800.2041
3904.9808
4021.8495
3928.9422
3827.9668
3820.4756
3911.9591
3938.632
4359.1584
4308.7493
4366.6158
4429.2028
4354.9164
4451.2988
4516.0846
4434.6291
3842.7136
3779.5288
3882.2815
3958.1182
3820.5242
3771.543
3894.5492
3954.6566
4394.274
4316.8733
4396.0954
4463.2319
4341.4148
4290.0593
4384.0961
4442.7948
4869.5097
4747.9187
4785.4883
4907.4064
4903.2153
4822.6324
4884.0596
4946.255
5456.9333
5359.3178
5428.145
5500.3826
5375.973
5233.1132
5304.7245
5446.3639
5665.0171
5845.0328
5613.5625
5819.5034
5506.3667
5732.5672
5487.0802
5725.5126
5127.7252
5070.4399
5311.3914
5254.5379
5244.1211
5253.0155
5046.0841
5034.0902
5623.268
5416.1805
5568.6484
5361.827
5502.0652
5400.2957
5472.2613
5554.0439
4995.5416
4832.4341
4891.887
5066.74
4946.9486
4850.0479
4923.3828
5005.4942
4089.8706
3971.0938
4098.3204
4222.9954
4622.9463
4533.2639
4688.6034
4776.8013
4812.6541
4791.7163
4631.5863
4599.1205
4355.3034
4249.7064
4107.6648
4201.813
3883.2419
3775.2675
3901.9224
4013.9745
3833.7745
3763.5791
3899.1082
3968.3083
4411.1993
4320.3566
4416.7499
4494.2307
4404.7226
4324.2854
4453.5741
4541.9578
2659.2795
2726.6303
2959.7209
2876.5995
2718.9462
2768.7263
2960.5835
2924.271
3452.3507
3327.1724
3310.3236
3441.7797
3508.579
3352.2086
3259.4322
3414.8363
901.56961
671.22046
659.2751
877.3467
1351.5854
1378.207
1706.7351
1664.9978
2107.3395
2397.1661
2344.3233
2057.7754
1606.1059
1274.2906
1288.8039
1592.1361
1982.0677
2019.0811
2336.4933
2283.2537
865.34571
1278.4496
1289.2016
1585.5994
1606.4541
861.43015
1248.4501
1255.16
1563.2918
1561.5245
2252.5279
1946.2297
1945.4353
2248.8641
2012.5975
1973.373
2273.7148
2319.7714
642.48743
644.07909
534.34423
515.44261
3384.028
3235.0111
3251.0506
3417.0869
2845.6093
2623.8564
2626.37
2853.6586
3398.1879
3258.5061
3312.5542
3457.9468
2874.9334
2650.5289
2707.9787
2926.1905
872.04976
863.32307
649.1334
643.48731
872.70882
649.95074
653.66564
881.35046
516.2806
522.29603
2706.9485
2619.5981
2927.4526
2846.2963
2668.4969
2644.7989
2857.3541
2883.3347
3274.502
3232.8123
3386.1158
3432.7404
3390.3186
3232.8319
3325.4751
3484.8261
1264.6475
1268.4443
1562.9219
1581.6421
1282.3761
1311.2792
1611.1528
1593.1259
2279.4767
1988.4071
1982.9672
2285.1458
2246.1916
1942.8371
1991.3854
2310.1818
1288.8494
1282.6889
1610.0937
1619.274
2053.6953
2031.0197
2361.4167
2395.371
2561.4452
2206.8847
2225.4488
2570.8492
1713.146
1337.9732
1367.6953
1743.2017
3000.8599
3020.1646
3264.3916
3221.4386
2823.343
2763.5828
2998.6148
3067.9086
3570.7512
3400.2286
3495.3178
3665.4099
3618.4788
3694.5998
3845.2374
3741.7382
370.72737
370.8274
26424.022
27061.585
26517.986
27200.162
27791.357
27794.967
27690.772
27689.641
17512.193
16540.237
17068.129
18110.361
29568.335
29827.652
36208.916
35932.47
28979.079
27661.253
33873.64
35354.125
26781.746
27143.864
26864.45
27259.56
16861.342
16609.712
17601.546
17882.299
29150.398
29293.715
35616.101
35448.203
29074.883
28390.768
34683.515
35451.766
14949.349
14760.82
15683.058
15903.625
15103.174
14705.722
15620.893
16084.092
17737.463
29232.304
28047.667
34232.726
35581.855
16775.969
17366.356
18378.31
29618.059
29936.043
36253.673
35902.117
17838.242
16902.981
15870.296
14969.181
15460.885
16412.368
16014.88
15128.5
15092.075
13818.768
12918.788
13177.347
14147.762
12027.556
11113.218
11249.961
12219.769
13871.856
12963.726
13087.185
14026.211
12058.501
11131.813
11230.275
12166.669
11840.531
11584.581
12494.113
12659.549
11688.233
11406.53
12308.887
12651.046
14085.106
13193.524
13590.505
14534.985
13466.692
13375.87
14261.617
14285.425
17186.493
18125.279
16290.428
17152.788
17770.975
17544.401
16626.475
16766.547
14877.118
14894.68
15818.882
15760.979
15298.341
14594.138
15439.624
16227.047
27786.753
27707.971
28255.289
28404.545
27771.815
28255.199
27866.795
28382.178
28364.737
28222.517
28257.499
28107.916
18226.424
30755.012
29638.173
36104.96
37284.566
17342.537
17156.43
18414.699
30072.212
30728.815
37199.942
36484.339
26729.318
27047.578
26871.081
27224.94
27242.49
27222.73
27097.271
27072.952
17551.828
16556.35
16708.775
17710.605
28517.314
28796.328
35143.785
34826.47
28694.387
28180.838
34487.372
35058.126
16143.051
15135.561
15321.333
16330.317
15618.475
14688.049
14844.952
15771.272
12118.842
11292.916
11565.598
12517.955
13449.211
12935.641
13769.367
14383.904
14049.189
13179.809
13038.606
13963.18
12310.192
11409.213
11210.284
12134.141
11273.76
11058.661
11971.989
12167.761
11340.156
11183.142
12166.646
12343.317
14146.427
13151.045
13336.576
14336.297
13050.961
12869.403
13783.905
13951.823
503.42491
746.0299
701.26541
1142.3856
898.81119
887.63543
1137.146
1073.6112
842.71774
843.7985
1080.3701
1072.5062
828.91919
825.24628
1060.8838
1063.6964
827.11719
822.69716
1053.0828
683.59384
683.53503
485.71728
10468.841
9609.1957
9625.8498
10611.103
8717.1122
7714.3237
7579.5113
8632.7915
10498.744
9541.0043
10293.28
9348.9566
8557.4098
7498.3349
7374.4458
8396.5783
1806.4786
1801.0962
3580.2791
3560.0542
1920.0945
1992.8694
3847.8633
3722.0393
6585.6678
5261.3349
5130.648
6436.0928
4947.8203
4998.9849
6331.5421
6244.7506
1749.2762
1775.9702
3530.2302
3460.6645
6125.8568
4864.1971
4830.0381
6115.0511
6170.743
4894.6407
6454.6491
5111.5944
3522.6193
1778.1792
3623.9736
1802.1482
8241.2213
7217.3971
7249.9596
8307.3975
9321.2597
9223.9719
10208.338
10336.612
10151.237
9209.6381
9477.0376
10388.88
8263.1589
7258.3361
7560.8705
8557.6742
7331.2957
7246.8868
8277.6775
8362.1403
7295.8187
7279.8051
8294.6546
8325.2766
10193
9250.4651
9304.9919
10285.333
9331.9641
9242.9648
10200.222
10294.251
1083.6976
844.40757
843.77903
1081.1706
1824.0557
3595.1746
3526.6435
1797.9691
1059.7663
822.76607
823.22392
1054.832
1725.8709
3453.7374
3506.8173
1765.8267
704.83661
680.46847
4908.6859
4813.6311
6108.5533
6201.8239
4911.4568
4925.5619
6173.7974
6182.2873
1088.1371
843.79148
838.72953
1077.0844
1806.8035
3600.6003
3603.2321
1819.9443
1122.1107
862.33409
866.83254
1117.1318
1877.6799
3673.4237
3902.8161
1947.8197
694.44656
711.90736
5496.5638
5098.4743
6449.7273
6944.9799
5066.9121
5009.8361
6346.441
6432.0705
10499.454
9544.9163
9719.4279
10718.621
8566.9429
7509.3005
7619.7391
8703.5834
8153.042
7626.2023
8697.0319
9200.0997
10659.175
9692.0022
10134.024
11014.55
487.27237
491.0232
526.18471
508.33605
508.72742
515.78427
286.81584
276.80278
277.34731
287.35949
302.2464
364.4731
410.51441
411.99693
363.71071
574.92519
567.99375
613.96934
620.93265
1691.6562
1698.8206
300.96994
570.98748
4904.2534
4816.1189
4866.8154
4730.9152
4744.6164
4898.6448
270.80701
359.10219
358.7511
417.46823
378.24807
379.29306
417.90723
381.38453
378.86537
417.59826
420.76228
5305.0673
5073.1634
5080.9746
5309.626
5327.3791
5365.7953
5515.2214
5477.3023
4670.8761
4688.1202
4850.6087
4849.4393
4928.8636
4828.5106
4984.101
4865.773
5675.391
5613.3356
5592.8959
5557.0013
5341.5526
5295.1431
5325.0442
5375.3437
4853.7659
4832.692
4851.8262
4883.3189
5010.4677
5029.3838
5107.9855
5065.851
4315.3566
4317.629
4408.2993
4431.1604
3938.487
3887.043
3902.1909
3987.7691
3829.8217
3817.0391
3925.0418
3958.815
4404.9695
4342.6743
4397.3926
4478.0914
3897.3796
3878.6119
4022.9174
4030.561
4476.9773
4467.1319
4570.9093
4558.816
4426.4975
4394.2293
4387.4271
4435.4548
3980.1743
3864.4981
3873.4515
3974.079
5522.5295
5491.5693
5586.8384
5632.982
5513.0556
5471.3276
5532.6814
5575.8318
5004.0211
4960.3834
4991.6201
5040.603
5018.5336
4964.0304
5035.8215
5094.1089
5594.3021
5548.731
5704.0266
5728.9043
5418.5935
5488.0419
5495.2483
5435.0622
4970.2763
5047.9832
5045.5145
4981.4943
5170.2259
5018.3668
5069.8834
5211.7414
3940.9187
3892.2232
4014.7542
4066.246
3919.5432
3866.6688
3999.6431
4034.8279
4518.6468
4431.5269
4477.5398
4543.5971
4506.979
4446.4335
4524.5278
4585.1824
4096.2166
3956.2059
4074.4831
4207.3872
4580.7877
4503.0667
4654.1924
4717.7481
4643.033
4640.0039
4539.7498
4567.6318
4225.1153
4137.5251
4061.758
4145.492
3527.3671
3437.5185
3386.0454
3514.3334
3042.9003
2852.2177
2793.597
2998.5369
2691.5711
2697.8934
2914.1346
2895.7633
3435.1281
3296.1758
3278.9997
3431.813
900.15637
1322.4512
1339.9324
1643.001
1630.0262
917.77313
1395.5661
1455.0671
1774.4197
1719.8859
2116.8916
2182.0079
2468.5751
2408.1809
2325.8084
2030.6234
2019.3258
2316.0716
684.95157
675.04596
2317.4393
2024.8968
2005.0308
2306.2691
878.31181
1618.2897
1288.1978
1282.1443
1602.2156
881.07414
1308.9016
1318.8584
1624.7137
1636.0253
2336.2947
2027.7524
2043.4532
2349.3133
655.0183
655.96943
2913.6863
2703.2814
2687.6117
2910.4287
2736.2392
2720.1747
2950.3911
2933.9985
3315.7885
3307.853
3475.8066
3485.4641
3323.2509
3477.7926
3488.5782
3338.9027
541.72256
522.59578
2729.5702
2716.1295
2931.1273
2948.9748
3316.6766
3475.1835
3508.5171
3352.7068
2935.303
2707.9609
2746.8064
2973.4508
3381.1328
3347.0007
3498.3461
3535.7164
880.19442
1297.887
1304.9804
1623.5497
1606.5022
888.6043
1317.1648
1348.3819
1652.9945
1637.026
2034.7323
2039.5727
2336.9125
2338.6457
661.03527
655.86572
2001.3276
2315.4823
2347.9887
2031.1504
902.08086
1400.7982
1393.527
1767.7977
1730.057
889.98722
1321.082
1340.2143
1665.5754
1643.1039
661.27418
666.35758
2045.0533
2357.7924
2443.7175
2105.1036
2183.9398
2522.9048
2564.3142
2231.9276
2989.2743
2958.8107
3192.3026
3189.1586
2870.8556
2753.6667
2986.0033
3101.3031
3556.1666
3386.9999
3526.9534
3681.817
3581.0665
3610.5584
3747.8669
3695.0764
524.96391
530.87757
374.69201
374.45314
18400.382
17464.717
16901.291
17869.821
17341.702
16473.354
17265.27
18236.736
15649.892
14821.659
15422.282
16345.074
16571.763
15670.255
15083.599
15991.956
11456.028
11960.847
12924.607
12378.297
11698.75
11497.814
12344.86
12644.687
14003.658
13171.81
13575.958
14509.694
13284.191
13853.108
14776.388
14194.147
11610.419
11558.897
12477.487
12496.793
11616.771
11485.858
12417.335
12603.996
14233.666
13324.877
13564.098
14521.869
14243.258
13363.156
13364.094
14239.868
15103.145
15107.449
15983.934
15982.693
15456.917
15129.131
16041.718
16401.553
17936.464
16965.078
17346.929
18339.251
16872.327
16865.205
17798.177
17817.469
18435.991
19072.539
17486.306
18091.983
17549.566
18874.215
16703.953
17967.719
16584.257
15677.9
17158.515
16216.933
16247.635
17111.615
15908.717
15113.686
18192.926
17850.501
17194.841
16872.868
17373.568
16745.758
17737.494
18390.546
15312.855
15023.47
15947.406
16251.028
15454.469
14889.468
15814.46
16412.495
12362.694
12014.442
12953.706
13357.233
14781.119
13869.17
14322.688
15282.673
15411.568
14549.751
14338.038
13553.708
13682.797
12782.654
12026.993
12793.071
11653.75
11357.872
12293.921
12574.119
11638.487
11268.051
12173.04
12606.248
13558.194
13072.77
13986.985
14515.411
14123.049
13207.718
13482.212
14403.39
7557.0768
7813.4377
8923.8404
8603.1226
7723.3389
7832.2024
8849.6637
8791.7198
10650.017
9768.4312
9777.5549
10749.492
10980.941
9963.1113
9575.9336
10530.119
919.74171
928.27481
1179.8683
1176.747
767.34584
720.66586
870.39232
1105.3953
1115.052
871.88525
2000.7489
2085.698
3954.4421
3818.9816
5371.7975
6689.9898
6565.3564
5234.3421
3721.1726
1881.6721
1885.2998
3686.3735
5093.3229
5210.1853
6594.8708
6404.9099
1102.5648
851.3054
847.88291
1090.978
1873.1754
1876.3185
3637.7519
3719.3685
844.63343
848.62334
1083.8823
1082.6363
1820.6863
1852.7828
3599.1389
3578.1156
6283.6494
4964.3558
4979.5761
6301.9113
5200.7233
5026.7443
6344.8145
6591.5173
701.09339
700.69295
517.38481
499.34924
10544.657
9553.3607
9597.7664
10619.937
8536.4287
7449.1885
7471.7145
8562.0996
10620.986
9621.3893
9797.5821
10722.397
8595.6557
7508.4163
7782.5068
8838.5444
1115.6751
867.07305
867.21124
1114.093
1092.0205
845.1585
845.8814
1087.7031
721.24739
696.04264
856.9762
860.72379
1104.2338
1104.8178
707.40379
726.77764
889.34305
881.61312
1142.069
1149.5249
500.59812
505.62021
7710.2042
7407.42
8783.5412
8468.8517
7583.8049
7465.8202
8492.8205
8660.4304
9670.6749
9437.2977
10365.826
10667.371
10419.806
9451.4988
9770.0038
10730.132
1851.0225
1805.3485
3568.8257
3651.1091
1879.4089
1927.5768
3719.5612
3646.367
6353.8817
5073.4085
5065.3318
6404.3939
6260.4962
4942.5329
5117.5913
6503.2868
1900.3316
1883.3811
3742.4999
3742.4751
5273.3091
5266.9547
6711.5726
6740.5006
7363.222
5751.7189
5809.8683
7344.9198
4002.109
1988.0834
2057.2663
4101.6601
8584.7594
8675.5506
9824.9715
9607.2755
8029.6175
7952.31
9058.1373
9198.2889
11064.146
10077.283
10285.408
11343.456
10475.303
10862.484
11853.714
11276.445
538.72068
520.17814
520.06835
526.8659
41480.681
43069.37
58106.941
59685.448
60394.491
60093.246
43810.436
43573.741
24508.273
24115.614
25308.826
25688.412
22778.51
22890.006
23975.957
23818.974
24534.885
24769.749
24582.219
24389.941
26457.916
26102.468
25869.739
26267.523
105734.11
106925.28
111400.11
110579.06
105607.04
102432.83
108100.82
110581.5
42295.32
43128.292
58959.926
59715.498
24219.732
24304.368
24148.85
24081.731
23349.387
23506.134
24074.005
23924.302
25146.764
24747.618
25400.477
25796.167
25990.945
25631.315
25529.207
25915.023
104757.82
105706.17
110534.76
109658.69
105183.91
104159.98
109469.56
110276.81
22048.026
22076.408
21882.85
21852.545
21949.229
21399.419
21191.336
21705.54
22215.927
22412.849
22967.235
22734.904
22945.586
23170.535
23116.92
22894.518
22249.755
22488.482
22281.777
22069.74
20663.996
20854.839
21813.951
21579.404
21658.853
21823.595
22857.475
22626.215
23371.945
23613.687
23372.346
23166.618
24891.609
24514.164
25578.512
25948.696
105814.17
103266.77
108439.53
110470.68
23163.741
23306.476
24299.946
24113.04
24739.177
24981.622
24793.526
24583.744
26623.968
26279.595
26018.932
26396.287
105224.61
106651.85
110968.38
109913.38
25128.524
24809.687
25472.737
25788.456
23490.431
23695.073
24326.092
24103.225
22086.865
22321.12
23244.356
22970.456
21148.504
21349.239
22209.29
21969.914
22593.558
22814.967
22578.791
22378.014
23614.24
23872.307
23646.865
23414.541
22475.841
22731.224
23340.906
23052.957
22319.571
21722.667
21530.6
22080.665
21230.505
22221.677
21952.862
21044.83
19752.882
20004.419
20854.672
20575.301
18923.453
19129.17
19886.98
19644.779
20146.661
20360.51
20181.202
19986.619
21197.939
21430.585
21213.661
20992.042
18061.62
18298.519
18960.737
18683.143
17220.019
17453.583
18007.24
17749.547
18061.703
18286.033
18083.681
17871.355
19107.463
19294.554
19077.642
18906.372
20255.217
20541.153
21029.374
20735.277
19419.09
19644.346
20080.272
19837.492
20050.106
20050.332
19871.385
19877.337
20838.758
21074.516
21078.829
20830.089
18490.996
18712.901
19099.41
18864.411
18073.166
17741.48
17547.717
17866.901
18052.447
18081.723
17875.245
17853.473
18852.274
19042.968
19034.172
18844.324
18079.448
18906.162
18574.689
17816.999
18744.458
18062.307
17825.803
18447.029
18724.311
18940.9
19623.106
19317.405
19340.706
19661.133
18825.832
18582.948
18728.686
18806.12
18578.517
18492.816
18509.769
17751.104
17491.551
18169.979
18351.376
18556.649
19326.711
19031.951
19551.935
19782.02
19687.563
19450.459
20219.313
20451.959
21210.791
20950.608
19321.647
19453.848
20211.305
19996.148
20640.896
20757.556
20568.84
20443.146
21549.38
21798.987
21635.967
21379.324
19604.041
20446.847
20196.972
19407.272
19659.38
19828.227
20474.779
20228.367
20570.369
20792.197
21407.343
21123.493
21046.834
21342.299
20434.535
20196.05
23181.222
22774.007
24351.135
24743.82
26084.327
25792.5
25140.073
25523.019
21577.339
21634.633
23059.926
22941.301
23903.135
24557.327
24339.007
23761.473
25293.312
24930.047
25133.044
25552.074
24270.461
23904.057
24446.324
24851.184
22637.486
22799.012
23201.957
23081.126
23750.009
23655.795
23519.311
23659.606
21490.981
21579.907
21378.198
21338.916
21330.553
20978.962
20742.248
21085.744
22370.939
22594.202
22592.953
22416.456
21633.718
21846.279
22216.837
21992.011
21864.41
22466.083
22215.732
21664.534
19620.683
19753.347
20941.749
20759.134
20539.977
20640.902
21965.559
21790.646
23221.955
23494.697
22863.208
22648.086
60653.051
60091.899
60933.412
61561.378
43758.457
44946.382
60439.691
61431.141
61319.403
60645.219
44782.318
44114.906
26289.66
25875.917
26942.308
27325.486
108547.73
106813.34
111366.29
112550.39
24979.485
25563.863
25359.811
24840.514
24361.554
24488.404
25505.128
25324.925
27298.247
26955.646
26351.796
26755.511
106676.78
108439.73
112414.24
111227.62
42157.262
42812.563
58866.311
59569.058
59701.48
59218.515
42825.55
42509.481
24969.051
24595.663
25037.532
25448.979
23223.627
23390.392
23747.658
23613.517
23591.304
23848.964
23700.625
23488.54
25513.124
25137.491
24890.643
25311.12
103603.4
104938.13
110257.52
109133.79
104480.46
103915.57
109356.46
109920.68
23114.017
23328.639
24272.964
24017.618
22005.88
22176.116
23042.47
22834.682
22638.18
23170.071
22934.021
22448.777
24087.45
24345.604
23796.831
23583.113
22139.837
22356.509
22641.748
22448.983
21522.323
21274.189
21127.092
21371.76
21442.146
21725.755
21524.292
21282.242
22543.837
22763.987
22493.348
22314.706
17214.682
17437.967
18354.94
18082.885
16547.717
16808.907
17600.687
17305.891
18201.029
18633.404
18370.5
17969.04
19292.592
19545.701
19104.599
18870.677
20001.9
20473.48
20269.231
19808.7
17976.318
18125.883
19144.103
18936.21
18785.374
18923.291
20030.365
19809.545
21222.811
21479.982
20946.298
20706.343
19940.244
20260.977
20530.469
20234.89
19235.173
19516.245
19706.667
19444.766
19497.445
19725.685
19508.113
19323.382
20400.037
20650.763
20487.571
20281.056
18475.876
18773.202
18909.047
18610.274
18117.223
18000.735
17707.494
17807.595
17729.742
18017.04
17733.221
17465.307
18589.141
18845.05
18579.238
18350.709
17747.782
18001.222
17761.166
17526.878
17737.714
17421.878
17221.514
17486.088
18146.743
18316.716
18592.749
18372.893
18645.697
18880.746
18625.596
18414.792
18373.316
18639.615
18451.328
18186.004
18330.407
17762.826
17610.162
18135.322
18689.845
18812.524
19432.108
19261.017
19547.63
19734.503
19429.966
19232.558
20905.874
21105.455
21839.155
21627.814
19838.232
19922.302
20595.633
20457.653
20484.39
20849.055
20683.1
20311.91
21795.598
22022.369
21573.434
21348.299
19526.288
19775.254
19601.838
19367.065
19142.199
19261.99
19505.009
19352.822
20107.003
20287.33
20520.083
20326.722
20532.454
20764.191
20496.324
20286.552
821.2758
757.28849
756.34612
714.34257
967.82371
953.76472
907.26113
907.31719
1436.5647
1418.0391
1327.4573
1331.846
1313.4204
887.76925
883.55977
1303.7223
1308.8187
888.91258
878.47172
1293.7274
692.60324
693.55032
735.27674
737.5543
15937.955
16262.125
16897.191
16569.413
15390.452
15741.741
16201.616
15875.65
16385.513
16783.934
16566.115
16179.643
17471.676
17720.164
17306.964
17071.593
14869.554
15285.73
15550.616
15177.018
14399.353
14922.192
14910.085
14530.443
14784.172
15043.75
14796.749
14490.996
15642.126
15865.834
15532.859
15276.282
16960.988
17277.621
17360.195
17023.129
16206.95
16443.885
16528.374
16249.699
16903.159
17194.555
16874.842
16612.659
15954.24
16275.85
16063.192
15752.311
15329.762
15600.639
15712.824
15397.94
14950.906
14817.993
14555.684
14651.519
14434.466
14664.849
14395.39
14143.172
15176.587
15420.501
15154.457
14887.269
3421.8142
3506.1358
5531.5165
5454.4085
3450.0194
5483.9652
3479.9436
5571.4578
10879.679
10064.422
9918.1492
10710.531
9897.2077
10647.834
9990.3959
10645.589
3649.4991
5816.8449
3662.3529
5739.6104
4051.3215
6291.3927
6052.0697
3907.18
10548.494
10922.881
11513.757
11178.933
10267.425
11180.45
10359.47
10984.481
14100.794
14421.186
14044.142
13875.736
13226.386
13001.75
12651.948
12858.598
12495.971
12681.424
12967.137
12745.852
13965.428
14174.8
14023.997
13766.537
12147.91
12195.881
12535.588
12406.001
12737.621
12412.913
12303.347
12672.405
13999.525
13975.725
13802.728
13870.915
13626.04
13792.802
13653.738
13439.885
5322.3643
3294.4859
5234.5769
3307.2524
5446.6962
3500.6854
5534.9274
3426.5321
9842.521
9962.635
10599.785
10548.608
10336.824
9565.3405
9762.2485
10499.107
13543.851
13455.228
13237.561
13377.581
12284.271
12033.026
12051.773
12308.29
12052.646
11842.61
12171.937
12375.431
13624.718
13390.744
13306.743
13489.05
13314.431
13311.906
13089.201
13142.061
12178.765
11950.234
11826.697
12089.301
14193.24
13979.59
13705.105
13851.783
12725.569
12550.712
12788.119
12946.699
9650.6835
10426.506
9708.8375
10274.729
3343.4816
5314.6971
3438.5036
5343.0735
10892.418
10056.679
10331.104
11029.318
5665.0442
3422.5692
5467.616
3568.5081
14681.96
14914.051
15278.045
15052.281
13902.973
14191.824
14433.225
14175.917
14545.173
14362.599
14193.869
14299.903
15152.68
15292.902
15379.558
15155.651
16305.652
16338.963
16244.107
16138.123
15629.579
15774.968
16238.523
16065.727
16602.646
16746.938
17277.339
17076.942
17358.679
17481.558
17337.494
17148.158
16351.176
16552.251
16871.948
16627.559
15467.165
15624.642
15901.606
15731.268
16074.568
16212.839
16014.113
15840.175
16891.807
17119.75
16902.835
16664.571
14562.076
14746.851
14980.328
14780.652
14171.54
14035.212
13785.576
13944.679
14824.042
14676.357
14362.266
14418.712
15119.959
15356.242
15373.514
15045.783
14514.149
14471.424
14205.317
14233.633
14528.181
14181.017
13951.882
14218.695
14746.862
14966.548
15263.026
14993.003
15014.234
15235.539
15294.901
15037.349
14487.19
14426.437
14204.324
14199.121
13994.162
14286.952
14387.306
14107.399
14713.872
14992.616
15176.944
14922.04
15075.552
15265.443
15245.785
14993.059
16378.871
16626.138
17037.417
16798.174
15552.577
15752.761
16055.765
15855.778
16108.989
16216.342
16066.576
15927.862
17071.858
17238.106
17078.262
16878.521
16153.07
16120.941
15955.58
15965.641
15669.687
15823.989
16112.45
15923.198
16604.271
16782.626
17087.163
16879.437
16916.665
17092.61
17107.47
16895.888
1338.0846
908.67472
903.11786
1329.3391
3632.7922
5696.9231
5575.2104
3531.2758
10711.979
10109.819
9983.3549
10617.161
10629.931
9810.8649
9865.5067
10600.951
3385.831
5378.6969
5397.7508
3401.7065
1290.7378
880.29509
880.3818
1290.3929
3288.3016
3273.8479
5196.1063
5232.7777
9666.5225
10170.001
9462.8701
10391.379
10568.86
9740.6422
9921.768
10574.197
5442.152
3315.3531
5275.5519
3438.3187
720.11091
690.36874
12130.021
12142.446
12433.524
12391.17
12012.234
11642.964
12012.194
12353.521
13646.251
13248.81
13153.203
13479.159
13634.122
13639.155
13472.776
13464.725
12153.896
12138.198
12408.12
12428.353
12350.445
12122.82
12091.814
12315.538
13524.599
13501.631
13301.956
13339.461
13651.99
13573.399
13427.16
13468.943
1331.1454
904.88155
897.67409
1322.7861
3505.0366
5514.7877
5528.4587
3483.2322
10655.255
9941.6344
10059.455
10786.34
10591.842
9767.4548
10242.934
11024.507
5573.7866
3421.3195
5373.7691
3500.6738
1375.1542
925.39019
925.03611
1375.1563
3596.489
3488.9543
5478.2104
5594.5511
10062.108
10592.27
9859.0235
10771.83
11618.264
10650.953
11037.101
11811.603
6101.225
3683.904
5835.8277
3873.7993
708.78159
715.28502
13630.632
13418.658
13738.368
13887.84
12500.903
12135.881
12435.922
12767.421
14087.142
13738.328
13590.878
13921.345