/*--------------------------------*- C++ -*----------------------------------*\
  =========                 |
  \\      /  F ield         | OpenFOAM: The Open Source CFD Toolbox
   \\    /   O peration     | Website:  https://openfoam.org
    \\  /    A nd           | Version:  7
     \\/     M anipulation  |
\*---------------------------------------------------------------------------*/
FoamFile
{
    version     2.0;
    format      ascii;
    class       surfaceScalarField;
    location    "4000";
    object      phi;
}
// * * * * * * * * * * * * * * * * * * * * * * * * * * * * * * * * * * * * * //

dimensions      [0 3 -1 0 0 0 0];

internalField   nonuniform List<scalar> 
102329
(
-9.2289467e+19
-1.4306776e+22
8.7562319e+20
8.1345741e+20
-1.0714824e+21
-1.0365646e+21
-1.4528713e+22
-2.0972904e+20
8.672225e+20
8.6677785e+20
-1.0301105e+21
-1.0440569e+21
1.4293253e+20
-1.2164947e+20
-1.8735312e+22
9.0172935e+20
-5.3714538e+20
-5.7835001e+20
9.5198162e+20
9.3410402e+20
-6.0096576e+20
-5.6032031e+20
9.1470608e+20
-1.8386311e+22
4.7965489e+21
4.8703199e+21
-3.4936997e+21
-3.452336e+21
-3.9990514e+21
-4.1215232e+21
4.0003313e+21
3.8116573e+21
1.3268617e+20
-1.4486849e+22
-1.6318045e+20
8.5887702e+20
-1.036277e+21
-1.0526491e+21
8.4031054e+20
-1.4473735e+22
8.3093338e+20
8.7187464e+20
-1.0424297e+21
-1.0726468e+21
9.33562e+19
-7.4593783e+19
9.4272936e+20
-5.590978e+20
-5.8040695e+20
-1.8731351e+22
9.5396517e+20
-1.8649977e+22
9.4947137e+20
-5.9410524e+20
-5.604803e+20
9.2491484e+20
8.84829e+18
-1.0234245e+19
3.0075673e+19
3.2043253e+19
-9.0005955e+20
-5.4530031e+19
-5.3262078e+19
3.1013506e+19
-9.1637315e+20
-5.3597877e+19
-5.6013174e+19
3.7865757e+19
-3.2487197e+21
-5.0273055e+19
1.5965638e+20
1.7102284e+20
-2.4025653e+20
-2.409687e+20
-3.1289171e+21
1.5714589e+20
1.5786962e+20
-2.5432931e+20
-2.438595e+20
3.0601719e+19
-4.3711709e+19
-4.1191978e+21
1.5999887e+20
-2.5681666e+20
1.6907888e+20
-2.6015275e+20
-4.0054683e+21
-2.4791076e+20
-2.5716004e+20
1.6950618e+20
1.5481437e+20
3.1932813e+19
-3.1936552e+21
-4.2793913e+19
1.547805e+20
1.7157326e+20
-2.4381622e+20
-2.5138726e+20
9.6131613e+18
2.9246715e+19
3.1368262e+19
-5.4503268e+19
-9.0355541e+20
-5.5017236e+19
3.1602894e+19
3.1290429e+19
-8.9351138e+20
-5.2617157e+19
-5.4820824e+19
-3.1637634e+21
1.557706e+20
1.5726602e+20
-2.5924051e+20
-2.4359421e+20
-7.1064648e+18
-3.9870634e+21
-7.6369983e+19
-2.4644584e+20
1.6535724e+20
1.7666277e+20
-2.4879857e+20
-4.0729251e+21
-2.4473343e+20
-2.631569e+20
1.525179e+20
1.6966004e+20
8.1496741e+19
-1.465038e+22
-4.3188425e+19
-5.4285201e+20
1.1680723e+21
1.2154327e+21
-6.1491921e+20
-2.8917355e+21
-2.5890668e+18
-6.6899717e+19
1.7316267e+20
-2.387548e+20
1.8406791e+20
-2.4258432e+20
2.8127827e+19
-7.5171971e+18
-3.5702601e+21
-1.3900641e+20
-1.3726283e+20
1.9396381e+20
2.0307593e+20
3.0201311e+21
3.9027998e+19
-3.7455728e+21
-1.5160781e+20
2.1245827e+20
2.1791353e+20
-1.4256983e+20
4.3962371e+19
-2.4833453e+20
1.6627708e+20
1.7093117e+20
-2.3623645e+20
-3.0296906e+21
3.6388928e+19
-2.4521235e+20
-2.4508781e+20
1.6617025e+20
1.7630164e+20
5.2904437e+19
-1.4724296e+20
-1.4680128e+20
-3.7643514e+21
2.1137266e+20
2.0249159e+20
2.9592685e+21
-1.496359e+20
-1.4125763e+20
-3.6403134e+21
2.0611139e+20
2.0757845e+20
1.6791525e+20
-2.4790685e+20
-2.3697218e+20
1.6249304e+20
-1.4292304e+22
1.2067899e+21
1.181806e+21
-5.7104322e+20
-5.204506e+20
-4.4781799e+20
-1.5980033e+22
5.0523116e+20
-3.1569338e+21
-1.5642648e+22
-2.9839441e+21
1.3406909e+22
1.3067108e+22
-6.8397666e+21
-4.79212e+19
5.04366e+19
-1.4425996e+22
8.708262e+20
8.4686075e+20
-1.0099179e+21
-1.0810653e+21
-1.4481027e+22
8.7315612e+20
8.1678582e+20
-1.0727258e+21
-1.0644395e+21
1.2235757e+19
9.4989219e+20
-5.8682235e+20
-6.1805457e+20
9.3540872e+20
-1.8607631e+22
9.3894101e+20
-6.0284807e+20
-5.8636776e+20
8.9893646e+20
-1.8644383e+22
-2.0457834e+20
1.1897933e+22
1.1291732e+22
-7.9746945e+19
-3.2101871e+21
2.7927338e+19
-1.4476098e+19
1.7239265e+20
1.6277684e+20
-2.4039345e+20
-2.4701401e+20
1.044076e+19
-4.0668802e+21
-2.3323518e+19
-2.5615969e+20
-2.4725623e+20
1.6551555e+20
1.7120037e+20
3.1474769e+21
4.2649256e+19
-4.0735099e+21
-2.4396759e+20
-2.5632451e+20
1.7005701e+20
1.7141097e+20
4.9485939e+19
-2.4171309e+20
-2.5361618e+20
1.4687818e+20
1.4687368e+20
-4.6103795e+19
-3.1292994e+21
1.5946247e+20
1.6384982e+20
-2.5550845e+20
-2.2925528e+20
-3.2351791e+21
1.6919453e+20
1.5782037e+20
-2.4973788e+20
-2.4941785e+20
-3.56359e+19
-4.0099236e+21
-2.6202737e+20
1.5425328e+20
1.5828833e+20
-2.5305349e+20
-4.1158732e+21
-2.5754889e+20
-2.5494419e+20
1.5896226e+20
1.6859202e+20
-2.9682334e+21
-5.3517173e+18
-2.7350496e+19
-2.407831e+20
-2.3426248e+20
1.7158933e+20
1.8024176e+20
-2.8330868e+18
-5.5253038e+18
-3.6430222e+21
-1.4139151e+20
2.0660155e+20
-1.4221057e+20
2.0105039e+20
3.0175548e+21
2.0569939e+19
-1.450616e+20
-1.5109673e+20
2.0978176e+20
2.0841782e+20
-3.7434055e+21
7.0713701e+19
-1.4688826e+22
-8.1370663e+19
1.1900082e+21
1.2084948e+21
-5.5982199e+20
-6.46756e+20
4.2996095e+19
1.7014354e+20
-2.4777166e+20
1.6700416e+20
-2.3971327e+20
-1.455108e+22
1.2061422e+21
1.1720674e+21
-6.1603482e+20
-5.6551337e+20
-3.025776e+21
3.8825755e+19
-2.4257392e+20
-2.4122718e+20
1.688054e+20
1.785406e+20
3.206716e+19
-3.7539523e+21
-1.4707356e+20
-1.4646622e+20
2.0358173e+20
2.1253234e+20
2.9697283e+21
-3.6322212e+21
-1.4829441e+20
2.1205651e+20
2.0252404e+20
-1.3972261e+20
-2.3164887e+20
-2.4508772e+20
1.6559982e+20
1.6778235e+20
-3.6008908e+20
-1.6145088e+22
4.1325214e+20
-3.3430581e+21
-1.590003e+22
-3.2706138e+21
1.65662e+18
-1.5049169e+20
-1.9450468e+18
-9.9866295e+18
-1.0204527e+19
6.6103911e+18
6.9397738e+18
-1.5294586e+20
1.9219821e+18
6.9809485e+18
6.8665529e+18
-1.0407276e+19
-1.0105367e+19
1.1009138e+19
-7.0199848e+20
-9.780233e+18
3.0390456e+19
-5.1346736e+19
-5.1719553e+19
3.3042765e+19
-1.5514588e+18
2.1874275e+18
-1.946953e+20
-1.3416396e+19
-2.3372748e+18
-1.9013457e+20
-1.283336e+19
-1.5317569e+20
-1.0241036e+19
-1.041721e+19
6.6886112e+18
6.9590181e+18
-7.1092639e+20
1.6845816e+19
-5.0921007e+19
-5.3170246e+19
3.1810012e+19
3.2020923e+19
-1.7417857e+18
2.1776061e+18
-1.9185704e+20
-1.3677889e+19
-1.951152e+20
-1.3627927e+19
-9.7609761e+18
1.3971391e+19
-9.2119975e+20
-5.0827313e+19
-5.2062812e+19
3.4526589e+19
3.4170469e+19
-9.0593831e+20
-1.2914595e+19
-5.1780659e+19
-5.0237367e+19
3.3108636e+19
3.5034408e+19
1.6473588e+18
-1.2824137e+19
-1.9236222e+20
1.109167e+19
-7.0577503e+20
3.1210942e+19
-5.0760121e+19
-5.2126048e+19
3.2990026e+19
-1.9478727e+20
-1.361658e+19
-6.9261946e+20
3.2597474e+19
-5.1017933e+19
1.1826167e+19
-9.1885339e+20
3.2868639e+19
-5.2518615e+19
-5.3142635e+19
3.3687311e+19
-8.9357476e+20
3.2205135e+19
-5.4122047e+19
-5.1608195e+19
-7.0808422e+20
1.1437405e+19
-1.5955108e+19
3.423697e+19
-5.0627152e+19
-5.3073971e+19
3.6126942e+19
9.4665888e+18
-1.2143643e+19
-9.1881981e+20
3.4050826e+19
-5.5035315e+19
-5.6508355e+19
3.4089034e+19
-7.1774919e+20
1.1089099e+19
3.6065503e+19
-5.2092387e+19
-5.2702993e+19
3.4706804e+19
1.3900821e+19
-9.3444786e+20
3.3045618e+19
-5.796099e+19
-5.5810441e+19
3.2837787e+19
-9.3808327e+18
6.9856611e+20
-9.063142e+20
-5.4847963e+19
-5.6658622e+19
3.5525568e+19
3.2138947e+19
7.1296827e+20
-9.2794251e+20
-5.6203549e+19
-5.2912104e+19
3.5322742e+19
3.612741e+19
1.0827277e+19
3.2968592e+19
-5.1875907e+19
-5.2283281e+19
3.5073707e+19
-5.214881e+19
-5.3539871e+19
3.2603571e+19
3.1527949e+19
9.3686885e+18
-7.0617796e+20
-8.8542362e+18
3.1206447e+19
3.395336e+19
-5.1736876e+19
-5.169835e+19
-7.2275681e+20
1.5736205e+19
3.3318582e+19
3.3017307e+19
-5.3012723e+19
-5.0692365e+19
-8.0710231e+18
1.5713462e+19
-9.4256219e+20
-5.0872224e+19
-5.2266398e+19
3.5661533e+19
3.5823982e+19
-9.1945631e+20
-8.0197715e+18
-5.2910133e+19
-5.2250416e+19
3.2343707e+19
3.4656649e+19
-1.8843241e+20
-9.2108252e+18
-8.8837224e+18
7.4884137e+18
7.7025488e+18
1.975506e+18
-1.5096206e+20
-1.0224944e+19
-1.0419958e+19
6.4274566e+18
6.7901914e+18
-1.5273822e+20
1.6883051e+18
6.865652e+18
6.7381742e+18
-1.0509761e+19
-1.0195328e+19
1.8111685e+18
-1.3675827e+19
-1.9103184e+20
8.9629988e+18
-7.0040856e+20
3.0232971e+19
-5.2070899e+19
-5.1225757e+19
3.2460902e+19
2.03187e+18
-1.9397044e+20
-1.4005643e+19
1.4426153e+18
-1.5385838e+20
-1.0096319e+19
-1.0235742e+19
6.6937945e+18
6.9622671e+18
-1.5113203e+20
6.9603791e+18
6.7745993e+18
-1.0311824e+19
-9.9355183e+18
-6.9987501e+20
3.2706149e+19
-5.1174199e+19
-5.0419913e+19
3.1700465e+19
-1.7554852e+18
-1.9068753e+20
-1.3643378e+19
-1.9559552e+20
-1.2807268e+19
9.0862492e+18
-9.0996989e+20
3.1321642e+19
-5.3428149e+19
-5.3671381e+19
3.2726067e+19
-9.0817446e+20
3.2874789e+19
-5.3601582e+19
-5.1158826e+19
3.2762568e+19
7.2153733e+20
6.589138e+18
-9.2947768e+20
-1.1507974e+19
3.6608868e+19
-5.2737709e+19
-5.5204353e+19
3.7746559e+19
7.8211705e+18
-6.5973239e+18
-5.2847875e+19
-5.0621317e+19
3.4014934e+19
3.566863e+19
-7.3522897e+20
9.7009262e+18
3.687599e+19
-5.3332628e+19
-5.2181624e+19
3.6088098e+19
6.435772e+18
-9.5115903e+20
3.7258382e+19
-5.5415724e+19
-5.2347259e+19
3.7789506e+19
-8.3009984e+18
7.1119114e+20
-9.2350956e+20
-5.4166883e+19
-5.3915911e+19
3.6622692e+19
3.5202538e+19
7.0873362e+20
-9.2265708e+20
-5.7283677e+19
-5.7017346e+19
3.0575297e+19
3.2627111e+19
7.8140232e+18
2.9621456e+19
-5.4701268e+19
-5.4307141e+19
3.2555534e+19
-5.0643558e+19
-5.2681638e+19
3.4213758e+19
3.3647068e+19
2.8426042e+21
-3.4935863e+19
-3.1054183e+21
9.5607062e+19
-3.4070568e+20
2.2478169e+19
2.2476082e+19
2.6189417e+20
2.7047702e+20
-6.1649339e+19
-7.5257684e+19
-2.9133728e+21
3.0393593e+19
2.6588348e+20
2.680305e+20
-8.3599559e+19
-7.4995094e+19
-6.8674658e+19
-3.1543634e+21
-3.4018732e+20
-7.1192403e+20
5.5799097e+18
-1.7062589e+19
3.8122916e+19
-5.3434913e+19
-5.6622509e+19
3.9026235e+19
1.0095398e+18
-8.9622539e+20
-1.5369593e+19
3.8382516e+19
-5.724537e+19
-5.8405816e+19
3.7175372e+19
-7.2519523e+20
-6.1000611e+17
3.9293495e+19
-5.5922484e+19
3.7544867e+19
-5.6621834e+19
-9.1393587e+20
-4.5673318e+18
3.577811e+19
-6.092232e+19
-5.8414214e+19
3.5291677e+19
9.1372114e+17
6.7833135e+20
6.5889623e+18
-8.2426368e+20
-4.1861783e+19
-4.3543815e+19
4.2719764e+19
4.210946e+19
6.6487023e+20
-3.3552465e+18
-8.0061889e+20
-4.1386959e+19
-4.1261331e+19
4.18458e+19
4.3557642e+19
-3.6360179e+18
-4.66819e+18
3.8316816e+19
-5.4035055e+19
-5.4011093e+19
4.064231e+19
-2.0918335e+18
-5.4670839e+19
-5.6459576e+19
3.8830461e+19
3.8227269e+19
6.9769338e+20
6.8373683e+18
-8.5111319e+20
-4.3114604e+19
-4.2835237e+19
4.4570985e+19
4.2942803e+19
8.2136e+18
9.2880711e+20
3.88466e+19
-5.4033213e+19
-5.4358164e+19
4.058403e+19
-6.9096699e+20
9.2678336e+20
6.0081281e+18
4.4701674e+19
-5.3533481e+19
4.4341091e+19
-5.120644e+19
6.239799e+18
-8.38519e+20
4.7496711e+19
-4.3127224e+19
4.3048354e+19
-4.1837826e+19
7.1443385e+20
6.1517063e+18
3.4357038e+19
-5.6468591e+19
-5.8285099e+19
3.5716385e+19
4.2917315e+18
-5.7660673e+19
-5.5590174e+19
3.2426393e+19
3.3976595e+19
-7.1997021e+20
9.7333305e+18
3.8280198e+19
-5.605625e+19
-5.5221875e+19
3.4948238e+19
1.0724894e+19
3.7845769e+19
-5.5704144e+19
-5.3465312e+19
3.7327287e+19
-8.2140205e+18
7.1854934e+20
-9.2429516e+20
1.0280869e+19
-5.6353257e+19
-5.8568129e+19
3.6683792e+19
3.6704544e+19
7.1014349e+20
-9.1089914e+20
-5.7378265e+19
-5.687681e+19
3.4820692e+19
3.7613199e+19
1.0825162e+19
3.293693e+19
-5.5837606e+19
-5.622411e+19
3.5526971e+19
1.4903558e+19
-5.5257348e+19
-5.7516081e+19
3.4631754e+19
3.4466568e+19
7.0425447e+18
6.8185628e+20
-8.3365112e+20
-4.217835e+19
4.3606037e+19
4.4118875e+19
-4.1797193e+19
6.9039287e+20
1.2496803e+19
-8.4580619e+20
-4.358578e+19
4.512107e+19
4.3045284e+19
-4.1422591e+19
4.1609454e+19
-2.9406911e+21
2.6313024e+20
2.7054244e+20
-7.654784e+19
-8.5209909e+19
-6.5941778e+18
1.2119016e+19
-5.2388136e+19
-5.5240727e+19
3.9746187e+19
3.9828354e+19
-5.313874e+19
-5.3577131e+19
3.8157371e+19
4.1421179e+19
1.4429106e+19
6.885159e+20
-8.4486469e+20
-4.196318e+19
4.4447952e+19
4.4479377e+19
-4.2183333e+19
6.7589074e+20
-8.1788831e+20
-4.2298298e+19
4.5943552e+19
4.3028015e+19
-4.1044742e+19
-2.8184743e+21
2.6941866e+20
2.628549e+20
-7.5321632e+19
-6.4495578e+19
-1.2883498e+19
9.0711396e+20
-5.0827689e+19
-5.3523088e+19
4.0757249e+19
4.0669416e+19
9.2073962e+20
-5.2930029e+19
-5.3227296e+19
3.889418e+19
4.1853512e+19
-7.1502221e+20
8.6523115e+18
3.7520702e+19
-5.5516827e+19
-5.6858521e+19
3.6101e+19
1.0825134e+19
3.4639145e+19
-5.6597911e+19
-5.7396318e+19
3.6621436e+19
7.0537235e+20
-5.501808e+19
-5.7226454e+19
3.6316969e+19
3.5825371e+19
3.4046164e+19
-5.7239537e+19
-5.5056578e+19
3.3215625e+19
-8.13852e+19
-3.1630836e+21
-3.3593841e+20
-3.0156898e+21
-3.1202504e+20
-3.157931e+20
3.4507017e+20
2.7228218e+21
2.7217218e+21
-1.4836145e+21
2.750416e+21
2.6273858e+21
-1.3979223e+21
-1.8310564e+22
-9.6192522e+20
9.5883167e+20
1.0261461e+21
-8.9194296e+20
1.3175096e+22
1.2806672e+22
-4.696459e+20
1.3899323e+22
1.4266608e+22
1.3441621e+22
1.317951e+22
-6.8362491e+21
-3.25044e+20
1.3802727e+19
-3.1963625e+21
1.6864517e+20
1.6848714e+20
-2.2510543e+20
-2.4501729e+20
-3.1724588e+21
1.555231e+19
1.583417e+20
1.6557367e+20
-2.2863747e+20
-2.5529374e+20
-2.0269388e+19
-4.0914347e+21
1.8190775e+20
-2.2758936e+20
-2.5499641e+20
1.7081318e+20
2.3534308e+19
-4.093541e+21
-2.6346248e+20
1.5487976e+20
1.5729906e+20
-2.5250287e+20
3.0167351e+19
-3.2311762e+21
1.6847358e+20
1.595072e+20
-2.4550366e+20
-2.499489e+20
-3.1324617e+21
1.6042977e+20
1.6557957e+20
-2.2577074e+20
-2.5247333e+20
1.4859606e+19
-4.1158277e+21
-2.5830593e+20
-2.5212559e+20
1.6225257e+20
1.6877973e+20
-4.0081877e+21
-2.5979159e+20
1.5604134e+20
1.5775011e+20
-2.5117718e+20
-3.0066387e+21
-2.6699861e+19
1.7935265e+20
-2.3447823e+20
-2.4472769e+20
1.7923624e+20
-2.6890719e+19
-1.5569264e+20
-1.479643e+20
2.063254e+20
2.1199895e+20
-3.6865601e+21
3.0404409e+21
-1.4561764e+19
2.1573132e+20
-1.5461283e+20
-1.5328583e+20
2.0543112e+20
-3.784088e+21
2.0289758e+19
-2.4829216e+20
-2.4494532e+20
1.6831499e+20
1.6024159e+20
1.4674331e+19
-1.458895e+22
1.157297e+21
1.17015e+21
-5.7997253e+20
-6.7861597e+20
-3.0240782e+21
1.4173279e+19
-2.445061e+20
1.6709122e+20
-2.4646352e+20
1.771865e+20
8.7818237e+18
-1.5397895e+20
-1.4972151e+20
2.0300226e+20
-3.7583908e+21
2.0881905e+20
2.961079e+21
-1.4735668e+20
-1.5021408e+20
-3.6576947e+21
2.085089e+20
2.0256647e+20
-2.4061692e+20
-2.4663277e+20
1.6575176e+20
1.6014842e+20
-1.4697913e+22
1.1920151e+21
1.1648874e+21
-6.5185784e+20
-6.0583221e+20
-3.5487716e+20
-1.6216824e+22
-3.316797e+21
-1.6137473e+22
-3.3895095e+21
-9.2939999e+18
-7.0836962e+20
1.2459748e+19
3.4001546e+19
-5.0594763e+19
-5.0237511e+19
3.3236285e+19
-6.918237e+20
-8.7902715e+18
3.2466207e+19
-4.8450781e+19
-5.0275755e+19
3.435159e+19
5.7127516e+18
-8.9741368e+20
-7.7515582e+18
3.424196e+19
-5.0559245e+19
-5.1480484e+19
3.5033126e+19
-9.2141016e+20
1.0636358e+19
3.3323257e+19
-5.407332e+19
-5.1729533e+19
3.3582483e+19
-4.886389e+18
7.1669608e+20
1.1466578e+19
-9.3595161e+20
-5.578924e+19
-5.7272071e+19
3.5940547e+19
3.363647e+19
7.0163501e+20
-9.1243292e+20
-5.7557541e+18
-5.4449715e+19
-5.3175892e+19
3.6052822e+19
3.5983861e+19
4.626761e+18
-2.8685838e+18
3.3400142e+19
-5.0023885e+19
-5.1073791e+19
3.5676208e+19
9.3850364e+18
-5.2199075e+19
-5.3611755e+19
3.3976847e+19
3.3561991e+19
-8.274749e+18
7.0375381e+20
8.0506734e+18
-9.1232725e+20
-5.4248159e+19
-5.3246975e+19
3.7189093e+19
3.5136001e+19
7.1091437e+20
-9.2579215e+20
-5.6223599e+19
-5.3091538e+19
3.5091023e+19
3.596922e+19
8.7769371e+18
9.1658994e+20
3.3272058e+19
-5.1677746e+19
-5.2010368e+19
3.5405574e+19
9.0441163e+20
1.1935283e+19
3.5216985e+19
-5.1872088e+19
-5.0095404e+19
3.4345308e+19
-1.0205506e+19
6.9548429e+20
1.331088e+19
-5.0417377e+19
-5.2138006e+19
3.361508e+19
3.3049159e+19
7.0193824e+20
-5.2369011e+19
-5.1742751e+19
3.1731748e+19
3.384636e+19
8.0410061e+18
2.8482755e+19
-5.2400106e+19
-5.2243359e+19
3.095454e+19
9.4450703e+18
-5.065574e+19
-5.2657443e+19
3.0356844e+19
2.9710428e+19
5.2290837e+18
-6.9906514e+20
-1.3232211e+19
3.1287159e+19
3.3436491e+19
-5.029921e+19
-5.0034993e+19
-7.0116295e+20
3.2576982e+19
3.2297648e+19
-4.9230188e+19
-5.2614063e+19
8.6027778e+18
-1.3203381e+19
-9.0949185e+20
3.2636321e+19
-5.2447144e+19
3.2934204e+19
-5.3604564e+19
-9.0141494e+20
-5.1084489e+19
3.5423221e+19
3.5590729e+19
-4.8349807e+19
-9.4035628e+18
-7.0449358e+20
3.2111416e+19
3.258188e+19
-5.0891688e+19
-5.2147631e+19
-6.9613539e+20
-5.1102576e+19
-5.0930238e+19
3.0961279e+19
3.3637439e+19
-9.4091985e+18
-9.1972651e+20
-5.2061494e+19
-5.3182728e+19
3.4404052e+19
3.2540993e+19
-9.0256388e+20
-5.2429177e+19
-5.2123851e+19
3.141207e+19
3.4053282e+19
7.0877357e+20
7.7364884e+18
-1.09705e+19
-9.2333737e+20
-5.6591216e+19
-5.5791308e+19
3.4498643e+19
3.3654293e+19
8.5020781e+18
-1.3667707e+19
3.1547341e+19
-5.2484273e+19
-5.3586631e+19
3.3224118e+19
-7.0737804e+20
3.627021e+19
-5.1851846e+19
3.4528329e+19
-5.2790566e+19
-9.1535388e+20
3.2849542e+19
-5.7902689e+19
-5.5907315e+19
3.2111272e+19
-8.8034724e+18
7.1639382e+20
-9.3443013e+20
-5.5382097e+19
-5.6170293e+19
3.6375459e+19
3.3497307e+19
7.0468179e+20
-9.163787e+20
-5.5852718e+19
-5.5107019e+19
3.2250271e+19
3.4709411e+19
1.0621334e+19
-5.226105e+19
-5.2101874e+19
3.2002206e+19
3.4754815e+19
3.4124298e+19
-5.2974926e+19
-5.2057186e+19
3.3120747e+19
-5.5650519e+18
7.1298218e+20
-9.0319571e+20
1.1465751e+18
-5.7332619e+19
-6.0618078e+19
3.572858e+19
3.607107e+19
7.0617486e+20
-9.0828901e+20
-7.5648296e+18
-5.4021703e+19
-5.5237335e+19
3.6503714e+19
4.2606788e+19
5.6138662e+18
-5.2697666e+18
3.4558456e+19
-5.404694e+19
-5.3282571e+19
3.775819e+19
7.9807385e+18
3.4561456e+19
-5.8727218e+19
-5.5729306e+19
3.480052e+19
-2.0807472e+19
-2.8505002e+21
2.6238828e+19
2.6777216e+20
-6.3979511e+19
-8.136154e+19
2.6962464e+20
6.7544701e+20
-7.9287966e+18
1.9453943e+18
-8.1241895e+20
-4.1493787e+19
-4.1119418e+19
4.0928771e+19
4.324842e+19
-1.5116672e+18
-3.2936003e+18
-5.1744006e+19
3.9456476e+19
4.2631503e+19
-5.1779166e+19
6.7238386e+20
2.5258309e+18
-8.2674007e+20
4.3205053e+19
-4.2881592e+19
-4.165952e+19
4.3027254e+19
-2.5644523e+17
-5.3695401e+19
-5.578772e+19
3.9468543e+19
3.8997936e+19
-3.7947077e+18
6.8475003e+20
4.7062058e+18
-8.3230137e+20
-4.2160729e+19
-4.3206377e+19
4.5804565e+19
4.1140925e+19
6.9256905e+20
-8.418262e+20
-4.3374804e+19
-4.2768331e+19
4.0673829e+19
4.2360969e+19
4.7146531e+18
9.2501472e+20
3.8992136e+19
-5.3404804e+19
-5.4117946e+19
4.0895632e+19
9.1502883e+20
9.1533521e+18
-5.2240782e+19
-5.4358726e+19
4.0595385e+19
3.9704455e+19
-2.9156056e+21
-3.4819322e+18
2.6396586e+20
2.6708175e+20
-8.7266088e+19
-8.0411704e+19
-4.5034381e+19
-3.0882419e+21
1.0688247e+20
-3.8392792e+20
-8.546175e+19
-3.1351892e+21
-3.8674357e+20
-7.1481674e+20
5.4290579e+18
3.7281868e+19
-5.4686439e+19
-5.6801755e+19
3.5926135e+19
5.508721e+18
3.5041356e+19
-5.59995e+19
-5.7386258e+19
3.6408571e+19
-7.0977854e+20
7.7761955e+18
3.8978552e+19
-5.6088642e+19
-5.5146084e+19
3.4364486e+19
1.2098042e+19
3.6013654e+19
-5.7411912e+19
-5.5220149e+19
3.5566129e+19
1.0567305e+19
-2.9291255e+21
2.6473761e+20
2.6974959e+20
-7.8053874e+19
-8.9165803e+19
-2.8114113e+21
2.7048691e+20
-7.6490296e+19
-6.756444e+19
2.5786994e+20
-9.4843576e+19
-3.1552687e+21
-3.8050827e+20
-3.0174614e+21
-3.586983e+20
-7.3217738e+18
7.1760762e+20
-9.2615331e+20
9.0272535e+18
-5.5894868e+19
-5.6938712e+19
3.6795395e+19
4.0304512e+19
7.1010386e+20
-9.127676e+20
-5.6486606e+19
-5.4786761e+19
3.9095903e+19
3.8390315e+19
9.1750837e+18
-5.5458839e+19
-5.3972543e+19
3.4310848e+19
3.6252195e+19
1.133883e+19
3.5857444e+19
-5.6082764e+19
-5.4974025e+19
3.4753658e+19
-4.8575567e+18
6.916486e+20
7.9289185e+18
-8.4291935e+20
-4.2033538e+19
-4.3682574e+19
4.5089796e+19
4.1752309e+19
6.8068832e+20
-8.2899768e+20
-4.2083176e+19
-4.2254294e+19
4.3513539e+19
4.2515772e+19
6.6957768e+18
3.9037987e+19
-5.3307262e+19
-5.3123245e+19
4.1352569e+19
1.2168427e+19
4.0458615e+19
-5.515357e+19
-5.2377117e+19
3.96271e+19
6.9099533e+20
7.5380779e+18
-8.392499e+20
-4.2664247e+19
-4.2053761e+19
4.1306836e+19
4.3762439e+19
1.7612096e+19
9.215151e+20
-5.2400539e+19
-5.2698525e+19
3.9294517e+19
4.1897675e+19
-6.6430608e+20
8.9885188e+20
4.502857e+19
-5.3638185e+19
-5.2092577e+19
4.1624417e+19
-8.0241003e+20
4.4025508e+19
-4.2079758e+19
-4.1153442e+19
4.1772029e+19
-1.6930473e+19
7.0922266e+20
-5.6203102e+19
-5.7142088e+19
3.7101746e+19
3.5784654e+19
7.1039883e+20
-5.6953277e+19
-5.6380079e+19
3.4722388e+19
3.6736292e+19
9.0995356e+18
3.2918795e+19
-5.6343833e+19
-5.6656189e+19
3.4981775e+19
-5.6036903e+19
-5.8053789e+19
3.4336633e+19
3.3442105e+19
-2.8726679e+20
3.3469076e+20
2.6974866e+21
2.6965815e+21
-1.5663554e+21
2.724047e+21
2.6124283e+21
-1.5425013e+21
4.5403877e+16
2.9493922e+19
-3.5406265e+19
-9.6119777e+16
-4.0235461e+18
2.9955122e+19
9.8281936e+16
-3.6232952e+19
-3.9795635e+18
-4.354134e+16
1.9049791e+17
-2.0526505e+18
-2.7509727e+15
-1.9709237e+18
-1.216863e+17
-2.9948627e+19
-2.0882223e+18
-2.9650283e+19
-1.2318877e+17
-2.0189719e+18
7.247831e+16
-3.6163507e+19
-4.1665711e+18
-3.5621753e+19
5.5465651e+16
-4.1168565e+18
-1.5149073e+20
2.3930571e+18
-2.5915191e+18
-8.0548541e+18
2.0264273e+18
-1.9529429e+20
-2.6155174e+18
-6.9540754e+18
1.541078e+20
2.7342653e+18
-1.9939549e+20
-7.1395891e+18
2.6529603e+18
-7.8045595e+18
-1.3849587e+17
4.6081664e+17
2.4787942e+19
2.4764435e+19
-1.2066845e+20
-7.5579755e+18
-7.5643685e+18
3.6898782e+17
3.4557465e+17
-2.1746653e+17
2.4781737e+19
2.4881121e+19
-1.2005168e+20
-7.416938e+18
-7.4270218e+18
4.1543767e+17
4.2381853e+17
-7.9157282e+15
2.9582325e+19
-3.5588895e+19
-4.1710508e+18
2.9917471e+19
-3.6215727e+19
-4.1392258e+18
-3.9889672e+16
-2.0869375e+18
-2.0246078e+18
-2.4388493e+18
1.5267987e+20
-1.9669677e+20
3.1404968e+18
-7.6056437e+18
1.545391e+20
-2.0033314e+20
-7.0807082e+18
1.8603059e+18
-7.9733684e+18
2.9085993e+18
-8.2044907e+18
-6.7496902e+17
4.5273859e+17
-1.2043127e+20
-7.5889868e+18
-7.5498934e+18
3.8370883e+17
3.3529096e+17
2.4740451e+19
2.4796778e+19
-1.2079252e+20
-7.5656839e+18
-7.5503536e+18
3.7844541e+17
3.4625798e+17
-2.555099e+18
1.5765802e+20
3.3524902e+18
-2.0155e+20
-7.7326647e+18
1.6006054e+20
-3.0093131e+18
-2.0581619e+20
-5.8528945e+18
2.3855768e+18
-2.9266062e+18
-5.2049115e+18
3.6450725e+18
-6.1277363e+18
-2.1804017e+18
1.5896314e+20
-2.0411563e+20
-7.4570198e+18
1.5692634e+20
-2.0075631e+20
-2.7991624e+18
-5.7886251e+18
2.4788986e+18
-2.6483698e+18
-5.0897982e+18
-5.8456221e+18
7.3068053e+17
-1.210321e+20
-7.5149551e+18
-7.4551633e+18
4.2702144e+17
4.0815322e+17
-1.5304997e+20
2.3677721e+18
-7.5604283e+18
1.9711752e+18
-1.9657778e+20
-6.0629538e+18
1.5419199e+20
3.0086616e+18
-1.9947522e+20
-7.8802289e+18
2.8245455e+18
-8.0620195e+18
-1.2035123e+20
-7.621424e+18
-7.593343e+18
3.3854334e+17
3.0442364e+17
-1.5401666e+20
-7.4135924e+18
-1.984865e+20
-5.9325923e+18
-1.5760237e+20
2.5959476e+18
-5.0575975e+18
2.3926798e+18
-2.0194567e+20
-7.2154701e+18
1.595612e+20
3.1462235e+18
-2.0550552e+20
-7.9517653e+18
3.1672315e+18
-6.7979438e+18
-1.5866436e+20
-6.5001378e+18
2.3711727e+18
-2.0425709e+20
-7.7541705e+18
-1.995845e+20
-8.2628886e+18
-1.6085633e+20
2.8039319e+18
-3.2577609e+18
-5.2091344e+18
2.2269358e+18
-2.0469458e+20
-3.7666108e+18
-5.249202e+18
1.6237259e+20
-2.0839791e+20
3.3599202e+18
-8.1815605e+18
3.4331883e+18
-6.2453006e+18
-1.6479291e+20
2.727704e+18
-3.9681234e+18
-4.6103866e+18
2.3161297e+18
-3.5732698e+18
-2.1076555e+20
-7.805531e+18
1.6739388e+20
3.1170851e+18
-2.1573627e+20
-8.9668705e+18
3.2820135e+18
-7.4692564e+18
-1.632876e+20
2.0867864e+18
-5.1166356e+18
2.2182467e+18
-2.0897885e+20
-5.2594262e+18
1.6133652e+20
-2.0589686e+20
2.4416286e+18
-8.3659605e+18
3.0571293e+18
-6.4769794e+18
-1.6760584e+20
2.1034658e+18
-7.1487971e+18
2.4477041e+18
-2.1594565e+20
-8.9517664e+18
1.6592713e+20
3.0180386e+18
-2.128273e+20
-9.4805572e+18
2.756016e+18
-7.7844645e+18
-2.5386153e+18
1.6508926e+20
-2.1104345e+20
-9.2491429e+18
1.6716478e+20
-3.1434733e+18
-2.1490918e+20
-8.3093468e+18
1.9967672e+18
-3.4429614e+18
2.0863248e+20
-4.4958541e+18
2.0461298e+20
-8.1290815e+18
-1.9713962e+18
1.6793195e+20
-2.1613697e+20
-9.1705644e+18
1.6689384e+20
-2.1335165e+20
-5.4076149e+18
2.6770427e+18
2.0691426e+20
-4.6186442e+18
2.094479e+20
-6.1544163e+18
-1.6176763e+20
2.9682565e+18
-7.1205174e+18
2.3090105e+18
-6.5966172e+18
1.6343582e+20
3.5116248e+18
-7.473731e+18
3.488253e+18
-7.5159099e+18
-2.6576134e+18
1.6036237e+20
-8.2237934e+18
1.6271038e+20
-6.7636899e+18
1.9169905e+18
-7.3718053e+18
-8.4212005e+18
2.180135e+18
-1.534747e+20
-2.410181e+18
-7.5447719e+18
-1.5607489e+20
2.4624946e+18
-7.2542146e+18
1.8985766e+18
-1.9740305e+20
-2.7706529e+18
-6.9364473e+18
2.659341e+18
-2.0172774e+20
-6.8062472e+18
-1.9240401e+18
-1.5505206e+20
3.1858522e+18
-7.7093132e+18
-1.5688707e+20
-7.4922339e+18
2.5873827e+18
-2.0335368e+20
-6.4741391e+18
-1.9977853e+20
3.6258483e+18
-7.0043418e+18
-2.717191e+18
1.6038522e+20
4.2002766e+18
-2.0561618e+20
-7.1243463e+18
1.6271029e+20
-2.7864393e+18
-2.0959879e+20
-5.3086455e+18
-2.4155119e+18
4.2348226e+18
-5.5510646e+18
-2.6264418e+18
-4.6084499e+18
-1.9462725e+18
1.6140622e+20
-2.0796046e+20
-7.1960401e+18
1.5880703e+20
-2.0360122e+20
-2.602191e+18
-6.8003033e+18
2.2817289e+18
-2.6917116e+18
-5.842308e+18
-6.0095685e+18
-2.1715317e+17
3.0959646e+19
-3.8981876e+19
-1.1318989e+18
3.0453367e+19
-3.8197966e+19
-1.0574192e+18
2.4498003e+17
-7.1341274e+17
-7.9717307e+17
5.3314842e+16
2.953343e+19
-3.5583228e+19
-4.1550783e+18
2.9994088e+19
1.5079865e+17
-3.6400845e+19
-4.1106711e+18
2.0926476e+16
-2.173983e+18
3.7199894e+16
-2.0997273e+18
-1.2793287e+17
-2.9956026e+19
-2.1605436e+18
-2.9635186e+19
-1.5872684e+17
-2.0987024e+18
9.100617e+16
-3.6199269e+19
-4.2067126e+18
-3.5649262e+19
8.3635091e+16
-4.1738671e+18
7.2435313e+17
2.4774508e+19
2.4895337e+19
-1.2100082e+20
-7.5566931e+18
-7.5725171e+18
2.8873957e+17
3.1859711e+17
-1.5186039e+20
2.4745788e+18
-8.2271611e+18
-2.0962441e+18
1.5337517e+20
2.7187979e+18
-1.9812617e+20
-7.9424092e+18
-1.948026e+20
-6.7539186e+18
2.6132797e+18
-8.2730343e+18
2.7991823e+17
2.4731155e+19
2.471181e+19
-1.2027724e+20
-7.5760355e+18
-7.6050771e+18
3.0289198e+17
3.02822e+17
6.7487096e+16
2.9493431e+19
-3.5490231e+19
-4.0833367e+18
2.984211e+19
1.7681744e+17
-3.6137085e+19
-4.050078e+18
-4.2525482e+16
-2.084526e+18
-2.5789596e+15
-2.014788e+18
-1.7234917e+17
-2.9752654e+19
-2.0990614e+18
-2.9368757e+19
-2.0364524e+18
1.2383012e+17
-3.5894118e+19
-4.1173585e+18
-3.5194915e+19
-4.0816387e+18
-1.5438384e+20
1.5062682e+18
-7.3984829e+18
2.0083461e+18
-1.9905374e+20
-5.7938373e+18
1.5202104e+20
-1.9548117e+20
-7.5669173e+18
-8.0512577e+18
-5.6244751e+17
2.4633572e+19
2.4596575e+19
-1.1930189e+20
-7.4906664e+18
-7.526632e+18
3.5639622e+17
3.4527578e+17
2.4693753e+19
2.4779927e+19
-1.20094e+20
-7.4171557e+18
-7.4497871e+18
3.719474e+17
3.9824885e+17
-1.5601117e+20
2.546948e+18
-5.7818926e+18
2.3955683e+18
-1.9961666e+20
-8.0179336e+18
1.5856396e+20
2.4734595e+18
-2.0416459e+20
-8.1486316e+18
2.5806547e+18
-6.8698407e+18
-1.5900796e+20
1.8234054e+18
-6.4137323e+18
2.2001296e+18
-2.0480604e+20
-7.530161e+18
1.5693465e+20
-2.0085701e+20
-7.8354593e+18
-6.6088964e+18
-1.6931183e+20
1.8734838e+18
2.0976244e+20
-1.6250988e+18
-4.0901146e+18
1.606017e+18
-2.164698e+20
-1.8894908e+18
-5.2962838e+18
1.7075024e+20
2.8971251e+18
-2.1890946e+20
-8.3362274e+18
2.1338414e+20
2.8433382e+18
-5.8571865e+18
-1.5989645e+18
1.6585534e+20
3.1891896e+18
-6.9092977e+18
1.6374314e+20
-1.7315801e+18
-4.46939e+18
2.3999766e+18
-2.076147e+18
-6.1669647e+18
3.0814062e+18
-7.1179021e+18
-1.671373e+20
2.342525e+18
-4.8466124e+18
2.7959079e+18
-2.1478503e+20
-5.2916281e+18
1.6516613e+20
-2.1155378e+20
3.8997784e+18
-6.8978299e+18
4.1955161e+18
-6.2149241e+18
-1.7200088e+20
2.4204845e+18
-5.1028953e+18
2.8050181e+18
-2.2105598e+20
-6.2685123e+18
1.7006558e+20
3.1072306e+18
-2.1682787e+20
-5.8871858e+18
3.6346938e+18
-4.9128897e+18
-2.2217975e+18
1.6589613e+20
-2.1249702e+20
-8.9174558e+18
1.6843113e+20
-2.0444961e+18
-2.1664618e+20
-5.8781769e+18
2.1221119e+18
-1.9517892e+18
2.0976405e+20
-4.880526e+18
2.0545969e+20
-6.2070035e+18
-1.7611272e+18
1.6765364e+20
-2.1565242e+20
-9.5682371e+18
1.6474846e+20
-2.1087936e+20
-9.5403119e+18
2.3430948e+18
2.0459428e+20
-7.9788988e+18
2.0889776e+20
-8.2256839e+18
-1.6014287e+20
2.9510751e+18
-8.6078688e+18
2.1277127e+18
-8.4777708e+18
1.6279315e+20
2.0397002e+18
-8.1144993e+18
2.2175569e+18
-8.082365e+18
-2.5679475e+18
1.6098088e+20
-7.3633837e+18
1.6316506e+20
-6.6108696e+18
1.7947296e+18
-7.0043683e+18
-7.6920678e+18
6.5046825e+20
6.6966533e+20
-5.2299388e+19
7.7487449e+19
-1.728144e+20
5.9834592e+20
6.1126717e+20
-3.3951254e+18
-5.9656975e+20
5.8436978e+17
4.9323125e+19
-1.8979103e+19
-2.1315939e+19
5.1628266e+19
-6.1780654e+20
6.6030114e+18
4.988286e+19
-2.3759451e+19
-2.1606828e+19
4.9505568e+19
3.7544733e+18
1.356583e+19
-2.5070645e+19
5.1730061e+18
-2.4816902e+19
-8.081784e+18
-6.2085096e+20
2.2238594e+18
5.1205995e+19
-2.4357627e+19
-2.2006532e+19
4.9231934e+19
-6.3558516e+20
4.8979356e+19
-2.3376029e+19
-2.5093821e+19
5.0514484e+19
-3.5658926e+18
-6.8029682e+20
-3.0148574e+19
-6.5997925e+20
-8.1729608e+18
-3.1259244e+19
-4.3472282e+19
6.1306827e+20
5.9985183e+20
-1.8048625e+20
-1.7389591e+20
2.0995996e+18
-2.2293507e+18
-4.3211962e+18
1.6834621e+18
-2.2103216e+20
-3.3105659e+18
-4.6715635e+18
1.742268e+20
-2.2321736e+20
3.3463621e+18
-9.2948172e+18
3.0444244e+18
-6.6012199e+18
-1.7739576e+20
2.020626e+18
-3.9791576e+18
-3.2953202e+18
2.0329834e+18
-2.2353617e+20
-4.3335742e+18
-8.8043668e+18
1.7873384e+20
2.9579669e+18
-2.2735566e+20
-1.0708963e+19
2.7986613e+18
-8.086156e+18
-1.7547705e+20
1.8889221e+18
-5.1299237e+18
2.0606565e+18
-2.2419677e+20
-5.9170506e+18
-1.7341715e+20
2.6143535e+18
-6.5912621e+18
-2.2097212e+20
2.2194368e+18
-9.2256196e+18
-1.7923156e+20
1.5079622e+18
-7.8963802e+18
1.7835769e+18
-2.2788269e+20
-1.1096788e+19
1.7766552e+20
-2.2481739e+20
1.0641339e+18
-1.0542874e+19
1.4437324e+18
-7.9506836e+18
-3.5859576e+17
1.6556105e+20
8.6288098e+17