/*--------------------------------*- C++ -*----------------------------------*\
  =========                 |
  \\      /  F ield         | OpenFOAM: The Open Source CFD Toolbox
   \\    /   O peration     | Website:  https://openfoam.org
    \\  /    A nd           | Version:  7
     \\/     M anipulation  |
\*---------------------------------------------------------------------------*/
FoamFile
{
    version     2.0;
    format      ascii;
    class       volVectorField;
    location    "4000";
    object      U;
}
// * * * * * * * * * * * * * * * * * * * * * * * * * * * * * * * * * * * * * //

dimensions      [0 1 -1 0 0 0 0];

internalField   nonuniform List<vector> 
34387
(
(-7.1338455e+24 -3.0559891e+23 1.0545562e+24)
(-7.3296267e+24 2.2050563e+23 1.1128546e+24)
(-6.4599468e+24 -2.4565206e+23 -1.1475787e+23)
(-6.46254e+24 1.3511577e+23 -1.0504088e+23)
(-1.0578963e+25 -1.7541286e+23 7.0361307e+23)
(-7.324284e+24 2.2128943e+23 1.1391208e+24)
(-7.3026799e+24 -3.5248188e+23 1.1651654e+24)
(-6.443091e+24 -2.3454416e+23 -1.2696687e+23)
(-6.4580353e+24 1.4911355e+23 -9.9415923e+22)
(-5.1906261e+24 -1.2073472e+23 -5.0381372e+23)
(-5.2165899e+24 -2.1125061e+22 -5.0181841e+23)
(-6.2572847e+24 8.3875477e+22 6.7534206e+22)
(-6.0356404e+24 -2.0802888e+23 -3.1100869e+21)
(-5.7736799e+24 -1.3322002e+23 -8.3031478e+23)
(-5.6922197e+24 8.7781463e+21 -8.2994801e+23)
(-6.2820567e+24 9.416464e+22 5.2923433e+22)
(-5.1588064e+24 -1.2283783e+23 -5.2561962e+23)
(-5.1896629e+24 -1.503173e+22 -4.9307164e+23)
(-6.0642146e+24 -2.2593891e+23 1.683718e+22)
(-5.7485865e+24 -1.1879582e+23 -8.6081962e+23)
(-5.6694222e+24 4.2444014e+22 -8.360389e+23)
(-7.7839002e+24 1.1521948e+23 1.3298525e+24)
(-6.0063619e+24 1.4145961e+23 5.8445207e+23)
(-4.8352652e+24 -1.0582981e+23 1.2240342e+23)
(-5.0706929e+24 -1.2327486e+22 7.7173753e+22)
(-6.1621384e+24 -2.1133759e+23 5.6252044e+23)
(-6.1981035e+24 1.249575e+23 5.5160307e+23)
(-5.0590976e+24 -1.0751075e+23 4.8350966e+22)
(-5.0467747e+24 -1.1639999e+22 6.7142308e+22)
(-6.1235103e+24 -2.6927382e+23 5.4309605e+23)
(-7.5358901e+24 -1.6803088e+23 1.3417771e+24)
(-4.7381961e+24 3.9362709e+23 -1.6926738e+24)
(-4.6867594e+24 2.3797714e+22 -1.5969923e+24)
(-8.4435389e+24 -2.0395689e+22 -1.4643166e+24)
(-7.2484316e+24 2.7808803e+23 1.0789861e+24)
(-7.3730175e+24 -3.3020585e+23 1.1556055e+24)
(-6.4507245e+24 -2.0074348e+23 -1.5934005e+23)
(-6.3967133e+24 1.7487961e+23 -1.1205139e+23)
(-6.1157748e+24 2.2690916e+23 1.1196083e+24)
(-5.9442266e+24 -3.5036305e+23 1.2481184e+24)
(-5.483449e+24 -2.7410552e+23 -1.1865221e+24)
(-5.0555825e+24 1.8642296e+23 -1.0918808e+24)
(-6.2313396e+24 1.192733e+23 1.2811844e+23)
(-5.8239956e+24 -9.8461497e+22 -7.9350123e+23)
(-5.6396534e+24 2.7100637e+22 -8.3247464e+23)
(-6.0550214e+24 -2.2789527e+23 4.0915783e+22)
(-6.0607885e+24 -2.2004782e+23 2.6898113e+22)
(-6.2467152e+24 8.5357527e+22 9.5793953e+22)
(-5.6703755e+24 -1.1102756e+22 -8.5557431e+23)
(-5.7596658e+24 -1.4022115e+23 -8.3818918e+23)
(-6.2056481e+24 1.8496099e+23 6.2375513e+23)
(-4.9737821e+24 -8.7824076e+22 4.920757e+22)
(-5.0170926e+24 2.8752878e+22 5.041102e+22)
(-7.7461129e+24 1.0126026e+23 1.3294014e+24)
(-6.214803e+24 -2.2738916e+23 6.1103509e+23)
(-7.7028652e+24 -1.6840974e+23 1.3582868e+24)
(-6.2263443e+24 1.3158077e+23 6.0092005e+23)
(-5.0157487e+24 -8.0418433e+22 2.956737e+22)
(-4.9942058e+24 3.2701591e+22 6.9043779e+22)
(-6.1867462e+24 -2.857742e+23 6.0419399e+23)
(-4.8326998e+24 3.4419267e+23 -1.8088774e+24)
(-4.8066337e+24 -1.1708306e+22 -1.7148744e+24)
(-4.4693729e+24 -6.1021501e+20 -1.8977509e+22)
(-4.4629063e+24 -8.6882702e+22 -2.3052652e+22)
(-5.3771528e+24 -8.3170015e+21 -6.7452421e+22)
(-4.3950634e+24 -3.0004332e+22 -4.1325606e+23)
(-4.3745356e+24 -8.1553718e+22 -3.910829e+23)
(-4.4717654e+24 3.1849027e+21 -3.2445344e+22)
(-5.3833644e+24 -1.5386647e+23 -7.0348467e+22)
(-4.3920243e+24 -1.8177148e+22 -4.2022042e+23)
(-4.3897508e+24 -7.5362298e+22 -4.2573316e+23)
(-5.2047011e+24 -9.8863039e+21 -5.1379398e+23)
(-5.1839281e+24 -1.3603106e+23 -5.1885107e+23)
(-4.4017249e+24 -7.9135665e+22 -3.9519485e+23)
(-5.3378307e+24 -1.584026e+22 -1.0074004e+23)
(-4.3946738e+24 -2.661862e+22 -4.1850994e+23)
(-5.2897623e+24 -1.3113018e+23 -8.6867185e+22)
(-5.1811096e+24 -1.4278022e+23 -5.9442846e+23)
(-5.1664909e+24 -7.4052872e+21 -6.1626038e+23)
(-5.4438678e+24 -1.1246729e+22 -4.9465213e+22)
(-5.1502059e+24 -1.3072119e+23 -6.8181354e+23)
(-5.4432287e+24 -1.3842855e+23 -5.6408587e+22)
(-5.1686881e+24 -1.2126515e+22 -6.8397762e+23)
(-5.1432493e+24 -1.3941851e+22 -6.7797453e+23)
(-5.153769e+24 -1.2843285e+23 -6.5586863e+23)
(-5.4391129e+24 3.8453753e+21 4.1059948e+20)
(-5.3677091e+24 -1.4469176e+23 -1.1814644e+23)
(-5.38836e+24 -6.1227634e+21 -1.0023533e+23)
(-5.4431149e+24 -1.4212153e+23 -6.3921124e+22)
(-5.3196359e+24 1.1352856e+21 -5.0368327e+23)
(-5.2723754e+24 -1.2654153e+23 -5.9263757e+23)
(-4.2605236e+24 9.2894211e+20 -2.5247995e+23)
(-4.4644944e+24 -1.4014449e+22 -4.349459e+22)
(-4.4620551e+24 -8.2085146e+22 -4.0432317e+22)
(-4.3711217e+24 -9.0523523e+22 -4.2022089e+23)
(-5.2935869e+24 -1.2619428e+22 -1.0271216e+23)
(-4.3747572e+24 -2.5648238e+22 -4.3233265e+23)
(-4.4993495e+24 5.4822845e+21 -1.9466822e+22)
(-4.4779235e+24 -8.5558531e+22 -2.1482343e+22)
(-5.3111513e+24 -1.2574568e+23 -9.7408965e+22)
(-4.3983621e+24 -3.1837603e+22 -4.1099951e+23)
(-4.4148014e+24 -7.0520204e+22 -3.9032822e+23)
(-5.1353192e+24 -1.5245496e+23 -6.4912487e+23)
(-5.2004945e+24 -5.7818387e+21 -5.8110447e+23)
(-5.2637532e+24 -1.1419085e+23 -5.8579115e+23)
(-5.5807372e+24 2.4013571e+22 -1.7152311e+22)
(-5.6012161e+24 -1.2152456e+23 -1.5577343e+22)
(-5.2932006e+24 9.6366722e+21 -5.7264397e+23)
(-5.2126861e+24 -7.5947572e+21 -6.2786788e+23)
(-5.1228405e+24 -1.096619e+23 -7.153205e+23)
(-5.3737641e+24 7.3743022e+21 -1.2781203e+23)
(-5.4450095e+24 -1.50309e+23 8.1790506e+20)
(-3.7581843e+24 1.1790038e+23 -9.1096293e+23)
(-5.9547391e+24 1.8987995e+22 1.1711906e+24)
(-6.0184565e+24 -1.8830206e+23 1.155234e+24)
(-3.6988878e+24 -2.0080523e+23 -9.2943731e+23)
(-5.5968136e+24 1.8490345e+21 -1.1330736e+23)
(-5.0849605e+24 -1.098292e+23 -6.9232944e+23)
(-5.609242e+24 -9.3194721e+22 -1.1394476e+23)
(-5.0991432e+24 6.7626635e+22 -6.9210033e+23)
(-4.5384119e+24 9.2438979e+21 -6.8169761e+22)
(-4.5018032e+24 -8.9497427e+22 -6.7674357e+22)
(-5.4873361e+24 1.0641155e+23 2.4871737e+23)
(-5.5033101e+24 -8.5672223e+22 2.4804614e+23)
(-4.6419306e+24 -6.6081176e+22 -1.1565917e+23)
(-5.6907401e+24 9.5019282e+22 3.1050985e+23)
(-5.7026697e+24 -1.6063944e+23 3.3999649e+23)
(-4.6483923e+24 2.7203473e+22 -9.2412188e+22)
(-5.0998711e+24 -5.6459774e+22 -6.5915383e+23)
(-5.4224916e+24 5.6426334e+22 -1.792052e+23)
(-5.4890358e+24 -1.1133201e+23 -1.4017693e+23)
(-5.2328348e+24 4.0995901e+21 -5.9943773e+23)
(-5.100547e+24 6.4952003e+21 -6.4005177e+23)
(-5.0983953e+24 -1.285329e+23 -6.5194242e+23)
(-5.4941071e+24 -1.2078099e+21 -1.2206284e+23)
(-5.4976262e+24 -1.5064992e+23 -1.1529835e+23)
(-4.598864e+24 -1.2204507e+23 -1.0475834e+23)
(-4.6066513e+24 -2.0469358e+22 -1.0036977e+23)
(-6.0958152e+24 9.9682929e+22 1.1346633e+24)
(-5.6334583e+24 -1.5849469e+23 2.8866203e+23)
(-5.6324943e+24 5.9529417e+22 2.7876099e+23)
(-4.6000075e+24 -1.1246834e+23 -9.5302584e+22)
(-4.5769802e+24 -1.7468772e+22 -9.7159984e+22)
(-5.9302113e+24 -8.2116097e+22 1.1612362e+24)
(-5.6228732e+24 -1.8731556e+23 3.023364e+23)
(-5.6282543e+24 2.8271703e+22 2.9975753e+23)
(-5.4519563e+24 -2.5287847e+21 -1.4178626e+23)
(-5.0910037e+24 -1.2370522e+23 -6.3360516e+23)
(-5.122444e+24 -2.4083511e+22 -6.123677e+23)
(-5.4222915e+24 -1.4001541e+23 -1.6607234e+23)
(-3.6864887e+24 4.0830802e+23 -9.1511637e+23)
(-3.6991285e+24 1.1667413e+23 -8.2405808e+23)
(-5.3568359e+24 4.4144964e+23 -5.704387e+23)
(-5.285314e+24 -1.9189735e+23 -5.1706925e+23)
(-7.5002639e+24 -7.4694614e+22 -4.2691537e+23)
(-8.7574527e+24 -8.9805264e+22 1.6891993e+23)
(-8.4723622e+24 -2.4926695e+22 -1.4818754e+24)
(-6.1622117e+24 1.6285582e+23 1.251552e+23)
(-6.0776586e+24 -1.9533821e+23 7.467437e+22)
(-5.8392972e+24 -2.6432093e+22 -7.7347689e+23)
(-5.6667906e+24 6.4704131e+22 -8.4997138e+23)
(-6.2037969e+24 1.2038113e+23 1.0092421e+23)
(-6.0700166e+24 -1.8810111e+23 6.3476962e+22)
(-5.7780471e+24 -1.122681e+23 -8.2824176e+23)
(-5.6691427e+24 4.7190236e+22 -8.4316018e+23)
(-6.2444842e+24 2.426722e+23 5.9505671e+23)
(-5.0797165e+24 -6.0549691e+22 7.0804584e+21)
(-5.0580703e+24 7.1247789e+22 1.1614785e+22)
(-6.2636789e+24 -1.9950721e+23 5.7405033e+23)
(-7.6003917e+24 1.0554936e+23 1.2567516e+24)
(-6.2166932e+24 1.683035e+23 5.6615971e+23)
(-5.0280347e+24 -3.249205e+22 -1.1414369e+22)
(-4.9812879e+24 6.2409002e+22 3.0210575e+22)
(-6.1933831e+24 -2.384023e+23 5.8335132e+23)
(-7.7017936e+24 -1.5785922e+23 1.3381585e+24)
(-4.8939823e+24 3.4802037e+23 -1.8295872e+24)
(-4.9655346e+24 -2.293179e+22 -1.7824365e+24)
(-5.3584587e+24 -1.4766928e+23 -5.2280278e+22)
(-5.3077959e+24 3.4682893e+21 -5.2817542e+22)
(-5.1542169e+24 -1.1453794e+23 -5.8547169e+23)
(-5.1956085e+24 1.0135015e+22 -6.0084574e+23)
(-5.1727299e+24 -2.9960206e+21 -6.8457649e+23)
(-5.1367e+24 -9.3132043e+22 -6.5588477e+23)
(-5.4218947e+24 4.7206611e+22 -1.0568111e+22)
(-5.4653743e+24 -1.232638e+23 -4.0770178e+22)
(-5.1363902e+24 3.3993243e+21 -6.431579e+23)
(-5.126826e+24 -1.2122023e+23 -6.7585286e+23)
(-5.4283166e+24 1.5783807e+22 1.4057483e+22)
(-5.4289004e+24 -1.4695016e+23 3.7918656e+22)
(-5.1841181e+24 -5.4771429e+21 -5.6016952e+23)
(-5.1690285e+24 -1.3858204e+23 -5.9279882e+23)
(-5.2706939e+24 -5.8663305e+20 -1.641879e+23)
(-5.2613543e+24 -1.1713013e+23 -1.4867821e+23)
(-5.2954214e+24 1.5156677e+22 -9.0757794e+22)
(-5.3896523e+24 -1.1495581e+23 -5.3294026e+22)
(-5.1305626e+24 -1.2786495e+23 -6.4918523e+23)
(-5.2038218e+24 1.3295526e+21 -4.925638e+23)
(-5.3310879e+24 -1.3710758e+23 -7.638721e+22)
(-5.3212213e+24 -6.5431584e+20 -7.2749146e+22)
(-5.1609859e+24 5.1367509e+21 -6.1239715e+23)
(-5.1482161e+24 -1.450757e+23 -6.1454058e+23)
(-5.1280915e+24 -1.117078e+23 -7.0197195e+23)
(-5.3844287e+24 8.6730355e+21 -1.0440716e+23)
(-5.4344045e+24 -1.2889819e+23 -1.0025285e+23)
(-5.1817948e+24 -6.812141e+21 -7.1361863e+23)
(-5.1589853e+24 -3.0030831e+21 -6.7339457e+23)
(-5.1328163e+24 -1.1743834e+23 -6.81618e+23)
(-5.4321438e+24 3.2500599e+21 -3.2089897e+22)
(-5.4559204e+24 -1.4346249e+23 -2.9810376e+22)
(-5.03337e+24 1.9802182e+22 -6.8306084e+23)
(-5.0980853e+24 -9.4355189e+22 -6.0599293e+23)
(-5.4930548e+24 4.1480593e+22 -7.5545612e+22)
(-5.5276306e+24 -1.2878011e+23 -1.1282953e+23)
(-5.9927044e+24 5.3672322e+22 1.1854018e+24)
(-4.5306332e+24 -2.6440957e+22 -1.0106128e+23)
(-5.657488e+24 1.1985148e+23 3.5120449e+23)
(-4.4919977e+24 3.0676545e+22 -6.0510265e+22)
(-5.464178e+24 -1.2107408e+23 2.6991473e+23)
(-4.6091754e+24 4.5210271e+22 -1.0615243e+23)
(-4.5822371e+24 -4.6016657e+22 -1.3033958e+23)
(-5.6759838e+24 1.0099001e+23 3.2028384e+23)
(-5.6745629e+24 -1.595967e+23 3.2532721e+23)
(-6.0548112e+24 -1.3276481e+23 1.1640159e+24)
(-3.7041637e+24 1.2250938e+23 -9.8775387e+23)
(-3.6483039e+24 -1.8528821e+23 -1.0082158e+24)
(-5.4400919e+24 2.7137891e+22 -1.4202305e+23)
(-5.0868339e+24 -8.2408874e+22 -6.506033e+23)
(-5.4344913e+24 -1.1068381e+23 -1.3417104e+23)
(-5.1208874e+24 6.8231702e+21 -6.1920217e+23)
(-6.0966207e+24 1.5003367e+23 1.1397034e+24)
(-5.9587808e+24 -2.6513265e+22 1.1772371e+24)
(-3.6304301e+24 4.415069e+23 -1.0064254e+24)
(-3.6570131e+24 1.4441267e+23 -9.0848888e+23)
(-5.0877448e+24 8.7263235e+21 -6.2906742e+23)
(-5.0977145e+24 -1.2510019e+23 -6.2594882e+23)
(-5.4894247e+24 1.4338991e+22 -1.009337e+23)
(-5.505104e+24 -1.4050305e+23 -9.725776e+22)
(-4.5861903e+24 2.0746386e+21 -1.0371204e+23)
(-4.5720093e+24 -1.0890473e+23 -1.1117582e+23)
(-5.6529376e+24 5.8878251e+22 3.153148e+23)
(-5.6693518e+24 -1.67928e+23 3.3134141e+23)
(-4.5756156e+24 -9.076508e+22 -9.3118363e+22)
(-5.6587614e+24 2.2945249e+22 3.5245097e+23)
(-5.467165e+24 -1.9615081e+23 3.1207695e+23)
(-4.4762121e+24 4.8493561e+22 -5.5035738e+22)
(-5.1767195e+24 -5.9512877e+22 -6.3228402e+23)
(-5.0739306e+24 -1.2898533e+23 -6.3506679e+23)
(-5.4268783e+24 1.4981749e+22 -1.5887893e+23)
(-5.4871179e+24 -1.5672547e+23 -1.5965847e+23)
(-5.4175761e+24 4.2326961e+23 -6.1371839e+23)
(-5.3871679e+24 -1.9808771e+23 -5.9221795e+23)
(-3.0730607e+24 2.5177776e+22 -2.7197091e+23)
(-3.0710462e+24 -3.4363452e+22 -2.7251039e+23)
(-3.3918237e+24 3.1753719e+22 -2.6316005e+22)
(-3.3932565e+24 -1.6400475e+22 -2.3009426e+22)
(-3.3928935e+24 2.9179761e+22 -2.3663681e+22)
(-3.3956159e+24 -1.0526406e+22 -1.8876467e+22)
(-3.0542076e+24 2.1298306e+22 -2.9351706e+23)
(-3.0562377e+24 -3.9848561e+22 -2.9209325e+23)
(-4.4679766e+24 -3.3028586e+22 -1.6472409e+23)
(-4.407564e+24 -9.3926993e+22 -3.9991726e+23)
(-4.4224112e+24 -3.0004935e+22 -4.0598529e+23)
(-4.4767214e+24 -1.0337893e+23 -1.6502154e+23)
(-3.7534044e+24 -1.3918161e+22 -1.5691014e+23)
(-3.7518856e+24 -4.8252578e+21 -1.3233766e+23)
(-3.0525493e+24 3.2032549e+22 -2.9638626e+23)
(-3.0512797e+24 -2.9720236e+22 -2.9471671e+23)
(-3.3881483e+24 2.9479282e+22 -2.9076391e+22)
(-3.3865927e+24 -1.5812673e+22 -2.5308747e+22)
(-4.4225349e+24 -3.2215984e+22 -4.1423741e+23)
(-4.4228077e+24 -9.4127604e+22 -4.1099166e+23)
(-4.4884764e+24 -1.9269372e+22 -1.7451372e+23)
(-4.4851902e+24 -8.8691793e+22 -1.7133976e+23)
(-3.7518926e+24 -1.3775463e+22 -1.5763337e+23)
(-3.751278e+24 -1.1757807e+22 -1.5482752e+23)
(-4.4725935e+24 -4.2835249e+22 -4.286397e+23)
(-4.4879425e+24 -9.1476577e+22 -3.8536105e+23)
(-4.6133646e+24 -2.769632e+22 -1.3526303e+23)
(-4.5989982e+24 -1.0842814e+23 -1.4836601e+23)
(-4.4658921e+24 -4.3650208e+22 -4.2226813e+23)
(-4.4734212e+24 -9.049145e+22 -3.7671522e+23)
(-4.5956537e+24 -2.6734032e+22 -1.2296249e+23)
(-4.5849849e+24 -1.059697e+23 -1.4452629e+23)
(-3.7722022e+24 -1.1023444e+22 -1.34419e+23)
(-4.5020157e+24 -3.3621279e+22 -1.5547567e+23)
(-4.431911e+24 -9.3502514e+22 -3.697219e+23)
(-4.4219147e+24 -3.4197542e+22 -4.2324753e+23)
(-4.4798329e+24 -1.0304497e+23 -1.6771381e+23)
(-3.7452488e+24 -1.3893451e+22 -1.6262442e+23)
(-4.5043507e+24 -2.0557097e+22 -1.4983819e+23)
(-4.4026246e+24 -9.0634415e+22 -3.6602596e+23)
(-4.5888497e+24 -3.9614912e+22 -1.2845186e+23)
(-4.4805889e+24 -1.0374069e+23 -4.2073943e+23)
(-4.4878104e+24 -4.2440398e+22 -4.4563207e+23)
(-4.5854242e+24 -1.0693041e+23 -1.7721914e+23)
(-4.5718634e+24 -2.7027915e+22 -1.6878319e+23)
(-4.4707568e+24 -8.8397783e+22 -4.4158122e+23)
(-4.467496e+24 -3.8596096e+22 -4.5255893e+23)
(-4.6628419e+24 -4.156044e+22 -1.5687493e+23)
(-4.5364114e+24 -1.0330617e+23 -3.8343716e+23)
(-4.5207154e+24 -3.9921643e+22 -4.6674874e+23)
(-4.6335941e+24 -1.1736466e+23 -1.8467195e+23)
(-4.7453861e+24 -4.1860487e+22 -1.5134449e+23)
(-4.6006276e+24 -1.0936361e+23 -4.8385513e+23)
(-4.6186357e+24 -3.4002269e+22 -5.1801463e+23)
(-4.733822e+24 -1.0958618e+23 -2.3266345e+23)
(-4.6776422e+24 -2.8333944e+22 -1.6311409e+23)
(-4.5163105e+24 -9.87431e+22 -3.9338013e+23)
(-4.5356893e+24 -2.0953418e+22 -4.7644203e+23)
(-4.6514189e+24 -9.4112113e+22 -1.9108298e+23)
(-4.7444282e+24 -3.2976583e+22 -2.3440663e+23)
(-4.6120162e+24 -1.0589752e+23 -5.2981623e+23)
(-4.6225463e+24 -2.6083708e+22 -5.2911195e+23)
(-4.7476392e+24 -8.8611996e+22 -2.4294159e+23)
(-4.6290204e+24 -3.4525498e+22 -5.2155655e+23)
(-4.6091037e+24 -9.8513658e+22 -4.9870335e+23)
(-4.7457515e+24 -2.6072793e+22 -1.6160298e+23)
(-4.7439033e+24 -9.3762506e+22 -2.6608382e+23)
(-4.6229471e+24 -3.1252612e+22 -5.209301e+23)
(-4.6455504e+24 -9.8754808e+22 -4.0418975e+23)
(-4.7889162e+24 -3.5000853e+22 -1.4425754e+23)
(-4.7588622e+24 -1.1021785e+23 -1.8875684e+23)
(-4.6587992e+24 -4.8863594e+22 -2.3119129e+23)
(-4.5518889e+24 -9.6699248e+22 -4.2531831e+23)
(-4.5444579e+24 -3.5732377e+22 -4.5225551e+23)
(-4.6584622e+24 -1.1375078e+23 -2.4766797e+23)
(-4.5484248e+24 -4.1078577e+22 -4.6915581e+23)
(-4.5371043e+24 -1.0079183e+23 -4.3076706e+23)
(-4.641918e+24 -2.7100225e+22 -2.4410528e+23)
(-4.6305098e+24 -9.0558624e+22 -2.7086375e+23)
(-4.5222983e+24 -2.2384575e+22 -1.4440184e+23)
(-4.5291775e+24 -1.0381187e+23 -1.4081591e+23)
(-4.4788922e+24 -8.9333751e+22 -3.9788988e+23)
(-4.4889963e+24 -3.6487013e+22 -3.9388249e+23)
(-4.5490522e+24 -9.2877851e+22 -1.5353352e+23)
(-4.5537209e+24 -1.6191654e+22 -1.5616349e+23)
(-4.4951715e+24 -9.2999911e+22 -3.9247479e+23)
(-4.4958221e+24 -3.8386745e+22 -3.9496897e+23)
(-4.5598034e+24 -5.0285249e+22 -4.0979411e+23)
(-4.5701957e+24 -8.5417967e+22 -3.6895389e+23)
(-4.6692354e+24 -1.122606e+23 -1.3126722e+23)
(-4.6848865e+24 -1.9923591e+22 -1.1766452e+23)
(-4.5585672e+24 -4.4520692e+22 -4.1838071e+23)
(-4.5494757e+24 -8.5548271e+22 -4.0604962e+23)
(-4.6388981e+24 -2.3841875e+22 -1.4691542e+23)
(-4.6368846e+24 -1.0608667e+23 -1.553573e+23)
(-3.3331875e+24 1.2382516e+22 -2.0512293e+23)
(-3.3324336e+24 3.9892058e+22 -1.9737394e+23)
(-3.4940071e+24 -8.0459669e+21 -5.0043256e+22)
(-3.4995463e+24 5.2726447e+22 -5.8862931e+22)
(-3.075579e+24 2.4805589e+22 -2.8777211e+23)
(-3.0754241e+24 -3.4371866e+22 -2.8544265e+23)
(-3.3890421e+24 2.2913933e+22 -4.2408429e+22)
(-3.3911518e+24 -2.1408717e+22 -3.7064253e+22)
(-3.3903892e+24 2.8036267e+22 -3.3803809e+22)
(-3.3926099e+24 -9.2309129e+21 -2.8009304e+22)
(-3.0560916e+24 1.5065354e+22 -2.9634593e+23)
(-3.058424e+24 -3.8366601e+22 -2.9479297e+23)
(-3.7719299e+24 -1.3296685e+22 -1.5006182e+23)
(-4.470785e+24 -3.993312e+22 -1.7101911e+23)
(-4.3922699e+24 -3.3121326e+22 -4.3248845e+23)
(-4.3931477e+24 -1.0344935e+23 -3.9567078e+23)
(-4.4570106e+24 -1.009045e+23 -1.7390727e+23)
(-3.7444424e+24 -1.7192817e+22 -1.6695663e+23)
(-3.0481846e+24 2.2437142e+22 -2.8064367e+23)
(-3.0465562e+24 -3.705757e+22 -2.7985653e+23)
(-3.3805476e+24 2.9380754e+22 -2.9917506e+22)
(-3.3816206e+24 -1.7564478e+22 -2.5310962e+22)
(-3.3835993e+24 3.0859851e+22 -2.4230878e+22)
(-3.3868465e+24 -5.3238345e+21 -1.9271736e+22)
(-3.03753e+24 1.0580511e+22 -2.8651576e+23)
(-3.0400888e+24 -4.2678244e+22 -2.8640625e+23)
(-4.5065152e+24 -1.1049852e+22 -1.4341585e+23)
(-4.4103661e+24 -8.3846808e+22 -3.6071988e+23)
(-4.4313004e+24 -3.0785101e+22 -4.1254062e+23)
(-4.4755732e+24 -9.0188798e+22 -1.5828726e+23)
(-3.731016e+24 -1.8968527e+22 -1.6014197e+23)
(-3.7478388e+24 -8.5312761e+21 -1.3730093e+23)
(-4.5463154e+24 -4.559389e+22 -1.4524975e+23)
(-4.4284118e+24 -1.1548879e+23 -4.5073139e+23)
(-4.4613e+24 -3.8794102e+22 -4.6018256e+23)
(-4.5486753e+24 -1.0252809e+23 -1.7959633e+23)
(-4.5777873e+24 -1.6888392e+22 -1.5899364e+23)
(-4.4753419e+24 -8.2511266e+22 -4.2894431e+23)
(-4.4877732e+24 -3.5639649e+22 -4.3259565e+23)
(-4.5794212e+24 -9.6502075e+22 -1.6464426e+23)
(-4.8831822e+24 -7.2999088e+21 -1.3627775e+23)
(-4.7296795e+24 -7.5020429e+22 -4.041683e+23)
(-4.6999224e+24 -3.224551e+22 -4.8381864e+23)
(-4.8534791e+24 -9.7419423e+22 -1.8118982e+23)
(-4.6352905e+24 -3.6075988e+22 -4.2832504e+23)
(-4.6428238e+24 -7.2396463e+22 -3.5798449e+23)
(-4.7281152e+24 -2.5533991e+22 -2.010781e+23)
(-4.7182231e+24 -1.1128489e+23 -2.3477361e+23)
(-4.7640253e+24 -2.3716518e+22 -1.6416499e+23)
(-4.6436488e+24 -1.0037471e+23 -3.9100161e+23)
(-4.6485026e+24 -3.8875291e+22 -4.3092524e+23)
(-4.750024e+24 -1.0018196e+23 -1.880331e+23)
(-4.8847409e+24 -2.6721516e+22 -1.6799355e+23)
(-4.7250562e+24 -1.0069173e+23 -4.3715683e+23)
(-4.7222524e+24 -3.1178166e+22 -4.1748091e+23)
(-4.8921954e+24 -9.832734e+22 -1.5564467e+23)
(-4.6424331e+24 -3.6939249e+22 -4.9705926e+23)
(-4.6390491e+24 -8.057324e+22 -4.0432687e+23)
(-4.7797256e+24 -1.136387e+22 -1.4104505e+23)
(-4.765522e+24 -1.1160509e+23 -1.7544512e+23)
(-4.6212237e+24 -1.1750157e+22 -5.3469415e+23)
(-4.5873161e+24 -1.0690105e+23 -5.3093467e+23)
(-4.7177406e+24 -4.6405462e+22 -2.5229404e+23)
(-4.7320055e+24 -8.7478347e+22 -2.6748369e+23)
(-4.6063842e+24 -6.462825e+22 -2.7520136e+23)
(-4.5113141e+24 -1.1478139e+23 -4.8652612e+23)
(-4.5365469e+24 -1.9243137e+22 -4.7987246e+23)
(-4.6227157e+24 -1.0422737e+23 -2.7016684e+23)
(-4.5527824e+24 -4.3903803e+22 -4.3539932e+23)
(-4.5433204e+24 -8.9461157e+22 -4.2045841e+23)
(-4.6468677e+24 -1.3406142e+22 -2.2236853e+23)
(-4.6483388e+24 -9.3782345e+22 -2.3605452e+23)
(-4.5534132e+24 2.1131375e+23 -1.9029571e+23)
(-5.1398767e+24 -7.9716423e+21 9.4691429e+23)
(-5.2034665e+24 -1.1124413e+23 9.0986125e+23)
(-3.2082072e+24 -5.1604702e+22 -4.4412532e+23)
(-3.16969e+24 -2.6114837e+23 -4.8766631e+23)
(-5.3322549e+24 -5.4759711e+22 8.9282781e+23)
(-5.3631351e+24 4.479125e+22 8.7447401e+23)
(-3.2609503e+24 2.0495544e+23 -5.2225427e+23)
(-3.2873484e+24 1.0933958e+20 -4.9209326e+23)
(-4.4462539e+24 -3.0129595e+23 -2.0029136e+23)
(-4.9937869e+24 -2.0022e+22 -1.7299513e+23)
(-4.8138274e+24 -9.5163512e+22 -4.3394941e+23)
(-4.7549937e+24 -2.5318902e+22 -5.4672983e+23)
(-4.931646e+24 -1.0099743e+23 -2.248976e+23)
(-5.0928849e+24 -2.7167933e+22 -1.4010215e+23)
(-4.8269265e+24 -1.1717545e+23 -5.6975332e+23)
(-4.7973029e+24 -1.8683077e+22 -6.0477467e+23)
(-5.0422434e+24 -9.1729814e+22 -2.5706731e+23)
(-4.9886956e+24 -2.8567269e+22 -1.9477084e+23)
(-4.7521792e+24 -1.1576191e+23 -4.7059607e+23)
(-4.9522846e+24 -7.583754e+22 -2.2733078e+23)
(-4.7740248e+24 -9.883465e+19 -5.5888269e+23)
(-5.0626005e+24 -3.3375828e+22 -2.5930589e+23)
(-4.7923214e+24 -1.1931997e+23 -6.3552072e+23)
(-4.8167923e+24 2.3900413e+22 -6.104577e+23)
(-5.060811e+24 -5.62385e+22 -2.6303279e+23)
(-4.3124821e+24 6.5701821e+22 -5.2809428e+23)
(-4.3008806e+24 -6.4701593e+22 -5.4938797e+23)
(-5.02474e+24 4.1884585e+22 -9.3608125e+22)
(-5.0013272e+24 -3.445644e+22 -8.4098199e+22)
(-4.2530462e+24 1.6231959e+22 -5.2345813e+23)
(-4.2136055e+24 -6.855337e+22 -5.5322824e+23)
(-4.9958153e+24 7.6619573e+22 -8.355251e+22)
(-4.9661271e+24 -7.2985082e+22 -8.6325715e+22)
(-5.0710067e+24 -2.3535253e+22 -2.8027246e+23)
(-4.6725088e+24 -7.2980759e+22 -6.4075016e+23)
(-4.6660954e+24 3.0841352e+21 -6.263067e+23)
(-5.0586356e+24 -8.6971672e+22 -2.856399e+23)
(-4.7033167e+24 6.0084302e+22 -6.273984e+23)
(-4.6827305e+24 -9.8196059e+22 -6.5064918e+23)
(-5.0685232e+24 -1.7509559e+22 -3.0648904e+23)
(-5.0744102e+24 -2.9605293e+22 -2.9625419e+23)
(-4.2691854e+24 3.7229325e+22 -5.2530713e+23)
(-4.3425073e+24 -8.0289581e+22 -5.41262e+23)
(-5.1666169e+24 5.3694072e+22 -1.2739215e+22)
(-4.9299243e+24 -8.6557458e+22 -7.6471085e+22)
(-5.0008813e+24 6.9544422e+21 -2.6817797e+23)
(-4.667815e+24 -6.8697998e+22 -5.953302e+23)
(-4.5858373e+24 2.970855e+22 -6.2905212e+23)
(-4.9753292e+24 -4.953829e+22 -2.9539026e+23)
(-5.1150045e+24 -9.2708434e+21 -1.7164626e+23)
(-4.7387449e+24 -1.0485743e+23 -5.5608469e+23)
(-5.1497854e+24 -1.093744e+23 -1.6916856e+23)
(-4.7493718e+24 -2.1556856e+22 -5.6599378e+23)
(-5.2210716e+24 -6.6901258e+21 1.9607913e+22)
(-4.3682981e+24 -9.3655831e+22 -5.2397937e+23)
(-4.9559812e+24 -1.1947274e+23 -4.8421195e+22)
(-4.2710975e+24 2.995032e+22 -5.2620403e+23)
(-4.9448256e+24 -6.0505447e+21 -2.608894e+23)
(-4.7163995e+24 -7.6290032e+22 -5.6247633e+23)
(-4.7340433e+24 3.3702411e+22 -6.0339094e+23)
(-4.9632268e+24 -5.2794295e+22 -2.9296562e+23)
(-4.7086452e+24 1.385304e+22 -5.6572004e+23)
(-4.6696833e+24 -9.2656868e+22 -5.0763524e+23)
(-4.819834e+24 -3.7370258e+22 -3.0049243e+23)
(-4.8395635e+24 -7.9999108e+22 -3.3033861e+23)
(-4.8779453e+24 -6.2394497e+21 -1.7984029e+23)
(-4.7144136e+24 -9.3159307e+22 -4.8974651e+23)
(-4.748381e+24 -1.8692088e+22 -5.2803193e+23)
(-4.8833364e+24 -8.7485544e+22 -2.6975925e+23)
(-5.0006747e+24 -6.1502784e+21 -2.2534093e+23)
(-4.7921139e+24 -8.5450386e+22 -4.8661464e+23)
(-4.8441237e+24 -4.1138097e+22 -4.8046727e+23)
(-5.0349084e+24 -1.0128623e+23 -2.3392141e+23)
(-4.7624282e+24 -2.8778376e+22 -5.8126053e+23)
(-4.7307542e+24 -1.3884075e+23 -5.8542583e+23)
(-4.9769881e+24 -5.7738764e+22 -2.3441394e+23)
(-5.0068252e+24 -1.0799529e+23 -2.3520922e+23)
(-4.7566628e+24 -3.3205718e+22 -5.8062155e+23)
(-4.7247226e+24 -1.3462826e+23 -5.790294e+23)
(-4.9673945e+24 -5.4314763e+22 -2.3669526e+23)
(-4.9898698e+24 -1.108145e+23 -2.3802304e+23)
(-4.8418763e+24 -5.1624124e+22 -2.9788719e+23)
(-4.6929738e+24 -1.1387037e+23 -5.3386661e+23)
(-4.7076333e+24 -2.3132627e+22 -5.3468314e+23)
(-4.8502622e+24 -1.1042107e+23 -3.0383918e+23)
(-4.7157665e+24 -3.232906e+22 -5.3992332e+23)
(-4.6917219e+24 -1.3235356e+23 -5.4386264e+23)
(-4.8528159e+24 -4.1279287e+22 -3.0493047e+23)
(-4.8645253e+24 -9.4565779e+22 -3.0997212e+23)
(-5.3195722e+24 1.6517004e+21 8.8506571e+23)
(-4.2849099e+24 -1.0925842e+23 -5.3433955e+23)
(-5.1177293e+24 1.0605198e+22 -1.7538128e+22)
(-4.9057476e+24 -1.1853763e+23 -5.5482448e+22)
(-4.229876e+24 -1.0618816e+22 -5.1319692e+23)
(-5.3256457e+24 -1.1655154e+23 8.735963e+23)
(-4.338726e+24 -1.1011429e+23 -5.2115107e+23)
(-5.1398375e+24 -2.7439416e+22 -1.701792e+22)
(-4.9203978e+24 -1.2556175e+23 -4.322154e+22)
(-4.2468951e+24 2.3925786e+22 -5.0813311e+23)
(-3.338492e+24 8.2599988e+22 -5.1595572e+23)
(-3.2897254e+24 -1.4561073e+23 -5.1116415e+23)
(-4.7194052e+24 -2.9542928e+22 -5.7000848e+23)
(-4.6550253e+24 -1.4275083e+23 -5.8847599e+23)
(-5.0011426e+24 -5.9378501e+22 -2.7044561e+23)
(-5.0340973e+24 -1.0191718e+23 -2.6574671e+23)
(-4.7020537e+24 -1.8886891e+22 -5.8010145e+23)
(-4.6505211e+24 -1.1274345e+23 -5.8394106e+23)
(-4.9879561e+24 -5.436128e+22 -2.6665329e+23)
(-5.0232759e+24 -1.139046e+23 -2.6624252e+23)
(-5.3426344e+24 3.3050268e+22 8.8101864e+23)
(-4.2947533e+24 -1.3955501e+23 -5.0995719e+23)
(-5.1115731e+24 -1.4139864e+22 1.9774532e+21)
(-4.9022261e+24 -1.3314959e+23 -4.0301342e+22)
(-4.2178513e+24 1.7227958e+22 -5.1522117e+23)
(-5.2316625e+24 -4.235383e+22 9.0951884e+23)
(-4.2920178e+24 -1.0976478e+23 -5.0322602e+23)
(-5.1142191e+24 -1.4950127e+22 1.250695e+22)
(-4.9033905e+24 -1.3228637e+23 -3.1336747e+22)
(-4.181582e+24 3.2274892e+22 -5.2262746e+23)
(-3.2326249e+24 2.8344956e+23 -4.9086476e+23)
(-3.2557366e+24 1.3849815e+23 -4.3541187e+23)
(-4.7168166e+24 -3.8201472e+22 -5.5559778e+23)
(-4.6368665e+24 -1.1264151e+23 -5.6408917e+23)
(-4.9981979e+24 -4.0405749e+22 -2.5155673e+23)
(-5.0437807e+24 -1.1525423e+23 -2.529485e+23)
(-4.6944963e+24 -1.1089956e+22 -5.7805729e+23)
(-4.6403662e+24 -1.1806603e+23 -5.6879488e+23)
(-4.9878113e+24 -5.1472111e+22 -2.5620665e+23)
(-5.0308194e+24 -1.0430081e+23 -2.626522e+23)
(-4.8741652e+24 -4.8393524e+22 -1.6852262e+23)
(-4.6862709e+24 -1.249603e+23 -5.2004382e+23)
(-4.7074964e+24 -1.4709791e+22 -5.6043357e+23)
(-4.8644587e+24 -1.0258152e+23 -2.9434434e+23)
(-4.9599169e+24 -5.150001e+22 -2.6303031e+23)
(-4.7177017e+24 -1.178577e+23 -5.7069141e+23)
(-4.7610326e+24 -1.8395755e+22 -5.8233347e+23)
(-4.9856613e+24 -1.0160041e+23 -2.7999186e+23)
(-4.7711994e+24 -4.8503712e+22 -5.6809859e+23)
(-4.7293883e+24 -1.1747582e+23 -5.6342179e+23)
(-4.9669686e+24 -3.9983824e+22 -2.6196933e+23)
(-4.9904389e+24 -1.1475798e+23 -2.7670316e+23)
(-4.8431055e+24 -2.8807001e+22 -3.0884028e+23)
(-4.6923646e+24 -1.1548712e+23 -5.4137019e+23)
(-4.7208776e+24 -4.3649747e+22 -5.4675933e+23)
(-4.8518419e+24 -9.298341e+22 -3.2795044e+23)
(-4.4571049e+24 4.2699141e+23 -2.1989534e+23)
(-4.4310585e+24 -4.3308873e+22 -1.7592248e+23)
(-5.1821647e+24 4.6352909e+23 -3.5416211e+23)
(-5.0743418e+24 -2.3854756e+23 -3.5287324e+23)
(-7.3677278e+24 -6.6773115e+22 -4.9593757e+23)
(-5.6731259e+24 -2.811888e+23 7.8686171e+23)
(-5.9937596e+24 -5.6484132e+22 -5.0697407e+23)
(-5.8712997e+24 -4.0539602e+23 -4.6589715e+23)
(-5.705597e+24 -1.2616983e+23 7.685736e+23)
(-6.5163566e+24 -1.7580518e+23 -1.1288118e+23)
(-6.4743533e+24 -2.0801057e+23 -3.8587785e+22)
(-8.8206553e+24 -4.0878754e+22 2.1303919e+23)
(-5.3151146e+24 -2.4024977e+23 1.0920101e+24)
(-5.4411381e+24 5.0315199e+23 1.1529151e+24)
(-8.4854206e+24 -4.8723127e+22 -1.438488e+24)
(-5.3294371e+24 4.1044264e+22 -1.0145814e+22)
(-5.2863682e+24 -1.2476022e+23 -5.1129183e+22)
(-5.2181283e+24 -7.7631412e+22 -4.527814e+23)
(-5.1351336e+24 2.0772521e+22 -5.8900903e+23)
(-5.2538311e+24 1.2064599e+22 -9.0827581e+22)
(-5.356104e+24 -1.1668173e+23 -2.2487002e+22)
(-5.1314324e+24 7.058867e+21 -4.7747174e+23)
(-5.1035767e+24 -1.3358271e+23 -6.5527611e+23)
(-5.4976776e+24 7.9229341e+22 7.3300055e+22)
(-5.1786477e+24 -3.8405712e+22 -5.0684213e+23)
(-5.1511906e+24 3.0041076e+22 -6.6445347e+23)
(-5.4246524e+24 -1.123688e+23 -1.4291343e+22)
(-5.1425582e+24 -1.053769e+23 -7.0240561e+23)
(-5.3772341e+24 1.105305e+22 -9.2571369e+22)
(-5.3797041e+24 -1.163365e+23 -6.3399297e+22)
(-5.1272978e+24 1.4734345e+22 -6.7400724e+23)
(-5.3172706e+24 -1.2942644e+23 -6.5446867e+22)
(-5.2843237e+24 3.9053271e+21 -7.85322e+22)
(-5.121493e+24 -1.2077499e+23 -6.1643497e+23)
(-5.1416271e+24 2.0929647e+22 -6.1355613e+23)
(-5.2724448e+24 2.087117e+22 -8.5830452e+22)
(-5.3731112e+24 -1.1476836e+23 -2.0400288e+22)
(-5.1466698e+24 8.3917403e+21 -4.7257332e+23)
(-5.1131493e+24 -1.2426248e+23 -6.4706629e+23)
(-5.1454154e+24 1.4006718e+22 -6.7453956e+23)
(-5.1220217e+24 -1.0290632e+23 -6.7235778e+23)
(-5.4133437e+24 3.3599989e+22 -2.6815143e+22)
(-5.4487824e+24 -1.2873859e+23 -2.0211043e+22)
(-5.1179674e+24 -1.0357638e+23 -6.9346986e+23)
(-5.3676772e+24 1.4322392e+22 -9.4290093e+22)
(-5.3897631e+24 -1.1175203e+23 -6.2710551e+22)
(-5.1288203e+24 2.2087365e+22 -6.8323356e+23)
(-5.5035254e+24 1.1473417e+23 -5.3989052e+22)
(-5.1396808e+24 7.9114792e+21 -6.1663014e+23)
(-5.1262731e+24 6.0773641e+22 -6.3630537e+23)
(-5.5225803e+24 -8.3251307e+22 -8.5363649e+22)
(-4.6758324e+24 8.0099962e+22 -1.3808887e+23)
(-4.6258418e+24 1.0875606e+22 -1.4485329e+23)
(-5.6891899e+24 1.9007369e+23 3.0302664e+23)
(-5.7328665e+24 -1.0627854e+23 3.130132e+23)
(-6.001387e+24 4.6024285e+22 1.1168206e+24)
(-5.7231644e+24 1.0818787e+23 3.2656849e+23)
(-4.6185959e+24 2.3090413e+21 -1.6847228e+23)
(-4.6364417e+24 8.1107869e+22 -1.4526409e+23)
(-5.7065256e+24 -1.3833371e+23 3.1636595e+23)
(-6.1137368e+24 -9.3209788e+22 1.1079786e+24)
(-5.1992304e+24 -7.5616401e+22 -6.3312185e+23)
(-5.1234669e+24 1.4554198e+22 -6.3606817e+23)
(-5.4869688e+24 4.3949208e+22 -1.4611904e+23)
(-5.4444331e+24 -1.1047217e+23 -1.4312912e+23)
(-3.7051114e+24 1.3956309e+23 -1.0273957e+24)
(-3.6773387e+24 -1.3812745e+23 -1.055318e+24)
(-5.1009577e+24 -1.0829106e+23 -6.3713201e+23)
(-5.493059e+24 2.0267345e+22 -8.6910555e+22)