/*--------------------------------*- C++ -*----------------------------------*\
  =========                 |
  \\      /  F ield         | OpenFOAM: The Open Source CFD Toolbox
   \\    /   O peration     | Website:  https://openfoam.org
    \\  /    A nd           | Version:  7
     \\/     M anipulation  |
\*---------------------------------------------------------------------------*/
FoamFile
{
    version     2.0;
    format      ascii;
    class       volVectorField;
    location    "4000";
    object      UMean;
}
// * * * * * * * * * * * * * * * * * * * * * * * * * * * * * * * * * * * * * //

dimensions      [0 1 -1 0 0 0 0];

internalField   nonuniform List<vector> 
34387
(
(-1.2164951e+23 2.2059386e+21 -3.0135941e+21)
(-1.2239167e+23 4.0891567e+21 -2.6261989e+21)
(-1.1182048e+23 2.2349763e+21 -7.2703873e+21)
(-1.1163865e+23 1.290126e+21 -7.2978618e+21)
(-1.5265156e+23 6.1141569e+21 -2.2636077e+21)
(-1.2343493e+23 4.1552166e+21 -2.5771696e+21)
(-1.2325238e+23 2.3932798e+21 -3.0266423e+21)
(-1.1288368e+23 2.4568248e+21 -7.3419872e+21)
(-1.1263505e+23 1.7135498e+21 -7.5332618e+21)
(-9.2302831e+22 2.2255318e+21 -4.7402003e+21)
(-9.2422491e+22 2.389824e+21 -4.736162e+21)
(-1.0964174e+23 2.4805709e+21 -5.4469459e+21)
(-1.0826383e+23 1.8936725e+21 -5.5780483e+21)
(-1.0650554e+23 1.8798691e+21 -7.8791225e+21)
(-1.0626671e+23 1.5606261e+21 -7.7082313e+21)
(-1.099756e+23 2.9870056e+21 -5.3219099e+21)
(-9.2470201e+22 2.1253639e+21 -5.0093724e+21)
(-9.2708541e+22 2.4032e+21 -4.6232901e+21)
(-1.0881017e+23 2.0985865e+21 -5.3599954e+21)
(-1.0693121e+23 2.3334455e+21 -7.7527096e+21)
(-1.0667671e+23 1.751076e+21 -7.5101771e+21)
(-1.2276923e+23 3.4180309e+21 -4.4725703e+21)
(-1.0987913e+23 2.5758415e+21 -7.3655639e+21)
(-9.9842167e+22 1.648915e+21 -1.0600946e+22)
(-1.0152939e+23 6.3031487e+20 -1.0019856e+22)
(-1.1041676e+23 1.5928892e+21 -6.6735873e+21)
(-1.1035304e+23 2.0567986e+21 -6.9815773e+21)
(-1.0096969e+23 1.1009117e+21 -1.0746492e+22)
(-1.0074186e+23 4.7856706e+20 -1.0445811e+22)
(-1.0962461e+23 1.2461288e+21 -7.0974997e+21)
(-1.2197491e+23 1.3158849e+21 -4.4907184e+21)
(-1.0806981e+23 2.6061683e+21 -1.2078621e+22)
(-1.0746315e+23 4.8233036e+20 -1.1772318e+22)
(-1.1753877e+23 1.5290329e+21 -1.1350789e+22)
(-1.2416832e+23 4.1645732e+21 -2.2959595e+21)
(-1.2404783e+23 2.298148e+21 -2.8768845e+21)
(-1.1361414e+23 2.3549698e+21 -7.1446183e+21)
(-1.133088e+23 1.8055508e+21 -7.4743343e+21)
(-1.0333764e+23 2.9621279e+21 -3.5861085e+20)
(-1.0281007e+23 1.4778441e+21 -2.0999887e+20)
(-1.0365578e+23 2.5843732e+21 -3.1788413e+21)
(-1.011379e+23 1.7526896e+21 -2.9879223e+21)
(-1.1044515e+23 3.0386513e+21 -4.9042033e+21)
(-1.0790926e+23 2.503481e+21 -7.0841649e+21)
(-1.0742048e+23 1.6481941e+21 -7.5419408e+21)
(-1.0923043e+23 1.973262e+21 -5.5409377e+21)
(-1.0979876e+23 2.0005055e+21 -5.6512479e+21)
(-1.1062973e+23 2.6580088e+21 -5.5438879e+21)
(-1.0746689e+23 1.690545e+21 -7.9561446e+21)
(-1.0746681e+23 2.1481143e+21 -7.979589e+21)
(-1.1147753e+23 2.8155832e+21 -6.2706434e+21)
(-1.0127893e+23 1.8046583e+21 -1.0392097e+22)
(-1.0179129e+23 7.4776545e+20 -1.0314039e+22)
(-1.2373629e+23 3.7159597e+21 -4.532905e+21)
(-1.1120316e+23 1.5685489e+21 -6.7884517e+21)
(-1.2319472e+23 1.7777604e+21 -4.7636668e+21)
(-1.1149715e+23 2.3803273e+21 -7.1063105e+21)
(-1.0156115e+23 1.3969215e+21 -1.094494e+22)
(-1.0138836e+23 9.7385579e+20 -1.0682683e+22)
(-1.1104978e+23 1.5956144e+21 -7.3009117e+21)
(-1.0857807e+23 2.7698448e+21 -1.2805588e+22)
(-1.0803842e+23 6.7116392e+20 -1.2589236e+22)
(-7.819839e+22 2.3628604e+21 -3.1915161e+21)
(-7.8246321e+22 2.3200513e+21 -3.2223517e+21)
(-9.4293909e+22 2.1432099e+21 -4.2050969e+21)
(-7.8994016e+22 2.2048852e+21 -4.1864097e+21)
(-7.8882193e+22 2.2139927e+21 -4.1492263e+21)
(-7.8512529e+22 2.3741053e+21 -3.2475061e+21)
(-9.4507514e+22 2.2028066e+21 -4.1639379e+21)
(-7.8833568e+22 2.2261904e+21 -4.2199349e+21)
(-7.921247e+22 2.235664e+21 -4.1855492e+21)
(-9.3455032e+22 2.1728763e+21 -5.425661e+21)
(-9.3371435e+22 1.7430469e+21 -5.3928397e+21)
(-7.8768339e+22 2.1972756e+21 -4.1751967e+21)
(-9.4136166e+22 2.0342528e+21 -4.3223378e+21)
(-7.8734019e+22 2.2396918e+21 -4.2710402e+21)
(-9.3827713e+22 2.1074744e+21 -4.1850377e+21)
(-9.3465335e+22 1.7306178e+21 -5.2907424e+21)
(-9.3020316e+22 2.0632422e+21 -5.3545957e+21)
(-9.5941798e+22 1.7371254e+21 -5.5439975e+21)
(-9.5813801e+22 1.382122e+21 -6.7345812e+21)
(-9.6150069e+22 2.0258376e+21 -5.4985598e+21)
(-9.5897503e+22 1.9048345e+21 -6.8161085e+21)
(-9.5460255e+22 1.6908614e+21 -6.5762874e+21)
(-9.5600351e+22 1.2076793e+21 -6.7634945e+21)
(-9.5915523e+22 1.6192725e+21 -5.359905e+21)
(-9.5161192e+22 1.8240079e+21 -5.5826361e+21)
(-9.5259789e+22 2.4071035e+21 -4.2221563e+21)
(-9.5766407e+22 2.3950433e+21 -3.9196409e+21)
(-9.5010329e+22 2.4501288e+21 -5.0658754e+21)
(-9.507701e+22 2.140714e+21 -5.1265422e+21)
(-7.5842888e+22 2.4019437e+21 -3.2210527e+21)
(-7.8102605e+22 2.2341101e+21 -3.5474747e+21)
(-7.8270868e+22 2.3914741e+21 -3.4554706e+21)
(-7.8744463e+22 2.104845e+21 -4.5222046e+21)
(-9.4397278e+22 2.0856375e+21 -4.5052452e+21)
(-7.8964345e+22 2.3104905e+21 -4.4204675e+21)
(-7.8882392e+22 2.4568359e+21 -3.039363e+21)
(-7.8565094e+22 2.3034203e+21 -3.1214252e+21)
(-9.4691781e+22 2.1301997e+21 -4.0868449e+21)
(-7.9303373e+22 2.1842128e+21 -4.0581772e+21)
(-7.953503e+22 2.3254389e+21 -3.9612228e+21)
(-9.3676899e+22 1.8330855e+21 -5.5927188e+21)
(-9.4129169e+22 2.0867875e+21 -5.1015805e+21)
(-9.7178825e+22 1.7011551e+21 -6.6893163e+21)
(-9.7603669e+22 2.101044e+21 -5.1736046e+21)
(-9.797697e+22 2.522739e+21 -5.0892666e+21)
(-9.7425697e+22 2.5607803e+21 -6.6440737e+21)
(-9.6389645e+22 1.8797019e+21 -6.586924e+21)
(-9.6170118e+22 1.5852483e+21 -6.8744671e+21)
(-9.5859727e+22 1.7905515e+21 -5.8317219e+21)
(-9.6615865e+22 1.9528839e+21 -5.0947035e+21)
(-9.6615947e+22 6.2088668e+20 -7.7992879e+21)
(-1.0878089e+23 1.9940391e+21 -5.7610527e+21)
(-1.1007192e+23 9.83798e+20 -5.7271008e+21)
(-9.6405818e+22 -1.5839619e+18 -7.7300375e+21)
(-1.0014732e+23 1.8029643e+21 -6.9058862e+21)
(-9.9173874e+22 1.4489574e+21 -9.0854158e+21)
(-1.0066053e+23 2.6577972e+21 -6.6732138e+21)
(-9.9417909e+22 2.3632724e+21 -9.0747735e+21)
(-9.7534343e+22 1.6135459e+21 -1.1947284e+22)
(-9.7005403e+22 1.0785747e+21 -1.2204448e+22)
(-1.031411e+23 1.6284924e+21 -8.5644779e+21)
(-1.0358682e+23 2.4625451e+21 -8.45168e+21)
(-9.7882343e+22 9.5270337e+20 -1.1961304e+22)
(-1.0285026e+23 1.571889e+21 -7.7387896e+21)
(-1.0324597e+23 1.5643742e+21 -7.1661398e+21)
(-9.7829079e+22 1.224681e+21 -1.1750892e+22)
(-9.8493213e+22 1.4992298e+21 -8.6865112e+21)
(-9.8863695e+22 1.5721618e+21 -7.1767687e+21)
(-9.9395701e+22 1.8671659e+21 -6.5919166e+21)
(-9.8597464e+22 1.6983707e+21 -8.5177084e+21)
(-9.8148317e+22 1.5309212e+21 -8.5927973e+21)
(-9.8150771e+22 1.0044507e+21 -8.4841278e+21)
(-9.8375905e+22 1.3579082e+21 -7.0085296e+21)
(-9.860464e+22 1.8553535e+21 -6.9722262e+21)
(-9.7393727e+22 4.9960695e+20 -1.2024694e+22)
(-9.7359074e+22 9.5592484e+20 -1.191849e+22)
(-1.0979904e+23 1.4372203e+21 -5.9694637e+21)
(-1.0219751e+23 1.5188094e+21 -7.8572817e+21)
(-1.0214219e+23 1.1245791e+21 -7.8150869e+21)
(-9.6948129e+22 3.3486336e+20 -1.2013708e+22)
(-9.6797431e+22 7.5754184e+20 -1.1915644e+22)
(-1.0916548e+23 8.8272294e+20 -5.6958805e+21)
(-1.0167372e+23 1.0914707e+21 -7.6365321e+21)
(-1.018277e+23 7.5532887e+20 -7.839875e+21)
(-9.8396602e+22 1.0332024e+21 -6.9841931e+21)
(-9.7788129e+22 7.7065498e+20 -8.6605179e+21)
(-9.7729172e+22 1.2632878e+21 -8.370161e+21)
(-9.8004028e+22 1.5467585e+21 -6.9415018e+21)
(-9.6087902e+22 7.1291901e+20 -7.821484e+21)
(-9.6046841e+22 4.7885816e+20 -7.4187906e+21)
(-1.02633e+23 3.5154931e+20 -1.1723488e+22)
(-1.0185298e+23 1.061739e+21 -1.1516471e+22)
(-1.2517188e+23 4.4322428e+21 -7.1458441e+20)
(-1.1212432e+23 1.08789e+21 2.5724038e+21)
(-1.1831523e+23 1.7727807e+21 -1.1851829e+22)
(-1.1104366e+23 3.2544857e+21 -4.6525444e+21)
(-1.103854e+23 2.0309686e+21 -5.1742659e+21)
(-1.0853499e+23 2.8295185e+21 -6.7740767e+21)
(-1.0811551e+23 1.7271387e+21 -7.4840029e+21)
(-1.1146969e+23 2.7365209e+21 -5.3559547e+21)
(-1.1040036e+23 2.1096614e+21 -5.4203804e+21)
(-1.0814885e+23 2.2889798e+21 -7.8528585e+21)
(-1.0812599e+23 1.9285416e+21 -7.6955765e+21)
(-1.1243459e+23 3.0093624e+21 -5.8916539e+21)
(-1.0220023e+23 1.8554508e+21 -1.0083241e+22)
(-1.0213813e+23 9.0642334e+20 -1.0321519e+22)
(-1.1186686e+23 1.6120153e+21 -6.8081838e+21)
(-1.2412445e+23 3.474823e+21 -4.5751968e+21)
(-1.1217746e+23 2.5110777e+21 -7.0398218e+21)
(-1.0175647e+23 1.6115143e+21 -1.102832e+22)
(-1.0173543e+23 9.4678998e+20 -1.0773952e+22)
(-1.1163209e+23 1.6741164e+21 -7.1489344e+21)
(-1.2415288e+23 1.7994557e+21 -4.7363935e+21)
(-1.0888929e+23 2.7917572e+21 -1.3272914e+22)
(-1.0850074e+23 6.9415887e+20 -1.3163519e+22)
(-9.6142646e+22 2.2871104e+21 -3.8352446e+21)
(-9.5515371e+22 2.5018901e+21 -3.8193963e+21)
(-9.4923934e+22 2.225439e+21 -4.7932771e+21)
(-9.5324554e+22 2.2899508e+21 -5.1125469e+21)
(-9.7431898e+22 2.1297293e+21 -6.5925227e+21)
(-9.691542e+22 1.8426987e+21 -6.1404356e+21)
(-9.719271e+22 2.1545763e+21 -4.9119582e+21)
(-9.7725471e+22 2.1722878e+21 -5.1981619e+21)
(-9.6843092e+22 1.9703942e+21 -6.5111686e+21)
(-9.6939216e+22 1.4577507e+21 -6.7741455e+21)
(-9.7492762e+22 1.7480524e+21 -5.1899955e+21)
(-9.7412199e+22 2.0149355e+21 -4.9196157e+21)
(-9.4943262e+22 2.0772513e+21 -4.8621708e+21)
(-9.5056957e+22 1.8058601e+21 -5.1036655e+21)
(-9.5239503e+22 1.9903036e+21 -4.457727e+21)
(-9.5176984e+22 2.0780735e+21 -4.177851e+21)
(-9.5209727e+22 2.2061567e+21 -4.4263284e+21)
(-9.5763217e+22 2.3536829e+21 -3.9454258e+21)
(-9.4291487e+22 1.9650147e+21 -5.5608341e+21)
(-9.4581255e+22 2.3103876e+21 -5.2579263e+21)
(-9.5462216e+22 2.2622456e+21 -4.2487138e+21)
(-9.516231e+22 2.152265e+21 -4.3191905e+21)
(-9.4575843e+22 2.2562409e+21 -5.4240939e+21)
(-9.4439729e+22 1.8164024e+21 -5.3558891e+21)
(-9.6749203e+22 1.5362931e+21 -6.8041739e+21)
(-9.6483121e+22 1.8436358e+21 -5.8400973e+21)
(-9.7145669e+22 2.0286769e+21 -5.5326835e+21)
(-9.7071783e+22 1.8922082e+21 -6.8851569e+21)
(-9.6867244e+22 2.1481252e+21 -6.7004631e+21)
(-9.667862e+22 1.5744346e+21 -6.6610915e+21)
(-9.6751706e+22 1.8738958e+21 -5.5253861e+21)
(-9.7051722e+22 2.2139069e+21 -5.4965312e+21)
(-9.9045471e+22 1.8840624e+21 -9.1350106e+21)
(-9.8902692e+22 1.5554881e+21 -8.0454127e+21)
(-9.9430735e+22 1.8531144e+21 -6.4816846e+21)
(-1.001737e+23 2.2462917e+21 -6.8792817e+21)
(-1.1012935e+23 2.2686157e+21 -5.7375523e+21)
(-9.722821e+22 1.1834213e+21 -1.1919067e+22)
(-1.0296729e+23 1.8501645e+21 -7.2529351e+21)
(-9.7373059e+22 1.4253656e+21 -1.1937607e+22)
(-1.0291372e+23 2.0215895e+21 -8.6460012e+21)
(-9.8179192e+22 1.1923652e+21 -1.1864732e+22)
(-9.7852926e+22 8.7393669e+20 -1.2170901e+22)
(-1.0334339e+23 1.4422256e+21 -7.7812254e+21)
(-1.0341315e+23 1.5515337e+21 -7.5572404e+21)
(-1.1093289e+23 1.276336e+21 -5.8927967e+21)
(-9.6516394e+22 7.6755252e+20 -8.3459463e+21)
(-9.6339559e+22 1.9934804e+20 -8.2810479e+21)
(-9.9816293e+22 1.4785598e+21 -6.997907e+21)
(-9.9035606e+22 1.3721345e+21 -8.6969407e+21)
(-9.9748799e+22 1.8922711e+21 -6.7031379e+21)
(-9.9114728e+22 1.6676056e+21 -8.3832068e+21)
(-1.1058404e+23 1.9070668e+21 -6.2591553e+21)
(-1.0980071e+23 1.5190867e+21 -6.0656424e+21)
(-9.6003828e+22 1.1724549e+21 -8.4108975e+21)
(-9.6084389e+22 9.3570475e+20 -7.9579683e+21)
(-9.8991354e+22 1.7622726e+21 -8.5982966e+21)
(-9.8974391e+22 1.1945254e+21 -8.4351416e+21)
(-9.9308859e+22 1.5283983e+21 -6.9545358e+21)
(-9.9610327e+22 2.0890944e+21 -6.9156918e+21)
(-9.7974026e+22 1.1426601e+21 -1.2011771e+22)
(-9.7934222e+22 6.5769683e+20 -1.2226529e+22)
(-1.0305258e+23 1.3526251e+21 -7.7843089e+21)
(-1.0323304e+23 1.7549624e+21 -7.7589816e+21)
(-9.7717149e+22 6.6032713e+20 -1.2163608e+22)
(-1.0315423e+23 1.13553e+21 -7.8090722e+21)
(-1.0298687e+23 1.3537833e+21 -8.515426e+21)
(-9.7106757e+22 9.1712156e+20 -1.238667e+22)
(-9.8898928e+22 1.4470296e+21 -9.3846614e+21)
(-9.8857213e+22 1.0890947e+21 -8.7914269e+21)
(-9.9304886e+22 1.319057e+21 -7.2820695e+21)
(-9.9797675e+22 1.7348075e+21 -7.2527525e+21)
(-1.0290423e+23 5.7144022e+20 -1.2314634e+22)
(-1.0237463e+23 1.3577725e+21 -1.2187274e+22)
(-6.0288754e+22 2.3747761e+21 -2.4533561e+21)
(-6.0297146e+22 2.0786759e+21 -2.4442074e+21)
(-6.211045e+22 2.4396047e+21 -2.4102336e+21)
(-6.1962861e+22 2.1412371e+21 -2.3903575e+21)
(-6.2181159e+22 2.4287906e+21 -2.4576377e+21)
(-6.2004434e+22 2.0856827e+21 -2.4192848e+21)
(-6.0299076e+22 2.3074974e+21 -2.5580562e+21)
(-6.0302337e+22 2.0049328e+21 -2.5404291e+21)
(-8.0322602e+22 2.1342202e+21 -3.8747214e+21)
(-7.9798571e+22 2.054504e+21 -4.2496168e+21)
(-7.979411e+22 1.9891381e+21 -4.3342694e+21)
(-8.03613e+22 1.9721584e+21 -3.8665984e+21)
(-6.3092738e+22 2.2881413e+21 -2.6020535e+21)
(-6.3082057e+22 2.3798456e+21 -2.4966672e+21)
(-6.0252965e+22 2.3032049e+21 -2.5454969e+21)
(-6.0257423e+22 2.0288916e+21 -2.5341187e+21)
(-6.2125198e+22 2.3965907e+21 -2.4589067e+21)
(-6.1967217e+22 2.1074152e+21 -2.4390272e+21)
(-7.9674093e+22 2.018403e+21 -4.4070967e+21)
(-7.9946024e+22 2.0535284e+21 -4.3282329e+21)
(-8.0593531e+22 2.1919916e+21 -3.8754474e+21)
(-8.0282259e+22 2.0328579e+21 -3.9060499e+21)
(-6.2884034e+22 2.2544833e+21 -2.6485897e+21)
(-6.3019543e+22 2.2849933e+21 -2.5763773e+21)
(-8.1273494e+22 1.8678555e+21 -4.8529005e+21)
(-8.1424435e+22 1.8362727e+21 -4.7367821e+21)
(-8.1817962e+22 2.0119496e+21 -4.3542091e+21)
(-8.1543826e+22 1.973442e+21 -4.4672549e+21)
(-8.1366618e+22 1.8644819e+21 -4.7622862e+21)
(-8.1245623e+22 1.8364715e+21 -4.6466695e+21)
(-8.1607979e+22 1.9666469e+21 -4.2688997e+21)
(-8.1620969e+22 1.9127884e+21 -4.3837717e+21)
(-6.2699938e+22 2.3325062e+21 -2.5354384e+21)
(-8.0305097e+22 2.159515e+21 -3.8437018e+21)
(-7.9654425e+22 2.0660759e+21 -4.2868157e+21)
(-7.9593348e+22 2.0022309e+21 -4.4585446e+21)
(-8.0171378e+22 2.0156243e+21 -3.9531513e+21)
(-6.2663111e+22 2.3024839e+21 -2.6427969e+21)
(-8.018298e+22 2.2348625e+21 -3.7806452e+21)
(-7.9367736e+22 2.0829943e+21 -4.3645915e+21)
(-8.1599643e+22 1.9866528e+21 -4.3896359e+21)
(-8.1343442e+22 1.8557024e+21 -4.7262333e+21)
(-8.1203479e+22 1.8611255e+21 -4.8527894e+21)
(-8.139232e+22 1.9144554e+21 -4.534821e+21)
(-8.1271027e+22 1.9962023e+21 -4.4979389e+21)
(-8.1106151e+22 1.8688557e+21 -4.7259163e+21)
(-8.0823474e+22 1.9033945e+21 -4.8776977e+21)
(-8.3193569e+22 1.806165e+21 -4.5397504e+21)
(-8.265018e+22 1.6164534e+21 -5.1171941e+21)
(-8.2793171e+22 1.7323682e+21 -5.2547664e+21)
(-8.3179713e+22 1.7712765e+21 -4.6926422e+21)
(-8.4897765e+22 1.5346736e+21 -5.2845568e+21)
(-8.5049691e+22 1.3808319e+21 -5.6345199e+21)
(-8.5209641e+22 1.6894227e+21 -5.5713855e+21)
(-8.4852309e+22 1.7053006e+21 -5.4263488e+21)
(-8.3430035e+22 1.8123826e+21 -4.6177068e+21)
(-8.2738881e+22 1.5473905e+21 -5.3958433e+21)
(-8.2744035e+22 1.7191414e+21 -5.3511772e+21)
(-8.3133244e+22 1.7760945e+21 -4.7757411e+21)
(-8.4980852e+22 1.455089e+21 -5.5376394e+21)
(-8.5276068e+22 1.2813343e+21 -5.6692082e+21)
(-8.518439e+22 1.616349e+21 -5.6788998e+21)
(-8.4813933e+22 1.6576861e+21 -5.5188695e+21)
(-8.4766107e+22 1.5163733e+21 -5.5566025e+21)
(-8.46889e+22 1.3203046e+21 -5.5010995e+21)
(-8.4549545e+22 1.4809823e+21 -5.2172027e+21)
(-8.4358479e+22 1.6045414e+21 -5.4131535e+21)
(-8.4920343e+22 1.6767552e+21 -5.7323542e+21)
(-8.5020035e+22 1.3371821e+21 -5.419694e+21)
(-8.4956952e+22 1.4964646e+21 -5.0790462e+21)
(-8.4694993e+22 1.7140884e+21 -5.4670041e+21)
(-8.3162096e+22 1.7513846e+21 -4.6722872e+21)
(-8.282169e+22 1.6112194e+21 -5.0004056e+21)
(-8.2566601e+22 1.743823e+21 -5.3270204e+21)
(-8.2988303e+22 1.7439545e+21 -4.8091834e+21)
(-8.2374953e+22 1.6930086e+21 -5.2191471e+21)
(-8.2535649e+22 1.608846e+21 -5.0235603e+21)
(-8.2817018e+22 1.8008955e+21 -4.6979348e+21)
(-8.2550363e+22 1.7794257e+21 -4.840341e+21)
(-8.1808376e+22 2.4715107e+21 -3.640142e+21)
(-8.1738982e+22 2.1295597e+21 -3.5944539e+21)
(-8.1410451e+22 2.4470979e+21 -4.0212058e+21)
(-8.1201294e+22 2.1221462e+21 -4.0742874e+21)
(-8.1515502e+22 2.002202e+21 -3.6729815e+21)
(-8.2056906e+22 2.3363039e+21 -3.5982275e+21)
(-8.1444917e+22 2.2110607e+21 -4.0491994e+21)
(-8.0895494e+22 1.9937986e+21 -4.1741541e+21)
(-8.2523061e+22 1.9026159e+21 -4.5966632e+21)
(-8.2914845e+22 2.0286814e+21 -4.4563577e+21)
(-8.2835428e+22 1.9818454e+21 -4.1991068e+21)
(-8.3334499e+22 2.1824843e+21 -4.0607103e+21)
(-8.283631e+22 2.0677235e+21 -4.4756147e+21)
(-8.3014202e+22 2.3139863e+21 -4.3454665e+21)
(-8.3103179e+22 2.367144e+21 -4.1285908e+21)
(-8.2985073e+22 2.0544713e+21 -4.1581442e+21)
(-6.1163858e+22 2.4720262e+21 -2.7401085e+21)
(-6.0953407e+22 2.1513327e+21 -2.7164127e+21)
(-6.2600766e+22 2.2182741e+21 -2.6343318e+21)
(-6.2926637e+22 2.477185e+21 -2.6584855e+21)
(-6.0335628e+22 2.2637992e+21 -2.6838141e+21)
(-6.0330629e+22 1.9599445e+21 -2.6676683e+21)
(-6.2030267e+22 2.3140093e+21 -2.6479542e+21)
(-6.190613e+22 2.0296106e+21 -2.6125294e+21)
(-6.2127194e+22 2.4064813e+21 -2.5974153e+21)
(-6.1942246e+22 2.0793017e+21 -2.5368102e+21)
(-6.0248753e+22 2.2855445e+21 -2.684483e+21)
(-6.0256806e+22 1.9940562e+21 -2.6530369e+21)
(-6.3188716e+22 2.2785197e+21 -2.7276474e+21)
(-8.0227657e+22 2.0775134e+21 -4.1813418e+21)
(-7.9725606e+22 2.1142081e+21 -4.6292692e+21)
(-7.9528687e+22 2.0010903e+21 -4.6941235e+21)
(-8.0362719e+22 2.0864923e+21 -4.1005147e+21)
(-6.3025153e+22 2.3036311e+21 -2.7411063e+21)
(-5.9973934e+22 2.3711122e+21 -2.4550107e+21)
(-5.9993384e+22 2.0862784e+21 -2.4325104e+21)
(-6.2002233e+22 2.451044e+21 -2.3673138e+21)
(-6.1850538e+22 2.1502759e+21 -2.3374864e+21)
(-6.227098e+22 2.447474e+21 -2.4208326e+21)
(-6.2081431e+22 2.1084305e+21 -2.3731795e+21)
(-6.0288404e+22 2.3315147e+21 -2.5149204e+21)
(-6.0311567e+22 2.0447294e+21 -2.4870093e+21)
(-8.1072973e+22 2.2940748e+21 -3.6215123e+21)
(-8.0296281e+22 2.1548966e+21 -4.1562504e+21)
(-8.0159798e+22 1.9331389e+21 -4.2363432e+21)
(-8.0736851e+22 1.9763071e+21 -3.7297194e+21)
(-6.3029984e+22 2.2919274e+21 -2.5765473e+21)
(-6.2787502e+22 2.4171779e+21 -2.4836603e+21)
(-8.1453279e+22 1.9405102e+21 -4.814006e+21)
(-8.1230488e+22 1.839352e+21 -5.2301883e+21)
(-8.1378737e+22 2.0478261e+21 -5.0546232e+21)
(-8.1527862e+22 2.0523215e+21 -4.7351688e+21)
(-8.2202857e+22 2.0808456e+21 -4.2733346e+21)
(-8.1961197e+22 1.9863148e+21 -4.5109885e+21)
(-8.1755411e+22 1.7895902e+21 -4.6009555e+21)
(-8.1944393e+22 1.8286946e+21 -4.2987368e+21)
(-8.6693046e+22 2.0305228e+21 -4.7263776e+21)
(-8.663862e+22 1.8539422e+21 -5.1855859e+21)
(-8.6616724e+22 2.0149083e+21 -5.3817783e+21)
(-8.648544e+22 2.0076201e+21 -4.9681301e+21)
(-8.4315041e+22 2.0043355e+21 -4.871633e+21)
(-8.4354375e+22 2.0873423e+21 -4.6582232e+21)
(-8.4776841e+22 2.2121474e+21 -4.3290821e+21)
(-8.4633536e+22 2.0047269e+21 -4.4717574e+21)
(-8.4951936e+22 2.0566793e+21 -4.3946316e+21)
(-8.4337685e+22 1.8214442e+21 -5.0207895e+21)
(-8.4093215e+22 1.8871331e+21 -5.0498481e+21)
(-8.4480865e+22 1.9040545e+21 -4.5210723e+21)
(-8.6754544e+22 1.832119e+21 -5.089455e+21)
(-8.6724352e+22 1.6144465e+21 -5.5753702e+21)
(-8.6378499e+22 1.9197017e+21 -5.6646439e+21)
(-8.6384676e+22 1.948552e+21 -5.0936143e+21)
(-8.5508056e+22 1.596208e+21 -5.430129e+21)
(-8.5389175e+22 1.5234794e+21 -5.2605426e+21)
(-8.5430458e+22 1.6795803e+21 -4.9127224e+21)
(-8.5270836e+22 1.6681514e+21 -5.1520388e+21)
(-8.5440696e+22 2.0686404e+21 -5.7719569e+21)
(-8.5393361e+22 1.6373586e+21 -5.7309056e+21)
(-8.490198e+22 1.6598186e+21 -5.698842e+21)
(-8.500345e+22 1.9705886e+21 -5.6038148e+21)
(-8.2977637e+22 1.7695694e+21 -5.2566012e+21)
(-8.2966769e+22 1.75427e+21 -5.4462533e+21)
(-8.2980319e+22 1.9812243e+21 -5.3978732e+21)
(-8.3118758e+22 1.93021e+21 -5.0463925e+21)
(-8.3121445e+22 1.6646408e+21 -5.0120036e+21)
(-8.3238667e+22 1.7368591e+21 -4.8399083e+21)
(-8.3737815e+22 1.9220205e+21 -4.4430643e+21)
(-8.3547692e+22 1.7086895e+21 -4.5320175e+21)
(-9.3287995e+22 -1.1112833e+21 -1.1615719e+22)
(-1.0210149e+23 1.3817952e+21 -7.8301006e+21)
(-1.0324824e+23 1.8755404e+21 -7.6721996e+21)
(-9.127607e+22 -2.1529262e+20 -6.5970855e+21)
(-9.1981549e+22 8.2748612e+20 -6.3116204e+21)
(-1.0348001e+23 1.210251e+21 -7.7368687e+21)
(-1.0338321e+23 7.1907217e+20 -7.9600684e+21)
(-9.238172e+22 -3.8104589e+20 -7.1082366e+21)
(-9.2706572e+22 1.0205597e+21 -7.0207503e+21)
(-9.3361815e+22 1.2999702e+21 -1.1716527e+22)
(-8.8934229e+22 1.8512659e+21 -5.1257771e+21)
(-8.8650304e+22 1.5688303e+21 -5.9853858e+21)
(-8.8640259e+22 2.0131163e+21 -6.0629592e+21)
(-8.8687007e+22 2.0211155e+21 -5.4273306e+21)
(-9.1252085e+22 1.5399618e+21 -6.1349925e+21)
(-9.1448114e+22 1.2692609e+21 -6.8883899e+21)
(-9.169192e+22 2.0590408e+21 -6.950372e+21)
(-9.1027892e+22 2.1184611e+21 -6.3318823e+21)
(-8.9050195e+22 1.6408841e+21 -5.5292704e+21)
(-8.8609068e+22 1.2329367e+21 -6.7107476e+21)
(-8.8707492e+22 1.9980353e+21 -5.6216588e+21)
(-8.8624922e+22 2.0286446e+21 -6.3249566e+21)
(-9.1177606e+22 1.2495061e+21 -6.6531146e+21)
(-9.1882269e+22 1.0018306e+21 -7.3258275e+21)
(-9.1815304e+22 2.1592555e+21 -7.1663842e+21)
(-9.1051796e+22 2.1361422e+21 -6.5817738e+21)
(-9.3519887e+22 2.009519e+21 -1.2257539e+22)
(-9.3417031e+22 6.4112345e+20 -1.2501411e+22)
(-9.6192752e+22 7.1663003e+20 -9.1650172e+21)
(-9.6154144e+22 2.3041921e+21 -9.0708261e+21)
(-9.3080299e+22 1.856852e+21 -1.2203516e+22)
(-9.2763315e+22 1.0689894e+21 -1.2485082e+22)
(-9.5651498e+22 1.117578e+21 -8.8567209e+21)
(-9.5854501e+22 2.158687e+21 -8.8858211e+21)
(-9.3712052e+22 1.2341773e+21 -7.092099e+21)
(-9.2974899e+22 1.0145715e+21 -8.7040765e+21)
(-9.3074428e+22 1.8602541e+21 -8.7666546e+21)
(-9.3819362e+22 2.1814518e+21 -7.1171655e+21)
(-9.3405373e+22 2.1382356e+21 -8.837317e+21)
(-9.3346316e+22 7.7381622e+20 -9.0820915e+21)
(-9.4007135e+22 9.6425353e+20 -7.5304343e+21)
(-9.3959905e+22 2.2969627e+21 -7.3597573e+21)
(-9.2900051e+22 1.9729139e+21 -1.2203152e+22)
(-9.325819e+22 7.9369975e+20 -1.2126046e+22)
(-9.476338e+22 1.3150252e+21 -8.0902684e+21)
(-9.4469351e+22 2.1687082e+21 -9.2074806e+21)
(-9.2510601e+22 1.4097337e+21 -7.1034007e+21)
(-9.1942769e+22 1.255595e+21 -8.3281502e+21)
(-9.1966917e+22 2.0405551e+21 -8.9786335e+21)
(-9.2685134e+22 2.3215648e+21 -7.3483609e+21)
(-9.2669578e+22 1.0192234e+21 -6.6711759e+21)
(-9.1463083e+22 7.655417e+20 -8.767445e+21)
(-9.2838954e+22 1.4357121e+21 -6.6331052e+21)
(-9.1671235e+22 1.3860726e+21 -8.9442277e+21)
(-9.4856712e+22 6.0824208e+20 -7.8122089e+21)
(-9.2718512e+22 3.9065561e+20 -1.2055179e+22)
(-9.4333033e+22 1.3000473e+21 -8.6514835e+21)
(-9.2449813e+22 1.1046331e+21 -1.2212419e+22)
(-8.9848713e+22 1.4563055e+21 -6.4256198e+21)
(-9.0314146e+22 1.3397302e+21 -6.9721807e+21)
(-9.0647086e+22 2.1980837e+21 -7.0980597e+21)
(-9.004691e+22 2.1796503e+21 -6.5321509e+21)
(-8.7702267e+22 2.1010113e+21 -6.2934038e+21)
(-8.7485841e+22 1.4801958e+21 -6.2653173e+21)
(-8.7276148e+22 1.5567084e+21 -5.8729027e+21)
(-8.7404735e+22 2.0634139e+21 -5.889024e+21)
(-8.7673734e+22 1.5124566e+21 -5.2137228e+21)
(-8.7310531e+22 1.3199454e+21 -5.9632129e+21)
(-8.764831e+22 1.5626692e+21 -5.934537e+21)
(-8.7544073e+22 1.5570772e+21 -5.4275973e+21)
(-8.9957981e+22 1.2441534e+21 -6.0133882e+21)
(-9.0047208e+22 1.0356334e+21 -6.927763e+21)
(-9.0334796e+22 1.5093493e+21 -6.9519922e+21)
(-9.0127742e+22 1.5832501e+21 -6.0573201e+21)
(-9.0164146e+22 1.3874114e+21 -7.0792213e+21)
(-9.0112886e+22 4.8350229e+20 -6.9552586e+21)
(-8.9594136e+22 7.4175556e+20 -6.3895255e+21)
(-8.9595271e+22 1.4497589e+21 -6.4504188e+21)
(-9.0230179e+22 1.6298869e+21 -6.9539518e+21)
(-9.0109191e+22 8.4909381e+20 -6.7140786e+21)
(-8.9466876e+22 1.0804541e+21 -6.2539801e+21)
(-8.9641942e+22 1.681264e+21 -6.311022e+21)
(-8.7042269e+22 1.2870938e+21 -5.6509047e+21)
(-8.7286124e+22 1.1740538e+21 -5.9315486e+21)
(-8.7359971e+22 1.6341723e+21 -6.0730449e+21)
(-8.7168289e+22 1.6151719e+21 -5.6203501e+21)
(-8.7280102e+22 1.4486322e+21 -6.2643099e+21)
(-8.7319909e+22 8.9219188e+20 -6.1841338e+21)
(-8.7243457e+22 1.1936394e+21 -5.7103054e+21)
(-8.7179669e+22 1.5465631e+21 -5.6985171e+21)
(-1.0279435e+23 7.8529532e+20 -7.7977526e+21)
(-9.2517234e+22 2.4108669e+20 -1.209072e+22)
(-9.40417e+22 6.4039242e+20 -8.0518176e+21)
(-9.4098257e+22 1.5473048e+21 -8.647604e+21)
(-9.2158611e+22 1.3702313e+21 -1.2020115e+22)
(-1.0317478e+23 1.3415576e+21 -7.7349061e+21)
(-9.2592866e+22 -7.499703e+19 -1.2027769e+22)
(-9.4169234e+22 3.2757416e+19 -8.1236343e+21)
(-9.3979288e+22 1.1526203e+21 -8.6608269e+21)
(-9.2161187e+22 1.0175909e+21 -1.2015749e+22)
(-9.2121813e+22 -4.6406335e+20 -7.0747104e+21)
(-9.2106635e+22 9.0949691e+20 -6.9440565e+21)
(-9.1362369e+22 1.2431825e+21 -9.0092326e+21)
(-9.1463502e+22 1.6796757e+20 -8.4246225e+21)
(-9.2155082e+22 3.5316261e+20 -7.0537291e+21)
(-9.2278636e+22 1.363939e+21 -7.14388e+21)
(-9.1386171e+22 1.4421721e+21 -9.0088876e+21)
(-9.1456633e+22 6.0521277e+20 -8.2081696e+21)
(-9.2015538e+22 7.4049626e+20 -6.9303272e+21)
(-9.2354344e+22 1.6832281e+21 -7.0602786e+21)
(-1.0270739e+23 2.7891217e+20 -7.5077417e+21)
(-9.2115979e+22 -9.1094386e+19 -1.185215e+22)
(-9.3709287e+22 2.8258992e+20 -7.8401081e+21)
(-9.3600157e+22 1.3221685e+21 -8.6431583e+21)
(-9.1695459e+22 1.2168495e+21 -1.2086198e+22)
(-1.0208168e+23 8.4243692e+20 -7.484637e+21)
(-9.1592294e+22 -9.0382654e+19 -1.1877551e+22)
(-9.3224106e+22 3.0089356e+19 -7.7212905e+21)
(-9.3142732e+22 7.8134459e+20 -8.3954332e+21)
(-9.1210005e+22 6.1436562e+20 -1.2135878e+22)
(-9.1395425e+22 -2.3894737e+20 -6.6973006e+21)
(-9.1186448e+22 1.0253016e+21 -6.69636e+21)
(-9.0645868e+22 9.1584692e+20 -8.8995538e+21)
(-9.0617679e+22 2.4603779e+20 -8.1298177e+21)
(-9.148479e+22 4.0004298e+20 -6.6543949e+21)
(-9.1731993e+22 1.0438751e+21 -6.8545289e+21)
(-9.097931e+22 1.4075153e+21 -9.1001262e+21)
(-9.1108519e+22 3.7630983e+20 -8.1246115e+21)
(-9.1729858e+22 6.0435266e+20 -6.864359e+21)
(-9.2010652e+22 1.6104595e+21 -7.1184775e+21)
(-8.7211932e+22 1.2619316e+21 -5.3652012e+21)
(-8.6957763e+22 1.0100791e+21 -6.0812275e+21)
(-8.704983e+22 1.6464e+21 -6.343487e+21)
(-8.6906166e+22 1.6084371e+21 -5.7491446e+21)
(-8.92658e+22 8.5143326e+20 -6.3591878e+21)
(-8.9770093e+22 6.9010347e+20 -6.7844108e+21)
(-8.9893041e+22 1.6022186e+21 -7.1028041e+21)
(-8.9355576e+22 1.6329352e+21 -6.5456891e+21)
(-8.9685394e+22 1.1375081e+21 -6.8555165e+21)
(-8.9471339e+22 5.6646014e+20 -6.6426966e+21)
(-8.9035254e+22 7.8268034e+20 -6.1803053e+21)
(-8.9201017e+22 1.2696361e+21 -6.3079809e+21)
(-8.6647095e+22 1.1909639e+21 -5.5849251e+21)
(-8.6790773e+22 9.4675747e+20 -5.9529099e+21)
(-8.6949206e+22 1.3010285e+21 -6.0635996e+21)
(-8.6682642e+22 1.4039148e+21 -5.6515027e+21)
(-9.290732e+22 -1.0752062e+21 -1.1702386e+22)
(-9.2560271e+22 1.5723804e+21 -1.1552072e+22)
(-9.5196907e+22 -7.8406507e+20 2.0113019e+21)
(-9.4411091e+22 1.0330194e+21 2.1324583e+21)
(-1.2262938e+23 3.4970105e+21 2.7824682e+21)
(-1.0837051e+23 1.7308452e+21 4.4269391e+21)
(-1.0950124e+23 2.1968292e+21 4.7998433e+20)
(-1.1051167e+23 1.2870175e+21 2.8011211e+20)
(-1.0839577e+23 7.567202e+20 4.6356317e+21)
(-1.1143295e+23 2.5003642e+21 -1.4060755e+21)
(-1.1092123e+23 1.8804506e+21 -6.3618033e+20)
(-1.1275097e+23 1.418058e+21 2.7073177e+21)
(-1.0383006e+23 3.5264131e+20 4.4743223e+21)
(-1.0481896e+23 5.8668719e+20 4.7188975e+21)
(-1.1895704e+23 1.9768333e+21 -1.2185745e+22)
(-9.6412659e+22 2.6800913e+21 -3.2909436e+21)
(-9.6212125e+22 2.3477248e+21 -3.747356e+21)
(-9.564265e+22 2.4434005e+21 -4.2915853e+21)
(-9.5458577e+22 2.3642e+21 -4.8937092e+21)
(-9.6024577e+22 2.0502108e+21 -4.2827032e+21)
(-9.65065e+22 2.1554882e+21 -3.6672663e+21)
(-9.5204478e+22 2.1584073e+21 -4.929121e+21)
(-9.5220893e+22 1.8332354e+21 -5.3560212e+21)
(-9.8446955e+22 2.5950332e+21 -4.2631818e+21)
(-9.7337727e+22 2.2405594e+21 -5.9227221e+21)
(-9.7688325e+22 2.4015245e+21 -6.2176122e+21)
(-9.7904495e+22 2.4124435e+21 -4.9813205e+21)
(-9.7622344e+22 1.6137475e+21 -6.6434688e+21)
(-9.7490688e+22 1.8221382e+21 -5.5753336e+21)
(-9.7702305e+22 2.0418964e+21 -5.1089549e+21)
(-9.753881e+22 1.984039e+21 -6.3866699e+21)
(-9.6242413e+22 2.3189704e+21 -4.1133877e+21)
(-9.5835175e+22 2.2747319e+21 -4.2570949e+21)
(-9.5133074e+22 2.0007233e+21 -5.2797147e+21)
(-9.5300462e+22 2.3352196e+21 -5.323715e+21)
(-9.5938493e+22 2.22599e+21 -4.242579e+21)
(-9.6304554e+22 2.3674982e+21 -3.6266629e+21)
(-9.4943047e+22 2.3894335e+21 -4.9008105e+21)
(-9.5009283e+22 2.0051884e+21 -5.3142383e+21)
(-9.7513833e+22 2.2628178e+21 -6.6217065e+21)
(-9.7285261e+22 1.6523818e+21 -6.5947306e+21)
(-9.7533434e+22 1.9665761e+21 -5.3878275e+21)
(-9.7833015e+22 2.304219e+21 -5.373801e+21)
(-9.7330376e+22 1.6638869e+21 -6.6451026e+21)
(-9.7198935e+22 1.946033e+21 -5.6210355e+21)
(-9.745193e+22 2.2405791e+21 -5.1075103e+21)
(-9.7268939e+22 2.1497389e+21 -6.389364e+21)
(-1.0032389e+23 2.4181711e+21 -6.105719e+21)
(-9.9434819e+22 2.1660762e+21 -7.8986137e+21)
(-9.9740776e+22 2.1095695e+21 -8.197942e+21)
(-1.0048483e+23 2.3790654e+21 -6.3937008e+21)
(-9.840533e+22 1.5283439e+21 -1.1784733e+22)
(-9.8012734e+22 1.6572993e+21 -1.2004166e+22)
(-1.0367431e+23 2.3237624e+21 -7.1398793e+21)
(-1.0415585e+23 2.1249186e+21 -7.2499257e+21)
(-1.1054162e+23 1.8706602e+21 -5.6299855e+21)
(-1.0448798e+23 1.5244111e+21 -7.437136e+21)
(-9.8123877e+22 1.0445984e+21 -1.2390222e+22)
(-9.8552167e+22 1.2505261e+21 -1.202614e+22)
(-1.0408843e+23 1.5449399e+21 -7.5807628e+21)
(-1.1151803e+23 1.2803321e+21 -5.8030682e+21)
(-9.9600905e+22 1.4280325e+21 -8.8359505e+21)
(-9.9714364e+22 1.6855847e+21 -8.3787974e+21)
(-1.0042997e+23 1.5592284e+21 -6.9615753e+21)
(-1.0009226e+23 1.9300887e+21 -6.8701069e+21)
(-9.6368654e+22 5.184979e+20 -8.4936842e+21)
(-9.6258909e+22 1.5817319e+20 -8.5469531e+21)
(-9.9476038e+22 1.2847208e+21 -8.4680572e+21)
(-9.9902503e+22 1.6372161e+21 -6.920697e+21)
(-9.9479653e+22 1.8702063e+21 -8.6331025e+21)
(-1.0029182e+23 2.2152238e+21 -6.8437329e+21)
(-9.8216947e+22 1.3076615e+21 -1.2233529e+22)
(-9.8212839e+22 8.3441887e+20 -1.2422776e+22)
(-1.0361358e+23 1.4437383e+21 -7.8568511e+21)
(-1.1112537e+23 2.0414753e+21 -6.2572501e+21)
(-1.037953e+23 1.8540873e+21 -7.8247041e+21)
(-9.8029172e+22 1.3865106e+21 -1.2355893e+22)