/*--------------------------------*- C++ -*----------------------------------*\
  =========                 |
  \\      /  F ield         | OpenFOAM: The Open Source CFD Toolbox
   \\    /   O peration     | Website:  https://openfoam.org
    \\  /    A nd           | Version:  7
     \\/     M anipulation  |
\*---------------------------------------------------------------------------*/
FoamFile
{
    version     2.0;
    format      ascii;
    class       volScalarField;
    location    "2000";
    object      k;
}
// * * * * * * * * * * * * * * * * * * * * * * * * * * * * * * * * * * * * * //

dimensions      [0 2 -2 0 0 0 0];

internalField   nonuniform List<scalar> 
33733
(
1.5219766
1.526075
1.52576
1.5237784
1.5235476
1.5218127
1.5242063
1.5240325
1.5241518
1.5243697
1.526096
1.5257641
1.5257012
1.5260632
1.5260765
1.5262385
1.5257632
1.5262655
1.5261346
1.5260685
1.5260395
1.5245368
1.5243325
1.5246566
1.524471
1.5246649
1.5240763
1.5239563
1.5246391
1.524641
1.5246068
1.5245311
1.5244597
1.5237086
1.5234614
1.5236481
1.5238733
1.524434
1.5244935
1.5245453
1.5243604
1.5244995
1.524632
1.5249481
1.5257927
1.5258845
1.5261358
1.5260973
1.5251653
1.5250864
1.5254339
1.525923
1.5260526
1.5262394
1.5261791
1.5262166
1.5264167
1.5264217
1.5262643
1.5262054
1.5262422
1.526178
1.5262129
1.526159
1.5261088
1.5260805
1.5261263
1.525689
1.5256806
1.5255975
1.5256354
1.5256218
1.5256749
1.5257933
1.5248556
1.5246195
1.5248006
1.5245862
1.524851
1.5248717
1.5246256
1.5246166
1.5245905
1.5246579
1.524679
1.5245922
1.5245185
1.5246441
1.5247645
1.5246412
1.524795
1.5246293
1.5248372
1.5248444
1.5246338
1.5246199
1.5206096
1.5209011
1.5207846
1.5209991
1.5208286
1.5203468
1.5205787
1.5239335
1.5239725
1.5239654
1.5240062
1.5235163
1.5237848
1.5235574
1.5238388
1.523708
1.5235977
1.5236616
1.5238819
1.5238331
1.5239595
1.5239894
1.5240296
1.5238639
1.523999
1.5239929
1.5240798
1.5245216
1.5245017
1.5245266
1.5245376
1.5245628
1.5245827
1.5245634
1.5246451
1.5245541
1.524541
1.5251066
1.5250212
1.522552
1.5252292
1.5253674
1.5256103
1.5255044
1.5233297
1.5232005
1.5240503
1.5248935
1.5249359
1.5254689
1.5256926
1.5260734
1.5262528
1.5262575
1.5262435
1.5257464
1.5258906
1.5263039
1.5264374
1.5263357
1.526265
1.5262857
1.5262686
1.5262436
1.5259131
1.5259717
1.5259363
1.525883
1.5260233
1.5260646
1.5260249
1.5260764
1.5259501
1.5259334
1.5258744
1.5259092
1.5260729
1.5260344
1.5260282
1.5259959
1.5258509
1.5258031
1.5257574
1.5257992
1.5257226
1.5257448
1.5256749
1.5256658
1.5256712
1.52566
1.5258296
1.5258163
1.525736
1.5258557
1.5257763
1.5258561
1.5249689
1.5250166
1.5249545
1.524842
1.5249252
1.5250679
1.5249929
1.5250357
1.5249185
1.5250509
1.5252442
1.5253294
1.5253358
1.5250371
1.5251716
1.5254185
1.5255689
1.5255332
1.5253982
1.5254017
1.525581
1.5248969
1.5248721
1.5246826
1.5246899
1.5246609
1.5248253
1.5248535
1.5246747
1.5249508
1.5249147
1.5247059
1.5246976
1.5249828
1.5247114
1.5247097
1.52496
1.5240924
1.5240844
1.5246833
1.5247078
1.5247212
1.524671
1.5246412
1.5248157
1.5248702
1.5246808
1.5246774
1.5249198
1.5249344
1.5246919
1.5246861
1.5249576
1.5249556
1.5247018
1.5246964
1.524972
1.5249762
1.5247066
1.5247099
1.5206875
1.520588
1.5206745
1.5207821
1.5218472
1.5218295
1.5218474
1.5218733
1.5214865
1.5217328
1.5214993
1.5217403
1.5218995
1.5218956
1.5219085
1.5208844
1.5220569
1.5219594
1.5210385
1.5209184
1.5207631
1.5205042
1.5204685
1.5205253
1.5203736
1.520573
1.520556
1.5206648
1.5206062
1.5207712
1.5208191
1.5202594
1.520077
1.524056
1.524045
1.5240623
1.5240498
1.5241006
1.5240833
1.5240875
1.5241067
1.52404
1.5240277
1.5240332
1.5240444
1.5240826
1.5240627
1.5240701
1.5240878
1.5237966
1.5235898
1.5238604
1.5235963
1.523829
1.5239484
1.5239606
1.5239743
1.5239615
1.5235886
1.5238258
1.5235889
1.5238046
1.5239539
1.523942
1.5239427
1.5239539
1.5238763
1.523745
1.5238912
1.5239551
1.5238208
1.5235888
1.5235859
1.5238032
1.5236308
1.5238222
1.5236049
1.5238052
1.5239212
1.5239162
1.5239309
1.5239258
1.5239244
1.523925
1.5239348
1.523936
1.5240191
1.524008
1.5240227
1.524012
1.524014
1.5240057
1.524001
1.5240099
1.5240033
1.5240574
1.5240324
1.5240308
1.5240526
1.5240404
1.5240943
1.5240602
1.5240608
1.5240392
1.5240648
1.5240457
1.5239977
1.5244821
1.5244756
1.5244629
1.5244577
1.5244971
1.5245063
1.5245188
1.5245283
1.5245718
1.5245803
1.5246045
1.5245888
1.5246017
1.52465
1.5245611
1.5245491
1.524542
1.5245368
1.5251826
1.525038
1.5251579
1.5252499
1.5221194
1.5223644
1.5227741
1.5231985
1.5233787
1.5233193
1.5234836
1.525091
1.5240785
1.5251719
1.5240615
1.5249855
1.5249632
1.5240097
1.5239542
1.5240306
1.5239809
1.5239866
1.5239596
1.5244323
1.5243876
1.5244135
1.5244899
1.523443
1.5236849
1.5258122
1.526141
1.5261539
1.526026
1.5240921
1.5254329
1.5253113
1.524082
1.5255903
1.5257073
1.5240026
1.5239675
1.5240757
1.5261572
1.5261497
1.5261086
1.526095
1.5261192
1.5261101
1.5261052
1.5261084
1.5260751
1.526088
1.5254056
1.5253866
1.5253725
1.5254025
1.5252863
1.5253272
1.5252831
1.5252318
1.5254526
1.5256675
1.5254661
1.5253568
1.5253058
1.5254167
1.5254185
1.525649
1.5254566
1.5256569
1.5252418
1.5251688
1.5251803
1.5251964
1.5253461
1.5253592
1.5256092
1.5256051
1.5257869
1.525858
1.5258346
1.5257619
1.5255951
1.525703
1.5256551
1.5255443
1.5257154
1.5256745
1.5257875
1.5257721
1.5255983
1.5255377
1.5257078
1.5257246
1.5251287
1.5249749
1.5251096
1.5250049
1.5251828
1.5250994
1.5252232
1.525132
1.5250504
1.5250437
1.5248977
1.5249238
1.5249912
1.5250107
1.5248768
1.52486
1.5248804
1.5249436
1.525245
1.5251491
1.5248829
1.5249383
1.5251714
1.5250902
1.5255432
1.5254768
1.5254523
1.5254459
1.5254853
1.5254104
1.5255013
1.5255064
1.5249543
1.5250704
1.5249446
1.5251299
1.5253334
1.5255574
1.5255558
1.5254184
1.5250398
1.5250377
1.5250829
1.5251341
1.5253603
1.5253056
1.5255878
1.5255713
1.5246109
1.5244686
1.5243967
1.5245296
1.5244126
1.524328
1.5242775
1.524704
1.5246104
1.5244667
1.5245196
1.5246683
1.5245227
1.5246017
1.5247473
1.5246706
1.5245431
1.5243352
1.5245905
1.524697
1.5248323
1.5246865
1.5247319
1.5245593
1.5249874
1.5250659
1.5252197
1.5251827
1.5252802
1.5251587
1.5252414
1.5250839
1.5251733
1.5252254
1.5253256
1.5252987
1.5248611
1.5246959
1.5247826
1.5249256
1.5249536
1.5247948
1.5248973
1.5250287
1.5252958
1.525239
1.5253444
1.5253785
1.5254817
1.5255036
1.5254582
1.5254355
1.5254162
1.5254457
1.5254085
1.5253841
1.5251893
1.5252046
1.5246522
1.5246346
1.5249421
1.5252161
1.5246036
1.5251723
1.5254412
1.5254807
1.5254004
1.5254466
1.5245515
1.5245179
1.524462
1.5244897
1.5242752
1.5242978
1.5246079
1.5246239
1.5245962
1.5246758
1.5246524
1.5201548
1.5240585
1.5240959
1.5246979
1.524727
1.5247551
1.5246783
1.5246892
1.524735
1.52476
1.5247702
1.5247733
1.5247553
1.52472
1.5247025
1.524706
1.5204082
1.5216075
1.521393
1.5213746
1.5215917
1.5212804
1.5212734
1.5214416
1.5214627
1.5215196
1.5215118
1.5215403
1.5215536
1.5216824
1.5216875
1.521701
1.5217001
1.5231633
1.5232259
1.5230244
1.5229628
1.5231673
1.5231628
1.5229656
1.522975
1.523439
1.5233722
1.5234344
1.52337
1.5234361
1.5233751
1.5234976
1.523437
1.5224236
1.5227392
1.5222475
1.5225463
1.5230116
1.5230794
1.5228188
1.5228841
1.5226473
1.5226073
1.5230066
1.5229403
1.5232784
1.5232085
1.5233495
1.5232808
1.5232031
1.5232386
1.5217554
1.5230487
1.5230145
1.5231849
1.5231596
1.5217548
1.5229644
1.5229936
1.5234555
1.5233871
1.5234275
1.521766
1.5217553
1.5232768
1.5232917
1.521914
1.5231154
1.5230925
1.5232381
1.5231897
1.5218221
1.5229995
1.5230527
1.521818
1.5219078
1.5216733
1.5216274
1.5217186
1.5217593
1.5216189
1.5215915
1.5215721
1.5216061
1.5211486
1.5211111
1.5212298
1.5212855
1.5204579
1.5210058
1.5209371
1.5209839
1.5210728
1.5211234
1.5210609
1.5210687
1.5211358
1.520499
1.5204815
1.5205054
1.5213495
1.5212862
1.5212955
1.5213591
1.5205835
1.5207455
1.5205874
1.5207635
1.5214287
1.5213637
1.5213464
1.5214117
1.5211322
1.5212011
1.5211255
1.5211887
1.5211674
1.5212673
1.5213349
1.5212424
1.5213971
1.5214901
1.5215596
1.5214714
1.5206679
1.5204843
1.5240953
1.5240993
1.5241
1.5240958
1.5240824
1.5240864
1.5240923
1.5240875
1.5240937
1.5240931
1.5240941
1.5240946
1.5240868
1.5240808
1.5240815
1.5240868
1.5241413
1.5241446
1.5241595
1.5241545
1.5241144
1.5241173
1.5241262
1.5241224
1.5241132
1.5241111
1.5241193
1.5241205
1.5241515
1.5241375
1.5241389
1.5241519
1.5240704
1.5240702
1.5240748
1.5240749
1.5240635
1.5240576
1.5240622
1.5240671
1.5240709
1.5240729
1.5240783
1.5240763
1.5240838
1.5240834
1.5240851
1.5240854
1.5241261
1.5241131
1.5241179
1.5241302
1.5240948
1.5240875
1.5240925
1.5240994
1.524104
1.5241005
1.5241086
1.5241106
1.5241294
1.5241267
1.5241408
1.5241414
1.5239599
1.5239812
1.5239856
1.5239641
1.5251997
1.525165
1.5238674
1.5238395
1.5238212
1.5238377
1.5251726
1.5238728
1.5238314
1.5238137
1.5238449
1.5239683
1.5239802
1.5239845
1.523972
1.5240339
1.5240434
1.5240429
1.5240329
1.5240477
1.5240484
1.5240391
1.5240385
1.5240425
1.524043
1.5240403
1.5240397
1.5240382
1.5240385
1.5240348
1.5240342
1.5237918
1.5238008
1.5238789
1.5238532
1.5239699
1.5239687
1.5239637
1.5239618
1.5238777
1.5238203
1.5238061
1.5238497
1.5239784
1.5239648
1.5239685
1.523981
1.5240194
1.5240212
1.5240211
1.5240226
1.5240154
1.5240167
1.5240161
1.5240173
1.5240299
1.524027
1.5240266
1.5240289
1.5240345
1.524032
1.5240316
1.5240331
1.5239047
1.5237837
1.5238189
1.5236879
1.5238558
1.5239357
1.5239277
1.5239502
1.5239569
1.5239713
1.5239437
1.5239419
1.5239411
1.5239425
1.5238777
1.5237598
1.5237555
1.5238565
1.5238812
1.5237811
1.5237746
1.5238552
1.5239513
1.5239584
1.5239598
1.5239519
1.5237195
1.523724
1.523844
1.523843
1.5239085
1.5238993
1.5239069
1.5239023
1.5237444
1.523871
1.5237395
1.5238529
1.5239243
1.5239249
1.5239268
1.5239259
1.5239574
1.5239606
1.523962
1.5239603
1.5239738
1.5239711
1.5239725
1.5239742
1.5239638
1.5239667
1.5239661
1.5239639
1.5239763
1.5239765
1.523979
1.5239785
1.5240028
1.524002
1.5240015
1.5240014
1.5239886
1.5239853
1.5239857
1.523988
1.5240078
1.5240065
1.5240054
1.524006
1.5239937
1.5239897
1.5239895
1.5239925
1.5240411
1.5240418
1.5240469
1.5240464
1.5240366
1.5240299
1.5240346
1.5240406
1.5240556
1.5240557
1.5240596
1.5240594
1.5240496
1.5240432
1.5240472
1.5240526
1.524024
1.5240216
1.5240214
1.5240224
1.5240224
1.5240181
1.5240184
1.5240129
1.5240132
1.5240189
1.5240246
1.5240179
1.5240215
1.5240276
1.5240327
1.5240279
1.5240279
1.5240319
1.5240426
1.5240465
1.5240689
1.52407
1.5240535
1.524056
1.5240712
1.5240432
1.5240397
1.5240367
1.5240381
1.524041
1.5240476
1.5240439
1.5240491
1.5240531
1.52407
1.5240625
1.5240767
1.5240819
1.5240655
1.5240944
1.5240924
1.5240799
1.524087
1.5240982
1.5240627
1.5240576
1.5240636
1.5240688
1.5241093
1.5240971
1.5241018
1.5241132
1.5240789
1.5240724
1.5240772
1.5240834
1.5241251
1.5246599
1.5246214
1.5214375
1.5215102
1.5218545
1.5216106
1.523454
1.5222156
1.5236672
1.5225332
1.523362
1.5235243
1.5267421
1.5244668
1.5236201
1.5234725
1.5242154
1.5267971
1.5242795
1.5253491
1.5245772
1.5245345
1.5240233
1.5240201
1.5240587
1.5239968
1.524048
1.5247185
1.5246624
1.5240477
1.5239746
1.5240019
1.5239932
1.5239674
1.5244631
1.5244644
1.5244346
1.5244163
1.5239932
1.5239474
1.5239363
1.5239524
1.5239381
1.5239458
1.5239448
1.5242913
1.5240034
1.5240002
1.5239559
1.5239808
1.5239647
1.523967
1.5239813
1.52397
1.5239672
1.5239857
1.523991
1.5239374
1.5239459
1.5239475
1.5239399
1.5241236
1.5241652
1.5241193
1.5241333
1.5241635
1.5242026
1.5242106
1.5242662
1.523632
1.5240613
1.5240485
1.5258554
1.5240597
1.5259856
1.5241033
1.524077
1.5240512
1.524055
1.5240783
1.5250879
1.5252495
1.5249371
1.5248336
1.5241337
1.5240954
1.5240275
1.5241194
1.5240921
1.5240635
1.5239798
1.523976
1.5297112
1.5240308
1.5241284
1.5240322
1.5241309
1.5259856
1.5259504
1.5259345
1.5258393
1.5258997
1.5258896
1.5259033
1.5258991
1.5257634
1.5257338
1.5258066
1.5258004
1.5249775
1.5251912
1.5247993
1.5246474
1.5251151
1.5241259
1.5249341
1.5241519
1.5254727
1.5253051
1.5247557
1.524686
1.5247202
1.5246823
1.5245951
1.5245083
1.5244992
1.5244171
1.5245119
1.5246298
1.5247108
1.5245853
1.5246089
1.5250241
1.5246217
1.5246647
1.5250573
1.5251836
1.5253622
1.5253873
1.525154
1.5246895
1.5250639
1.5250776
1.5246767
1.5252047
1.5253501
1.5253804
1.5251911
1.5245593
1.5246338
1.5246057
1.52452
1.5245524
1.5244951
1.5243919
1.5244518
1.524379
1.5243804
1.5245748
1.524519
1.5245003
1.5244111
1.5245629
1.5244018
1.5250238
1.5246326
1.5247074
1.5250633
1.5250434
1.5246784
1.5247557
1.5250902
1.5253812
1.5253802
1.5250703
1.5250647
1.5251358
1.5253725
1.5253963
1.5251191
1.5253195
1.5252326
1.5252741
1.5252294
1.5251603
1.5249082
1.5250425
1.5251553
1.5250486
1.5247694
1.5249029
1.5248009
1.5247049
1.5253371
1.5252417
1.5252601
1.5254589
1.5254086
1.5251215
1.5254173
1.5250308
1.5254992
1.5256004
1.5254154
1.525388
1.5255427
1.5255391
1.5253902
1.5253911
1.5248166
1.5249281
1.5253127
1.5252274
1.5251288
1.5247318
1.5247447
1.5251204
1.5253764
1.5254059
1.5253193
1.5252397
1.5253458
1.5254538
1.5254892
1.5253798
1.5243361
1.5243466
1.5242909
1.5243622
1.5243549
1.5244252
1.5245152
1.5243488
1.5243739
1.5243416
1.5242771
1.5243185
1.5243615
1.5243899
1.5243511
1.5243586
1.5243447
1.524283
1.5243109
1.5243199
1.5243696
1.5243343
1.5243764
1.5243533
1.5244782
1.5245318
1.5243769
1.5243506
1.5243313
1.524571
1.5245204
1.5248673
1.5249673
1.5251578
1.5251036
1.5250325
1.5247769
1.5250788
1.5248576
1.524245
1.5243364
1.524357
1.5244374
1.5244206
1.5243309
1.5243796
1.5244942
1.524778
1.5246769
1.5249396
1.5250097
1.5246768
1.5245658
1.5248382
1.5249139
1.5253961
1.5254143
1.52537
1.5253648
1.5253653
1.5253241
1.5253541
1.5253751
1.5252032
1.525219
1.5246705
1.5246643
1.524712
1.5252342
1.5247016
1.5252401
1.5253166
1.5252543
1.5253285
1.5253605
1.525242
1.525173
1.5253062
1.5253309
1.5252687
1.5252539
1.5247574
1.5247494
1.52529
1.5252694
1.5248079
1.5247993
1.5242997
1.5243164
1.5243227
1.524345
1.524497
1.5244443
1.5246522
1.5247168
1.5243159
1.5242712
1.5243414
1.5242365
1.5247179
1.5244696
1.5248143
1.5245711
1.5252067
1.5249274
1.5250276
1.5252541
1.5249847
1.525419
1.5254084
1.5249258
1.5248462
1.5253054
1.5252963
1.5248299
1.5252666
1.5250511
1.5253047
1.5251533
1.5244157
1.52439
1.5244294
1.5243387
1.5243393
1.5243525
1.5243137
1.5243526
1.5245342
1.5243574
1.5244275
1.5246025
1.5245809
1.5244057
1.5244767
1.5246701
1.5249187
1.5248105
1.5251223
1.5251822
1.5250769
1.5247322
1.5248191
1.5251193
1.5254362
1.5254045
1.5250559
1.5250209
1.5250665
1.525371
1.5254013
1.5250785
1.5243292
1.5243036
1.5245365
1.5244115
1.5240471
1.5242802
1.5244989
1.5243558
1.5243883
1.5244756
1.5244274
1.5243405
1.5241934
1.5244178
1.5244945
1.5246245
1.5244464
1.5245583
1.5243921
1.5246433
1.5247103
1.5248615
1.5248177
1.5249374
1.5248283
1.5248973
1.5247677
1.5248801
1.52493
1.5250165
1.5249769
1.5246818
1.5244944
1.5245448
1.5247384
1.5247909
1.5245972
1.5246569
1.5248487
1.5250206
1.5249728
1.5250494
1.5250846
1.5249768
1.5250212
1.5248878
1.5248327
1.5247147
1.5248383
1.5248667
1.5246459
1.5246289
1.5243844
1.5244055
1.5245897
1.5246784
1.524715
1.5242436
1.5245107
1.5247559
1.5249331
1.5246774
1.5248909
1.5241159
1.5243526
1.5243826
1.5241168
1.5243412
1.5243277
1.5241159
1.5243193
1.5243132
1.5241168
1.5243321
1.5243224
1.5241151
1.5240994
1.5240892
1.5241064
1.5239931
1.5240081
1.5245777
1.5241086
1.5244604
1.5244582
1.5241132
1.5244808
1.52444
1.5240958
1.5244984
1.524531
1.5241024
1.524496
1.5244926
1.5240458
1.5240481
1.5240677
1.5241004
1.524695
1.5247155
1.5240925
1.5250686
1.5249832
1.524088
1.5249459
1.5248794
1.5240833
1.5248489
1.5248
1.5247458
1.524764
1.5240798
1.5247279
1.5247186
1.5240769
1.5240762
1.5245244
1.5245366
1.5240893
1.5245099
1.5245474
1.524078
1.5245146
1.5245012
1.5210616
1.5213181
1.5209316
1.5211487
1.5210183
1.5208226
1.5227634
1.5227309
1.5226469
1.5226896
1.5224977
1.5221935
1.5221194
1.5223977
1.5221324
1.5221985
1.5225028
1.5224068
1.5228105
1.5227599
1.5226714
1.5227287
1.5221119
1.5221933
1.522496
1.5223898
1.5221005
1.5221659
1.5224541
1.5223718
1.522631
1.5226332
1.5225692
1.5225799
1.5226142
1.5227
1.5227166
1.5226401
1.5227472
1.5227189
1.5226613
1.5226968
1.522729
1.5227394
1.5226774
1.5226709
1.5227334
1.5228173
1.5228138
1.5227283
1.5227187
1.5227976
1.5228364
1.522763
1.522816
1.522899
1.5228898
1.5228101
1.5227755
1.5228557
1.5228505
1.5227689
1.5228881
1.5228377
1.522762
1.5228157
1.5228065
1.5228802
1.5229382
1.522866
1.5265712
1.5265711
1.5260019
1.5259968
1.5260375
1.5260496
1.5266014
1.5266011
1.5265919
1.5265621
1.5265239
1.5265262
1.5259642
1.5259609
1.5260054
1.5260164
1.526585
1.5265858
1.5265763
1.5265167
1.5259897
1.5259761
1.5255149
1.5255316
1.5255651
1.5251779
1.5251524
1.5255408
1.5255621
1.5260286
1.5255572
1.5260285
1.525589
1.5251907
1.5255858
1.5251931
1.5260258
1.5260087
1.5255592
1.5255395
1.5255633
1.5251999
1.5251717
1.5255925
1.5260594
1.526059
1.5256067
1.5255992
1.5256311
1.5256297
1.5252426
1.525249
1.5252543
1.5252967
1.5247397
1.5248043
1.5255392
1.5255732
1.5261477
1.5261601
1.5252799
1.5261504
1.5263696
1.5263733
1.5257987
1.5258015
1.5258692
1.5258846
1.5264391
1.5264413
1.5263631
1.5264291
1.5244298
1.5247499
1.5243432
1.5248302
1.5243625
1.5244648
1.5240293
1.5241309
1.5251148
1.5255604
1.525074
1.5255914
1.5246972
1.5251035
1.5251432
1.5247428
1.52535
1.5258225
1.5253564
1.5258173
1.5249948
1.5253888
1.5253769
1.5249842
1.5254424
1.5258941
1.5254311
1.5258984
1.5250709
1.5254645
1.5254682
1.5250818
1.5265759
1.5265751
1.5260074
1.525998
1.5260063
1.5260134
1.5265666
1.5265657
1.5228654
1.5229528
1.5229757
1.5228948
1.5265591
1.5265687
1.5265767
1.5265767
1.5259967
1.5259889
1.5260074
1.526015
1.5266058
1.5266061
1.5228439
1.5229386
1.5229102
1.5228191
1.5266001
1.5265714
1.5255224
1.5260214
1.5255482
1.5260003
1.5255804
1.5251831
1.5251455
1.5255443
1.5255432
1.5260293
1.525544
1.5260251
1.5228222
1.5229127
1.5228802
1.5227941
1.5229173
1.5229082
1.5228311
1.52285
1.5264766
1.5264754
1.5259351
1.5259245
1.5258412
1.5258265
1.5263681
1.5263511
1.5229538
1.5230363
1.523054
1.5229756
1.526362
1.5264741
1.5265003
1.5264986
1.5259518
1.5259388
1.5259137
1.525918
1.5264783
1.526478
1.5229058
1.5229926
1.5229386
1.5228572
1.5264742
1.5264953
1.5228738
1.5229507
1.5228968
1.5228225
1.5230087
1.5229965
1.522923
1.5229397
1.5228262
1.522902
1.5228554
1.522777
1.5227586
1.5228038
1.5227749
1.5227188
1.522896
1.5228765
1.5228238
1.5228388
1.5228806
1.5229536
1.5229689
1.5228935
1.5227934
1.5228897
1.5228543
1.5227613
1.5227521
1.5228187
1.5227821
1.5227163
1.5227756
1.5227798
1.5227229
1.5227215
1.5227845
1.5228628
1.5228623
1.5227898
1.5220734
1.5221442
1.5224118
1.5223306
1.5220362
1.5220829
1.5223113
1.5222714
1.522413
1.5224173
1.5224074
1.5224009
1.5225022
1.5225606
1.5225501
1.5224971
1.5208691
1.52096
1.520988
1.5209231
1.5218933
1.5218959
1.5220224
1.5220142
1.5218467
1.5217638
1.5218423
1.5219606
1.5221676
1.5220014
1.5219737
1.5221568
1.5222527
1.5222366
1.522226
1.5222463
1.5223307
1.5223234
1.5223175
1.5223242
1.520975
1.5220987
1.5219858
1.5219702
1.522093
1.5209838
1.5219976
1.5219809
1.5220929
1.5221209
1.522323
1.5223103
1.5223434
1.5223533
1.52105
1.5210565
1.5209539
1.521011
1.5225956
1.5226528
1.5226385
1.5225848
1.5224924
1.5225074
1.5224963
1.5224779
1.5225232
1.5224914
1.5224747
1.5225038
1.5225792
1.5226281
1.5226583
1.5226084
1.5210477
1.5210491
1.5211206
1.5211246
1.5210874
1.5211924
1.521154
1.5212817
1.5210894
1.5212294
1.5226776
1.5227415
1.5227114
1.5226439
1.5225783
1.5226006
1.5225708
1.5225484
1.5225352
1.5225272
1.5225262
1.522544
1.5226378
1.5226869
1.5226888
1.5226351
1.5221812
1.5220644
1.5220373
1.5221585
1.5224128
1.5224274
1.5223972
1.5223879
1.5220195
1.5221206
1.5220167
1.5221381
1.5223587
1.5223705
1.52234
1.52236
1.5220386
1.5220508
1.5221693
1.522148
1.522268
1.5220999
1.5222237
1.5221608
1.5224464
1.5224702
1.5225054
1.5224947
1.5223677
1.5223809
1.5223873
1.5224015
1.5225697
1.5225572
1.52254
1.5225546
1.5226446
1.5226379
1.5226611
1.5226794
1.5228173
1.522792
1.5227443
1.5227635
1.5226961
1.5227104
1.5226654
1.5226416
1.5295013
1.5296295
1.5240329
1.5240341
1.5240311
1.52403
1.5240589
1.5240608
1.5240426
1.5240416
1.5240285
1.5240313
1.5240335
1.5240306
1.5240396
1.524059
1.5240608
1.5240419
1.5240807
1.5240817
1.5240753
1.5240656
1.5240546
1.5240657
1.5240415
1.5240432
1.5240602
1.5240591
1.5240501
1.5240405
1.5240287
1.5240397
1.5240269
1.5240199
1.5240078
1.5240155
1.5240433
1.5240417
1.5240579
1.5240598
1.5240796
1.5240813
1.5240061
1.5240084
1.5240152
1.5240128
1.5240148
1.5240353
1.5240425
1.524022
1.5240493
1.5240549
1.5240351
1.5240288
1.5240192
1.5240217
1.5240271
1.5240245
1.5240588
1.524065
1.5240366
1.5240217
1.5240275
1.524043
1.5240382
1.5240332
1.524049
1.524054
1.524076
1.5240708
1.524273
1.5242739
1.5242096
1.5242063
1.5253287
1.5251493
1.5244913
1.5251442
1.525158
1.5244976
1.5245518
1.5245777
1.5254887
1.5253836
1.5250874
1.5250583
1.5244695
1.5251021
1.5251255
1.5244817
1.5242725
1.5242685
1.5242106
1.5242112
1.5241399
1.5241423
1.524103
1.5241004
1.5240811
1.5240873
1.5240846
1.5240782
1.5240822
1.5240877
1.5240884
1.5240826
1.5241026
1.5241412
1.5241428
1.5241038
1.5249931
1.5249449
1.5243965
1.5244172
1.5241894
1.5242329
1.5241965
1.5242438
1.5244368
1.5250356
1.5250719
1.5244542
1.5242538
1.5242621
1.5242078
1.5242028
1.5240637
1.5240685
1.5240696
1.5240748
1.5240804
1.5241158
1.5240874
1.524124
1.5241314
1.5241372
1.5240992
1.5240938
1.5240805
1.524085
1.5240796
1.5240751
1.5244082
1.5238695
1.5239053
1.5238937
1.5238854
1.5238969
1.5238887
1.5238176
1.5237892
1.5237252
1.5238394
1.5239708
1.5239615
1.5239616
1.5239724
1.5239576
1.5239663
1.5239551
1.5239686
1.5239756
1.523979
1.5242076
1.5241654
1.524193
1.5242033
1.5241713
1.5243103
1.5246721
1.5247559
1.5243343
1.5243557
1.5248285
1.5248907
1.5243761
1.5242223
1.5242127
1.5241766
1.5241826
1.5241644
1.5243476
1.5241083
1.5242012
1.5241234
1.5240791
1.5241375
1.5240716
1.5244702
1.5242483
1.5245778
1.5242831
1.5241809
1.524164
1.5241451
1.524158
1.5240556
1.5240806
1.5240646
1.524047
1.5240926
1.5240892
1.5240685
1.5240687
1.5240452
1.5240611
1.5240589
1.5240442
1.5240607
1.5240632
1.5240616
1.5240589
1.5241077
1.5241014
1.5240693
1.5240738
1.5240974
1.5240951
1.5240677
1.5240676
1.5240625
1.5240586
1.5240549
1.5240583
1.5240576
1.5240592
1.5240562
1.5240544
1.5240009
1.5240025
1.5239984
1.5239965
1.5240082
1.5240253
1.524023
1.5240044
1.5239964
1.5239984
1.524002
1.5239998
1.5240045
1.5240242
1.5240285
1.5240082
1.5240367
1.5240363
1.524025
1.5240253
1.5240355
1.524036
1.5240292
1.5240282
1.5240313
1.5240178
1.5240214
1.524034
1.5240379
1.5240415
1.5240409
1.5240327
1.5240245
1.5240363
1.5240305
1.5240158
1.5240104
1.5240203
1.5240188
1.5240091
1.524057
1.5240695
1.5240913
1.524077
1.5240691
1.5240648
1.5240407
1.5240534
1.5240551
1.5240435
1.5240544
1.524051
1.5240444
1.5240497
1.5240435
1.524036
1.5240271
1.5240367
1.5240553
1.5240601
1.5240509
1.5240486
1.5240308
1.5240194
1.5240146
1.5240273
1.5240493
1.5240529
1.5240273
1.5240137
1.5240163
1.5240306
1.5244074
1.5242066
1.521558
1.52138
1.5215026
1.5218683
1.5235798
1.5236084
1.5242029
1.5264997
1.5238036
1.5243362
1.5266753
1.524447
1.524312
1.5235802
1.5237009
1.5285746
1.5282203
1.5279767
1.5283281
1.5252912
1.5231447
1.5267446
1.5276671
1.5274114
1.5280933
1.5284241
1.5293764
1.5296687
1.5241569
1.5242448
1.5242494
1.5241407
1.5258452
1.5257832
1.5249067
1.5248016
1.5295126
1.528548
1.5239862
1.5239803
1.5242588
1.5242926
1.5239618
1.5239679
1.5239668
1.5240146
1.523954
1.5239626
1.5239757
1.5242784
1.5240655
1.5240437
1.5239936
1.5239412
1.523936
1.5239498
1.5239452
1.524014
1.5239962
1.5239826
1.524001
1.5242897
1.5239651
1.5240143
1.5240262
1.5239728
1.5239311
1.5239329
1.523941
1.5239401
1.5239588
1.5239569
1.5239747
1.5239755
1.5239637
1.5239589
1.5239757
1.5239792
1.5239363
1.5239324
1.5239443
1.5239407
1.5242205
1.5242232
1.5241976
1.5242053
1.5241646
1.5241617
1.5241894
1.5241852
1.5240042
1.5239725
1.5239737
1.5240002
1.5239418
1.5239329
1.5239316
1.5239318
1.5239318
1.5239363
1.5239365
1.5239432
1.5239435
1.5239335
1.5239315
1.5239358
1.5239309
1.5239358
1.5239497
1.5239437
1.5239435
1.5239487
1.5239447
1.5239444
1.5239501
1.5239509
1.5241431
1.5241541
1.5242492
1.5242475
1.5240115
1.5240092
1.5239752
1.5239726
1.5239731
1.5240087
1.5239754
1.5240057
1.5239428
1.5239323
1.5239346
1.5239435
1.5239838
1.5239923
1.5239832
1.5239934
1.5239631
1.5239712
1.5239631
1.5239718
1.5239711
1.5239625
1.5239627
1.5239703
1.5239831
1.5239826
1.5239915
1.5239927
1.523965
1.5239708
1.5239633
1.5239715
1.5239631
1.5239623
1.5239702
1.5239704
1.5239977
1.5239834
1.5239827
1.5239949
1.5239845
1.5239871
1.5240156
1.5240072
1.5239308
1.5239354
1.5239315
1.5239353
1.5239484
1.523943
1.5239433
1.5239479
1.5239481
1.5239431
1.523944
1.5239483
1.523931
1.5239325
1.5239361
1.5239353
1.5240445
1.5240782
1.5240324
1.5240357
1.5241166
1.5241625
1.5242142
1.5242711
1.5241333
1.5239907
1.5240722
1.5240808
1.5241483
1.5240835
1.5240741
1.5241037
1.5241089
1.5240584
1.5240196
1.5240459
1.5240364
1.5240427
1.5240131
1.5239895
1.523998
1.5240213
1.5242487
1.5240665
1.5241072
1.5240878
1.5240424
1.5240706
1.5240728
1.5240489
1.5241017
1.5240742
1.5242018
1.5241016
1.5241071
1.524074
1.5240897
1.5294541
1.5243084
1.5241391
1.5241425
1.5243044
1.5295681
1.5240424
1.5240498
1.5240422
1.5240496
1.5241444
1.5240727
1.5240532
1.524044
1.5240527
1.5240438
1.5240724
1.5241527
1.5240721
1.524155
1.5257611
1.525745
1.5254652
1.5255736
1.5241558
1.5256291
1.5255525
1.5254888
1.5253766
1.5253413
1.5252989
1.5254576
1.525487
1.525392
1.5254804
1.5240668
1.5244701
1.5245897
1.5240987
1.5240364
1.5243152
1.5243691
1.524012
1.5242492
1.5241957
1.5241037
1.5247442
1.5245891
1.5240889
1.5240479
1.5240844
1.5240715
1.5243591
1.5244248
1.524146
1.5241305
1.5241132
1.5241287
1.5249019
1.5250738
1.5240416
1.5242709
1.5242157
1.524507
1.5243632
1.5240915
1.5241582
1.5241439
1.5240858
1.524136
1.524109
1.5243491
1.5241424
1.5241512
1.5243827
1.5247693
1.5247094
1.524118
1.5243253
1.5243303
1.5241314
1.5247225
1.52473
1.5247985
1.524814
1.5243353
1.5241508
1.5240918
1.5241158
1.5240672
1.5240629
1.5241291
1.5241192
1.5240976
1.5240826
1.5241085
1.5240743
1.5244175
1.5241599
1.524172
1.5244531
1.5244698
1.5241897
1.5242082
1.5244804
1.5244412
1.5245163
1.5245118
1.5246513
1.5245968
1.5248228
1.5241423
1.5247822
1.5249059
1.5247149
1.5244206
1.5245601
1.5243078
1.5241786
1.5248038
1.5253871
1.5248951
1.5247604
1.5248702
1.524695
1.5243757
1.5247673
1.524239
1.5250802
1.5251083
1.5250399
1.5249779
1.5241021
1.5241599
1.5245786
1.5244372
1.524353
1.524074
1.5240957
1.5243239
1.5247399
1.524772
1.5248208
1.524897
1.5242609
1.5241752
1.524112
1.5239836
1.5241013
1.5239875
1.5241188
1.5241311
1.5239962
1.5241359
1.5241382
1.5241278
1.524149
1.5242457
1.5241101
1.5240965
1.5240569
1.5240758
1.5240913
1.5240913
1.5240749
1.5242412
1.5242777
1.5240868
1.524119
1.524143
1.5243651
1.5243169
1.5245365
1.524591
1.5247791
1.5247356
1.5246554
1.5244498
1.5247015
1.5244952
1.5242304
1.5242465
1.5242397
1.5241068
1.5240624
1.5241424
1.5241773
1.5240643
1.5240683
1.5242089
1.5244098
1.5243665
1.5245668
1.5246149
1.5243222
1.5242743
1.5244584
1.5245193
1.5246283
1.5248204
1.5247992
1.524622
1.524787
1.5247592
1.5246318
1.524636
1.5243733
1.5243803
1.5243934
1.5243893
1.5247345
1.5247018
1.5246258
1.5246361
1.5246698
1.5246229
1.5245899
1.5246238
1.5244136
1.5244346
1.5244765
1.5244575
1.5244173
1.5240488
1.5240474
1.524156
1.5241294
1.5242628
1.5243121
1.5240539
1.5240809
1.5240735
1.5240593
1.5243602
1.5241908
1.5244092
1.5242305
1.5246381
1.5244673
1.5245215
1.5246202
1.5244973
1.52443
1.5243349
1.5243259
1.5244412
1.5245709
1.5245494
1.5245538
1.5245862
1.5243624
1.5243611
1.5243574
1.5243471
1.5240727
1.5240588
1.5240534
1.5241439
1.5240634
1.5240738
1.5241622
1.5241873
1.524091
1.5241082
1.5242201
1.5244047
1.5243343
1.5246111
1.5246342
1.5245097
1.5242334
1.5242767
1.5245741
1.5245518
1.5246138
1.524548
1.5244876
1.5246623
1.5242751
1.5242686
1.5242482
1.5243789
1.5240475
1.524029
1.5240279
1.5243718
1.5243012
1.5243303
1.5244019
1.5243627
1.5242584
1.5242471
1.5241785
1.5240377
1.5243093
1.5243447
1.5244164
1.5243356
1.5243783
1.5242935
1.5243813
1.5244112
1.5244407
1.5244163
1.5244999
1.5244814
1.5244667
1.5244435
1.5245203
1.5245589
1.5245704
1.5245328
1.5244512
1.5243718
1.5244081
1.5244881
1.5245245
1.5244449
1.5244869
1.5245689
1.5246373
1.5245949
1.5246031
1.5246392
1.5244548
1.5244995
1.5243752
1.5243131
1.5243535
1.5243677
1.5241812
1.5241739
1.5240288
1.5240418
1.5245912
1.5243015
1.5242471
1.5241889
1.5239759
1.5240955
1.5241033
1.5242507
1.5244191
1.5241988
1.5243841
1.5241247
1.5241109
1.5241109
1.5241229
1.5240708
1.5243564
1.524421
1.5242682
1.5241097
1.5241095
1.5241234
1.5241224
1.5240516
1.5240602
1.524105
1.5241058
1.5241207
1.5241187
1.5240235
1.5240305
1.5241226
1.5241081
1.524108
1.5241212
1.524038
1.5240432
1.5240016
1.523983
1.5239676
1.5240758
1.5239852
1.52393
1.5239374
1.5241268
1.5241081
1.5241099
1.5241249
1.5241487
1.5241649
1.5241114
1.5241107
1.524127
1.5241247
1.5244236
1.5243548
1.5244349
1.5242003
1.524091
1.5240973
1.5241257
1.5241329
1.5245172
1.5244703
1.5243798
1.5241208
1.5241054
1.5241015
1.5241277
1.5241245
1.5241283
1.5241408
1.5240387
1.5240383
1.5240403
1.5240403
1.524059
1.5240574
1.5240746
1.5240962
1.5240958
1.5251727
1.5253636
1.524124
1.5241167
1.5240967
1.5241078
1.5240948
1.5240772
1.5240679
1.5240833
1.5249056
1.5240674
1.5240576
1.5240739
1.5240527
1.5248593
1.524813
1.5247098
1.5247336
1.5240593
1.5247616
1.5240602
1.5240441
1.524043
1.5246491
1.5243849
1.5247073
1.5247087
1.5247113
1.5240376
1.5240423
1.5240674
1.5240671
1.5240669
1.5240423
1.5240512
1.5240714
1.5242502
1.52429
1.5240837
1.5240733
1.5241281
1.5241266
1.5242101
1.5245088
1.5245158
1.5245027
1.524066
1.5240557
1.5240759
1.5240825
1.5241989
1.52422
1.5222405
1.5222541
1.5220274
1.5220435
1.5226882
1.522776
1.522548
1.5224519
1.5224863
1.5224976
1.5222251
1.5222416
1.5226573
1.5227383
1.5229549
1.5230121