/*--------------------------------*- C++ -*----------------------------------*\
  =========                 |
  \\      /  F ield         | OpenFOAM: The Open Source CFD Toolbox
   \\    /   O peration     | Website:  https://openfoam.org
    \\  /    A nd           | Version:  7
     \\/     M anipulation  |
\*---------------------------------------------------------------------------*/
FoamFile
{
    version     2.0;
    format      ascii;
    class       volScalarField;
    location    "2000";
    object      nut;
}
// * * * * * * * * * * * * * * * * * * * * * * * * * * * * * * * * * * * * * //

dimensions      [0 2 -1 0 0 0 0];

internalField   nonuniform List<scalar> 
33733
(
2.3544945e-91
1.1110154e-91
2.4891109e-91
6.6604691e-92
8.805438e-92
2.3392068e-91
5.5896358e-92
8.2210614e-92
6.4662153e-92
5.9595769e-92
8.2829444e-92
6.4576379e-92
1.1289936e-91
7.0674965e-92
7.5027447e-92
8.3424827e-92
2.4467325e-91
6.2167837e-92
6.6897056e-92
1.4279347e-91
2.6569806e-91
3.8820369e-92
4.2160106e-92
4.4513292e-92
4.6222174e-92
1.8224081e-91
3.8536021e-92
9.1617751e-92
1.6024502e-91
3.8148142e-92
2.6810689e-92
2.6176902e-92
3.9518752e-92
5.8951266e-92
6.2935385e-92
7.0878816e-92
6.679185e-92
4.3843359e-92
5.1347478e-92
3.5268332e-92
3.9867371e-92
3.4449155e-92
1.9269513e-91
1.4369602e-91
6.2473628e-92
5.8556951e-92
6.0001288e-92
4.000803e-92
9.0857665e-92
9.9849273e-92
1.0571514e-91
5.4605188e-92
4.1055779e-92
5.5538348e-92
4.6882844e-92
4.6988141e-92
2.0664706e-91
1.9228379e-91
4.0387216e-92
2.5815683e-92
3.1086534e-92
2.7937024e-92
3.2034448e-92
4.4928976e-92
3.5843882e-92
8.5141325e-92
8.0897399e-92
5.7684881e-92
4.187874e-92
6.4783572e-92
8.3161456e-92
2.153032e-91
2.3306533e-91
1.9150924e-91
7.9032639e-92
8.2107102e-92
6.5458082e-92
1.0277777e-91
1.0453386e-91
6.833416e-92
4.3332758e-92
6.3449975e-92
1.4055407e-91
3.5066612e-92
4.5953732e-92
1.5580643e-92
2.0904e-92
4.6241093e-92
1.4492452e-92
1.3730055e-92
1.0701376e-92
1.5153786e-92
2.2545017e-92
2.3918232e-92
2.3623516e-92
2.4334707e-92
6.7501704e-92
1.2123065e-91
1.2437446e-91
1.2131197e-91
6.2012346e-92
7.7859773e-92
7.7184604e-92
5.5623718e-92
5.6196183e-92
6.0260946e-92
6.6302796e-92
5.7237894e-92
5.8441161e-92
6.2549111e-92
7.6836279e-92
5.2499652e-92
3.0427108e-92
5.2552551e-92
5.1528715e-92
2.9816853e-92
2.9957762e-92
4.9333832e-92
4.178511e-92
4.6224007e-92
2.929642e-92
1.8143109e-91
1.3996801e-91
6.5630426e-92
5.0236715e-92
8.9753671e-92
4.7899873e-92
1.1514738e-92
1.4513128e-92
1.6031613e-92
3.3365853e-92
1.9600467e-92
2.2097055e-92
1.3537573e-91
1.0814379e-91
2.7438243e-91
7.0904781e-92
5.7462379e-92
5.4202523e-92
4.4727665e-92
1.1402505e-91
1.386933e-91
2.1467437e-91
4.9478965e-92
5.0135909e-92
4.7951427e-92
5.0906739e-92
3.3707516e-92
7.4532116e-92
5.8882449e-92
2.7092527e-92
3.582204e-92
9.4210072e-92
5.0586621e-92
1.4010962e-91
3.5174815e-92
1.5810927e-92
3.9475905e-92
3.7604449e-92
1.4304562e-92
2.9273268e-92
2.7157153e-92
1.3333534e-92
1.5190676e-92
1.5522732e-92
1.3892514e-92
1.3322851e-92
1.603974e-92
2.3385907e-92
4.9312413e-92
2.7324981e-92
5.8930705e-92
1.3661038e-92
1.0411969e-92
1.6234186e-92
1.4500157e-92
2.9005109e-92
5.9083392e-92
3.8964235e-92
2.8357077e-92
5.4765627e-92
4.0447766e-92
4.0952621e-92
5.0621227e-92
1.7692914e-91
1.7520649e-91
2.005635e-91
2.397549e-91
9.9293475e-92
1.5171251e-91
7.8916521e-92
1.1047918e-91
3.9261028e-92
4.099961e-92
5.8017237e-92
6.1628546e-92
7.4899526e-92
4.4258198e-92
4.863738e-92
6.9577423e-92
1.3666562e-91
1.4051738e-91
1.5545922e-91
1.3318391e-91
1.5343692e-91
1.8224618e-91
1.505158e-91
1.220124e-91
1.1480703e-91
1.1221211e-91
8.5396261e-92
8.4118676e-92
9.9664568e-92
3.3426908e-92
3.3370601e-92
3.6064434e-92
2.9015031e-92
2.8881048e-92
3.3363167e-92
3.5881381e-92
3.010786e-92
3.4024733e-92
3.005237e-92
3.596267e-92
3.5236581e-92
3.3630689e-92
2.616427e-92
3.1730701e-92
3.1843703e-92
1.7383219e-91
3.2568824e-92
2.667753e-92
9.0282583e-93
5.7248738e-93
1.0163623e-92
6.3352936e-93
7.4456944e-93
7.6677082e-93
7.4292617e-93
6.8006254e-93
1.0483584e-92
1.4404786e-92
1.4459489e-92
9.2551275e-93
2.2408859e-92
3.144778e-92
4.1131066e-92
2.1015745e-92
3.0231006e-92
3.0172639e-92
2.4677639e-92
3.3876865e-92
6.6534745e-92
7.5384377e-92
8.3358047e-92
6.2775884e-92
8.3399435e-92
8.7670783e-92
1.0306354e-91
9.8245176e-92
7.8441358e-92
8.5142835e-92
8.8347527e-92
9.026988e-92
8.2685029e-92
7.8582791e-92
8.5715937e-92
6.3016649e-92
8.7627253e-92
8.2116004e-92
6.3634037e-92
7.4726769e-92
7.2673904e-92
3.3634617e-92
5.431211e-92
5.9654092e-92
5.3942749e-92
3.2908849e-92
5.1616861e-92
3.3686365e-92
5.9142403e-92
4.8919504e-92
3.1696575e-92
1.6209631e-91
2.1394188e-91
6.2284444e-92
6.5041303e-92
7.3216034e-92
7.5607261e-92
6.9432046e-92
6.8624373e-92
8.9689694e-92
8.8320243e-92
6.8634267e-92
7.1999098e-92
7.9317204e-92
7.5012085e-92
5.8540449e-92
7.1383461e-92
1.017064e-91
7.9621121e-92
6.8848563e-92
7.0243353e-92
5.3776663e-92
7.7918646e-92
7.9011977e-92
6.6219178e-92
6.29609e-92
7.0749282e-92
7.3453737e-92
7.9036482e-92
7.1419664e-92
8.1251912e-92
7.4268652e-92
6.5752453e-92
7.2279796e-92
7.8697242e-92
7.3175308e-92
2.8463e-92
1.8212542e-92
1.7293044e-92
2.6885755e-92
3.402936e-92
3.127836e-92
2.5024566e-92
2.4524319e-92
1.8255816e-92
1.8876934e-92
1.3570108e-92
1.2830749e-92
1.7668005e-92
1.2702948e-92
1.6794259e-92
1.2277313e-92
2.4397616e-92
2.5323119e-92
2.3775106e-92
2.5954463e-92
3.0749765e-92
2.837432e-92
2.3311395e-92
2.2807675e-92
1.7313379e-92
1.7206003e-92
1.2307343e-92
1.1786269e-92
1.8085055e-92
1.4230384e-92
1.6263758e-92
1.2322205e-92
1.2164924e-92
1.718387e-92
3.5218932e-92
3.51162e-92
3.0236672e-92
2.8734626e-92
2.6978135e-92
2.4372844e-92
4.0743931e-92
2.569498e-92
2.1918957e-92
2.2894849e-92
2.0491103e-92
2.5500919e-92
3.3887964e-92
2.9123873e-92
2.840601e-92
1.1575044e-92
8.4143845e-93
6.4989725e-93
6.7985121e-93
6.589448e-93
8.5506825e-93
1.8641264e-92
2.4443972e-92
2.6119545e-92
2.6501407e-92
3.4576642e-91
2.0675909e-91
7.344026e-92
3.3578987e-91
1.2163815e-91
1.3544006e-91
2.3425867e-91
1.2108105e-91
9.5118786e-92
6.2845792e-92
5.8487653e-92
3.2067421e-92
6.7363027e-92
2.9215438e-92
6.710228e-92
4.0147374e-92
3.9730859e-92
3.1169739e-91
8.9393654e-92
2.8300732e-91
7.1178294e-92
7.4641098e-92
9.0631792e-92
4.1844372e-92
4.3716767e-92
5.0363469e-92
4.7975162e-92
5.1115025e-92
5.4313234e-92
6.3502053e-92
7.1837706e-92
2.8068108e-92
2.2900559e-92
3.9690143e-92
1.4091017e-92
1.8957611e-92
9.4212464e-92
1.2074052e-92
1.4173186e-92
4.7081799e-92
1.7667981e-91
3.611735e-92
3.3070896e-92
3.855021e-92
1.1739675e-92
8.3782516e-93
7.5247279e-93
9.8784264e-93
7.7738585e-93
5.2220367e-93
5.5306928e-93
8.0058168e-93
1.1611354e-92
1.2295902e-92
1.0108649e-92
7.6978298e-93
2.1672086e-92
1.7633263e-92
1.4738335e-92
1.6243793e-92
1.2074426e-92
2.2638536e-92
1.0669486e-92
9.7661653e-93
2.6075248e-92
1.8225943e-92
6.6182475e-92
5.235541e-92
4.6085225e-92
3.5852708e-92
1.5876231e-92
1.6900777e-92
4.0840588e-92
3.5063755e-92
7.6433492e-92
6.9120159e-92
4.8066895e-92
4.9588974e-92
8.8065194e-93
6.9254028e-93
7.4665436e-93
4.4305897e-93
1.0846566e-92
8.2990945e-93
6.4752665e-93
8.4522904e-93
6.0418882e-93
8.0051626e-93
7.9017785e-93
7.460397e-93
1.502136e-92
2.2780374e-92
2.321281e-92
1.4450654e-92
2.3446222e-92
2.5924576e-92
2.6973916e-92
3.0357408e-92
3.0120807e-92
2.8029492e-92
2.2593581e-92
2.2013982e-92
2.6862118e-92
3.0940304e-92
3.2491618e-92
3.5046219e-92
3.5373663e-92
3.4863093e-92
4.5526041e-92
4.0784722e-92
1.0249556e-91
1.0471256e-91
1.3054291e-91
1.6269957e-91
6.702108e-92
7.1443366e-92
1.2834518e-91
1.3332975e-91
1.0098505e-91
1.2525939e-91
6.8242883e-92
8.4579155e-92
1.0630852e-91
1.1032378e-91
7.5787957e-92
7.7780978e-92
4.3746733e-92
9.8986804e-92
4.7501564e-92
9.2900015e-92
1.2814609e-91
7.7380188e-92
6.1019522e-92
9.8875685e-92
3.141264e-92
3.0364634e-92
7.2706791e-92
6.8768739e-92
9.7304836e-92
9.6974011e-92
6.2882022e-92
6.0520171e-92
2.8064304e-92
4.2974015e-92
4.0218134e-92
3.3094567e-92
2.5416778e-92
4.5324453e-92
2.030868e-92
6.8617149e-93
3.6089592e-92
4.762805e-92
4.7458619e-92
3.1836917e-92
4.9911544e-92
4.6503523e-92
3.0344938e-92
3.6920198e-92
4.6787501e-92
3.5773503e-92
5.7315164e-92
5.3705205e-92
4.4298919e-92
4.961427e-92
5.6642256e-92
6.3185948e-92
3.3289644e-92
3.0442619e-92
2.7465657e-92
2.869051e-92
2.4788148e-92
2.7339978e-92
2.8033749e-92
3.1370077e-92
3.1103997e-92
2.8865239e-92
2.7881902e-92
2.8822246e-92
4.9804115e-92
5.7859042e-92
4.8506048e-92
4.3134924e-92
4.4005787e-92
5.0384061e-92
3.9786858e-92
3.6169365e-92
2.6313305e-92
2.9729599e-92
2.8835432e-92
2.5492579e-92
2.3086841e-92
2.2318692e-92
2.2556461e-92
2.3537264e-92
2.2414935e-92
2.1030535e-92
2.0621887e-92
2.1957856e-92
1.7867414e-92
1.7591207e-92
5.1097043e-92
5.7072514e-92
1.701997e-92
1.6475354e-92
3.9569824e-92
1.8349101e-92
1.8862618e-92
1.9569958e-92
2.205072e-92
2.1995674e-92
6.4922223e-92
7.0998627e-92
8.2391115e-92
7.8970882e-92
1.8970115e-92
1.7845768e-92
3.3233129e-92
6.7920816e-92
6.592787e-92
5.3532021e-92
5.909898e-92
1.9147411e-91
2.0222451e-92
1.5084636e-92
3.0874914e-92
4.9167575e-93
4.0456236e-93
3.1896254e-93
4.2795474e-93
9.8232036e-93
7.6521109e-93
1.6943632e-92
2.2449774e-92
3.0784743e-92
3.2944556e-92
4.4102568e-92
4.2124399e-92
8.6756646e-92
7.8209655e-92
6.8403107e-92
5.8615323e-92
6.4198727e-92
6.936171e-92
7.1545232e-92
6.9973267e-92
7.0633482e-92
6.1352222e-92
6.8923813e-92
8.6799865e-92
7.8413319e-92
6.8783389e-92
6.9086299e-92
7.5664907e-92
6.2910078e-92
5.1584401e-92
5.335082e-92
6.1153528e-92
5.8782876e-92
5.0722032e-92
5.1101548e-92
5.8856503e-92
5.9531472e-92
7.4335998e-92
7.5722652e-92
7.7142233e-92
7.6019287e-92
7.3213457e-92
7.4862956e-92
8.0749334e-92
7.759196e-92
4.1628034e-92
4.3565353e-92
4.793151e-92
5.0566412e-92
4.8445136e-92
5.024466e-92
5.610488e-92
5.8742535e-92
6.0569169e-92
6.2611563e-92
6.7810149e-92
6.6656165e-92
7.0532282e-92
7.0417484e-92
7.5376066e-92
7.1978492e-92
4.7494736e-92
4.9340034e-92
6.6722475e-92
5.7551857e-92
5.6107022e-92
4.501825e-92
4.51627e-92
6.1989262e-92
5.2001548e-92
5.3492721e-92
6.6167166e-92
6.7109775e-92
6.8925463e-92
7.2226414e-92
7.4000958e-92
5.0759856e-92
5.2667703e-92
7.3290835e-92
6.0681859e-92
5.9571417e-92
4.7697855e-92
4.6967779e-92
6.4802941e-92
5.3658689e-92
5.6301416e-92
9.5005148e-92
9.0397752e-92
1.1991083e-91
7.2831526e-92
6.8696443e-92
8.0302857e-92
7.4610177e-92
7.5346001e-92
6.6695102e-92
7.1874004e-92
2.8767142e-92
3.1882842e-92
3.8044635e-92
2.663222e-92
1.7416465e-92
2.4197498e-92
2.1761646e-92
1.5405636e-92
1.5303921e-92
1.4631272e-92
2.0608568e-92
2.1605758e-92
1.4538765e-92
1.7223141e-92
2.9119735e-92
2.7334421e-92
2.7533393e-92
2.8267196e-92
3.079979e-92
2.6076714e-92
1.6767422e-92
1.6694862e-92
3.4859454e-92
3.2970224e-92
2.8776493e-92
3.2496425e-92
3.3076617e-92
2.6697263e-92
2.0469157e-92
1.4555396e-92
2.2606513e-92
1.4227299e-92
2.0086696e-92
1.793735e-92
1.4317627e-92
1.4267311e-92
3.0462645e-92
3.3959843e-92
2.8211638e-92
2.7602518e-92
3.3342487e-92
3.914705e-92
3.4503839e-92
3.8570489e-92
3.7275757e-92
3.2560196e-92
3.815765e-92
4.2276062e-92
3.7561307e-92
3.3722028e-92
3.3275968e-92
3.4471257e-92
3.3293344e-92
3.2130225e-92
3.5392092e-92
3.7040746e-92
3.6021618e-92
3.2870251e-92
2.9011336e-92
3.2907399e-92
3.1218901e-92
2.607982e-92
3.4287794e-92
3.9287299e-92
3.3768595e-92
2.920781e-92
3.5210226e-92
3.6426496e-92
3.0902202e-92
2.9920294e-92
3.0427435e-92
3.2982698e-92
3.0166718e-92
2.828553e-92
2.6729367e-92
2.7565211e-92
2.8725739e-92
2.7748057e-92
2.8030414e-92
2.8823996e-92
3.0200656e-92
2.8790694e-92
3.3186121e-92
2.9190646e-92
2.8012672e-92
3.1502634e-92
3.0476379e-92
3.1566063e-92
2.7467091e-92
2.6405082e-92
2.9894522e-92
2.8243551e-92
2.962157e-92
2.9290719e-92
2.6164503e-92
2.7513635e-92
2.9649689e-92
2.7652704e-92
2.9676023e-92
3.3151539e-92
3.0303002e-92
2.6261977e-92
2.8785305e-92
3.2959474e-92
3.3548181e-92
2.9209822e-92
3.5483262e-92
4.0674099e-92
3.9448967e-92
3.5448185e-92
1.8063565e-91
1.8363394e-91
3.9386313e-92
4.0690597e-92
3.6461393e-92
3.4995838e-92
1.0628787e-91
3.5456695e-92
3.5964067e-92
3.5004565e-92
3.368401e-92
3.6024459e-92
3.5511172e-92
3.7236251e-92
3.4629004e-92
3.7813325e-92
4.1352381e-92
3.8288117e-92
3.4726675e-92
3.8943404e-92
3.9132389e-92
3.4550229e-92
3.4882149e-92
3.7076928e-92
3.5028863e-92
3.3948663e-92
3.4478684e-92
3.6275899e-92
3.6317368e-92
3.5274443e-92
3.361626e-92
3.3382389e-92
2.9936009e-92
2.9511652e-92
2.9953595e-92
2.800032e-92
2.9994177e-92
2.9552818e-92
2.9154079e-92
3.2688567e-92
3.4164442e-92
2.8271659e-92
2.8504137e-92
3.112669e-92
2.8161279e-92
2.9224843e-92
3.2995922e-92
3.0011528e-92
2.7556158e-92
3.0725166e-92
2.8503347e-92
2.9232322e-92
2.7862106e-92
2.9970253e-92
2.8831037e-92
3.1926491e-92
2.8683864e-92
2.8686822e-92
3.1961181e-92
3.1388199e-92
2.7752576e-92
2.8828224e-92
3.2682385e-92
2.0195561e-92
8.1234756e-93
5.6781265e-93
5.7974967e-93
8.2647459e-93
5.4580522e-93
5.4103131e-93
8.3829427e-93
8.6768966e-93
1.7985735e-92
2.3989848e-92
2.8186567e-92
2.7548483e-92
2.9203641e-92
2.6777628e-92
2.6362749e-92
3.0637535e-92
2.9496948e-92
2.7036658e-92
2.71353e-92
2.5361045e-92
2.4974058e-92
2.3683687e-92
2.3044909e-92
2.4457683e-92
2.2478725e-92
1.1446834e-92
1.0363577e-92
1.3606305e-92
1.0284969e-92
9.2039739e-93
1.3190528e-92
1.0905295e-92
1.2519451e-92
1.2691828e-92
1.3199283e-92
1.3161816e-92
1.2930643e-92
1.2554362e-92
1.2032176e-92
1.2456363e-92
1.2273612e-92
1.2518473e-92
1.0356902e-92
9.5185978e-93
9.820053e-93
1.1259052e-92
1.0564779e-92
1.1045844e-92
1.1205856e-92
1.2777104e-92
1.0238729e-92
8.7849498e-93
7.7387623e-93
1.1234759e-92
1.0186699e-92
1.1058982e-92
1.1184621e-92
2.5789009e-92
2.9596354e-92
2.6552007e-92
2.3855918e-92
2.9007663e-92
2.5076171e-92
2.3414446e-92
2.6364444e-92
2.6457089e-92
3.1498208e-92
2.751925e-92
2.4293749e-92
2.8996622e-92
2.4619746e-92
2.2467403e-92
2.5454246e-92
2.3346876e-92
2.7123385e-92
2.7638637e-92
2.8843441e-92
2.5654452e-92
2.5623125e-92
2.993709e-92
2.806181e-92
2.4053535e-92
2.2458113e-92
2.240323e-92
2.2097418e-92
2.4531153e-92
2.4405225e-92
2.3042017e-92
2.276784e-92
5.8447584e-93
1.0889862e-92
1.1208456e-92
9.0853071e-93
8.5535922e-93
5.7382591e-93
1.170215e-92
1.1905867e-92
9.3078007e-93
8.7951827e-93
1.156096e-92
1.1539902e-92
1.1830023e-92
1.1748377e-92
1.1519044e-92
1.1179217e-92
1.1286102e-92
1.1504885e-92
7.7896654e-93
8.1105854e-93
5.7150861e-93
7.6547438e-93
9.1307141e-93
8.3578248e-93
7.745004e-93
5.5621926e-93
1.126844e-92
9.9824473e-93
8.3063068e-93
8.5706577e-93
1.1114945e-92
1.0502794e-92
1.115374e-92
1.1816573e-92
1.355263e-92
1.2041028e-92
1.224101e-92
1.46441e-92
8.6331775e-93
9.3503218e-93
2.6795053e-92
2.567988e-92
3.0043381e-92
3.1862529e-92
2.3738459e-92
2.320543e-92
2.9379827e-92
2.8701056e-92
3.5281763e-92
3.0566228e-92
2.7729654e-92
3.1961327e-92
2.7439519e-92
2.6568959e-92
2.5072295e-92
2.5124937e-92
5.109418e-92
4.1745643e-93
5.1279646e-93
3.7662632e-91
2.682973e-91
9.3451719e-92
2.0271563e-91
6.1690509e-92
1.176849e-91
6.7418574e-92
1.2636153e-91
6.46155e-92
6.9706455e-92
2.2224896e-91
1.0541613e-91
1.0056226e-91
1.272082e-91
1.15556e-91
2.2480301e-91
3.4515932e-91
3.1796714e-91
2.8589317e-92
2.0964959e-92
4.8020198e-92
4.8987733e-92
8.0706406e-92
4.6178921e-92
4.2844527e-92
2.5565258e-92
2.6282941e-92
7.1017341e-92
6.6828403e-92
5.5782661e-92
5.7066426e-92
7.0018226e-92
2.9685553e-92
2.9785192e-92
3.2618594e-92
3.302621e-92
1.2867976e-91
1.2016005e-91
7.0903294e-92
9.3807331e-92
6.069378e-92
5.5599209e-92
6.0944373e-92
3.3678727e-91
1.0871457e-91
1.0600323e-91
9.2700578e-92
4.8871856e-92
5.7198894e-92
5.032327e-92
4.4309805e-92
5.6576991e-92
6.1849119e-92
5.8070407e-92
5.2620229e-92
7.180149e-92
6.5552487e-92
5.9345371e-92
6.4547936e-92
2.1389703e-92
2.0561457e-92
2.5388667e-92
1.7156452e-92
2.5162597e-92
2.2836431e-92
2.6028895e-92
2.3084745e-92
1.2114152e-91
1.0447572e-91
3.0238702e-92
1.2912993e-92
2.3418203e-92
1.1651233e-92
1.3677184e-92
1.8781371e-92
1.8981341e-92
3.9573188e-92
1.3648665e-92
1.2085489e-92
1.3085607e-92
1.7993305e-92
1.8122992e-92
1.4710848e-92
1.8714391e-92
8.7700486e-92
1.2972716e-92
1.4110098e-92
5.3257023e-92
2.6643814e-92
9.6109627e-92
1.9808681e-91
2.3278898e-92
1.9912374e-92
3.7123027e-92
2.1867274e-92
7.8981853e-93
1.2511006e-92
1.9313058e-92
1.0387764e-92
4.3412535e-93
3.5048001e-93
3.9310635e-93
4.562938e-93
4.0128881e-93
2.8097899e-93
3.8792291e-93
3.0272693e-93
1.097101e-92
1.5632986e-92
2.2721708e-92
1.9164567e-92
8.0521478e-93
1.4498791e-92
9.6397857e-93
2.1683036e-92
6.3098061e-93
4.8037889e-93
1.067691e-92
9.5111166e-93
1.707636e-92
1.6301525e-92
1.0352195e-92
2.3144011e-92
1.1891952e-92
1.178257e-92
2.3214576e-92
1.4389597e-92
8.5900918e-93
1.7854614e-92
1.004894e-92
2.1272308e-92
3.748427e-92
3.0061668e-92
1.7804914e-92
2.0268357e-92
1.7889139e-92
1.4985842e-92
2.3046599e-92
2.8919586e-92
1.7066224e-92
1.691234e-92
3.2373643e-92
1.0875879e-92
1.3817941e-92
1.602161e-92
1.135551e-92
1.0451843e-92
1.9675986e-92
1.6864512e-92
1.2671577e-92
1.5121705e-92
1.5778159e-92
1.8659045e-92
1.6004858e-92
2.7200082e-92
2.3202245e-92
3.0693923e-92
3.7001257e-92
2.7708517e-92
1.5720872e-92
2.8647991e-92
1.840254e-92
2.1796952e-92
3.7713056e-92
3.3219516e-92
2.0052951e-92
2.2572068e-92
3.7222162e-92
3.0281732e-92
1.9117442e-92
1.6755827e-92
1.7315817e-92
2.879633e-92
1.6519285e-92
2.9169934e-92
1.7775916e-92
1.5955487e-92
2.6689511e-92
4.5498102e-93
3.1024744e-93
3.9418262e-93
4.0149022e-93
3.3665335e-93
7.8400062e-93
9.932442e-93
7.3987357e-93
5.815851e-93
9.6385266e-93
7.9395862e-93
7.2642527e-93
9.2149924e-93
1.8863568e-93
3.4251864e-93
2.6506736e-93
4.7004487e-93
5.7788507e-93
4.036517e-93
5.5954336e-93
4.920185e-93
2.5110478e-93
2.8728716e-93
4.375485e-93
5.2252156e-93
8.7950909e-93
4.3695297e-93
9.8846822e-93
8.3055467e-93
1.5324474e-92
1.0469331e-92
8.6394814e-93
1.2862466e-92
1.5527208e-92
1.9891775e-92
1.9286966e-92
1.4167435e-92
1.3003682e-92
1.165898e-92
1.6579169e-92
1.7288603e-92
1.3774646e-92
9.4732418e-93
7.8255042e-93
9.685783e-93
3.3047044e-92
5.2351702e-92
3.6530644e-92
5.1048643e-92
2.6971158e-92
2.6445543e-92
2.740217e-92
4.1462523e-92
3.9425155e-92
3.0957199e-92
2.763276e-92
3.3088282e-92
3.8156091e-92
3.1937692e-92
2.8363138e-92
3.7583553e-92
3.7181737e-92
2.2283751e-92
2.4677843e-92
3.3947966e-92
3.317627e-92
2.5735125e-92
3.6451216e-92
3.7111056e-92
5.1036475e-92
4.6916597e-92
3.6418088e-92
3.9432776e-92
2.9496616e-92
4.8030348e-92
5.5434452e-92
3.7987083e-92
3.0621131e-92
2.5824459e-92
2.9561398e-92
3.1762604e-92
4.414271e-92
2.9380423e-92
3.7790414e-92
3.2631649e-92
3.4506455e-92
2.5818724e-92
3.2723685e-92
4.4500551e-92
3.1945542e-92
2.8238377e-92
3.8866334e-92
3.8978277e-92
4.8191098e-92
3.333881e-92
2.8219746e-92
4.4301681e-92
5.0847289e-92
3.5026907e-92
3.1570633e-92
1.9201237e-92
2.0117818e-92
2.324887e-92
2.1983022e-92
2.2281451e-92
2.4190013e-92
2.2875802e-92
2.0988063e-92
1.7279636e-92
1.5770779e-92
4.41894e-92
5.0913278e-92
5.4143127e-92
1.8112975e-92
4.6666973e-92
1.6626414e-92
2.1402759e-92
2.5412838e-92
2.3107516e-92
1.9828214e-92
2.4007791e-92
2.6018187e-92
2.2730319e-92
2.1395085e-92
1.6083289e-92
1.89855e-92
4.7343244e-92
4.0812376e-92
1.8286449e-92
2.0394331e-92
3.2395869e-92
4.4211045e-92
2.7318754e-92
2.5793396e-92
2.9760015e-92
2.7541615e-92
4.2135754e-92
4.5103201e-92
4.0759592e-92
3.6210392e-92
3.2606065e-92
3.1945969e-92
2.7235103e-92
2.4181237e-92
3.8785712e-92
5.0431945e-92
3.0750269e-92
4.0446437e-92
2.485226e-92
3.482021e-92
2.8900424e-92
2.2531729e-92
3.8509106e-92
1.8822333e-92
1.6454939e-92
3.2849924e-92
4.3710827e-92
1.838386e-92
1.5962414e-92
2.5080213e-92
2.3009375e-92
2.8460343e-92
1.9089048e-92
2.3209345e-92
2.0326449e-92
1.6567014e-92
8.6300766e-93
2.0762928e-92
2.0544047e-92
2.3028534e-92
2.6625964e-92
2.0094665e-92
3.9198224e-92
2.955362e-92
2.3791379e-92
3.3938265e-92
3.8835573e-92
3.3049661e-92
3.0651526e-92
3.1907401e-92
2.9783356e-92
3.5042405e-92
2.5134928e-92
2.1158993e-92
2.380111e-92
3.61177e-92
3.1757243e-92
2.2584231e-92
1.6594385e-92
1.989522e-92
3.2248808e-92
2.8625273e-92
1.7918638e-92
1.7836182e-92
1.7954822e-92
2.9104885e-92
3.1427444e-92
3.1544871e-92
2.5014753e-92
1.9264918e-92
1.9120459e-92
3.6815094e-92
2.2281824e-92
3.6271448e-92
3.6952378e-92
3.8362728e-92
4.0821339e-92
2.5281047e-92
2.141327e-92
5.5420597e-92
4.9966885e-92
4.6647449e-92
4.5477578e-92
5.3514808e-92
4.3423162e-92
3.9463096e-92
3.4451281e-92
2.5163844e-92
2.7563797e-92
2.3818534e-92
2.9121544e-92
2.5385545e-92
3.2764339e-92
2.776807e-92
2.5481397e-92
2.2430479e-92
2.374343e-92
4.5814858e-92
4.9429075e-92
4.7907704e-92
4.0008444e-92
3.8789748e-92
4.8134204e-92
4.3203302e-92
3.3238965e-92
2.2970671e-92
2.4844784e-92
2.2904605e-92
2.1590821e-92
2.4083053e-92
2.3040988e-92
2.6689346e-92
2.8305548e-92
1.837767e-92
2.7054101e-92
2.5970388e-92
3.3664435e-92
3.4236205e-92
2.9123443e-92
2.946469e-92
4.4863376e-92
1.4527992e-92
2.0337945e-92
1.3827873e-92
2.6872332e-92
2.9634987e-92
2.4536071e-92
3.4133025e-92
2.6096568e-92
8.4690491e-92
1.4418055e-92
2.7969454e-92
8.7239256e-92
1.6600504e-92
1.9349037e-92
8.9206436e-92
1.6717183e-92
1.8456871e-92
8.7729992e-92
1.6128708e-92
1.8539566e-92
1.7209749e-92
1.8578822e-92
2.0389969e-92
1.8565585e-92
2.7899124e-92
2.8429251e-92
1.0688571e-92
7.9439837e-92
1.8387598e-92
1.6450525e-92
8.1355722e-92
4.3935979e-92
1.5342024e-92
6.9486268e-92
3.7048889e-92
1.4438402e-92
7.6830522e-92
1.8414663e-92
1.525835e-92
1.5644704e-92
1.8448829e-92
1.5534832e-92
1.5187994e-92
5.0643101e-93
6.8731129e-93
9.3836894e-93
4.2753967e-93
5.2335451e-93
1.6901401e-92
1.2721635e-92
1.5570658e-92
3.2001534e-92
1.5597659e-92
1.6347449e-92
9.6177e-93
1.9799794e-92
4.6961003e-92
4.3358781e-93
1.7014253e-92
5.2268481e-92
5.7396621e-92
1.2442554e-92
2.0784509e-92
6.4941056e-92
1.3096523e-92
2.1332645e-92
6.380442e-92
1.2917655e-92
1.5937305e-92
7.0234663e-92
7.6442731e-92
4.9103173e-92
5.1190949e-92
5.9177476e-92
5.7305449e-92
3.8122701e-92
3.8373349e-92
3.6177021e-92
3.6945156e-92
3.4204036e-92
3.2777237e-92
3.0136468e-92
3.1918109e-92
3.1566454e-92
3.3782245e-92
3.6298872e-92
3.3086092e-92
4.1901156e-92
3.9809998e-92
3.6581924e-92
3.7645896e-92
2.6299299e-92
3.0778834e-92
3.2174568e-92
2.7394926e-92
2.8624727e-92
2.8523589e-92
3.0280549e-92
2.9757095e-92
2.9693909e-92
3.1988882e-92
3.1119296e-92
3.1227549e-92
3.0239605e-92
3.2838064e-92
3.4672963e-92
3.0167108e-92
2.971781e-92
3.1723326e-92
3.1455511e-92
3.2118371e-92
3.1082885e-92
2.9503017e-92
2.9807701e-92
3.158601e-92
3.0966045e-92
3.3401866e-92
3.4588331e-92
3.0937025e-92
3.1677738e-92
3.3612184e-92
3.7258245e-92
3.2617374e-92
4.111274e-92
4.43371e-92
4.3163472e-92
3.9494452e-92
3.7194846e-92
3.7867433e-92
3.7944084e-92
3.6517594e-92
3.9192324e-92
3.7514169e-92
3.6492609e-92
3.8355203e-92
3.8740972e-92
4.1640371e-92
4.4425946e-92
4.0583613e-92
2.0680288e-91
2.0550135e-91
1.364434e-91
1.3591807e-91
1.4739179e-91
1.4896053e-91
2.2095915e-91
2.2247403e-91
1.1852367e-91
1.1583106e-91
2.0710537e-91
2.0670354e-91
1.3817718e-91
1.3887912e-91
1.3771063e-91
1.3981975e-91
2.0757902e-91
2.1055898e-91
1.2037809e-91
1.1612552e-91
1.2214587e-91
1.2155313e-91
1.0023105e-91
1.0134087e-91
1.0553069e-91
8.3159884e-92
8.2368504e-92
1.0536872e-91
1.0271835e-91
1.2200111e-91
1.0341828e-91
1.21796e-91
1.0493954e-91
8.2430728e-92
1.0565346e-91
8.1687106e-92
1.2062097e-91
1.1988583e-91
1.0118237e-91
9.9432219e-92
1.0357641e-91
8.2938416e-92
8.1097505e-92
1.0472988e-91
1.2430486e-91
1.2341702e-91
1.0675518e-91
1.0830495e-91
1.0947571e-91
1.0897774e-91
8.6737329e-92
8.5933864e-92
1.6544729e-91
1.6662315e-91
1.0744444e-91
1.1034967e-91
1.2335132e-91
1.2555382e-91
1.8808983e-91
1.9284252e-91
9.9759147e-92
1.0934072e-91
2.0280371e-91
2.0506792e-91
1.3609957e-91
1.3742587e-91
1.374639e-91
1.3896066e-91
2.0634707e-91
2.0791173e-91
1.1143234e-91
1.1679141e-91
7.9736502e-92
9.7465887e-92
8.0338265e-92
9.724372e-92
8.3372681e-92
8.4383675e-92
6.5938531e-92
6.5478789e-92
8.9816026e-92
1.0650883e-91
8.9653893e-92
1.0704101e-91
7.1197526e-92
9.1147427e-92
9.2736384e-92
7.1185773e-92
9.6125973e-92
1.1571918e-91
9.7115168e-92
1.1501518e-91
7.8360131e-92
9.9403773e-92
9.8437769e-92
7.6687167e-92
9.9707163e-92
1.1869834e-91
1.0159782e-91
1.1689106e-91
8.0955276e-92
1.0292034e-91
1.0206024e-91
7.925418e-92
1.9197925e-91
1.9369117e-91
1.3175282e-91
1.3195406e-91
1.3349403e-91
1.3455016e-91
1.9643401e-91
2.0134055e-91
3.7936305e-92
4.0986719e-92
4.3381804e-92
3.8116552e-92
1.1452676e-91
1.1447363e-91
1.9008803e-91
1.9026655e-91
1.2545996e-91
1.2729207e-91
1.2862431e-91
1.2920104e-91
1.9445018e-91
1.9756217e-91
3.5438014e-92
3.9737449e-92
3.8462478e-92
3.4534345e-92
1.1345497e-91
1.0771409e-91
9.2000151e-92
1.1250449e-91
9.2654987e-92
1.1210606e-91
9.5854548e-92
7.5160455e-92
7.460637e-92
9.5913214e-92
9.4027388e-92
1.1271512e-91
9.4599943e-92
1.1222882e-91
3.4922294e-92
3.6842455e-92
3.5551843e-92
3.3371126e-92
3.7843943e-92
3.83167e-92
3.6468306e-92
3.7291915e-92
2.0114838e-91
1.9257754e-91
1.37775e-91
1.344275e-91
1.4545641e-91
1.4625452e-91
2.1657774e-91
2.18062e-91
4.1363904e-92
4.4645066e-92
4.7075369e-92
4.1225695e-92
1.2444554e-91
1.1776713e-91
1.9368564e-91
1.9465953e-91
1.3035383e-91
1.3098923e-91
1.3080166e-91
1.3058583e-91
1.9439211e-91
1.9670303e-91
3.8098863e-92
4.2461051e-92
4.017201e-92
3.6200913e-92
1.1169866e-91
1.0898821e-91
3.8861517e-92
4.001992e-92
3.8065657e-92
3.637441e-92
4.171716e-92
4.2393708e-92
4.012946e-92
4.0873284e-92
3.348728e-92
4.0965879e-92
3.7668677e-92
3.2144751e-92
3.6092115e-92
3.0851118e-92
3.028368e-92
3.1432616e-92
3.2699921e-92
3.2425473e-92
3.4299675e-92
3.3970926e-92
3.4595628e-92
3.8280264e-92
3.8239046e-92
3.4100487e-92
2.901858e-92
3.3633685e-92
3.2655129e-92
2.8170579e-92
3.1022259e-92
3.0276797e-92
3.0412202e-92
3.0108927e-92
2.8675704e-92
3.1616693e-92
3.0643188e-92
3.0874934e-92
3.0082388e-92
3.2298914e-92
3.3592742e-92
2.971455e-92
2.3746731e-92
2.9081628e-92
2.9552035e-92
2.510825e-92
3.2662318e-92
2.6883222e-92
2.7973842e-92
2.8174052e-92
2.5526028e-92
2.8733667e-92
2.8706597e-92
3.0353017e-92
2.5483556e-92
2.4652312e-92
2.7024228e-92
2.4397896e-92
5.9785892e-93
8.6272853e-93
8.6140722e-93
6.0214194e-93
1.3483929e-92
1.2630416e-92
1.205031e-92
1.178314e-92
1.6569889e-92
1.0642959e-92
1.3056031e-92
1.2965288e-92
1.3577923e-92
1.2691328e-92
1.343352e-92
1.3686488e-92
1.4668285e-92
1.3606949e-92
1.4567515e-92
1.3978922e-92
1.3355919e-92
1.2787266e-92
1.2855522e-92
1.271854e-92
5.7240472e-93
1.1335117e-92
1.3775622e-92
1.5143385e-92
1.1920756e-92
5.678584e-93
1.25705e-92
1.0843156e-92
1.2695536e-92
1.198722e-92
1.3053053e-92
1.200477e-92
1.2992714e-92
1.3077073e-92
9.0725619e-93
9.0721086e-93
1.9026939e-92
1.7449251e-92
2.6688046e-92
2.9752356e-92
2.8803561e-92
2.5922308e-92
2.6311834e-92
2.2294378e-92
2.3347497e-92
2.6815154e-92
2.5128006e-92
2.5696642e-92
2.8058257e-92
2.7364525e-92
2.6666631e-92
2.8011092e-92
2.7963324e-92
2.5632072e-92
5.7891663e-93
5.7922254e-93
8.2390463e-93
8.2863256e-93
5.559595e-93
5.5415857e-93
9.260092e-93
9.3022352e-93
1.7201232e-92
1.3758437e-92
2.4908871e-92
3.0025182e-92
2.6280907e-92
2.4989901e-92
3.2958417e-92
2.6176989e-92
2.989028e-92
2.7661309e-92
2.5183702e-92
2.8891465e-92
3.2885442e-92
2.4386514e-92
2.5433243e-92
2.5755592e-92
2.753899e-92
2.2552867e-92
1.0709488e-92
1.2834265e-92
1.4459071e-92
1.1102133e-92
1.2130156e-92
1.247968e-92
1.3078274e-92
1.2482636e-92
1.3612646e-92
1.1349518e-92
1.0066639e-92
1.2314093e-92
1.1842675e-92
1.2382176e-92
1.236788e-92
1.2181641e-92
1.4082691e-92
1.3414017e-92
1.2568459e-92
1.2392647e-92
9.8383345e-93
1.2728944e-92
1.2156397e-92
1.0277603e-92
1.2357288e-92
1.3110166e-92
1.3987273e-92
1.2961703e-92
1.2665508e-92
1.2977731e-92
1.2338558e-92
1.2751304e-92
2.5593668e-92
2.9817616e-92
3.0591152e-92
2.5938699e-92
2.6678221e-92
3.1394019e-92
3.0371965e-92
2.7006168e-92
3.1571142e-92
3.1109281e-92
2.846271e-92
2.7645666e-92
2.9503391e-92
2.937995e-92
2.748645e-92
2.6762451e-92
3.6646125e-92
4.5672304e-92
1.2347382e-91
1.1476248e-91
1.1340578e-91
1.1924452e-91
1.3210755e-91
1.2073602e-91
1.1283326e-91
1.1919261e-91
9.7024113e-92
9.7839521e-92
1.0131445e-91
1.0028831e-91
1.0187553e-91
1.0251553e-91
1.07182e-91
1.0181323e-91
8.9616951e-92
8.6948753e-92
1.6292985e-92
1.8592791e-92
2.2130589e-92
1.9534016e-92
1.1361475e-91
1.0979678e-91
9.4517933e-92
9.9392095e-92
1.9626201e-92
2.2475715e-92
2.6951308e-92
2.3941765e-92
2.2852877e-92
2.4125459e-92
2.8387525e-92
2.7497205e-92
1.0151462e-91
1.0015953e-91
8.2439575e-92
8.5575446e-92
8.3087004e-92
7.9688027e-92
6.2236251e-92
6.2744047e-92
6.8144509e-92
6.7424731e-92
6.365187e-92
6.677895e-92
7.2363231e-92
6.9006283e-92
8.5165762e-92
8.7478856e-92
8.4801991e-92
8.165586e-92
7.9885601e-92
8.1243039e-92
8.3177971e-92
8.2124824e-92
6.1459006e-92
6.4011737e-92
5.6075891e-92
6.1865897e-92
6.6780651e-92
6.040699e-92
8.2722912e-92
7.9523872e-92
6.912856e-92
7.1401154e-92
7.1690791e-92
7.1777917e-92
1.2087585e-91
1.2246804e-91
1.2013177e-91
1.271889e-91
1.8401949e-91
1.9468116e-91
1.1679781e-91
1.1726005e-91
1.251838e-91
1.2335228e-91
2.5540299e-92
3.0232291e-92
2.934566e-92
2.44459e-92
2.895162e-92
2.4061277e-92
1.0063912e-91
1.0219104e-91
1.0460498e-91
1.0293737e-91
1.0670026e-91
9.9440337e-92
1.0741287e-91
1.0668719e-91
1.3467302e-91
1.2285716e-91
1.1716871e-91
1.2426163e-91
1.1933629e-91
1.1927785e-91
1.2768694e-91
1.2632921e-91
1.0723448e-91
9.9925265e-92
1.0491752e-91
1.0658988e-91
1.0335274e-91
1.0349786e-91
1.0820586e-91
1.0366504e-91
7.8281337e-92
6.9774339e-92
6.6537392e-92
7.1480195e-92
6.7046043e-92
6.8015037e-92
7.3785572e-92
7.1523929e-92
8.4208339e-92
9.094845e-92
8.5523683e-92
8.6166123e-92
8.1715763e-92
8.499278e-92
8.9642287e-92
8.6500525e-92
6.9610258e-92
6.5664346e-92
7.522948e-92
6.8161131e-92
6.5911081e-92
6.6817841e-92
7.2121327e-92
6.9449014e-92
8.3924509e-92
8.7978663e-92
8.6243998e-92
8.3266684e-92
8.1936383e-92
8.5339628e-92
8.928451e-92
8.6792766e-92
3.4517512e-92
1.3848191e-92
1.8755284e-92
4.1422869e-93
4.1811893e-93
4.1905402e-93
4.3121956e-93
4.3355837e-93
3.9125107e-93
4.3370236e-93
4.1702161e-93