/*--------------------------------*- C++ -*----------------------------------*\
  =========                 |
  \\      /  F ield         | OpenFOAM: The Open Source CFD Toolbox
   \\    /   O peration     | Website:  https://openfoam.org
    \\  /    A nd           | Version:  7
     \\/     M anipulation  |
\*---------------------------------------------------------------------------*/
FoamFile
{
    version     2.0;
    format      ascii;
    class       volScalarField;
    location    "2000";
    object      omega;
}
// * * * * * * * * * * * * * * * * * * * * * * * * * * * * * * * * * * * * * //

dimensions      [0 0 -1 0 0 0 0];

internalField   nonuniform List<scalar> 
33733
(
485.42353
612.14353
489.2328
634.0848
533.36054
470.84618
604.55407
531.31188
625.00678
595.56065
579.60337
654.69656
651.98369
772.84188
781.37705
561.83708
471.74311
617.75947
681.45719
1193.8743
2114.436
1063.6167
738.57853
996.35562
736.75021
500.67883
550.16105
508.9704
495.81214
809.33617
887.37363
694.21029
700.16078
674.02291
667.09015
605.1145
612.77057
993.37508
934.34547
783.05182
548.16637
843.91508
499.42798
588.34078
634.08057
627.50716
716.01865
736.45473
708.96133
704.65714
1207.3548
607.53662
603.97983
529.40232
670.16746
644.05275
498.51743
503.65591
553.04362
845.94515
780.53216
1077.3644
888.54789
944.88187
1042.2072
1685.3142
1402.0891
1512.7591
1486.4923
3089.8238
3233.75
6227.1408
6162.7218
5720.5143
2368.4574
1246.3997
2416.703
1252.3983
2097.0747
1976.4085
1140.9674
1165.7912
480.4919
557.51128
603.43727
715.67263
638.86401
590.34698
1134.3818
927.9455
1294.0602
954.41938
1507.574
1704.1679
1027.1796
1062.6996
673.06164
1432.6198
1424.4427
1419.723
679.11353
607.58545
609.69403
1166.7546
1174.5561
1046.3187
1060.8192
1194.803
1171.5716
1070.1286
1047.7352
549.53871
924.00142
811.03285
807.02719
913.90433
911.71128
808.09691
823.51801
555.12202
929.11499
500.6735
503.94575
1926.7899
1975.3404
1732.6071
1640.6786
1173.9395
1059.6004
699.75397
602.06608
1328.0432
1459.7879
541.3315
565.62858
602.46468
683.04331
670.43685
921.3619
1056.2919
758.29667
745.8126
1614.1914
2732.7521
2961.1938
636.37411
612.98159
577.31004
552.45057
556.91848
602.86688
813.52713
714.25791
533.98601
481.55313
564.03524
705.14705
608.16834
621.37459
751.40882
1013.3438
949.6514
1311.4419
1489.6307
882.85378
860.4785
1119.6683
981.82344
1911.8338
2558.1807
2498.559
3160.7247
1216.5658
1477.5207
1475.6824
1907.4122
1110.138
1168.7778
1952.5899
1729.4471
1344.0055
1289.0278
2328.7726
2578.3147
5273.0138
4842.6981
5096.5429
5058.6359
3912.095
4332.8752
3273.7288
3958.5268
4090.9313
4144.3393
8926.8709
8980.2247
10102.201
4463.7243
4536.4818
10016.193
15941.544
15100.139
14313.008
13126.641
13605.8
16238.191
14896.026
12394.958
11439.212
11713.752
10817.551
10825.355
10927.962
5153.0889
5090.4122
2509.3912
2484.7642
2639.8333
5512.7793
5613.5223
2631.2119
4707.0876
4682.9787
2339.5439
2368.4291
4176.2718
2125.4684
2199.0737
4217.133
480.66592
564.12041
656.4661
777.49413
992.35891
744.92481
855.14294
1518.0931
1774.1843
1300.6715
1222.1258
2123.7964
2405.7207
1520.3514
1427.9002
2813.2625
3034.3687
1744.5807
1650.2943
3702.3916
3506.3274
1893.3678
1984.3619
1208.3178
1084.6943
1076.2318
1212.4634
3037.2138
3032.0218
3380.6722
3400.7846
2938.801
3006.6464
3230.8762
3339.7459
3002.5157
2990.6824
3311.1262
1202.5266
3103.4875
3000.276
1231.1675
1097.8738
1073.7265
937.69159
827.64847
816.87891
550.74353
932.75694
552.58479
928.9706
818.68735
830.06025
949.84201
502.22224
500.54484
2430.5316
2502.6807
2270.8845
2334.7561
2383.4546
2404.3727
2254.5057
2287.7226
1819.5007
1868.324
2030.6127
1975.8996
1906.6181
1826.4545
1978.0942
2034.3771
2525.5501
2566.1011
5742.4862
2410.8359
2359.8479
2504.4946
2494.4302
2333.4939
2338.2109
1945.4571
1886.7548
2101.6287
2051.8042
1876.8426
1871.8002
2032.6948
2031.7455
612.86168
716.69221
717.82496
613.23005
1468.4627
1526.407
1703.4039
1646.094
1165.8692
1132.5541
1330.101
1286.6543
1137.1697
1283.8181
1143.1704
1289.4374
1633.8028
1469.0671
1639.8473
1476.4073
1422.9102
1460.4899
1591.4378
1636.0141
1109.8991
1128.7465
1279.3387
1252.0036
719.87405
1169.8932
1137.1269
1277.2033
1327.4729
729.10934
617.22466
614.61968
1516.9161
1445.4677
1681.3423
1609.7559
550.84738
3645.1428
3545.8218
3776.4285
3707.6616
3443.4658
3475.0199
3196.0859
3160.9364
2017.6041
1798.1862
945.4478
1538.4429
1349.4377
768.48924
2288.3497
2436.5464
2735.5032
2892.7583
482.97097
494.31122
518.70149
488.54462
542.87817
575.48218
609.71306
756.60034
776.40841
722.00619
693.91905
1721.5525
1048.6034
1523.302
1299.6173
2031.2944
2290.8556
2007.6295
3821.7142
1682.8356
3569.426
3926.8353
4126.4175
7524.1201
7151.3118
8591.2663
8833.0006
647.53688
617.83871
577.03
552.62643
575.56881
658.30924
874.88001
1164.466
1324.8054
743.34436
1006.8019
919.97878
538.36669
479.36841
565.33896
651.42027
674.42215
725.09673
800.32657
876.3137
740.11524
820.23236
1056.0181
1185.9461
839.05232
1638.7782
1707.6728
2092.7345
1802.215
1919.9802
1828.3423
2416.0555
2767.1696
1578.7774
1196.4992
2709.8373
3407.472
6761.8017
5289.9925
8694.9141
6087.3994
7632.6773
5447.8161
4110.8191
4941.5926
9148.5773
8197.9207
10049.282
10441.057
7507.3134
7073.6649
1509.1658
1343.6897
1831.4101
2426.4191
2148.9578
1784.4062
3118.3855
4121.1164
2768.9791
3718.8888
2362.6449
2897.4802
4840.3372
6263.8118
4384.9393
3607.4363
2398.575
5178.8411
2566.8654
4389.8929
2205.7655
3699.9332
2079.4267
3278.131
2882.5473
3051.8596
5923.6019
6272.7111
3437.7434
3644.1474
8014.5138
7097.5765
13271.198
14523.057
13631.531
14663.936
10697.357
11507.136
13628.933
14253.219
11164.085
12083.961
10132.761
10477.101
11484.412
12323.877
9816.3384
10041.922
8249.0231
12631.803
9464.0965
12828.439
12321.584
9299.0132
9339.9112
11631.203
6286.167
6997.2425
10877.825
11094.685
11389.781
11632.06
8577.0933
8488.6633
23463.942
12208.886
12357.339
24412.534
11704.033
12276.028
22217.255
12913.597
25418.721
12872.961
12856.785
24643.352
13641.693
13409.275
25169.909
26617.581
29046.837
34536.856
32750.365
28879.152
25893.715
27495.813
28834.266
30019.608
23219.284
21328.857
18436.07
19271.418
17756.046
19759.037
18680.407
21518.702
19994.763
18742.31
17316.717
18015.483
25896.172
28482.968
26471.456
23875.461
23855.428
27126.08
24654.442
21899.472
17716.603
19019.038
17575.236
16713.998
16208.203
15502.272
15803.357
16531.866
16854.746
16114.029
16378.455
17019.766
17128.436
16542.338
16780.955
16372.447
15549.474
16426.214
18325.911
17271.836
16044.513
15740.941
16922.108
16608.649
11936.303
12696.677
14116.31
13428.666
26246.152
23119.055
17856.132
10571.217
11412.386
8980.5696
9811.7476
478.94369
674.65427
704.7239
816.94122
1003.7161
1278.0759
1134.7013
956.68657
2071.6621
2967.5274
3832.4708
4780.9038
5644.8727
6380.2533
8376.8097
7319.6726
3118.711
2423.6335
2412.2094
2545.9285
2590.3446
2112.1926
1975.0886
1948.4603
2111.3678
1957.0987
1945.3296
2109.9793
2122.2053
2601.3504
2428.0476
2434.0513
2612.2426
6974.0258
7178.4094
6040.3388
5862.9639
7142.1757
7073.1076
5945.3054
6029.3174
8355.8589
8510.9138
8281.1528
8451.6478
8163.5172
8337.6288
8385.8393
8577.3886
6490.1909
6647.4341
5472.4739
5560.172
6904.7177
7092.5784
5810.8857
5971.6201
7608.2396
7736.823
7806.238
7947.9682
8084.4203
8224.9015
8295.0412
8452.7169
6959.3664
7048.7235
2585.3402
5957.9701
5875.6459
6877.6998
6840.1812
2580.3549
5748.3344
5806.1452
8054.4522
8190.6591
8018.8315
2422.2332
2411.4602
7058.1605
7305.3447
2683.859
6171.7845
5956.5481
6941.5218
6847.9364
2592.7524
5770.0219
5872.0504
2430.5959
2514.4862
2121.5759
1960.5154
2033.5568
2198.2014
2108.5479
1951.4161
1929.9321
2095.8951
1733.9729
1575.3261
1526.715
1704.0682
728.32129
1172.5403
1215.9073
1375.805
1337.4172
1319.9512
1167.9008
1173.7843
1335.4647
726.74323
616.70593
616.40461
1694.0029
1520.7537
1534.3091
1711.83
728.81726
733.74253
614.8676
618.18928
1704.8111
1533.9233
1509.2358
1684.8031
1180.8918
1339.316
1163.6658
1319.4986
1191.0413
1218.4925
1387.8326
1348.4335
1545.3039
1598.5839
1781.0833
1718.4296
558.7671
551.74224
4919.9295
4849.8952
4818.0163
4888.1312
5136.8047
5047.5765
4817.574
4890.1021
4279.0884
4315.9593
4407.343
4366.5102
4284.5958
4462.5869
4568.2135
4367.6856
4416.899
4406.9855
4352.5924
4308.0684
4895.7556
4825.5091
4439.4717
4496.2016
4387.5712
4300.9743
3996.2454
4055.359
4130.0227
4059.3811
4076.0693
4061.1625
3230.6907
3273.1771
3422.0363
3372.8727
3245.9438
3342.594
3501.9101
3386.3399
3903.2925
4035.0844
3880.3977
3773.1351
3763.5025
3804.8022
3918.6761
3872.9369
3528.1929
3299.6053
3387.6493
3546.1621
3114.2678
3247.3756
3402.4095
3226.8791
3903.7978
3777.2764
3565.5001
3650.8877
3761.6156
3697.18
3864.7778
3877.3858
5060.8359
4991.9342
5100.7911
5182.6361
18923.629
18856.971
4929.4773
5046.0014
5114.6207
4999.3536
18082.907
4400.6093
4511.4198
4584.5715
4478.7071
4535.725
4448.5107
4527.9946
4618.2916
5136.676
5040.1917
4951.3294
5028.1856
5015.0724
4906.4473
4991.1018
5090.8322
4465.86
4365.6455
4455.6518
4545.3507
4404.6264
4457.949
4558.3819
4484.0463
3603.2551
3471.7278
3384.3906
3517.7962
3415.9265
3393.9251
3567.8633
3536.8435
3902.225
3999.4202
4099.4262
3999.8555
3930.512
4039.2809
4095.0896
3977.1996
3379.7996
3324.6749
3526.7312
3470.1119
3322.6774
3349.3021
3472.1651
3503.8537
3909.9527
4033.2824
3986.5208
3879.4286
3857.7946
3965.686
4043.2238
3936.4836
676.30423
821.12647
1018.5246
1035.8407
813.16886
1025.9868
1022.4367
810.68428
813.03549
677.03193
2364.535
2348.2078
2554.067
2559.2336
2395.6758
2486.1415
2666.9175
2580.7129
2901.2906
2987.9969
3136.0064
3051.4942
3050.7099
2887.1542
2893.0817
3062.7007
1492.6141
1710.9525
1454.4686
1647.6898
1584.6585
1387.8647
1583.433
1388.0134
1989.4733
1905.8717
2201.5367
2115.6395
2065.5791
1844.2809
1854.5388
2076.074
1392.4175
1592.9257
1582.5939
1402.3277
2060.1504
1850.9995
1831.5995
2029.1738
1402.5728
1598.4768
1621.1444
1429.2396
1882.9996
1853.8444
2060.9527
2082.2821
2996.9859
2835.364
2809.2596
2973.167
2515.7458
2332.4416
2303.5832
2488.1355
2981.1984
2824.6108
2866.1942
3029.0788
2515.1356
2329.9676
2361.9063
2544.216
2226.2698
2237.8893
2444.2029
2413.6768
2256.6503
2318.9837
2512.1616
2442.1731
2732.7418
2767.5162
2939.0474
2894.4673
2757.3429
2829.8611
3001.7155
2913.7291
1004.2555
1318.8519
1326.1571
1510.1487
1499.6219
1015.08
1358.8579
1374.7869
1579.394
1538.4049
1780.4162
1832.6017
2047.0222
1985.2472
1966.421
1750.9677
1743.7502
1953.1302
812.5109
807.93224
1044.0485
1568.4178
1480.7749
1697.9515
1824.356
1033.429
1365.807
1364.2382
1539.6906
1538.9428
1775.8588
1775.4892
1986.3339
1967.792
2185.3141
1970.3598
2153.5189
2397.1045
829.53241
831.82308
2708.2144
2450.8523
2608.3244
2832.1601
2222.9718
2248.709
2442.1793
2386.9107
3147.6346
2890.8004
3027.8104
3260.2516
2675.5807
2746.8099
2922.6705
2815.9622
545.11091
986.51866
1180.8472
481.61759
491.8671
517.43058
488.90358
648.78954
543.09248
615.51289
578.64214
735.61894
700.00802
616.25018
789.17978
794.61267
776.21828
769.62137
613.58311
2059.4713
2068.9968
3244.7011
3782.0493
2063.4267
1860.1797
1067.3957
2215.1588
1770.2745
2642.811
2876.4039
1345.8503
2703.2792
2518.5044
2920.8842
3145.6172
4438.3383
4807.2083
6009.429
5522.1302
4763.0279
4749.1397
8571.3664
3886.907
8749.865
8544.1968
8333.2425
1730.7536
3956.1663
4203.938
4172.7651
8000.4269
8149.9841
8355.5919
8306.3483
9078.6345
9182.1148
9283.6818
9468.2743
9543.1097
9354.2347
9224.7892
9340.3387
18661.008
19202.944
16523.469
16584.106
21484.142
21935.704
24449.731
24445.338
577.88478
555.89308
584.98747
821.37612
676.05758
735.82756
1271.3
1492.218
1556.107
875.65656
1294.3564
1887.0524
1712.1435
2112.9955
2328.0496
971.74086
959.9835
742.73943
1077.6989
1090.4397
535.41602
585.95479
555.10339
479.01638
672.39532
690.67563
670.38242
715.12996
784.74679
881.82901
906.42387
996.37521
1027.8835
1219.92
1434.1504
1066.3717
1660.6439
2418.7933
1509.0264
2116.7128
2754.6673
2153.2462
3394.8283
4101.2904
2595.601
1841.0847
3561.7973
1317.1995
1543.4063
2053.6007
4623.6048
5706.297
4847.4275
5177.4455
7247.7139
19711.057
10715.474
13267.107
21212.604
15439.235
7540.5603
17418.161
8722.6528
18501.718
22066.427
22239.105
18003.95
8964.7659
15975.366
15625.054
8950.2185
19638.232
17091.141
16947.147
20478.021
8430.0342
15535.569
14844.074
8297.3791
8074.5451
5515.3601
5612.9238
9198.9099
6076.8959
6802.954
12754.309
10704.822
18493.349
19934.294
23252.152
23344.012
22238.369
14637.539
21623.117
16939.37
19226.315
23417.288
22490.549
18457.158
19468.568
23643.206
22779.734
18605.958
18313.257
17931.769
10305.101
10728.287
9457.6211
16851.669
16417.025
9541.0775
3207.1562
4263.1997
3457.9535
3646.9224
5375.2439
8309.7649
4516.0801
4003.6364
6486.5639
10490.892
5778.8284
6477.2189
13243.332
8313.5854
5427.0524
6082.3235
6538.6611
8261.926
8338.789
8359.0946
10869.904
4878.5095
4343.7027
3193.9197
3200.1734
5999.4268
6699.0966
4664.753
4181.679
15525.809
12951.181
10500.84
12446.584
14799.628
17764.206
18357.362
15475.822
13967.14
11834.328
6586.9466
7535.6632
5850.1346
9971.306
8417.8741
5285.8125
8470.6718
7651.5607
11060.879
7627.5797
7473.0135
6344.0291
5329.8262
7974.2039
7733.172
11810.8
11711.103
12656.21
8063.8806
7982.1093
13050.249
9982.322
10517.742
19768.14
17209.372
14255.172
8711.6775
15124.932
9130.8145
24202.545
28461.117
28368.266
25614.118
28605.34
32102.016
31489.193
31299.818
25312.921
23038.115
19062.806
20215.058
21078.212
26586.211
20000.516
24734.673
16501.861
25473.212
19800.509
24512.68
26680.789
21736.608
22417.498
26236.597
25808.426
28031.275
22397.399
20847.889
27083.107
29325.631
23871.723
22185.733
16497.405
16377.62
17342.721
17338.102
16880.999
17743.276
17492.147
16812.493
17331.983
16474.008
15660.221
15804.801
15181.86
17507.514
15136.827
16685.029
17321.051
18505.113
17863.692
16984.927
18109.593
19336.246
18096.358
17336.829
16895.941
17943.412
14608.168
14521.944
17361.434
18593.903
14373.772
13868.62
12213.634
11397.77
20863.561
21507.931
26148.915
25609.043
25786.911
24552.199
23420.952
13696.626
24290.014
15964.828
25554.647
28488.535
23566.709
27823.939
18374.337
21965.001
20334.844
17605.831
12417.271
17782.371
17102.431
12596.096
13715.88
19364.558
18017.104
13818.137
18310.213
20645.166
17516.3
18996.483
8962.3447
9308.7441
14540.333
14892.616
10505.98
10253.584
18812.933
19375.851
25380.004
21201.269
21267.271
24589.029
26044.462
23494.35
23678.98
24465.821
21503.65
23274.438
19088.285
17947.65
19464.907
23894.942
22533.562
18499.2
17162.509
18537.623
11911.702
11843.451
11618.433
19278.234
17948.139
11437.083
55667.032
51422.233
20137.569
20066.365
37419.471
22406.302
26012.618
59487.072
62915.952
67543.276
65636.173
52932.108
57002.997
67442.326
64519.603
60858.487
59155.433
63059.724
56609.885
58677.578
55790.084
48274.369
49692.755
46269.246
51106.865
47378.692
53529.684
49151.289
47417.007
44011.409
45136.177
59211.066
61051.954
62017.779
57248.815
55505.708
62219.615
61122.892
53015.269
44571.494
46151.462
43268.398
42289.805
46419.477
44864.307
47928.41
50519.47
17942.526
50091.508
49439.43
57851.734
58125.894
66030.18
65926.266
18595.075
18581.194
49173.635
30607.897
60693.322
53806.259
47821.457
56939.453
49047.313
13291.849
20183.031
19875.026
13828.122
20597.561
21360.157
14968.868
21371.424
21854.861
14384.106
20910.737
21569.368
20857.732
20624.642
24774.614
24577.445
88694.9
81406.547
20352.825
11943.048
18829.451
18007.304
12734.981
16831.281
18725.485
10632.449
19323.839
18159.013
11275.598
19077.497
18033.544
874.7993
853.15089
887.12237
913.62749
1159.964
1617.4482
2746.98
3996.1546
4779.8131
4471.3764
8555.3979
9560.3168
5615.1404
11200.376
11734.318
13504.858
12977.511
6716.1047
11074.858
14272.558
7813.7631
8483.8766
16094.062
16952.167
10043.208
17504.262
16305.162
9191.0078
16614.182
17152.309
8224.2695
8486.8269
7033.3559
7277.6302
6149.883
5936.2022
4601.3513
4551.1441
4624.0548
4701.2533
4415.0221
4380.9522
4410.5044
4460.3276
4882.1329
4826.831
4893.7577
4956.4371
5186.8118
5086.0032
5169.2687
5295.6871
4001.3646
3947.2566
3956.4022
4024.9568
3575.6293
3480.6354
3465.6267
3575.4176
3491.9551
3508.6918
3641.2569
3644.5408
4135.4128
4037.7934
4050.8422
4170.8472
3504.2023
3455.0027
3596.342
3659.5651
3473.1375
3545.6134
3686.267
3622.0477
4213.7758
4104.6125
4036.7201
4147.3955
4099.0802
3988.8997
4062.6357
4189.9517
5337.6086
5235.4648
5149.262
5267.719
4739.639
4651.2808
4576.023
4666.4264
4622.3057
4512.8581
4607.7502
4730.4637
5198.1148
5074.2554
5215.8885
5352.828
19648.651
19629.536
18021.808
17974.108
18313.047
18358.239
19940.23
19940.145
19077.036
18804.094
19978.113
19969.69
18315.96
18278.663
18362.395
18403.561
20065.987
20071.345
19218.134
19153.654
18700.925
18617.093
17028.641
17123.277
17577.727
16290.604
16156.66
17446.39
17147.329
18741.45
17123.176
18739.629
17569.861
16246.785
17564.467
16266.652
18402.404
18299.709
16839.867
16727.56
17134.157
16025.131
15870.217
17292.18
18687.691
18688.107
17159.231
17121.381
17571.73
17580.477
16302.323
16347.068
18211.274
18202.39
16597.59
16570.318
17478.85
17562.758
19255.744
19280.647
17452.944
18467.34
19551.267
19549.877
17875.3
17860.205
18213.477
18275.278
19908.768
19921.391
18731.744
19074.992
15362.386
16966.3
15457.109
16874.015
15873.523
15725.859
14646.724
14508.267
16270.226
17832.744
16182.783
17884.336
15256.827
16592.698
16658.904
15347.722
16599.02
18247.789
16657.346
18192.63
15796.673
17095.438
17006.364
15710.653
17038.038
18584.373
16980.67
18606.47
16111.709
17422.588
17455.384
16175.78
19666.43
19645.746
18007.961
17948.685
17965.162
18004.659
19564.417
19572.623
5227.3481
5139.6308
5178.2242
5288.3926
18713.681
18835.506
19383.448
19366.888
17712.537
17657.696
17938.657
17981.392
19689.746
19703.887
5164.2972
5098.0241
5041.6667
5116.3387
18880.8
18582.259
16374.916
18084.222
16502.809
17970.921
16936.322
15653.288
15473.444
16760.674
16678.344
18302.179
16653.631
18306.047
4630.0764
4569.4048
4504.5594
4574.8689
4565.1535
4562.2696
4657.1895
4683.8459
19830.695
19840.961
18155.699
18134.471
18778.843
18799.457
20539.151
20534.128
5317.3658
5236.0871
5408.2999
5497.0338
19703.761
19016.6
19311.388
19296.71
17711.251
17648.919
17719.285
17755.893
19376.397
19392.88
5227.3641
5149.7983
5057.7337
5140.5459
18559.422
18498.407
4671.4729
4587.956
4506.6118
4588.7301
4822.5707
4674.9273
4761.7431
4914.1172
4156.8651
4046.9441
3986.3035
4088.2893
3635.3039
3480.0095
3451.4389
3588.8478
3740.5005
3605.6582
3743.8799
3870.0329
4251.4548
4141.003
4283.6294
4387.5574
4148.7912
4063.1333
3996.1929
4088.1667
3655.926
3527.0725
3459.6821
3591.8279
3439.302
3461.6351
3607.7861
3588.8432
4132.8362
4016.2471
3997.3658
4128.3121
3152.3872
3037.0265
3003.8199
3135.0933
2719.8376
2570.4063
2528.0616
2693.472
2473.6344
2483.9563
2680.6091
2660.4904
3164.1543
3013.1313
2984.3083
3145.2144
1073.8153
844.42582
837.49027
1053.3614
1487.4033
1492.6301
1706.1457
1693.8762
1571.0232
1627.1162
1837.6863
1785.6476
2056.3338
2112.8824
2301.9988
2253.3291
2196.452
1977.6401
1964.2178
2186.8829
2194.6964
1980.2917
1941.8441
2153.6016
1047.3744
1698.0909
1480.4619
1463.3733
1673.4442
1053.3457
1490.8649
1504.7529
1700.7246
1708.3539
2178.5403
1970.5016
1985.3977
2201.8621
826.35631
830.1882
688.16292
687.37267
3178.3882
3020.5166
2949.8846
3115.6583
2683.9752
2498.985
2437.5191
2621.7441
2487.5378
2458.2981
2636.0025
2668.7934
3110.8574
2952.5297
2991.9071
3156.7264
1053.8509
1047.6865
834.76429
833.24003
1069.697
1083.8388
843.40939
851.34945
686.13032
708.41217
3170.6678
3023.1318
2964.0908
3111.4619
2686.6543
2508.3475
2447.728
2632.3226
2428.9212
2616.4699
2599.3616
2421.8215
3107.3058
2944.5984
2931.2934
3090.4918
1723.4328
1497.9845
1481.7461
1693.2216
2008.5103
2222.2969
2166.9812
1961.0936
1454.3163
1666.1057
1472.6531
1658.8651
1931.9503
2142.4929
1934.0757
2146.1042
1499.9127
1504.1029
1709.9164
1700.5422
1861.5387
1572.9625
1789.1293
1615.0765
2083.1081
2301.3785
2394.0629
2181.2492
1972.0982
2180.7774
1981.4121
2192.0999
2472.6975
2651.7453
2641.8058
2467.0575
2598.8585
2780.7962
2885.6631
2712.2238
3235.8244
3108.8862
3261.2315
3382.2307
2963.5997
2970.1911
3131.743
3111.3362
556.45711
546.83133
16573.27
15553.053
15582.689
16620.502
16939.075
15876.898
15563.157
16583.578
13569.599
13572.058
14562.343
14576.684
13582.587
13822.197
14845.874
14573.416
14274.346
13485.366
20860.995
21902.45
26997.484
25387.723
16264.591
15255.595
14226.2
15172.767
23145.493
24930.357
30611.372
28432.459
26023.414
26582.04
32304.672
31620.723
14276.197
13290.484
12410.345
13314.308
12007.927
12738.185
9631.786
9675.5359
10642.352
10605.129
9692.5513
9843.2832
10818.205
10653.098
11800.107
12809.014
12601.006
11614.26
11578.302
11606.39
12591.599
12574.977
9215.9786
9887.1315
8943.9921
9444.5164
10389.593
9787.941
12316.542
11340.052
10639.86
11521.417
11288.199
10567.385
16876.306
15863.228
16274.725
17339.026
25513.022
25196.079
15761.927
15705.362
16679.178
16759.512
26780.194
32563.117
32367.336
26593.508
31630.958
25897.199
13833.76
13834.682
14765.236
14796.026
14883.129
13899.359
14218.599
15246.892
17183.179
16111.841
15992.448
17062.444
16124.033
15887.322
16936.903
17189.12
14064.939
13867.788
14874.443
15094.858
13921.571
14052.289
15077.98
14957.701
11074.19
10158.555
10051.322
10990.239
10182.674
10047.481
11179.729
11005.997
11926.158
11984.352
12910.722
12879.522
11958.401
12929.303
13199.712
12178.664
10035.803
9936.0497
11027.431
10910.66
9842.7295
10051.674
10849.366
11039.711
12027.59
13039.149
12893.852
11860.1
11881.789
12875.633
13045.824
12023.49
669.33336
913.93033
878.62609
1044.9331
1266.886
1044.3444
1264.6353
1321.2961
1105.8348
1337.7785
1090.3178
1054.2416
1283.6214
1280.3843
1049.0062
1268.5683
1051.6062
1268.7601
1046.7516
877.29454
888.2531
668.07179
6201.611
6159.2442
7159.941
7207.372
6234.72
6457.3933
7408.5514
7209.0438
8161.6522
8330.6173
9249.8489
9112.8931
9094.9066
8126.6165
8195.509
9192.0021
2115.2528
3531.1513
1990.1851
3322.4941
3211.1745
1902.8737
3222.9167
1894.2424
4527.2292
4293.4594
5512.9761
5275.981
5184.4469
4197.4824
4208.0283
5214.1534
1902.8736
3230.909
3136.8459
1879.5391
5159.7632
4188.7553
4062.0964
5000.8255
1908.3377
3210.1426
3291.0503
1939.2078
4257.6464
4151.6001
5114.7483
5222.2811
9075.3087
8083.8383
7868.6005
8854.0603
7106.5732
6124.779
5936.4349
6901.2058
8972.5959
7994.285
8090.6543
9062.7851
7029.4218
6063.6043
6169.3356
7132.549
5778.6818
5806.7157
6789.508
6746.5844
5863.6897
6019.2313
6979.755
6829.913
7702.698
7748.6432
8717.1094
8670.1593
7782.2146
7926.2191
8884.1839
8740.8783
1001.0351
1007.8473
1221.0925
1208.9718
1761.4392
1770.0179
2987.4488
2966.9862
1036.9809
1252.5978
1244.1223
1030.3282
1810.7805
1876.6667
3173.3119
3035.5213
3965.8957
4119.6639
5079.4079
4920.9759
4858.086
3907.9799
3887.5378
4836.9817
1323.9234
1100.1084
1116.0808
1359.6011
2442.912
3951.6234
1258.0782
1054.927
1052.9957
1252.9287
1920.2566
1813.1781
3015.1246
3147.9075
4003.4426
3907.0386
4819.2707
4840.9125
5713.4598
4875.3857
6485.373
7190.8939
5658.2674
5722.4339
6650.1237
6481.315
7858.9389
8546.6096
7293.1871
7574.063
8510.7796
8118.7015
673.38644
672.19284
486.85094
480.69248
491.20528
515.96052
579.55746
654.32308
652.81444
546.39505
616.96442
617.87307
583.29429
707.16411
746.7812
749.50265
709.72485
801.659
782.33142
795.01896
815.52612
1746.3579
613.94198
580.75089
792.9724
772.53647
792.46892
811.98675
2144.765
2097.6397
4727.0211
4871.1425
4756.8033
4801.3334
4896.0871
4763.851
4716.9991
4822.7863
2124.5687
2092.5203
3732.7922
4319.6782
8383.0325
7934.5746
4654.2096
3983.7169
3442.6878
1900.6762
3813.659
3625.2558
3313.4391
1091.6415
1954.691
2340.8626
2263.3475
4289.5594
4991.3487
4115.2616
4763.625
3065.2101
3221.3195
3546.7834
3320.3924
1383.2147
3206.4887
3287.7576
2844.836
2768.9977
5736.1302
6168.6048
5923.1071
5532.7818
5799.6214
5376.9834
5055.3179
5438.3139
6888.7299
6453.1074
6176.6895
6687.715
7274.8534
6826.3117
7027.1434
6601.0192
8889.8523
8939.4497
9437.3486
9656.4089
12948.023
13614.886
11615.044
11051.628
9922.4543
9812.182
9422.5786
9466.8903
9945.3742
10029.268
15767.313
8518.6128
15210.91
14965.5
15512.988
8606.4468
8755.1083
8713.4703
15081.374
15536.399
15772.451
14859.715
15670.264
15688.252
14993.217
15026.404
15664.217
15105.144
15059.179
15586.829
3979.4122
4250.6121
4317.9799
4066.7686
8671.8995
8792.7737
8633.1498
8488.3264
9381.7806
9536.6473
9140.7648
9258.3061
9508.3624
9496.0816
9310.7207
9254.3644
15489.751
15555.008
14943.061
16308.994
15555.828
14608.357
14993.338
15199.448
15255.645
15604.587
14946.666
14663.727
15617.788
15108.12
16296.81
16538.129
15422.409
15969.495
15992.807
15540.044
15183.066
15632.63
15084.644
15406.886
17873.043
15814.07
15991.518
17690.879
16966.883
16688.918
19711.605
19692.824
15679.693
15001.632
15150.242
15467.327
15700.483
15625.874
15140.405
15291.595
16067.294
15874.285
15270.466
15552.569
15822.086
15179.31
15128.523
15695.965
44016.797
46983.619
33273.086
42064.273
50092.283
53581.707
57097.554
60685.778
860.63616
676.83795
769.53173
859.97782
771.151
2150.3091
2215.6455
1973.0404
1952.5623
2421.9587
2812.0585
2494.4443
2669.68
1575.2134
2627.5337
2992.646
2859.8202
2542.2999
888.66739
1307.222
1330.882
1626.5148
2312.9944
2007.3258
1983.6025
2236.1945
1302.1799
947.80218
750.04247
957.53629
1109.2782
1090.3606
1859.8779
541.81446
558.42452
555.58803
590.68516
592.75006
537.01793
752.11934
759.0682
825.9178
834.74236
838.14844
840.63928
936.82427
906.14566
912.86309
883.61005
948.14298
977.15655
952.34801
1008.6053
1076.0842
1283.1437
2393.4766
2056.3305
1085.7411
1288.0609
2040.5643
4887.8908
4041.9363
3246.4526
4259.2215
3669.4176
2614.7653
3073.1458
4696.1956
3214.5158
6086.196
5206.6961
2511.5986
3982.4805
6812.4244
6651.5655
4777.9808
7637.9091
9233.2302
3104.451
4943.8431
6043.2392
2625.7274
4529.4449
3186.614
4324.5752
9213.6453
8498.3715
1797.6211
2438.2649
2517.4947
1769.5047
4295.9773
3810.4868
5407.036
11099.672
13137.866
7460.1015
9655.5303
35799.492
15635.701
18953.393
40173.531
29401.851
32399.046
45239.557
42115.333
45252.337
47222.639
47051.367
50833.776
37592.728
41460.152
43256.217
39372.727
15079.406
44795.845
43826.624
14671.068
11227.398
14218.938
19258.895
16399.866
33650.803
34353.664
49886.454
47051.086
43160.933
31536.974
44788.503
32914.336
49575.214
47742.506
49562.707
51743.854
54238.889
51363.269
53196.437
56449.527
64970.725
60885.674
18778.982
54256.899
57220.663
8315.0141
4116.6144
9890.3055
6385.7337
7846.7707
12704.276
9827.2158
16526.213
26124.791
26228.044
6090.6955
8573.1624
11436.782
26354.45
32966.984
16062.013
28723.2
24678.461
14135.837
15172.6
20691.42
26283.65
31638.481
28080.01
30935.441
33527.121
36694.194
36343.775
36939.222
39356.026
41137.364
36321.386
32854.42
29592.27
10181.978
14144.733
15937.409
8145.9227
17734.137
7063.951
13812.088
14318.58
6086.7954
12769.654
12665.334
15997.214
14768.843
16294.428
17350.7
18832.118
32001.443
26706.421
20347.629
22182.55
42778.898
62430.896
64498.531
44502.66
47687.358
52243.24
67263.842
66271.052
62018.506
60305.777
50729.893
52040.032
54172.963
63483.785
52680.195
62547.471
18644.702
17413.45
16181.706
48698.169
38426.632
53395.463
57138.077
39773.323
41238.039
60021.698
63847.611
64343.134
56762.85
55266.712
64536.734
64495.835
60435.294
58222.267
57738.875
50247.93
50471.278
57613.481
50267.021
50809.191
56113.653
56459.526
66018.401
65820.404
64491.787
65043.728
51237.308
52003.864
55220.261
55334.704
52892.247
54497.667
56137.105
54838.218
62959.404
61143.322
58070.465
57617.006
20334.842
33127.76
35004.544
56415.099
52403.994
61774.215
61940.223
37873.331
20397.06
42736.993
24175.299
61901.266
60188.441
61443.538
62991.574
55348.508
56410.43
56085.913
56432.416
61689.549
63208.128
64073.735
62319.51
19238.005
58174.534
56413.029
58036.077
55606.522
14048.992
16516.549
16013.957
15051.919
22760.48
31268.357
32033.953
53767.184
36034.712
40137.145
57340.922
59798.315
44517.915
48396.938
61020.891
56653.607
56793.102
54913.151
54889.501
57004.578
55000.447
56126.407
55307.974
60394.447
58432.383
20267.163
64135.775
56755.382
70386.911
43740.189
66390.999
25225.884
32429.943
48987.249
39790.519
24397.015
74201.253
78175.171
85825.954
81698.416
43384.338
67593.725
58995.321
53975.656
78207.141
82995.606
88016.223
79338.365
86258.84
74449.92
90972.517
90823.753
88372.361
88313.742
88003.56
89839.125
88419.701
90541.608
89038.829
88288.819
86922.58
87688.25
89200.957
82770.95
85570.212
89898.898
90396.451
87699.194
89219.457
89899.032
86607.716
87793.862
86404.35
85344.996
91721.684
90220.59
95052.585
99028.042
90783.911
91690.256
102642.88
101021.87
113748.03
114727.95
19330.426
41138.642
99877.524
42172.832
97444.905
29812.573
110675.31
101825.15
92202.542
103595.05
92615.688
20633.951
16643.019
16571.578
18908.216
73039.43
21754.601
19283.998
20701.044
17131.202
17176.256
19347.311
18495.657
74286.037
73849.666
18677.187
18503.655
19222.617
19001.647
76935.147
75946.938
19049.849
17776.345
17789.144
18555.281
75237.741
75030.551
73468.62
73677.401
82069.617
30578.954
82087.308
139109.7
138839.8
18779
15545.088
15425.755
18584.423
64010.438
61748.793
16017.117
16012.189
19458.383
19758.726
19128.063
19728.259
18889.208
56192.149
15263.732
14824.135
16078.91
16412.89
19195.926
21198.426
18704.496
67854.497
15022.439
15301.121
17461.699
17340.462
66945.533
65311.59
1093.6344
1113.3395
1073.6451
1062.061
1151.2583
1130.3172
1291.2779
1370.6083
1964.8067
3628.0186
3090.7092
5760.2099
6997.5578
9481.228
7808.7896
12393.905
13992.67
13255.603
11812.898
30338.066
12897.253
14096.014
12994.985
13723.018
33591.32
36677.773
41251.411
13776.971
13901.044
39557.552
14016.196
14552.02
14158.743
15129.237
15867.97
15843.082
15619.123
14906.447
14866.953
14080.867
14633.968
15543.238
15380.464
14488.524
13779.578
14319.081
56785.567
55754.208
14675.967
14848.177
15599.734
15495.63
59896.173
17773.598
19026.148
18802.813
13964.875
14239.206
14859.454
14321.757
59965.351
58414.222
18431.552
18390.196
16841.261
16814.193
18903.549
18871.282
17282.523
17257.752
19715.104
19722.147
18038.305
18057.604
18530.359
18560.586
20283.459
20245.535