/*--------------------------------*- C++ -*----------------------------------*\
  =========                 |
  \\      /  F ield         | OpenFOAM: The Open Source CFD Toolbox
   \\    /   O peration     | Website:  https://openfoam.org
    \\  /    A nd           | Version:  7
     \\/     M anipulation  |
\*---------------------------------------------------------------------------*/
FoamFile
{
    version     2.0;
    format      ascii;
    class       volScalarField;
    location    "2000";
    object      p;
}
// * * * * * * * * * * * * * * * * * * * * * * * * * * * * * * * * * * * * * //

dimensions      [0 2 -2 0 0 0 0];

internalField   nonuniform List<scalar> 
33733
(
-1.2881926e+183
-1.3526033e+183
-1.2868664e+183
-1.3111116e+183
-1.3093957e+183
-1.2115284e+183
-1.2664631e+183
-1.266338e+183
-1.3115637e+183
-1.2665342e+183
-1.3105502e+183
-1.3479461e+183
-1.3707961e+183
-1.3728831e+183
-1.3503436e+183
-1.266329e+183
-1.209949e+183
-1.2664751e+183
-1.3113239e+183
-1.3513638e+183
-1.3514458e+183
-1.3297168e+183
-1.3261315e+183
-1.3071255e+183
-1.3031343e+183
-1.1790858e+183
-1.2257036e+183
-1.2269956e+183
-1.1832503e+183
-1.2627589e+183
-1.2860654e+183
-1.2596759e+183
-1.2821827e+183
-1.3122926e+183
-1.311467e+183
-1.2628147e+183
-1.2653475e+183
-1.3306365e+183
-1.3083666e+183
-1.2641669e+183
-1.2240177e+183
-1.2873538e+183
-1.1753477e+183
-1.3583021e+183
-1.3267385e+183
-1.3036397e+183
-1.3068496e+183
-1.3295653e+183
-1.3538501e+183
-1.3769042e+183
-1.3583567e+183
-1.2823427e+183
-1.2593086e+183
-1.2252282e+183
-1.2854258e+183
-1.2611489e+183
-1.1777829e+183
-1.1775264e+183
-1.2251635e+183
-1.287087e+183
-1.2627288e+183
-1.2876676e+183
-1.263925e+183
-1.3081995e+183
-1.3306995e+183
-1.3312276e+183
-1.3087884e+183
-1.3635426e+183
-1.3528948e+183
-1.3534552e+183
-1.3635651e+183
-1.3531048e+183
-1.3628496e+183
-1.3521329e+183
-1.3310176e+183
-1.3279232e+183
-1.3412895e+183
-1.3388262e+183
-1.3214647e+183
-1.3113692e+183
-1.3070435e+183
-1.3178885e+183
-1.1180877e+183
-1.1665271e+183
-1.2084844e+183
-1.2391253e+183
-1.237551e+183
-1.2095429e+183
-1.2687477e+183
-1.2636536e+183
-1.2807909e+183
-1.2755448e+183
-1.2910864e+183
-1.3016554e+183
-1.2858511e+183
-1.2970245e+183
-1.305368e+183
-1.3516259e+183
-1.349803e+183
-1.3531611e+183
-1.3089668e+183
-1.2554064e+183
-1.2595509e+183
-1.3348396e+183
-1.3334791e+183
-1.3133842e+183
-1.3118042e+183
-1.3347317e+183
-1.3351134e+183
-1.3126003e+183
-1.3131206e+183
-1.2159761e+183
-1.290599e+183
-1.2642899e+183
-1.2652739e+183
-1.2913551e+183
-1.2919588e+183
-1.2658569e+183
-1.2660348e+183
-1.2200074e+183
-1.2905125e+183
-1.1634004e+183
-1.169317e+183
-1.3317443e+183
-1.3417373e+183
-1.3224312e+183
-1.3125035e+183
-1.2825961e+183
-1.2704194e+183
-1.2397021e+183
-1.2077441e+183
-1.2926487e+183
-1.3028636e+183
-1.267976e+183
-1.3130016e+183
-1.3649448e+183
-1.3320546e+183
-1.3090286e+183
-1.3149791e+183
-1.336878e+183
-1.3586057e+183
-1.3821864e+183
-1.3655665e+183
-1.3582835e+183
-1.3686067e+183
-1.2868174e+183
-1.262159e+183
-1.2374703e+183
-1.2097093e+183
-1.207542e+183
-1.2375744e+183
-1.2916836e+183
-1.2663596e+183
-1.1665157e+183
-1.114472e+183
-1.1640458e+183
-1.2382422e+183
-1.2067399e+183
-1.2079047e+183
-1.2395683e+183
-1.2998854e+183
-1.2878621e+183
-1.2916574e+183
-1.3028655e+183
-1.2761123e+183
-1.2631925e+183
-1.280133e+183
-1.2667632e+183
-1.2934371e+183
-1.293725e+183
-1.3043655e+183
-1.3041205e+183
-1.2691977e+183
-1.2822426e+183
-1.270573e+183
-1.2830669e+183
-1.3104015e+183
-1.3216361e+183
-1.323584e+183
-1.3130547e+183
-1.3429041e+183
-1.3318174e+183
-1.3332878e+183
-1.343757e+183
-1.3438056e+183
-1.3336574e+183
-1.3428876e+183
-1.332785e+183
-1.3242242e+183
-1.3234406e+183
-1.3141891e+183
-1.3135904e+183
-1.355419e+183
-1.3603478e+183
-1.3599429e+183
-1.3551592e+183
-1.3645142e+183
-1.3701449e+183
-1.3650291e+183
-1.3694614e+183
-1.3543568e+183
-1.359024e+183
-1.3534659e+183
-1.3579884e+183
-1.3624436e+183
-1.3635714e+183
-1.3685073e+183
-1.3673601e+183
-1.3618159e+183
-1.3528459e+183
-1.3521107e+183
-1.3567277e+183
-1.3573439e+183
-1.3331792e+183
-1.3376042e+183
-1.336086e+183
-1.3314525e+183
-1.3455406e+183
-1.3467368e+183
-1.3420244e+183
-1.3405751e+183
-1.3245153e+183
-1.3289364e+183
-1.3223515e+183
-1.327082e+183
-1.316057e+183
-1.3133066e+183
-1.3179945e+183
-1.3203432e+183
-1.1032995e+183
-1.1585613e+183
-1.2055621e+183
-1.234641e+183
-1.2548807e+183
-1.2328931e+183
-1.2511286e+183
-1.2785e+183
-1.2849322e+183
-1.2794564e+183
-1.2730499e+183
-1.2899941e+183
-1.2947795e+183
-1.2899017e+183
-1.2845876e+183
-1.2991057e+183
-1.30325e+183
-1.2993772e+183
-1.2946107e+183
-1.3117885e+183
-1.3073221e+183
-1.3038001e+183
-1.3087772e+183
-1.3284469e+183
-1.3056439e+183
-1.3074265e+183
-1.3302041e+183
-1.3525659e+183
-1.3516131e+183
-1.3620503e+183
-1.3629135e+183
-1.3496692e+183
-1.3506188e+183
-1.3601335e+183
-1.3611215e+183
-1.3539348e+183
-1.3531588e+183
-1.363394e+183
-1.3319849e+183
-1.3555994e+183
-1.3546976e+183
-1.3338658e+183
-1.3113308e+183
-1.3093784e+183
-1.2834657e+183
-1.2572806e+183
-1.2588978e+183
-1.2070656e+183
-1.2852706e+183
-1.2115159e+183
-1.2873324e+183
-1.2609172e+183
-1.2632229e+183
-1.2893092e+183
-1.1576765e+183
-1.1524355e+183
-1.3462803e+183
-1.3467933e+183
-1.3370733e+183
-1.3374873e+183
-1.3438348e+183
-1.3454466e+183
-1.3362189e+183
-1.334276e+183
-1.3196374e+183
-1.3200446e+183
-1.328863e+183
-1.3284976e+183
-1.3161744e+183
-1.3186223e+183
-1.327593e+183
-1.3254346e+183
-1.3468082e+183
-1.3467542e+183
-1.3555908e+183
-1.3372158e+183
-1.3372717e+183
-1.3468094e+183
-1.3469175e+183
-1.3375315e+183
-1.3373157e+183
-1.3192528e+183
-1.3193938e+183
-1.3283893e+183
-1.3284575e+183
-1.3200564e+183
-1.3196508e+183
-1.3285697e+183
-1.3288453e+183
-1.1983341e+183
-1.2355797e+183
-1.236378e+183
-1.1990618e+183
-1.299802e+183
-1.2995736e+183
-1.3099378e+183
-1.3101382e+183
-1.2740545e+183
-1.2739485e+183
-1.2884595e+183
-1.2886308e+183
-1.2745272e+183
-1.2888922e+183
-1.275177e+183
-1.2893894e+183
-1.3102944e+183
-1.2997689e+183
-1.3107687e+183
-1.3002742e+183
-1.3005039e+183
-1.3007188e+183
-1.3106393e+183
-1.3109858e+183
-1.2746922e+183
-1.2749289e+183
-1.2894609e+183
-1.2892732e+183
-1.2376162e+183
-1.273808e+183
-1.2746266e+183
-1.2886195e+183
-1.2865846e+183
-1.2393133e+183
-1.2049808e+183
-1.2012205e+183
-1.2968866e+183
-1.2993922e+183
-1.3069161e+183
-1.3094891e+183
-1.1520072e+183
-1.3335971e+183
-1.3379758e+183
-1.3422789e+183
-1.3469723e+183
-1.3294825e+183
-1.3251685e+183
-1.321163e+183
-1.316916e+183
-1.2958034e+183
-1.2910667e+183
-1.2561131e+183
-1.2859551e+183
-1.279551e+183
-1.2351933e+183
-1.300019e+183
-1.304269e+183
-1.3083297e+183
-1.312752e+183
-1.1772902e+183
-1.2231367e+183
-1.2222327e+183
-1.1721929e+183
-1.2686539e+183
-1.3170083e+183
-1.3698863e+183
-1.3875616e+183
-1.363214e+183
-1.3362093e+183
-1.3126077e+183
-1.3282896e+183
-1.3215176e+183
-1.3176616e+183
-1.3438413e+183
-1.3380188e+183
-1.3484052e+183
-1.3938781e+183
-1.3671999e+183
-1.3714255e+183
-1.3627328e+183
-1.37299e+183
-1.3775287e+183
-1.3633283e+183
-1.3585216e+183
-1.3679545e+183
-1.3730015e+183
-1.2894102e+183
-1.2631268e+183
-1.2381068e+183
-1.2083395e+183
-1.2066231e+183
-1.2392507e+183
-1.2968429e+183
-1.2943936e+183
-1.3068045e+183
-1.2691019e+183
-1.2817926e+183
-1.2682315e+183
-1.158925e+183
-1.0984505e+183
-1.1555444e+183
-1.2042942e+183
-1.2048862e+183
-1.2325235e+183
-1.250307e+183
-1.252755e+183
-1.2327883e+183
-1.2335016e+183
-1.254514e+183
-1.2560472e+183
-1.2349862e+183
-1.2950543e+183
-1.3013292e+183
-1.3046815e+183
-1.2985756e+183
-1.3118947e+183
-1.3065107e+183
-1.3095697e+183
-1.3143925e+183
-1.2878716e+183
-1.2740174e+183
-1.3004067e+183
-1.3058215e+183
-1.3064828e+183
-1.3020329e+183
-1.3063641e+183
-1.3054677e+183
-1.3024438e+183
-1.3016381e+183
-1.3106325e+183
-1.315286e+183
-1.3149515e+183
-1.3106271e+183
-1.3101732e+183
-1.3143365e+183
-1.3134999e+183
-1.3092371e+183
-1.2810417e+183
-1.273608e+183
-1.2781059e+183
-1.2855357e+183
-1.294103e+183
-1.2873675e+183
-1.2914493e+183
-1.2969405e+183
-1.2800271e+183
-1.2871599e+183
-1.2806519e+183
-1.2871799e+183
-1.2928295e+183
-1.2978886e+183
-1.2973382e+183
-1.2924702e+183
-1.3262473e+183
-1.3320898e+183
-1.331157e+183
-1.3275911e+183
-1.3217329e+183
-1.3233722e+183
-1.3168477e+183
-1.3190741e+183
-1.3357678e+183
-1.3406136e+183
-1.3365025e+183
-1.3409859e+183
-1.345402e+183
-1.3505997e+183
-1.3506477e+183
-1.3455884e+183
-1.3452505e+183
-1.3500646e+183
-1.3491062e+183
-1.3445616e+183
-1.3365319e+183
-1.3408242e+183
-1.3402709e+183
-1.3359581e+183
-1.3485127e+183
-1.3439603e+183
-1.3477561e+183
-1.3431482e+183
-1.3396826e+183
-1.3353251e+183
-1.3388124e+183
-1.3344467e+183
-1.3279604e+183
-1.3274606e+183
-1.3322861e+183
-1.3317328e+183
-1.3267884e+183
-1.3258946e+183
-1.3302326e+183
-1.3310894e+183
-1.3198055e+183
-1.3239196e+183
-1.3193197e+183
-1.3233667e+183
-1.3226849e+183
-1.3185327e+183
-1.321796e+183
-1.3176553e+183
-1.362976e+183
-1.3637324e+183
-1.3614613e+183
-1.3610722e+183
-1.3592863e+183
-1.3566816e+183
-1.3559935e+183
-1.3589106e+183
-1.365033e+183
-1.3658796e+183
-1.3681698e+183
-1.3672771e+183
-1.3705498e+183
-1.3731163e+183
-1.3721532e+183
-1.3696194e+183
-1.3575799e+183
-1.3553063e+183
-1.3543687e+183
-1.3565739e+183
-1.3611232e+183
-1.3621586e+183
-1.3588162e+183
-1.3599538e+183
-1.3537561e+183
-1.3559511e+183
-1.3554377e+183
-1.3532603e+183
-1.3598976e+183
-1.3604298e+183
-1.3575725e+183
-1.3581082e+183
-1.3626477e+183
-1.3650159e+183
-1.3644854e+183
-1.3621218e+183
-1.3633319e+183
-1.3642843e+183
-1.3665436e+183
-1.3656629e+183
-1.367988e+183
-1.3688573e+183
-1.3713774e+183
-1.3705017e+183
-1.3698786e+183
-1.3673583e+183
-1.3668363e+183
-1.369345e+183
-1.3618144e+183
-1.3641823e+183
-1.3639477e+183
-1.3615544e+183
-1.3529233e+183
-1.3550922e+183
-1.3547214e+183
-1.3525536e+183
-1.3522109e+183
-1.354371e+183
-1.3537431e+183
-1.3516697e+183
-1.359193e+183
-1.3591414e+183
-1.3559353e+183
-1.3565852e+183
-1.3592681e+183
-1.3595748e+183
-1.3568801e+183
-1.3572344e+183
-1.3353199e+183
-1.3394576e+183
-1.3479931e+183
-1.3437096e+183
-1.354027e+183
-1.352031e+183
-1.3595408e+183
-1.3273024e+183
-1.331285e+183
-1.3198185e+183
-1.3234996e+183
-1.0907923e+183
-1.1983388e+183
-1.2022145e+183
-1.2372305e+183
-1.2573263e+183
-1.2700715e+183
-1.2657269e+183
-1.2541837e+183
-1.2873175e+183
-1.2937286e+183
-1.2983651e+183
-1.3021874e+183
-1.3056496e+183
-1.3089556e+183
-1.3161231e+183
-1.312397e+183
-1.3489739e+183
-1.3307954e+183
-1.329977e+183
-1.3399359e+183
-1.3408082e+183
-1.3209005e+183
-1.3116275e+183
-1.312323e+183
-1.321634e+183
-1.3143552e+183
-1.3131451e+183
-1.3224671e+183
-1.323683e+183
-1.3417542e+183
-1.3315938e+183
-1.3327711e+183
-1.342789e+183
-1.3570733e+183
-1.3573841e+183
-1.3522703e+183
-1.3519004e+183
-1.3561551e+183
-1.3566597e+183
-1.3514878e+183
-1.3510268e+183
-1.3610705e+183
-1.3664159e+183
-1.3615571e+183
-1.3668279e+183
-1.3619428e+183
-1.3672031e+183
-1.3622629e+183
-1.3675297e+183
-1.3541208e+183
-1.3546227e+183
-1.3489257e+183
-1.3493667e+183
-1.3551035e+183
-1.3556851e+183
-1.3498521e+183
-1.3504952e+183
-1.3590858e+183
-1.3644154e+183
-1.3596249e+183
-1.364978e+183
-1.3600962e+183
-1.3654666e+183
-1.360652e+183
-1.3660012e+183
-1.3580898e+183
-1.3585367e+183
-1.3444926e+183
-1.3536327e+183
-1.3531276e+183
-1.3575174e+183
-1.3577646e+183
-1.3435557e+183
-1.3527284e+183
-1.3524565e+183
-1.3623769e+183
-1.367652e+183
-1.3625897e+183
-1.3336128e+183
-1.3347819e+183
-1.3597589e+183
-1.3601598e+183
-1.3464293e+183
-1.3554339e+183
-1.3550081e+183
-1.3589039e+183
-1.3593555e+183
-1.3454448e+183
-1.3545316e+183
-1.3540536e+183
-1.3359031e+183
-1.3369394e+183
-1.3270036e+183
-1.3175761e+183
-1.3187752e+183
-1.3280103e+183
-1.3246003e+183
-1.3153304e+183
-1.3164263e+183
-1.3257519e+183
-1.3022674e+183
-1.2917504e+183
-1.2925787e+183
-1.3029076e+183
-1.2279735e+183
-1.2667721e+183
-1.266983e+183
-1.2809153e+183
-1.2815106e+183
-1.2822852e+183
-1.2676592e+183
-1.2690842e+183
-1.2833189e+183
-1.2291421e+183
-1.1892551e+183
-1.1900207e+183
-1.3035926e+183
-1.2930845e+183
-1.294216e+183
-1.3048199e+183
-1.2312432e+183
-1.2339847e+183
-1.1921456e+183
-1.1959205e+183
-1.3059549e+183
-1.2953015e+183
-1.2963679e+183
-1.3069474e+183
-1.2700473e+183
-1.2843096e+183
-1.2710166e+183
-1.2854405e+183
-1.2723121e+183
-1.2739335e+183
-1.2881187e+183
-1.2867152e+183
-1.2974964e+183
-1.2989147e+183
-1.3093467e+183
-1.308037e+183
-1.1460105e+183
-1.1407259e+183
-1.3511457e+183
-1.3471028e+183
-1.3468411e+183
-1.3508517e+183
-1.3515358e+183
-1.3474232e+183
-1.3472991e+183
-1.3513569e+183
-1.3391766e+183
-1.3393664e+183
-1.3432695e+183
-1.3430365e+183
-1.3395197e+183
-1.3396016e+183
-1.343531e+183
-1.3434449e+183
-1.3489603e+183
-1.3447419e+183
-1.3435706e+183
-1.3480233e+183
-1.3504719e+183
-1.3464795e+183
-1.3456718e+183
-1.3497536e+183
-1.3426791e+183
-1.3387831e+183
-1.3378129e+183
-1.3417787e+183
-1.3351569e+183
-1.3366676e+183
-1.3407471e+183
-1.3394149e+183
-1.3245649e+183
-1.3247206e+183
-1.3283144e+183
-1.3281534e+183
-1.3248903e+183
-1.3250204e+183
-1.3285549e+183
-1.3284697e+183
-1.3319927e+183
-1.3357987e+183
-1.3357142e+183
-1.3319236e+183
-1.3316223e+183
-1.3317821e+183
-1.3355692e+183
-1.3354196e+183
-1.3193664e+183
-1.3214344e+183
-1.3251864e+183
-1.3233314e+183
-1.3229272e+183
-1.324079e+183
-1.327693e+183
-1.3265914e+183
-1.3350101e+183
-1.3311872e+183
-1.3301335e+183
-1.3339939e+183
-1.3327564e+183
-1.3288135e+183
-1.3270589e+183
-1.3311632e+183
-1.3515332e+183
-1.3473373e+183
-1.3473116e+183
-1.3515199e+183
-1.3598867e+183
-1.359908e+183
-1.3473543e+183
-1.347369e+183
-1.351555e+183
-1.3515468e+183
-1.3561975e+183
-1.3393139e+183
-1.3393888e+183
-1.3434055e+183
-1.3433676e+183
-1.343323e+183
-1.339252e+183
-1.3392611e+183
-1.3433131e+183
-1.3515025e+183
-1.3472626e+183
-1.3471904e+183
-1.3513945e+183
-1.3473822e+183
-1.3472246e+183
-1.3514015e+183
-1.3515092e+183
-1.3394971e+183
-1.3392282e+183
-1.3432638e+183
-1.3434638e+183
-1.3391431e+183
-1.3391985e+183
-1.3432581e+183
-1.3432003e+183
-1.3280397e+183
-1.3243447e+183
-1.3242663e+183
-1.3279515e+183
-1.3242888e+183
-1.3242103e+183
-1.3279198e+183
-1.3278882e+183
-1.3315244e+183
-1.3316201e+183
-1.3355225e+183
-1.3354155e+183
-1.3314361e+183
-1.3353365e+183
-1.3353558e+183
-1.3314485e+183
-1.3249286e+183
-1.3246041e+183
-1.3284334e+183
-1.328092e+183
-1.3243976e+183
-1.3243615e+183
-1.3279355e+183
-1.3279166e+183
-1.3313832e+183
-1.3352929e+183
-1.3352334e+183
-1.3313796e+183
-1.3314924e+183
-1.3353319e+183
-1.3356544e+183
-1.3318384e+183
-1.1952434e+183
-1.2305409e+183
-1.2555417e+183
-1.25611e+183
-1.2293246e+183
-1.2567899e+183
-1.2559112e+183
-1.2294881e+183
-1.2310184e+183
-1.1959247e+183
-1.3089022e+183
-1.308824e+183
-1.3129419e+183
-1.3130384e+183
-1.308824e+183
-1.3088996e+183
-1.3129861e+183
-1.312951e+183
-1.3166489e+183
-1.3166972e+183
-1.3205963e+183
-1.3205175e+183
-1.3204586e+183
-1.3166021e+183
-1.3167366e+183
-1.3205919e+183
-1.2852555e+183
-1.2932501e+183
-1.2844454e+183
-1.2928123e+183
-1.2928998e+183
-1.2840937e+183
-1.2926265e+183
-1.2843972e+183
-1.2990113e+183
-1.2986914e+183
-1.3042915e+183
-1.3041347e+183
-1.304087e+183
-1.2986113e+183
-1.2988324e+183
-1.3042035e+183
-1.284625e+183
-1.2929579e+183
-1.2932308e+183
-1.2849059e+183
-1.3042778e+183
-1.2988727e+183
-1.2989371e+183
-1.3042655e+183
-1.2852236e+183
-1.2935799e+183
-1.2941016e+183
-1.2860972e+183
-1.2997324e+183
-1.299399e+183
-1.3046306e+183
-1.305022e+183
-1.320726e+183
-1.3168527e+183
-1.3168832e+183
-1.3207439e+183
-1.313031e+183
-1.3089093e+183
-1.3088903e+183
-1.3130528e+183
-1.3209657e+183
-1.3171076e+183
-1.3174901e+183
-1.3213075e+183
-1.3133056e+183
-1.3092064e+183
-1.3096357e+183
-1.3137377e+183
-1.3096389e+183
-1.3097995e+183
-1.313819e+183
-1.3136517e+183
-1.3098852e+183
-1.3099164e+183
-1.3139717e+183
-1.3139316e+183
-1.3172079e+183
-1.3173541e+183
-1.3210657e+183
-1.3209381e+183
-1.3175156e+183
-1.3176184e+183
-1.3213936e+183
-1.3212454e+183
-1.2568174e+183
-1.2851443e+183
-1.2847679e+183
-1.2933189e+183
-1.2934503e+183
-1.2570121e+183
-1.2849894e+183
-1.2856584e+183
-1.2938912e+183
-1.2935039e+183
-1.2995835e+183
-1.2998392e+183
-1.305268e+183
-1.3051696e+183
-1.3050571e+183
-1.2994571e+183
-1.2994695e+183
-1.3049738e+183
-1.2317387e+183
-1.2315367e+183
-1.2577545e+183
-1.2831397e+183
-1.2845174e+183
-1.2918256e+183
-1.2897058e+183
-1.2572626e+183
-1.2849693e+183
-1.2852627e+183
-1.2932963e+183
-1.2927989e+183
-1.2983982e+183
-1.2991478e+183
-1.3045264e+183
-1.3035397e+183
-1.3020574e+183
-1.2971087e+183
-1.2947257e+183
-1.2994506e+183
-1.2325159e+183
-1.2347389e+183
-1.3036453e+183
-1.3063732e+183
-1.3102371e+183
-1.3076381e+183
-1.3079661e+183
-1.3090871e+183
-1.3130893e+183
-1.3119021e+183
-1.3114177e+183
-1.3138623e+183
-1.317689e+183
-1.3154901e+183
-1.3154959e+183
-1.3166886e+183
-1.3204466e+183
-1.3192594e+183
-1.148807e+183
-1.2581321e+183
-1.2713248e+183
-1.1717691e+183
-1.2200054e+183
-1.2188322e+183
-1.1660047e+183
-1.2908383e+183
-1.2679072e+183
-1.2627651e+183
-1.3193587e+183
-1.3399761e+183
-1.3151548e+183
-1.372668e+183
-1.3683325e+183
-1.3662165e+183
-1.391152e+183
-1.3942049e+183
-1.3739364e+183
-1.398782e+183
-1.4025007e+183
-1.330447e+183
-1.3349909e+183
-1.3333831e+183
-1.327439e+183
-1.3255097e+183
-1.3376041e+183
-1.3231e+183
-1.3219963e+183
-1.3263477e+183
-1.3488926e+183
-1.3470959e+183
-1.3428137e+183
-1.3529608e+183
-1.3573906e+183
-1.3394438e+183
-1.344065e+183
-1.3537094e+183
-1.3487053e+183
-1.3946242e+183
-1.3912395e+183
-1.3684108e+183
-1.3706435e+183
-1.3730404e+183
-1.3706275e+183
-1.3659306e+183
-1.3755362e+183
-1.3737063e+183
-1.3842583e+183
-1.3810111e+183
-1.3608819e+183
-1.3635334e+183
-1.3682633e+183
-1.3656444e+183
-1.3779826e+183
-1.3729089e+183
-1.3702745e+183
-1.375339e+183
-1.3776875e+183
-1.3752655e+183
-1.3803707e+183
-1.3829051e+183
-1.3631452e+183
-1.3653045e+183
-1.3580667e+183
-1.3608512e+183
-1.3674186e+183
-1.3696753e+183
-1.3720483e+183
-1.3745788e+183
-1.2373765e+183
-1.2061072e+183
-1.2041659e+183
-1.2541166e+183
-1.2392849e+183
-1.2348958e+183
-1.2985665e+183
-1.3120596e+183
-1.3160719e+183
-1.2993539e+183
-1.3015639e+183
-1.3067325e+183
-1.2993927e+183
-1.3123599e+183
-1.3173329e+183
-1.2706824e+183
-1.2713681e+183
-1.2696647e+183
-1.2850103e+183
-1.2869898e+183
-1.1522332e+183
-1.2002662e+183
-1.2024179e+183
-1.0855902e+183
-1.1972613e+183
-1.2013227e+183
-1.1975053e+183
-1.2015077e+183
-1.2359789e+183
-1.2363028e+183
-1.2373668e+183
-1.2576136e+183
-1.2542805e+183
-1.2658402e+183
-1.2691694e+183
-1.2557979e+183
-1.257694e+183
-1.2716162e+183
-1.2589556e+183
-1.2724538e+183
-1.3113494e+183
-1.3040773e+183
-1.3166822e+183
-1.3208728e+183
-1.2953078e+183
-1.294138e+183
-1.3017821e+183
-1.2785376e+183
-1.2796464e+183
-1.2881021e+183
-1.3077e+183
-1.3114148e+183
-1.3100982e+183
-1.3132649e+183
-1.314116e+183
-1.3115997e+183
-1.3119711e+183
-1.3138782e+183
-1.3132016e+183
-1.3080645e+183
-1.3073891e+183
-1.3097704e+183
-1.3096052e+183
-1.3104806e+183
-1.3110309e+183
-1.3125431e+183
-1.3119502e+183
-1.3093435e+183
-1.3100858e+183
-1.3115363e+183
-1.3108525e+183
-1.3079871e+183
-1.3077535e+183
-1.3090987e+183
-1.3094492e+183
-1.3063334e+183
-1.3074687e+183
-1.3087077e+183
-1.3078647e+183
-1.3161117e+183
-1.3156713e+183
-1.3177908e+183
-1.3182006e+183
-1.3196612e+183
-1.3215834e+183
-1.3216213e+183
-1.31997e+183
-1.3192559e+183
-1.3209971e+183
-1.3200454e+183
-1.3182267e+183
-1.3148695e+183
-1.3157176e+183
-1.3164394e+183
-1.3174304e+183
-1.3134707e+183
-1.3141828e+183
-1.3157791e+183
-1.3150759e+183
-1.3168249e+183
-1.3175339e+183
-1.3194088e+183
-1.3187765e+183
-1.3184627e+183
-1.3164734e+183
-1.3158893e+183
-1.317885e+183
-1.3124031e+183
-1.3130488e+183
-1.314673e+183
-1.3140362e+183
-1.2871845e+183
-1.2952619e+183
-1.2903945e+183
-1.2942832e+183
-1.2987831e+183
-1.3029402e+183
-1.3000008e+183
-1.2974247e+183
-1.3013611e+183
-1.3046444e+183
-1.302616e+183
-1.3050869e+183
-1.3061685e+183
-1.2974279e+183
-1.290746e+183
-1.2929784e+183
-1.2959476e+183
-1.297453e+183
-1.2968083e+183
-1.2994398e+183
-1.299394e+183
-1.2957596e+183
-1.2954006e+183
-1.2917753e+183
-1.2887846e+183
-1.2969809e+183
-1.2992162e+183
-1.2973888e+183
-1.2946981e+183
-1.303333e+183
-1.3017456e+183
-1.3011686e+183
-1.3028851e+183
-1.3045548e+183
-1.3049687e+183
-1.306303e+183
-1.30611e+183
-1.3058393e+183
-1.3041841e+183
-1.3027845e+183
-1.3046519e+183
-1.3011358e+183
-1.3025593e+183
-1.3008857e+183
-1.2993075e+183
-1.3341125e+183
-1.3338796e+183
-1.3364702e+183
-1.3361044e+183
-1.3318841e+183
-1.3284776e+183
-1.3250172e+183
-1.3382981e+183
-1.3404293e+183
-1.3407029e+183
-1.3387569e+183
-1.3427186e+183
-1.3425586e+183
-1.3447909e+183
-1.344743e+183
-1.3518508e+183
-1.3542433e+183
-1.353783e+183
-1.3514255e+183
-1.3468874e+183
-1.3470975e+183
-1.3490913e+183
-1.3494459e+183
-1.3464065e+183
-1.3457674e+183
-1.3478187e+183
-1.348517e+183
-1.3508013e+183
-1.3531127e+183
-1.352212e+183
-1.3499853e+183
-1.3494072e+183
-1.351627e+183
-1.3511514e+183
-1.3489299e+183
-1.3448078e+183
-1.3452565e+183
-1.3468617e+183
-1.3473166e+183
-1.3383761e+183
-1.3378726e+183
-1.3405628e+183
-1.3398257e+183
-1.3417663e+183
-1.3423804e+183
-1.3443349e+183
-1.3437514e+183
-1.343284e+183
-1.3412492e+183
-1.3408068e+183
-1.3428509e+183
-1.3393118e+183
-1.3373359e+183
-1.3368799e+183
-1.3388763e+183
-1.3504444e+183
-1.3508235e+183
-1.3486035e+183
-1.3482302e+183
-1.3465285e+183
-1.3444709e+183
-1.3440798e+183
-1.3461448e+183
-1.3479159e+183
-1.3501236e+183
-1.3496269e+183
-1.3474382e+183
-1.3432292e+183
-1.3437567e+183
-1.34533e+183
-1.3458356e+183
-1.3425235e+183
-1.34048e+183
-1.3400954e+183
-1.3421135e+183
-1.3385428e+183
-1.3365243e+183
-1.3361487e+183
-1.3381677e+183
-1.3417939e+183
-1.3397752e+183
-1.3391364e+183
-1.3412061e+183
-1.3378362e+183
-1.3357998e+183
-1.3350448e+183
-1.3371346e+183
-1.3323842e+183
-1.3306961e+183
-1.3303595e+183
-1.3320782e+183
-1.3315609e+183
-1.3297971e+183
-1.3291719e+183
-1.3310309e+183
-1.3339236e+183
-1.3342092e+183
-1.3358522e+183
-1.3362022e+183
-1.3329112e+183
-1.33343e+183
-1.3349329e+183
-1.3353708e+183
-1.3281388e+183
-1.3286693e+183
-1.3305572e+183
-1.3300737e+183
-1.3269561e+183
-1.3277326e+183
-1.3296437e+183
-1.3288647e+183
-1.3309267e+183
-1.3316632e+183
-1.3338751e+183
-1.3331797e+183
-1.3320163e+183
-1.3324535e+183
-1.3341479e+183
-1.3345422e+183
-1.3238478e+183
-1.3258269e+183
-1.3244686e+183
-1.3235467e+183
-1.3290114e+183
-1.3273672e+183
-1.3270885e+183
-1.3285828e+183
-1.3219058e+183
-1.3229232e+183
-1.3246166e+183
-1.3236524e+183
-1.3254166e+183
-1.32624e+183
-1.3279529e+183
-1.3273249e+183
-1.326809e+183
-1.3248501e+183
-1.3242842e+183
-1.3262721e+183
-1.3206111e+183
-1.3212554e+183
-1.3230492e+183
-1.3224597e+183
-1.3258702e+183
-1.3239245e+183
-1.3232757e+183
-1.3251296e+183
-1.3196706e+183
-1.3202955e+183
-1.322068e+183
-1.3215061e+183
-1.3635547e+183
-1.3617184e+183
-1.3601977e+183
-1.3597984e+183
-1.3569958e+183
-1.3586267e+183
-1.3590426e+183
-1.3655776e+183
-1.3677486e+183
-1.3725637e+183
-1.3701132e+183
-1.3578943e+183
-1.3557137e+183
-1.3547273e+183
-1.3568532e+183
-1.3613891e+183
-1.362432e+183
-1.3591321e+183
-1.3602585e+183
-1.354029e+183
-1.3561675e+183
-1.3556528e+183
-1.3535209e+183
-1.3601007e+183
-1.3606349e+183
-1.3578339e+183
-1.3583712e+183
-1.3629235e+183
-1.3652342e+183
-1.36472e+183
-1.3623991e+183
-1.3636539e+183
-1.3645995e+183
-1.3668071e+183
-1.3659305e+183
-1.3683018e+183
-1.3691576e+183
-1.371599e+183
-1.3707352e+183
-1.3700599e+183
-1.3676204e+183
-1.367112e+183
-1.3695408e+183
-1.3620975e+183
-1.3644157e+183
-1.3642717e+183
-1.3619299e+183
-1.3602619e+183
-1.3531621e+183
-1.3552929e+183
-1.3549853e+183
-1.3528614e+183
-1.3526404e+183
-1.3547365e+183
-1.3588972e+183
-1.3594744e+183
-1.359587e+183
-1.3561545e+183
-1.3570113e+183
-1.359566e+183
-1.3597848e+183
-1.3572121e+183
-1.3574958e+183
-1.3368836e+183
-1.338086e+183
-1.3357687e+183
-1.3408937e+183
-1.3420263e+183
-1.3400068e+183
-1.3489602e+183
-1.3500956e+183
-1.348023e+183
-1.3449357e+183
-1.3460352e+183
-1.3439738e+183
-1.3522343e+183
-1.3525447e+183
-1.3544527e+183
-1.3541945e+183
-1.3541371e+183
-1.3521975e+183
-1.3601492e+183
-1.3293091e+183
-1.3281429e+183
-1.3299588e+183
-1.3330283e+183
-1.3341969e+183
-1.3317431e+183
-1.3224227e+183
-1.3209919e+183
-1.3231232e+183
-1.3257642e+183
-1.324698e+183
-1.326433e+183
-1.2342572e+183
-1.2340449e+183
-1.2349995e+183
-1.236953e+183
-1.2618535e+183
-1.2773573e+183
-1.2929558e+183
-1.2945266e+183
-1.297625e+183
-1.2996849e+183
-1.3005408e+183
-1.303012e+183
-1.3038689e+183
-1.3045466e+183
-1.3058987e+183
-1.3081064e+183
-1.3070434e+183
-1.3071507e+183
-1.3113091e+183
-1.3092816e+183
-1.3101818e+183
-1.3129221e+183
-1.3137274e+183
-1.3123992e+183
-1.3191704e+183
-1.3181038e+183
-1.3197222e+183
-1.3159468e+183
-1.3165943e+183
-1.3151193e+183
-1.35798e+183
-1.3586249e+183
-1.353061e+183
-1.3536548e+183
-1.3485137e+183
-1.3479803e+183
-1.3327265e+183
-1.332175e+183
-1.3364814e+183
-1.3370668e+183
-1.3317453e+183
-1.3314774e+183
-1.3356929e+183
-1.3360142e+183
-1.3444967e+183
-1.3399133e+183
-1.3402753e+183
-1.3448856e+183
-1.3413826e+183
-1.3407391e+183
-1.3453612e+183
-1.3460258e+183
-1.3274628e+183
-1.3233932e+183
-1.3236222e+183
-1.3276826e+183
-1.3197006e+183
-1.3159941e+183
-1.3162092e+183
-1.3199228e+183
-1.3169933e+183
-1.3165244e+183
-1.3202949e+183
-1.3207814e+183
-1.3280703e+183
-1.3239768e+183
-1.3244835e+183
-1.3286089e+183
-1.319146e+183
-1.3184315e+183
-1.3222504e+183
-1.3229106e+183
-1.3178234e+183
-1.3173821e+183
-1.3211489e+183
-1.3216319e+183
-1.3290016e+183
-1.324843e+183
-1.32535e+183
-1.3294661e+183
-1.3300596e+183
-1.3259596e+183
-1.3266108e+183
-1.3306867e+183
-1.3465936e+183
-1.3419125e+183
-1.3423761e+183
-1.347027e+183
-1.3375211e+183
-1.3331314e+183
-1.3335981e+183
-1.3379917e+183
-1.3347224e+183
-1.3341444e+183
-1.3384916e+183
-1.3390061e+183
-1.3474427e+183
-1.3428136e+183
-1.3432893e+183
-1.347869e+183
-1.3564563e+183
-1.3565895e+183
-1.3593764e+183
-1.3595089e+183
-1.3596567e+183
-1.3597337e+183
-1.3567079e+183
-1.3567862e+183
-1.3527326e+183
-1.3524789e+183
-1.3554874e+183
-1.355718e+183
-1.3584317e+183
-1.3586531e+183
-1.3589497e+183
-1.3592007e+183
-1.3560002e+183
-1.3562589e+183
-1.3520877e+183
-1.3515674e+183
-1.3608948e+183
-1.3611175e+183
-1.3636247e+183
-1.3634106e+183
-1.3659493e+183
-1.3685747e+183
-1.3687678e+183
-1.3661525e+183
-1.3640927e+183
-1.3613821e+183
-1.3638482e+183
-1.3616297e+183
-1.3663535e+183
-1.3689579e+183
-1.3665936e+183
-1.3691798e+183
-1.361786e+183
-1.3619233e+183
-1.3642645e+183
-1.3644004e+183
-1.3668986e+183
-1.3693555e+183
-1.3694831e+183
-1.3667646e+183
-1.3620701e+183
-1.3621572e+183
-1.3646045e+183
-1.3645125e+183
-1.3670019e+183
-1.3671078e+183
-1.3695907e+183
-1.3697027e+183
-1.3534051e+183
-1.3536821e+183
-1.3563678e+183
-1.3566591e+183
-1.3569729e+183
-1.3572581e+183
-1.353951e+183
-1.3542179e+183
-1.3494397e+183
-1.3499527e+183
-1.3544725e+183
-1.3547246e+183
-1.3574903e+183
-1.3577336e+183
-1.3580168e+183
-1.35826e+183
-1.3550085e+183
-1.3552714e+183
-1.3504832e+183
-1.3510609e+183
-1.3616469e+183
-1.358826e+183
-1.3613292e+183
-1.3591302e+183
-1.3638581e+183
-1.3641789e+183
-1.3664571e+183
-1.3667836e+183
-1.362242e+183
-1.3594453e+183
-1.3619293e+183
-1.359747e+183
-1.3670746e+183
-1.3644558e+183
-1.3647784e+183
-1.3673907e+183
-1.3627551e+183
-1.3599798e+183
-1.3624976e+183
-1.3602341e+183
-1.3676549e+183
-1.3650352e+183
-1.3652891e+183
-1.3678968e+183
-1.3632255e+183
-1.3604932e+183
-1.3629805e+183
-1.3607326e+183
-1.368128e+183
-1.365508e+183
-1.365761e+183
-1.3683769e+183
-1.3573919e+183
-1.3575683e+183
-1.36022e+183
-1.3603843e+183
-1.3606293e+183
-1.3608474e+183
-1.357802e+183
-1.3580332e+183
-1.3488562e+183
-1.3444465e+183
-1.3451174e+183
-1.3494309e+183
-1.3540834e+183
-1.3535994e+183
-1.3568252e+183
-1.3568979e+183
-1.3597358e+183
-1.3597924e+183
-1.3599523e+183
-1.3600997e+183
-1.3570565e+183
-1.357225e+183
-1.3481059e+183
-1.3435633e+183
-1.3439247e+183
-1.3483994e+183
-1.3531932e+183
-1.3528699e+183
-1.3647094e+183
-1.3621667e+183
-1.3646499e+183
-1.3622238e+183
-1.3671619e+183
-1.3697541e+183
-1.3697904e+183
-1.367213e+183
-1.3649234e+183
-1.3623544e+183
-1.3647935e+183
-1.3624983e+183
-1.3393099e+183
-1.3350572e+183
-1.3354807e+183
-1.3397091e+183
-1.336982e+183
-1.3361342e+183
-1.3403146e+183
-1.3410574e+183
-1.3591982e+183
-1.3594026e+183
-1.3619009e+183
-1.362094e+183
-1.3623337e+183
-1.3625179e+183
-1.3596226e+183
-1.3598034e+183
-1.3509159e+183
-1.3467162e+183
-1.3472105e+183
-1.3513805e+183
-1.3560132e+183
-1.3555973e+183
-1.3582209e+183
-1.3584371e+183
-1.3610023e+183
-1.3612095e+183
-1.3614857e+183
-1.361729e+183
-1.3587119e+183
-1.3589775e+183
-1.3498998e+183
-1.3456196e+183
-1.3461654e+183
-1.3503993e+183
-1.3550945e+183
-1.3545381e+183
-1.3416147e+183
-1.3376166e+183
-1.3382101e+183
-1.3421907e+183
-1.3392633e+183
-1.3387769e+183
-1.3427755e+183
-1.3432609e+183
-1.3338187e+183
-1.3298689e+183
-1.3304864e+183
-1.3343856e+183
-1.3261355e+183
-1.3223191e+183
-1.3230148e+183
-1.3268093e+183
-1.3241663e+183
-1.3235969e+183
-1.3273535e+183
-1.3278844e+183
-1.3348978e+183
-1.3309861e+183
-1.331478e+183
-1.3353976e+183
-1.3310391e+183
-1.3269717e+183
-1.3274139e+183
-1.3314502e+183
-1.3232725e+183
-1.3195491e+183
-1.3199676e+183
-1.3237109e+183
-1.3215693e+183
-1.3206393e+183
-1.324421e+183
-1.3253744e+183
-1.3321171e+183
-1.3280876e+183
-1.3290532e+183
-1.3330534e+183
-1.3123291e+183
-1.3084541e+183
-1.3086218e+183
-1.3124849e+183
-1.3045818e+183
-1.3004468e+183
-1.3007158e+183
-1.3048173e+183
-1.3012475e+183
-1.3009404e+183
-1.305058e+183
-1.3053877e+183
-1.312714e+183
-1.3087908e+183
-1.3091792e+183
-1.3131687e+183
-1.2488923e+183
-1.2227353e+183
-1.2215439e+183
-1.2482198e+183
-1.2768253e+183
-1.276565e+183
-1.2849833e+183
-1.2853145e+183
-1.2769101e+183
-1.2778074e+183
-1.2853753e+183
-1.2851429e+183
-1.2908773e+183
-1.290757e+183
-1.2958827e+183
-1.2961161e+183
-1.2962874e+183
-1.2908845e+183
-1.2912891e+183
-1.2966446e+183