/*--------------------------------*- C++ -*----------------------------------*\
  =========                 |
  \\      /  F ield         | OpenFOAM: The Open Source CFD Toolbox
   \\    /   O peration     | Website:  https://openfoam.org
    \\  /    A nd           | Version:  7
     \\/     M anipulation  |
\*---------------------------------------------------------------------------*/
FoamFile
{
    version     2.0;
    format      ascii;
    class       surfaceScalarField;
    location    "2000";
    object      phi;
}
// * * * * * * * * * * * * * * * * * * * * * * * * * * * * * * * * * * * * * //

dimensions      [0 3 -1 0 0 0 0];

internalField   nonuniform List<scalar> 
100464
(
-5.8151731e+86
3.2319612e+87
3.0032506e+87
-6.3496172e+88
-4.0868411e+86
-2.091621e+86
-1.0637879e+88
-2.3364563e+86
5.9052243e+86
7.4110111e+86
-4.6495922e+86
3.5618617e+87
-5.6282729e+86
-6.194142e+88
-4.1809338e+86
3.3083034e+87
-3.6682261e+86
-6.99329e+87
3.9043837e+85
6.102367e+86
5.4587845e+86
-3.605677e+86
-1.5102585e+86
-6.0058712e+87
1.1539599e+87
-3.4471819e+86
-5.803787e+86
3.7925354e+87
3.0121762e+87
-2.4522618e+86
-1.9310031e+86
1.9317163e+86
-9.3582336e+87
1.7177798e+86
7.8140732e+86
2.4968853e+86
7.5332287e+86
1.0655265e+87
-8.6260146e+87
-8.4450054e+87
4.286881e+86
-3.2816842e+86
9.2016905e+86
5.7803642e+86
-5.0614529e+86
-5.0128451e+85
5.135758e+86
9.5565949e+86
-3.338131e+85
-1.0566755e+88
7.0340446e+86
-7.6661412e+87
3.5767342e+85
5.7337587e+86
-1.1146802e+86
-3.0381653e+86
6.8006157e+86
1.9701308e+87
-6.0024674e+85
4.868169e+86
-2.7303827e+87
9.9817396e+85
-2.8078664e+85
-3.6879767e+86
1.4229717e+86
-2.0969076e+87
-1.389392e+86
-2.588195e+87
1.0524376e+86
8.1277403e+85
7.2495631e+86
9.4793686e+85
-9.6393888e+87
8.3883608e+86
6.3955904e+85
3.6741239e+87
-7.8130944e+86
-6.6110363e+86
3.9195659e+87
6.9463744e+87
-9.0074969e+87
8.8990237e+86
1.4871782e+86
7.8073385e+86
9.8131795e+85
-3.8276524e+86
6.5894822e+86
6.0307927e+86
-4.4597325e+86
-2.942087e+85
-2.8285087e+87
1.1263311e+86
-1.0594329e+86
-1.584929e+86
1.3715451e+86
-2.621589e+87
-1.4062636e+86
1.4516247e+86
-1.3290685e+86
-5.2776541e+84
-2.031081e+87
-1.7660094e+85
-1.4216558e+86
-1.1147264e+86
1.274765e+86
9.782199e+85
-1.6745195e+87
8.0783715e+85
6.4582658e+83
-2.3541915e+87
-2.4053574e+85
1.3023358e+86
-1.4981989e+86
-1.0261749e+86
1.0815728e+86
-2.2524781e+87
9.9411268e+85
7.9404667e+87
-7.3145218e+85
5.6661202e+85
-8.5936388e+87
8.9285953e+85
-5.8441615e+86
2.3101005e+86
4.1256131e+86
1.0406739e+87
8.8832177e+86
3.8662461e+86
-5.3744931e+87
1.6302685e+87
1.2780576e+87
-8.2468394e+87
1.5607519e+87
-1.2732359e+86
7.847062e+85
-1.7157573e+87
9.3782247e+83
2.7017313e+85
1.7432107e+86
1.7336348e+86
-8.7158551e+85
2.422113e+85
-1.2100294e+86
1.2391538e+86
-6.6033554e+85
1.1402799e+86
1.3162034e+87
3.3953858e+86
-1.5835039e+87
2.4346585e+86
6.7473144e+86
-8.3920176e+87
6.1863451e+86
5.4758467e+86
-5.4582137e+86
-5.9783087e+86
-8.4513624e+87
7.8069588e+86
6.2516521e+86
5.8368981e+86
-5.0270259e+86
-5.8975566e+86
-6.3145289e+86
7.7786211e+86
-1.1023838e+88
7.7133729e+86
-2.014572e+85
-1.3078566e+86
7.4408287e+86
7.2863314e+86
-2.2315094e+85
-1.1486126e+86
-1.0743455e+88
6.3402119e+86
-2.0909995e+87
-1.2542192e+86
8.6762148e+85
6.9799239e+85
-1.5573624e+86
1.1729469e+86
-2.5213365e+87
-1.2258423e+86
8.7346482e+85
1.0920532e+86
1.1538203e+86
-1.6574542e+86
1.7479325e+87
-2.7197425e+85
1.2707411e+86
3.0162267e+86
1.6394628e+86
-2.4808801e+85
-1.9824103e+87
-7.7045761e+87
5.3044981e+86
-8.2904711e+85
1.1981879e+87
9.0169997e+86
5.8173337e+85
-9.8084276e+85
9.2001661e+85
2.024554e+86
-1.3902178e+86
1.1611599e+86
-8.3784566e+87
-1.1473309e+87
1.7494452e+87
-5.8046335e+86
5.7712632e+86
-1.1475679e+88
1.4854415e+87
-1.8641734e+87
-1.1644295e+85
-4.1374545e+86
1.3255801e+86
-7.4032357e+84
-2.5401418e+87
4.0292222e+86
1.6898462e+86
1.9285095e+87
-2.2763906e+87
-1.2465948e+86
1.6132294e+86
-1.0310669e+86
1.1183952e+86
2.1746255e+87
-8.893049e+85
-2.6731978e+87
1.068574e+86
1.4282127e+86
7.1524841e+85
-1.3789659e+86
-2.6699848e+87
9.2923904e+85
-1.8245483e+86
9.8915467e+85
-1.6124894e+87
8.052608e+85
-5.1948694e+86
2.3626683e+86
1.0966247e+86
1.1973694e+86
2.2021185e+86
-1.9673039e+87
-7.53654e+87
1.4322207e+86
7.5008788e+86
2.710828e+86
2.5569779e+86
9.3434525e+86
-1.623017e+87
1.0360705e+85
2.5562997e+86
7.3181875e+85
-1.8807705e+87
3.5819217e+86
-1.0283803e+86
3.7560484e+86
-8.589502e+87
7.5167831e+87
-8.262153e+87
3.8096834e+85
1.0184355e+87
3.682415e+86
3.993344e+86
1.0170746e+87
-1.7495111e+87
-1.8588609e+84
2.6056287e+87
1.0997978e+86
-7.0736051e+85
-1.2537787e+86
1.3214106e+86
1.589575e+85
-1.8484919e+87
1.4872069e+86
3.1001564e+84
1.7246468e+86
-1.9299177e+85
-1.5815613e+87
2.386711e+87
-1.3040517e+86
-1.3125624e+86
1.2858519e+86
1.3102427e+86
-1.7049931e+87
-5.6087836e+84
1.8352581e+86
-2.2992991e+85
1.6100694e+86
2.1721203e+87
4.2347717e+83
-1.1048573e+86
9.7207256e+85
1.1998586e+86
-1.8104565e+86
-1.6343877e+85
8.8972385e+85
-1.1557229e+86
-1.7457671e+86
1.1697467e+86
-1.9972763e+87
1.2814732e+86
-1.6368957e+86
1.2587032e+86
-1.4556444e+86
1.1901542e+86
1.2769429e+86
-1.7512515e+86
-1.5175268e+86
-4.6948192e+86
-2.2431875e+85
6.0157846e+84
-3.1205347e+85
-1.6983267e+85
-6.6513269e+86
5.4048052e+86
-1.4078781e+85
-6.9488893e+86
-2.9343287e+85
2.0268152e+85
2.602858e+85
-3.8163973e+85
-1.9800362e+85
-3.1390228e+85
2.1817469e+85
-2.447898e+85
2.7590279e+85
4.9772208e+86
-4.6409448e+84
-6.4603882e+86
-3.1412917e+85
2.8953515e+85
-2.946811e+85
3.0180541e+85
-2.7442835e+85
-2.631623e+85
2.938428e+85
2.913292e+85
-6.2686895e+86
-2.8041541e+85
-3.1374829e+85
2.7161247e+85
3.1787159e+85
1.6107105e+85
5.3905037e+86
-6.8401772e+86
-3.2728832e+84
-3.4895768e+85
2.8770959e+85
2.2744103e+85
-2.6650897e+85
4.7841079e+86
-6.8654314e+86
-1.2654591e+85
8.4484128e+84
3.2147248e+83
1.9982448e+85
2.5697636e+85
-3.482255e+85
-2.6532933e+85
-7.3863998e+84
-5.3914248e+86
1.0663915e+85
-1.0900824e+85
-3.6824825e+85
2.7900538e+85
-2.74904e+85
2.2010557e+85
2.2198806e+85
-6.7445321e+86
-1.9122422e+85
-3.9145641e+85
-2.8735134e+85
2.191747e+85
2.8378223e+85
4.7861929e+86
-6.6977963e+86
-1.1842169e+85
-1.7560995e+84
7.5448747e+87
-2.3659591e+87
-1.6957353e+87
1.2756845e+87
1.2058702e+87
1.46478e+87
-1.2820253e+86
1.1899887e+87
1.478713e+87
1.2763481e+87
-1.2492508e+86
1.0632977e+86
4.3049441e+86
-2.2129639e+86
1.2139683e+86
1.1943999e+86
2.5208499e+86
1.0782863e+86
2.2181211e+86
-9.1216931e+86
5.2614142e+86
4.7249589e+86
-2.1756204e+85
4.3850887e+86
4.1256896e+84
-4.8693629e+86
-9.0368757e+84
3.9906166e+85
3.8905901e+85
-2.7788724e+84
3.8988009e+86
6.402e+85
-4.7583619e+86
-1.4001734e+85
6.2481511e+86
-7.1637013e+84
-3.0169007e+85
3.0567485e+85
2.7708008e+85
-1.8925738e+85
6.2268263e+86
5.3633651e+85
5.1935808e+86
1.225086e+85
-1.3014213e+85
-3.8451261e+85
2.730899e+85
2.3586399e+85
-2.7226254e+85
1.1707075e+85
-1.8524723e+85
2.4831251e+85
-4.0742232e+85
-2.9277731e+85
2.0827001e+85
4.5757971e+86
1.3236145e+85
5.5368857e+84
-6.9734964e+86
-8.7078464e+87
6.1964635e+86
-5.5077051e+86
-6.8223071e+86
5.321768e+86
9.1838819e+85
-1.0078274e+86
-2.7718528e+87
-1.738169e+86
-1.6566458e+86
1.1599328e+86
9.9666092e+85
-2.7581063e+87
-1.4928288e+86
-1.6913724e+86
1.2669297e+86
1.1711724e+86
-1.6691872e+86
-1.5424466e+86
1.2258909e+86
-2.80251e+87
-8.6634995e+87
6.2159603e+86
5.1690641e+86
-6.7139223e+86
-5.8217126e+86
-6.9538453e+86
7.7299095e+86
-1.2116168e+86
-2.4145858e+86
-1.1355919e+88
6.8264553e+86
-1.1233726e+88
7.4685149e+86
-1.1872506e+86
-2.0159883e+86
6.3546699e+86
-3.8063454e+85
-2.0407645e+87
5.616951e+85
1.1825133e+86
1.0965618e+86
-1.6872636e+86
-1.6763224e+86
-1.9659533e+87
1.1001136e+86
1.0893836e+86
-1.7661969e+86
-1.670771e+86
-6.053256e+85
4.3758012e+85
-2.4772638e+87
-1.6848381e+86
-1.6601255e+86
1.173603e+86
1.2458952e+86
-2.3874706e+87
-1.6744191e+86
-1.7462059e+86
1.0643119e+86
1.0799087e+86
-6.1214441e+85
-2.0287904e+87
1.1507189e+86
1.1567491e+86
1.1422919e+86
-1.6160052e+86
-1.7218481e+86
-2.0320145e+87
1.1267149e+86
1.086163e+86
-1.6685537e+86
-1.6932458e+86
-8.164512e+85
-2.474261e+87
1.1091681e+86
-1.5991367e+86
-1.7257269e+86
1.237691e+86
1.2221497e+86
-2.5813373e+87
-1.6328359e+86
-1.647263e+86
1.2663172e+86
1.2305857e+86
-9.563569e+86
-8.5810915e+87
9.3286392e+86
-1.027394e+85
1.0103515e+87
9.0887059e+86
-1.8951493e+86
-1.7166227e+87
-1.1306634e+86
1.47148e+86
-1.4601363e+86
-1.3241443e+86
1.287588e+86
1.2928749e+86
-1.4084028e+86
2.233976e+86
-2.0866679e+87
-2.5752868e+85
-4.6875241e+85
1.7376296e+86
1.662081e+86
1.8353746e+87
-1.9165166e+86
-2.1944214e+87
-3.3073013e+85
1.8506299e+86
-4.4997675e+85
1.7208087e+86
-8.4480834e+85
1.3173625e+86
-1.4012163e+86
1.2347687e+86
-1.4555661e+86
-1.7023421e+87
-1.2176442e+86
-1.3710831e+86
-1.3320446e+86
1.331438e+86
1.2816442e+86
-1.8342734e+86
-3.5963312e+85
-2.0028755e+85
1.7440078e+86
1.7032726e+86
-2.021617e+87
1.6253586e+87
-3.5437219e+85
-1.4452092e+85
1.6966696e+86
1.5022086e+86
-1.8920224e+87
-8.3908291e+87
9.9788873e+86
8.2964232e+86
-1.5671881e+86
-4.2443005e+85
-1.4381571e+86
-1.3652725e+86
1.1257646e+86
1.2036661e+86
-1.4131735e+87
-9.0273442e+87
1.7029192e+87
-1.5623849e+87
-8.6931971e+87
-1.5552455e+87
5.2945199e+86
-6.7332199e+86
2.2038182e+85
-2.6698399e+85
-1.1693796e+85
-3.5051183e+85
2.6884637e+85
2.0813062e+85
-2.596714e+85
-8.0158992e+84
-3.5351079e+85
2.4713156e+85
-5.329429e+86
-2.8751218e+85
2.0589863e+85
-7.8421811e+84
2.588704e+85
-3.6636381e+85
-6.7367214e+86
-3.1107471e+85
1.9513428e+85
-8.1477254e+84
2.3689338e+85
-4.0805712e+85
-4.4680256e+86
6.3607557e+86
2.08406e+85
-2.7184914e+85
3.8592787e+85
2.9153162e+85
-3.3094389e+85
2.8488148e+85
-1.3526521e+85
6.1980855e+85
-5.0377297e+86
3.4904259e+85
-1.5664759e+85
-1.4153731e+87
6.0295003e+84
1.448623e+86
4.4354643e+86
2.196177e+86
4.6749213e+85
3.370445e+85
5.4637163e+86
5.2577998e+86
1.8900712e+85
-3.2288481e+85
1.3932274e+85
-4.0609425e+85
2.4575055e+85
-3.2666901e+85
1.8010532e+85
7.8620264e+84
-4.2410953e+85
2.2966102e+85
1.091342e+88
7.0658038e+86
-5.7297207e+85
-1.0550343e+88
1.3248605e+87
5.9836311e+86
-4.4865444e+86
1.3400596e+87
-5.9496325e+86
6.176725e+86
-1.1236064e+88
1.3375086e+87
6.6543181e+86
-5.3358721e+86
-2.0142898e+87
-6.1402236e+85
1.3341702e+86
-5.135087e+85
-2.3890801e+87
1.4647223e+86
2.5098667e+87
-2.3240575e+87
-1.4199686e+86
6.0552793e+85
8.0865573e+85
1.1818691e+86
-1.9344407e+86
6.3902223e+85
-1.4983277e+86
8.5114459e+85
-1.945989e+86
8.5734871e+85
2.1972633e+87
-9.5183653e+85
1.0159809e+86
-2.6917828e+87
1.3179862e+86
-2.5102335e+87
-1.8930253e+86
1.0133558e+86
-1.8174977e+86
9.8031573e+85
9.4397023e+85
5.1717519e+86
-2.9799218e+85
1.643665e+85
-6.6514535e+86
-1.8167775e+85
2.0032597e+85
-3.9969786e+85
1.6296005e+85
-2.8717287e+85
3.3940566e+83
-3.5589138e+85
2.1130614e+85
-1.6906873e+87
5.6452302e+85
1.8800437e+86
2.0500578e+86
2.095875e+86
-1.9423642e+87
-1.080961e+87
1.6264066e+86
-5.9141233e+86
2.9251796e+86
1.7319871e+86
-1.3126317e+87
-2.1915865e+85
3.5147164e+86
1.423725e+87
-1.4872524e+87
4.6670321e+85
4.4575482e+86
1.675857e+86
4.7235581e+86
-2.155835e+87
8.570111e+85
-1.0351613e+86
1.9868664e+86
-1.3767197e+86
1.0066164e+86
1.2858034e+86
-2.3701591e+85
-2.0896929e+87
2.6863551e+86
1.5253655e+86
-2.8993809e+85
-7.9019289e+87
-5.8866385e+86
1.3790642e+87
1.6129527e+87
1.7919303e+87
1.2823773e+87
7.2272899e+87
-2.4677216e+87
1.2773131e+87
1.1723822e+87
1.2475574e+87
1.4732838e+87
1.3779873e+87
-1.2947765e+87
3.9119052e+85
8.221538e+85
1.8627914e+86
2.3285434e+86
9.1839162e+85
-3.9691548e+85
4.3714059e+86
1.229576e+87
4.0877959e+86
1.0718623e+86
2.5168646e+86
2.390737e+86
1.0422728e+86
-4.6068764e+86
-1.6444854e+85
6.7292593e+86
-1.1198684e+83
-6.7917729e+84
-6.3653219e+86
8.3846561e+84
5.4415244e+86
-6.3088624e+86
-3.1898865e+85
-2.5335888e+85
2.149456e+85
2.484752e+85
-3.4542486e+85
-8.8545652e+84
7.1086958e+86
1.6045906e+85
-3.3114965e+85
-4.4974957e+85
1.9878114e+85
-4.1816407e+86
2.1885161e+85
3.7048138e+85
2.4772325e+85
3.7830394e+85
-5.0136776e+86
-4.2843064e+86
-2.3669723e+85
1.5564438e+85
1.6533522e+84
-4.7916182e+86
5.4551438e+85
7.5806793e+84
5.0783804e+86
-6.3866847e+86
-3.8938204e+85
2.546874e+85
2.2725171e+85
-4.8309502e+85
4.9233562e+86
-6.0147245e+86
2.2659628e+85
3.0714877e+85
-4.5135e+85
-3.5792076e+85
1.1257494e+85
6.6627233e+86
-4.7821606e+85
1.8755346e+85
2.2575997e+85
-4.347048e+85
6.4246787e+86
-4.1023737e+85
2.239494e+85
2.737837e+85
-3.512452e+85
4.6697431e+86
6.8028123e+84
-5.2029959e+86
2.9611588e+85
-8.9828325e+84
-1.5686648e+85
3.7625379e+85
5.0984864e+84
2.3720491e+85
-2.6058397e+85
-3.9681643e+85
2.5083206e+85
4.2841317e+86
-4.8212314e+86
-1.8390023e+85
3.3171851e+85
-1.2203713e+85
3.9067638e+85
-4.1037388e+85
2.4747234e+85
3.218675e+85
-3.001406e+85
4.7709897e+86
-3.3740583e+85
-2.2914792e+85
-2.6467778e+85
6.7340694e+86
-1.2079786e+85
-5.6026233e+86
7.1672226e+86
-1.0434853e+85
-3.7235237e+85
1.9601735e+85
1.4574793e+85
-4.9447668e+85
-8.4181899e+84
1.3726171e+85
1.7928087e+85
-3.7265349e+85
-5.0149458e+85
-4.6982547e+86
-2.5941055e+85
-1.6491231e+85
-3.605259e+85
-2.5770775e+85
5.5438189e+86
-4.3910741e+84
-3.5524644e+85
1.4721773e+85
-4.4353705e+85
2.1259159e+85
-8.7254382e+84
-3.3832166e+85
1.50313e+85
2.098243e+85
-4.2929305e+85
-5.0955336e+86
-2.6482423e+84
-3.6491784e+85
2.4761708e+85
2.8228963e+85
-3.0913883e+85
2.6336162e+84
-6.5837369e+86
-3.9420538e+85
2.2812194e+85
2.7732861e+85
-3.3017987e+85
-4.9802666e+86
3.0109892e+85
-2.9365686e+85
2.6058807e+85
-3.2101501e+85
-6.3682392e+86
3.0073847e+85
-3.1245252e+85
2.711022e+85
-3.3344937e+85
4.2710037e+84
-5.1755162e+86
-4.4845612e+85
-3.6130531e+85
1.9559798e+85
2.490422e+85
-5.022566e+86
-3.3878066e+85
-3.3979374e+85
2.6709898e+85
2.7644909e+85
1.0237296e+85
-4.857119e+85
1.9255254e+85
-4.0151261e+85
2.4407469e+85
2.4895473e+85
-3.8425834e+85
2.744441e+85
-3.434051e+85
1.053795e+86
-7.5273846e+84
-6.1099531e+84
-1.5088454e+86
-5.9090251e+84
1.4983768e+86
-1.8442285e+84
-1.1828847e+86
1.4420618e+86
-1.0476919e+85
5.7934786e+84
4.936259e+84
-3.7910448e+84
-2.2597846e+84
-6.9470112e+84
-1.5968307e+86
6.180361e+84
-4.3178499e+84
-5.3327773e+84
6.1206071e+84
6.1313831e+84
1.1347732e+86
-5.0971895e+84
-6.6854223e+84
-5.342449e+84
4.9005469e+84
5.4319029e+84
-1.0390715e+86
-5.7448702e+84
-6.4181036e+82
-1.1343292e+84
-5.8354069e+84
-5.1367979e+84
5.3077628e+84
5.5810208e+84
-6.70623e+84
1.0287704e+86
-2.832443e+84
-1.4361226e+86
8.6826248e+84
-4.6373651e+84
-4.9302953e+84
6.0928623e+84
-4.8491846e+84
1.239724e+86
5.3893941e+84
5.7362134e+84
-5.7054633e+84
-3.189639e+84
1.0129878e+86
-3.8113825e+84
-1.3155587e+86
-5.5098852e+84
6.8806976e+84
6.2195551e+84
-5.8223668e+84
1.2873221e+86
-4.3606516e+84
6.0665783e+84
6.7940039e+84
-5.6712639e+84
-4.9306487e+84
4.4081257e+84
9.8889465e+85
-4.8938612e+84
-4.7098574e+84
6.8628186e+84
6.0578766e+84
-5.3250705e+84
9.6669968e+85
-5.5852947e+84
-5.3076995e+84
5.7457007e+84
5.4444729e+84
-4.346064e+84
-5.6715961e+84
-5.418543e+84
6.0244756e+84
5.6302921e+84
6.8077163e+84
-4.798019e+84
-5.4653764e+84
5.896902e+84
-1.3038363e+86
-4.5903574e+84
7.0882175e+84
6.6139507e+84
-5.2249374e+84
-3.432128e+84
1.0367107e+86
-1.3482736e+86
-5.0053615e+84
7.2249571e+84
6.7099005e+84
-6.1939019e+84
1.0777552e+86
-1.4226057e+86
-6.0257024e+84
6.6536959e+84
3.0069571e+84
-6.3560208e+84
2.4448945e+84
3.426089e+84
7.0113217e+84
-9.2678509e+84
-6.9748019e+84
6.9125469e+84
7.0001748e+84
-5.8618573e+84
-4.8920169e+84
1.1461939e+86
1.0586195e+84
-1.4699479e+86
7.7539129e+83
-4.3541618e+84
3.2632168e+83
1.4352124e+86
2.7495925e+84
-3.2066483e+84
-1.1681416e+86
1.6383738e+86
-1.9145204e+84
-1.6624086e+86
-2.8639301e+84
-1.2507913e+84
-1.1358088e+86
-3.3284519e+84
-1.1139003e+86
2.6188104e+84
-5.1910592e+84
-6.2495792e+82
1.6944418e+84
-4.3231789e+84
-2.306062e+84
1.1763759e+86
2.9668791e+84
-1.5022764e+86
-3.0714645e+84
-4.1300191e+84
2.3178087e+84
2.7952108e+83
-4.0538796e+84
1.1876464e+86
-1.6901124e+86
-3.0280556e+84
-2.5579419e+84
4.7309867e+84
1.2023561e+86
-1.5342683e+86
-7.8882781e+84
-2.7969771e+84
1.2114934e+86
-1.7253535e+86
-3.7255421e+84
-3.3210686e+84
-3.1098918e+84
-3.7647015e+84
-1.1701187e+84
7.4669335e+87
7.9724788e+87
-2.6089997e+87
1.1652495e+87
1.4495901e+87
1.6556626e+87
1.265942e+87
-2.4882526e+86
1.6077196e+87
1.371589e+87
3.2050614e+86
2.9129381e+86
3.6009277e+86
9.7463333e+85
4.8976257e+86
3.837942e+86
3.3835603e+86
-3.4195554e+85
2.7170539e+85
1.0861547e+86
-5.1862337e+85
2.2295391e+85
1.668624e+85
5.4507638e+85
4.7195619e+85
1.4682401e+85
2.7269287e+86
9.8263644e+85
1.1166888e+86
1.040765e+86
-1.6897125e+84
-4.0038892e+84
-1.2271073e+86
1.5291049e+85
1.8018476e+83
1.439916e+86
-9.3682234e+84
9.1792058e+84
-1.0961849e+86
1.6775143e+86
9.4413798e+84
1.0839019e+85
-1.3845257e+86
1.1925013e+86
4.7335226e+84
-1.3150664e+85
2.9897417e+84
5.3243142e+84
1.5552455e+86
-1.0734212e+85
-2.9693219e+83
-1.2367485e+86
1.7651764e+86
1.0302268e+84
2.6994419e+84
1.2379235e+86
5.8812297e+84
-1.0197853e+85
-2.402299e+84
5.3558396e+84
1.5575953e+86
-8.3302848e+84
-1.6836184e+84
-1.2559003e+86
1.7583425e+86
-2.4011936e+84
-2.7058859e+84
-1.2269321e+86
6.4881557e+84
-9.2311736e+84
-3.1592343e+84
5.9487244e+84
-1.0631997e+85
-2.9925522e+84
1.2345152e+86
-3.6131399e+84
-3.7581367e+84
-2.1031547e+87
-1.0768705e+86
-1.7885798e+86
-1.5240114e+86
1.2023988e+86
1.0943134e+86
-1.1844559e+86
-2.6373167e+87
1.3546342e+86
-1.4863768e+86
-1.7889873e+86
1.1891576e+86
2.0881779e+87
-1.1093591e+86
-2.6564142e+87
-1.7842341e+86
-1.7014088e+86
1.2333701e+86
1.037226e+86
-1.1071429e+86
1.0703181e+86
-1.7144457e+86
-1.7859425e+86
9.4536307e+85
8.3075317e+84
4.9207227e+86
-1.2671522e+85
-6.2490721e+86
2.2995252e+85
1.9893129e+85
-4.0081415e+85
-3.942509e+85
5.003176e+86
8.9641642e+84
-6.3671833e+86
2.3977473e+85
2.3090178e+85
-4.0062479e+85
-3.6925726e+85
-1.0571646e+85
1.2671056e+85
-3.270617e+85
2.4982271e+85
-3.4959274e+85
2.449183e+85
-1.5941377e+85
-3.4246909e+85
2.4615253e+85
-3.4884645e+85
2.2036026e+85
-1.0976458e+85
4.9884609e+86
2.1129226e+85
-6.3364175e+86
2.5854716e+85
2.4273066e+85
-3.5688672e+85
-3.9078846e+85
5.0641021e+86
-6.4487063e+86
2.4132665e+85
2.1888067e+85
-3.8978858e+85
-3.973097e+85
-1.3500924e+85
-3.0626865e+85
2.6992568e+85
-3.374716e+85
2.5959036e+85
-3.3449864e+85
2.6419329e+85
-3.4681734e+85
2.3807045e+85
4.6668579e+84
-4.6463191e+84
2.4042065e+85
2.2020438e+85
-6.440755e+86
-3.9390946e+85
-3.865152e+85
5.0374431e+86
2.481488e+85
2.4223677e+85
-6.3959366e+86
-3.9215677e+85
-3.6222806e+85
-3.1928165e+85
2.5804074e+85
-3.4362654e+85
-8.1835936e+85
-2.1014217e+87
1.1075003e+86
1.1787646e+86
-1.5877744e+86
-1.7821934e+86
2.2435969e+84
2.3326032e+85
2.1292688e+85
-6.2175673e+86
-3.8852275e+85
-3.8628334e+85
2.3688353e+85
2.3487731e+85
-6.426755e+86
-3.965297e+85
-3.733832e+85
-2.0362725e+87
1.0030684e+86
1.1667345e+86
-1.6161294e+86
-1.7695358e+86
8.6600976e+85
-2.5482646e+87
1.1328955e+86
-1.7281857e+86
-1.7646272e+86
1.0090775e+86
-2.6259633e+87
1.3064073e+86
-1.53581e+86
-1.771265e+86
1.1810212e+86
-1.870931e+87
-1.4738957e+86
1.3436042e+86
-1.4119336e+86
-1.6084965e+86
1.236006e+86
-1.7923874e+86
-2.2647908e+87
-7.5258956e+85
-4.9441398e+85
1.7273831e+86
1.5287944e+86
1.9082854e+87
-1.9607715e+86
1.781898e+86
-5.3713835e+85
-7.3006425e+85
1.5482084e+86
-2.3391959e+87
-8.9332238e+86
-9.0404943e+87
9.9968725e+86
8.8600084e+86
-6.6134622e+85
-2.4600556e+86
-1.4009897e+86
1.2860892e+86
-1.4906611e+86
-1.6295377e+86
1.1063701e+86
-9.0615465e+87
1.0143269e+87
8.7158629e+86
-1.0757184e+86
-2.0500275e+86
-1.8567119e+87
-1.1096443e+86
1.3029388e+86
-1.439298e+86
-1.6104578e+86
1.231474e+86
-1.4384711e+86
-2.2548994e+87
-4.5317427e+85
1.739569e+86
-6.5257322e+85
1.638504e+86
1.803909e+87
-2.1513081e+87
-4.3759842e+85
-5.9737227e+85
1.5536781e+86
1.7348046e+86
-1.4807693e+86
-1.5604946e+86
1.1004472e+86
1.2137665e+86
1.3330684e+87
-9.3966416e+87
-1.6761733e+87
-9.8016255e+87
-1.5687778e+87
-1.0178836e+85
-5.0277483e+86
1.5043564e+85
2.3713474e+85
-3.8466887e+85
-3.5970978e+85
2.467859e+85
-4.9357443e+86
-7.8675497e+84
2.2609932e+85
-3.6695417e+85
-3.6047309e+85
2.5164136e+85
-1.2860649e+85
2.1007e+85
-6.5283778e+86
-3.6739028e+85
-3.9612397e+85
2.4018409e+85
2.5523315e+85
-6.3874905e+86
-1.1395453e+85
-3.6662096e+85
-3.7674463e+85
2.3321496e+85
2.7092265e+85
-8.7484772e+84
-4.9180472e+86
2.3622974e+85
-3.7792505e+85
-3.4098971e+85
2.5691512e+85
-4.9450343e+86
2.28984e+85
-3.6375984e+85
-3.5332265e+85
2.5922953e+85
1.4506108e+85
-6.4013314e+86
2.3856547e+85
-3.8345112e+85
-3.668339e+85
2.6682878e+85
-6.3212308e+86
-3.5147886e+85
-3.9205843e+85
2.4401011e+85
2.6006341e+85
-1.2115232e+85
5.0735778e+86
1.7853385e+85
-6.5168186e+86
-3.8907336e+85
-4.213949e+85
2.4731652e+85
2.6417348e+85
4.9753593e+86
-8.8013546e+84
-6.3812894e+86
-3.9319663e+85
-4.0202493e+85
2.3744763e+85
2.704401e+85
1.2405817e+85
-1.0899872e+85
-3.797434e+85
2.3260464e+85
2.6450224e+85
-3.7095087e+85
1.7747251e+85
-3.6714756e+85
-3.9763539e+85
2.4385863e+85
2.5860509e+85
-1.1202976e+85
4.9389547e+86
-6.2541117e+86
-3.8125798e+85
-4.2967331e+85
2.2825599e+85
2.5396625e+85
4.9678936e+86
-6.3336125e+86
-3.9113416e+85
-4.1592164e+85
2.2499528e+85
2.6807745e+85
8.9926934e+84
2.216071e+85
-3.96403e+85
-3.7077887e+85
2.6399484e+85
2.2757357e+85
-4.072689e+85
-3.6220477e+85
2.5103846e+85
1.3533594e+84
-5.0486687e+86
1.6208919e+84
2.485264e+85
-3.6704135e+85
-3.6788622e+85
2.3487871e+85
-4.9519866e+86
8.0372951e+84
-3.7020623e+85
-3.5634463e+85
2.4064965e+85
2.4895076e+85
9.4938574e+83
-1.4025555e+86
-7.7181732e+84
-6.1096526e+83
-6.4028831e+86
6.9445214e+84
-3.7822207e+85
-3.6296034e+85
2.5203055e+85
2.6070994e+85
4.4784074e+84
-6.5544652e+86
2.475647e+85
-3.9161846e+85
-3.7472951e+85
2.5183903e+85
3.6051135e+84
-4.9959057e+86
2.3062985e+85
-3.6846396e+85
-3.673154e+85
2.4395659e+85
-4.9374492e+86
-3.6051696e+85
-3.807634e+85
2.3197425e+85
2.2915897e+85
-7.7051637e+84
-6.3769406e+86
-3.6403713e+85
-3.8880824e+85
2.3833499e+85
2.4854541e+85
-6.4793697e+86
-3.7160732e+85
-3.7479885e+85
2.3972477e+85
2.6463246e+85
-2.5399964e+84
4.9984154e+86
-6.3620345e+86
6.3752174e+84
2.5427088e+85
-3.9175741e+85
-4.0235154e+85
2.6597035e+85
5.0974048e+86
2.5971157e+84
-6.5705443e+86
-4.0675361e+85
-4.1207504e+85
2.4699869e+85
2.6787246e+85
-2.5685824e+84
7.3942085e+84
-3.798232e+85
-3.504853e+85
2.5475279e+85
2.6052352e+85
1.8689574e+84
-3.8949681e+85
2.5097626e+85
2.4273839e+85
-3.8350354e+85
-5.7710363e+84
4.9398864e+86
-6.3321079e+86
-3.9038642e+85
-3.9392754e+85
2.5327323e+85
2.6012334e+85
5.0140048e+86
-6.4473386e+86
-3.9825538e+85
-3.8019148e+85
2.714777e+85
2.6130114e+85
5.9555652e+84
-3.7233582e+85
2.4395233e+85
2.6062025e+85
-3.721504e+85
-3.8416752e+85
2.4615631e+85
2.4536675e+85
-3.6326723e+85
1.6480064e+87
-3.3028168e+86
-1.7532158e+87
4.6312203e+86
-3.7904194e+85
-2.4290623e+86
3.0717065e+86
4.0214376e+85
2.1932511e+86
2.3847289e+86
9.4138339e+84
-1.6936406e+87
-3.3575593e+86
2.1545832e+86
2.435046e+86
3.1781427e+85
1.0195512e+85
-5.2181645e+86
-1.6402684e+87
-5.1351967e+85
9.8807508e+84
4.9683913e+86
-6.1579479e+86
-1.4821123e+85
-4.0279431e+85
-3.9719547e+85
3.0495722e+85
2.7385682e+85
4.8458758e+86
-5.9837998e+86
1.1968214e+85
-3.9581019e+85
-3.809532e+85
2.7938108e+85
2.9028784e+85
-5.5916155e+84
9.7026383e+84
-4.0078213e+85
-3.9022757e+85
2.5414401e+85
2.6718476e+85
-6.2435832e+84
2.6155839e+85
-4.1063084e+85
-4.0546849e+85
2.5178251e+85
-3.0334333e+85
4.2962526e+86
4.3940397e+85
-5.0526941e+86
-1.7625673e+85
3.7905883e+85
-2.1556917e+85
3.7562092e+85
4.4245868e+86
-2.6518027e+85
-5.2617759e+86
3.6211e+85
-1.9617253e+85
3.8227789e+85
-2.1794167e+85
-1.9213841e+85
2.6832092e+85
-3.1602079e+85
-3.3916416e+85
3.1171292e+85
3.1737151e+85
-2.114103e+85
3.190215e+85
-3.3457265e+85
-3.398262e+85
3.0336912e+85
4.5402629e+86
-2.0276365e+85
-5.337898e+86
-1.8467395e+85
3.8050636e+85
4.1225097e+85
-2.0359413e+85
-9.7086545e+84
6.2896388e+86
3.1718031e+85
-3.1976814e+85
-3.3795997e+85
3.2747806e+85
4.4643208e+86
-3.4936905e+85
-5.1928215e+86
-1.7674764e+85
3.8806351e+85
4.0031359e+85
-1.864993e+85
6.2014819e+86
-9.9736533e+84
-3.2283359e+85
-3.2914263e+85
3.2144283e+85
3.168309e+85
-4.9493464e+86
4.1733323e+82
2.7547307e+85
-3.8585906e+85
-4.0084841e+85
2.6775162e+85
-1.4641691e+84
2.8076295e+85
-3.7345571e+85
-3.9006866e+85
2.882679e+85
-4.891584e+86
6.6158859e+84
2.7765734e+85
-4.0731643e+85
-3.9217579e+85
2.5033781e+85
7.5271412e+84
2.7258635e+85
-3.9743449e+85
-3.8051819e+85
2.6978519e+85
-5.1327547e+84
4.8934824e+86
-6.034666e+86
6.9180313e+83
-3.7533429e+85
-3.9739904e+85
2.9886625e+85
2.8837661e+85
4.8517457e+86
-5.9630084e+86
-3.7829718e+85
-3.8777348e+85
2.6803375e+85
3.0119891e+85
-8.6209103e+84
6.8091073e+84
-3.8492647e+85
-4.135399e+85
2.56518e+85
2.681676e+85
-3.8844432e+85
-3.9923446e+85
2.4328734e+85
2.7644153e+85
2.4421378e+85
4.2907946e+86
-3.1063564e+85
-5.0114154e+86
-1.7533739e+85
-1.658482e+85
3.8987355e+85
3.7872344e+85
4.2660647e+86
-4.99546e+86
-1.8428973e+85
-1.635627e+85
3.7854047e+85
3.9326525e+85
-5.615609e+84
-3.1537124e+85
-3.1879496e+85
3.0527444e+85
3.3237527e+85
-1.0211655e+85
3.1993085e+85
-3.2582892e+85
-3.0932284e+85
3.2058237e+85
-3.080719e+86
-1.5602375e+87
2.1377574e+86
2.4024416e+86
4.4067848e+85
1.0738073e+85
3.2448347e+85
3.9854481e+86
-4.4835073e+86
-1.6084332e+85
-1.2789186e+85
3.8668576e+85
3.410628e+85
4.1660128e+86
-4.8038044e+86
-1.543983e+85
-1.3470877e+85
3.9861268e+85
3.9761334e+85
-1.6699494e+85
5.8920996e+86
-3.0014792e+85
-3.0717933e+85
3.0899635e+85
3.3379184e+85
5.7549327e+86
3.0067548e+85
-3.1808707e+85
-3.1532118e+85
2.843898e+85
-1.4461127e+87
2.0019689e+86
2.4183609e+86
5.1753458e+85
2.5420919e+85
4.3036673e+86
-3.7236291e+85
-3.8467645e+85
1.9181878e+84
4.715916e+86
-3.8055708e+85
-4.0514847e+85
2.5012601e+85
2.5657974e+85
4.7663688e+86
-3.7299735e+85
-3.9002059e+85
2.5725362e+85
2.9232218e+85
7.1444747e+82
-3.8645447e+85
-4.2723474e+85
2.3178637e+85
2.4737736e+85
-3.8713396e+85
-4.1143072e+85
2.3240304e+85
2.7138945e+85
1.3933474e+87
1.6831103e+87
1.5083709e+87
-3.0227155e+86
1.2032506e+86
-1.5210437e+86
-4.9117403e+83
-5.6445002e+84
1.4907657e+86
4.6321074e+83
-4.2445554e+84
1.1654644e+86
-2.7086189e+83
-4.8561329e+84
-1.3862399e+84
-4.6345793e+84
-1.2227393e+86
-1.6744335e+84
-4.826832e+84
-1.538859e+86
-2.3602361e+84
-5.6921384e+84
-1.2507677e+86
-2.8928851e+84
-5.3367526e+84
-1.5871004e+86
-4.853104e+84
-6.0448495e+84
-1.2782034e+86
1.6464725e+86
-6.4093817e+84
-2.3409726e+83
-1.5104679e+86
-7.2564917e+84
8.8069886e+82
-3.5280025e+86
3.3115528e+85
-3.3533509e+84
9.9766385e+85
4.268832e+84
4.6516629e+85
-1.1060287e+86
-3.6981136e+84
7.5998749e+84
1.7579894e+84
1.0487389e+85
-1.2767397e+86
3.5122983e+85
1.1718253e+86
1.3160729e+86
-6.1379713e+84
-4.1373297e+84
1.6261926e+86
-4.8086672e+84
-4.0293948e+84
1.2854521e+86
-6.1876112e+84
-5.762397e+84
-6.3265224e+84
-4.6303106e+84
9.9390891e+87
-2.8555889e+86
1.3153991e+87
1.0187622e+87
1.1656323e+87
-1.0420082e+88
8.6573834e+86
9.8990164e+85
1.3419421e+87
1.5127754e+87
1.079535e+88
6.8322186e+86
-9.8015922e+85
-1.0800098e+88
7.3568761e+86
1.0928868e+87
-1.1603016e+84
6.0562608e+86
-4.6428423e+86
1.1693709e+87
6.0082049e+86
-4.0237452e+86
-1.0859987e+88
1.237879e+87
-4.998067e+86
-5.7864396e+86
6.3878703e+86
6.5561194e+86
-2.1146571e+87
4.2063423e+84
1.3168046e+86
-1.047451e+86
-2.5554236e+87
1.1352242e+86
-1.9794777e+87
-8.6571994e+85
1.1331004e+86
-9.8584446e+85
-2.2996789e+87
1.0097456e+86
-5.2656387e+86
6.7445571e+86
-3.3758313e+85
1.4836291e+85
-4.9372931e+85
1.4897964e+85
-2.5708728e+85
2.3351068e+87
-2.1782548e+87
8.6798752e+85
-1.9605107e+86
7.8932402e+85
7.9109436e+85
-1.8603883e+86
-6.639189e+86
1.5698298e+85
-3.3550214e+85
-2.8503359e+85
-4.8529238e+85
1.5880943e+85
7.2399141e+85
-2.1348471e+86
-1.9213861e+86
8.5277563e+85
7.1362623e+85
5.2923704e+86
-3.1978374e+85
1.5322644e+85
-2.9272097e+85
-4.55548e+85
1.6331912e+85
-3.148133e+85
1.4580594e+85
-2.2144117e+85
1.5968396e+85
-4.3588007e+85
-2.6008104e+87
1.1811114e+86
-1.4602325e+86
-1.4927528e+86
9.6537636e+84
4.8230188e+86
-6.2934237e+86
-4.2771994e+85
-9.4688739e+84
2.0216304e+85
2.1649447e+85
-4.1540495e+85
-2.5324736e+87
-1.838014e+86
8.4431385e+85
-1.8611468e+86
1.0709798e+86
1.0664037e+86
4.7839074e+86
-6.2695671e+86
-3.858225e+85
-4.2293793e+85
1.9315435e+85
1.9863035e+85
4.6780129e+84
2.1253699e+85
-3.5722317e+85
-3.4944879e+85
2.0650157e+85
2.5249013e+84
-3.5281542e+85
-3.514237e+85
2.3127862e+85
2.1957342e+85
-1.1275912e+86
1.4061209e+86
3.6000225e+84
-6.697264e+84
-3.0775475e+84
-7.66263e+84
4.1729345e+84
3.5120276e+84
-7.1854901e+84
-1.4175923e+86
-7.5204571e+84
-9.5138264e+84
3.6281773e+84
1.0962473e+86
-6.6995568e+84
3.3727716e+84
6.2071757e+83
-7.228177e+84
4.1981958e+84
-6.8182993e+84
3.14483e+84
1.019777e+84
-7.0122169e+84
4.2621876e+84
-1.5809785e+87
2.180457e+85
1.307214e+86
2.043888e+86
1.5746186e+86
-1.8312571e+87
-1.4122729e+87
3.1224151e+86
3.1592447e+86
2.1078735e+86
4.4035488e+86
2.0942841e+87
-7.7294346e+85
4.3148381e+86
2.2386333e+85
1.5064214e+86
2.1141261e+86
3.542607e+86
5.0487341e+85
-2.0334124e+87
-1.3607504e+86
1.0642167e+86
1.0525194e+86
1.3748529e+86
-1.3743497e+86
5.1507194e+86
-6.1364478e+86
-3.1040151e+85
1.9920521e+85
-4.110749e+84
1.9683953e+85
-3.5167518e+85
1.670193e+85
-3.171303e+85
-7.6582262e+84
-4.3678873e+85
1.8051e+85
-1.9910561e+87
-3.1679428e+85
-2.3603906e+85
2.0402416e+86
1.4099555e+86
1.4093201e+86
-4.3094862e+86
-5.5148858e+84
1.240382e+85
2.5580947e+85
-4.785071e+86
3.0814513e+85
-7.831145e+87
-8.3485884e+86
1.8119358e+87
1.5391788e+87
1.6505962e+87
1.3325241e+87
1.8891895e+87
1.7249656e+87
6.7556242e+87
7.3158362e+87
8.1994643e+87
1.0479272e+87
1.3953478e+87
1.6053358e+87
1.2980078e+87
1.4539208e+87
1.1668894e+87
-4.5076145e+85
2.8854451e+86
3.2478781e+86
3.5490304e+86
5.1194368e+86
3.9802817e+86
3.1929175e+86
2.9879936e+86
4.8884722e+86
3.7620192e+86
3.5601453e+86
2.7622143e+86
3.9093625e+85
7.7831436e+85
4.3231441e+85
6.8543713e+85
-3.4007286e+86
3.1399452e+85
1.0559771e+86
1.125326e+85
1.0439468e+86
3.5053203e+86
-1.1243104e+85
9.8442553e+85