/*--------------------------------*- C++ -*----------------------------------*\
  =========                 |
  \\      /  F ield         | OpenFOAM: The Open Source CFD Toolbox
   \\    /   O peration     | Website:  https://openfoam.org
    \\  /    A nd           | Version:  7
     \\/     M anipulation  |
\*---------------------------------------------------------------------------*/
FoamFile
{
    version     2.0;
    format      ascii;
    class       volScalarField;
    location    "2000";
    object      pMean;
}
// * * * * * * * * * * * * * * * * * * * * * * * * * * * * * * * * * * * * * //

dimensions      [0 2 -2 0 0 0 0];

internalField   nonuniform List<scalar> 
33733
(
-1.6995587e+179
-1.7653616e+179
-1.6981088e+179
-1.7297996e+179
-1.723425e+179
-1.6540239e+179
-1.6997341e+179
-1.7013672e+179
-1.7316644e+179
-1.7038266e+179
-1.7250348e+179
-1.7700595e+179
-1.7914841e+179
-1.8019875e+179
-1.7787968e+179
-1.702321e+179
-1.6523885e+179
-1.6992736e+179
-1.7294736e+179
-1.7796537e+179
-1.7806535e+179
-1.7493705e+179
-1.7447776e+179
-1.729322e+179
-1.723514e+179
-1.6501605e+179
-1.6870943e+179
-1.678211e+179
-1.6454836e+179
-1.7068763e+179
-1.7197982e+179
-1.7037791e+179
-1.7172008e+179
-1.7379851e+179
-1.7389385e+179
-1.6988353e+179
-1.7043308e+179
-1.7498444e+179
-1.7300547e+179
-1.7081751e+179
-1.6864658e+179
-1.7187215e+179
-1.6488563e+179
-1.7770872e+179
-1.7446212e+179
-1.7215938e+179
-1.7288547e+179
-1.7527217e+179
-1.7803646e+179
-1.8018915e+179
-1.7947227e+179
-1.7104803e+179
-1.7024625e+179
-1.6854473e+179
-1.7171013e+179
-1.7034136e+179
-1.6505615e+179
-1.6534128e+179
-1.6874206e+179
-1.7179023e+179
-1.7074644e+179
-1.7190511e+179
-1.7068487e+179
-1.728277e+179
-1.7531573e+179
-1.7531995e+179
-1.7306717e+179
-1.8000217e+179
-1.7890514e+179
-1.7906763e+179
-1.8004412e+179
-1.7899029e+179
-1.7987875e+179
-1.7843583e+179
-1.7546381e+179
-1.7490454e+179
-1.7644564e+179
-1.7611953e+179
-1.7416122e+179
-1.7324e+179
-1.7275187e+179
-1.7376412e+179
-1.572001e+179
-1.6290479e+179
-1.7019895e+179
-1.7118304e+179
-1.6997776e+179
-1.6887182e+179
-1.7117247e+179
-1.7091625e+179
-1.7120418e+179
-1.7131702e+179
-1.7154461e+179
-1.7220274e+179
-1.7125887e+179
-1.7202385e+179
-1.7416375e+179
-1.7930065e+179
-1.7926501e+179
-1.7915734e+179
-1.7420934e+179
-1.6969565e+179
-1.6998707e+179
-1.7582052e+179
-1.7556092e+179
-1.7374362e+179
-1.7354542e+179
-1.760128e+179
-1.7605776e+179
-1.7392042e+179
-1.7386114e+179
-1.6734603e+179
-1.7265778e+179
-1.7076195e+179
-1.7095827e+179
-1.7253511e+179
-1.724984e+179
-1.7092896e+179
-1.7113828e+179
-1.6824e+179
-1.723138e+179
-1.6504841e+179
-1.654974e+179
-1.7540239e+179
-1.7635895e+179
-1.7411762e+179
-1.7324207e+179
-1.7141519e+179
-1.7144157e+179
-1.7093599e+179
-1.6981505e+179
-1.7163728e+179
-1.7229472e+179
-1.7106139e+179
-1.7369887e+179
-1.7859828e+179
-1.7528805e+179
-1.7299396e+179
-1.7407941e+179
-1.7658254e+179
-1.7904752e+179
-1.8126808e+179
-1.8082383e+179
-1.7978354e+179
-1.8095611e+179
-1.7136778e+179
-1.705093e+179
-1.7026871e+179
-1.6918451e+179
-1.690175e+179
-1.703443e+179
-1.7199295e+179
-1.7059129e+179
-1.6328656e+179
-1.5735842e+179
-1.626578e+179
-1.7079815e+179
-1.6936521e+179
-1.7038474e+179
-1.7127779e+179
-1.7192827e+179
-1.7078914e+179
-1.7097871e+179
-1.7197296e+179
-1.7049916e+179
-1.7028749e+179
-1.7046785e+179
-1.7038535e+179
-1.7134645e+179
-1.7173633e+179
-1.7234713e+179
-1.7253588e+179
-1.7077119e+179
-1.7075348e+179
-1.7098967e+179
-1.7107287e+179
-1.731841e+179
-1.7460777e+179
-1.7480502e+179
-1.7356115e+179
-1.7732412e+179
-1.7594404e+179
-1.7629949e+179
-1.7739299e+179
-1.7739317e+179
-1.7641532e+179
-1.7689347e+179
-1.7597596e+179
-1.7495669e+179
-1.746568e+179
-1.7382498e+179
-1.7373991e+179
-1.7966046e+179
-1.8003461e+179
-1.7992633e+179
-1.7972886e+179
-1.8081965e+179
-1.8130593e+179
-1.8086686e+179
-1.8111627e+179
-1.7940432e+179
-1.7972041e+179
-1.7907492e+179
-1.7936629e+179
-1.8013873e+179
-1.8059121e+179
-1.8090135e+179
-1.8046131e+179
-1.7984131e+179
-1.7879004e+179
-1.7845221e+179
-1.7885148e+179
-1.7909078e+179
-1.7587037e+179
-1.7614698e+179
-1.7593049e+179
-1.7559353e+179
-1.7701331e+179
-1.7719376e+179
-1.7691299e+179
-1.766179e+179
-1.748532e+179
-1.7511243e+179
-1.7449029e+179
-1.748483e+179
-1.7388128e+179
-1.7349293e+179
-1.7379784e+179
-1.7413188e+179
-1.5730857e+179
-1.6268626e+179
-1.7081109e+179
-1.7383732e+179
-1.7203677e+179
-1.7261693e+179
-1.714617e+179
-1.7158722e+179
-1.7121891e+179
-1.7087805e+179
-1.7104333e+179
-1.7131996e+179
-1.7139445e+179
-1.7101683e+179
-1.7077924e+179
-1.7198903e+179
-1.7226782e+179
-1.719177e+179
-1.7154408e+179
-1.7317946e+179
-1.7291402e+179
-1.7248267e+179
-1.7281177e+179
-1.7632113e+179
-1.7405881e+179
-1.7402668e+179
-1.7634501e+179
-1.7909012e+179
-1.7914161e+179
-1.8022596e+179
-1.8016896e+179
-1.7913125e+179
-1.7912682e+179
-1.8023881e+179
-1.8023088e+179
-1.7900908e+179
-1.7901897e+179
-1.801054e+179
-1.7629251e+179
-1.7896175e+179
-1.7895644e+179
-1.7622916e+179
-1.7397861e+179
-1.7406399e+179
-1.7274656e+179
-1.7072919e+179
-1.7076189e+179
-1.6646777e+179
-1.7272728e+179
-1.6696148e+179
-1.727292e+179
-1.7077272e+179
-1.7093025e+179
-1.7269464e+179
-1.647386e+179
-1.6446172e+179
-1.7684272e+179
-1.7690684e+179
-1.7592818e+179
-1.7598005e+179
-1.7658326e+179
-1.7673897e+179
-1.7579536e+179
-1.7563939e+179
-1.7387069e+179
-1.7394873e+179
-1.7478635e+179
-1.7472606e+179
-1.7349429e+179
-1.7369669e+179
-1.7458925e+179
-1.7439113e+179
-1.7713303e+179
-1.7714527e+179
-1.7856624e+179
-1.7618164e+179
-1.7617834e+179
-1.7708185e+179
-1.770264e+179
-1.7607509e+179
-1.7610855e+179
-1.7405833e+179
-1.7407353e+179
-1.7494606e+179
-1.7494728e+179
-1.7412214e+179
-1.74148e+179
-1.7493166e+179
-1.7488661e+179
-1.6874385e+179
-1.6981943e+179
-1.7035164e+179
-1.6876854e+179
-1.7263785e+179
-1.7251998e+179
-1.730298e+179
-1.7310173e+179
-1.7175728e+179
-1.7180816e+179
-1.7240934e+179
-1.7250554e+179
-1.7164139e+179
-1.7224301e+179
-1.7164259e+179
-1.721324e+179
-1.7305035e+179
-1.7248752e+179
-1.7296535e+179
-1.7240107e+179
-1.7238038e+179
-1.7236896e+179
-1.7289115e+179
-1.7289064e+179
-1.718005e+179
-1.7170972e+179
-1.7227408e+179
-1.7227563e+179
-1.7047869e+179
-1.718333e+179
-1.7176294e+179
-1.7218314e+179
-1.7192874e+179
-1.7105537e+179
-1.6992779e+179
-1.6901257e+179
-1.7202716e+179
-1.7222998e+179
-1.7259281e+179
-1.7280676e+179
-1.6194047e+179
-1.7577778e+179
-1.7612478e+179
-1.7681757e+179
-1.771788e+179
-1.751164e+179
-1.7482465e+179
-1.7413384e+179
-1.7384508e+179
-1.7128735e+179
-1.7113705e+179
-1.7189146e+179
-1.7101153e+179
-1.7125405e+179
-1.7351139e+179
-1.7200061e+179
-1.7236117e+179
-1.7295157e+179
-1.732385e+179
-1.6322238e+179
-1.6809127e+179
-1.692792e+179
-1.6492186e+179
-1.7105695e+179
-1.7440951e+179
-1.7946693e+179
-1.8208044e+179
-1.7975121e+179
-1.7616743e+179
-1.7375979e+179
-1.7523586e+179
-1.7482281e+179
-1.7389821e+179
-1.7771877e+179
-1.7682831e+179
-1.7817023e+179
-1.8445528e+179
-1.8160346e+179
-1.8177323e+179
-1.8079044e+179
-1.8203207e+179
-1.8299792e+179
-1.8057306e+179
-1.8015662e+179
-1.8151728e+179
-1.819706e+179
-1.7206017e+179
-1.7106032e+179
-1.7050737e+179
-1.6960255e+179
-1.6984522e+179
-1.7102586e+179
-1.7246714e+179
-1.7064687e+179
-1.7235628e+179
-1.7066997e+179
-1.6979155e+179
-1.6980693e+179
-1.6295151e+179
-1.5650237e+179
-1.6171233e+179
-1.7003828e+179
-1.7063043e+179
-1.7235206e+179
-1.7090927e+179
-1.7111489e+179
-1.7246712e+179
-1.7314332e+179
-1.7153288e+179
-1.7191285e+179
-1.7401778e+179
-1.7085112e+179
-1.7084475e+179
-1.7143773e+179
-1.7153586e+179
-1.7271362e+179
-1.7204296e+179
-1.7250824e+179
-1.7306379e+179
-1.7016595e+179
-1.6990565e+179
-1.7149711e+179
-1.7178585e+179
-1.7230233e+179
-1.7190067e+179
-1.7275499e+179
-1.7249747e+179
-1.725871e+179
-1.7228057e+179
-1.7273453e+179
-1.7316222e+179
-1.7364049e+179
-1.733504e+179
-1.7356024e+179
-1.7368167e+179
-1.7343615e+179
-1.7319556e+179
-1.6999128e+179
-1.6983044e+179
-1.704994e+179
-1.7023256e+179
-1.7060839e+179
-1.701685e+179
-1.7047028e+179
-1.7077892e+179
-1.7056763e+179
-1.707904e+179
-1.7147735e+179
-1.7123669e+179
-1.7138848e+179
-1.7163322e+179
-1.7155986e+179
-1.7148061e+179
-1.7521474e+179
-1.7580376e+179
-1.7570317e+179
-1.754808e+179
-1.7429715e+179
-1.7458207e+179
-1.7376594e+179
-1.741601e+179
-1.7671049e+179
-1.7719555e+179
-1.7681298e+179
-1.7723809e+179
-1.780682e+179
-1.7861276e+179
-1.7877422e+179
-1.781589e+179
-1.7815659e+179
-1.7863431e+179
-1.7820681e+179
-1.7789337e+179
-1.7695283e+179
-1.7726941e+179
-1.7707547e+179
-1.7683563e+179
-1.7792177e+179
-1.7760123e+179
-1.7753213e+179
-1.7724487e+179
-1.7682253e+179
-1.7653839e+179
-1.7645957e+179
-1.7619389e+179
-1.7563729e+179
-1.7577447e+179
-1.7599888e+179
-1.7596391e+179
-1.7549573e+179
-1.75163e+179
-1.7538961e+179
-1.7571824e+179
-1.7437015e+179
-1.7469006e+179
-1.7479503e+179
-1.7492773e+179
-1.7471868e+179
-1.7455185e+179
-1.7446289e+179
-1.7421455e+179
-1.8060614e+179
-1.8075906e+179
-1.8058327e+179
-1.8042993e+179
-1.8010608e+179
-1.8016723e+179
-1.7992091e+179
-1.7915947e+179
-1.8105929e+179
-1.8132277e+179
-1.8142588e+179
-1.8114837e+179
-1.8188212e+179
-1.8202387e+179
-1.8172177e+179
-1.8161099e+179
-1.7966944e+179
-1.7985055e+179
-1.7961111e+179
-1.7963335e+179
-1.8022039e+179
-1.8048113e+179
-1.8010424e+179
-1.8032782e+179
-1.7934697e+179
-1.7941832e+179
-1.7913401e+179
-1.7900505e+179
-1.7965191e+179
-1.7994982e+179
-1.7952385e+179
-1.7981182e+179
-1.8036927e+179
-1.8053677e+179
-1.8023849e+179
-1.8006954e+179
-1.8065313e+179
-1.8093227e+179
-1.8104455e+179
-1.8079156e+179
-1.8117376e+179
-1.8146777e+179
-1.815976e+179
-1.813005e+179
-1.8106166e+179
-1.8092427e+179
-1.8064054e+179
-1.8078279e+179
-1.7989112e+179
-1.8006647e+179
-1.798598e+179
-1.7962943e+179
-1.7880323e+179
-1.789574e+179
-1.7870175e+179
-1.7854092e+179
-1.7852726e+179
-1.7874886e+179
-1.7834924e+179
-1.7820612e+179
-1.7845421e+179
-1.791e+179
-1.7884746e+179
-1.7915285e+179
-1.7917751e+179
-1.7947572e+179
-1.7910227e+179
-1.7935797e+179
-1.7585145e+179
-1.7634202e+179
-1.7738918e+179
-1.7693384e+179
-1.7829993e+179
-1.7805352e+179
-1.7884945e+179
-1.7502874e+179
-1.7542923e+179
-1.740035e+179
-1.7450804e+179
-1.5700361e+179
-1.6954457e+179
-1.7074085e+179
-1.7483147e+179
-1.7427026e+179
-1.7186764e+179
-1.7131445e+179
-1.7332164e+179
-1.721384e+179
-1.7177682e+179
-1.7173674e+179
-1.7192192e+179
-1.7232943e+179
-1.7268806e+179
-1.7357179e+179
-1.7316526e+179
-1.7929099e+179
-1.7639691e+179
-1.7640429e+179
-1.7744104e+179
-1.7742657e+179
-1.7513481e+179
-1.7431513e+179
-1.7425164e+179
-1.7510864e+179
-1.742312e+179
-1.7426817e+179
-1.7511063e+179
-1.7506775e+179
-1.77439e+179
-1.7633944e+179
-1.7634187e+179
-1.7739149e+179
-1.7921875e+179
-1.7920348e+179
-1.788084e+179
-1.7882075e+179
-1.7924884e+179
-1.7922959e+179
-1.788349e+179
-1.788556e+179
-1.8014441e+179
-1.8059916e+179
-1.8013045e+179
-1.8057909e+179
-1.8011094e+179
-1.8057051e+179
-1.8010234e+179
-1.8055248e+179
-1.7925603e+179
-1.7923928e+179
-1.7885765e+179
-1.7882818e+179
-1.7923821e+179
-1.7924691e+179
-1.7883218e+179
-1.7885033e+179
-1.8016838e+179
-1.8063199e+179
-1.8017102e+179
-1.8063092e+179
-1.80162e+179
-1.8061797e+179
-1.8016348e+179
-1.8061129e+179
-1.7908827e+179
-1.7907634e+179
-1.773189e+179
-1.7869743e+179
-1.7869891e+179
-1.7914015e+179
-1.7910308e+179
-1.7733113e+179
-1.7871116e+179
-1.7874894e+179
-1.8003743e+179
-1.8048957e+179
-1.8000304e+179
-1.7632414e+179
-1.7636854e+179
-1.7900712e+179
-1.7899045e+179
-1.7729083e+179
-1.7862517e+179
-1.786317e+179
-1.7904668e+179
-1.7901666e+179
-1.7733276e+179
-1.7863536e+179
-1.7866279e+179
-1.7641e+179
-1.763413e+179
-1.7507755e+179
-1.7422562e+179
-1.7416888e+179
-1.7504127e+179
-1.7507412e+179
-1.7428558e+179
-1.7425879e+179
-1.750905e+179
-1.7308923e+179
-1.7253083e+179
-1.727164e+179
-1.7318065e+179
-1.6935223e+179
-1.7157372e+179
-1.7160589e+179
-1.722966e+179
-1.7245924e+179
-1.7230679e+179
-1.7158225e+179
-1.7157596e+179
-1.7224836e+179
-1.6952734e+179
-1.6780833e+179
-1.677087e+179
-1.7317061e+179
-1.7257113e+179
-1.7252777e+179
-1.731229e+179
-1.6968662e+179
-1.6994464e+179
-1.6793449e+179
-1.6852862e+179
-1.73087e+179
-1.7252316e+179
-1.7255439e+179
-1.7314296e+179
-1.7155051e+179
-1.7222247e+179
-1.7158305e+179
-1.7226981e+179
-1.7156103e+179
-1.7173274e+179
-1.7224163e+179
-1.7226317e+179
-1.7251985e+179
-1.7248221e+179
-1.7308535e+179
-1.7314859e+179
-1.6139559e+179
-1.6096132e+179
-1.7744837e+179
-1.7716322e+179
-1.771324e+179
-1.7742393e+179
-1.7753875e+179
-1.7723688e+179
-1.7718958e+179
-1.7749962e+179
-1.7614995e+179
-1.761714e+179
-1.7647946e+179
-1.764515e+179
-1.7618822e+179
-1.7623318e+179
-1.7654648e+179
-1.765045e+179
-1.7725363e+179
-1.7696248e+179
-1.7690496e+179
-1.7724486e+179
-1.7737982e+179
-1.7708977e+179
-1.7702449e+179
-1.7732506e+179
-1.7640255e+179
-1.761034e+179
-1.7601027e+179
-1.7634202e+179
-1.758533e+179
-1.7595725e+179
-1.7628076e+179
-1.7621657e+179
-1.7430237e+179
-1.7432284e+179
-1.7459627e+179
-1.7458888e+179
-1.7436787e+179
-1.744315e+179
-1.7468513e+179
-1.7463447e+179
-1.7531206e+179
-1.7554802e+179
-1.7550885e+179
-1.7527586e+179
-1.7523288e+179
-1.7524821e+179
-1.7548463e+179
-1.7547916e+179
-1.7396285e+179
-1.7407519e+179
-1.7436945e+179
-1.7426387e+179
-1.7413163e+179
-1.7423724e+179
-1.7454104e+179
-1.7443859e+179
-1.7543572e+179
-1.7517963e+179
-1.7508546e+179
-1.7534999e+179
-1.7527846e+179
-1.7501585e+179
-1.7490955e+179
-1.7518481e+179
-1.7773844e+179
-1.7740956e+179
-1.7738869e+179
-1.7771922e+179
-1.7942032e+179
-1.7942941e+179
-1.774454e+179
-1.7748692e+179
-1.7782347e+179
-1.7777835e+179
-1.7855849e+179
-1.7639929e+179
-1.7644915e+179
-1.7678088e+179
-1.7672975e+179
-1.7668372e+179
-1.7636755e+179
-1.7635972e+179
-1.7668261e+179
-1.7767229e+179
-1.7734922e+179
-1.773098e+179
-1.7763405e+179
-1.7727144e+179
-1.7728493e+179
-1.7760485e+179
-1.7758582e+179
-1.7625218e+179
-1.7624582e+179
-1.7657395e+179
-1.7657203e+179
-1.7626464e+179
-1.7630394e+179
-1.7663789e+179
-1.7659241e+179
-1.7482618e+179
-1.7454452e+179
-1.745017e+179
-1.7479236e+179
-1.7448096e+179
-1.7447219e+179
-1.7476101e+179
-1.7475276e+179
-1.7546018e+179
-1.7550958e+179
-1.7578572e+179
-1.7571932e+179
-1.7542002e+179
-1.7567406e+179
-1.7566075e+179
-1.7541347e+179
-1.7449292e+179
-1.7447518e+179
-1.7472047e+179
-1.7471335e+179
-1.7448577e+179
-1.7447829e+179
-1.7471585e+179
-1.7474704e+179
-1.7535829e+179
-1.7560936e+179
-1.7556026e+179
-1.753344e+179
-1.7530651e+179
-1.7554299e+179
-1.755522e+179
-1.7532428e+179
-1.688357e+179
-1.7261519e+179
-1.7142606e+179
-1.7129379e+179
-1.7237952e+179
-1.7153175e+179
-1.7148784e+179
-1.7260876e+179
-1.7301972e+179
-1.6896733e+179
-1.7281101e+179
-1.7284399e+179
-1.7307384e+179
-1.7308003e+179
-1.7283293e+179
-1.728069e+179
-1.7312121e+179
-1.7310857e+179
-1.7363096e+179
-1.7365107e+179
-1.7390834e+179
-1.7386582e+179
-1.7380699e+179
-1.7358555e+179
-1.735949e+179
-1.7382471e+179
-1.7254858e+179
-1.7236657e+179
-1.7270301e+179
-1.7260003e+179
-1.7253624e+179
-1.726078e+179
-1.7257716e+179
-1.7258139e+179
-1.721829e+179
-1.723035e+179
-1.7220185e+179
-1.7230357e+179
-1.7228692e+179
-1.7229692e+179
-1.7229533e+179
-1.7227175e+179
-1.7237424e+179
-1.7229525e+179
-1.7217932e+179
-1.7235755e+179
-1.7226122e+179
-1.7224188e+179
-1.7217992e+179
-1.7231419e+179
-1.7221465e+179
-1.722248e+179
-1.7206107e+179
-1.7229856e+179
-1.7207176e+179
-1.7221407e+179
-1.7228583e+179
-1.7221014e+179
-1.7381932e+179
-1.7361949e+179
-1.7361652e+179
-1.738216e+179
-1.7310402e+179
-1.7285165e+179
-1.7287793e+179
-1.7310832e+179
-1.7380286e+179
-1.7362618e+179
-1.7360125e+179
-1.7382607e+179
-1.7309265e+179
-1.7286622e+179
-1.7280654e+179
-1.7306622e+179
-1.726175e+179
-1.7269129e+179
-1.7292658e+179
-1.729006e+179
-1.7267957e+179
-1.7273196e+179
-1.7300734e+179
-1.7294821e+179
-1.7343651e+179
-1.7346145e+179
-1.7367727e+179
-1.7367145e+179
-1.7350623e+179
-1.7355601e+179
-1.7378829e+179
-1.7372978e+179
-1.7179251e+179
-1.7230083e+179
-1.7232095e+179
-1.7229468e+179
-1.7221254e+179
-1.7154065e+179
-1.7238859e+179
-1.7229533e+179
-1.7220576e+179
-1.7231253e+179
-1.7212856e+179
-1.7211397e+179
-1.7216952e+179
-1.7215394e+179
-1.72131e+179
-1.7211814e+179
-1.7204258e+179
-1.7205231e+179
-1.7311262e+179
-1.7308069e+179
-1.7217023e+179
-1.7179277e+179
-1.721614e+179
-1.7187014e+179
-1.7148153e+179
-1.7192569e+179
-1.7228748e+179
-1.7231425e+179
-1.7215508e+179
-1.720679e+179
-1.7183085e+179
-1.7194974e+179
-1.7197871e+179
-1.7187438e+179
-1.7170781e+179
-1.7160157e+179
-1.7141465e+179
-1.7158215e+179
-1.7344303e+179
-1.7401489e+179
-1.7221256e+179
-1.7231485e+179
-1.7269272e+179
-1.7256484e+179
-1.7244269e+179
-1.7255003e+179
-1.7286911e+179
-1.727747e+179
-1.7310278e+179
-1.7321841e+179
-1.7347815e+179
-1.7339007e+179
-1.732978e+179
-1.7338977e+179
-1.7363849e+179
-1.7354494e+179
-1.6081842e+179
-1.7374458e+179
-1.7146161e+179
-1.6293995e+179
-1.675427e+179
-1.6902106e+179
-1.6511367e+179
-1.7267649e+179
-1.7086939e+179
-1.7090317e+179
-1.7500009e+179
-1.7685936e+179
-1.743171e+179
-1.8007866e+179
-1.8060152e+179
-1.8035514e+179
-1.8276721e+179
-1.8318161e+179
-1.8058011e+179
-1.8539165e+179
-1.859474e+179
-1.7550041e+179
-1.7603659e+179
-1.7598298e+179
-1.7476835e+179
-1.7544224e+179
-1.7653143e+179
-1.7445504e+179
-1.7402806e+179
-1.7462762e+179
-1.7856557e+179
-1.7818939e+179
-1.7766824e+179
-1.7907933e+179
-1.7981357e+179
-1.7704328e+179
-1.7756124e+179
-1.790873e+179
-1.7852323e+179
-1.8600935e+179
-1.8543113e+179
-1.8230273e+179
-1.8234302e+179
-1.8280487e+179
-1.8229087e+179
-1.8185149e+179
-1.8253897e+179
-1.8283413e+179
-1.84327e+179
-1.8376126e+179
-1.8079913e+179
-1.8135295e+179
-1.8179325e+179
-1.8122974e+179
-1.8328162e+179
-1.8272939e+179
-1.8217945e+179
-1.8266055e+179
-1.8376223e+179
-1.8325966e+179
-1.8383439e+179
-1.8440652e+179
-1.8088509e+179
-1.8097814e+179
-1.8034268e+179
-1.8024028e+179
-1.8151737e+179
-1.8166039e+179
-1.8218866e+179
-1.8235779e+179
-1.7067839e+179
-1.6959847e+179
-1.6996924e+179
-1.7085813e+179
-1.7139286e+179
-1.7306492e+179
-1.7086292e+179
-1.7285193e+179
-1.7298349e+179
-1.728755e+179
-1.7104808e+179
-1.7089367e+179
-1.7068571e+179
-1.7234338e+179
-1.7308417e+179
-1.6993434e+179
-1.6967789e+179
-1.7049271e+179
-1.6994971e+179
-1.6997347e+179
-1.6183865e+179
-1.6892656e+179
-1.6857226e+179
-1.5597529e+179
-1.685958e+179
-1.699578e+179
-1.688018e+179
-1.7015612e+179
-1.7314843e+179
-1.73879e+179
-1.74123e+179
-1.7121277e+179
-1.7269421e+179
-1.7030769e+179
-1.7086657e+179
-1.7294148e+179
-1.7253335e+179
-1.7067101e+179
-1.7384602e+179
-1.7166187e+179
-1.7156034e+179
-1.709482e+179
-1.7277993e+179
-1.7345059e+179
-1.6997174e+179
-1.7015042e+179
-1.7052353e+179
-1.6967681e+179
-1.6900795e+179
-1.6941767e+179
-1.7115562e+179
-1.7237349e+179
-1.7178715e+179
-1.7223783e+179
-1.7274393e+179
-1.7375364e+179
-1.7310893e+179
-1.7343748e+179
-1.7384527e+179
-1.7280959e+179
-1.7208068e+179
-1.7305445e+179
-1.723506e+179
-1.7362808e+179
-1.7393965e+179
-1.7390699e+179
-1.736529e+179
-1.728092e+179
-1.7314656e+179
-1.7323252e+179
-1.7297967e+179
-1.73399e+179
-1.7335138e+179
-1.7330847e+179
-1.7340583e+179
-1.7267388e+179
-1.7299344e+179
-1.7287644e+179
-1.7264102e+179
-1.7348664e+179
-1.7314632e+179
-1.7334685e+179
-1.7376317e+179
-1.7382288e+179
-1.7403236e+179
-1.7458606e+179
-1.7437069e+179
-1.7493207e+179
-1.7510052e+179
-1.749655e+179
-1.7498487e+179
-1.7431598e+179
-1.739836e+179
-1.7457338e+179
-1.7430489e+179
-1.7402498e+179
-1.7440653e+179
-1.7447535e+179
-1.7405883e+179
-1.743638e+179
-1.7485491e+179
-1.749045e+179
-1.7449386e+179
-1.741929e+179
-1.7398034e+179
-1.7375392e+179
-1.7385533e+179
-1.7337602e+179
-1.7361505e+179
-1.7364445e+179
-1.7338953e+179
-1.6953237e+179
-1.7054312e+179
-1.6971906e+179
-1.6932468e+179
-1.6993042e+179
-1.7110864e+179
-1.7038745e+179
-1.7007535e+179
-1.7073874e+179
-1.7187821e+179
-1.711185e+179
-1.7133874e+179
-1.7183981e+179
-1.698562e+179
-1.7035965e+179
-1.6945519e+179
-1.7020202e+179
-1.7105552e+179
-1.7016692e+179
-1.7139714e+179
-1.7011999e+179
-1.7103035e+179
-1.7115658e+179
-1.7155601e+179
-1.7171296e+179
-1.7170613e+179
-1.7180805e+179
-1.7156969e+179
-1.7160132e+179
-1.7173025e+179
-1.7128067e+179
-1.7188157e+179
-1.7216365e+179
-1.7269917e+179
-1.7257216e+179
-1.7250526e+179
-1.7275947e+179
-1.7252264e+179
-1.724398e+179
-1.7200378e+179
-1.7213683e+179
-1.7179915e+179
-1.7204797e+179
-1.718422e+179
-1.7175636e+179
-1.7616253e+179
-1.7608984e+179
-1.7658901e+179
-1.7634357e+179
-1.7563026e+179
-1.7494899e+179
-1.7431566e+179
-1.7707591e+179
-1.7722759e+179
-1.7737239e+179
-1.7726644e+179
-1.778381e+179
-1.777014e+179
-1.7784791e+179
-1.7794663e+179
-1.7921524e+179
-1.7938802e+179
-1.7934894e+179
-1.792348e+179
-1.7851196e+179
-1.7849076e+179
-1.7866193e+179
-1.7866346e+179
-1.7855681e+179
-1.7848086e+179
-1.7857866e+179
-1.78696e+179
-1.7923297e+179
-1.7925925e+179
-1.7910751e+179
-1.7903564e+179
-1.7884222e+179
-1.7892778e+179
-1.7858467e+179
-1.7848085e+179
-1.7798056e+179
-1.7830527e+179
-1.7811176e+179
-1.7843356e+179
-1.7702752e+179
-1.7751603e+179
-1.7755245e+179
-1.7749215e+179
-1.7790782e+179
-1.7795617e+179
-1.7803312e+179
-1.7799009e+179
-1.7786525e+179
-1.7775542e+179
-1.7749869e+179
-1.7759501e+179
-1.7734057e+179
-1.7731356e+179
-1.7710481e+179
-1.771511e+179
-1.7809551e+179
-1.7836995e+179
-1.7825299e+179
-1.7798183e+179
-1.7786277e+179
-1.7771768e+179
-1.7745526e+179
-1.7759736e+179
-1.7790779e+179
-1.7806604e+179
-1.7770882e+179
-1.7760304e+179
-1.771121e+179
-1.7736395e+179
-1.7720859e+179
-1.7752898e+179
-1.7732356e+179
-1.7722789e+179
-1.7697708e+179
-1.7706445e+179
-1.768605e+179
-1.767622e+179
-1.764747e+179
-1.7660344e+179
-1.7696444e+179
-1.7686461e+179
-1.7657965e+179
-1.7666033e+179
-1.7649096e+179
-1.7631317e+179
-1.7598233e+179
-1.761845e+179
-1.7619312e+179
-1.7611504e+179
-1.7649e+179
-1.7652093e+179
-1.7645325e+179
-1.7646621e+179
-1.7632969e+179
-1.7636816e+179
-1.7701706e+179
-1.766301e+179
-1.7705224e+179
-1.7680806e+179
-1.7672251e+179
-1.7690521e+179
-1.7674677e+179
-1.7688105e+179
-1.7563191e+179
-1.7603377e+179
-1.7606478e+179
-1.7573575e+179
-1.7502887e+179
-1.7530484e+179
-1.7538325e+179
-1.7509726e+179
-1.7553986e+179
-1.758468e+179
-1.7596199e+179
-1.7561845e+179
-1.7606909e+179
-1.7637519e+179
-1.7610961e+179
-1.7640147e+179
-1.7497356e+179
-1.7502602e+179
-1.749636e+179
-1.7543496e+179
-1.7558819e+179
-1.7547689e+179
-1.7592817e+179
-1.759304e+179
-1.7554524e+179
-1.759072e+179
-1.7567909e+179
-1.7549345e+179
-1.7585062e+179
-1.7597559e+179
-1.7595003e+179
-1.7589731e+179
-1.7566975e+179
-1.7564925e+179
-1.7518744e+179
-1.7528936e+179
-1.7485727e+179
-1.7538052e+179
-1.753497e+179
-1.7488233e+179
-1.7495351e+179
-1.7485994e+179
-1.7457561e+179
-1.7464044e+179
-1.7421162e+179
-1.745754e+179
-1.7448259e+179
-1.7421482e+179
-1.8073219e+179
-1.8057026e+179
-1.7979174e+179
-1.8008882e+179
-1.8022994e+179
-1.8034308e+179
-1.7986457e+179
-1.8101808e+179
-1.8121364e+179
-1.8181133e+179
-1.8159117e+179
-1.7976961e+179
-1.7976989e+179
-1.7958512e+179
-1.7968255e+179
-1.8031747e+179
-1.805515e+179
-1.8008509e+179
-1.8028934e+179
-1.7934823e+179
-1.7952793e+179
-1.7928248e+179
-1.790759e+179
-1.7980093e+179
-1.8007276e+179
-1.7957706e+179
-1.7983832e+179
-1.8039141e+179
-1.8062764e+179
-1.8035457e+179
-1.801194e+179
-1.8065727e+179
-1.8089872e+179
-1.8111758e+179
-1.8088581e+179
-1.8120733e+179
-1.8146965e+179
-1.8171408e+179
-1.8143941e+179
-1.8117141e+179
-1.8093977e+179
-1.8067485e+179
-1.8091113e+179
-1.7994825e+179
-1.8018017e+179
-1.8001588e+179
-1.7971734e+179
-1.7885106e+179
-1.7886264e+179
-1.7909382e+179
-1.7888764e+179
-1.7866212e+179
-1.7888514e+179
-1.7919043e+179
-1.790259e+179
-1.7897459e+179
-1.79507e+179
-1.7867076e+179
-1.7952511e+179
-1.7938022e+179
-1.7963036e+179
-1.7919523e+179
-1.7940614e+179
-1.7586292e+179
-1.7616218e+179
-1.7578399e+179
-1.7640996e+179
-1.7661475e+179
-1.7644863e+179
-1.7740941e+179
-1.77672e+179
-1.7749848e+179
-1.7695159e+179
-1.7716526e+179
-1.7697833e+179
-1.7797016e+179
-1.7792748e+179
-1.7819213e+179
-1.782317e+179
-1.7830023e+179
-1.7804787e+179
-1.7897442e+179
-1.7497206e+179
-1.7504258e+179
-1.751557e+179
-1.7537575e+179
-1.7575884e+179
-1.7540151e+179
-1.7397943e+179
-1.7402457e+179
-1.744789e+179
-1.7450011e+179
-1.747199e+179
-1.7478091e+179
-1.7431102e+179
-1.7447049e+179
-1.7486171e+179
-1.7550907e+179
-1.7485159e+179
-1.7244512e+179
-1.7320738e+179
-1.7184904e+179
-1.7190126e+179
-1.7270995e+179
-1.724026e+179
-1.7214969e+179
-1.7207339e+179
-1.7231245e+179
-1.7234656e+179
-1.7242253e+179
-1.7247929e+179
-1.7204594e+179
-1.7355299e+179
-1.7251295e+179
-1.7243568e+179
-1.7279291e+179
-1.7331197e+179
-1.7327581e+179
-1.7356928e+179
-1.7387105e+179
-1.7388288e+179
-1.7320634e+179
-1.7361613e+179
-1.7357074e+179
-1.8022364e+179
-1.8021832e+179
-1.793227e+179
-1.7931451e+179
-1.7892104e+179
-1.7892962e+179
-1.7657856e+179
-1.765681e+179
-1.7692636e+179
-1.7693301e+179
-1.7657458e+179
-1.7660648e+179
-1.7696171e+179
-1.7692619e+179
-1.7807414e+179
-1.7768254e+179
-1.7766077e+179
-1.780491e+179
-1.7767518e+179
-1.7765985e+179
-1.7804669e+179
-1.7806302e+179
-1.7585886e+179
-1.7557825e+179
-1.7555602e+179
-1.7582651e+179
-1.7493648e+179
-1.7467397e+179
-1.7465502e+179
-1.7491527e+179
-1.7461528e+179
-1.7460468e+179
-1.7489819e+179
-1.7491177e+179
-1.7582973e+179
-1.7555103e+179
-1.7556434e+179
-1.7584731e+179
-1.7462681e+179
-1.7462755e+179
-1.7489162e+179
-1.748965e+179
-1.7462664e+179
-1.7461683e+179
-1.7490343e+179
-1.7488459e+179
-1.7581472e+179
-1.7553608e+179
-1.7553024e+179
-1.7579789e+179
-1.7580555e+179
-1.7553038e+179
-1.7553434e+179
-1.7581525e+179
-1.7806619e+179
-1.7767388e+179
-1.776457e+179
-1.780457e+179
-1.7691776e+179
-1.7655064e+179
-1.765277e+179
-1.7689235e+179
-1.765407e+179
-1.7652951e+179
-1.7689625e+179
-1.7689046e+179
-1.7803358e+179
-1.7762991e+179
-1.7762377e+179
-1.7802395e+179
-1.796935e+179
-1.7968504e+179
-1.7965556e+179
-1.7964667e+179
-1.7963214e+179
-1.7961544e+179
-1.7966497e+179
-1.7964434e+179
-1.7876219e+179
-1.7878808e+179
-1.797101e+179
-1.7971309e+179
-1.7967668e+179
-1.7967023e+179
-1.7966557e+179
-1.7966608e+179
-1.7971249e+179
-1.7971439e+179
-1.7880543e+179
-1.7881117e+179
-1.801946e+179
-1.8018608e+179
-1.8027247e+179
-1.8028465e+179
-1.8077177e+179
-1.8091869e+179
-1.8090504e+179
-1.8076256e+179
-1.8026612e+179
-1.8018247e+179
-1.8026734e+179
-1.801814e+179
-1.8075338e+179
-1.8089506e+179
-1.8074933e+179
-1.8089298e+179
-1.801611e+179
-1.801509e+179
-1.8025126e+179
-1.8023805e+179
-1.8072343e+179
-1.8088148e+179
-1.8086863e+179
-1.8073601e+179
-1.8014278e+179
-1.8012952e+179
-1.8022081e+179
-1.8022998e+179
-1.8070578e+179
-1.8069534e+179
-1.8085354e+179
-1.8084398e+179
-1.7974405e+179
-1.7978033e+179
-1.7971923e+179
-1.7973685e+179
-1.7972585e+179
-1.7971371e+179
-1.7977311e+179
-1.7974968e+179
-1.7883098e+179
-1.7881693e+179
-1.7974033e+179
-1.7973735e+179
-1.7971073e+179
-1.7970145e+179
-1.7969528e+179
-1.7968706e+179
-1.7973572e+179
-1.7972266e+179
-1.7881218e+179
-1.7881202e+179
-1.8031749e+179
-1.8022958e+179
-1.8031587e+179
-1.8024047e+179
-1.8081098e+179
-1.8081193e+179
-1.8095702e+179
-1.8095556e+179
-1.8031154e+179
-1.8024195e+179
-1.8031436e+179
-1.8023777e+179
-1.8094328e+179
-1.8080354e+179
-1.8080036e+179
-1.8094209e+179
-1.8029825e+179
-1.8023223e+179
-1.803088e+179
-1.8022389e+179
-1.8093763e+179
-1.8079708e+179
-1.8078876e+179
-1.8092928e+179
-1.8029592e+179
-1.8021868e+179
-1.8029864e+179
-1.802118e+179
-1.8092546e+179
-1.807846e+179
-1.8078038e+179
-1.8092576e+179
-1.7957567e+179
-1.7955784e+179
-1.7951492e+179
-1.7949699e+179
-1.7948319e+179
-1.7947794e+179
-1.7954105e+179
-1.7952848e+179
-1.7790522e+179
-1.7756332e+179
-1.7757072e+179
-1.7791323e+179
-1.7865444e+179
-1.7866944e+179
-1.7961428e+179
-1.7961985e+179
-1.7957927e+179
-1.7956931e+179
-1.7955038e+179
-1.7953122e+179
-1.7961298e+179
-1.7959435e+179
-1.7796094e+179
-1.7758287e+179
-1.7755925e+179
-1.7792538e+179
-1.7869104e+179
-1.7871266e+179
-1.8016257e+179
-1.8009474e+179
-1.8018191e+179
-1.8008189e+179
-1.8066806e+179
-1.8080987e+179
-1.8078962e+179
-1.8065276e+179
-1.8012824e+179
-1.8006583e+179
-1.801446e+179
-1.8004822e+179
-1.7685108e+179
-1.7651146e+179
-1.7649682e+179
-1.7683239e+179
-1.7653492e+179
-1.7651293e+179
-1.7684315e+179
-1.7685645e+179
-1.794837e+179
-1.7948289e+179
-1.7941999e+179
-1.7941224e+179
-1.7940052e+179
-1.7938992e+179
-1.7947641e+179
-1.7945704e+179
-1.7786159e+179
-1.7754357e+179
-1.7754271e+179
-1.7787103e+179
-1.7859861e+179
-1.7861018e+179
-1.7950174e+179
-1.7950411e+179
-1.7945934e+179
-1.7945446e+179
-1.7944253e+179
-1.7943702e+179
-1.7950456e+179
-1.7950008e+179
-1.7788654e+179
-1.775414e+179
-1.7752417e+179
-1.7786464e+179
-1.786238e+179
-1.7862903e+179
-1.7684743e+179
-1.7654533e+179
-1.7653064e+179
-1.7683518e+179
-1.7650732e+179
-1.7652808e+179
-1.7684018e+179
-1.7683233e+179
-1.7582867e+179
-1.7557494e+179
-1.7555361e+179
-1.7581393e+179
-1.7489253e+179
-1.7462256e+179
-1.7461181e+179
-1.7488421e+179
-1.7459589e+179
-1.7461626e+179
-1.748881e+179
-1.7487855e+179
-1.7581652e+179
-1.7554685e+179
-1.7553848e+179
-1.75813e+179
-1.7576134e+179
-1.7549138e+179
-1.7548223e+179
-1.757495e+179
-1.7485336e+179
-1.7460554e+179
-1.7460279e+179
-1.7484263e+179
-1.7462027e+179
-1.7461263e+179
-1.7486017e+179
-1.7489322e+179
-1.7577429e+179
-1.755102e+179
-1.7554339e+179
-1.758118e+179
-1.739961e+179
-1.7377887e+179
-1.7375565e+179
-1.7396972e+179
-1.7318283e+179
-1.7289173e+179
-1.7291606e+179
-1.7319325e+179
-1.728983e+179
-1.7290172e+179
-1.7317472e+179
-1.7318435e+179
-1.7392844e+179
-1.7367554e+179
-1.7367636e+179
-1.7394602e+179
-1.7107329e+179
-1.7206766e+179
-1.7161655e+179
-1.7107976e+179
-1.7251571e+179
-1.7254077e+179
-1.724941e+179
-1.7246772e+179
-1.7248564e+179
-1.7241527e+179
-1.7215038e+179
-1.7242964e+179
-1.7230906e+179
-1.7212233e+179
-1.7223405e+179
-1.7232658e+179
-1.7232169e+179
-1.7226064e+179
-1.722594e+179
-1.7230251e+179