/*--------------------------------*- C++ -*----------------------------------*\
  =========                 |
  \\      /  F ield         | OpenFOAM: The Open Source CFD Toolbox
   \\    /   O peration     | Website:  https://openfoam.org
    \\  /    A nd           | Version:  7
     \\/     M anipulation  |
\*---------------------------------------------------------------------------*/
FoamFile
{
    version     2.0;
    format      ascii;
    class       volVectorField;
    location    "2000";
    object      U;
}
// * * * * * * * * * * * * * * * * * * * * * * * * * * * * * * * * * * * * * //

dimensions      [0 1 -1 0 0 0 0];

internalField   nonuniform List<vector> 
33733
(
(-5.7910061e+90 5.1255944e+89 -7.4338844e+88)
(-4.1290125e+90 -1.823854e+89 -1.1244124e+89)
(-5.7962428e+90 7.136748e+89 -3.7972534e+88)
(-3.0913191e+90 1.1582893e+90 2.0591015e+89)
(-3.23995e+90 1.0276074e+90 7.4150051e+89)
(-6.7119466e+90 1.4591197e+88 2.9226461e+88)
(-3.217304e+90 3.560272e+89 -7.0682384e+88)
(-3.4417671e+90 -1.2973715e+89 -4.7850092e+89)
(-3.8675522e+90 5.159638e+89 8.2923331e+89)
(-3.7866474e+90 2.3723188e+89 1.2264952e+88)
(-3.3808727e+90 1.1497293e+90 9.5762347e+88)
(-3.9246298e+90 -1.3658225e+89 4.3709736e+89)
(-3.8920547e+90 4.4756932e+89 -1.3997985e+89)
(-3.8886108e+90 5.2952689e+89 3.0476175e+88)
(-3.9432783e+90 -1.9655681e+89 2.1112639e+89)
(-3.6428274e+90 2.4713541e+89 -3.225265e+89)
(-6.8781723e+90 9.9122929e+87 -6.7490998e+88)
(-3.2548139e+90 4.8649838e+89 2.2287829e+89)
(-3.2151897e+90 1.1963579e+90 -1.2109497e+89)
(-4.0193859e+90 -2.5847034e+89 7.2853721e+88)
(-3.9486628e+90 -3.2087419e+89 8.4341097e+88)
(-3.5793453e+90 2.6062932e+89 6.4903575e+87)
(-3.4603151e+90 2.9050296e+89 1.7609397e+89)
(-3.5859659e+90 -1.8150527e+89 -1.1906128e+89)
(-3.4265053e+90 -1.5306681e+89 -3.0504869e+89)
(-2.6315434e+90 -4.7137269e+89 1.2253854e+89)
(-3.8277712e+90 1.5580142e+90 1.7477777e+89)
(-3.1558117e+90 1.3409087e+90 1.0868085e+90)
(-2.3919952e+90 -4.1522801e+88 -5.0535932e+89)
(-2.5888318e+90 6.1146607e+89 6.7377602e+88)
(-3.0899613e+90 6.6585047e+89 1.1887804e+89)
(-2.5237183e+90 3.2256108e+89 2.6929908e+87)
(-3.1048004e+90 6.1901008e+89 3.7520146e+89)
(-4.2507768e+90 1.4759534e+89 9.7850087e+89)
(-4.1285159e+90 4.8132751e+89 9.4778187e+89)
(-3.8802194e+90 1.2192411e+89 2.7216295e+89)
(-3.6518157e+90 4.771669e+89 2.4314545e+89)
(-3.7557209e+90 1.7163153e+89 1.5765706e+89)
(-3.6075963e+90 6.9702093e+88 -3.6914818e+89)
(-2.873425e+90 4.1246922e+89 3.256781e+89)
(-3.9615486e+90 5.4671934e+89 1.1224205e+90)
(-3.4782738e+90 4.0286699e+89 5.0750284e+89)
(-2.176845e+90 6.8957711e+89 -9.2370029e+89)
(-4.5024824e+90 6.0500548e+89 -2.5968016e+88)
(-3.6617048e+90 3.7716627e+89 -1.9412673e+89)
(-3.7171698e+90 -7.015651e+88 3.336163e+89)
(-3.5274384e+90 -1.5097986e+89 1.7832372e+89)
(-3.6784549e+90 4.0545405e+89 3.9696831e+88)
(-3.8228144e+90 9.8501562e+88 4.3844419e+89)
(-3.8700025e+90 2.9091956e+89 -2.7012102e+89)
(-4.2659932e+90 1.4348754e+89 2.0925182e+89)
(-3.4003839e+90 6.1590188e+89 -3.7208531e+89)
(-3.0907916e+90 1.3414641e+89 6.0585363e+88)
(-3.5721948e+90 1.4902271e+90 -1.3800156e+89)
(-3.2529884e+90 6.9920387e+89 -1.4479167e+89)
(-2.8384557e+90 2.4067487e+89 -1.1085424e+89)
(-2.5500412e+90 -3.4922559e+89 1.8722021e+89)
(-2.4488047e+90 -3.9529891e+89 -1.0498895e+89)
(-3.7631738e+90 1.6022509e+90 -2.6384215e+88)
(-3.433207e+90 6.7224215e+89 8.0326478e+88)
(-2.7944062e+90 4.8740489e+89 -1.2911435e+89)
(-3.2742535e+90 6.7631587e+89 -4.4708752e+88)
(-2.6497119e+90 5.7363375e+89 1.5279177e+89)
(-3.8541982e+90 -2.1561959e+89 2.4105467e+88)
(-3.7462886e+90 2.5868658e+89 1.8895621e+89)
(-3.6131811e+90 2.1137446e+89 -7.2613362e+88)
(-3.6925893e+90 -3.074342e+89 3.6224194e+88)
(-3.925971e+90 1.5099781e+89 1.1148826e+89)
(-3.8947937e+90 -2.5551291e+89 4.1973992e+89)
(-3.7091361e+90 -2.7732084e+89 1.6108576e+89)
(-3.7307195e+90 1.2895876e+89 9.6703815e+88)
(-3.610462e+90 -2.0297084e+89 -6.09101e+87)
(-3.6429149e+90 1.8587241e+89 1.2041234e+89)
(-3.6091588e+90 -1.8339986e+89 9.0492879e+88)
(-3.8156276e+90 -1.938497e+89 -8.3869511e+88)
(-3.9426523e+90 -2.9679657e+89 -3.3726754e+89)
(-3.8109079e+90 8.3316847e+88 3.9733393e+87)
(-3.8689755e+90 1.5521223e+87 -3.9357028e+88)
(-3.8356373e+90 6.9233643e+88 -5.5976346e+88)
(-3.7482571e+90 -2.8145948e+89 -1.715156e+89)
(-3.847053e+90 -2.8031334e+89 -3.5901973e+89)
(-3.9331886e+90 3.1911424e+88 -5.2950697e+88)
(-5.1924523e+90 -5.5806976e+89 -6.149131e+89)
(-2.5471771e+90 5.3418004e+89 3.4669061e+88)
(-1.5755179e+90 4.5404704e+89 1.7523284e+89)
(-2.5185672e+90 1.5241943e+90 2.3059143e+89)
(-2.169039e+90 1.1710391e+90 7.1494319e+89)
(-1.3501371e+90 5.0827369e+89 -1.3811442e+89)
(-2.8903434e+90 4.3900463e+89 2.3302888e+88)
(-2.9440653e+90 2.4246757e+89 -1.0323141e+88)
(-3.4457413e+90 4.0147464e+89 2.6316886e+88)
(-3.5411094e+90 3.7896256e+89 1.50472e+89)
(-3.5726252e+90 -1.8744627e+89 -1.500572e+89)
(-3.7446822e+90 2.1045062e+88 -9.6329583e+88)
(-3.6560301e+90 -1.4582302e+89 -2.8273893e+89)
(-3.7872763e+90 3.6920487e+88 -7.0686167e+88)
(-4.2992041e+90 5.3529774e+89 7.9750551e+89)
(-3.9361099e+90 2.0908778e+89 -5.6055728e+89)
(-4.0686269e+90 1.54165e+89 -4.3761477e+89)
(-4.0535992e+90 7.5773357e+88 -4.9260715e+89)
(-4.4763638e+90 1.1499333e+89 8.8695901e+89)
(-3.9777887e+90 2.0924413e+89 1.6657249e+89)
(-3.7698792e+90 4.3971677e+89 2.1536159e+89)
(-3.8906594e+90 1.7238136e+89 9.5720073e+88)
(-3.8346012e+90 1.3604117e+87 6.9039403e+88)
(-3.6777793e+90 2.4470879e+88 -4.4015759e+89)
(-3.4478631e+90 2.0395945e+89 -5.190782e+89)
(-3.902125e+90 2.4136409e+89 1.0371497e+89)
(-3.9002629e+90 -9.1626802e+86 9.209972e+88)
(-3.7112267e+90 1.0731434e+89 -4.2686625e+89)
(-3.6249724e+90 1.671307e+89 -4.5921782e+89)
(-4.5136896e+90 4.5754665e+89 1.2487704e+90)
(-3.6081392e+90 3.4592262e+89 5.8396392e+89)
(-2.890642e+90 2.607263e+89 4.543105e+89)
(-2.9883479e+90 2.5349156e+89 4.2793209e+89)
(-3.8860345e+90 3.3495402e+88 6.1651527e+89)
(-3.5249767e+90 2.9238753e+89 5.9054266e+89)
(-2.8046144e+90 2.9761121e+89 4.763137e+89)
(-2.6363804e+90 4.8677193e+89 4.6052529e+89)
(-4.4563267e+90 3.2401102e+89 1.3302036e+90)
(-3.5087488e+90 1.6168921e+89 5.8314257e+89)
(-2.6347678e+90 8.2747271e+89 -1.0336349e+90)
(-2.7478915e+90 5.4864532e+89 -9.1487959e+89)
(-3.7290561e+90 -7.1480066e+88 -2.6734639e+89)
(-3.763643e+90 4.6827831e+86 4.3435977e+88)
(-3.8099166e+90 4.0978377e+87 -1.7444979e+87)
(-3.6993875e+90 -9.5228361e+88 -3.8714272e+89)
(-3.5035216e+90 3.255323e+89 2.7478925e+89)
(-2.9195166e+90 3.4940715e+89 2.2445614e+89)
(-2.8894489e+90 6.8375532e+89 1.046199e+90)
(-1.5733095e+90 7.5459649e+89 -2.8650209e+89)
(-3.6508593e+90 5.311097e+88 -3.1064804e+89)
(-3.7746971e+90 5.8534685e+88 -6.0632406e+88)
(-4.0893159e+90 5.5966848e+89 -4.9318674e+89)
(-4.3929337e+90 5.1094937e+89 -2.1890264e+89)
(-4.573367e+90 5.5303918e+89 -2.482699e+89)
(-3.6299823e+90 2.8061992e+89 -2.7266151e+89)
(-3.5163396e+90 1.6857219e+89 3.55118e+89)
(-3.7798867e+90 2.0738434e+89 1.5801504e+89)
(-4.1501782e+90 1.0131021e+89 2.5812568e+89)
(-3.8045737e+90 2.2414682e+89 4.9938777e+89)
(-3.9609227e+90 1.1270174e+89 -2.7957236e+89)
(-4.2305154e+90 1.3438788e+89 2.4590178e+89)
(-3.6647161e+90 -1.4501496e+89 4.1584888e+89)
(-3.6944922e+90 3.186167e+88 3.8172738e+88)
(-3.1884121e+90 3.7513408e+89 -4.690128e+89)
(-2.8277731e+90 1.8017457e+89 -2.7046099e+88)
(-2.5980656e+90 8.4165393e+89 -7.6239723e+89)
(-1.5974497e+90 2.9893194e+89 -1.0867274e+89)
(-1.7705455e+90 2.054104e+89 -3.858573e+89)
(-2.883483e+90 1.0737042e+90 -3.2128473e+89)
(-3.5431797e+90 2.6992287e+89 -8.7808326e+88)
(-3.1991072e+90 4.2788308e+89 -5.334108e+89)
(-2.6644495e+90 5.7787045e+89 5.3017624e+89)
(-5.1325761e+90 -6.9118019e+89 1.2024899e+89)
(-2.4737753e+90 5.3517823e+89 -1.3831285e+89)
(-2.5895234e+90 1.3871128e+90 -8.0648089e+88)
(-1.4888665e+90 4.0868139e+89 2.3080653e+89)
(-1.4301847e+90 4.5540157e+89 1.0908801e+89)
(-2.5819246e+90 1.5236341e+90 1.0083427e+89)
(-3.9942475e+90 1.6503843e+88 8.2002761e+88)
(-3.7027303e+90 -1.9682647e+89 2.7777451e+89)
(-3.708866e+90 -1.1750817e+89 1.7030762e+89)
(-3.9445964e+90 6.1560282e+88 1.01117e+89)
(-3.6088497e+90 2.871292e+89 -2.1986108e+89)
(-3.03001e+90 1.0304466e+89 -3.1024312e+88)
(-3.4919899e+90 3.1179683e+89 1.2451726e+88)
(-2.9154307e+90 1.2447904e+89 -2.0866319e+88)
(-3.5344708e+90 -2.9438612e+89 1.9143362e+88)
(-3.4860641e+90 -3.5126824e+89 -6.1307144e+88)
(-3.8354117e+90 -4.6865117e+88 1.9621577e+88)
(-3.7580832e+90 -5.6173591e+88 -1.3720093e+89)
(-2.9708387e+90 3.415746e+89 -6.5088536e+88)
(-3.5936029e+90 3.8881164e+89 7.952496e+88)
(-2.8923146e+90 3.2513612e+89 3.8893453e+88)
(-3.4990162e+90 3.3154574e+89 -1.165644e+89)
(-3.9135356e+90 -3.2625793e+89 4.6035384e+89)
(-4.0120651e+90 -2.0046467e+88 1.9823278e+89)
(-3.9603761e+90 -5.8518935e+88 1.201044e+89)
(-3.8165384e+90 -4.0445117e+89 2.1642789e+89)
(-3.90969e+90 -4.7712323e+88 1.6646946e+89)
(-3.9230167e+90 -3.5770965e+89 4.7984681e+89)
(-3.8336855e+90 -3.9682747e+89 1.8890613e+89)
(-3.814681e+90 -5.2460621e+88 9.3440969e+88)
(-3.6855398e+90 3.8544557e+88 3.4283238e+88)
(-3.6825954e+90 -3.8805428e+89 -9.4120338e+88)
(-3.6312466e+90 5.6813419e+88 -1.5070997e+88)
(-3.6505927e+90 -3.118685e+89 4.6155798e+87)
(-3.8136634e+90 -6.6821899e+88 -7.4595805e+87)
(-3.7205374e+90 -7.7556256e+87 -1.0795853e+89)
(-3.6988449e+90 -4.7007548e+89 -8.1904766e+88)
(-3.648412e+90 -3.9318045e+89 -7.3973899e+88)
(-3.3137077e+90 -2.6208481e+89 2.8059792e+89)
(-3.3732638e+90 -4.8908567e+88 1.3602473e+89)
(-3.1161116e+90 2.2223042e+88 1.1565769e+89)
(-3.0296339e+90 -2.5365349e+89 1.6705224e+89)
(-2.9752603e+90 -1.2667119e+89 1.6904876e+89)
(-3.2801773e+90 -3.5303002e+87 1.3097907e+89)
(-3.2772783e+90 -1.7198225e+89 2.6636938e+89)
(-3.0374688e+90 5.7646006e+88 1.4149744e+89)
(-2.8328113e+90 -1.7807642e+89 3.6329635e+88)
(-2.9593804e+90 7.3897883e+88 1.3149042e+89)
(-2.9713888e+90 -7.2971805e+88 6.978454e+88)
(-3.0584915e+90 1.0015929e+89 6.7010997e+88)
(-2.969581e+90 -5.3739925e+88 1.5267435e+89)
(-2.8452813e+90 -8.2640079e+88 9.6482627e+88)
(-2.9158248e+90 8.7876306e+88 1.4941133e+89)
(-2.995461e+90 8.8107034e+88 1.1520042e+89)
(-3.026498e+90 -2.8771087e+88 1.5081879e+89)
(-3.0408459e+90 -3.4452887e+88 1.2178789e+89)
(-3.0286902e+90 -1.3350936e+89 1.5282236e+89)
(-3.0735346e+90 5.1654884e+88 1.2135296e+89)
(-3.1088843e+90 1.2678878e+89 1.7177048e+89)
(-3.3509086e+90 -1.9272562e+89 -5.6900468e+88)
(-3.4333415e+90 1.325031e+88 1.0579129e+88)
(-3.5897841e+90 -1.5203584e+88 -1.8075912e+88)
(-3.529344e+90 -1.822206e+89 -1.7766654e+89)
(-3.4631495e+90 -5.3920915e+88 -2.2750111e+88)
(-3.3173572e+90 -3.8093717e+88 1.772133e+88)
(-3.3234051e+90 -1.8725497e+89 -1.0945571e+88)
(-3.5230072e+90 -1.4906653e+89 -1.2769605e+89)
(-3.3982096e+90 -2.1005812e+89 -9.7460165e+88)
(-3.4621498e+90 -2.0466769e+88 -4.5247456e+88)
(-3.5807121e+90 -2.1539784e+89 -2.2792981e+89)
(-3.5924276e+90 -5.3381309e+88 -7.8667096e+88)
(-3.4552998e+90 -2.4007277e+89 -1.5529209e+89)
(-3.6359982e+90 -2.431448e+89 -2.7881022e+89)
(-3.6781984e+90 -8.4400405e+88 -1.2413406e+89)
(-3.5376894e+90 -1.3712568e+88 -6.6669204e+88)
(-4.780923e+90 7.4499837e+88 -6.9380233e+89)
(-3.3216259e+90 2.2149676e+89 -3.1693679e+88)
(-2.1615264e+90 7.6758971e+89 2.4871996e+89)
(-1.7178257e+90 5.2629827e+89 1.4541651e+89)
(-2.8195398e+90 1.1424444e+90 1.842152e+89)
(-1.4406785e+90 4.8135383e+89 -8.4251976e+87)
(-2.6933802e+90 8.4281502e+89 4.6747268e+89)
(-2.9551354e+90 2.0385562e+89 -1.2414851e+89)
(-3.3863646e+90 2.3534e+89 -1.2438319e+89)
(-3.6073285e+90 2.1850973e+89 3.6969293e+88)
(-3.1778378e+90 1.3966877e+89 -6.4633994e+88)
(-3.3784138e+90 -1.3343226e+89 -2.5105696e+89)
(-3.6126433e+90 -2.7789228e+88 -1.9960359e+89)
(-3.78675e+90 -5.1221828e+88 -1.7685654e+89)
(-3.6747719e+90 -1.2007452e+89 -2.643726e+89)
(-3.5344639e+90 -2.3048403e+89 -2.4459328e+89)
(-3.6761819e+90 -6.5207886e+88 -1.8014301e+89)
(-3.8171593e+90 -1.0178681e+89 -1.9406554e+89)
(-3.7280951e+90 -2.444723e+89 -3.318685e+89)
(-3.5990442e+90 -1.1023445e+89 -1.5981555e+89)
(-3.5408836e+90 -2.6357676e+89 -2.1632496e+89)
(-3.7215121e+90 -2.5578761e+89 -3.1282983e+89)
(-3.7318607e+90 -1.4166547e+89 -1.9192761e+89)
(-4.00175e+90 3.2652259e+89 6.8699704e+88)
(-3.873277e+90 1.7909115e+89 -4.4674814e+89)
(-3.7152737e+90 2.3502721e+89 -5.2451955e+89)
(-4.0253727e+90 6.3823427e+88 5.4429282e+88)
(-3.6185173e+90 1.0660705e+89 -3.9961733e+89)
(-3.6611509e+90 2.0859009e+88 -3.6256721e+89)
(-3.6898256e+90 1.2041612e+89 8.032835e+87)
(-3.6917538e+90 3.224023e+88 -1.8830781e+88)
(-3.7091239e+90 7.3883493e+88 -3.0226771e+89)
(-3.6815161e+90 9.4272364e+88 -3.4511938e+89)
(-3.7244054e+90 1.7641866e+89 4.9389025e+88)
(-3.7674e+90 2.9293867e+88 3.3196566e+88)
(-3.6834081e+90 5.8144516e+88 -3.2894649e+89)
(-3.7213755e+90 1.7342896e+88 -3.0252927e+89)
(-3.7568153e+90 1.215391e+89 3.7852913e+88)
(-3.9922136e+90 2.5702291e+89 4.4307887e+88)
(-3.6354284e+90 7.4210385e+88 -3.4737495e+89)
(-3.6933081e+90 -1.0689891e+88 -3.3555684e+89)
(-3.9798666e+90 6.5952717e+88 3.9876207e+88)
(-3.6424476e+90 2.2046483e+89 -5.3193751e+89)
(-3.7911526e+90 9.5632652e+88 -4.7603344e+89)
(-3.9336082e+90 4.1341766e+89 4.955737e+89)
(-3.1741725e+90 2.8927608e+89 2.8140247e+89)
(-3.1348458e+90 3.2230349e+89 2.7795062e+89)
(-4.6732418e+90 4.8991015e+89 1.1672685e+90)
(-4.0336154e+90 8.2685335e+88 5.0404099e+89)
(-4.7728086e+90 2.3059776e+89 1.2732988e+90)
(-3.8680665e+90 3.3703163e+89 4.8356955e+89)
(-3.1016073e+90 2.5080372e+89 3.0535922e+89)
(-2.9514492e+90 3.3176185e+89 3.3611105e+89)
(-3.9122867e+90 6.4440307e+88 5.1624487e+89)
(-3.0113839e+90 4.7405626e+89 -9.3469096e+89)
(-2.8826841e+90 8.0752717e+89 -1.0117195e+90)
(-3.7499968e+90 -1.2185381e+89 -5.4683712e+88)
(-3.7144084e+90 -1.9838658e+88 -5.3050122e+88)
(-3.6841556e+90 -5.5167022e+88 -4.0167643e+89)
(-3.6741618e+90 -1.216207e+89 -3.8475173e+89)
(-3.7042763e+90 -1.0234872e+89 -4.6749602e+88)
(-3.6912911e+90 -4.0356256e+88 -4.8186029e+88)
(-3.6297941e+90 -1.6239858e+89 -4.1159295e+89)
(-3.639265e+90 -5.7527959e+88 -4.2139091e+89)
(-3.6386179e+90 -4.6948671e+88 -4.4210533e+89)
(-3.6248969e+90 -1.0955304e+89 -4.2685598e+89)
(-3.811969e+90 -2.8672897e+88 -1.4661799e+88)
(-3.8333042e+90 -1.2885404e+89 -2.3488718e+88)
(-3.578778e+90 -2.3429995e+88 -4.8394596e+89)
(-3.5689523e+90 -1.3227962e+89 -4.5521128e+89)
(-3.7504478e+90 -4.7790039e+88 -6.0817888e+88)
(-3.7561714e+90 -9.553821e+88 -7.797295e+88)
(-3.7748081e+90 -4.9429219e+88 -5.1856754e+88)
(-3.7307043e+90 6.8326984e+88 -4.6776991e+88)
(-3.2414826e+90 9.2451302e+86 -2.481411e+89)
(-3.7159711e+90 -2.4950801e+88 -3.71014e+89)
(-3.7141708e+90 2.9450939e+88 -4.0244409e+89)
(-3.7216105e+90 2.2013981e+88 -6.453999e+88)
(-3.7295042e+90 -6.8347544e+88 -6.6178916e+88)
(-3.6628289e+90 -5.7564476e+87 -3.9520298e+89)
(-3.6789503e+90 -8.9338144e+88 -3.8166349e+89)
(-3.6567462e+90 -1.5711597e+88 -4.2043891e+89)
(-3.674536e+90 3.9496354e+88 -4.4496916e+89)
(-3.8421714e+90 7.5240226e+88 -8.9534319e+87)
(-3.8728582e+90 -4.5452851e+88 -2.4353837e+88)
(-3.59515e+90 1.1168137e+87 -4.3894879e+89)
(-3.6250788e+90 -6.702938e+88 -4.1987023e+89)
(-3.8073635e+90 1.8545698e+88 1.86884e+88)
(-3.8118721e+90 -9.6284448e+88 2.2885689e+88)
(-1.9271001e+90 6.528217e+89 -3.7220332e+89)
(-3.465763e+90 4.2549306e+89 1.245573e+90)
(-3.5432663e+90 3.1281557e+89 1.2715333e+90)
(-1.9420784e+90 4.6129077e+89 -3.9438454e+89)
(-3.4764559e+90 1.1403773e+89 -3.6031021e+89)
(-3.4720744e+90 3.2240191e+88 -3.3939086e+89)
(-3.7805433e+90 9.2834665e+88 -3.9575273e+88)
(-3.8606727e+90 -1.4574847e+88 -3.8625247e+88)
(-2.9064224e+90 2.0935522e+89 2.4206023e+89)
(-2.9394554e+90 1.9034786e+89 2.1620627e+89)
(-3.6030273e+90 2.2468189e+89 3.5368405e+89)
(-3.6723015e+90 4.7719035e+88 3.5587186e+89)
(-3.0119941e+90 1.4250199e+89 2.2975123e+89)
(-3.7867414e+90 1.8566287e+89 3.9252321e+89)
(-2.952705e+90 1.9653586e+89 2.4590491e+89)
(-3.8083434e+90 -2.2825631e+88 4.2022842e+89)
(-3.7439147e+90 6.8640083e+88 -6.1955247e+88)
(-3.5245846e+90 1.7460531e+88 -3.0699664e+89)
(-3.7547798e+90 -5.8686316e+88 -5.5867058e+88)
(-3.5046908e+90 2.2601481e+88 -3.2757029e+89)
(-3.397729e+90 2.732276e+88 -3.3899194e+89)
(-3.4322944e+90 -7.9912536e+88 -3.1795175e+89)
(-3.8057815e+90 -8.9490245e+88 -3.0078806e+88)
(-3.7953051e+90 -6.9506215e+87 -1.913485e+88)
(-2.8277954e+90 1.8885117e+89 2.8824168e+89)
(-2.8726383e+90 1.6079699e+89 2.9256775e+89)
(-3.5641247e+90 1.2178305e+89 4.0319496e+89)
(-3.5603586e+90 -2.0520267e+88 4.1801269e+89)
(-3.233143e+90 6.1969305e+89 1.2200979e+90)
(-2.6352447e+90 3.8292605e+89 2.765708e+89)
(-2.7590539e+90 2.0692487e+89 3.2411175e+89)
(-3.4565029e+90 1.6404764e+89 3.9860854e+89)
(-3.405624e+90 1.3246038e+89 3.3376372e+89)
(-3.0829194e+90 5.9082416e+89 1.2970989e+90)
(-1.6925185e+90 8.1999233e+89 -3.6317737e+89)
(-1.6505278e+90 1.0289136e+90 -4.5046906e+89)
(-3.3462361e+90 1.006797e+89 -4.044226e+89)
(-3.3547626e+90 -2.5473461e+88 -3.287281e+89)
(-3.66054e+90 -6.653584e+87 -1.1531322e+89)
(-3.6589373e+90 2.4008874e+88 -7.6608014e+88)
(-3.2047192e+90 7.7997649e+89 -8.6963874e+88)
(-3.3618502e+90 -7.3320059e+88 -1.7834558e+89)
(-3.4317027e+90 -2.8229164e+88 3.172399e+87)
(-3.3278741e+90 -9.5043139e+88 -1.794935e+89)
(-3.3111123e+90 -8.0986487e+88 -3.6355365e+88)
(-3.4604711e+90 -3.8180351e+88 -4.3265693e+88)
(-3.3825706e+90 -7.9313899e+88 -2.0600641e+89)
(-3.5142051e+90 -7.8273499e+88 -1.1663e+89)
(-3.4493015e+90 -1.3270572e+89 -3.0759365e+89)
(-3.7108901e+90 2.8852685e+88 -1.1084812e+89)
(-3.3865699e+90 7.1114937e+87 -2.6390513e+89)
(-2.9351742e+90 5.9218467e+89 8.2879133e+89)
(-3.3813475e+90 1.9982098e+89 7.7017646e+88)
(-2.9282358e+90 1.9988103e+89 -3.3538813e+88)
(-1.7558489e+90 5.9244916e+89 4.7388455e+87)
(-3.5728566e+90 -7.7977061e+88 -3.0283072e+89)
(-3.6922264e+90 -4.8932134e+88 -1.5887711e+89)
(-3.5413308e+90 -1.3656826e+89 -3.3582304e+89)
(-3.5964973e+90 -9.5630355e+88 -1.7684547e+89)
(-2.8456682e+90 7.8545931e+89 3.9538624e+89)
(-4.0960355e+90 2.5771339e+89 -5.9705755e+89)
(-4.36723e+90 4.1148457e+89 -3.401969e+89)
(-2.5266508e+90 9.0005639e+89 -8.901456e+88)
(-4.2285597e+90 5.2350522e+89 -7.2104907e+89)
(-4.4918062e+90 4.9980088e+89 -4.7678963e+89)
(-4.4776155e+90 5.3086629e+89 -3.794018e+89)
(-3.8034604e+90 3.1234419e+89 -3.3404892e+89)
(-3.7362876e+90 1.0836495e+89 4.8448919e+89)
(-3.680377e+90 8.9176148e+88 -2.4090262e+89)
(-3.3644362e+90 2.5279091e+89 4.2232517e+89)
(-3.8615109e+90 -1.1883154e+89 1.8826693e+89)
(-3.7036138e+90 1.5041549e+89 1.4212153e+89)
(-3.6801097e+90 -2.2107622e+89 5.1376322e+89)
(-4.0676808e+90 1.0485377e+89 3.1141401e+89)
(-3.7521519e+90 -2.1225499e+89 4.7105059e+89)
(-3.8130985e+90 -9.6993183e+88 1.3307496e+89)
(-4.3867711e+90 2.2069954e+89 5.0414247e+88)
(-3.6237436e+90 -1.0158066e+89 5.0354467e+89)
(-4.2903617e+90 1.6881112e+89 2.1144616e+89)
(-3.627476e+90 -5.4496298e+88 5.4999335e+89)
(-3.6571744e+90 -1.5914144e+88 1.242912e+89)
(-3.6622368e+90 6.3102154e+88 5.8425234e+88)
(-3.1166805e+90 -2.1969185e+88 7.7537513e+88)
(-3.0861939e+90 -1.473871e+89 2.6641123e+89)
(-3.0341052e+90 -9.6512597e+87 2.4783886e+89)
(-3.0255422e+90 4.1370835e+88 7.6496183e+88)
(-3.0983985e+90 1.3357936e+89 -4.6574911e+89)
(-2.519182e+90 4.0487855e+89 1.889497e+88)
(-2.820024e+90 3.8670094e+89 -9.7153532e+89)
(-1.8423161e+90 5.049465e+89 1.2080124e+88)
(-2.1824712e+90 6.9440577e+89 -4.6028042e+89)
(-3.6430158e+90 4.1333217e+89 -5.7664272e+89)
(-3.4917517e+90 3.1708759e+89 -2.1057585e+89)
(-3.5979977e+90 -2.2149672e+88 2.0077896e+89)
(-3.7923672e+90 -8.4621569e+87 3.3142776e+88)
(-3.1235348e+90 4.8466074e+89 -7.2447108e+89)
(-3.3580529e+90 1.4925801e+89 -2.7143768e+89)
(-2.7999821e+90 9.8977877e+88 -3.8516198e+88)
(-3.3657213e+90 2.6606193e+89 7.5516395e+89)
(-4.6564544e+90 4.4510477e+88 1.9874412e+89)
(-3.0682083e+90 2.9626841e+89 -1.5748189e+89)
(-2.0266781e+90 7.3411992e+89 3.0341374e+89)
(-2.0475677e+90 7.4827546e+89 2.1847106e+88)
(-1.5274173e+90 3.5714884e+89 -1.7736426e+89)
(-2.731252e+90 6.2724302e+89 -5.3117907e+89)
(-2.8844743e+90 8.222596e+89 -2.5155206e+89)
(-1.6657624e+90 3.6809855e+89 -2.8340685e+89)
(-1.6108792e+90 4.2196514e+89 1.9280276e+89)
(-2.938232e+90 1.0187101e+90 -3.5251048e+88)
(-2.880442e+90 1.108552e+90 7.5998235e+88)
(-1.6083435e+90 4.1664446e+89 1.7219938e+89)
(-2.6832844e+90 -4.7974276e+89 6.3498422e+89)
(-3.5846953e+90 -1.6569062e+89 1.9782742e+89)
(-3.527512e+90 -8.8660234e+88 3.1393759e+89)
(-2.778871e+90 -3.9316934e+89 5.1515047e+89)
(-3.6875593e+90 -3.1109048e+89 2.6382106e+89)
(-3.478345e+90 -4.4857723e+89 4.0178893e+89)
(-3.4275176e+90 -4.2368705e+89 2.9184617e+89)
(-3.6427912e+90 -2.9290282e+89 2.2432878e+89)
(-3.172796e+90 2.7443743e+88 1.4261248e+89)
(-2.8128349e+90 2.5214293e+89 -2.3761579e+89)
(-3.5489898e+90 -5.1097158e+89 2.9928144e+89)
(-3.740151e+90 -1.2625368e+89 2.4692342e+89)
(-3.5426477e+90 -2.3248675e+89 -1.0702403e+89)
(-3.3751294e+90 -5.6905049e+89 4.2361795e+88)
(-3.4161205e+90 -1.5212889e+89 -2.3106324e+89)
(-3.5350147e+90 -4.4270398e+88 -1.9074506e+89)
(-3.2635372e+90 -4.8047772e+89 -2.9817419e+89)
(-3.3970985e+90 -3.0754705e+89 -1.837341e+89)
(-3.4433151e+90 -5.3250109e+89 1.2911049e+89)
(-3.5620576e+90 -3.1763209e+89 9.0412543e+88)
(-3.3665784e+90 -2.4263444e+89 -2.1381853e+89)
(-3.2626691e+90 -4.5791428e+89 -1.4106223e+89)
(-3.1790831e+90 -2.8389299e+89 -2.8386181e+89)
(-3.2830935e+90 -1.0658895e+89 -1.8763695e+89)
(-3.4041269e+90 -1.1189391e+89 -1.5088117e+89)
(-3.3702759e+90 -2.1370001e+89 -1.3866511e+89)
(-3.5340345e+90 8.1654818e+88 -9.1803364e+88)
(-3.1323693e+90 -8.2823311e+87 -4.9526761e+88)
(-2.9638137e+90 4.2485126e+88 8.7844707e+88)
(-3.4650687e+90 2.6646421e+89 -7.4689825e+87)
(-3.7416397e+90 -2.3518207e+89 1.6588786e+89)
(-3.4607893e+90 -3.5591871e+89 2.5983722e+89)
(-3.2765126e+90 -3.7603314e+89 1.1919189e+89)
(-3.6093433e+90 -2.4504253e+89 1.1431834e+88)
(-3.0658025e+90 1.622451e+89 -2.5192005e+89)
(-3.3670892e+90 1.8074474e+89 -2.8490289e+89)
(-3.0168732e+90 2.3461399e+89 3.9523865e+88)
(-3.3318296e+90 2.2503943e+89 -6.9656526e+88)
(-3.1967784e+90 -4.5547582e+89 -2.9342003e+89)
(-3.5095153e+90 -2.0791485e+89 -2.4469635e+89)
(-3.5363857e+90 -1.0598732e+89 -2.093644e+89)
(-3.3019375e+90 -2.4986607e+89 -1.5215473e+89)
(-3.5596442e+90 -4.7593793e+89 3.5485452e+89)
(-3.4801031e+90 -2.150623e+89 1.0729754e+89)
(-3.6437133e+90 -2.4663725e+89 2.190849e+89)
(-3.3599163e+90 -5.433969e+89 1.9114882e+89)
(-3.6945709e+90 -3.1662992e+89 2.4710873e+89)
(-3.5849262e+90 -3.346284e+89 1.7935603e+89)
(-3.5870027e+90 -4.9255397e+89 3.8099305e+89)
(-3.4525579e+90 -5.4310221e+89 2.507051e+89)
(-3.4791583e+90 -4.218705e+89 3.3402051e+89)
(-3.5569036e+90 -2.1181252e+89 1.9819289e+89)
(-3.2857327e+90 -3.742564e+89 1.3835071e+89)
(-3.3630995e+90 -1.7695738e+89 9.8035471e+88)
(-3.4071016e+90 -3.594037e+89 3.1204891e+89)
(-3.420763e+90 -1.6724805e+89 1.6936332e+89)
(-3.1855484e+90 -1.2971856e+89 1.3316679e+89)
(-3.1725777e+90 -3.5232313e+89 1.3764731e+89)
(-2.9320487e+90 -2.7115962e+89 -3.1425267e+88)
(-2.9808935e+90 -2.0979012e+88 4.4933834e+88)
(-3.0581392e+90 4.7192356e+88 -8.3514621e+87)
(-2.9685904e+90 -1.1933263e+89 -4.6170289e+87)
(-3.0268003e+90 -3.5728826e+89 -7.0898785e+88)
(-3.1120437e+90 -7.687697e+88 2.1677596e+86)
(-3.081485e+90 2.324137e+88 -9.9952312e+88)
(-2.9701032e+90 -2.0297376e+89 -1.0213171e+89)
(-3.1080234e+90 8.3239827e+88 1.2616577e+89)
(-3.0412747e+90 -5.6538208e+88 5.3504017e+88)
(-3.1064989e+90 -8.6844176e+86 8.0628727e+88)
(-3.0730592e+90 -1.4679086e+89 1.0738949e+89)
(-3.1323062e+90 8.9402329e+88 5.8359587e+88)
(-3.0208044e+90 -1.0149885e+89 -2.4746608e+88)
(-3.1668424e+90 8.1273983e+87 2.7444808e+88)
(-3.0937297e+90 -1.8335205e+89 4.2213691e+88)
(-3.1381729e+90 -4.8695718e+89 -5.5161589e+88)
(-3.0200965e+90 -3.0160009e+89 -1.7234516e+89)
(-3.2123681e+90 -2.2390469e+89 -2.8875236e+88)
(-3.1170628e+90 -8.378248e+88 -1.7753477e+89)
(-3.0287598e+90 -1.5338525e+89 -1.2775748e+89)
(-3.1648808e+90 -1.9451255e+89 -1.9129141e+88)
(-3.2179275e+90 -2.2694293e+88 -2.609438e+88)
(-3.1390587e+90 3.8807535e+88 -1.3787239e+88)
(-3.2778801e+90 -5.4718229e+89 1.5664347e+88)
(-3.4260053e+90 -2.6711584e+89 9.2183805e+87)
(-3.1224866e+90 -3.7262823e+89 -2.0607466e+89)
(-3.2395694e+90 -1.5307371e+89 -2.234347e+89)
(-3.1913369e+90 -3.8056996e+88 -1.148088e+89)
(-3.0781989e+90 -2.3260025e+89 -2.0667632e+89)
(-3.2996023e+90 -7.248104e+88 -9.7617274e+88)
(-3.2430652e+90 -2.081841e+89 -8.9426707e+88)
(-2.5128012e+90 -3.9322741e+88 1.5497693e+89)
(-2.6873564e+90 -6.9690121e+88 2.0347985e+89)
(-2.6296573e+90 -1.6968708e+89 2.6220569e+89)
(-2.4350045e+90 -5.906847e+88 1.8318138e+89)
(-2.7075151e+90 -1.3217246e+89 1.1278047e+89)
(-2.6814688e+90 -2.211829e+89 2.6302037e+89)
(-2.4582809e+90 -2.0616415e+89 1.6902488e+89)
(-2.5140329e+90 -1.810641e+89 8.4785612e+88)
(-2.4195867e+90 -1.2167324e+89 1.9532864e+89)
(-2.6522262e+90 -1.1404381e+89 2.6102029e+89)
(-2.6844313e+90 -1.0688145e+88 1.8833722e+89)
(-2.4829779e+90 -2.4529097e+88 1.7852905e+89)
(-2.6248837e+90 -7.1057332e+88 2.666495e+89)
(-2.6380009e+90 2.8058627e+88 1.9261857e+89)
(-2.4608971e+90 4.0120667e+87 2.0198442e+89)
(-2.3938495e+90 -1.0040268e+89 2.2323461e+89)
(-2.2765429e+90 -1.2631824e+89 2.2006283e+89)
(-2.099746e+90 -2.2829519e+89 1.6074064e+89)
(-2.2497102e+90 -1.4671307e+89 1.3103554e+89)
(-2.3694231e+90 -3.5599368e+88 1.1355705e+89)
(-2.4139629e+90 -1.0021653e+88 1.2807605e+89)
(-2.3409138e+90 -5.5872061e+88 1.2069684e+89)
(-2.3358447e+90 -1.0981534e+89 1.7424282e+89)
(-2.2672982e+90 -1.4655164e+89 1.7461172e+89)
(-2.5011405e+90 -2.705479e+88 1.3668496e+89)
(-2.5723552e+90 7.5582388e+88 1.6454839e+89)
(-2.6458254e+90 8.5965313e+88 1.4542518e+89)
(-2.6013707e+90 5.2121192e+87 1.6936746e+89)
(-2.6281761e+90 7.6738457e+88 1.6332576e+89)
(-2.5793474e+90 7.755287e+88 1.9603527e+89)
(-2.6158017e+90 1.3842126e+88 1.9542775e+89)
(-2.5359025e+90 2.5640132e+87 1.753706e+89)
(-2.5658841e+90 2.4051942e+88 2.0198232e+89)
(-2.6030053e+90 1.1129087e+89 2.2201061e+89)
(-2.6353176e+90 9.8439236e+88 1.8652694e+89)
(-2.613332e+90 1.5908552e+88 2.1208379e+89)
(-2.4017094e+90 -6.7372786e+88 1.8165187e+89)
(-2.3295141e+90 -1.1156639e+89 1.3423841e+89)
(-2.4255542e+90 1.4532053e+88 1.6508476e+89)
(-2.4664973e+90 3.5197824e+88 1.6021681e+89)
(-2.4405763e+90 -4.2353337e+88 2.16857e+89)
(-2.3907201e+90 -6.1900252e+88 1.6949155e+89)
(-2.4478137e+90 4.8471398e+88 1.8639649e+89)
(-2.4845375e+90 5.2987975e+88 1.8052732e+89)
(-2.6014034e+90 1.0686483e+89 2.4258029e+89)
(-2.5811527e+90 3.2288709e+88 2.2194698e+89)
(-2.6156784e+90 1.7231876e+88 2.3926791e+89)
(-2.6256682e+90 9.1033905e+88 2.0609345e+89)
(-2.6754125e+90 4.3719639e+88 2.250031e+89)
(-2.6976356e+90 1.3273231e+89 2.4979113e+89)
(-2.695215e+90 1.0946037e+89 1.8512168e+89)
(-2.6712322e+90 1.4487623e+88 1.983122e+89)
(-2.6826547e+90 4.5535196e+88 1.9912361e+89)
(-2.7161053e+90 1.1872629e+89 2.1428628e+89)
(-2.7199844e+90 1.0542581e+89 1.5540723e+89)
(-2.682034e+90 2.5190435e+88 1.7563844e+89)
(-2.6433014e+90 2.5718907e+88 2.011771e+89)
(-2.6809318e+90 1.1600381e+89 2.3050671e+89)
(-2.5075052e+90 -1.3028981e+89 2.070847e+89)
(-2.4680159e+90 -2.1850157e+89 1.1183163e+89)
(-2.3953104e+90 -7.6995703e+88 7.2029853e+88)
(-2.6213536e+90 1.0960118e+89 1.676564e+89)
(-2.5310838e+90 -2.4024563e+89 1.7086009e+89)
(-2.6513945e+90 5.5669653e+88 2.2577278e+89)
(-2.6925885e+90 8.821006e+88 1.4610506e+89)
(-2.6902984e+90 1.023519e+89 2.1925028e+89)
(-2.6898238e+90 2.9836811e+88 1.8388476e+89)
(-2.6820179e+90 4.3358727e+88 2.0852669e+89)
(-2.8217292e+90 -9.3846253e+88 4.1926977e+88)
(-2.7508174e+90 -9.5393899e+88 5.1644359e+88)
(-2.6451166e+90 -1.4713493e+89 6.3920712e+88)
(-2.7076318e+90 -1.1586697e+89 6.4669918e+88)
(-2.3168936e+90 -1.5845035e+89 1.1771631e+89)
(-2.307218e+90 -2.0942064e+89 4.6102799e+87)
(-2.3084381e+90 -1.1829185e+89 1.659056e+89)
(-2.9552902e+90 -6.3784295e+88 4.1858897e+87)
(-2.9018814e+90 -6.9643036e+88 3.3181969e+88)
(-3.1104773e+90 -6.8936447e+88 -4.5242372e+88)
(-3.0046946e+90 -2.8363646e+88 6.319161e+87)
(-5.1719946e+90 1.6182038e+89 -7.5632554e+89)
(-2.4103512e+90 9.7247001e+89 1.970825e+89)
(-2.4649601e+90 6.5035464e+89 2.5678312e+89)
(-2.3979671e+90 6.9954298e+89 2.3462748e+89)
(-2.078531e+90 3.8081849e+89 2.6796355e+88)
(-3.0115028e+90 7.5158724e+89 4.0057135e+88)
(-3.0067657e+90 5.252577e+89 2.3976055e+89)
(-1.914325e+90 2.8967911e+89 -7.4164046e+88)
(-2.8442486e+90 3.3702834e+89 4.4540841e+88)
(-3.0551316e+90 1.7183345e+89 -2.2169337e+89)
(-3.2158045e+90 6.6556644e+88 -2.5978632e+89)
(-3.2943579e+90 -1.8581392e+87 -2.4275748e+89)
(-3.328498e+90 -3.4680947e+88 -1.9234448e+89)
(-3.3191669e+90 -3.4154751e+88 -1.4705269e+89)
(-3.1913671e+90 -5.8169588e+88 -7.1273523e+88)
(-3.2632005e+90 -4.4335575e+88 -1.096261e+89)
(-3.6848686e+90 1.4070523e+89 -3.4526781e+89)
(-3.7317973e+90 9.8434391e+88 -3.9891049e+89)
(-3.7927801e+90 5.0713246e+88 -2.8386326e+89)
(-3.7875023e+90 1.5250601e+89 -2.3026496e+88)
(-3.7985656e+90 1.4618171e+88 -5.2866344e+88)
(-3.9092089e+90 1.4877503e+89 3.1926856e+88)
(-3.724426e+90 5.4955449e+88 -3.2117659e+89)
(-3.6845347e+90 9.5525193e+88 -4.5600339e+89)
(-3.8907903e+90 1.1960645e+88 -3.3233786e+88)
(-3.6349072e+90 8.5734499e+88 -4.7321128e+89)
(-3.6987258e+90 1.1214666e+87 -4.2698969e+89)
(-3.8405093e+90 8.6080119e+88 -1.6768367e+88)
(-3.8129212e+90 -7.6872341e+87 -7.7613892e+88)
(-3.7097257e+90 1.1175859e+89 -1.266439e+89)
(-3.7237294e+90 -9.4055906e+87 -3.8628863e+89)
(-3.6779677e+90 8.3590048e+88 -4.2221723e+89)
(-3.7251548e+90 2.8587992e+88 -1.2652569e+89)
(-3.2188531e+90 6.6928726e+88 -1.3357582e+88)
(-3.212213e+90 3.7464324e+88 -3.9981426e+88)
(-3.186254e+90 7.7559837e+88 -3.1580082e+89)
(-3.2066967e+90 2.1111025e+88 -2.9557658e+89)
(-3.2544694e+90 6.7318106e+88 1.1022187e+88)
(-3.2517603e+90 1.9490906e+87 5.8937814e+86)
(-3.218192e+90 4.9341819e+88 -2.9125352e+89)
(-3.2414192e+90 2.2959933e+88 -2.5280902e+89)
(-3.0998761e+90 2.1697274e+88 -1.55013e+89)
(-3.0900165e+90 7.6294803e+88 -3.2420938e+88)
(-3.0910053e+90 5.8692879e+88 -1.6742818e+89)
(-3.1165776e+90 1.9198135e+88 -3.6417794e+88)