/*--------------------------------*- C++ -*----------------------------------*\
  =========                 |
  \\      /  F ield         | OpenFOAM: The Open Source CFD Toolbox
   \\    /   O peration     | Website:  https://openfoam.org
    \\  /    A nd           | Version:  7
     \\/     M anipulation  |
\*---------------------------------------------------------------------------*/
FoamFile
{
    version     2.0;
    format      ascii;
    class       volVectorField;
    location    "2000";
    object      UMean;
}
// * * * * * * * * * * * * * * * * * * * * * * * * * * * * * * * * * * * * * //

dimensions      [0 1 -1 0 0 0 0];

internalField   nonuniform List<vector> 
33733
(
(-3.0659861e+88 3.7534316e+86 -2.6766291e+86)
(-2.5817617e+88 8.188559e+85 -1.3288044e+85)
(-3.0895184e+88 3.3732156e+86 6.4190728e+85)
(-2.5642611e+88 -9.6939122e+85 -3.56378e+86)
(-2.6294489e+88 2.2620634e+86 -1.629888e+86)
(-3.1230384e+88 -5.364258e+86 -3.3334158e+86)
(-2.3297313e+88 -3.151819e+86 -5.2965478e+86)
(-2.3250656e+88 -1.2146095e+86 -6.6371443e+85)
(-2.5819476e+88 -2.1429177e+85 -1.9428347e+86)
(-2.4223931e+88 -6.2083618e+86 -5.0467453e+86)
(-2.6530705e+88 -4.6090702e+85 2.1736194e+86)
(-2.4229116e+88 -4.9860048e+86 2.3569504e+86)
(-2.5016396e+88 3.8751346e+85 1.0604817e+86)
(-2.5339752e+88 2.3395185e+86 2.2006829e+85)
(-2.4642571e+88 -5.4578983e+86 3.7589358e+86)
(-2.4203326e+88 -7.3404577e+86 2.4951046e+86)
(-3.1574904e+88 -6.5881035e+86 -2.3966071e+85)
(-2.3389502e+88 -7.4312289e+86 9.5605163e+84)
(-2.5712546e+88 -3.6026251e+86 -8.6518848e+85)
(-2.4451141e+88 -6.5543292e+86 8.7157034e+85)
(-2.3799862e+88 -5.8959819e+86 -1.2449538e+86)
(-2.4391109e+88 -5.6181649e+86 -3.7839072e+86)
(-2.5377467e+88 -4.6761889e+86 -3.7378314e+86)
(-2.3846102e+88 -1.0089496e+87 -6.1252257e+86)
(-2.4309471e+88 -8.3180486e+86 -4.1011557e+86)
(-2.2156016e+88 -3.0621475e+86 -9.4863361e+86)
(-2.5744237e+88 -1.5860689e+86 -5.0614356e+86)
(-2.537954e+88 -1.1626084e+86 -2.5250919e+86)
(-2.1177097e+88 -1.0376589e+86 -1.7860721e+86)
(-2.253638e+88 -1.1442423e+87 -7.7808754e+86)
(-2.4243419e+88 -1.1591601e+87 -7.4686301e+86)
(-2.246123e+88 -8.0283937e+86 -2.2420293e+86)
(-2.5361746e+88 -7.9088181e+86 -5.8841332e+86)
(-2.5848488e+88 -2.9542219e+86 -4.7936561e+86)
(-2.634819e+88 7.0552489e+85 -3.7767578e+86)
(-2.4348247e+88 -2.7720998e+86 -1.0965689e+87)
(-2.393733e+88 -6.0445502e+86 -9.8090982e+86)
(-2.3785562e+88 -5.2366701e+86 -6.0757198e+86)
(-2.3506698e+88 -7.8706237e+86 -8.7658736e+86)
(-2.2426313e+88 -1.133378e+87 -1.0113358e+87)
(-2.5901995e+88 -2.800581e+86 -2.7282697e+86)
(-2.3743433e+88 -9.2884467e+86 -1.0640226e+87)
(-2.2984776e+88 -6.4817948e+86 -8.8795101e+86)
(-2.6353861e+88 7.2005771e+86 5.6200334e+86)
(-2.4803132e+88 -5.8011629e+86 4.7801202e+86)
(-2.3769293e+88 -1.0388442e+87 4.1419956e+86)
(-2.3744522e+88 -1.4736973e+87 7.1249429e+86)
(-2.4739019e+88 -8.7288078e+86 5.5372072e+86)
(-2.3537822e+88 -5.6340765e+86 3.5350179e+86)
(-2.3662844e+88 -1.072478e+86 -1.4184995e+84)
(-2.3845649e+88 -5.1596093e+86 6.6953895e+86)
(-2.4967425e+88 -8.7244763e+86 4.1213621e+86)
(-2.31809e+88 -1.1037161e+87 7.8631062e+85)
(-2.5873904e+88 -5.1583085e+86 4.393655e+85)
(-2.4324621e+88 -1.5173933e+87 6.6366756e+86)
(-2.2634594e+88 -1.5297824e+87 5.9867992e+86)
(-2.2561506e+88 -8.7304571e+86 1.5465988e+86)
(-2.2314401e+88 -7.7163907e+86 2.9798724e+86)
(-2.5782266e+88 -3.2404585e+86 6.4741702e+85)
(-2.5149672e+88 -1.498979e+87 1.8294626e+85)
(-2.2876701e+88 -1.8507509e+87 2.216056e+85)
(-2.4346902e+88 -1.6943127e+87 -2.5833423e+86)
(-2.2477013e+88 -2.0350698e+87 -1.5698882e+86)
(-2.428106e+88 -1.6321529e+87 7.4686519e+85)
(-2.4846481e+88 -9.1440282e+86 9.342576e+85)
(-2.4234114e+88 -8.4542097e+86 -2.4086388e+86)
(-2.3812652e+88 -1.5540402e+87 -3.3650528e+86)
(-2.2839676e+88 -5.98422e+86 5.1683093e+86)
(-2.2671289e+88 -9.8422006e+86 6.2337053e+86)
(-2.1238615e+88 -1.0381841e+87 2.3148308e+86)
(-2.1415532e+88 -5.2584236e+86 2.085533e+86)
(-2.0594268e+88 -6.4032472e+86 -1.2669572e+86)
(-2.0903182e+88 -1.838526e+86 1.1843842e+86)
(-2.0577153e+88 -4.2377072e+86 2.189415e+86)
(-2.1498061e+88 -7.9589871e+86 -2.592799e+86)
(-2.3010096e+88 -7.820781e+86 -4.7300727e+86)
(-2.1683337e+88 -4.8965723e+86 -8.905564e+85)
(-2.314072e+88 -6.5159744e+86 -3.8081311e+86)
(-2.1994445e+88 -9.1877038e+86 -4.6552035e+86)
(-2.2001129e+88 -1.1924413e+87 -6.6487505e+86)
(-2.3372988e+88 -1.0175083e+87 -7.2287866e+86)
(-2.3421181e+88 -8.4952213e+86 -6.1604923e+86)
(-2.6984037e+88 -1.4571978e+87 -1.6505934e+87)
(-2.2593172e+88 -1.0300107e+87 -1.3124724e+87)
(-2.1781947e+88 2.8101249e+86 -1.0060676e+87)
(-2.4064762e+88 -4.6839501e+86 -6.2117895e+86)
(-2.4318421e+88 -6.481061e+86 -4.7651162e+86)
(-2.1043836e+88 1.9137327e+85 2.822148e+86)
(-2.2437916e+88 -1.7076915e+87 -1.1198731e+87)
(-2.3068997e+88 -1.1794113e+87 -6.4826843e+86)
(-2.3037274e+88 -1.5756843e+87 -1.0698232e+87)
(-2.451514e+88 -9.3834413e+86 -7.3879939e+86)
(-2.2485007e+88 -1.587018e+87 -1.0217816e+87)
(-2.2458686e+88 -1.3533082e+87 -8.5684754e+86)
(-2.3619524e+88 -1.179286e+87 -8.1151885e+86)
(-2.3883641e+88 -1.0427312e+87 -8.186685e+86)
(-2.6898719e+88 3.337183e+86 -5.0678734e+86)
(-2.3977947e+88 -1.5938624e+86 -1.1268004e+87)
(-2.4168012e+88 8.6940607e+85 -9.6792504e+86)
(-2.4065196e+88 -1.645616e+86 -1.0997437e+87)
(-2.6643806e+88 -1.1332517e+86 -5.9398982e+86)
(-2.467972e+88 7.3221981e+85 -1.3119412e+87)
(-2.4506859e+88 -2.5507928e+86 -1.2964595e+87)
(-2.4047633e+88 -5.3248051e+86 -1.0548548e+87)
(-2.3620874e+88 -6.1638776e+86 -1.0215928e+87)
(-2.3455106e+88 -7.3004606e+86 -1.4589078e+87)
(-2.3142481e+88 -8.0169734e+86 -1.3509105e+87)
(-2.4327161e+88 -2.003032e+86 -1.0345269e+87)
(-2.4005948e+88 -4.7927832e+86 -1.0323009e+87)
(-2.3744776e+88 -3.3367256e+86 -1.4634862e+87)
(-2.3586743e+88 -6.0972903e+86 -1.3440029e+87)
(-2.68102e+88 7.4836213e+85 -4.6424041e+86)
(-2.4334842e+88 -2.7492896e+86 -1.4135092e+87)
(-2.2240752e+88 -3.8536738e+86 -2.016977e+87)
(-2.2577265e+88 -7.7699679e+86 -1.8181706e+87)
(-2.435056e+88 -5.7003291e+86 -1.1956894e+87)
(-2.4107723e+88 -7.0967231e+86 -1.3880536e+87)
(-2.222318e+88 -8.6215123e+86 -1.9738241e+87)
(-2.1800147e+88 -1.0652832e+87 -1.7831538e+87)
(-2.6034482e+88 -2.458565e+86 -4.2359112e+86)
(-2.3572681e+88 -7.8580327e+86 -1.4656224e+87)
(-2.3655821e+88 2.5096323e+86 -1.8311855e+87)
(-2.3357541e+88 1.8558079e+85 -1.5800011e+87)
(-2.1180907e+88 -7.2189462e+86 -6.7786749e+86)
(-2.1257118e+88 -6.3758993e+86 -4.2342803e+86)
(-2.1548293e+88 -8.3026079e+86 -8.6023358e+86)
(-2.1711286e+88 -8.534421e+86 -1.0916584e+87)
(-2.2966708e+88 -1.0375372e+87 -1.4357383e+87)
(-2.2348184e+88 -1.3205375e+87 -1.569375e+87)
(-2.3768036e+88 -6.4628835e+86 -5.0434454e+86)
(-2.2025724e+88 -1.0047785e+87 8.7141699e+85)
(-2.225681e+88 -1.0609315e+87 -1.4988048e+87)
(-2.211346e+88 -9.5752967e+86 -1.3108463e+87)
(-2.523362e+88 -1.9378975e+86 7.4426537e+86)
(-2.6092294e+88 2.9932564e+86 8.3283594e+86)
(-2.65281e+88 3.790861e+86 1.7068406e+86)
(-2.346303e+88 -8.1959431e+86 6.9063095e+86)
(-2.2958506e+88 -1.186466e+87 7.8124237e+86)
(-2.3218407e+88 -1.6030917e+87 1.400494e+87)
(-2.3399877e+88 -1.1869157e+87 1.1120387e+87)
(-2.3425345e+88 -6.9749893e+86 6.6819661e+86)
(-2.395248e+88 -2.9310563e+86 4.1040569e+85)
(-2.3665049e+88 -5.435999e+86 9.4139311e+86)
(-2.0904297e+88 -1.0569262e+87 8.9610415e+86)
(-2.0854302e+88 -7.0397702e+86 6.0846746e+86)
(-2.3239297e+88 -1.266144e+87 8.8740693e+86)
(-2.2003861e+88 -1.5767284e+87 6.1735829e+86)
(-2.4639304e+88 -1.1466722e+87 4.2214001e+86)
(-2.1422499e+88 -6.025108e+86 -7.1198184e+86)
(-2.2227471e+88 -6.1405353e+86 4.1697076e+86)
(-2.448057e+88 -1.2550366e+87 3.7425891e+86)
(-2.275224e+88 -1.8192931e+87 1.4961773e+87)
(-2.2460279e+88 -1.6773339e+87 1.0710087e+87)
(-2.3151834e+88 -1.489641e+87 2.30123e+86)
(-2.6362833e+88 -1.7468922e+87 2.9321134e+86)
(-2.2177464e+88 -1.556079e+87 5.6929212e+86)
(-2.4286529e+88 -1.1093346e+87 -1.821592e+86)
(-2.157551e+88 -3.4828771e+86 -1.100445e+86)
(-2.135021e+88 -2.5437669e+86 3.7653855e+86)
(-2.3974653e+88 -1.0028735e+87 3.7260773e+85)
(-2.369253e+88 -2.0379833e+87 7.5328235e+86)
(-2.3322431e+88 -2.3166999e+87 4.7296874e+86)
(-2.2409186e+88 -2.6854448e+87 6.7038876e+86)
(-2.2755977e+88 -2.3258551e+87 5.5312035e+86)
(-2.4150717e+88 -1.8611289e+87 3.2202364e+86)
(-2.2840275e+88 -1.9371418e+87 -9.0495621e+85)
(-2.305895e+88 -2.3686943e+87 7.2268638e+86)
(-2.2196749e+88 -2.4384536e+87 6.0917415e+86)
(-2.238919e+88 -2.7663984e+87 -6.3467561e+86)
(-2.2073399e+88 -2.2493849e+87 -8.9379256e+86)
(-2.2583864e+88 -2.2612796e+87 -7.1421258e+86)
(-2.2196918e+88 -1.7315118e+87 -7.9722403e+86)
(-2.2378513e+88 -2.6212359e+87 -3.8857196e+86)
(-2.328843e+88 -2.3130176e+87 -5.2288673e+86)
(-2.2143827e+88 -2.749279e+87 -5.9722011e+86)
(-2.2816903e+88 -2.2371084e+87 -7.6618346e+86)
(-2.3135479e+88 -2.0394065e+87 7.8388846e+86)
(-2.3233552e+88 -1.7233999e+87 8.2719551e+86)
(-2.2247945e+88 -1.9193635e+87 3.7652932e+86)
(-2.2211361e+88 -2.3651399e+87 4.9867195e+86)
(-2.2950129e+88 -1.2333238e+87 6.8105623e+86)
(-2.285101e+88 -1.5634629e+87 7.5801178e+86)
(-2.1624547e+88 -1.8209244e+87 3.1170176e+86)
(-2.1732381e+88 -1.2660209e+87 2.4992498e+86)
(-2.1224066e+88 -7.8092393e+86 -2.919313e+86)
(-2.1040389e+88 -1.4454301e+87 -5.0920961e+86)
(-2.1125181e+88 -5.1205342e+86 -2.8996906e+85)
(-2.0884683e+88 -9.6856269e+86 -2.424523e+86)
(-2.1751079e+88 -1.6469968e+87 -5.9971278e+86)
(-2.1524931e+88 -1.1291579e+87 -4.6505496e+86)
(-2.1867042e+88 -2.1820903e+87 -7.3079003e+86)
(-2.1524709e+88 -1.5595429e+87 -6.9364999e+86)
(-1.9037083e+88 -1.3413793e+87 6.862973e+86)
(-1.9186335e+88 -1.1063323e+87 6.5015236e+86)
(-1.7595369e+88 -8.3183973e+86 4.5239986e+86)
(-1.7244305e+88 -1.2980242e+87 4.4495351e+86)
(-1.7033055e+88 -6.6239225e+86 4.8753098e+86)
(-1.915266e+88 -6.1838171e+86 5.6899433e+86)
(-1.8812613e+88 -8.9058644e+86 6.2164146e+86)
(-1.7433799e+88 -2.7491231e+86 5.2025535e+86)
(-1.6329012e+88 -6.8130563e+86 1.1823911e+86)
(-1.6872946e+88 -3.2428453e+86 2.4062299e+86)
(-1.693274e+88 -1.3411955e+86 1.9563651e+86)
(-1.7350445e+88 -7.1917091e+84 3.4060966e+86)
(-1.6903528e+88 5.0330872e+85 5.5482415e+86)
(-1.6367468e+88 -2.1395715e+86 4.1007343e+86)
(-1.694257e+88 5.322697e+85 5.3216294e+86)
(-1.7386608e+88 1.8629268e+86 6.6027727e+86)
(-1.7129636e+88 1.1463043e+86 9.4126325e+86)
(-1.7253606e+88 7.7044029e+84 7.1420185e+86)
(-1.7077394e+88 -4.9135724e+86 8.0086138e+86)
(-1.7169347e+88 -4.1776515e+86 9.1215646e+86)
(-1.7581869e+88 7.8321216e+85 7.7487907e+86)
(-1.8738814e+88 -8.1190441e+86 -1.0683439e+86)
(-1.8825034e+88 -7.5326471e+86 -1.7931094e+85)
(-1.9944784e+88 -6.5417842e+86 -3.1209412e+86)
(-1.9854038e+88 -7.2389207e+86 -3.7676358e+86)
(-1.9749111e+88 -6.0076989e+86 -1.7653132e+86)
(-1.8559988e+88 -6.6946874e+86 1.836439e+86)
(-1.840622e+88 -7.3420741e+86 1.2796463e+86)
(-1.9553399e+88 -6.3356598e+86 -2.2659865e+86)
(-1.9068657e+88 -9.036308e+86 -3.3931502e+86)
(-1.9127664e+88 -8.1755202e+86 -2.4826654e+86)
(-2.0061802e+88 -8.2241194e+86 -5.2797503e+86)
(-2.0203135e+88 -7.3846103e+86 -4.5534365e+86)
(-1.9525974e+88 -1.0444133e+87 -6.1303894e+86)
(-2.0503936e+88 -9.1704411e+86 -7.0058911e+86)
(-2.0464776e+88 -8.7662891e+86 -6.4498855e+86)
(-1.9502283e+88 -9.9246264e+86 -5.0267936e+86)
(-2.5722876e+88 -3.4916318e+85 -2.0144994e+87)
(-2.2192123e+88 2.7296735e+86 -1.8830643e+87)
(-2.1782213e+88 -1.1975436e+87 -1.1466083e+87)
(-2.2477353e+88 -2.4022585e+86 -1.0034967e+87)
(-2.3365972e+88 -9.676276e+86 -8.4036088e+86)
(-2.2270585e+88 -3.3101347e+86 1.3960454e+86)
(-2.4272686e+88 -8.2487313e+86 -5.4390161e+86)
(-2.1513514e+88 -1.4981587e+87 -1.6387757e+87)
(-2.1626034e+88 -1.4074591e+87 -1.4800335e+87)
(-2.2767376e+88 -9.4290464e+86 -7.5718176e+86)
(-2.2228047e+88 -1.1979667e+87 -8.532633e+86)
(-2.1186712e+88 -1.4061167e+87 -1.4258315e+87)
(-2.1118621e+88 -1.3025017e+87 -1.2675392e+87)
(-2.2079267e+88 -1.0932797e+87 -9.3726951e+86)
(-2.1973595e+88 -1.2627219e+87 -9.4793963e+86)
(-2.0718681e+88 -1.2255927e+87 -1.121288e+87)
(-2.0528837e+88 -1.2516527e+87 -1.043395e+87)
(-2.1459959e+88 -1.0571638e+87 -9.1216581e+86)
(-2.1562245e+88 -1.153138e+87 -9.3536743e+86)
(-1.9975579e+88 -1.0931046e+87 -7.8117089e+86)
(-2.0076654e+88 -1.1414911e+87 -8.8483174e+86)
(-2.0955249e+88 -1.0424892e+87 -8.5059498e+86)
(-2.0911931e+88 -9.574175e+86 -7.9521703e+86)
(-2.4547995e+88 7.4626926e+85 -1.04272e+87)
(-2.3990175e+88 -1.8039041e+85 -1.4023754e+87)
(-2.3794654e+88 -2.5858544e+86 -1.540317e+87)
(-2.4160192e+88 -1.7669825e+86 -1.2262052e+87)
(-2.1043957e+88 -1.2441348e+86 -1.0847249e+87)
(-2.1180419e+88 -1.7895703e+86 -1.0632051e+87)
(-2.1253535e+88 -1.3263616e+86 -9.2590476e+86)
(-2.1092011e+88 -1.2674698e+86 -9.7034379e+86)
(-2.1339128e+88 -2.3135518e+85 -8.5810759e+86)
(-2.133259e+88 -7.1348782e+85 -1.0052625e+87)
(-2.1413006e+88 2.9671109e+85 -7.3442043e+86)
(-2.1451609e+88 -6.0767771e+85 -8.4279112e+86)
(-2.1177469e+88 -1.8196385e+86 -1.0463995e+87)
(-2.1214875e+88 -1.9359584e+86 -9.4640209e+86)
(-2.1331469e+88 -1.2825949e+86 -8.1316754e+86)
(-2.4538662e+88 -1.5087389e+86 -1.1406204e+87)
(-2.1028209e+88 -1.9255899e+86 -1.0261353e+87)
(-2.1115726e+88 -2.6882017e+86 -9.8412058e+86)
(-2.4167912e+88 -2.5359028e+86 -1.1919175e+87)
(-2.3731881e+88 -3.2943545e+86 -1.5356187e+87)
(-2.3843991e+88 -2.4166113e+86 -1.5632881e+87)
(-2.4741188e+88 4.7643797e+85 -1.2341533e+87)
(-2.2510212e+88 -7.4240542e+85 -2.0723002e+87)
(-2.2500773e+88 -3.5475974e+86 -2.0802316e+87)
(-2.7282578e+88 3.5137028e+86 -6.5733616e+86)
(-2.4556571e+88 -2.2891425e+86 -1.4203243e+87)
(-2.6939513e+88 -1.3459968e+86 -6.3030546e+86)
(-2.4675227e+88 -1.858978e+86 -1.3618127e+87)
(-2.2537026e+88 -2.9299342e+86 -2.1382938e+87)
(-2.2410065e+88 -4.1813575e+86 -2.1134381e+87)
(-2.4450245e+88 -3.2778801e+86 -1.4153824e+87)
(-2.3850808e+88 -2.0481458e+85 -2.1485977e+87)
(-2.4019776e+88 4.3005738e+86 -2.2685864e+87)
(-2.1445746e+88 -6.5095275e+86 -8.5079726e+86)
(-2.1310655e+88 -6.0194934e+86 -8.6868624e+86)
(-2.1348275e+88 -6.9327272e+86 -1.0647941e+87)
(-2.1262569e+88 -6.8295545e+86 -1.0655771e+87)
(-2.1173873e+88 -7.543624e+86 -6.9620816e+86)
(-2.1164727e+88 -7.6043992e+86 -8.1969874e+86)
(-2.1113684e+88 -8.2716622e+86 -9.9560243e+86)
(-2.1048163e+88 -7.8883782e+86 -8.8449283e+86)
(-2.1911475e+88 -7.6324346e+86 -1.3148932e+87)
(-2.1848705e+88 -8.0007442e+86 -1.3273133e+87)
(-2.1746468e+88 -7.134225e+86 -1.1366637e+87)
(-2.185918e+88 -7.086503e+86 -1.1175348e+87)
(-2.1554744e+88 -8.49349e+86 -1.2324514e+87)
(-2.1690449e+88 -9.6968888e+86 -1.3087174e+87)
(-2.151314e+88 -8.8562987e+86 -1.1393614e+87)
(-2.1481179e+88 -8.021509e+86 -1.0177611e+87)
(-2.1659915e+88 -3.4197508e+86 -8.9449284e+86)
(-2.1561603e+88 -2.9943349e+86 -8.7755951e+86)
(-1.8532812e+88 -2.6472658e+86 -8.3757673e+86)
(-2.1518432e+88 -3.7274844e+86 -1.0704611e+87)
(-2.1562261e+88 -3.6068251e+86 -1.1124607e+87)
(-2.1451981e+88 -4.9081903e+86 -8.7546447e+86)
(-2.1415422e+88 -4.9618459e+86 -8.4704187e+86)
(-2.1304918e+88 -5.2640914e+86 -1.010444e+87)
(-2.1372211e+88 -5.4757848e+86 -1.0406043e+87)
(-2.2052754e+88 -4.7384358e+86 -1.3652755e+87)
(-2.2123505e+88 -3.6689292e+86 -1.3524227e+87)
(-2.1986904e+88 -4.0892435e+86 -1.1574704e+87)
(-2.2046245e+88 -3.6444104e+86 -1.1836469e+87)
(-2.1710102e+88 -5.9606593e+86 -1.332107e+87)
(-2.1814329e+88 -6.3928498e+86 -1.3445591e+87)
(-2.1862746e+88 -5.7365002e+86 -1.075818e+87)
(-2.1805116e+88 -5.4889687e+86 -1.038842e+87)
(-2.1879377e+88 -2.7632464e+86 -8.7856295e+86)
(-2.4414551e+88 -1.9826823e+86 -7.4281496e+86)
(-2.444137e+88 -4.6701553e+86 -7.3437408e+86)
(-2.1625348e+88 -3.5017108e+86 -7.4888263e+86)
(-2.2490666e+88 -3.7790518e+86 -1.8276556e+87)
(-2.24653e+88 -5.4364527e+86 -1.8355476e+87)
(-2.2555374e+88 -4.9201813e+86 -1.4709369e+87)
(-2.2673868e+88 -3.1559366e+86 -1.4124429e+87)
(-2.1976305e+88 -5.4476625e+86 -2.3842532e+87)
(-2.2002618e+88 -5.0049627e+86 -2.3023163e+87)
(-2.3240538e+88 -4.779532e+86 -1.7342963e+87)
(-2.3312843e+88 -3.0979497e+86 -1.6530796e+87)
(-2.2241948e+88 -7.7785241e+86 -2.2176944e+87)
(-2.3148244e+88 -6.447023e+86 -1.3916222e+87)
(-2.2126093e+88 -7.654651e+86 -2.2500582e+87)
(-2.3055467e+88 -7.0643034e+86 -1.3709435e+87)
(-2.2376899e+88 -6.2616278e+86 -1.3714739e+87)
(-2.227653e+88 -6.5632471e+86 -1.6651374e+87)
(-2.2279488e+88 -6.1502597e+86 -1.3506082e+87)
(-2.2202412e+88 -6.9365599e+86 -1.6024384e+87)
(-2.2376455e+88 -9.0571221e+86 -1.7528023e+87)
(-2.2418709e+88 -9.7128127e+86 -1.720442e+87)
(-2.2446748e+88 -7.7970391e+86 -1.3899498e+87)
(-2.237551e+88 -8.5146645e+86 -1.400735e+87)
(-2.2161123e+88 -1.0368851e+87 -2.2226515e+87)
(-2.2207868e+88 -1.0622973e+87 -2.3089768e+87)
(-2.3203153e+88 -9.5806963e+86 -1.6349138e+87)
(-2.3183463e+88 -8.4616733e+86 -1.6054191e+87)
(-2.4141222e+88 -5.2412994e+86 -7.7822389e+86)
(-2.1785327e+88 -1.1583552e+87 -2.1648821e+87)
(-2.2043115e+88 -1.2944936e+87 -2.1741723e+87)
(-2.2917976e+88 -1.1050845e+87 -1.6694783e+87)
(-2.2713997e+88 -8.522968e+86 -1.6954743e+87)
(-2.3412196e+88 -4.503626e+86 -7.3760404e+86)
(-2.1025223e+88 -1.0634345e+86 -2.7409036e+86)
(-2.149513e+88 -3.8370876e+86 -5.4857264e+86)
(-2.2014792e+88 -9.4315095e+86 -1.7037471e+87)
(-2.218192e+88 -1.1394141e+87 -1.7749018e+87)
(-2.2014439e+88 -8.5181525e+86 -1.4357125e+87)
(-2.2133155e+88 -1.0368686e+87 -1.501651e+87)
(-2.2655672e+88 -2.6031669e+86 -1.9655961e+87)
(-1.8850006e+88 -8.1821614e+86 -5.7400747e+86)
(-1.8938394e+88 -7.935753e+86 -4.9925638e+86)
(-1.8670864e+88 -7.4004222e+86 -4.2051832e+86)
(-1.8770753e+88 -7.6517684e+86 -3.5142726e+86)
(-1.9151812e+88 -8.3585767e+86 -6.1444178e+86)
(-1.9078309e+88 -8.8402651e+86 -7.563829e+86)
(-1.9440972e+88 -9.4559458e+86 -8.9727144e+86)
(-1.9537646e+88 -8.7721266e+86 -9.3858896e+86)
(-2.0979716e+88 -1.132942e+87 -1.3022504e+87)
(-2.1156472e+88 -1.2455448e+87 -1.3597421e+87)
(-2.3141622e+88 -9.32397e+86 -9.2481739e+86)
(-2.1547624e+88 -1.1762153e+87 -1.3170555e+87)
(-2.144302e+88 -1.380611e+87 -1.3923119e+87)
(-2.2452592e+88 -1.1235559e+87 -3.8106018e+85)
(-2.0606058e+88 -1.0932659e+87 -1.260217e+87)
(-2.0448006e+88 -1.0415908e+87 -1.2350798e+87)
(-2.0061522e+88 -9.3762665e+86 -1.089037e+87)
(-1.9897688e+88 -9.4013419e+86 -1.0372698e+87)
(-2.3586214e+88 -6.087722e+86 7.578163e+86)
(-2.4270302e+88 -6.0886622e+86 1.3974528e+86)
(-2.5693203e+88 -1.155139e+86 4.8428133e+86)
(-2.4333537e+88 -2.2780052e+86 1.1576467e+87)
(-2.5290706e+88 -4.0699575e+86 7.1629191e+86)
(-2.6068968e+88 -8.8375254e+85 7.0073693e+86)
(-2.6695627e+88 3.8917562e+86 -4.7728729e+85)
(-2.4111916e+88 -2.118398e+86 1.0893775e+86)
(-2.3778475e+88 -5.4963727e+86 7.9492412e+86)
(-2.3497475e+88 -8.1109954e+86 1.109216e+87)
(-2.2526337e+88 -1.1034069e+87 1.3280248e+87)
(-2.149018e+88 -2.06538e+87 1.48073e+87)
(-2.3060124e+88 -1.5286997e+87 2.1531559e+87)
(-2.1722448e+88 -2.2440449e+87 1.5664425e+87)
(-2.3199497e+88 -1.1734871e+87 1.688579e+87)
(-2.1254534e+88 -1.7692038e+87 1.3270525e+87)
(-2.1210817e+88 -1.4175408e+87 1.0570871e+87)
(-2.4183478e+88 1.1212307e+86 -9.2974704e+85)
(-2.09413e+88 -7.7914438e+86 1.3786991e+87)
(-2.4120873e+88 -3.7910304e+86 9.1112659e+86)
(-2.075428e+88 -9.8187605e+86 1.4193881e+87)
(-2.0821762e+88 -5.6795733e+86 9.5519405e+86)
(-2.0898769e+88 -4.6468385e+86 8.5123195e+86)
(-1.7532277e+88 -9.9294527e+86 7.4709236e+86)
(-1.7532119e+88 -1.2386702e+87 8.6696501e+86)
(-1.7159437e+88 -6.3373643e+86 7.0105894e+86)
(-1.7340753e+88 -3.7841546e+86 5.6248277e+86)
(-2.2897919e+88 -1.0432124e+87 1.3632525e+87)
(-2.0811441e+88 -1.5163555e+87 1.0924641e+87)
(-2.3294073e+88 -1.3753601e+87 6.0111797e+86)
(-2.1995063e+88 -1.7122343e+87 -6.0555958e+86)
(-2.3703355e+88 -1.4072629e+87 3.8534752e+86)
(-2.3472192e+88 -1.1536616e+87 1.7373305e+86)
(-2.2567407e+88 -1.7096366e+87 2.3688895e+87)
(-2.2019483e+88 -2.4680953e+87 1.366246e+87)
(-2.1881761e+88 -2.4543044e+87 1.6971653e+87)
(-2.1939279e+88 -1.6732166e+87 1.833485e+87)
(-2.2432761e+88 -2.2840656e+87 1.0070452e+87)
(-2.1592679e+88 -2.32996e+87 7.6492476e+86)
(-2.2837281e+88 -3.1950021e+86 6.5371923e+86)
(-2.4916329e+88 -3.1197859e+86 5.5827222e+86)
(-2.1084634e+88 -1.2015493e+85 7.6042622e+86)
(-2.128651e+88 -1.8778934e+87 -5.4725043e+86)
(-2.0851559e+88 -1.9432893e+87 5.1937532e+86)
(-2.2161402e+88 -9.5074812e+86 -1.1435444e+87)
(-2.389204e+88 -1.6201361e+87 6.511626e+85)
(-2.3296424e+88 -1.8766113e+87 2.5153334e+86)
(-2.2372415e+88 -1.0151675e+87 2.0365157e+86)
(-2.2035214e+88 -9.3261142e+86 -3.5983753e+86)
(-2.3532171e+88 -1.6574456e+87 -4.7473116e+86)
(-2.3113664e+88 -1.9280487e+87 -2.8128941e+86)
(-2.1813506e+88 -1.0467959e+87 1.4539807e+86)
(-2.0732577e+88 -2.8300471e+87 1.1545947e+87)
(-2.0489565e+88 -3.0574441e+87 1.2011617e+87)
(-2.021313e+88 -3.2210144e+87 1.2285777e+87)
(-2.0746373e+88 -2.9309095e+87 1.2635659e+87)
(-2.0602439e+88 -2.6996267e+87 1.0898704e+87)
(-2.03318e+88 -3.0375912e+87 1.131045e+87)
(-1.9949666e+88 -3.2320061e+87 1.1286728e+87)
(-2.0044373e+88 -2.9220663e+87 9.7268255e+86)
(-2.0195956e+88 -3.2978513e+87 1.7977994e+87)
(-2.0661211e+88 -2.6827998e+87 1.4159587e+87)
(-2.0702368e+88 -3.3002988e+87 1.6810489e+86)
(-2.0440042e+88 -3.0116306e+87 -6.9753655e+84)
(-1.9415089e+88 -2.8686878e+87 -9.305732e+86)
(-1.971126e+88 -3.2944839e+87 -6.3940528e+86)
(-1.9159552e+88 -1.9476776e+87 -1.7516496e+87)
(-1.9763681e+88 -1.3678772e+87 -8.8345052e+86)
(-1.9435993e+88 -2.4928879e+87 -1.9666785e+87)
(-1.9868481e+88 -1.7147278e+87 -1.0144923e+87)
(-1.9736744e+88 -3.213566e+87 -1.2278773e+86)
(-1.9559823e+88 -2.8146759e+87 -2.2296585e+86)
(-1.8754702e+88 -2.0915733e+87 -1.2019697e+87)
(-1.86952e+88 -2.7692844e+87 -1.1250045e+87)
(-1.8460423e+88 -1.7435375e+87 -1.6060538e+87)
(-1.8524824e+88 -1.2184477e+87 -1.2961236e+87)
(-1.9134472e+88 -1.0378028e+87 -6.0346759e+86)
(-1.9108219e+88 -1.3117762e+87 -7.4178298e+86)
(-2.1974147e+88 -2.5909155e+87 -1.7727172e+86)
(-2.1654786e+88 -2.4729014e+87 -5.346579e+86)
(-2.1096293e+88 -2.9028482e+87 3.9537621e+86)
(-2.1309924e+88 -2.8952558e+87 9.1412393e+85)
(-2.1419946e+88 -2.9531013e+87 1.0960269e+86)
(-2.1276e+88 -3.1057524e+87 -8.5921489e+85)
(-2.0497361e+88 -3.4659529e+87 -6.7119159e+85)
(-2.0400945e+88 -3.1746161e+87 -3.8896045e+86)
(-2.0572286e+88 -3.2395901e+87 -1.7960104e+87)
(-2.0880097e+88 -3.1520012e+87 -1.8825426e+87)
(-2.0888603e+88 -2.3696251e+87 -7.51634e+86)
(-2.1155715e+88 -2.1124024e+87 -1.0319767e+87)
(-2.0210114e+88 -3.3514758e+87 -1.9946394e+87)
(-2.0127651e+88 -2.6077639e+87 -1.9962313e+87)
(-2.0536997e+88 -1.7073917e+87 -1.1072112e+87)
(-2.0518664e+88 -2.2173467e+87 -1.1654694e+87)
(-1.99089e+88 -2.4527849e+87 9.5589025e+86)
(-1.8889213e+88 -2.2364733e+87 4.6210427e+86)
(-2.004537e+88 -2.1683148e+87 9.2546328e+86)
(-1.8937209e+88 -2.7256973e+87 6.4001255e+86)
(-2.0276508e+88 -2.5263489e+87 1.0294249e+87)
(-1.9430022e+88 -2.8356987e+87 7.6735018e+86)
(-2.0264337e+88 -2.6992082e+87 1.0446454e+87)
(-1.9628088e+88 -2.9217394e+87 8.6055949e+86)
(-1.9665683e+88 -2.0915036e+87 8.9486558e+86)
(-1.9694488e+88 -1.892016e+87 8.5939028e+86)
(-1.8334675e+88 -2.2112244e+87 4.3524813e+86)
(-1.8315159e+88 -1.8836279e+87 3.8833847e+86)
(-1.9281471e+88 -1.7354757e+87 8.1912939e+86)
(-1.9406704e+88 -1.4929727e+87 7.1991262e+86)
(-1.7729874e+88 -1.3801305e+87 3.6242087e+86)
(-1.7813777e+88 -1.7571465e+87 3.6700422e+86)
(-1.6706475e+88 -1.2116638e+87 -2.5192237e+86)
(-1.6783621e+88 -7.73847e+86 -4.7284277e+85)
(-1.7365639e+88 -1.8163456e+86 -1.4916141e+85)
(-1.6877813e+88 -4.4434552e+86 -2.3491568e+86)
(-1.7294064e+88 -1.7760882e+87 -4.4310141e+86)
(-1.728707e+88 -1.39206e+87 -3.5979816e+86)
(-1.7398356e+88 -5.9943847e+86 -4.3340399e+86)
(-1.7105627e+88 -8.0914565e+86 -6.4891283e+86)
(-1.7679094e+88 2.6636752e+84 5.3647681e+86)
(-1.7243644e+88 -1.4345707e+86 3.9354589e+86)
(-1.7485221e+88 -4.6468671e+86 5.9384887e+86)
(-1.7223317e+88 -6.3457645e+86 5.1407698e+86)
(-1.7718511e+88 -2.3337443e+86 1.7217451e+86)
(-1.7422497e+88 -3.4428237e+86 -1.9815332e+85)
(-1.7718213e+88 -6.6077243e+86 3.4314738e+86)
(-1.7600856e+88 -7.8859329e+86 2.3004122e+86)
(-1.8026083e+88 -2.3244953e+87 -4.0357623e+86)
(-1.7451221e+88 -1.330306e+87 -1.0408424e+87)
(-1.7830206e+88 -1.8773322e+87 -4.4386353e+86)
(-1.7635053e+88 -9.4786848e+86 -8.2936969e+86)
(-1.7533478e+88 -6.5874433e+86 -5.4411645e+86)
(-1.799274e+88 -9.4451343e+86 -8.907507e+85)
(-1.8076245e+88 -7.6143879e+86 4.1823467e+85)
(-1.7864917e+88 -4.1125424e+86 -2.5967666e+86)
(-1.8810203e+88 -2.8550257e+87 -2.9329449e+86)
(-1.8650701e+88 -2.4800165e+87 -3.6560095e+86)
(-1.8011949e+88 -1.9246982e+87 -1.2111883e+87)
(-1.8085098e+88 -1.5434342e+87 -1.1329556e+87)
(-1.8047214e+88 -8.3360568e+86 -7.9518588e+86)
(-1.7936182e+88 -1.0707504e+87 -1.0699261e+87)
(-1.8535792e+88 -9.6686131e+86 -2.794866e+86)
(-1.8533483e+88 -1.0533863e+87 -4.1662398e+86)
(-1.4120691e+88 -5.1119778e+86 6.5240681e+86)
(-1.5443135e+88 -9.6802579e+86 8.0114108e+86)
(-1.5094882e+88 -1.2212983e+87 8.2222097e+86)
(-1.3585418e+88 -7.6049354e+86 6.1188479e+86)
(-1.5415255e+88 -1.3774853e+87 8.2117931e+86)
(-1.5175002e+88 -1.4797118e+87 8.3301196e+86)
(-1.3688002e+88 -1.3616702e+87 7.3336464e+86)
(-1.5716878e+88 -1.029234e+87 3.9972123e+86)
(-1.3712367e+88 -5.4157428e+86 7.3255229e+86)
(-1.5169808e+88 -8.4960903e+86 8.6380839e+86)
(-1.5317019e+88 -6.7212617e+86 8.8474695e+86)
(-1.4010991e+88 -4.3459125e+86 7.9480676e+86)
(-1.501305e+88 -4.903924e+86 9.4444013e+86)
(-1.5332041e+88 -3.1535081e+86 8.9740287e+86)
(-1.4083413e+88 -2.0422705e+86 9.0018829e+86)
(-1.3627563e+88 -3.7806261e+86 8.8228084e+86)
(-1.3260596e+88 -9.0930637e+86 4.6973294e+86)
(-1.2231507e+88 -1.0627941e+87 6.7499867e+86)
(-1.3052062e+88 -6.1583361e+86 5.397441e+86)
(-1.3675848e+88 -5.0775819e+86 5.0642398e+86)
(-1.4087462e+88 -2.2775966e+86 6.755351e+86)
(-1.3783082e+88 -5.068534e+86 5.7136084e+86)
(-1.3518454e+88 -4.0711461e+86 6.3455663e+86)
(-1.31835e+88 -7.4737667e+86 5.8386205e+86)
(-1.4428271e+88 4.9162018e+85 7.3894416e+86)
(-1.4790654e+88 1.1048965e+86 7.4335559e+86)
(-1.5061377e+88 2.094404e+86 8.2882977e+86)
(-1.4840806e+88 2.0060849e+86 8.3296983e+86)
(-1.511918e+88 2.8512601e+86 9.2896501e+86)
(-1.4980412e+88 2.526448e+86 9.1362113e+86)
(-1.4809791e+88 2.5638277e+86 9.441297e+86)
(-1.4553949e+88 1.8841252e+86 9.0272927e+86)
(-1.4763356e+88 2.8782719e+86 1.0621859e+87)
(-1.5044893e+88 3.1428025e+86 1.0832931e+87)
(-1.5120857e+88 2.9230889e+86 1.0801169e+87)
(-1.4905195e+88 2.877391e+86 1.0601055e+87)
(-1.3912258e+88 -1.8661393e+86 8.2274996e+86)
(-1.3532301e+88 -4.4248174e+86 6.9026378e+86)
(-1.3942224e+88 -2.6520654e+86 7.3575794e+86)
(-1.427513e+88 -7.7030732e+85 8.8669722e+86)
(-1.4054061e+88 7.5940827e+84 1.0100185e+87)
(-1.3686866e+88 -1.5263476e+86 8.5933621e+86)
(-1.422276e+88 3.0434067e+85 8.6891247e+86)
(-1.4503901e+88 1.4402169e+86 1.0202592e+87)
(-1.5153243e+88 4.2525854e+86 1.2034534e+87)
(-1.4782104e+88 3.8310493e+86 1.2229435e+87)
(-1.4872137e+88 3.31109e+86 1.1894462e+87)
(-1.5185415e+88 3.7357261e+86 1.1715915e+87)
(-1.5203051e+88 4.1099456e+86 1.3223788e+87)
(-1.541353e+88 3.9385731e+86 1.3126395e+87)
(-1.5351653e+88 3.0949002e+86 1.1738575e+87)
(-1.5132395e+88 3.1678657e+86 1.1431539e+87)
(-1.5187952e+88 3.7705226e+86 1.1520326e+87)
(-1.5409393e+88 3.5499463e+86 1.1344774e+87)
(-1.5334346e+88 3.1076155e+86 9.7798156e+86)
(-1.5142233e+88 3.1427876e+86 9.9229439e+86)
(-1.4926766e+88 3.0280447e+86 1.2700875e+87)
(-1.5097741e+88 3.2094318e+86 1.288238e+87)
(-1.4138088e+88 -1.318956e+87 9.1772644e+86)
(-1.4055265e+88 -1.346408e+87 8.4174082e+86)
(-1.4486581e+88 -8.0785515e+86 8.9272109e+86)
(-1.4967787e+88 3.813876e+86 1.3290138e+87)
(-1.3791782e+88 -1.4054407e+87 9.0745924e+86)
(-1.4741372e+88 4.2750936e+86 1.3585506e+87)
(-1.5347723e+88 3.4053929e+86 1.0472922e+87)
(-1.543337e+88 3.9912041e+86 1.223958e+87)
(-1.5034822e+88 3.3908638e+86 1.0128896e+87)
(-1.5136929e+88 4.0001176e+86 1.2264229e+87)
(-1.5737367e+88 -1.0714527e+87 -3.2745274e+82)
(-1.5434203e+88 -1.1023994e+87 9.5287595e+85)
(-1.5005517e+88 -1.1006732e+87 2.9371726e+86)
(-1.5223546e+88 -1.1206569e+87 1.7630051e+86)
(-1.3102953e+88 -1.5620006e+87 3.042916e+86)
(-1.3280633e+88 -1.5502629e+87 2.380721e+86)
(-1.3503732e+88 -1.0733014e+87 7.2676192e+86)
(-1.6398245e+88 -1.0005113e+87 -1.9401286e+86)
(-1.5983525e+88 -1.0045247e+87 -4.4242417e+85)
(-1.716757e+88 -9.0371943e+86 -3.5951937e+86)
(-1.6719356e+88 -1.0062068e+87 -2.8726795e+86)
(-2.5873332e+88 1.5554612e+86 -2.2698359e+87)
(-2.0841901e+88 -9.4167947e+86 -1.8256325e+87)
(-2.0085233e+88 6.2723648e+85 -1.7592502e+87)
(-2.163962e+88 -1.3028752e+87 -1.3660985e+87)
(-2.2058476e+88 -6.1687842e+86 -1.4556105e+87)
(-2.2130132e+88 -1.085576e+87 -1.3897011e+87)
(-2.2830851e+88 -9.1986251e+86 -7.4172487e+86)
(-2.2170818e+88 -5.9080408e+86 -3.8363831e+86)
(-2.0466928e+88 -1.3549204e+87 -2.0474194e+87)
(-2.0149134e+88 -1.1338853e+87 -1.8464906e+87)
(-1.9735325e+88 -9.7401008e+86 -1.5437386e+87)
(-1.9272921e+88 -8.8005917e+86 -1.2703968e+87)
(-1.8858318e+88 -8.1141236e+86 -9.8806225e+86)
(-1.8442901e+88 -8.2075563e+86 -8.2083504e+86)
(-1.7533594e+88 -7.9214348e+86 -4.5553886e+86)
(-1.8026356e+88 -7.8795397e+86 -6.3296127e+86)
(-2.1150261e+88 1.7419664e+85 -1.0410563e+87)
(-2.1606808e+88 -7.7542747e+85 -1.1268232e+87)
(-2.1587877e+88 -1.0171971e+86 -9.2876702e+86)
(-2.1709726e+88 -3.2506803e+85 -7.5514648e+86)
(-2.1714256e+88 -7.6620305e+85 -9.1473203e+86)
(-2.2148006e+88 -1.0419652e+86 -9.3080344e+86)
(-2.1949034e+88 -1.9759964e+86 -1.2527103e+87)
(-2.2059358e+88 -9.9655749e+85 -1.4004364e+87)
(-2.20759e+88 -8.698264e+85 -1.1791997e+87)
(-2.1862076e+88 -2.0296905e+86 -1.3939206e+87)
(-2.1974038e+88 -3.0088745e+86 -1.4260276e+87)
(-2.202131e+88 -2.4490017e+86 -1.1351565e+87)
(-2.1787174e+88 -1.9371946e+86 -1.215215e+87)
(-2.1523252e+88 -1.9062022e+86 -9.988946e+86)
(-2.1530955e+88 -2.286675e+86 -1.1038685e+87)
(-2.1366805e+88 -1.7987286e+86 -1.1290214e+87)
(-2.1355255e+88 -1.6704266e+86 -1.0360128e+87)
(-1.8225505e+88 -1.3862971e+86 -7.4136524e+86)
(-1.8150948e+88 -1.0544818e+86 -8.0446649e+86)
(-1.8383803e+88 -1.0371128e+86 -9.7747378e+86)
(-1.8446825e+88 -1.4964068e+86 -9.3575573e+86)