/*--------------------------------*- C++ -*----------------------------------*\
  =========                 |
  \\      /  F ield         | OpenFOAM: The Open Source CFD Toolbox
   \\    /   O peration     | Website:  https://openfoam.org
    \\  /    A nd           | Version:  7
     \\/     M anipulation  |
\*---------------------------------------------------------------------------*/
FoamFile
{
    version     2.0;
    format      ascii;
    class       volScalarField;
    location    "1000";
    object      nut;
}
// * * * * * * * * * * * * * * * * * * * * * * * * * * * * * * * * * * * * * //

dimensions      [0 2 -1 0 0 0 0];

internalField   nonuniform List<scalar> 
34251
(
4.4097745e-08
1.512229e-07
2.209175e-08
3.562541e-09
2.1066588e-08
3.7020054e-09
9.191886e-10
1.881411e-09
1.9735326e-09
2.5261462e-09
8.8410223e-08
2.454016e-09
8.2812951e-08
1.5415914e-08
1.5947863e-08
9.0289689e-09
7.9303703e-09
1.4154792e-08
1.4994719e-08
5.8645084e-09
6.1931506e-09
1.7375431e-09
9.7001626e-10
9.4117192e-10
1.4975019e-09
9.6490766e-10
1.2385291e-09
9.187029e-10
1.2375212e-09
4.4378768e-10
4.3318526e-10
4.5472422e-10
4.386608e-10
2.7901532e-09
2.8197047e-09
2.7177512e-09
2.6155817e-09
3.9694988e-09
4.3054318e-09
8.345463e-09
1.2316108e-09
1.130698e-09
8.4545526e-09
6.9676088e-09
7.0222364e-09
6.6179672e-08
6.5146806e-08
1.2220204e-09
1.0582693e-09
6.9696442e-09
8.1368096e-09
6.7204316e-09
6.9681415e-09
6.2107079e-08
6.7546286e-08
3.9659941e-09
6.43898e-09
3.9325768e-09
6.6435077e-09
4.0189194e-09
6.8416489e-09
3.8860376e-09
3.5724065e-09
6.5956783e-09
3.6927967e-09
6.6043706e-09
6.7519303e-09
3.7540308e-09
3.6731565e-09
2.5517713e-09
2.2283235e-09
2.0269715e-09
1.9438272e-09
9.0563932e-10
9.481551e-10
1.1866602e-09
1.2205798e-09
4.6930146e-10
1.3059387e-09
9.8470877e-10
9.6205297e-10
1.22415e-09
4.5751752e-10
2.3235919e-09
2.1124714e-09
1.8808131e-09
2.0253418e-09
4.7135845e-10
4.6982031e-10
8.5777414e-10
8.4433782e-10
9.1388564e-10
6.2295059e-10
9.3274813e-10
1.2205884e-09
1.1915773e-09
1.1116181e-09
8.5628781e-10
8.2466824e-10
9.1747594e-10
8.9059017e-10
5.613942e-10
1.2010423e-09
1.1677994e-09
1.1258051e-09
1.1431932e-09
5.9683296e-10
5.4843088e-10
6.2295578e-10
5.9702276e-10
9.5304175e-10
1.1100622e-09
1.581236e-09
2.7612895e-10
4.0374941e-10
3.3630373e-10
3.1797843e-10
4.067095e-10
2.783338e-10
4.4656694e-10
3.3521999e-10
8.2478138e-10
7.5005318e-10
2.4231362e-09
2.4654451e-09
2.4213229e-09
2.3445469e-09
2.3389175e-09
2.3437007e-09
1.0815722e-09
1.0559863e-09
2.4672839e-09
1.237725e-09
1.1416343e-09
2.4602888e-09
3.9166159e-09
4.0217875e-09
6.1617057e-09
6.2584614e-09
3.912497e-09
3.7939921e-09
5.8158163e-09
6.2328958e-09
6.4797935e-09
3.5030039e-08
3.2729717e-08
6.3724363e-09
6.6525469e-09
6.4364637e-09
3.4551312e-08
1.1540864e-09
1.1662026e-09
2.5275912e-09
2.4422265e-09
3.8826134e-09
3.7791149e-09
5.7430453e-09
6.0880804e-09
6.1207866e-09
3.9781727e-09
3.86687e-09
6.1558469e-09
6.3313461e-09
6.5550912e-09
3.5376997e-08
6.550546e-09
6.767985e-09
3.5186223e-08
3.3339169e-08
2.4002334e-09
2.4990899e-09
2.0036411e-09
1.9535034e-09
2.4581271e-09
2.543506e-09
2.1545212e-09
2.1614804e-09
2.1381979e-09
2.5799582e-09
2.5265937e-09
2.1241112e-09
2.6331424e-09
2.5625155e-09
2.1135319e-09
2.0236155e-09
2.4679411e-09
2.5433855e-09
2.0431996e-09
1.9824478e-09
2.5347592e-09
2.4717465e-09
2.1388853e-09
2.1095785e-09
5.6873359e-10
2.0474784e-09
1.9153509e-09
1.9817068e-09
1.951157e-09
1.8414384e-09
1.886276e-09
1.595136e-09
1.6469762e-09
1.6133657e-09
1.5590241e-09
1.4823196e-09
1.5203199e-09
8.3382659e-10
7.948621e-10
8.605542e-10
8.9639824e-10
5.7187053e-10
8.4032474e-10
8.6014871e-10
9.3382351e-10
6.4339017e-10
1.1680178e-09
1.1329483e-09
1.085885e-09
1.1098876e-09
1.2097765e-09
1.1580462e-09
5.7234257e-10
6.2462187e-10
1.2235435e-09
1.227131e-09
1.27046e-09
1.1242153e-09
8.6982253e-10
9.5887577e-10
9.5968096e-10
8.5647324e-10
6.1055615e-10
8.2670306e-10
8.5688106e-10
9.27608e-10
5.6612547e-10
9.0466589e-10
1.1696574e-09
1.0980363e-09
1.2178244e-09
1.1623135e-09
6.0025006e-10
5.5539993e-10
2.0776105e-09
2.1411544e-09
2.0074836e-09
2.0899651e-09
2.1200596e-09
1.988958e-09
2.1298465e-09
1.8759558e-09
1.5897523e-09
1.6534964e-09
1.577391e-09
1.4948271e-09
1.5689885e-09
1.588741e-09
1.6602303e-09
1.5075261e-09
2.8177295e-10
3.8781916e-10
3.4596059e-10
3.3645013e-10
4.1353421e-10
2.8673979e-10
4.3562122e-10
3.343005e-10
3.3125608e-10
4.3015594e-10
8.1018036e-10
7.8443628e-10
7.0741791e-10
7.3298629e-10
6.3004338e-10
8.1321931e-10
7.9384267e-10
6.5119544e-10
6.8040974e-10
6.3491562e-10
7.3831345e-10
7.0534695e-10
9.2786459e-10
9.0232474e-10
9.797095e-10
9.3704762e-10
6.5833813e-10
6.3121595e-10
1.0023865e-09
9.6361744e-10
1.0444548e-09
9.7708865e-10
1.3696701e-09
1.3653199e-09
1.2488594e-09
1.2399079e-09
1.3225759e-09
1.2084767e-09
1.3432089e-09
1.2231307e-09
1.4064433e-09
1.1185046e-09
1.4319465e-09
1.141907e-09
7.0224662e-10
7.143542e-10
5.8721495e-10
7.899456e-10
7.8111721e-10
6.8055254e-10
6.9430014e-10
5.7161266e-10
7.5152774e-10
7.5446969e-10
9.9521377e-10
9.5921148e-10
1.0168488e-09
9.5557404e-10
9.6686239e-10
9.3594203e-10
9.9918722e-10
9.5094143e-10
5.766959e-10
6.2084704e-10
1.3649487e-09
1.2409061e-09
1.3810573e-09
1.2445574e-09
1.2658623e-09
1.1614365e-09
1.3162576e-09
1.1988903e-09
1.3738161e-09
1.1062292e-09
1.4283889e-09
1.1456742e-09
1.469106e-09
1.1679401e-09
1.4705566e-09
1.1626094e-09
4.6079799e-10
4.7902267e-10
5.3890161e-10
5.3143064e-10
4.5376232e-10
4.5538991e-10
4.6136739e-10
5.0893396e-10
5.0456101e-10
5.1157676e-10
6.1375864e-10
5.9249644e-10
6.8528749e-10
6.9841983e-10
6.5750503e-10
6.7030185e-10
4.3040506e-10
8.0119613e-10
8.8687903e-10
8.1370779e-10
8.1157194e-10
8.7874167e-10
9.0146584e-10
1.1446707e-09
1.105903e-09
1.1566062e-09
1.4171157e-09
1.3179781e-09
1.1154566e-09
1.3779204e-09
1.5716705e-10
1.5922022e-10
2.8802865e-10
2.6560216e-10
2.9338652e-10
2.7844238e-10
2.0962219e-10
2.1504522e-10
2.9983879e-10
2.9086017e-10
2.7705867e-10
2.7589736e-10
2.8554401e-10
2.8134949e-10
2.7406767e-10
2.594512e-10
2.8207884e-10
2.9629294e-10
1.9895501e-10
2.0060741e-10
2.8007817e-10
1.645434e-10
2.5583328e-10
3.3122707e-10
3.2964255e-10
2.1484047e-10
2.1550368e-10
3.4280455e-10
3.3277517e-10
3.2799347e-10
3.1373854e-10
2.8573855e-10
2.5780028e-10
2.4086126e-10
2.3215166e-10
1.4132245e-09
1.4211661e-09
1.4847782e-09
1.5132673e-09
1.4942665e-09
1.50746e-09
1.4663458e-09
1.4611085e-09
1.406056e-09
1.413109e-09
1.438293e-09
1.4467135e-09
2.2192471e-09
2.298661e-09
4.3735174e-09
4.5330606e-09
4.2564813e-09
1.0736002e-09
9.7734321e-10
4.2292294e-09
4.5584149e-09
4.4774874e-09
2.5569888e-09
2.553032e-09
2.4832491e-09
2.5616085e-09
3.6312392e-09
3.5167693e-09
2.9018662e-09
2.8370183e-09
3.0498814e-09
2.930014e-09
1.1027041e-08
1.0583219e-08
2.878708e-09
3.0448098e-09
1.0216818e-08
1.0809007e-08
2.811441e-09
3.6082849e-09
3.4990374e-09
2.8911282e-09
3.5638732e-09
3.6680168e-09
2.8134345e-09
2.90236e-09
3.6181168e-09
3.5413092e-09
2.9021738e-09
2.9577951e-09
3.0095006e-09
1.0478721e-08
1.0419922e-08
1.0940211e-09
1.048159e-09
4.4983412e-09
4.3977959e-09
4.2910676e-09
4.0570441e-09
4.2948021e-09
4.4992594e-09
2.5310003e-09
2.5534284e-09
2.5824711e-09
2.5188966e-09
3.6184015e-09
3.5270234e-09
2.9360316e-09
2.9822003e-09
2.8977336e-09
3.5662095e-09
3.6977072e-09
3.1708619e-09
3.0649831e-09
1.0833691e-08
1.065629e-08
2.8924298e-09
2.788491e-09
3.5178316e-09
3.6473326e-09
2.8536397e-09
2.9033329e-09
3.7025193e-09
3.6461232e-09
2.9447969e-09
3.0858681e-09
1.0458899e-08
1.0950667e-08
3.0419823e-09
2.8980146e-09
1.0915146e-08
1.0200871e-08
5.6729149e-10
3.7373483e-09
3.5877903e-09
7.7116198e-10
8.4693428e-10
3.4385645e-09
3.9124407e-09
8.3998094e-10
8.2091535e-10
4.1055059e-09
3.6677029e-09
8.2229708e-10
8.7278664e-10
3.6698248e-09
4.2400118e-09
8.6686025e-10
8.2741191e-10
3.7513423e-09
3.9808736e-09
8.0639921e-10
8.4999788e-10
3.6200941e-09
4.0477834e-09
8.6596886e-10
8.1631023e-10
3.9093231e-09
3.9110412e-09
8.4429905e-10
8.7163131e-10
3.6844888e-09
4.1394357e-09
8.8955501e-10
8.3121701e-10
4.0414691e-09
3.7283559e-09
7.8963967e-10
8.4937835e-10
3.6422454e-09
4.0243083e-09
8.178237e-10
7.9798617e-10
3.7578169e-09
3.9198655e-09
8.0953632e-10
8.4944623e-10
3.4965689e-09
3.9677946e-09
8.7175943e-10
8.139165e-10
5.9221961e-10
1.2560215e-09
1.0727454e-09
1.2436772e-09
1.0501578e-09
1.2405241e-09
9.1535753e-10
1.1999021e-09
8.9983955e-10
1.1997033e-09
1.2178749e-09
1.0617977e-09
1.0585763e-09
1.1795501e-09
1.1763787e-09
1.056676e-09
1.0463906e-09
1.2092965e-09
9.1496746e-10
1.205371e-09
9.0957558e-10
1.1997635e-09
1.1976709e-09
9.1566588e-10
9.1574009e-10
1.3131601e-09
1.2922462e-09
9.8052161e-10
9.5578405e-10
1.4792071e-09
1.437714e-09
1.2212304e-09
1.1962178e-09
1.3902118e-09
1.3609611e-09
1.1460656e-09
1.1628335e-09
1.3264596e-09
1.3161854e-09
1.1248314e-09
1.1153521e-09
1.2025758e-09
1.1949795e-09
9.2424801e-10
9.1421293e-10
1.2175553e-09
1.2342384e-09
9.2731094e-10
9.2900169e-10
6.9007485e-10
7.1772873e-10
5.7784138e-10
7.9112792e-10
7.4674805e-10
6.6980688e-10
6.6042465e-10
5.5289017e-10
7.271358e-10
7.213701e-10
9.5518518e-10
9.2003913e-10
9.460885e-10
9.0721317e-10
9.8196985e-10
9.3808326e-10
1.0222226e-09
9.5504468e-10
5.574938e-10
6.0029071e-10
6.7247725e-10
6.3643612e-10
7.0237545e-10
7.2342211e-10
7.5445015e-10
7.4077523e-10
6.285757e-10
8.313978e-10
8.3924845e-10
1.0744561e-09
1.0533213e-09
1.0258533e-09
9.9110426e-10
6.521804e-10
6.2802348e-10
1.3159803e-09
1.3472413e-09
1.1992037e-09
1.2177423e-09
1.2770163e-09
1.1716476e-09
1.2619302e-09
1.1534965e-09
1.3829494e-09
1.1097545e-09
1.3635255e-09
1.0921984e-09
1.4158561e-09
1.1292231e-09
1.4357247e-09
1.1416795e-09
1.3971649e-09
1.2581745e-09
1.4868918e-09
1.2245209e-09
1.1722163e-09
5.3980536e-10
4.3591766e-10
4.1628181e-10
4.4547086e-10
4.897033e-10
4.625228e-10
4.6236456e-10
5.2516693e-10
5.2879716e-10
3.3534196e-10
4.7167756e-10
1.5772828e-09
1.2357545e-09
1.5348087e-09
1.2058371e-09
1.3272785e-09
1.3851254e-09
1.1952904e-09
1.2365769e-09
1.4798316e-09
1.346306e-09
1.4340719e-09
1.307718e-09
1.3956077e-09
1.4389721e-09
1.1110118e-09
1.1304791e-09
7.8459846e-10
7.6381072e-10
6.4869742e-10
8.3311655e-10
8.6795881e-10
9.9952962e-10
9.4189356e-10
1.072626e-09
9.8234902e-10
1.1036913e-09
1.0616289e-09
1.0843093e-09
1.0280018e-09
6.9666048e-10
7.4637669e-10
6.1567387e-10
7.5452039e-10
8.2572467e-10
6.1565187e-10
6.6717872e-10
6.8067286e-10
6.59676e-10
5.6810904e-10
7.3169747e-10
7.5415767e-10
7.2122221e-10
7.5143636e-10
6.0607528e-10
8.215455e-10
8.0036842e-10
1.022082e-09
9.8914936e-10
1.0745634e-09
1.0146884e-09
6.2531929e-10
6.4410916e-10
9.7434148e-10
9.4062541e-10
9.4965946e-10
8.9788406e-10
1.3219343e-09
1.204603e-09
1.2627803e-09
1.1463975e-09
1.416688e-09
1.1263359e-09
1.3489585e-09
1.0691484e-09
1.3776868e-09
1.2652759e-09
1.4108417e-09
1.2802778e-09
1.4806984e-09
1.1858101e-09
1.5049147e-09
1.1935107e-09
4.6462395e-10
4.608178e-10
5.3993254e-10
5.2690568e-10
4.42274e-10
4.9756752e-10
5.4978236e-10
4.6702222e-10
1.2182639e-09
1.2402187e-09
1.0882893e-09
1.0831898e-09
1.2575333e-09
1.1057891e-09
1.2482089e-09
1.0935731e-09
1.2565752e-09
9.518888e-10
1.2572997e-09
9.4645888e-10
1.2604231e-09
9.6991583e-10
1.2667418e-09
9.7725043e-10
1.2337188e-09
9.2021678e-10
1.254706e-09
9.2350014e-10
1.1785237e-09
1.1468443e-09
1.0541497e-09
1.0095379e-09
1.223066e-09
1.082464e-09
1.2379032e-09
1.080578e-09
1.2156752e-09
1.1816249e-09
1.2622471e-09
9.6780481e-10
1.279638e-09
9.7004239e-10
1.398222e-09
1.423715e-09
1.1827034e-09
1.1921179e-09
1.3531672e-09
1.3015241e-09
1.1366428e-09
1.0896789e-09
1.207973e-09
1.1628995e-09
9.1754712e-10
8.8024447e-10
1.3134428e-09
9.9621583e-10
1.2966259e-09
9.7790044e-10
1.3640452e-09
1.403017e-09
1.1463186e-09
1.1631481e-09
1.4633587e-09
1.2223006e-09
1.4396926e-09
1.2061155e-09
1.2296702e-09
1.2474685e-09
9.4387713e-10
9.4307824e-10
1.598085e-10
1.5897432e-10
2.8504131e-10
2.6962811e-10
2.3326596e-10
2.7595951e-10
2.7243933e-10
2.1412183e-10
3.1585862e-10
3.0769885e-10
2.7835353e-10
2.8559356e-10
2.7708412e-10
2.8396437e-10
2.7900769e-10
2.6309489e-10
2.1985511e-10
3.1597927e-10
2.9264679e-10
2.1009452e-10
1.5746857e-10
1.5909112e-10
2.671498e-10
2.5866787e-10
3.1077088e-10
2.7678221e-10
2.1006223e-10
2.1351049e-10
2.8401361e-10
2.8695745e-10
2.8629892e-10
2.7971993e-10
2.8769198e-10
2.8668481e-10
2.7126888e-10
2.7263171e-10
2.8917481e-10
2.8935895e-10
2.0735329e-10
2.1461056e-10
2.5282328e-10
2.469554e-10
3.2510549e-09
3.2054744e-09
2.2503464e-09
2.259655e-09
2.3738076e-09
2.3612336e-09
3.5000557e-09
3.3985966e-09
5.2245872e-10
5.8129796e-10
6.0372581e-10
5.2423297e-10
1.8145851e-09
1.8172205e-09
3.0623123e-09
3.0159255e-09
2.0792169e-09
2.1056487e-09
2.3066123e-09
2.292829e-09
3.42354e-09
3.364214e-09
5.5839773e-10
5.3331244e-10
4.6568292e-10
4.862277e-10
1.7880222e-09
1.6388249e-09
1.8163138e-09
1.8320523e-09
1.4986184e-09
1.4861367e-09
1.516033e-09
1.5255396e-09
1.1502419e-09
1.1615345e-09
1.5936109e-09
1.9628886e-09
1.5886591e-09
1.9619609e-09
1.2315686e-09
1.633953e-09
1.6327233e-09
1.2209281e-09
5.3568207e-10
5.5759068e-10
5.0827558e-10
5.0994388e-10
5.1689505e-10
4.900762e-10
4.6349219e-10
4.8351191e-10
1.6494605e-09
2.0089954e-09
1.6454325e-09
2.0119103e-09
1.2741252e-09
1.6762169e-09
1.6629534e-09
1.2571499e-09
1.6617767e-09
2.0194065e-09
1.6605165e-09
2.0169094e-09
1.2945013e-09
1.7077815e-09
1.7039742e-09
1.2823607e-09
1.3946615e-09
1.1669354e-09
1.1818789e-09
1.3774145e-09
1.3889838e-09
1.3843488e-09
1.1686141e-09
1.1754583e-09
8.9436322e-10
1.1436903e-09
8.9507754e-10
1.1570786e-09
1.1598336e-09
8.9881665e-10
1.153919e-09
8.9392963e-10
1.1710606e-09
1.3437545e-09
1.1366667e-09
1.3551145e-09
1.1129988e-09
8.7103863e-10
8.7670665e-10
1.1452833e-09
1.1862342e-09
1.3743349e-09
1.1522919e-09
1.3855812e-09
1.1406664e-09
8.8740907e-10
1.1632172e-09
8.8772665e-10
8.4581284e-10
9.6346953e-10
8.4203799e-10
9.7627546e-10
6.7051067e-10
8.3890213e-10
8.4392006e-10
6.7062654e-10
9.921802e-10
8.6288288e-10
9.8675658e-10
8.5759219e-10
6.8319645e-10
8.5877834e-10
8.6369057e-10
6.8729016e-10
3.2543528e-09
3.2272404e-09
2.2460511e-09
2.2607694e-09
2.3062562e-09
2.3072796e-09
3.3723345e-09
3.3723226e-09
5.1148955e-10
5.6742432e-10
5.8502216e-10
5.0562614e-10
1.7739577e-09
1.831005e-09
3.1652393e-09
3.102525e-09
2.1694858e-09
2.1890343e-09
2.3188184e-09
2.3245776e-09
3.3911074e-09
3.3685211e-09
4.8994433e-10
5.5685347e-10
5.576227e-10
4.8895856e-10
1.7959576e-09
1.7171025e-09
2.0057555e-09
2.0002775e-09
1.6334249e-09
1.6239563e-09
1.6486577e-09
1.2607704e-09
1.2491983e-09
1.6627247e-09
1.961002e-09
1.9637994e-09
1.6079137e-09
1.6076025e-09
1.6484403e-09
1.645097e-09
1.2488978e-09
1.2462125e-09
1.5964077e-09
1.9300154e-09
1.5844045e-09
1.9366445e-09
1.607422e-09
1.2246889e-09
1.2301902e-09
1.6095092e-09
1.6240243e-09
1.9667589e-09
1.6105788e-09
1.9739736e-09
1.6452492e-09
1.2447681e-09
1.6572613e-09
1.2460465e-09
4.9202273e-10
5.2091207e-10
5.0167673e-10
4.7517211e-10
5.2488016e-10
5.4706545e-10
5.0050546e-10
5.0095238e-10
1.1697863e-09
1.392562e-09
1.1758383e-09
1.3797869e-09
1.1695602e-09
9.102137e-10
9.1026717e-10
1.1606079e-09
1.423865e-09
1.2013654e-09
1.4288358e-09
1.202855e-09
1.2008639e-09
9.3046039e-10
1.1976003e-09
9.2863493e-10
1.0719554e-09
1.2552619e-09
1.0538282e-09
1.2740139e-09
1.0399853e-09
1.0617174e-09
8.0576378e-10
8.2372766e-10
1.1329746e-09
1.3594687e-09
1.1301078e-09
1.3537684e-09
8.7032592e-10
1.1273532e-09
1.1277336e-09
8.6859008e-10
7.8910169e-10
8.8318851e-10
7.6711281e-10
9.0906366e-10
7.6704861e-10
7.9064686e-10
6.1477973e-10
6.3151025e-10
9.6905483e-10
8.3800183e-10
9.6496876e-10
8.3085736e-10
6.6179646e-10
8.3451193e-10
8.4007231e-10
6.6512398e-10
8.7684831e-10
1.00491e-09
8.7764897e-10
1.0051146e-09
7.0031683e-10
8.7808505e-10
8.8122161e-10
7.0028922e-10
1.0349005e-09
9.0251188e-10
1.0328073e-09
9.0026788e-10
7.1994362e-10
9.0651356e-10
9.0622428e-10
7.1939894e-10
3.7750045e-10
4.2422043e-10
3.8902934e-10
4.0707446e-10
4.0430555e-10
3.9215259e-10
3.8462531e-10
4.0354085e-10
4.5658181e-10
4.373656e-10
3.8458951e-10
3.9872933e-10
4.2234675e-10
4.6305331e-10
4.629202e-10
4.0685703e-10
3.8206917e-10
4.2031591e-10
3.8716211e-10
4.0229324e-10
3.7351338e-10
3.8306456e-10
3.7385272e-10
3.7301583e-10
3.8279238e-10
4.2746586e-10
4.2555193e-10
3.7552316e-10
4.1139372e-10
4.5572263e-10
4.5180432e-10
3.9657077e-10
4.0846356e-10
4.0792728e-10
4.1666632e-10
4.0040103e-10
4.2973433e-10
4.0704144e-10
4.2354396e-10
4.1992493e-10
4.5940683e-10
5.0454973e-10
4.7936471e-10
4.3820752e-10
4.5877639e-10
4.9682521e-10
4.4014625e-10
4.1922538e-10
5.9619634e-10
6.6009746e-10
6.2058528e-10
5.5980406e-10
5.5583703e-10
5.7334889e-10
5.5264589e-10
5.3114642e-10
5.8231652e-10
6.5746527e-10
6.1563153e-10
5.5127193e-10
5.4689069e-10
5.668366e-10
5.3526696e-10
5.1958248e-10
3.6392678e-10
3.4803509e-10
3.5349823e-10
3.6622286e-10
3.6123494e-09
3.5157815e-09
2.49641e-09
2.5006999e-09
1.9426307e-09
3.5495729e-09
3.4962275e-09
2.4741311e-09
2.5088844e-09
2.6009036e-09
2.5957856e-09
3.8369057e-09
3.7542096e-09
1.9709462e-09
1.9071995e-09
1.8521624e-09
2.2073393e-09
1.8241604e-09
2.229851e-09
1.8600505e-09
1.8797233e-09
1.4249649e-09
1.4307786e-09
1.8353329e-09
2.2011442e-09
1.8155979e-09
2.2072878e-09
6.6296191e-10
7.4103703e-10
6.5943314e-10
7.4255986e-10
5.9381007e-10
6.4810516e-10
5.7663831e-10
6.6959538e-10
5.663546e-10
5.8443785e-10
4.590321e-10
4.7133841e-10
6.264154e-10
7.0501951e-10
6.2081439e-10
7.1129487e-10
7.7422975e-11
7.6514156e-11
1.1953257e-10
1.2424034e-10
7.6139554e-11
7.6731555e-11
1.2530985e-10
1.322978e-10
1.9630491e-10
1.9689982e-10
1.7330505e-10
2.3452392e-10
2.9960796e-10
3.086675e-10
1.7884891e-10
1.9178095e-10
2.754775e-10
3.0506592e-10
1.5759369e-10
1.7623739e-10
1.7369656e-10
1.6031286e-10
1.6216347e-10
1.8432059e-10
1.7897504e-10
1.6577828e-10
3.2839706e-10
3.6499307e-10
3.2861647e-10
2.995356e-10
2.7598355e-10
2.4367804e-10
2.3868845e-10
2.6662199e-10
2.3076362e-10
2.4673509e-10
2.7212233e-10
2.5624253e-10
3.081952e-10
3.2925457e-10
3.0680395e-10
2.8725033e-10
2.9511094e-10
3.4002063e-10
3.1209949e-10
2.8023017e-10
2.8522257e-10
2.382911e-10
2.2849974e-10
2.5557163e-10
2.4300389e-10
2.5317802e-10
2.7621199e-10
2.6806727e-10
3.0148492e-10
3.196011e-10
3.0800529e-10
2.832255e-10
1.6997912e-10
2.440789e-10
2.9744851e-10
2.9949829e-10
1.8206103e-10
2.2152888e-10
2.8939545e-10
3.1076473e-10
1.6127878e-10
1.745518e-10
1.7013971e-10
1.6247126e-10
1.5398839e-10
1.7313444e-10
1.6810686e-10
1.5832422e-10
2.0388762e-10
1.3274404e-10
8.0854402e-11
8.048666e-11
1.3110679e-10
2.1611511e-10
2.4156548e-10
3.0128818e-10
3.069543e-10
2.2445236e-10
2.1317577e-10
2.4718911e-10
2.9414079e-10
1.8886099e-10
1.9065119e-10
1.8770378e-10
1.8607689e-10
1.9351965e-10
2.0244158e-10
1.9744672e-10
1.9181552e-10
2.4582258e-10
2.514582e-10
2.922315e-10
2.8630655e-10
2.4249552e-10
2.4892456e-10
2.7704951e-10
2.8621916e-10
3.398684e-10
3.2402132e-10
3.2759873e-10
3.4309101e-10
3.3834243e-10
3.149511e-10
3.0965481e-10
3.2668983e-10
2.7035524e-10
2.2831113e-10
2.3237998e-10
2.5914321e-10
2.9158253e-10
2.8406978e-10
2.5552558e-10
2.7138994e-10
1.7874283e-10
1.6930747e-10
2.4523869e-10
2.3338941e-10
9.9156251e-10
1.1757209e-09
1.0873837e-09
1.0338326e-09
1.1322107e-09
1.1822626e-09
1.1866409e-09
1.1394676e-09
1.1060118e-09
1.1105712e-09
1.1582241e-09
1.1122261e-09
1.1102582e-09
1.1146975e-09
1.185998e-09
1.1196883e-09
1.0292018e-09
1.1499435e-09
1.0584635e-09
1.0808106e-09
1.0945271e-09
1.1171756e-09
1.1751578e-09
1.0891906e-09
1.6471276e-09
1.3122242e-09
1.0751398e-09
1.8358011e-09
1.1485269e-09
1.0995562e-09
9.2664014e-10
1.6702848e-09
1.6225289e-09
3.2421565e-09
2.213498e-09
2.1830237e-09
1.6530504e-09
1.689789e-09
3.3495504e-09
2.2566332e-09
2.2030939e-09
4.5168299e-09
3.0764664e-09
2.999751e-09
2.9561489e-09
3.0942937e-09
2.2218643e-09
2.2730304e-09
2.8896848e-09
2.9785709e-09
2.9780295e-09
2.2176298e-09
2.9399401e-09
2.9017898e-09
2.8497931e-09
2.866718e-09
3.0088936e-09
2.207065e-09
2.2758929e-09
2.8442541e-09
2.954166e-09
2.9632872e-09
2.9383377e-09
2.2480168e-09
2.1682867e-09
1.6634212e-09
3.0441524e-09
1.6981433e-09
3.0648914e-09
2.982084e-09
2.9284435e-09
1.631783e-09
1.6541778e-09
1.3671493e-09
9.5092726e-10
9.7625099e-10
1.4444377e-09
9.6730497e-10
9.6884852e-10
1.3429635e-09
1.4364361e-09
1.0286549e-09
1.4261489e-09
1.5155327e-09
1.071603e-09
1.0722756e-09
1.4812656e-09
1.4388788e-09
1.0602918e-09
9.4202745e-10
9.7281898e-10
1.2654911e-09
1.3397242e-09
1.3888227e-09
9.8839652e-10
9.9009741e-10
1.3520971e-09
1.0191762e-09
1.3996069e-09
1.4819666e-09
1.072e-09
1.4410053e-09
1.4862162e-09
1.0783036e-09
1.0505569e-09
2.9285989e-09
2.9960977e-09
1.6632505e-09
1.611019e-09
1.7288837e-09
3.140023e-09
3.0898024e-09
1.692364e-09
1.6477567e-09
3.0059438e-09
1.686806e-09
3.0328106e-09
3.1277353e-09
3.0944177e-09
1.7206591e-09
1.6918104e-09
1.6806187e-09
3.0033218e-09
3.0453259e-09
1.7038953e-09
1.3446192e-09
9.52381e-10
9.7303299e-10
1.3666008e-09
9.8479875e-10
9.8723867e-10
1.3221627e-09
1.4053002e-09
1.5184607e-09
1.083355e-09
1.0527207e-09
1.449779e-09
1.0252917e-09
1.4235709e-09
1.5244643e-09
1.0648723e-09
1.6579377e-09
1.6981593e-09
3.4563835e-09
2.1645838e-09
2.2475503e-09
1.6410871e-09
1.6969096e-09
3.7785686e-09
2.1932355e-09
2.1814021e-09
3.0009338e-09
2.8569831e-09
3.0042986e-09
2.7831515e-09
2.3372939e-09
2.7556802e-09
2.8125226e-09
2.8877183e-09
2.9203005e-09
2.2901126e-09
2.3391343e-09
3.0815145e-09
3.0124209e-09
3.0962537e-09
2.9519813e-09
2.3196451e-09
2.2928213e-09
2.7541421e-09
2.7883825e-09
2.9099466e-09
2.8757498e-09
2.1759223e-09
2.269349e-09
3.201416e-09
3.1606611e-09
1.7244984e-09
1.7247137e-09
3.1518506e-09
3.1732447e-09
1.7250331e-09
1.6844171e-09
3.1459952e-09
3.0882405e-09
1.664779e-09
1.680237e-09
9.9334825e-10
1.0049257e-09
1.5815309e-09
1.6377784e-09
9.8135128e-10
9.7601897e-10
1.5947833e-09
1.5174998e-09
1.0550885e-09
1.4863608e-09
1.5537375e-09
1.0835688e-09
1.4764029e-09
1.5078e-09
1.0607927e-09
1.0624718e-09
3.0336454e-09
3.0648956e-09
1.6785051e-09
1.640023e-09
3.0111e-09
2.9577446e-09
1.6205723e-09
1.6382466e-09
3.0569765e-09
3.0938379e-09
1.6962339e-09
1.6401388e-09
3.1809152e-09
3.1411627e-09
1.7097614e-09
1.7309016e-09
9.4496991e-10
9.7914899e-10
1.4465667e-09
1.5455743e-09
9.8622664e-10
9.8490436e-10
1.5707389e-09
1.5310288e-09
1.0454875e-09
1.4701251e-09
1.5422651e-09
1.0862902e-09
1.481406e-09
1.5527189e-09
1.0939188e-09
1.0665554e-09
9.3496958e-10
9.583736e-10
1.3823565e-09
1.4850849e-09
9.4721716e-10
9.5141953e-10
1.482611e-09
1.3989724e-09
1.045923e-09
1.4606747e-09
1.5027248e-09
1.0626212e-09
1.4091845e-09
1.4668882e-09
1.0538791e-09
1.0434531e-09
2.672245e-10
5.9034585e-10
1.0577285e-09
1.010915e-09
1.0314297e-09
1.0767799e-09
1.0833872e-09
1.0125791e-09
1.0572937e-09
1.088927e-09
1.0989969e-09
1.0550957e-09
1.0305679e-09
1.068138e-09
1.1128336e-09
1.0638063e-09
1.0396202e-09
1.0764506e-09
1.0825801e-09
1.0173561e-09
1.0449896e-09
1.0631155e-09
1.0758961e-09
1.0350327e-09
1.0091747e-09
1.0331356e-09
4.2529331e-10
4.5026612e-10
4.2274342e-10
4.4644584e-10
4.1815129e-10
3.6990059e-10
3.6554332e-10
4.1961985e-10
4.2861095e-10
4.5962049e-10
4.270049e-10
4.6040362e-10
4.1800756e-10
3.6588218e-10
4.3043062e-10
3.6460039e-10
4.7542012e-10
4.696438e-10
4.7394098e-10
4.7801751e-10
4.3715383e-10
5.5364622e-10
5.6776935e-10
4.3595027e-10
4.7721059e-10
4.749976e-10
4.7208176e-10
4.7206828e-10
4.4143003e-10
5.6975868e-10
5.6055601e-10
4.3688046e-10
4.2108447e-10
3.9406037e-10
4.0895065e-10
4.2554631e-10
4.3887572e-10
4.3519445e-10
4.0579572e-10
4.0949246e-10
3.9840943e-10
3.5507736e-10
3.6177631e-10
4.2316599e-10
4.1297575e-10
4.1024983e-10
3.60383e-10
3.61594e-10
4.2558994e-10
4.0067587e-10
4.0838231e-10
4.268633e-10
4.1519715e-10
3.845323e-10
3.9871993e-10
4.2203296e-10
3.5900797e-10
4.0087318e-10
3.5801615e-10
4.1863686e-10
3.5208752e-10
3.9137808e-10
3.466471e-10
4.1318164e-10
4.592819e-10
4.4866726e-10
4.560409e-10
4.6406169e-10
4.2798735e-10
5.3806628e-10
5.5745039e-10
4.2666599e-10
4.6955488e-10
4.7198668e-10
4.6352102e-10
4.658693e-10
4.3975596e-10
5.6640572e-10
5.6312188e-10
4.3844873e-10
4.4817391e-10
4.5639603e-10
4.5699648e-10
4.5840894e-10
4.4228358e-10
4.4041599e-10
4.5942558e-10
4.5009016e-10
4.2674044e-10
4.2874768e-10
5.3315636e-10
5.5058001e-10
5.3622298e-10
5.3469537e-10
4.1773257e-10
4.1690858e-10
5.4741469e-10
6.061822e-10
5.4783224e-10
6.0085351e-10
6.1880579e-10
5.5388038e-10
5.5627521e-10
6.1965846e-10
5.2748183e-10
4.2440463e-10
5.2545017e-10
4.189355e-10
4.2560864e-10
4.232855e-10
5.3322311e-10
5.4553348e-10
7.1111158e-10
7.9530231e-10
7.0283196e-10
7.8334988e-10
8.007668e-10
7.1270748e-10
7.1140265e-10
7.940798e-10
6.8192288e-10
5.5271569e-10
6.8508568e-10
5.4699106e-10
5.5840737e-10
5.4884714e-10
6.9341486e-10
6.9155896e-10
7.4222281e-10
7.5508249e-10
6.7003237e-10
6.5870873e-10
7.130416e-10
6.3417747e-10
6.443995e-10
7.1535616e-10
6.3036369e-10
6.1887045e-10
5.0313145e-10
5.0444757e-10
5.189282e-10
6.4275033e-10
6.5589375e-10
5.2474919e-10
7.1815055e-10
6.416055e-10
6.4318709e-10
7.1108644e-10
6.9728706e-10
6.1822197e-10
6.2976839e-10
7.0223548e-10
6.2448871e-10
5.0793601e-10
5.02163e-10
6.2782804e-10
6.0576222e-10
4.9134307e-10
4.9129052e-10
6.154045e-10
5.5487784e-10
5.0239586e-10
5.0225808e-10
5.5903252e-10
5.4063937e-10
4.8695124e-10
4.9230905e-10
5.5352609e-10
4.9203972e-10
4.0160877e-10
3.9772123e-10
4.9201323e-10
4.8004558e-10
3.8837736e-10
3.881209e-10
4.837112e-10
5.509885e-10
4.984048e-10
5.0059014e-10
5.5474722e-10
5.8044152e-10
5.7741559e-10
5.1626706e-10
5.191257e-10
4.8840464e-10
3.9639431e-10
3.985805e-10
4.9208367e-10
5.0750098e-10
5.0614349e-10
4.0706e-10
4.072274e-10
3.2787345e-09
3.2426465e-09
2.2408164e-09
2.2541319e-09
2.2757694e-09
2.3000084e-09
3.3178092e-09
3.374929e-09
5.7174956e-10
5.7008838e-10
4.8696264e-10
5.0791964e-10
1.7700513e-09
1.7275879e-09
3.1167274e-09
3.08195e-09
2.1517765e-09
2.1561071e-09
2.101251e-09
2.1358589e-09
3.0005152e-09
3.0397613e-09
5.3449373e-10
4.7256433e-10
4.8337138e-10
5.3868358e-10
1.7491426e-09
1.6888642e-09
1.8684821e-09
1.8641246e-09
1.557145e-09
1.5655647e-09
1.5846215e-09
1.2110648e-09
1.2042519e-09
1.5693686e-09
1.5434846e-09
1.8713272e-09
1.5220466e-09
1.8973218e-09
1.5572482e-09
1.1808674e-09
1.5751395e-09
1.1830386e-09
1.9365361e-09
1.9394401e-09
1.6011263e-09
1.5962005e-09
1.6095299e-09
1.2296659e-09
1.2220513e-09
1.6180118e-09
1.9604246e-09
1.9799263e-09
1.6301303e-09
1.6181123e-09
1.6616092e-09
1.671575e-09
1.2576815e-09
1.2617853e-09
4.8608673e-10
4.7696988e-10
4.5522024e-10
4.602209e-10
5.0361404e-10
5.1246151e-10
5.3993487e-10
4.987902e-10
5.8600237e-10
2.2180784e-09
2.2128191e-09
3.2534008e-09
3.2175913e-09
5.4695472e-10
5.3285078e-10
4.8153262e-10
4.7020919e-10
1.7928962e-09
3.5916576e-09
3.5815081e-09
2.4660645e-09
2.4670918e-09
2.3024031e-09
2.2686321e-09
3.3139353e-09
3.1654842e-09
6.1385062e-10
5.4069714e-10
5.4953134e-10
6.203879e-10
1.8994961e-09
1.86177e-09
2.1490095e-09
1.7928299e-09
1.7840858e-09
2.1394372e-09
2.0613042e-09
1.6855784e-09
1.681811e-09
2.0446618e-09
1.8110866e-09
1.3817952e-09
1.3640687e-09
1.7848939e-09
1.7257266e-09
1.7425602e-09
1.3225571e-09
1.3011234e-09
5.5191352e-10
5.8636473e-10
5.2529871e-10
5.3433317e-10
5.0439773e-10
4.8526951e-10
4.6189863e-10
4.7410256e-10
1.3348557e-09
1.1277001e-09
1.1289882e-09
1.3353367e-09
1.404137e-09
1.388206e-09
1.16932e-09
1.1835786e-09
8.7726451e-10
1.1199285e-09
8.7265904e-10
1.1203961e-09
1.1750305e-09
9.1005334e-10
1.160716e-09
8.9901546e-10
1.120709e-09
1.3170012e-09
1.1208646e-09
1.3120674e-09
1.1096289e-09
8.6921094e-10
8.6559319e-10
1.107158e-09
1.1019353e-09
1.2950162e-09
1.090248e-09
1.3077202e-09
1.0834354e-09
8.4375293e-10
1.0941415e-09
8.4796998e-10
8.3866978e-10
9.5589365e-10
8.4098645e-10
9.6003849e-10
6.7504943e-10
8.4011188e-10
8.395395e-10
6.6923165e-10
9.4526826e-10
8.2335298e-10
9.3420189e-10
8.1389312e-10
6.5066275e-10
8.1452365e-10
8.2193851e-10
6.5486662e-10
9.600251e-10
8.3952281e-10
8.4229391e-10
9.6616321e-10
6.7034951e-10
8.3820493e-10
8.4634584e-10
6.7283603e-10
9.9721193e-10
1.0173721e-09
8.6903968e-10
8.86111e-10
6.9265018e-10
8.8610093e-10
7.047335e-10
8.7019075e-10
1.4501071e-09
1.4646917e-09
1.2388965e-09
1.226671e-09
1.2212442e-09
9.6364349e-10
9.482033e-10
1.2369398e-09
1.0732504e-09
1.0634959e-09
9.3035925e-10
9.388106e-10
9.4804742e-10
7.5367323e-10
9.3799214e-10
7.4555695e-10
7.4854364e-10
9.4231968e-10
9.3132484e-10
7.3928077e-10
4.0737139e-10
4.4369978e-10
4.9430562e-10
4.2861303e-10
3.7595794e-10
3.9757297e-10
3.8119806e-10
3.8230417e-10
3.6179144e-10
3.6069513e-10
3.4786595e-10
3.5793981e-10
4.1636815e-10
4.0467258e-10
3.605281e-10
3.6776491e-10
4.3570767e-10
3.8981716e-10
4.0243536e-10
4.5005489e-10
3.9340371e-10
3.9037352e-10
3.9668915e-10
3.8548752e-10
3.8974917e-10
4.1119316e-10
4.1760365e-10
3.9951629e-10
4.4493036e-10
4.4527704e-10
3.8078701e-10
3.9302761e-10
4.4628157e-10
5.0188365e-10
4.7885695e-10
4.2059566e-10
1.5823981e-10
2.6470647e-10
2.6493159e-10
2.6916648e-10
2.5203901e-10
2.523538e-10
2.5474497e-10
2.7724997e-10
2.0941672e-10
2.0547395e-10
9.8521063e-10
1.1053987e-09
9.6400334e-10
1.1278326e-09
9.4973007e-10
7.5528654e-10
7.5611014e-10
9.7545147e-10
1.06604e-09
9.3116142e-10
1.0816173e-09
9.3418221e-10
9.2602606e-10
7.3215506e-10
9.1499299e-10
7.2028758e-10
1.3543951e-09
1.1387968e-09
1.1524393e-09
1.3466197e-09
1.439918e-09
1.4287156e-09
1.2008978e-09
1.2124397e-09
8.7001879e-10
1.10989e-09
8.6587755e-10
1.1277691e-09
1.1901109e-09
9.174724e-10
1.1794931e-09
9.1111532e-10
1.3510574e-09
1.5432083e-09
1.3072738e-09
1.5642685e-09
1.2814925e-09
9.9851513e-10
1.0072171e-09
1.3216839e-09
1.2781932e-09
1.5015766e-09
1.2597262e-09
1.4922105e-09
1.2469194e-09
9.6832537e-10
1.2491815e-09
9.5190695e-10
9.5976304e-10
8.391957e-10
8.4979299e-10
9.8016845e-10
1.016819e-09
8.8485447e-10
1.0301142e-09
8.946885e-10
6.7312896e-10
6.7775253e-10
8.408792e-10
8.5213762e-10
8.9432755e-10
8.8694263e-10
7.0554655e-10
7.0782699e-10
3.512319e-09
3.4525991e-09
2.451458e-09
2.474736e-09
2.5208254e-09
2.4778186e-09
3.7219333e-09