/*--------------------------------*- C++ -*----------------------------------*\
  =========                 |
  \\      /  F ield         | OpenFOAM: The Open Source CFD Toolbox
   \\    /   O peration     | Website:  https://openfoam.org
    \\  /    A nd           | Version:  7
     \\/     M anipulation  |
\*---------------------------------------------------------------------------*/
FoamFile
{
    version     2.0;
    format      ascii;
    class       surfaceScalarField;
    location    "7000";
    object      phi;
}
// * * * * * * * * * * * * * * * * * * * * * * * * * * * * * * * * * * * * * //

dimensions      [0 3 -1 0 0 0 0];

internalField   nonuniform List<scalar> 
102298
(
5.1717514e+38
-9.8270769e+38
7.0828063e+38
-1.1064273e+39
-9.494381e+38
-9.592577e+38
-7.6607319e+38
-9.8232549e+38
-8.1788146e+38
3.0966528e+38
-1.8313988e+38
-5.1054688e+37
1.2001514e+38
-2.1699472e+38
-2.2455957e+38
-2.8109675e+38
-2.6869228e+38
1.2281484e+38
3.1125182e+38
-1.0970776e+39
-1.0755925e+39
-1.1876689e+39
-1.1579272e+39
-1.0045373e+39
1.8450983e+37
1.2721024e+38
-2.1432885e+38
-2.6956674e+38
8.9403506e+37
8.5235827e+37
-1.3195836e+39
-2.9427843e+37
-2.9490544e+37
-5.1404471e+36
4.0852665e+37
2.384927e+37
-2.4040364e+38
-2.6717556e+38
-2.5727326e+38
-2.6931191e+36
-1.6100674e+38
-2.0553143e+38
4.1327434e+37
1.0003798e+38
-2.7002698e+38
-2.6153571e+38
-2.3483895e+38
-2.4137717e+38
-2.0418025e+38
-2.1027994e+38
-1.6173051e+38
8.2003511e+37
-1.6504482e+38
-1.1159926e+39
-9.5998284e+38
-1.0948424e+39
-9.4512352e+38
-9.8296476e+36
-3.9013569e+37
2.7450336e+37
-4.5457991e+37
-4.7452577e+37
1.748016e+37
-6.1467093e+37
-5.8704269e+37
-3.8464178e+37
-1.2710523e+37
2.6682466e+37
-4.6065395e+37
-4.5193766e+37
-5.8140893e+37
-6.0496842e+37
1.2731412e+36
-2.5052984e+36
-2.2892524e+38
-2.2758181e+38
6.3849405e+36
9.0216204e+37
-1.8027989e+38
1.1062685e+38
-2.2319621e+38
-2.6915206e+38
-2.7883318e+38
-2.2364456e+38
-1.7576279e+38
1.0866813e+38
-2.2537454e+38
-2.7728132e+38
-2.3613784e+38
-2.9153762e+38
-1.3594059e+37
-1.031666e+39
-9.9255727e+38
-3.6931183e+37
2.7650056e+37
-4.4882543e+37
-4.618855e+37
-5.7898179e+37
-5.9858678e+37
-2.2557004e+38
-1.02222e+39
-2.6723446e+37
7.0915063e+37
7.4826052e+37
-6.0635268e+37
-5.9269253e+37
-1.924759e+37
5.7207527e+37
-6.91414e+37
-6.9625934e+37
6.0410982e+37
-1.3254197e+39
2.498061e+38
2.7474294e+38
-3.3203434e+38
-2.9724787e+38
-2.495964e+38
-2.2225219e+38
3.1662264e+38
2.8521533e+38
8.4898782e+35
1.8198478e+37
1.8823171e+37
-2.8659312e+38
-5.749323e+36
-5.7530204e+36
3.5621737e+36
1.8564299e+37
1.9363326e+37
-2.8794742e+38
-5.683852e+36
-5.36259e+36
1.9526801e+37
1.9049657e+37
-2.8521071e+38
-5.5906624e+36
-4.9143221e+36
3.629129e+36
1.7558525e+37
8.483048e+37
8.6994396e+37
-1.3091377e+39
-2.9284299e+37
-3.1852963e+37
8.7014483e+37
8.9770123e+37
-1.3327549e+39
-3.0887012e+37
-3.2851893e+37
-2.8826394e+37
3.0472626e+37
-8.7511753e+35
-2.428755e+38
3.3111795e+36
-2.6031077e+36
-7.8187071e+37
-2.1852295e+38
-8.2023271e+37
-2.1629399e+38
-9.9659403e+36
3.0820375e+36
-3.4498912e+37
-3.5187832e+37
-2.9079155e+37
-2.9502761e+37
7.2712585e+36
-5.257379e+37
-5.1391448e+37
-4.3050285e+37
-4.2161136e+37
5.3716532e+37
8.3888529e+37
-2.4527391e+38
-2.7567248e+38
-2.6851391e+38
-2.4072616e+38
-1.0592119e+36
3.0953387e+37
-8.2591245e+37
-2.1993299e+38
2.8829014e+37
-7.7748383e+37
4.7165196e+36
-2.1839203e+38
-3.1831107e+35
3.1644697e+37
5.9860693e+36
-2.4332236e+38
3.0820914e+37
-2.424381e+38
-7.1628351e+36
1.0284708e+37
1.5845053e+37
-5.3581565e+37
-5.1801143e+37
-4.2274429e+37
-4.3845303e+37
1.0304695e+37
-5.1295918e+37
-5.286973e+37
-4.2247255e+37
-4.3242334e+37
-5.2317074e+36
-3.5058488e+37
-3.6582525e+37
-2.990486e+37
1.377425e+37
-3.0992071e+37
7.2938614e+37
-2.1644248e+38
-1.7445067e+38
-1.7704386e+38
-2.1863755e+38
-3.575227e+37
-3.4900631e+37
-2.9303407e+37
-3.0250957e+37
5.7339151e+37
-2.424249e+38
-2.7140171e+38
-2.8200803e+38
-2.511176e+38
-2.1700049e+38
-2.2690089e+38
-1.8323583e+38
-1.7452792e+38
-1.6067796e+36
-8.3564057e+36
7.0653241e+36
2.8890357e+36
-9.4995945e+36
-9.9138887e+36
-1.3373303e+37
-1.2662359e+37
-8.2408146e+36
-2.6215963e+36
6.9283262e+36
-9.6718388e+36
-9.5647646e+36
-1.2727839e+37
-1.3160779e+37
-3.9214375e+37
1.6845419e+37
2.7464025e+37
-4.5686736e+37
-4.6263948e+37
-6.0817499e+37
-5.8042934e+37
5.2869777e+35
-1.3917784e+36
-4.9318011e+37
-4.9133856e+37
1.6515357e+36
-2.5144233e+36
-8.0365369e+36
6.9409338e+36
-9.4487804e+36
-9.7451859e+36
-1.2679486e+37
-1.3203471e+37
-8.1873264e+36
-2.2378958e+36
6.91896e+36
-9.4961445e+36
-9.3253414e+36
-1.2403731e+37
-1.2976664e+37
1.1284463e+36
-7.934668e+35
-4.8098886e+37
-4.9433381e+37
7.2019747e+36
-2.2435298e+38
3.6593365e+37
8.93774e+36
-2.3016789e+38
1.7343028e+37
2.6508042e+37
-4.5733407e+37
-4.7697216e+37
-5.8933948e+37
-6.1692282e+37
-3.7888639e+37
-1.1052477e+37
2.629349e+37
-4.6764743e+37
-4.8971269e+37
-6.3259902e+37
-5.9750139e+37
-4.3466741e+36
-2.3277682e+38
-3.8429293e+37
2.6232819e+37
-6.2538586e+37
-4.7728471e+37
-4.7096221e+37
-6.0287517e+37
-2.3560571e+38
-1.2883216e+36
-7.842268e+36
6.7089309e+36
-9.3543338e+36
-9.7441425e+36
-1.3134528e+37
-1.2465751e+37
-7.8722518e+36
6.8588384e+36
-9.4879476e+36
-9.3494238e+36
-1.2460611e+37
-1.2938625e+37
-5.4442092e+34
-4.8280995e+37
-4.8488377e+37
1.0230937e+39
-6.5861032e+37
6.2089608e+37
5.8271259e+37
-7.4951553e+37
2.1231402e+36
-5.9610112e+37
-6.1317075e+37
7.1377866e+37
7.5993669e+37
-5.8724686e+37
7.2481918e+37
7.2071785e+37
-5.7100622e+37
-1.2500985e+34
-2.2615242e+38
-8.4741527e+35
1.6836906e+37
-1.0868394e+37
-1.0410985e+37
1.7159231e+37
-2.2715093e+38
1.9777713e+36
-1.0660358e+37
-1.103354e+37
1.6705389e+37
1.7027874e+37
9.5083564e+35
-2.8767811e+38
2.630593e+35
1.3394767e+37
-1.4473501e+37
-1.3651344e+37
1.3408177e+37
-2.8415388e+38
-1.3631721e+36
1.3839535e+37
-1.3670158e+37
-1.3268541e+37
1.4145465e+37
-2.179058e+38
-3.8360454e+35
-2.4322851e+36
1.1470584e+37
-1.4960288e+37
-1.4897566e+37
1.2162642e+37
-5.3383151e+35
-1.6000434e+36
1.1636335e+37
1.0951045e+37
-1.5286422e+37
-1.5427463e+37
-2.767868e+38
2.2065098e+38
2.2193198e+35
-1.5351921e+37
-1.6137162e+37
1.1132094e+37
-2.817993e+38
1.1123648e+37
1.4432393e+36
-1.5042064e+37
-1.5891682e+37
1.122119e+37
1.1269614e+37
2.2078261e+37
-1.0210902e+39
5.018409e+37
5.4663913e+37
-7.803433e+37
-7.8828115e+37
-2.2362743e+38
2.9015327e+38
1.1300068e+37
-1.5398059e+37
-1.553417e+37
1.2030873e+37
-1.6037212e+37
-1.6045501e+37
1.131323e+37
1.0707142e+37
-2.8710645e+38
-9.9742954e+38
5.506266e+37
5.4317801e+37
-7.9135591e+37
-7.4409761e+37
2.1221354e+37
-6.7117724e+37
4.9557677e+37
-1.3134074e+39
-6.5380335e+37
5.000793e+37
-1.2911633e+39
4.9482421e+37
-6.7595039e+37
-6.2167478e+37
5.0076178e+37
3.597458e+37
9.1466725e+38
8.9691541e+38
-4.3139924e+37
2.2813324e+38
1.3362758e+37
-1.3678197e+37
-1.3523957e+37
1.3955949e+37
1.5870847e+37
-1.0909698e+37
-1.1055308e+37
1.6729655e+37
5.5387703e+35
4.0206353e+36
4.1814351e+36
-6.0595776e+37
-1.135633e+36
-1.085605e+36
4.6598724e+35
4.2123151e+36
4.0269403e+36
-5.9958586e+37
-1.1635605e+36
-1.063222e+36
-7.5538051e+35
1.0997123e+36
4.1330204e+36
4.2057299e+36
-6.1543304e+37
-1.0659107e+36
-1.1910823e+36
4.0241099e+36
4.2718074e+36
-5.9919887e+37
-1.0688255e+36
-1.0580661e+36
1.236118e+36
4.1248032e+36
4.3343513e+36
-6.1376534e+37
-1.0524144e+36
-1.0752746e+36
4.3890858e+36
4.2478792e+36
-6.0869673e+37
-9.0559765e+35
-1.0763131e+36
1.4025732e+36
4.7189142e+36
1.9640198e+37
1.830779e+37
-2.8174326e+38
-5.4720233e+36
-5.4597466e+36
5.8368244e+36
1.8434001e+37
1.8784069e+37
-2.8829932e+38
-5.7211467e+36
-6.3363156e+36
-6.3576833e+36
1.9567643e+37
1.8913853e+37
-2.9010349e+38
-6.1980702e+36
-5.4543388e+36
1.9840402e+37
1.8650314e+37
-2.9567402e+38
-5.819037e+36
-5.9760982e+36
2.0078458e+37
-3.0238863e+37
-3.2097163e+37
-3.5837621e+34
-1.203047e+39
-3.3674598e+37
-2.7815033e+37
-1.2103479e+39
-2.8254876e+37
1.8353557e+37
1.7314416e+37
-2.6022932e+36
-2.4568643e+38
-2.3445116e+36
-2.9653448e+36
3.886047e+36
-3.076012e+36
-2.8126243e+38
-2.8010295e+38
-3.875842e+35
1.0057594e+36
-7.8661849e+36
1.1273255e+36
-7.9558443e+36
-8.1260709e+36
-6.0641435e+36
-6.2320882e+36
8.8317128e+35
-7.8311069e+36
-8.1812618e+36
-7.8607619e+36
-6.2271513e+36
-6.0377162e+36
-9.6992657e+34
6.5741536e+35
-5.2839177e+36
-5.3841256e+36
-5.6805855e+36
-5.5762205e+36
-5.7976737e+36
-5.455767e+36
-5.4350472e+36
-5.1469438e+36
-7.1744072e+35
8.7232434e+36
-4.3000272e+37
8.3121034e+36
-1.7026424e+35
-4.29363e+37
-2.2606038e+35
-4.2167111e+37
3.4013972e+35
-4.2281396e+37
-3.1150403e+37
-8.1929986e+36
3.4699029e+37
7.8442799e+36
-2.484738e+38
-6.607681e+36
7.9035778e+36
-8.2726454e+37
-2.2539229e+38
3.1449784e+37
-8.1916905e+37
-2.1993793e+38
3.2428414e+37
-2.4391172e+38
1.8431618e+36
3.0488076e+37
-2.8557912e+38
2.857683e+37
3.070081e+36
-2.8029293e+38
-1.8814074e+36
1.8619623e+37
1.7906713e+37
2.5151554e+36
-2.4708519e+38
-2.4932178e+36
-2.3271877e+36
1.7865898e+37
1.782967e+37
-2.4695487e+38
-2.8116359e+36
-2.3627721e+36
1.0798204e+37
1.489793e+37
-5.4136272e+37
-5.2626814e+37
-4.3165136e+37
-4.393692e+37
1.383751e+34
8.8149847e+36
-4.4569559e+35
-4.3345041e+37
8.5088907e+36
-4.3462976e+37
1.0734986e+36
-4.8963152e+35
8.1843264e+36
1.3864184e+36
-4.2846627e+37
-8.1410974e+35
8.0829362e+36
-4.2788742e+37
5.3134e+35
8.5810273e+36
-4.2712634e+37
8.2736521e+36
-4.3228055e+37
9.8795985e+35
7.8631106e+36
-4.217712e+37
7.9396733e+36
-4.2734476e+37
-1.4298252e+36
9.9578585e+35
2.6092867e+36
-8.1038771e+36
-8.338052e+36
-6.1456268e+36
-6.4618263e+36
9.30801e+35
-1.8937311e+36
-8.3111512e+36
-8.0458132e+36
-6.3399805e+36
-6.2694902e+36
-1.2329154e+36
-5.4854319e+36
-5.7452295e+36
-5.8049733e+36
-5.9778831e+36
2.402702e+36
1.3867128e+37
-3.6577837e+37
-3.1261564e+37
-3.6865964e+37
-3.1575957e+37
-1.539822e+36
-5.6618496e+36
-5.909774e+36
-5.7271301e+36
-5.5272569e+36
-1.1818623e+37
1.4879932e+37
-3.6910768e+37
-3.8491363e+37
-3.1502476e+37
-3.2825355e+37
1.6266004e+37
-5.5204966e+37
-5.3504938e+37
-4.4953907e+37
-4.3461395e+37
-1.7153089e+36
8.6823631e+35
-8.0631915e+36
-8.2303698e+36
-6.1558621e+36
-6.4097891e+36
9.1909964e+35
-8.211681e+36
-7.8857623e+36
-6.2972256e+36
-6.1499094e+36
1.3730761e+36
-5.5486531e+36
-5.3049334e+36
-5.8169878e+36
-5.5104112e+36
-5.434785e+36
-5.7371937e+36
-5.6094096e+36
-5.8271383e+36
-3.1874665e+37
-4.3575457e+36
3.5451024e+37
-2.4992333e+38
-3.4734629e+36
-8.3095407e+37
-2.2508112e+38
3.3465855e+37
-8.5957553e+37
-2.2508623e+38
3.4365395e+37
-2.485304e+38
-9.9233516e+36
1.2113572e+37
-5.5944982e+37
-5.3936876e+37
-4.5399299e+37
-4.372654e+37
1.1645412e+37
-5.3868386e+37
-5.5166632e+37
-4.403049e+37
-4.4772726e+37
8.8655101e+36
-3.7851332e+37
-3.228924e+37
-3.7387311e+37
-3.181528e+37
-3.6981426e+37
-3.160965e+37
-3.8708896e+37
-3.293844e+37
3.046989e+36
-8.2801315e+36
7.2541414e+36
-9.636159e+36
-9.536352e+36
-1.2556208e+37
-1.3089987e+37
-2.6568992e+35
-1.9024736e+36
2.143437e+36
5.014841e+35
-2.0453973e+36
-1.9526655e+36
-2.9029694e+36
-3.075315e+36
-1.8992395e+36
-4.3748242e+35
2.1072358e+36
-1.970459e+36
-1.9940145e+36
-3.0401479e+36
-2.9454662e+36
1.3803828e+35
-3.1583829e+35
-1.0705654e+37
-1.054795e+37
3.6903577e+35
-4.8292445e+35
-1.8232216e+36
2.1377631e+36
-2.023252e+36
-1.9403114e+36
-2.9242645e+36
-3.0531058e+36
-1.8668829e+36
-4.5790275e+35
2.0776534e+36
-1.9366993e+36
-1.9636888e+36
-3.0138361e+36
-2.8863276e+36
2.859777e+35
-2.9310992e+35
-1.0462783e+37
-1.0679509e+37
-8.1028803e+36
3.1704161e+36
7.3220627e+36
-9.525617e+36
-9.9210494e+36
-1.3375957e+37
-1.2783941e+37
-1.828954e+36
2.238459e+36
-4.9689689e+37
-4.8192691e+37
-2.8326224e+35
-1.820019e+36
2.0996559e+36
-2.0279581e+36
-1.945905e+36
-2.8772406e+36
-3.0519496e+36
-1.8103735e+36
-5.101295e+35
2.0428797e+36
-1.9441599e+36
-1.9242239e+36
-2.9874647e+36
-2.8949713e+36
-1.4624447e+35
-1.0513349e+37
-3.5824393e+35
-1.0596114e+37
-5.2928234e+35
-1.8046443e+36
2.1546963e+36
-1.9961463e+36
-1.9120145e+36
-2.8944573e+36
-3.0244214e+36
-1.838228e+36
-4.197665e+35
2.0374643e+36
-1.9068313e+36
-1.9233663e+36
-2.9592139e+36
-2.8446737e+36
3.029977e+35
-2.3427987e+35
-1.0286564e+37
-1.0564747e+37
-1.8957538e+36
-7.9283665e+36
2.740561e+36
6.9748083e+36
-9.5413019e+36
-9.9725552e+36
-1.2683864e+37
-1.3426935e+37
-7.9730416e+36
6.9642886e+36
-9.7498079e+36
-9.5906112e+36
-1.2800318e+37
-1.3273064e+37
-1.0389004e+36
1.8995606e+36
-4.9288972e+37
-4.9681695e+37
-1.6084955e+36
-7.9786052e+36
6.8725697e+36
2.5307975e+36
-9.7889128e+36
-1.0219853e+37
-1.3660359e+37
-1.2911866e+37
-8.1608776e+36
-2.6856531e+36
6.8189191e+36
-1.0013484e+37
-9.8940381e+36
-1.3106036e+37
-1.3538586e+37
8.6420576e+35
-1.9920157e+36
-5.0725323e+37
-4.9941467e+37
8.0436547e+36
-1.7656891e+36
-5.0968164e+37
-2.7106242e+36
6.9870822e+36
-9.7692316e+36
-1.3044695e+37
-1.015702e+37
-1.3675982e+37
-8.0922984e+36
6.8380093e+36
-9.8817469e+36
-9.7045337e+36
-1.2825403e+37
-1.340031e+37
-4.9595629e+37
-2.1746686e+35
-1.7830989e+36
1.9944416e+36
-1.9834444e+36
-1.9105559e+36
-3.0087019e+36
-2.865269e+36
-1.7929869e+36
-3.8699616e+35
1.9992205e+36
-1.9364623e+36
-1.9498684e+36
-2.9899458e+36
-2.9045631e+36
7.3283358e+34
-2.4214862e+35
-1.0546333e+37
-1.0382905e+37
-4.6973919e+35
-1.7414057e+36
2.0870771e+36
-1.9002653e+36
-2.8757306e+36
-2.9986283e+36
-1.9762471e+36
-1.8145297e+36
2.022869e+36
-1.9131604e+36
-1.8889124e+36
-2.8344632e+36
-2.9576757e+36
2.1768603e+35
-1.0298367e+37
-1.0523057e+37
2.2044198e+38
1.8675033e+36
-2.8199289e+38
-1.5917725e+37
-1.5218514e+37
1.1804169e+37
1.1554429e+37
2.1049965e+36
2.8394928e+38
-1.4478595e+37
-1.5181134e+37
1.1988401e+37
1.1716387e+37
-2.1932554e+38
2.8638089e+38
1.1401072e+37
-1.554819e+37
1.1778089e+37
-1.5268819e+37
-1.6672324e+37
1.0908123e+37
2.6032256e+36
2.3264141e+38
-3.0797856e+36
1.4474135e+37
-1.4170409e+37
1.3947679e+37
-1.3516844e+37
2.291101e+38
-1.4268909e+37
1.3643417e+37
1.3991768e+37
-3.1496911e+36
-1.1364796e+37
-1.0731305e+37
1.6829754e+37
1.7119862e+37
-2.4830307e+36
-1.1076878e+37
1.7532557e+37
-1.1014542e+37
1.6853285e+37
2.2698413e+38
-1.9580282e+36
-1.3514341e+37
1.3434807e+37
1.3665192e+37
-1.4035304e+37
-1.469702e+36
-1.1083318e+37
1.6138039e+37
-1.1391933e+37
1.6490632e+37
-2.2378512e+38
-1.0678253e+37
-1.1020631e+37
1.7159754e+37
1.6335698e+37
-1.3350678e+37
1.3716045e+37
-1.4045873e+37
1.3422854e+37
-4.8125725e+37
-7.8083065e+35
8.4168291e+35
-1.769513e+36
3.8432108e+36
-1.9126867e+36
3.8711072e+36
7.0191888e+35
4.8149611e+37
-4.4199413e+35
-6.1047577e+37
-2.4528283e+36
-2.3871442e+36
3.3545998e+36
3.2550397e+36
-6.0628453e+37
7.3571449e+35
-2.2881346e+36
3.3782243e+36
-2.4258285e+36
3.39371e+36
-6.3498284e+35
-1.9061617e+36
3.8543035e+36
-1.8865801e+36
3.7249052e+36
3.4521867e+35
4.7332831e+37
-5.9738526e+37
-1.783042e+35
-2.4878016e+36
-2.3811078e+36
3.272265e+36
3.1750865e+36
4.8198805e+37
-6.0856226e+37
-2.4317082e+36
3.2082819e+36
-2.505871e+36
3.2564187e+36
4.4197155e+35
3.068379e+34
-1.9307394e+36
-1.8635324e+36
3.7840853e+36
3.6558726e+36
3.6797274e+36
-1.919189e+36
-2.002099e+36
3.7319261e+36
-4.7157804e+37
-1.2571169e+35
2.3485039e+34
-2.8145177e+36
2.6793779e+36
-2.8424613e+36
2.776193e+36
2.50488e+34
-1.9274786e+35
-6.0401776e+37
-2.9775674e+36
-2.9983467e+36
2.4042344e+36
2.5098718e+36
4.6478545e+37
-5.9201404e+37
-1.4496738e+34
-3.0000788e+36
-2.8662291e+36
2.5193548e+36
2.4580341e+36
9.6071672e+34
-2.8285301e+36
-2.7093171e+36
2.7729144e+36
2.6913536e+36
-4.7064111e+37
-3.5340952e+35
2.9873057e+35
-2.6611791e+36
2.8429898e+36
-2.7534066e+36
2.9014866e+36
2.0268276e+35
4.730792e+37
-6.0685546e+37
-2.9760048e+36
-2.8514069e+36
2.5871356e+36
2.5523337e+36
-5.9776312e+37
9.636503e+34
-2.8165228e+36
2.5978627e+36
-2.8916945e+36
2.6603457e+36
-2.8057778e+36
-2.7158602e+36
2.8350741e+36
2.762448e+36
-4.6976178e+37
2.0464217e+34
-2.4069376e+35
-3.0160498e+36
2.4318265e+36
-3.0599187e+36
2.5348327e+36
5.7610819e+34
4.7496544e+37
-6.1221695e+37
1.8875114e+35
-3.219795e+36
-3.0776119e+36
2.4150977e+36
2.400823e+36
-6.013067e+37
-3.2077279e+35
-3.0833289e+36
2.3747867e+36
-3.1337747e+36
2.4776302e+36
2.7801939e+35
-3.1479763e+36
-3.0094778e+36
2.4442606e+36
2.429284e+36
-5.841886e+34
-4.7770926e+37
4.5673408e+34
-3.3474227e+36
2.3926824e+36
-3.2180142e+36
2.3710694e+36
-4.7201994e+37
-4.0710156e+35
-3.2006306e+36
2.343054e+36
-3.2380858e+36
2.4667161e+36
1.0902952e+35
-5.4271705e+35
2.0872746e+36
2.2239169e+36
-5.9241225e+37
-3.5589296e+36
-3.5657613e+36
2.3012929e+35
2.1539606e+36
2.1187991e+36
-6.0412815e+37
-3.5353629e+36
-3.6440709e+36
7.6748654e+35
-2.1450438e+38
-1.4732811e+36
1.0368848e+37
1.1236792e+37
-1.6457262e+37
-1.6540903e+37
-1.3222049e+35
4.7340866e+37
3.2014922e+35
2.1106272e+36
2.0358376e+36
-5.9775478e+37
-3.5621061e+36
-3.6895922e+36
4.8008686e+37
2.0200637e+36
2.1185241e+36
-6.0857143e+37
-3.6855293e+36
-3.6438547e+36
6.7693685e+32
6.1317689e+37
-3.3371255e+36
2.2102712e+36
-3.3500625e+36
2.3450104e+36
-2.1523478e+38
1.4009944e+36
1.0729523e+37
1.0718499e+37
-1.741262e+37
-1.6569499e+37
6.0182713e+37
3.2354492e+35
-3.3828669e+36
2.311718e+36
-3.2358534e+36
2.2659426e+36
-2.2094398e+35
4.6652514e+37
4.9584616e+35
-3.2680478e+36
2.3081215e+36
-3.1038732e+36
2.2770466e+36
4.7324765e+37
-3.2335759e+36
2.2043867e+36
-3.2389858e+36
2.3372298e+36
1.1192913e+35
-3.1612523e+36
2.2471785e+36
-3.158367e+36
2.3827165e+36
3.8269601e+35
-3.1859765e+36
2.3637063e+36
-3.0402784e+36
2.3125175e+36
1.3387923e+35
6.7215893e+35
-2.7860089e+38
-1.7465141e+37
-1.8284306e+37
1.0088698e+37
1.0186537e+37
-2.8014877e+38
8.1491737e+35
-1.7439083e+37
-1.7195399e+37
9.980792e+36
1.0788934e+37
-4.7092304e+37
2.2224021e+35
5.9841866e+37
-3.0573457e+36
2.3739433e+36
-3.0940077e+36
2.4883902e+36
-1.6330157e+35
4.7385713e+37
-6.1255416e+37
-3.2618425e+36
-3.125722e+36
2.3412827e+36
2.3205973e+36
-6.0620355e+37
-3.151228e+36
2.2793076e+36
-3.1968817e+36
2.395237e+36
6.0486264e+37
-3.160481e+36
-3.0168422e+36
2.4097667e+36
2.392842e+36
-1.8462212e+35
4.7956072e+37
2.0940325e+36
2.0359073e+36
-6.0930422e+37
-3.6075076e+36
-3.7051998e+36
4.77855e+37
2.0506714e+36
2.1461263e+36
-6.0630203e+37
-3.6706146e+36
-3.591447e+36
-1.7056197e+35
-3.393905e+36
2.3057596e+36
-3.2732263e+36
2.2707996e+36
-3.2743074e+36
2.2420249e+36
-3.3171612e+36
2.3747153e+36
4.8430259e+35
-2.1909377e+38
1.0909239e+37
1.0671177e+37
-1.6372729e+37
-1.7240978e+37
-2.1260414e+38
1.0652749e+37
1.0731409e+37
-1.7002306e+37
-1.6414914e+37
-6.5045961e+35
-2.8082616e+38
1.0160791e+37
-1.8136845e+37
-1.8522196e+37
1.0417724e+37
-2.7452868e+38
-1.7337725e+37
-1.7569714e+37
1.1043846e+37
9.9491789e+36
2.163692e+38
-2.4224045e+36
2.2870271e+35
-1.5128969e+37
1.2178264e+37
1.1480627e+37
-1.5514609e+37
-2.7430849e+38
-2.2767091e+36
2.1405682e+36
-1.7504471e+37
-1.7678113e+37
1.0133294e+37
1.0963559e+37
-1.0424206e+39
3.0654087e+37
5.4460604e+37
-6.6824079e+37
-6.6602602e+37
5.8435288e+37
2.1563006e+38
1.225045e+36
-2.7725683e+38
1.1576775e+37
1.1835567e+37
-1.5245284e+37
-1.5568006e+37
-4.5099937e+35
-1.8116496e+37
-1.7676468e+37
1.0593302e+37
1.0411092e+37
6.2924091e+37
-1.1815361e+39
-1.7937028e+38
1.0362283e+39
-1.2086574e+39
-1.7030883e+38
-7.1567528e+37
5.3736688e+37
5.7571066e+37
-6.1292639e+37
-2.1597989e+38
-9.1168544e+35
-1.7843507e+37
-1.8763917e+37
1.0710081e+37
1.0994234e+37
1.5647608e+36
-2.7458922e+38
1.1563352e+37
-1.5659663e+37
-1.6151262e+37
1.0922194e+37
2.1266739e+38
-2.6956234e+38
1.1972842e+37
-1.5647577e+37
-1.5301233e+37
1.0858693e+37
1.1088048e+37
-1.7629396e+37
-1.7682001e+37
1.0172348e+37
-4.6975906e+37
1.4113515e+35
6.0309567e+37
-2.738154e+36
-2.7927878e+36
2.7040773e+36
2.8109178e+36
1.5260094e+33
4.7135392e+37
-2.9914126e+36
-2.8480467e+36
2.5296802e+36
2.5111715e+36
-2.8535318e+36
2.5048831e+36
-2.9179835e+36
2.5956684e+36
6.0747053e+37
-2.8436392e+36
-2.716293e+36
2.7610804e+36
2.7232314e+36
-4.7614764e+37
5.9288821e+34
-1.8841117e+36
3.6184852e+36
-1.95794e+36
3.7219934e+36
1.8668083e+35
4.7769271e+37
-2.4862964e+36
3.2605041e+36
-2.3711886e+36
3.2140126e+36
-2.3762544e+36
3.2049508e+36
-2.4649634e+36
3.2841405e+36
-1.9693632e+36
-1.8818467e+36
3.7121323e+36
3.6489703e+36
-1.8199288e+35
2.4044796e+35
8.8278643e+35
8.9982249e+35
-1.2844113e+37
-3.1500236e+35
-3.4063723e+35
8.647958e+35
9.3134712e+35
-1.2587211e+37
-3.0876982e+35
-3.0799271e+35
2.2289375e+35
9.2157694e+35
8.8521605e+35
-1.2859408e+37
-3.1881974e+35
-3.2090181e+35
2.0945944e+35
9.1977507e+35
8.9712543e+35
-1.2636172e+37
-2.8915017e+35
-3.2426956e+35
-2.6736462e+35
2.5795771e+35
8.9715798e+35
9.366108e+35
-1.2783711e+37
-2.9557733e+35
-3.2433076e+35
-2.9310148e+35
9.2834095e+35
8.7748824e+35
-1.2932195e+37
-3.2066247e+35
-3.1442959e+35
-2.2765757e+35
9.0501217e+35
9.2269111e+35
-1.2892607e+37
-3.02546e+35
-3.3156497e+35
9.3296788e+35
8.7324449e+35
-1.2564837e+37
-3.0351377e+35
-3.0068843e+35
-2.4255141e+35
3.0342458e+35
9.1622889e+35
9.3198729e+35
-1.3008738e+37
-3.0153062e+35
-3.3074205e+35
9.6022522e+35
8.8707179e+35
-1.2762307e+37
-3.0186817e+35
-3.0577154e+35
-3.0107089e+35
9.2725144e+35
9.6896916e+35
-1.2830419e+37
3.5345307e+35
-2.6651461e+35
-3.0521486e+35
9.6192753e+35
9.1188872e+35
-1.3047388e+37
-2.9934209e+35
-3.0669813e+35
1.3961328e+36
4.0437915e+36
4.338212e+36
-5.9944316e+37
-1.0693076e+36
-1.0266507e+36
1.7949809e+36
4.2268724e+36
4.1785616e+36
-6.1701235e+37
-1.0381551e+36
-1.2143242e+36
-1.5258491e+36
1.4682541e+36
4.1121201e+36
4.2281051e+36
-6.1026872e+37
-1.0311078e+36
-1.2347644e+36
4.0249502e+36
4.3455518e+36
-6.1816224e+37
-1.1041747e+36
-1.1989814e+36
1.5418922e+36
-1.7675164e+36
4.1523296e+36
4.396955e+36
-6.2958094e+37
-1.1119413e+36
-1.1770133e+36
4.3551185e+36
4.2246071e+36
-6.188603e+37
1.6374981e+36
-9.9248634e+35
-1.192617e+36
-1.4206765e+36
4.2183131e+36
4.3039635e+36
-6.3307936e+37
-1.2653234e+36
-1.0830567e+36
4.0538187e+36
4.3884513e+36
-6.1718911e+37
-1.0855596e+36
-1.1619488e+36
-2.1014447e+37
-2.959551e+37
-3.011429e+37
-1.2025723e+39
-3.1186918e+37
-2.9620548e+37
-1.2021491e+39
2.6573731e+37
8.26758e+37
7.6030739e+37
-1.1167809e+37
-1.2183815e+39
-4.4185893e+37
-5.0349741e+37
7.5433417e+37
8.2311821e+37
-1.2235362e+39
-4.4145754e+37
-5.0754638e+37
-2.0501195e+37
-3.8252621e+36
2.0136813e+37
1.9205253e+37
-2.5370623e+38
-6.4124976e+36
-1.2148964e+35
9.6975142e+36
-5.5559299e+37
9.4264701e+36
-1.9297835e+34
-5.5430298e+37
6.5702073e+36
-5.8581327e+36
-2.2704228e+38
-2.2535732e+38
1.6168818e+35
2.0657981e+36
-3.7927892e+36
-7.3815351e+34
-6.3167139e+36
2.0930937e+36
1.4283052e+35
-3.9367802e+36
-6.2635186e+36
-1.615783e+35
1.1851464e+36
3.1484707e+35
-1.0656896e+36
-1.5652449e+36
-1.0926681e+36
-1.6131451e+36
-2.2195684e+35
1.1776888e+36
-1.5997846e+36
-1.5291065e+36
-1.0799499e+36
-1.0474544e+36
8.4119593e+34
2.018363e+36
-3.8222e+36
-6.3187048e+36
2.071089e+36
-3.8497448e+36
-6.2232401e+36
-2.2973072e+35
1.1014249e+36
-1.0630077e+36
-1.5588027e+36
-1.0842536e+36
-1.5963693e+36
1.2059258e+36
-1.6078141e+36
-1.5249078e+36
-1.087916e+36
-1.0471036e+36
-1.3569789e+35
-7.6971399e+35
2.6047194e+35
-7.0830437e+35
-9.8857777e+35
-1.011715e+36
-7.4522519e+35
-7.8865181e+35
-1.8169271e+35
-9.6218896e+35
-9.8779585e+35
-7.0955507e+35
-7.1224376e+35
9.1042272e+34
-1.8046835e+35
-7.5011703e+35
-1.4364019e+36
-1.4558293e+36
-7.382365e+35
2.018211e+35
-1.4409464e+36
-7.6604484e+35
-7.7134346e+35
-1.4839344e+36
-2.9272418e+35
8.7405889e+35
-7.43541e+35
-7.8595124e+35
-1.5183551e+36
-1.4245501e+36
7.5371421e+35
-1.4390536e+36
-7.4954233e+35
-7.3375576e+35
-1.4256889e+36
-2.0455919e+35
-1.004491e+36
-9.8151503e+35
-7.5067491e+35
-7.0001296e+35
-9.569583e+35
-9.9153791e+35
-6.9066736e+35
-7.1405249e+35
1.1189104e+36
7.9587084e+35
8.3945559e+35
-1.1973217e+37
-1.2264218e+37
-9.0857341e+36
-9.0126321e+36
1.2390581e+36
8.4208533e+35
8.1668895e+35
-1.2246532e+37
-1.1989048e+37
-9.0472765e+36
-9.0805478e+36
-3.1060499e+37
-5.7789692e+36
1.9274633e+37
1.8934104e+37
4.8195801e+36
-2.5032713e+38
-2.0631965e+36
-2.2723047e+36
-4.8515191e+36
7.1063205e+36
-2.8989451e+38
3.1073745e+37
-2.8241366e+38
1.8690239e+37
1.8208833e+37
-2.4814654e+38
-2.4014764e+36
-2.4528344e+36
-1.0287691e+36
2.3222746e+37
-2.3095538e+38
2.1006113e+37
-2.2500701e+38
-1.2900672e+36
-5.81786e+35
1.216633e+35
2.0016195e+37
1.9710787e+37
-2.5334839e+38
-6.1868606e+36
-5.8106514e+36
-6.5893963e+35
9.7328775e+36
9.4560466e+35
-5.5975721e+37
-5.3788537e+35
1.0006144e+37
-5.5799412e+37
1.9920629e+37
1.9333966e+37
-2.5519102e+38
-6.4447286e+36
-5.7579854e+36
-4.2706981e+35
9.4685785e+36
-5.5619074e+37
9.8349379e+36
-5.5356704e+37
-1.4353921e+36
8.673165e+36
1.5544617e+36
-4.4238267e+37
8.8281706e+36
-4.3608046e+37
1.7303723e+36
8.232867e+36
-4.2913784e+37
8.4250115e+36
1.5935964e+36
-4.3551988e+37
-2.0783808e+36
3.9679408e+36
4.0463707e+36
1.9936357e+36
-1.2438757e+37
-1.2116046e+37
-9.1082414e+36
-9.1881244e+36
9.473091e+35
8.6056214e+35
-1.7287434e+36
3.9749865e+36
3.9190989e+36
-1.2146284e+37
-1.2353397e+37
-9.1418135e+36
-9.1320142e+36
8.9035718e+35
8.5684877e+35
1.9074512e+36
3.8974967e+36
3.8488186e+36
-1.2027442e+37
-1.2267923e+37
-9.0966011e+36
-9.0592912e+36
8.4987407e+35
8.4450948e+35
3.8590711e+36
3.9476517e+36
-1.2323652e+37
-1.2039517e+37
-9.0778029e+36
-9.1325979e+36
8.6959277e+35
8.1007265e+35
9.7953658e+35
2.6249351e+36
-8.4534873e+36
-8.1667916e+36
-6.3891795e+36
-6.3306949e+36
3.6980229e+34
2.1374697e+36
-6.4183502e+36
1.0796869e+35
2.1655355e+36
-4.9201319e+34
-6.3710316e+36
-3.124763e+35
1.242997e+36
5.0280085e+35
-1.6599438e+36
-1.5905151e+36
-1.0713089e+36
-1.119704e+36
-4.5345741e+35
1.2313072e+36
-1.092026e+36
-1.6322577e+36
-1.5816745e+36
-1.0806527e+36
-6.1773782e+34
2.0963457e+36
-6.4199326e+36
2.1412046e+36
-2.7887293e+33
-6.3268989e+36
-4.2992393e+35
1.1505712e+36
-1.0714518e+36
-1.5877937e+36
-1.1133145e+36
-1.6451741e+36
1.235883e+36
-4.1268407e+35
-1.639216e+36
-1.5703813e+36
-1.0969891e+36
-1.074816e+36
-3.5407618e+35
-8.5773977e+35
5.2352532e+35
-1.0082189e+36
-1.0524389e+36
-7.7227986e+35
-7.2120205e+35
-8.6657215e+35
-4.9679456e+35
-1.0196171e+36
-1.0105652e+36
-7.4312191e+35
-7.3132316e+35
-2.1289889e+35
3.698666e+35
-1.4812064e+36
-7.8449071e+35
-8.3579375e+35
-1.5747514e+36
-3.2625568e+35
-1.5115285e+36
-8.019509e+35
-8.0015044e+35
-1.5102311e+36
2.5274182e+36
-5.6541663e+36
-5.8574533e+36
-5.6949643e+36
-5.9460196e+36
9.8622238e+35
2.8084124e+36
-8.2927855e+36
-8.4959276e+36
-6.2688658e+36
-6.553072e+36
2.6656394e+36
-5.8356027e+36
-5.5949646e+36
-5.90958e+36
-6.0657471e+36
-9.6240987e+35
-4.742839e+35
-1.0123337e+36
-1.0554241e+36
-7.7958137e+35
-7.2403645e+35
-3.7750309e+35
-1.4847424e+36
-7.8810234e+35
-8.385079e+35
-1.5718197e+36
8.5074946e+35
-2.7994871e+35
-1.508084e+36
-8.0055548e+35
-7.9380753e+35
-1.4953301e+36
-4.0680822e+35
-1.0089004e+36
-1.0214593e+36
-7.4346119e+35
-7.342764e+35
-1.6588774e+36
1.390031e+36
-8.8998569e+36
2.3915303e+36
-8.4227855e+36
-8.6807923e+36
-6.3579096e+36
-6.6720964e+36
1.2485284e+36
-8.7141016e+36
-8.5908122e+36
-8.3321026e+36
-6.516135e+36
-6.4372012e+36
-1.5049085e+36
2.0846632e+36
-5.6868911e+36
-5.9445631e+36
-5.9305748e+36
-6.1553606e+36
-5.8267016e+36
-5.696673e+36
-6.0684721e+36
-5.8599599e+36
6.6115748e+35
9.3201655e+36
-4.4357192e+37
9.1383815e+36
1.5686811e+36
-4.4616738e+37
8.792676e+35
-4.3633512e+37
1.5446755e+36
-4.3888277e+37
7.300345e+34
2.0804839e+36
-6.3603922e+36
2.1165123e+36
-1.7580595e+34
-6.3086415e+36
-2.7939167e+35
1.1668892e+36
-1.6313179e+36
-1.5758036e+36
-1.0657092e+36
-1.1027237e+36
-4.2604114e+35
1.1792751e+36
-1.0863993e+36
-1.6176059e+36
-1.5556447e+36
-1.0662454e+36
-3.3465639e+34
2.0587022e+36
-6.3569952e+36
2.104884e+36
-6.2491046e+36
-3.8949221e+35
1.0965608e+36
-1.0689405e+36
-1.5768523e+36
-1.1019898e+36
-1.6238441e+36
1.2000102e+36
-1.6196605e+36
-1.5474683e+36
-1.0891742e+36
-1.0633733e+36
-3.9805081e+35
-9.6466222e+35
4.2904658e+35
-1.0354778e+36
-9.9986304e+35
-7.1530897e+35
-7.6776861e+35
-8.0466471e+35
-9.8700457e+35
-1.002844e+36
-7.1813091e+35
-7.2985539e+35
-3.8496263e+35
3.4183282e+35
-1.4616209e+36
-7.6902032e+35
-8.1399861e+35
-1.5391802e+36
-7.7018053e+35
-7.7373553e+35
-1.455374e+36
-1.461463e+36
-8.7363548e+35
-2.9805702e+35
-1.0326786e+36
-9.9639184e+35
-7.1183236e+35
-7.6210492e+35
-2.0428255e+35
-1.4548063e+36
-7.6872361e+35
-8.1536335e+35
-1.5479447e+36
-8.5436766e+35
-9.9186307e+35
-1.0048499e+36
-7.1872449e+35
-7.293378e+35
-7.7801827e+35
-7.8051559e+35
-1.4681798e+36
-1.4743622e+36
-3.1236541e+37
-6.7377504e+36
1.9612479e+37
1.9146696e+37
-2.5205901e+38
-2.0604692e+36
-2.2446217e+36
-7.0804987e+36
-2.8700197e+38
3.242309e+37
-2.8759779e+38
1.8661889e+37
1.9162008e+37
-2.5112866e+38
-2.2548257e+36
-2.4658876e+36
5.3973901e+35
9.5528693e+36
-1.4520265e+36
-4.4973078e+37
9.2789112e+36
-4.5118231e+37
6.6597457e+35
-1.3123472e+36
8.9070473e+36
-4.4107089e+37
8.9354642e+36
-4.4154841e+37
1.5279808e+36
9.2569776e+36
-4.4422773e+37
9.0277317e+36
-4.4956397e+37
1.6394594e+36
8.7070192e+36
-4.3575309e+37
8.8333818e+36
-4.4251261e+37
1.2848435e+36
-2.3084272e+36
2.3079734e+36
-8.4813044e+36
-6.4111232e+36
-8.7046084e+36
-6.7052952e+36
-2.0219963e+36
2.0567173e+36
-5.7348974e+36
-6.0663587e+36
-5.9779353e+36
-6.2728408e+36
1.3018252e+36
-8.6211004e+36
-8.3434216e+36
-6.5085843e+36
-6.4259052e+36
-6.1362147e+36
-5.9373414e+36
-5.8393966e+36
-5.6998268e+36
1.3454973e+36
-1.4146003e+36
-8.4884048e+36
-8.7240215e+36
-6.6858672e+36
-6.3802529e+36
-1.2357411e+36
1.9538514e+36
-5.7245852e+36
-5.963689e+36
-6.1123322e+36
-6.3090651e+36
1.3596076e+36
-6.5868825e+36
-6.5212627e+36
-8.7092841e+36
-8.4506509e+36
-5.9042859e+36
-6.2047083e+36
-5.7948578e+36
-6.0350848e+36
-5.7828596e+35
-1.8222873e+36
6.0342901e+35
2.1253097e+36
-2.0349821e+36
-1.9387899e+36
-2.9286303e+36
-3.0619232e+36
-1.8683999e+36
2.0899894e+36
-1.9531249e+36
-1.9727505e+36
-3.0156834e+36
-2.893184e+36
3.9376432e+35
-1.0405545e+37
4.9140511e+35
-1.0671703e+37
5.213242e+34
-3.6379459e+35
-8.3869911e+34
8.2987003e+35
-2.4797344e+36
-3.5808975e+35
8.1316452e+35
1.1311299e+35
-2.4687206e+36
-3.5932466e+34
-2.3877e+36
8.9824917e+34
-7.5969805e+34
-2.4301028e+36
9.1977409e+34
-3.5094865e+35
-8.7528705e+34