/*--------------------------------*- C++ -*----------------------------------*\
  =========                 |
  \\      /  F ield         | OpenFOAM: The Open Source CFD Toolbox
   \\    /   O peration     | Website:  https://openfoam.org
    \\  /    A nd           | Version:  7
     \\/     M anipulation  |
\*---------------------------------------------------------------------------*/
FoamFile
{
    version     2.0;
    format      ascii;
    class       volScalarField;
    location    "8000";
    object      omega;
}
// * * * * * * * * * * * * * * * * * * * * * * * * * * * * * * * * * * * * * //

dimensions      [0 0 -1 0 0 0 0];

internalField   nonuniform List<scalar> 
34251
(
2315.9575
4365.3329
4197.413
877.28984
4143.9789
847.39026
686.37648
862.48717
848.023
1233.9846
9313.9396
1234.3629
9323.8183
7766.1696
7932.4078
1964.4172
1986.0108
7761.4979
7882.9992
1910.6127
1959.0168
751.03148
689.69033
695.72225
768.1697
1384.1704
1550.42
1380.0271
1532.4381
581.67371
588.68019
513.46929
515.58862
2085.8661
2085.8592
2063.7728
2075.6008
551.69593
552.27439
1984.7069
668.07371
674.58753
1998.9197
4580.7837
4553.2618
18712.176
18639.966
672.66224
670.43367
1995.9021
2003.6753
4585.2585
4599.3521
18681.431
18789.638
4467.0699
13341.22
4459.4193
13554.434
4567.5928
13573.7
4596.7611
4371.064
13697.573
4589.8491
13494.313
13438.255
4473.5627
4589.0061
1865.2157
1887.1916
1867.1141
1858.8014
1382.1637
1397.5382
1552.9997
1549.3805
583.82698
1555.9604
1394.3346
1407.2583
1577.8521
591.78841
1884.7234
1905.5996
1880.7522
1876.502
514.46615
516.02566
3024.6473
2985.995
3284.4876
1153.7754
3372.9844
4052.0319
3939.4688
4111.4923
3059.4593
2980.6504
3412.3237
3299.0809
1155.6387
4005.2025
3908.4323
4062.3682
4207.4956
1028.8128
1017.1811
1032.8642
1171.6557
3152.3017
3505.1759
4651.442
448.71471
750.08689
868.17723
862.90814
740.98592
451.03793
738.26401
866.98921
387.73086
389.07944
4933.6486
5043.7753
5025.1612
5045.1144
4915.7726
4997.9172
551.5536
551.60331
2135.7535
692.42075
696.50421
2151.0227
3579.2044
3556.8151
6788.4668
6738.5836
3574.0263
3523.2633
6706.1904
6766.4233
12969.452
32904.82
32870.934
12889.171
13000.896
12946.996
32756.35
696.7162
694.56643
2147.9754
2161.6857
3599.6052
3564.7395
6773.3508
6809.7252
6839.3599
3583.6193
3598.5927
6769.598
12927.333
13022.971
33103.955
12955.516
13077.955
33025.763
32847.764
21537.223
22028.398
8263.7574
8146.6452
21693.421
22230.653
8298.5071
8421.9495
8242.6691
21942.861
22072.523
8419.9734
22233.777
22317.75
8325.8054
8477.9161
21929.439
22007.579
8216.9157
8254.6537
21675.933
21626.187
8127.2306
8296.8848
358.45833
5272.1569
4791.1199
5203.4065
5104.9758
4749.7724
4623.6784
4823.5443
4887.5635
4815.1181
4710.4226
4628.2464
4768.0205
3044.4396
2983.9168
3297.7266
3392.4826
1160.0689
3023.2553
3074.703
3434.8443
1164.3661
4020.0143
3932.2138
4105.7954
4236.1246
4079.6862
4291.7779
1023.0335
1039.7832
4271.5121
4027.4936
4093.7691
4244.3917
3088.4617
3394.3637
3422.973
3037.7624
1161.1771
3051.666
3045.5998
3362.9251
1184.8569
3383.8589
3991.3877
4192.2583
4005.8782
4178.5939
1031.6375
1047.069
5221.5434
5269.6142
4767.9946
4754.021
4653.5287
5093.6179
5150.5779
4649.8026
4683.0023
4781.6036
4744.7697
4682.7076
4787.3883
4828.8161
4896.2812
4777.7203
448.37951
754.18385
875.53874
867.44736
743.61889
450.57158
743.70682
867.65791
884.68247
754.81808
387.96508
389.45018
7051.722
7224.717
2601.946
6043.6941
5917.7312
6701.2694
7083.9923
2571.7112
5909.0156
5638.9391
7867.9838
7982.0558
8289.8682
8446.884
2440.7794
2449.3674
8295.1525
8415.6502
8447.18
8644.0031
9402.27
9523.4921
9202.2915
9398.3809
9258.002
9068.2355
9367.0224
9234.593
9831.2299
9402.2927
9956.974
9574.6902
7104.3935
7228.7235
2638.4831
6047.0506
5963.2611
6993.3844
7089.0481
2557.3551
5923.929
5886.2913
8359.4611
8490.1008
8451.2076
8654.9369
8224.5055
8351.6445
8303.9333
8493.9147
2414.7533
2475.9135
9314.6807
9112.7097
9516.6118
9383.6897
8833.2567
8646.7789
9292.7826
9122.8963
9362.3139
8959.2687
9812.8379
9414.5439
9864.2289
9429.2627
10101.105
9726.6547
1960.7738
2001.339
2133.3565
2123.4268
1986.9876
1938.7168
2090.2815
2154.1424
1979.08
2015.0918
2184.4474
2161.8735
2690.8813
2525.4478
2675.3868
2491.408
1894.0321
7448.5002
6279.5442
7430.2966
7522.9629
6307.8131
6289.4856
8702.0427
8848.3265
8782.6582
10102.893
9604.6838
9162.7824
10023.581
651.07392
650.83625
527.58968
528.13221
1124.643
1155.0411
1297.366
1325.6454
1731.0187
1556.0164
1509.672
1700.6081
1672.6772
1492.5599
1520.5986
1722.2775
1117.5511
1105.2138
1298.2377
1271.7538
522.66869
646.20805
526.20351
1089.9814
1102.3027
1277.9042
1290.8037
1523.1271
1494.6947
1732.6136
1709.3077
1451.4064
1635.644
454.7431
458.6092
8970.1501
9041.8176
9128.9034
9191.8347
9005.238
9141.5533
9133.056
9225.5918
9034.1052
8980.3728
8905.7472
9018.5226
536.046
536.12764
2226.1922
4117.6396
4047.9918
677.41509
683.18022
2242.0824
4102.874
4105.5251
7467.7246
7393.071
7367.2338
7436.449
12422.66
12531.835
18405.755
18323.223
29016.011
28410.492
48473.582
48487.124
28672.027
28895.185
48116.379
48750.444
18134.412
12527.375
12255.689
18422.267
12375.898
12642.056
18263.065
18526.941
12374.477
12484.291
18380.928
28795.206
28782.451
48591.579
48097.297
683.81474
678.96634
2240.4472
4101.2585
4146.2093
2253.5495
4127.6313
4131.9848
7449.814
7490.3345
7519.2648
7433.8513
12604.496
12331.483
18479.707
18478.951
18396.56
12600.652
12500.466
29152.429
28573.801
48750.351
48746.807
18413.18
18265.567
12504.781
12425.045
18365.034
18592.126
12713.549
12482.884
28939.663
28956.619
48325.627
48736.795
29021.821
28377.211
48411.949
48241.527
351.66346
39237.912
38225.323
11756.991
11870.7
39450.609
40101.012
11958.673
11969.603
39359.634
38153.407
11889.111
12018.948
39741.629
40136.857
12085.54
12118.121
39811.187
39222.17
11897.015
11991.801
39081.273
39754.508
11983.271
12008.195
40489.729
39606.642
12043.852
12157.286
39602.116
40278.293
12111.883
12126.861
39773.421
39209.284
11951.693
12006.543
39334.191
39873.385
11886.906
11912.142
39287.135
38827.692
11752.23
11828.081
38204.289
38784.261
11740.165
11798.64
358.75789
10299.94
9450.7718
10422.244
9620.0078
9815.5153
8781.6407
9925.0672
8935.2952
9980.3421
10150.607
9183.0235
9386.081
10118.949
10035.93
9294.7136
9283.9989
9540.153
8562.95
9684.0096
8737.084
9678.407
9604.3187
8668.3433
8667.9024
10561.275
10678.333
9810.3342
10003.475
10428.753
10530.805
9928.3411
10112.157
10251.923
10074.438
9606.8952
9852.6476
10151.359
10080.913
9681.7479
9683.7821
10324.41
10248.444
9611.1952
9609.7069
10212.446
10397.878
9507.7415
9749.117
7004.7547
7151.2687
2632.1792
5983.3467
5882.1198
7022.3106
7002.136
2562.4609
5855.4477
5920.4827
8256.4426
8376.647
8191.6711
8382.3675
8239.6344
8370.2354
8351.5696
8559.4432
2423.4933
2476.2923
7146.8716
2603.5239
5769.4845
5964.4296
7275.2052
7348.2443
2644.6294
6106.0611
6146.6561
8562.0455
8584.865
8683.5289
8791.0595
2481.4369
2483.2065
9270.6169
9413.5132
9080.862
9301.165
9285.97
9094.7767
9233.1233
9111.8357
9869.134
9445.6395
9815.3628
9460.2073
9832.0699
9404.0793
9999.6987
9646.3934
9670.8251
9547.8159
10268.439
9730.8326
9898.8398
1032.4967
2001.3561
1957.1613
2103.727
2162.9908
2036.9159
1996.4304
2166.9194
2161.4085
871.80303
745.9115
10194.77
9746.0537
10306.047
9903.6641
9289.6375
9577.029
9111.1691
9459.022
9588.6914
9399.0154
9728.0992
9583.3333
9872.3016
10173.613
9450.5983
9802.2617
7252.9324
7402.4986
2642.7489
6182.5348
6116.0084
8240.3192
8379.345
8493.4392
8702.3249
8518.9254
8649.4915
8653.3442
8841.454
7001.7314
7270.4608
2619.5319
5880.3752
6091.0638
2458.131
2495.4349
6986.2594
6984.6547
2653.5512
5848.7089
5863.5312
7065.9961
7295.4654
2618.8999
6115.3596
5963.3529
8299.7235
8427.9288
8524.8062
8708.8425
2481.3912
2513.5258
8224.772
8346.2763
8144.3938
8334.5731
9238.2368
9025.0611
9145.1026
9012.3549
9754.8884
9303.306
9659.7757
9300.118
9336.5625
9148.6637
9584.5933
9436.5203
9915.0203
9487.175
10150.005
9753.2869
1984.5492
2009.6488
2162.9055
2145.2939
2007.9648
2156.8929
2206.6776
2055.2007
10064.266
10302.821
9263.3881
9512.7094
10310.526
9451.3727
10373.447
9563.3744
9626.9784
8651.5828
9813.2396
8851.4384
9816.7836
8782.2231
9874.4627
8888.0334
9622.7481
8619.6464
9711.648
8737.9039
9770.4079
9712.3734
8974.4339
8989.2734
10074.465
9253.3676
10204.839
9406.2647
9317.1968
9270.8126
10311.101
9588.9616
10476.151
9789.8605
10170.698
10373.158
9691.2178
9924.7338
9942.7882
9859.6384
9451.1203
9458.0314
10027.567
9959.3692
9317.6453
9338.3827
10581.959
9820.771
10647.647
9950.9092
10128.438
10424.588
9663.0501
9999.8269
10448.198
9949.2376
10532.982
10085.61
10280.51
10556.997
9581.1206
9892.0354
651.78597
652.4975
527.75584
529.1837
1339.2957
1153.4126
1132.0652
1315.3598
1758.9706
1579.6867
1537.1504
1731.9936
1690.8637
1506.1565
1538.5146
1739.7701
1277.8554
1110.9847
1125.8521
1313.634
658.40198
650.01316
525.4866
530.46609
1117.7516
1127.0332
1306.9836
1304.3002
1541.9933
1735.7714
1721.785
1525.7939
1594.359
1545.2014
1735.4639
1793.967
1166.575
1133.8977
1313.8769
1361.573
454.23301
459.32741
20534.439
20553.888
18628.671
18850.684
18638.206
18875.515
20465.867
20467.626
5226.8415
5168.5544
5245.6295
5348.9757
19543.937
19647.965
19126.138
19250.048
17296.342
17648.007
18595.064
18896.654
20582.412
20621.463
5180.8308
4960.9927
4999.7754
5244.2538
19741.021
18416.762
17638.695
17932.597
16376.842
16004.129
16434.742
16727.45
15114.173
15443.066
17491.335
18947.437
17140.956
19169.347
16116.025
17577.592
17844.153
16460.966
4667.8713
4636.1341
4684.1885
4763.2521
4682.4498
4503.1795
4523.7861
4723.1845
17493.773
19012.132
17256.915
19154.212
16286.258
17722.783
17870.974
16488.623
17613.107
19043.332
17343.099
19186.007
16442.95
17835.219
18006.634
16694.042
17032.022
15983.625
16125.977
17114.328
17038.868
16822.254
15838.804
16119.775
15654.919
16521.549
15530.796
16593.745
16581.445
15713.202
16371.354
15438.071
15766.92
16620.722
15646.588
16704.35
16201.798
15270.246
15359.752
16243.84
16096.756
16794.058
15802.48
17037.21
16358.577
15415.819
16581.761
15693.587
15207.21
15815.61
15135.41
15836.749
14928.825
15721.747
15735.019
14995.622
16176.215
15533.723
15958.263
15271.262
15057.337
15856.53
16065.271
15311.189
20832.597
20842.503
18903.889
19105.017
18582.851
18867.506
20420.963
20457.826
5281.4485
5232.7913
5271.0141
5367.9016
19513.56
19916.835
20198.275
20234.342
18336.599
18561.955
18549.948
18857.485
20431.203
20489.229
5199.0404
5148.463
5170.2554
5253.8167
19544.445
19346.574
19304.455
19418.479
17519.276
17725.057
18115.556
16534.801
16708.519
17999.958
18969.151
19171.665
17582.97
17256.615
17728.086
17961.731
16332.752
16646.197
17252.398
18725.311
17026.227
18872.164
17503.518
16114.232
16295.585
17639.88
17564.277
18945.969
17214.676
19179.101
17699.243
16286.525
17964.32
16621.17
4669.5119
4628.5473
4635.0934
4702.8224
4717.8587
4708.3575
4753.9938
4803.0879
15921.265
16770.351
15755.144
16887.57
16296.212
15338.914
15485.696
16391.552
17108.7
16190.191
16947.137
15961.457
16519.451
15583.274
16672.241
15805.9
14918.537
15566.208
14640.227
15816.943
15139.808
15357.971
14263.258
14521.085
15870.635
16573.155
15545.02
16841.225
15095.855
16056.515
16322.235
15421.292
14352.291
14752.262
14108.938
14958.181
14632.89
14838.984
13901.053
14151.874
15871.3
15214.631
15596.938
14893.653
14643.382
15436.731
15714.653
14968.294
15299.707
15870.447
15167.066
15953.329
14939.364
15742.318
15820.832
15072.551
16286.082
15657.076
16128.513
15442.084
15234.096
16029.56
16187.522
15454.077
3574.5352
3607.3966
3718.3775
3720.321
3683.4605
3637.087
3701.1053
3802.2919
4210.3463
4080.394
4114.8417
4274.1785
4203.5262
4130.4344
4122.5459
4237.2983
3658.0363
3667.2635
3792.3852
3785.2678
3600.4712
3600.3905
3724.2891
3700.7663
4192.9511
4117.6511
4133.2728
4219.5424
4277.2004
4207.6359
4198.5586
4299.6205
3705.2349
3725.6404
3861.4888
3848.5246
3801.772
3781.1017
3908.1537
3934.1773
4432.682
4339.5877
4358.9751
4453.9771
4266.6839
4301.6231
4397.3014
4376.0745
5547.2513
5461.3101
5459.142
5581.7954
4954.4059
4890.4839
4892.4743
4969.3243
5532.4505
5449.5924
5394.8616
5535.3093
4930.0819
4859.5567
4811.7595
4906.5738
3515.7979
3472.7964
3587.3932
3643.2346
21450.073
21447.309
19547.136
19743.667
20501.324
20775.686
20841.34
18971.279
19233.96
19373.272
19665.278
21274.867
21314.673
20370.453
19913.858
17981.96
19377.992
17709.746
19570.406
18208.531
18399.109
16842.783
17079.46
18359.702
19776.238
18016.756
19993.776
15007.609
15493.165
14873.425
15577.439
14102.239
14408.54
13850.248
14623.514
14369.456
14596.672
13680.134
13949.793
14874.336
15166.255
14560.904
15448.725
990.92845
1002.968
762.43943
756.31626
1021.6858
1012.4488
772.66887
775.29999
610.6528
610.06803
1490.8235
1463.1234
1689.8068
1699.297
1566.1819
1577.2547
1818.5553
1777.9443
1987.454
1993.529
2217.823
2209.3088
2078.1306
2139.3618
2349.0927
2298.4927
3282.383
3185.0352
3166.2812
3310.5127
2834.5737
2675.1208
2622.2743
2807.671
2517.6731
2540.3599
2724.1739
2705.3344
3230.1126
3081.0828
3049.4636
3211.3274
3224.126
3098.0547
3068.8154
3229.4036
2717.473
2530.6521
2511.6972
2709.684
2595.4182
2577.2617
2766.7548
2786.7921
3282.6668
3134.9275
3141.4843
3295.3725
1495.034
1455.9168
1690.4492
1721.4172
1455.6841
1436.3959
1665.7003
1664.8151
2030.1675
2004.6136
2241.4975
2267.7832
1956.1904
1969.2072
2202.8232
2191.7184
604.28925
753.46431
985.66105
985.3489
752.29328
1432.0333
1419.588
1644.8134
1662.8028
1462.387
1463.807
1719.221
1694.6808
1970.1955
1961.2393
2217.4343
2227.8242
2008.5274
2044.5594
2296.4358
2274.7348
2642.9876
2623.5414
2850.5512
2850.1439
2561.505
2563.9354
2780.746
2778.3698
3227.0703
3391.5722
3411.6732
3231.9814
3159.0657
3329.1763
3324.1922
3144.4876
2616.8787
2430.3938
2465.3059
2660.995
3007.688
2973.6529
3109.4441
3159.688
1882.3018
2111.8039
447.09045
449.87338
12603.897
12752.599
12868.92
12823.828
12741.26
12916.082
13002.15
12991.089
12772.87
12885.897
12881.28
12844.72
12942.043
13088.253
13039.917
12996.959
12839.827
12920.137
12786.997
12765.37
12619.594
12709.866
12603.08
12612.24
515.15488
715.47947
709.13728
514.64324
707.14515
710.93186
478.776
4075.1197
3991.081
2222.5869
4679.6613
4763.0028
4064.3962
4053.0517
2239.4084
4762.8297
4745.2462
2071.1955
6294.5408
6276.5887
10411.071
10484.602
15512.069
15916.585
6242.8614
6182.4995
10349.019
15595.494
10297.295
6203.8619
6170.9568
10258.901
10360.964
15368.687
15799.93
6280.8602
6221.4856
10409.645
10355.523
15637.207
15689.82
23175.779
18888.723
23261.44
19003.246
18805.822
18865.953
22984.531
23112.179
39911.683
27093.205
27177.782
39982.072
27056.776
26869.156
39402.248
39710.706
54586.959
64150.648
64295.301
54932.727
54922.885
64152.615
63927.799
54686.501
26694.304
26893.352
39272.147
39828.783
40288.185
27177.228
27068.576
39852.615
54017.845
63593.864
64170.667
54564.833
64167.769
64664.319
54929.332
54935.408
18546.495
18713.738
22967.349
22782.234
23246.12
18940.578
19030.802
23186.735
22919.631
18672.865
23109.122
18850.389
19052.521
19138.185
23359.796
23290.913
23188.957
18864.128
18986.183
23278.579
39547.847
26851.777
27050.943
39891.452
27183.95
27303.714
39702.674
40254.17
64635.142
55272.522
55099.08
64207.279
54268.684
63925.883
64252.826
54874.514
4102.6467
4044.1126
2238.4066
4751.2627
4793.4037
4088.0269
4076.3328
2247.2212
4782.3602
4767.058
6290.2815
6256.3883
10477.618
10361.365
15894.419
6323.3411
6278.0473
10501.067
10433.895
15790.415
15741.093
6320.62
6323.9164
10529.73
10503.348
16005.265
15643.361
6280.1966
6231.94
10413.61
10340.232
15654.856
15647.482
19041.446
19112.259
23241.869
23318.1
19006.933
19101.886
23338.696
23269.738
18920.716
18960.584
23050.597
23202.809
27145.326
27212.823
40282.491
40441.714
27098.89
26874.928
40245.864
39686.075
54963.548
64221.188
64571.338
55311.014
63929.666
64473.603
55133.208
54874.948
18922.788
19014.593
23262.608
23215.533
18769.296
18809.116
22898.743
23057.297
18819.289
18965.471
23174.01
23021.135
19145.198
19216.148
23339.77
23419.361
26882.65
27046.679
39678.67
40174.962
27304.134
27181.117
40559.916
40134.83
54587.493
63782.569
64278.864
54802.166
64302.913
64644.837
54983.65
54861.224
27124.403
27159.678
39973.469
40122.609
26982.91
26751.279
39936.047
39417.731
54582.055
64106.066
64417.27
54793.163
63722.516
64267.862
54524.388
54294.851
431.42185
352.03922
41462.271
40577.557
41658.784
42388.875
41731.188
40577.585
41951.724
42588.756
42008.962
41577.252
41251.355
42073.745
42803.518
41971.894
41805.383
42634.58
42046.171
41536.511
41439.004
42089.895
41531.681
41128.539
40364.794
41079.316
13976.655
14666.839
13875.713
14754.02
14142.169
13204.502
13284.567
14190.78
14033.279
14754.082
13946.598
14801.671
14193.698
13257.695
14225.504
13343.361
12738.392
13420.184
12675.941
13455.607
12198.961
12890.253
12935.887
12335.595
13494.179
12787.093
13458.789
12719.075
12278.246
12933.819
12953.858
12322.105
14176.132
13442.204
13503.104
14220.78
14315.16
14183.895
13450.745
13608.854
13724.692
12834.446
12871.434
13725.043
13810.056
13699.982
12824.968
12971.685
14499.429
13733.051
13722.869
14453.515
14251.271
13497.993
13571.235
14289.465
13081.334
14027.869
13100.715
13954.119
12945.294
13766.924
12877.831
13783.915
12367.79
13059.503
12344.8
13047.276
11898.516
12566.248
12567.611
11992.078
13126.314
12448.376
13023.388
12326.043
11896.792
12531.836
12612.244
11984.618
13338.028
12595.599
12570.941
13265.101
13095.341
12386.696
13113.227
12440.98
12110.012
12178.897
12819.272
12773.312
12631.044
12621.416
12015.062
12061.463
15196.87
15745.436
15009.376
15874.016
15848.751
15137.933
15294.261
15962.242
15410.417
14390.161
15571.186
14556.335
14506.452
14640.615
15549.774
15633.688
15559.458
16061.232
15408.175
16151.405
16100.414
15476.244
15665.24
16222.082
16002.348
15212.094
16107.765
15388.667
15312.418
15500.493
16074.478
16198.206
15431.1
15647.716
15119.129
14844.132
15446.758
14817.786
14955.228
15519.17
15475.365
15386.039
14633.685
14788.803
14680.586
15400.224
15620.968
14957.716
15709.685
15086.569
15115.949
15664.546
15395.04
14801.606
15009.495
15552.587
15695.168
14927.75
14973.039
15663.565
15387.4
14666.01
14860.31
15530.518
15475.331
14764.059
14821.59
15462.572
15196.306
14530.877
14687.947
15321.601
15176.229
14191.356
14229.856
15194.918
14944.59
13974.696
14094.907
15032.518
15140.918
14441.21
14600.325
15249.058
15390.028
15170.712
14501.118
14750.547
14823.596
13878.267
14005.897
14949.546
15057.279
14873.461
13926.372
14139.093
20384.465
20398.129
18511.48
18738.162
18220.142
18551.259
20006.089
20064.386
5219.0529
5163.5036
5211.2756
5316.9342
19124.17
19480.495
20177.084
20190.21
18357.277
18567.12
18158.877
18488.797
19997.802
20058.79
5164.7709
5221.7434
5201.8742
5123.0312
19116.729
19270.687
18775.735
18882.564
17290.996
17093.46
17598.494
16211.533
16358.469
17684.559
17236.594
18557.119
16865.254
18801.138
17347.368
15965.182
17621.345
16314.5
18918.861
19045.819
17183.2
17414.909
17801.025
16244.321
16441.239
17671.171
18612.202
18852.519
17326.058
16951.438
17428.148
17699.733
16069.704
16426.597
4600.2403
4627.8311
4677.7939
4666.5729
4696.9183
4655.0069
4674.4676
4758.0625
2434.3032
18650.16
19016.46
20628.028
20705.146
5224.9998
5079.0342
5293.7295
5113.2045
19786.314
21180.228
21192.532
19247.281
19481.839
18936.182
19169.274
20778.553
20757.872
5312.7379
5379.1551
5441.5108
5332.876
20248.52
19824.487
19660.433
17866.723
18113.196
19796.919
19360.698
17640.741
17901.216
19477.104
18359.459
16873.046
17091.049
18505.431
18291.547
18148.838
16729.907
16970.472
4746.3443
4753.159
4845.1409
4808.636
4725.0364
4620.6342
4632.7084
4765.8351
16740.65
15723.919
15890.395
16844.263
16818.456
16557.429
15602.435
15928.68
15461.947
16271.132
15308.826
16360.224
16384.729
15546.897
16140.942
15236.514
15858.544
16735.234
15761.7
16777.683
16343.316
15408.886
15473.93
16346.999
15799.829
16462.208
15494.583
16714.858
16047.002
15132.738
16269.207
15414.124
15336.516
15980.49
15294.623
15960.249
15110.806
15908.873
15875.469
15144.931
15878.511
15262.624
15674.157
15009.857
14828.106
15595.404
15778.393
15064.246
15840.423
15131.051
15270.521
15922.082
14893.807
15704.742
15781.935
15033.615
15757.53
15997.315
15095.204
15391.051
14892.715
15889.536
15181.65
15657.679
17381.058
17249.261
16252.033
16460.61
16940.28
15878.306
16072.6
16825.513
16434.01
16548.52
15920.784
15733.448
16334.72
15482.499
16422.813
15638.907
15523.249
16332.979
16449.292
15717.92
1967.8389
2110.7681
2142.5504
1999.2899
3648.4432
3674.3347
3778.2519
3778.8382
3619.326
3643.2072
3726.9996
3726.9171
4118.7062
4133.3551
4198.5811
4197.1775
4181.9238
4241.7189
4264.9565
4168.7047
3824.691
3774.6307
3788.7459
3876.4932
3661.2721
3692.4582
3810.9689
3803.1968
4270.0875
4204.8443
4225.531
4321.6454
4305.6861
4226.0876
4205.1151
4316.5534
653.62443
527.36267
1555.3105
1516.295
1700.3691
1747.6065
1140.1271
1115.1294
1283.7863
1327.4451
15810.815
16294.82
15602.2
16457.847
16195.762
15369.701
15576.258
16348.208
16647.523
15984.666
16563.216
15832.704
16422.988
15569.74
16499.127
15721.785
16739.312
15741.998
15926.613
16861.437
17186.606
16998.651
16019.09
16280.831
15514.644
16304.95
15356.889
16406.211
16754.937
15892.921
16579.501
15643.771
16352.177
17061.064
16089.381
17283.949
16662.766
15727.082
15963.568
16852.311
16630.02
17484.273
16435.906
17600.556
16999.501
16007.453
17098.23
16183.346
15902.76
15204.885
15344.604
15985.421
16184.328
15497.693
16357.311
15731.014
14984.348
15120.053
15792.408
15868.265
16243.687
16080.016
15278.642
15510.509
20564.429
20669.488
18716.77
19060.257
19387.26
19602.284
21337.667
21302.228
5389.6675
5319.4006
5385.5804
5476.3307
20388.687
19739.398
18827.104
18986.814
17123.205
17391.967
17790.291
16219.259
16448.482
17620.881
19050.548
19218.998
17679.295
17368.905
17870.817
18073.275
16480.356
16775.868
17786.022
19115.918
17427.842
19384.804
17920.623
16534.857
16853.49
18190.592
18217.772
19793.719
17973.66
19891.388
18460.362
16971.223
18589.36
17199.537
20231.986
20264.904
18402.001
18655.934
18617.079
18896.776
20411.601
20429.282
5297.5161
5126.5344
5194.9796
5399.106
19324.713
19482.111
4738.993
4595.4604
4651.4018
4822.3904
4823.0363
4751.6049
4814.7764
4895.2256
20559.937
20544.946
18620.726
18817.118
17954.273
18155.781
19778.557
19743.503
5207.0185
5174.6416
5155.2073
5224.8633
18879.622
19623.94
20182.696
20275.895
18337.147
18669.956
19007.875
19286.174
20907.706
20922.135
5273.0906
5223.1344
5349.2885
5430.1358
19967.798
19353.632
18733.489
18993.208
17407.756
17055.147
17538.896
17801.185
16158.113
16471.97
17963.641
19420.106
17652.875
19595.059
16699.841
18149.353
18349.597
16981.458
4742.9932
4699.8433
4799.5365
4870.9222
4674.5635
4698.8606
4718.3963
4727.7007
17432.127
19024.752
17231.547
19113.578
16237.612
17708.219
17798.22
16393.557
16848.194
18327.341
16630.422
18410.323
15703.159
17079.52
17176.521
15885.52
15776.087
16716.42
15662.559
16768.376
16185.489
15190.974
15277.28
16208.262
16225.907
15315.294
16154.404
15170.521
15663.782
14741.246
15711.872
14866.885
15019.008
15693.317
14957.382
15695.984
14672.977
15500.033
15487.083
14727.366
15256.07
14641.862
15215.6
14536.621
14291.562
15051.831
15079.606
14393.31
15955.191
16660.133
15691.098
16884.691
16244.451
16434.101
15314.634
15552.959
16420.93
17209.003
16179.914
17385.208
15761.42
16739.448
16888.667
15978.551
15383.247
15853.502
15169.326
16023.226
14951.162
15744.625
15902.804
15162.274
16436.245
15770.278
16301.841
15578.064
15327.781
16158.527
16275.604
15511.139
3685.2109
3613.4631
3712.0453
3820.4535
3738.3548
3700.6312
3812.363
3869.795
4224.6628
4306.8966
4382.6971
4285.7808
4226.6421
4113.8376
4177.8292
4320.6232
3766.8738
3676.1825
3783.1416
3884.2379
4267.0886
4196.0724
4292.7651
4375.8391
4289.0972
4260.9405
4223.1408
4289.0243
3855.4969
3761.7039
3737.5506
3847.3021
14315.714
13566.339
13621.038
14353.03
14591.423
14512.572
13730.665
13846.267
12982.002
13844.892
12947.255
13840.046
14036.962
13174.473
13970.79
13063.889
13866.573
14513.182
13755.244
14612.536
14024.819
13109.055
13195.824
14083.613
13950.073
14687.073
13887.808
14707.786
14138.505
13207.156
14147.236
13272.176
13172.629
12456.324
12481.106
13160.72
12034.689
12694.234
12686.995
12138.729
13260.47
13325.105
12542.24
12632.082
12134.898
12801.321
12188.026
12761.101
12662.921
13327.417
12597.036
13369.059
12075.506
12802.485
12847.706
12220.98
13427.815
12726.809
13411.55
12674.38
12247.717
12894.185
12903.876
12300.007
12442.879
13124.216
12412.384
13125.107
12632.571
11929.644
12044.242
12643.052
13242.537
12549.987
13231.161
12505.011
12736.799
12109.002
12730.607
12131.521
13875.918
13158.098
13138.042
13820.722
13545.678
13550.638
12863.87
12908.332
12531.221
13436.839
12559.49
13355.223
13112.828
12344.24
13114.458
12289.424
13583.866
14226.616
13499.805
14303.667
13782.397
12894.55
12949.115
13806.547
13755.609
14486.121
13695.455
14502.229
13944.647
13026.287
13952.159
13088.458
12783.791
12080.136
12048.826
12706.803
12492.85
11827.962
12506.603
11877.197
14699.521
15201.509
14501.476
15361.496
14876.926
13936.249
14097.432
15043.546
14952.337
15554.114
14845.564
15632.078
15247.213
14235.869
15276.434
14325.839
15500.924
14889.275
15092.08
15657.593
15879.775
15239.279
15402.12
15991.173
15454.727
14698.8
14909.693
15614.087
15814.182
15037.964
15194.597
15908.65
15188.345
14549.53
14600.794
15175.225
14813.575
14782.821
14199.636
14293.966
15086.982
14327.22
14392.029
15080.806
14741.443
14714.989
14017.128
14114.083
14806.626
14109.695
14175.851
14815.21
14501.922
14473.388
13823.135
13900.377
13574.328
13605.179
14475.195
14492.57
14174.71
14163.898
13290.127
13353.733
15067.311
15589.608
14856.192
15762.662
15219.767
14237.6
14412.16
15402.991
15865.127
15192.02
15793.638
15070.776
15468.349
14434.66
15521.698
14534.772
15542.757
14917.706
15055.552
15619.642
15832.09
15219.364
15434.614
15997.473
14897.957
15500.005
14747.173
15587.88
15259.568
15797.547
15050.153
15949.373
15504.005
15930.914
15296.806
16087.268
15869.577
15085.226
15305.005
16037.592
15613.093
16127.925
15474.352
16208.034
16056.817
15270.425
16129.287
15416.47
15269.123
14570.21
14729.118
15372.14
15565.174
14872.124
15707.969
15052.704
14020.05
14143.08
14969.835
15095.13
15378.894
15270.092
14270.514
14429.181
772.56215
1019.089
1014.8253
771.53011
994.8095
1008.7859
763.21098
756.56424
609.72945
608.83033
2448.1126
2221.717
2380.3501
2135.7575
1866.2605
1596.9107
1563.9193
1813.0269
1730.6596
1485.0499
1490.0325
1738.1423
2043.5159
2061.4826
2296.1152
2280.4987
3423.9324
3333.91
3427.1298
3304.828
2971.0913
2807.4327
2938.3377
2746.0682
2598.5559
2632.8824
2821.4035
2792.4769
3138.2439
3179.874
3322.7668
3300.0469
3278.2753
3160.1925
3125.5238
3268.0662
2788.2985
2602.3654
2571.9391
2770.9966
2620.6032
2619.2375
2815.4609
2809.7282
3310.2264
3177.4902
3152.2168
3301.4717
2258.4447
2029.573
2013.2083
2252.0087
1710.126
1485.4453
1476.5428
1706.7541
1507.2536
1471.7439
1717.7758
1742.8226
2282.2379
2041.0126
2056.3926
2297.6978
1012.3341
1036.5742
780.2773
767.4125
1001.951
1004.2471
763.15215
761.81284
605.04069
626.18784
1470.1768
1475.397
1723.7212
1689.7165
1484.477
1485.1527
1747.6436
1738.1589
2048.3452
2077.1227
2318.2741
2297.1756
2000.5372
2238.8685
2291.7084
2041.9383
2632.8031
2655.3661
2836.3542
2835.9322
3201.8418
3193.0568
3333.651
3364.3392
3248.013
3119.2503
3166.7727
3324.1556
2762.8606
2569.2798
2621.4121
2816.5186
2757.5358
2750.1373
2923.1305
2932.5051
2684.8
2628.1209
2805.6172
2892.1342
3300.5546
3164.4511
3260.6327
3401.5377
3275.2051
3283.555
3400.5342
3398.9173
1619.0139
1565.2572
1823.5642
1868.3888
1493.7705
1486.0129
1725.8352
1752.828
2048.3927
2291.0406
2338.6683
2080.1213
2195.6406
2165.4646
2401.6022
2426.8489
447.06668
451.70614
27456.615
27764.271
27763.965
27985.789
28054.713
27909.577
27725.828
27684.865
18093.48
17013.723
16823.554
17932.91
28998.353
29438.841
35872.978
35532.169
29198.572
28677.256
34967.255
35684.356
25314.554
25968.607
25578.912
26172.589
27823.329
27990.209
27556.978
27805.471
17180.555
16163.517
17068.613
18218.072
29032.836
28947.173
35204.129
35548.889
31424.06
25618.659
26779.385
32968.192
26049.653
26639.02
27206.287
26626.722
27233.952
27815.247
27819.16
28408.78
29067.557
28357.72
28976.947
28475.505
30249.873
29627.164
29705.504
30328.523
14739.693
14977.69
15985.482
15768.243
15209.506
14468.696
15307.964
16186.136
29131.81
28329.158
28967.107
28513.171
30268.156
29631.279
29786.684
30416.935
29133.214
28685.871
29397.75
28462.676
30837.762
30136.06
29842.233
30527.297
31369.122
32035.312
32192.113
31517.214
30954.977
31196.939
31892.194
31642.985
33577.355
32732.563
33403.222
32898.353
32365.1
33062.29
32614.673
33310.047
31318.868
30503.616
31191.18
30646.23
31912.148
32610.798
32735.828
32036.125
32078.619
31304.114
32017.741
31360.199
32761.865
33478.057
32831.521
33562.848
34172.947
33328.876
34035.752
33461.955
35455.314
34766.311
34910.195
35601.786
34312.66
35043.177
34209.362
34925.042
36346.124
35660.143
35794.43
36491.577
27742.481
28106.445
28081.198
28339.363
27845.594
27794.267
27490.732
27545.063
18346.459
17256.432
16853.276
17934.313
28540.128
28757.148
35126.381
35059.289
29592.238
28976.058
35269.306
36105.11
26932.612
27285.232
27247.36
27519.564
27849.51
27994.525
27515.081
27744.131
17842.142
16805.259
16845.455
17944.686
29080.601
28993.608
35346.707
35640.038
28574.698
27997.223
34161.679
34962.563
28675.241
28873.542
29345.227
29509.023
30188.645
30699.343
30841.12
30041.425
28434.81
28320.001
28945.541
29109.31
29816.632
29618.316
30496.795
30273.243
28669.828
27813.616
28470.157
28042.806
29159.445
29820.791
29979.128
29339.066
29241.687
28467.114
29168.243
28564.222
29897.587
30592.919
29957.847
30644.946
15821.512
14847.917
14785.88
15803.429
14827.392
15200.018
16218.731
15826.15
31742.997
30928.657
31596.49
31077.692
32301.809
32986.205
33152.008
32459.8
31240.106
31955.147
31548.62
32256.797
32996.01
33709.581
32705.991
33431.207
29654.229
28421.07
29029.974
29031.386
29669.293
30335.197
30291.346
30995.955
31664.322
30896.163