/*--------------------------------*- C++ -*----------------------------------*\
  =========                 |
  \\      /  F ield         | OpenFOAM: The Open Source CFD Toolbox
   \\    /   O peration     | Website:  https://openfoam.org
    \\  /    A nd           | Version:  7
     \\/     M anipulation  |
\*---------------------------------------------------------------------------*/
FoamFile
{
    version     2.0;
    format      ascii;
    class       volScalarField;
    location    "8000";
    object      pMean;
}
// * * * * * * * * * * * * * * * * * * * * * * * * * * * * * * * * * * * * * //

dimensions      [0 2 -2 0 0 0 0];

internalField   nonuniform List<scalar> 
34251
(
-2.0825635e+92
-2.0829384e+92
-2.0736239e+92
-2.0571976e+92
-2.0786682e+92
-2.0639051e+92
-1.9201709e+92
-2.0332625e+92
-2.0410122e+92
-2.0662808e+92
-2.072266e+92
-2.0705419e+92
-2.0777129e+92
-2.0831398e+92
-2.0864285e+92
-2.0863112e+92
-2.081986e+92
-2.0932544e+92
-2.0905881e+92
-2.0933335e+92
-2.0908556e+92
-1.9811502e+92
-1.9330728e+92
-1.9272003e+92
-1.9740265e+92
-1.9219935e+92
-1.9495977e+92
-1.9186278e+92
-1.951973e+92
-1.855976e+92
-1.8508769e+92
-1.7950238e+92
-1.7906904e+92
-2.0680042e+92
-2.071405e+92
-2.0794041e+92
-2.075895e+92
-2.0559643e+92
-2.0509393e+92
-2.0725573e+92
-2.0639694e+92
-2.0608184e+92
-2.0702674e+92
-2.0682494e+92
-2.0701106e+92
-2.0820432e+92
-2.0793251e+92
-2.0671414e+92
-2.0707452e+92
-2.0796922e+92
-2.0767395e+92
-2.0777645e+92
-2.0754161e+92
-2.089401e+92
-2.0865508e+92
-2.0880366e+92
-2.089244e+92
-2.090635e+92
-2.092483e+92
-2.0931545e+92
-2.0915769e+92
-2.0927813e+92
-2.1005117e+92
-2.0983626e+92
-2.1003052e+92
-2.0965231e+92
-2.0946347e+92
-2.0982392e+92
-2.0952253e+92
-2.0346228e+92
-2.0318261e+92
-1.9989432e+92
-1.9965067e+92
-1.9305641e+92
-1.934185e+92
-1.9621629e+92
-1.9650525e+92
-1.8667244e+92
-1.9589549e+92
-1.9286391e+92
-1.9244257e+92
-1.955245e+92
-1.8616247e+92
-2.0281033e+92
-2.024416e+92
-1.9888182e+92
-1.9922604e+92
-1.8040932e+92
-1.7996346e+92
-1.917714e+92
-1.9187525e+92
-1.9333002e+92
-1.8828791e+92
-1.9321957e+92
-1.9482976e+92
-1.9495033e+92
-1.9654604e+92
-1.914802e+92
-1.9160741e+92
-1.9294045e+92
-1.9308117e+92
-1.8811951e+92
-1.9506858e+92
-1.9516509e+92
-1.9680304e+92
-1.9669185e+92
-1.8511744e+92
-1.8502061e+92
-1.8480238e+92
-1.8786496e+92
-1.9133471e+92
-1.9279056e+92
-1.9919309e+92
-1.7441659e+92
-1.8020925e+92
-1.8305093e+92
-1.8289391e+92
-1.7998584e+92
-1.7401181e+92
-1.7960467e+92
-1.8271686e+92
-1.7073155e+92
-1.7047941e+92
-2.0882649e+92
-2.0911222e+92
-2.0900997e+92
-2.0971706e+92
-2.0952373e+92
-2.0928563e+92
-2.0302094e+92
-2.0238731e+92
-2.0662765e+92
-2.0513864e+92
-2.047995e+92
-2.0628484e+92
-2.0693281e+92
-2.0709423e+92
-2.0804158e+92
-2.079119e+92
-2.0731349e+92
-2.0740386e+92
-2.0841118e+92
-2.0825753e+92
-2.0796322e+92
-2.0850374e+92
-2.0860741e+92
-2.0808514e+92
-2.0770309e+92
-2.0759363e+92
-2.0825474e+92
-2.0535452e+92
-2.0574802e+92
-2.0727787e+92
-2.0693362e+92
-2.0798869e+92
-2.0809941e+92
-2.0913082e+92
-2.0896242e+92
-2.0878263e+92
-2.0783469e+92
-2.0766877e+92
-2.0866236e+92
-2.0879474e+92
-2.0866473e+92
-2.0917918e+92
-2.083548e+92
-2.0845244e+92
-2.0898559e+92
-2.0885169e+92
-2.0941207e+92
-2.0936597e+92
-2.094971e+92
-2.0949126e+92
-2.0969695e+92
-2.096727e+92
-2.0981507e+92
-2.0983476e+92
-2.0975413e+92
-2.0961766e+92
-2.0949559e+92
-2.0957224e+92
-2.1028625e+92
-2.1016429e+92
-2.1046263e+92
-2.1027191e+92
-2.1008448e+92
-2.1004329e+92
-2.1018831e+92
-2.1017736e+92
-2.099246e+92
-2.0978361e+92
-2.1006909e+92
-2.0987089e+92
-1.6239575e+92
-2.050343e+92
-2.0700023e+92
-2.0461751e+92
-2.0481075e+92
-2.0654451e+92
-2.067967e+92
-2.0244026e+92
-2.0043397e+92
-2.0009428e+92
-2.0025232e+92
-2.0225942e+92
-2.0204703e+92
-1.9262237e+92
-1.9276915e+92
-1.9426118e+92
-1.9409e+92
-1.8924693e+92
-1.9305354e+92
-1.9295277e+92
-1.9442146e+92
-1.8942601e+92
-1.9601415e+92
-1.961678e+92
-1.978211e+92
-1.9764676e+92
-1.9632401e+92
-1.9798452e+92
-1.860533e+92
-1.8617876e+92
-1.9744445e+92
-1.9571047e+92
-1.9583546e+92
-1.9731e+92
-1.924838e+92
-1.9382071e+92
-1.9394546e+92
-1.9235567e+92
-1.8896161e+92
-1.9200863e+92
-1.9217443e+92
-1.9364563e+92
-1.8860404e+92
-1.9349087e+92
-1.9538785e+92
-1.9700544e+92
-1.9552686e+92
-1.9715832e+92
-1.8573142e+92
-1.8549833e+92
-2.0429897e+92
-2.0438618e+92
-2.0630005e+92
-2.063725e+92
-2.0613357e+92
-2.039414e+92
-2.0415112e+92
-2.0589426e+92
-2.0158856e+92
-1.9955272e+92
-1.9941305e+92
-2.0139538e+92
-2.0185723e+92
-1.9970514e+92
-1.998683e+92
-2.0174348e+92
-1.7506647e+92
-1.8111658e+92
-1.8408282e+92
-1.8391506e+92
-1.8093956e+92
-1.7473261e+92
-1.806616e+92
-1.8365546e+92
-1.8342611e+92
-1.8055572e+92
-1.712207e+92
-1.7103376e+92
-1.9194932e+92
-1.9188663e+92
-1.8967885e+92
-1.9130426e+92
-1.9135516e+92
-1.9207839e+92
-1.9200809e+92
-1.8976996e+92
-1.9142593e+92
-1.9149258e+92
-1.9314973e+92
-1.9382587e+92
-1.9308585e+92
-1.9375219e+92
-1.8822325e+92
-1.8827429e+92
-1.9300596e+92
-1.9367566e+92
-1.9295725e+92
-1.9361624e+92
-1.9464824e+92
-1.9459335e+92
-1.9533074e+92
-1.9526065e+92
-1.9477933e+92
-1.9545406e+92
-1.9471206e+92
-1.9538855e+92
-1.9661955e+92
-1.9739802e+92
-1.9656343e+92
-1.9733618e+92
-1.9170036e+92
-1.9165109e+92
-1.8935819e+92
-1.9107351e+92
-1.9110888e+92
-1.9181583e+92
-1.9174956e+92
-1.8949326e+92
-1.9116823e+92
-1.9122761e+92
-1.9276444e+92
-1.9342524e+92
-1.9271917e+92
-1.933705e+92
-1.9288318e+92
-1.9354738e+92
-1.9283147e+92
-1.9348328e+92
-1.8803338e+92
-1.8793745e+92
-1.9490127e+92
-1.9559489e+92
-1.9484834e+92
-1.9552879e+92
-1.9504778e+92
-1.9574111e+92
-1.9497657e+92
-1.956672e+92
-1.9690942e+92
-1.977275e+92
-1.9684602e+92
-1.9765463e+92
-1.9675951e+92
-1.9756463e+92
-1.9669815e+92
-1.9748589e+92
-1.8523465e+92
-1.8538473e+92
-1.8663456e+92
-1.8653032e+92
-1.8497332e+92
-1.8518608e+92
-1.8643398e+92
-1.8628404e+92
-1.8472444e+92
-1.8478331e+92
-1.8614397e+92
-1.8606492e+92
-1.8924224e+92
-1.8773361e+92
-1.8913675e+92
-1.8766103e+92
-1.8461923e+92
-1.9146779e+92
-1.9088098e+92
-1.9161099e+92
-1.9153764e+92
-1.9095748e+92
-1.9102611e+92
-1.92653e+92
-1.9331395e+92
-1.9259734e+92
-1.9896208e+92
-1.9912723e+92
-2.0002323e+92
-1.9905593e+92
-1.777575e+92
-1.7796878e+92
-1.7494772e+92
-1.7444674e+92
-1.8068773e+92
-1.8085852e+92
-1.8197489e+92
-1.8202726e+92
-1.8378429e+92
-1.8265985e+92
-1.8262069e+92
-1.8372595e+92
-1.8359606e+92
-1.8255794e+92
-1.8236025e+92
-1.8339581e+92
-1.804408e+92
-1.8054745e+92
-1.8170706e+92
-1.8187054e+92
-1.7411844e+92
-1.7728406e+92
-1.7443367e+92
-1.8034174e+92
-1.8040435e+92
-1.8176907e+92
-1.8180531e+92
-1.8232515e+92
-1.8228826e+92
-1.8335412e+92
-1.8332269e+92
-1.8215582e+92
-1.8310768e+92
-1.6628336e+92
-1.6605151e+92
-2.0961976e+92
-2.0958964e+92
-2.0996067e+92
-2.0993369e+92
-2.0983838e+92
-2.0970902e+92
-2.1054302e+92
-2.1041231e+92
-2.1032964e+92
-2.1026931e+92
-2.1016635e+92
-2.1003063e+92
-1.9944165e+92
-1.9891209e+92
-2.0569026e+92
-2.078478e+92
-2.0793085e+92
-2.0294159e+92
-2.0261948e+92
-2.0536355e+92
-2.0765629e+92
-2.0746029e+92
-2.0874887e+92
-2.0857512e+92
-2.0909071e+92
-2.0893422e+92
-2.0859277e+92
-2.0853012e+92
-2.0881795e+92
-2.0879701e+92
-2.0907856e+92
-2.0901835e+92
-2.093648e+92
-2.0925161e+92
-2.0921499e+92
-2.0915278e+92
-2.0943595e+92
-2.0941405e+92
-2.0897182e+92
-2.0868077e+92
-2.0874326e+92
-2.0890402e+92
-2.0840426e+92
-2.0834357e+92
-2.0864403e+92
-2.0858968e+92
-2.0822145e+92
-2.081601e+92
-2.0846621e+92
-2.0889759e+92
-2.0883455e+92
-2.0912575e+92
-2.0916041e+92
-2.0325925e+92
-2.0354827e+92
-2.0633179e+92
-2.0865089e+92
-2.0851791e+92
-2.0594864e+92
-2.0813881e+92
-2.0835169e+92
-2.0981445e+92
-2.0965083e+92
-2.0947125e+92
-2.0929611e+92
-2.0940059e+92
-2.094651e+92
-2.0959899e+92
-2.0950881e+92
-2.0948133e+92
-2.0924422e+92
-2.0931836e+92
-2.0979616e+92
-2.0972702e+92
-2.1006684e+92
-2.0994831e+92
-2.0916578e+92
-2.0913226e+92
-2.0888262e+92
-2.0894657e+92
-2.0934883e+92
-2.0929106e+92
-2.0906332e+92
-2.0912838e+92
-2.0961751e+92
-2.0954898e+92
-2.0986493e+92
-2.0982153e+92
-2.0942504e+92
-2.0934718e+92
-2.0968111e+92
-2.095448e+92
-1.6123866e+92
-2.0942187e+92
-2.094899e+92
-2.0987772e+92
-2.0991567e+92
-2.0934666e+92
-2.0939632e+92
-2.0985858e+92
-2.0976099e+92
-2.097852e+92
-2.0981297e+92
-2.1022964e+92
-2.1028557e+92
-2.0969443e+92
-2.0978872e+92
-2.1024331e+92
-2.101271e+92
-2.0960915e+92
-2.0967821e+92
-2.1009143e+92
-2.1009904e+92
-2.0950316e+92
-2.0957351e+92
-2.1001526e+92
-2.0989081e+92
-2.1025852e+92
-2.1029518e+92
-2.1080372e+92
-2.108231e+92
-2.101466e+92
-2.1021784e+92
-2.1074431e+92
-2.1061727e+92
-2.1008235e+92
-2.1011437e+92
-2.1059063e+92
-2.1062916e+92
-2.0999814e+92
-2.1005175e+92
-2.1055979e+92
-2.1045881e+92
-2.0993149e+92
-2.0995947e+92
-2.1041474e+92
-2.1043687e+92
-2.0981288e+92
-2.0988277e+92
-2.1035215e+92
-2.1022825e+92
-1.6278511e+92
-2.055312e+92
-2.0671165e+92
-2.0545393e+92
-2.0659664e+92
-2.0813053e+92
-2.0887699e+92
-2.0803554e+92
-2.0873643e+92
-2.051703e+92
-2.050851e+92
-2.063529e+92
-2.062323e+92
-2.0534191e+92
-2.0527955e+92
-2.0649449e+92
-2.0645108e+92
-2.077873e+92
-2.0853304e+92
-2.0767587e+92
-2.0838076e+92
-2.0794098e+92
-2.0790413e+92
-2.0866263e+92
-2.0863276e+92
-2.0263681e+92
-2.0256823e+92
-2.0382334e+92
-2.0373007e+92
-2.0029321e+92
-2.0022824e+92
-2.0121504e+92
-2.0113382e+92
-1.9988912e+92
-1.9996459e+92
-2.008751e+92
-2.0077732e+92
-2.0012877e+92
-2.0006037e+92
-2.0103062e+92
-2.0096453e+92
-2.0245653e+92
-2.0240001e+92
-2.0362954e+92
-2.035746e+92
-2.0229105e+92
-2.0220337e+92
-2.034744e+92
-2.0336709e+92
-1.9282175e+92
-1.9276631e+92
-1.9047422e+92
-1.9217659e+92
-1.92219e+92
-1.9296762e+92
-1.9289633e+92
-1.9061029e+92
-1.9229463e+92
-1.9237464e+92
-1.9405917e+92
-1.9473408e+92
-1.9399342e+92
-1.9466123e+92
-1.9391793e+92
-1.9459131e+92
-1.9385824e+92
-1.945202e+92
-1.8912682e+92
-1.8905177e+92
-1.9317186e+92
-1.9089153e+92
-1.9263717e+92
-1.9257473e+92
-1.9311018e+92
-1.9305902e+92
-1.9080017e+92
-1.9251198e+92
-1.9245935e+92
-1.941972e+92
-1.9414311e+92
-1.9488077e+92
-1.9481751e+92
-1.8931232e+92
-1.8935315e+92
-1.9583723e+92
-1.9577439e+92
-1.9654239e+92
-1.9646534e+92
-1.9599027e+92
-1.966875e+92
-1.9591915e+92
-1.9661621e+92
-1.978838e+92
-1.9869482e+92
-1.9782106e+92
-1.9862686e+92
-1.9773164e+92
-1.9854329e+92
-1.9765783e+92
-1.9845718e+92
-1.9608007e+92
-1.9677719e+92
-1.9797691e+92
-1.988565e+92
-1.9878675e+92
-1.8661284e+92
-1.8600053e+92
-1.8608998e+92
-1.8746178e+92
-1.8732813e+92
-1.8633815e+92
-1.861969e+92
-1.8766446e+92
-1.875592e+92
-1.8441604e+92
-1.814223e+92
-1.9755243e+92
-1.9834515e+92
-1.9747757e+92
-1.9826584e+92
-1.9551684e+92
-1.9545848e+92
-1.9620329e+92
-1.9613481e+92
-1.9568132e+92
-1.9637045e+92
-1.9560301e+92
-1.9628758e+92
-1.9737734e+92
-1.9731843e+92
-1.9817583e+92
-1.9810987e+92
-1.9269957e+92
-1.9261605e+92
-1.9034514e+92
-1.9202659e+92
-1.9210338e+92
-1.9361931e+92
-1.9427917e+92
-1.9355832e+92
-1.9420883e+92
-1.9376599e+92
-1.9443615e+92
-1.9370332e+92
-1.943654e+92
-1.9253687e+92
-1.9247594e+92
-1.9023514e+92
-1.9194735e+92
-1.918952e+92
-1.8876478e+92
-1.8889525e+92
-1.9223027e+92
-1.9215919e+92
-1.8991735e+92
-1.9156975e+92
-1.9163127e+92
-1.9238544e+92
-1.9230615e+92
-1.9005901e+92
-1.9172145e+92
-1.9179622e+92
-1.9345641e+92
-1.941223e+92
-1.9339548e+92
-1.9405362e+92
-1.8864038e+92
-1.8850827e+92
-1.933124e+92
-1.9398466e+92
-1.9325374e+92
-1.9392003e+92
-1.9521556e+92
-1.9591343e+92
-1.9515395e+92
-1.9584083e+92
-1.970917e+92
-1.9790144e+92
-1.9702177e+92
-1.9782784e+92
-1.9536361e+92
-1.9604979e+92
-1.9529469e+92
-1.9598343e+92
-1.9723077e+92
-1.9803433e+92
-1.9717598e+92
-1.9797725e+92
-1.8583346e+92
-1.8584289e+92
-1.8717424e+92
-1.8711435e+92
-1.8563342e+92
-1.869489e+92
-1.8678295e+92
-1.8551146e+92
-2.048203e+92
-2.0475599e+92
-2.0600517e+92
-2.0590361e+92
-2.0496417e+92
-2.0611905e+92
-2.049073e+92
-2.0608356e+92
-2.074453e+92
-2.082103e+92
-2.0735812e+92
-2.0807593e+92
-2.0755907e+92
-2.0830208e+92
-2.0753766e+92
-2.0829926e+92
-2.0725412e+92
-2.0798238e+92
-2.0722103e+92
-2.0796258e+92
-2.0449445e+92
-2.0441009e+92
-2.0567677e+92
-2.0556353e+92
-2.0466112e+92
-2.0581058e+92
-2.0460666e+92
-2.0577502e+92
-2.0711895e+92
-2.0701566e+92
-2.0177676e+92
-2.0295457e+92
-2.0172811e+92
-2.0290627e+92
-1.9944796e+92
-1.9939144e+92
-2.0035098e+92
-2.0029771e+92
-1.9930407e+92
-1.9923998e+92
-2.0021675e+92
-2.001335e+92
-2.0162488e+92
-2.0154505e+92
-2.0281026e+92
-2.0270996e+92
-2.0207809e+92
-2.0325098e+92
-2.0202314e+92
-2.0320061e+92
-1.9959353e+92
-1.9953637e+92
-2.0051411e+92
-2.0043932e+92
-1.9976465e+92
-2.0066634e+92
-1.9968809e+92
-2.0060062e+92
-2.0193396e+92
-2.01873e+92
-2.0312024e+92
-2.0304246e+92
-1.7868668e+92
-1.7859266e+92
-1.7559169e+92
-1.7521661e+92
-1.8309032e+92
-1.8173138e+92
-1.8161356e+92
-1.8290406e+92
-1.847834e+92
-1.8380477e+92
-1.8359104e+92
-1.8469283e+92
-1.8456311e+92
-1.8353953e+92
-1.8333998e+92
-1.8440516e+92
-1.8279134e+92
-1.8160074e+92
-1.8138332e+92
-1.8265542e+92
-1.7819323e+92
-1.7835446e+92
-1.7500153e+92
-1.7515809e+92
-1.8123133e+92
-1.8126793e+92
-1.825541e+92
-1.8256326e+92
-1.8318168e+92
-1.8429626e+92
-1.8429452e+92
-1.8320433e+92
-1.828428e+92
-1.830596e+92
-1.8410949e+92
-1.8391581e+92
-1.8108772e+92
-1.8115825e+92
-1.8245646e+92
-1.8222786e+92
-1.6679814e+92
-1.6655689e+92
-1.9233923e+92
-1.9230213e+92
-1.9243703e+92
-1.9239884e+92
-1.9237069e+92
-1.9233265e+92
-1.9226898e+92
-1.9222441e+92
-1.9038631e+92
-1.8981909e+92
-1.8976718e+92
-1.9033602e+92
-1.9122718e+92
-1.9129347e+92
-1.924815e+92
-1.9245616e+92
-1.9258818e+92
-1.9255569e+92
-1.9251752e+92
-1.9246849e+92
-1.9242372e+92
-1.9236866e+92
-1.8988643e+92
-1.899492e+92
-1.9053548e+92
-1.9046307e+92
-1.9136885e+92
-1.9143794e+92
-1.9318238e+92
-1.931527e+92
-1.9334082e+92
-1.9337604e+92
-1.9395161e+92
-1.9392188e+92
-1.9420948e+92
-1.9417356e+92
-1.9326625e+92
-1.9310945e+92
-1.9330239e+92
-1.9307037e+92
-1.9413019e+92
-1.9387599e+92
-1.9384489e+92
-1.9409814e+92
-1.8829949e+92
-1.8835023e+92
-1.8890951e+92
-1.8884513e+92
-1.8839928e+92
-1.884643e+92
-1.8903616e+92
-1.8896081e+92
-1.9318843e+92
-1.9302785e+92
-1.9322773e+92
-1.9299484e+92
-1.9405927e+92
-1.9380575e+92
-1.9377289e+92
-1.9402461e+92
-1.931307e+92
-1.9296074e+92
-1.9315817e+92
-1.9293185e+92
-1.9398799e+92
-1.9373094e+92
-1.9370636e+92
-1.9396371e+92
-1.9444339e+92
-1.9473732e+92
-1.9470806e+92
-1.9442057e+92
-1.943655e+92
-1.9438682e+92
-1.9468194e+92
-1.9465716e+92
-1.9560414e+92
-1.9532859e+92
-1.9563127e+92
-1.9530576e+92
-1.9524067e+92
-1.9554083e+92
-1.9526444e+92
-1.9556905e+92
-1.9483382e+92
-1.9457617e+92
-1.9487199e+92
-1.9454633e+92
-1.9545933e+92
-1.9576345e+92
-1.9573177e+92
-1.9542963e+92
-1.9477402e+92
-1.9450356e+92
-1.9479739e+92
-1.9448447e+92
-1.9538896e+92
-1.9569477e+92
-1.953694e+92
-1.956721e+92
-1.9673948e+92
-1.9640888e+92
-1.9677249e+92
-1.9637817e+92
-1.9777996e+92
-1.9739499e+92
-1.9736758e+92
-1.9774913e+92
-1.9631703e+92
-1.9667466e+92
-1.9633823e+92
-1.9670146e+92
-1.9770479e+92
-1.9732156e+92
-1.9729673e+92
-1.9767118e+92
-1.92098e+92
-1.9207209e+92
-1.9218066e+92
-1.9215747e+92
-1.9213753e+92
-1.9209719e+92
-1.9204734e+92
-1.9199794e+92
-1.9013445e+92
-1.8956459e+92
-1.8952825e+92
-1.9010722e+92
-1.9100846e+92
-1.910532e+92
-1.9219805e+92
-1.921736e+92
-1.9230183e+92
-1.9227186e+92
-1.9224364e+92
-1.9221092e+92
-1.9215508e+92
-1.9212251e+92
-1.9026546e+92
-1.8969023e+92
-1.8961857e+92
-1.901929e+92
-1.911086e+92
-1.911525e+92
-1.9277532e+92
-1.9275566e+92
-1.9296792e+92
-1.9294383e+92
-1.935243e+92
-1.937925e+92
-1.937683e+92
-1.935458e+92
-1.9272791e+92
-1.926963e+92
-1.9289381e+92
-1.9292153e+92
-1.9348821e+92
-1.9346417e+92
-1.9374074e+92
-1.9371645e+92
-1.9305866e+92
-1.928958e+92
-1.9309143e+92
-1.9287192e+92
-1.9367016e+92
-1.9392364e+92
-1.9389023e+92
-1.9364345e+92
-1.9300381e+92
-1.9283949e+92
-1.930279e+92
-1.9281477e+92
-1.9360226e+92
-1.9385195e+92
-1.9358143e+92
-1.9382892e+92
-1.8876566e+92
-1.8821951e+92
-1.8813722e+92
-1.8868918e+92
-1.8806023e+92
-1.8809278e+92
-1.8864979e+92
-1.886111e+92
-1.9497314e+92
-1.9470966e+92
-1.9500857e+92
-1.9467862e+92
-1.9559651e+92
-1.9590799e+92
-1.9587213e+92
-1.9556686e+92
-1.9461782e+92
-1.9491491e+92
-1.9463889e+92
-1.9493866e+92
-1.9552347e+92
-1.9583397e+92
-1.9550134e+92
-1.9580699e+92
-1.9512324e+92
-1.9485968e+92
-1.9515977e+92
-1.9482723e+92
-1.9574723e+92
-1.9571615e+92
-1.9606199e+92
-1.9602682e+92
-1.9504833e+92
-1.9478098e+92
-1.9508106e+92
-1.9475237e+92
-1.9598228e+92
-1.956685e+92
-1.9563936e+92
-1.9594942e+92
-1.9704848e+92
-1.9671074e+92
-1.970838e+92
-1.9667822e+92
-1.9771177e+92
-1.9768146e+92
-1.9810886e+92
-1.9807581e+92
-1.9660245e+92
-1.9696903e+92
-1.9663231e+92
-1.9700572e+92
-1.9802797e+92
-1.9763146e+92
-1.9759848e+92
-1.9798809e+92
-1.9688921e+92
-1.965569e+92
-1.9692538e+92
-1.9652381e+92
-1.9794301e+92
-1.9755201e+92
-1.9752015e+92
-1.9790978e+92
-1.9645577e+92
-1.9681873e+92
-1.9648014e+92
-1.9684973e+92
-1.9786631e+92
-1.9747234e+92
-1.9744257e+92
-1.9782968e+92
-1.8550716e+92
-1.8558487e+92
-1.8600705e+92
-1.8608432e+92
-1.8567263e+92
-1.8573246e+92
-1.8624221e+92
-1.8616347e+92
-1.8699002e+92
-1.8704226e+92
-1.8755527e+92
-1.8748714e+92
-1.874284e+92
-1.869168e+92
-1.8685339e+92
-1.873729e+92
-1.8530171e+92
-1.8535352e+92
-1.8581037e+92
-1.8584597e+92
-1.8539799e+92
-1.8544816e+92
-1.8587633e+92
-1.8594679e+92
-1.8727751e+92
-1.8676259e+92
-1.8670824e+92
-1.8720138e+92
-1.8717461e+92
-1.8669169e+92
-1.8666688e+92
-1.8715719e+92
-1.8505267e+92
-1.8508013e+92
-1.8559824e+92
-1.8556967e+92
-1.8515755e+92
-1.8521925e+92
-1.8574612e+92
-1.8566625e+92
-1.8709831e+92
-1.8659498e+92
-1.8652874e+92
-1.8702305e+92
-1.8642454e+92
-1.8645862e+92
-1.8695152e+92
-1.869135e+92
-1.9007179e+92
-1.8947337e+92
-1.8939613e+92
-1.8999702e+92
-1.8855668e+92
-1.8799676e+92
-1.8791169e+92
-1.8847095e+92
-1.8991154e+92
-1.8932851e+92
-1.8925541e+92
-1.898519e+92
-1.8840439e+92
-1.8785367e+92
-1.8781056e+92
-1.8835539e+92
-1.849405e+92
-1.8497089e+92
-1.8548578e+92
-1.8543814e+92
-1.9185866e+92
-1.9181959e+92
-1.9194993e+92
-1.9191357e+92
-1.9082465e+92
-1.9197154e+92
-1.9194478e+92
-1.920756e+92
-1.9204685e+92
-1.9202227e+92
-1.9198504e+92
-1.9192567e+92
-1.9189127e+92
-1.9089596e+92
-1.9095662e+92
-1.9282962e+92
-1.9266256e+92
-1.9286425e+92
-1.9263623e+92
-1.9343216e+92
-1.9340291e+92
-1.9368895e+92
-1.9365698e+92
-1.9276812e+92
-1.9260583e+92
-1.9279799e+92
-1.925763e+92
-1.9905712e+92
-1.9866293e+92
-1.9909038e+92
-1.9863164e+92
-1.9922357e+92
-1.9882807e+92
-1.9925767e+92
-1.9879601e+92
-1.999208e+92
-1.9989199e+92
-2.0039231e+92
-2.0036246e+92
-1.9913753e+92
-1.9874668e+92
-1.9917836e+92
-1.9871145e+92
-1.7979676e+92
-1.7961546e+92
-1.7955149e+92
-1.7947012e+92
-1.8003454e+92
-1.7997512e+92
-1.7971193e+92
-1.8023546e+92
-1.7396753e+92
-1.7341079e+92
-1.8134461e+92
-1.8140297e+92
-1.8162823e+92
-1.8144233e+92
-1.8157871e+92
-1.8153373e+92
-1.81632e+92
-1.8162378e+92
-1.8166672e+92
-1.818068e+92
-1.8216139e+92
-1.8206333e+92
-1.8180407e+92
-1.8184563e+92
-1.8220543e+92
-1.8221132e+92
-1.848564e+92
-1.8439106e+92
-1.8432394e+92
-1.8479738e+92
-1.836025e+92
-1.8305789e+92
-1.8304095e+92
-1.8356911e+92
-1.8290927e+92
-1.8297828e+92
-1.8349967e+92
-1.834298e+92
-1.8471527e+92
-1.842305e+92
-1.8417974e+92
-1.8465512e+92
-1.8457924e+92
-1.8412512e+92
-1.8406415e+92
-1.8450423e+92
-1.8333878e+92
-1.8285753e+92
-1.82819e+92
-1.8330792e+92
-1.8265171e+92
-1.8275907e+92
-1.8324183e+92
-1.8317432e+92
-1.8446553e+92
-1.8399743e+92
-1.8394045e+92
-1.8443526e+92
-1.8119504e+92
-1.8121209e+92
-1.8148505e+92
-1.8126373e+92
-1.8129749e+92
-1.8124578e+92
-1.814612e+92
-1.8143738e+92
-1.814683e+92
-1.8168579e+92
-1.819815e+92
-1.8183349e+92
-1.8163571e+92
-1.8169292e+92
-1.8204031e+92
-1.8201443e+92
-1.7318132e+92
-1.7929393e+92
-1.7949262e+92
-1.7943539e+92
-1.7893399e+92
-1.8119913e+92
-1.8125463e+92
-1.8154141e+92
-1.8140799e+92
-1.8133491e+92
-1.8122207e+92
-1.8142751e+92
-1.8159056e+92
-1.8142125e+92
-1.8151703e+92
-1.8178428e+92
-1.8169212e+92
-1.8155498e+92
-1.8149238e+92
-1.81817e+92
-1.8184198e+92
-1.8257289e+92
-1.8255988e+92
-1.8309089e+92
-1.8312803e+92
-1.8244612e+92
-1.8250685e+92
-1.8297524e+92
-1.8303109e+92
-1.8385371e+92
-1.8437311e+92
-1.8429833e+92
-1.8381433e+92
-1.8374625e+92
-1.8422498e+92
-1.8419594e+92
-1.8370895e+92
-1.8285423e+92
-1.8236748e+92
-1.8236836e+92
-1.8286088e+92
-1.83574e+92
-1.8359371e+92
-1.8413741e+92
-1.8407306e+92
-1.8137682e+92
-1.8160493e+92
-1.6453786e+92
-1.6444651e+92
-2.099618e+92
-2.0998567e+92
-2.0994086e+92
-2.098792e+92
-2.103052e+92
-2.1034166e+92
-2.1029977e+92
-2.1022041e+92
-2.101805e+92
-2.1018095e+92
-2.1010251e+92
-2.1000756e+92
-2.1087694e+92
-2.1088255e+92
-2.1080962e+92
-2.1071831e+92
-2.1067184e+92
-2.1069843e+92
-2.1063065e+92
-2.1055826e+92
-2.1049989e+92
-2.105057e+92
-2.1042959e+92
-2.1033547e+92
-1.9385254e+92
-2.0130395e+92
-2.0149893e+92
-1.9349154e+92
-2.0076017e+92
-2.0051115e+92
-1.8671425e+92
-2.074628e+92
-2.0758202e+92
-2.0354579e+92
-2.07623e+92
-2.0749201e+92
-2.0706271e+92
-2.0728787e+92
-2.0330436e+92
-2.0731597e+92
-2.0712732e+92
-2.0004518e+92
-2.0900804e+92
-2.0898883e+92
-2.0976405e+92
-2.0970695e+92
-2.0927274e+92
-2.0919274e+92
-2.0874288e+92
-2.0888685e+92
-2.0959973e+92
-2.090974e+92
-2.0952304e+92
-2.0932728e+92
-2.0929071e+92
-2.1011014e+92
-2.1004891e+92
-2.0962296e+92
-2.0954214e+92
-2.090976e+92
-2.0923557e+92
-2.099486e+92
-2.0986197e+92
-2.0945185e+92
-2.0936382e+92
-2.0955578e+92
-2.0936004e+92
-2.0952762e+92
-2.0935154e+92
-2.092989e+92
-2.0923644e+92
-2.0943015e+92
-2.0947121e+92
-2.0925729e+92
-2.0935586e+92
-2.0932521e+92
-2.0923365e+92
-2.0924686e+92
-2.0921285e+92
-2.0910139e+92
-2.0914138e+92
-2.0867752e+92
-2.091394e+92
-2.0909936e+92
-2.0861635e+92
-2.0856782e+92
-2.090268e+92
-2.0896678e+92
-2.0851002e+92
-2.0951652e+92
-2.0948363e+92
-2.0940145e+92
-2.0939478e+92
-2.0935251e+92
-2.0942961e+92
-2.0940442e+92
-2.0932595e+92
-2.0879973e+92
-2.0926254e+92
-2.0926084e+92
-2.0876861e+92
-2.0918151e+92
-2.0925569e+92
-2.0877277e+92
-2.0869657e+92
-2.0952173e+92
-2.095048e+92
-2.0968478e+92
-2.0971962e+92
-2.0964186e+92
-2.0947037e+92
-2.094074e+92
-2.0960477e+92
-2.0936968e+92
-2.0917908e+92
-2.093384e+92
-2.0916331e+92
-2.0912608e+92
-2.0906379e+92
-2.0929507e+92
-2.0925537e+92
-2.0919437e+92
-2.090037e+92
-2.0898861e+92
-2.0916186e+92
-2.0905051e+92
-2.0916427e+92
-2.0913718e+92
-2.0904407e+92
-2.0904931e+92
-2.0908241e+92
-2.0894173e+92
-2.089917e+92
-2.0886436e+92
-2.0840061e+92
-2.0836721e+92
-2.0881229e+92
-2.0849271e+92
-2.0893932e+92
-2.0891517e+92
-2.0843323e+92
-2.0814038e+92
-2.0826846e+92
-2.0430898e+92
-2.0826615e+92
-2.0816815e+92
-2.0773883e+92
-2.0796863e+92
-2.040132e+92
-2.0795996e+92
-2.0777803e+92
-2.1003145e+92
-2.0999504e+92
-2.1077737e+92
-2.1083238e+92
-2.1029427e+92
-2.0978841e+92
-2.0991888e+92
-2.1067874e+92
-2.1059942e+92
-2.1010919e+92
-2.1020247e+92
-2.0970979e+92
-2.097036e+92
-2.1042667e+92
-2.1049643e+92
-2.099163e+92
-2.1000374e+92
-2.0941954e+92
-2.0957479e+92
-2.1031364e+92
-2.1022127e+92
-2.0972723e+92
-2.0981553e+92
-2.1018843e+92
-2.1013036e+92
-2.1033248e+92
-2.1036622e+92
-2.1007982e+92
-2.1007311e+92
-2.1025634e+92
-2.1028271e+92
-2.1002038e+92
-2.0996083e+92
-2.1016357e+92
-2.1020036e+92
-2.1009288e+92
-2.1005943e+92
-2.099777e+92
-2.099585e+92
-2.0998329e+92
-2.0995218e+92
-2.0988369e+92
-2.0983532e+92
-2.0926628e+92
-2.0979724e+92
-2.0978534e+92
-2.0923511e+92
-2.0965493e+92
-2.0972251e+92
-2.091811e+92
-2.0912724e+92
-2.0972001e+92
-2.0970935e+92
-2.0988994e+92
-2.0992163e+92
-2.0964946e+92
-2.0959145e+92
-2.097886e+92
-2.0982609e+92
-2.0989761e+92
-2.0988931e+92
-2.1007322e+92
-2.1010212e+92
-2.0984837e+92
-2.0978641e+92
-2.0998683e+92
-2.1002679e+92
-2.0990459e+92
-2.0987115e+92
-2.0978271e+92
-2.0976771e+92
-2.0981288e+92
-2.0977973e+92
-2.0972019e+92
-2.0967802e+92
-2.090979e+92
-2.0961581e+92
-2.0960281e+92
-2.0906237e+92
-2.0950615e+92
-2.0956238e+92
-2.0903144e+92
-2.0899155e+92
-2.0972212e+92
-2.0968426e+92
-2.0961179e+92
-2.0958577e+92
-2.0960245e+92
-2.0957164e+92
-2.0950113e+92
-2.0945336e+92
-2.0894872e+92
-2.0944832e+92
-2.0943308e+92
-2.0892346e+92
-2.0928711e+92
-2.0935712e+92
-2.0885742e+92
-2.0880267e+92
-1.6556469e+92
-1.6152689e+92
-2.0996679e+92
-2.0999526e+92
-2.0988556e+92
-2.0994493e+92
-2.1033229e+92
-2.1032946e+92
-2.1023167e+92
-2.1030509e+92
-2.1016774e+92
-2.1020302e+92
-2.1001889e+92
-2.1009894e+92
-2.1085183e+92
-2.1087284e+92
-2.1070935e+92
-2.1078362e+92
-2.1066705e+92
-2.1067178e+92
-2.1055728e+92
-2.106165e+92
-2.1049042e+92
-2.1051044e+92
-2.1034457e+92
-2.104199e+92
-2.0619985e+92
-2.0550259e+92
-2.062138e+92
-2.0548125e+92
-2.0705157e+92
-2.077486e+92
-2.077301e+92
-2.070371e+92
-2.0609559e+92
-2.0543048e+92
-2.0615023e+92
-2.0539461e+92
-2.069738e+92
-2.076766e+92
-2.0692296e+92
-2.0761468e+92
-2.0917247e+92
-2.086417e+92
-2.0918605e+92
-2.0861513e+92
-2.0994557e+92
-2.0978496e+92
-2.097696e+92
-2.0994604e+92
-2.0851178e+92
-2.0905015e+92
-2.0855908e+92
-2.0912039e+92
-2.0988121e+92
-2.0970626e+92
-2.0964566e+92
-2.0979368e+92
-2.0515476e+92
-2.0585838e+92
-2.0583898e+92
-2.0513354e+92
-2.0502786e+92
-2.0507044e+92
-2.0578553e+92
-2.0573116e+92
-2.0669468e+92
-2.0740106e+92
-2.0738178e+92
-2.0667293e+92
-2.065607e+92
-2.0661087e+92
-2.0732403e+92
-2.0725489e+92
-2.0533453e+92
-2.0603489e+92
-2.0602245e+92
-2.0531701e+92
-2.0525995e+92
-2.0597466e+92
-2.0592373e+92
-2.0522507e+92
-2.0755954e+92
-2.0686393e+92
-2.0756337e+92
-2.0685287e+92
-2.0745884e+92
-2.0680322e+92
-2.0751695e+92
-2.0675736e+92
-2.0882511e+92
-2.0828872e+92
-2.0883221e+92
-2.0826499e+92
-2.095914e+92
-2.0943096e+92
-2.0942112e+92
-2.0959772e+92
-2.0814754e+92
-2.0869284e+92
-2.0820201e+92
-2.0876883e+92
-2.0953382e+92
-2.0935581e+92
-2.0929102e+92
-2.09443e+92
-2.084573e+92
-2.0899822e+92
-2.0899987e+92
-2.0844501e+92
-2.083997e+92
-2.0895608e+92
-2.0835272e+92
-2.0888972e+92
-2.097501e+92
-2.0977111e+92
-2.0959483e+92
-2.0959667e+92
-2.0948539e+92
-2.0953723e+92
-2.0971192e+92
-2.096395e+92
-2.0301585e+92
-2.0239056e+92
-2.0304411e+92
-2.0236437e+92
-2.023164e+92
-2.0297243e+92
-2.0292733e+92
-2.0228346e+92
-2.0387348e+92
-2.045579e+92
-2.0385212e+92
-2.0453894e+92
-2.0449054e+92
-2.0444634e+92
-2.0379753e+92
-2.0375706e+92
-2.003761e+92
-1.9997336e+92
-2.004084e+92
-1.9994545e+92
-1.9989843e+92
-2.0033682e+92
-2.0030396e+92
-1.9987249e+92
-2.0109091e+92
-2.015664e+92
-2.0106338e+92
-2.0153709e+92
-2.0149303e+92
-2.0145685e+92
-2.0101587e+92
-2.0098764e+92
-1.9956371e+92
-1.9952662e+92
-1.999522e+92
-1.9999571e+92
-1.9964649e+92
-2.0007723e+92
-2.0004089e+92
-1.996151e+92
-2.0072464e+92
-2.0075587e+92
-2.0122628e+92
-2.0119539e+92
-2.0114339e+92
-2.0066702e+92
-2.0062864e+92
-2.0109921e+92
-1.9981633e+92
-2.0024777e+92
-2.002136e+92
-1.9978617e+92
-1.9973576e+92
-2.0016861e+92
-2.0013112e+92
-1.9970432e+92
-2.0092669e+92
-2.0139523e+92
-2.0136639e+92
-2.0089938e+92
-2.0084587e+92
-2.013195e+92
-2.0128169e+92
-2.0081484e+92
-2.0222003e+92
-2.0286991e+92
-2.0284537e+92
-2.0219111e+92
-2.021427e+92
-2.0280186e+92
-2.0276071e+92
-2.0210894e+92
-2.0369719e+92
-2.043891e+92
-2.0437503e+92
-2.036809e+92
-2.0362825e+92
-2.0432276e+92
-2.0427989e+92
-2.0359344e+92
-2.0204728e+92
-2.027014e+92
-2.0267112e+92
-2.0201756e+92
-2.0192459e+92
-2.0196111e+92
-2.026205e+92
-2.0257575e+92
-2.0352766e+92
-2.0421482e+92
-2.0419506e+92
-2.0350334e+92
-2.0339744e+92
-2.0343965e+92
-2.041356e+92
-2.040825e+92
-1.9321969e+92
-1.9317886e+92
-1.9332388e+92
-1.9328906e+92
-1.9325768e+92
-1.9320992e+92
-1.9315093e+92
-1.9310029e+92
-1.9061235e+92
-1.9066241e+92
-1.9125061e+92
-1.9118745e+92
-1.9209659e+92
-1.9214947e+92
-1.9336342e+92
-1.933345e+92
-1.9346624e+92
-1.934317e+92
-1.9339366e+92
-1.9335414e+92
-1.9330452e+92
-1.9325826e+92
-1.907966e+92
-1.9138309e+92
-1.9129647e+92
-1.9072639e+92
-1.9222666e+92
-1.9229584e+92
-1.9407116e+92
-1.9404335e+92
-1.9423183e+92
-1.9426633e+92
-1.9485723e+92
-1.9511616e+92
-1.9507985e+92
-1.9482895e+92
-1.9416458e+92
-1.9399864e+92
-1.9419542e+92
-1.9396818e+92
-1.9478447e+92
-1.9503997e+92
-1.9475672e+92
-1.9501097e+92
-1.9392853e+92
-1.9390031e+92
-1.941229e+92
-1.940912e+92
-1.9468173e+92
-1.9496491e+92
-1.9493435e+92
-1.9471003e+92
-1.9385785e+92
-1.9381901e+92
-1.9402616e+92
-1.9405954e+92
-1.9463679e+92
-1.9460763e+92
-1.9489899e+92
-1.9486853e+92
-1.8920087e+92
-1.8927962e+92
-1.898513e+92
-1.8976771e+92
-1.8971591e+92
-1.8915245e+92
-1.8913449e+92
-1.8969211e+92
-1.8962258e+92
-1.9368651e+92
-1.9364029e+92
-1.9358901e+92
-1.9353697e+92
-1.9098464e+92
-1.9104398e+92
-1.9158476e+92
-1.9165366e+92
-1.9250076e+92
-1.9350143e+92
-1.9345868e+92
-1.9360984e+92
-1.9356808e+92
-1.93535e+92
-1.9349576e+92
-1.9343329e+92
-1.9338719e+92
-1.9092318e+92
-1.9151984e+92
-1.9145615e+92
-1.9087862e+92
-1.9243303e+92
-1.9236978e+92
-1.9421207e+92
-1.9441163e+92
-1.9437605e+92
-1.9417901e+92
-1.9413732e+92
-1.943438e+92
-1.9431376e+92
-1.9410708e+92
-1.9500308e+92
-1.9526702e+92
-1.9523137e+92
-1.9497246e+92
-1.9490304e+92
-1.9493001e+92
-1.9519483e+92
-1.9516776e+92
-1.8936725e+92
-1.8942068e+92
-1.8993081e+92
-1.8998846e+92
-1.8945982e+92
-1.8952766e+92
-1.9010889e+92
-1.9003413e+92
-1.9562889e+92
-1.9593304e+92
-1.9590099e+92
-1.9560056e+92
-1.9553296e+92
-1.955591e+92
-1.9586615e+92
-1.958363e+92
-1.9681701e+92
-1.9653524e+92
-1.9685033e+92
-1.9650735e+92
-1.9643165e+92
-1.967434e+92
-1.9646025e+92
-1.9677714e+92
-1.96049e+92
-1.9578379e+92
-1.9608586e+92
-1.9575127e+92
-1.9668868e+92
-1.9700423e+92
-1.9696906e+92
-1.9665881e+92
-1.9598028e+92
-1.9570533e+92
-1.9600805e+92
-1.9568062e+92
-1.9660978e+92
-1.96926e+92
-1.9658518e+92
-1.9689787e+92
-1.9800771e+92
-1.9766884e+92
-1.9804193e+92
-1.9763614e+92
-1.9907855e+92
-1.9868231e+92
-1.9865317e+92
-1.9904805e+92
-1.9756439e+92
-1.9793465e+92
-1.9758882e+92
-1.9796549e+92
-1.9900187e+92
-1.9860324e+92
-1.9857518e+92
-1.9896625e+92
-1.9751123e+92
-1.9788407e+92
-1.9785049e+92
-1.9747984e+92
-1.9891489e+92
-1.9852223e+92
-1.9849153e+92
-1.9888344e+92
-1.9743139e+92