/*--------------------------------*- C++ -*----------------------------------*\
  =========                 |
  \\      /  F ield         | OpenFOAM: The Open Source CFD Toolbox
   \\    /   O peration     | Website:  https://openfoam.org
    \\  /    A nd           | Version:  7
     \\/     M anipulation  |
\*---------------------------------------------------------------------------*/
FoamFile
{
    version     2.0;
    format      ascii;
    class       volVectorField;
    location    "8000";
    object      U;
}
// * * * * * * * * * * * * * * * * * * * * * * * * * * * * * * * * * * * * * //

dimensions      [0 1 -1 0 0 0 0];

internalField   nonuniform List<vector> 
34251
(
(-1.4174794e+47 2.3256151e+46 1.0194213e+46)
(-1.2655095e+47 2.6342404e+46 7.109575e+44)
(-1.1596884e+47 1.8110947e+46 1.552778e+46)
(-1.0691952e+47 1.8257097e+46 3.1490278e+46)
(-1.2062182e+47 6.2572965e+45 1.6472001e+46)
(-1.0542244e+47 1.8849474e+46 3.0973009e+46)
(-1.2527738e+47 9.4924245e+45 -1.3169096e+46)
(-1.2222603e+47 1.6820071e+46 5.8236706e+45)
(-1.2700199e+47 1.4305602e+46 8.4961379e+45)
(-1.1535052e+47 1.8105866e+46 -1.7138249e+46)
(-9.994433e+46 2.171168e+46 1.065649e+46)
(-1.1662152e+47 7.4650958e+45 -1.7725596e+46)
(-1.0494185e+47 4.6729316e+45 1.1446004e+46)
(-9.4748515e+46 1.1279281e+46 1.6214386e+46)
(-9.6187627e+46 4.2369262e+45 1.6577408e+46)
(-1.0032728e+47 1.2098645e+46 2.7884497e+46)
(-1.0161298e+47 1.0790556e+46 2.8433148e+46)
(-9.7028591e+46 4.450577e+45 1.6596016e+46)
(-9.2833391e+46 1.1987584e+46 1.4876914e+46)
(-1.0359413e+47 1.3962603e+46 2.8114588e+46)
(-1.0410174e+47 1.2691475e+46 2.7262962e+46)
(-1.2380929e+47 1.9642485e+46 1.9629422e+46)
(-1.259745e+47 1.0993992e+46 -1.3092003e+46)
(-1.2283984e+47 1.441455e+46 -1.4675564e+46)
(-1.29524e+47 8.7467199e+45 2.0411718e+46)
(-1.0235328e+47 7.2957077e+45 -1.0722171e+46)
(-1.0971067e+47 5.5308676e+45 6.6876207e+45)
(-1.0288073e+47 9.1140194e+45 -1.1800533e+46)
(-1.0742705e+47 1.1708136e+46 6.9661976e+45)
(-1.2188072e+47 1.5757126e+46 1.6051229e+46)
(-1.2521377e+47 6.6919595e+45 1.6219715e+46)
(-1.1482199e+47 7.7815465e+45 -4.0964949e+45)
(-1.1260354e+47 1.3622908e+46 -5.1634554e+45)
(-1.0661171e+47 1.0892445e+46 1.1534027e+46)
(-1.0831995e+47 1.047838e+46 1.2116442e+46)
(-1.0979557e+47 1.1983039e+46 1.296693e+46)
(-1.0778354e+47 1.1353609e+46 1.1385331e+46)
(-1.0428236e+47 1.0753669e+46 -8.5317678e+45)
(-9.9739741e+46 2.1373002e+46 -8.1245138e+45)
(-9.0351582e+46 5.9495744e+45 -8.6346697e+45)
(-8.3007228e+46 1.1571609e+46 -2.4630651e+46)
(-8.4649106e+46 1.1333438e+46 -2.4105887e+46)
(-8.8388371e+46 1.2570871e+46 -8.0711757e+45)
(-8.9958636e+46 1.1799871e+46 -1.5903214e+46)
(-9.1732607e+46 4.5819132e+45 -1.627711e+46)
(-7.7922656e+46 2.1504183e+45 1.2020338e+46)
(-7.3348386e+46 1.5115673e+46 9.9480424e+45)
(-8.6026885e+46 1.3550245e+46 -2.3713581e+46)
(-8.3917349e+46 1.4132322e+46 -2.3952834e+46)
(-9.1037062e+46 7.7562276e+45 -8.7681169e+45)
(-8.8719114e+46 1.4014515e+46 -8.0573141e+45)
(-9.1646708e+46 5.2335279e+45 -1.6277858e+46)
(-8.942795e+46 1.248747e+46 -1.562812e+46)
(-7.7746236e+46 2.1921988e+45 1.1443368e+46)
(-7.3935389e+46 1.5507476e+46 1.0229327e+46)
(-8.8361263e+46 7.6813551e+45 2.3198915e+46)
(-7.9154205e+46 3.2690039e+45 1.6673516e+46)
(-8.9535601e+46 8.3232746e+45 2.3700675e+46)
(-7.9036136e+46 2.9783073e+45 1.6641005e+46)
(-8.8663523e+46 8.9742016e+45 2.3360947e+46)
(-7.7017102e+46 8.2744021e+45 1.5434128e+46)
(-8.8766105e+46 8.4460273e+45 2.286887e+46)
(-9.0822987e+46 1.0154839e+46 2.3501007e+46)
(-7.6627512e+46 8.4302751e+45 1.4931771e+46)
(-9.0186582e+46 9.6062982e+45 2.2438195e+46)
(-7.86392e+46 3.5657755e+45 1.5835184e+46)
(-7.6436098e+46 8.4789814e+45 1.5111361e+46)
(-8.9807531e+46 9.4869038e+45 2.242607e+46)
(-8.9369785e+46 8.9558025e+45 2.2201745e+46)
(-1.1037173e+47 1.5203186e+46 1.5700827e+46)
(-1.1390061e+47 7.8269646e+45 1.6072233e+46)
(-1.104437e+47 9.4245354e+45 -5.7511581e+45)
(-1.0916283e+47 1.1680451e+46 -7.1335679e+45)
(-1.0478578e+47 1.0100934e+46 -1.1576733e+46)
(-1.042269e+47 8.6374622e+45 -1.066826e+46)
(-1.1168136e+47 6.9311789e+45 5.9510524e+45)
(-1.0858923e+47 1.3317193e+46 5.952334e+45)
(-1.2227963e+47 1.6791339e+46 1.4406547e+46)
(-1.0842081e+47 1.1985464e+46 5.573534e+45)
(-1.036823e+47 7.7555295e+45 -1.1427935e+46)
(-1.0333872e+47 9.9763373e+45 -1.2080828e+46)
(-1.1027545e+47 6.3781182e+45 5.6209883e+45)
(-1.2632236e+47 7.2055193e+45 1.4876447e+46)
(-1.0929037e+47 1.4461592e+46 1.483452e+46)
(-1.1132269e+47 7.3407542e+45 1.5472775e+46)
(-1.082419e+47 1.0775537e+46 -7.2380551e+45)
(-1.1050893e+47 7.9954471e+45 -5.4879155e+45)
(-1.1562535e+47 8.6000462e+45 -4.3032549e+45)
(-1.1239867e+47 1.3714542e+46 -4.8277138e+45)
(-8.8142946e+46 5.833811e+45 -7.8218543e+45)
(-8.8535511e+46 4.5816132e+45 -6.9859319e+45)
(-9.102473e+46 7.2290259e+45 1.5942033e+45)
(-1.0242592e+47 1.1538121e+46 1.5380583e+45)
(-9.1710281e+46 4.1270723e+45 1.1747118e+45)
(-8.8158339e+46 6.4358206e+45 -7.8837601e+45)
(-8.8860902e+46 4.1666357e+45 -7.4483355e+45)
(-8.9908727e+46 7.4760097e+45 1.3347326e+45)
(-8.7867156e+46 5.6151315e+45 -8.0271833e+45)
(-8.8706619e+46 4.0361829e+45 -7.6742986e+45)
(-9.1712629e+46 3.7721453e+45 1.0045272e+45)
(-9.135214e+46 6.521793e+45 1.0098354e+45)
(-1.0663141e+47 5.7763792e+45 2.5147912e+45)
(-8.833468e+46 6.5655626e+45 -7.4877593e+45)
(-8.9081286e+46 4.9905554e+45 -6.6438059e+45)
(-8.8680761e+46 7.8188456e+45 1.2128811e+45)
(-8.9575987e+46 4.6990754e+45 9.9580798e+44)
(-9.9195463e+46 8.0733437e+45 -1.2899608e+46)
(-9.9892461e+46 9.9403096e+45 -1.3381828e+46)
(-9.5904841e+46 7.4984908e+45 -1.4108949e+46)
(-1.0155047e+47 1.1144655e+46 9.1261571e+44)
(-8.71219e+46 3.8669763e+45 -9.0564773e+45)
(-8.9538774e+46 6.5056369e+45 7.930037e+44)
(-8.9007522e+46 5.9346642e+45 -4.8703595e+45)
(-1.3022096e+47 1.2277085e+46 1.8198871e+46)
(-9.069591e+46 9.2619298e+45 -2.044735e+45)
(-1.0647157e+47 1.3434025e+46 8.1381647e+45)
(-1.0882641e+47 6.3532729e+45 8.1757057e+45)
(-8.9926115e+46 1.1274601e+46 -3.0480824e+45)
(-1.3320598e+47 7.9352755e+45 1.8021143e+46)
(-8.679216e+46 9.4300094e+45 -1.6185826e+45)
(-1.0236765e+47 1.2650557e+46 7.7856884e+45)
(-8.9433673e+46 1.2580443e+46 -2.8013724e+46)
(-9.0090525e+46 7.3721702e+45 -2.867518e+46)
(-9.2608392e+46 7.8835125e+45 1.3093913e+46)
(-9.1708472e+46 8.4553165e+45 1.2902181e+46)
(-9.0642039e+46 7.7676387e+45 1.1875573e+46)
(-9.1470762e+46 8.7741133e+45 1.1835455e+46)
(-9.2252988e+46 8.8515161e+45 1.2185495e+46)
(-9.0650572e+46 8.4088196e+45 1.1731934e+46)
(-1.240887e+47 1.4714984e+46 -1.5908522e+46)
(-1.2399867e+47 1.2645855e+46 -1.5910621e+46)
(-1.0532815e+47 8.8447961e+45 -1.9235272e+46)
(-9.5248011e+46 9.3274614e+45 -4.4705464e+45)
(-9.3747961e+46 1.0794137e+46 -3.270325e+45)
(-1.0470914e+47 7.6198584e+45 -1.9017215e+46)
(-7.2925999e+46 7.134057e+45 -1.9757891e+46)
(-7.2400578e+46 7.06351e+45 -1.9875828e+46)
(-6.7112897e+46 4.3771557e+45 -1.1426017e+46)
(-6.6342453e+46 8.7633688e+45 -1.1532854e+46)
(-7.3780169e+46 7.8269594e+45 -2.0016018e+46)
(-7.3167924e+46 7.8851099e+45 -2.0078042e+46)
(-6.7736631e+46 4.8159379e+45 -1.1708446e+46)
(-6.66556e+46 9.246228e+45 -1.1315089e+46)
(-5.6704796e+46 9.0917103e+45 -1.2054334e+46)
(-5.3803524e+46 1.1264059e+46 1.3737481e+46)
(-5.5924758e+46 7.041216e+44 1.4760444e+46)
(-5.8294779e+46 3.9697332e+45 -1.2007321e+46)
(-5.8227748e+46 3.8911549e+45 -1.1979356e+46)
(-5.6721355e+46 8.6328032e+45 -1.2244832e+46)
(-5.5514298e+46 1.312119e+45 1.4469306e+46)
(-9.5183393e+46 1.2691004e+46 -3.4406593e+45)
(-9.4697647e+46 1.1611912e+46 -4.6746578e+45)
(-1.0440887e+47 1.026889e+46 -1.8538784e+46)
(-1.0469536e+47 9.0012841e+45 -1.8159127e+46)
(-7.5050424e+46 9.2304239e+45 -1.9685797e+46)
(-7.4713809e+46 9.3414198e+45 -1.9859982e+46)
(-6.890395e+46 5.7140101e+45 -1.1865612e+46)
(-6.7555646e+46 9.9551354e+45 -1.1519485e+46)
(-6.8070121e+46 5.2238722e+45 -1.1252919e+46)
(-7.3555726e+46 8.4808242e+45 -1.9391785e+46)
(-7.3786605e+46 8.7231376e+45 -1.9222803e+46)
(-6.6739124e+46 9.8946291e+45 -1.129737e+46)
(-5.8432952e+46 4.3627431e+45 -1.1910496e+46)
(-5.6439523e+46 9.3026847e+45 -1.1699647e+46)
(-5.232048e+46 1.1520368e+46 1.270431e+46)
(-5.6390369e+46 9.4662382e+45 -1.1855911e+46)
(-5.8602658e+46 4.2598244e+45 -1.1628325e+46)
(-5.5651199e+46 1.3460695e+45 1.47041e+46)
(-5.2594395e+46 1.1652953e+46 1.2779607e+46)
(-6.8737767e+46 2.39512e+45 1.6897256e+46)
(-6.6767847e+46 6.3230011e+45 1.5714485e+46)
(-7.7604713e+46 6.241411e+45 2.0398075e+46)
(-7.7857875e+46 6.2408832e+45 2.1018753e+46)
(-6.8675174e+46 2.1605284e+45 1.7009143e+46)
(-6.6632285e+46 6.3326343e+45 1.5715783e+46)
(-7.6941458e+46 6.6362335e+45 2.079063e+46)
(-7.6571158e+46 6.7269559e+45 2.009376e+46)
(-7.6656024e+46 6.5722542e+45 2.0084136e+46)
(-6.7640688e+46 2.726642e+45 1.6153263e+46)
(-6.6330807e+46 6.4344617e+45 1.5664276e+46)
(-7.6301202e+46 6.4349352e+45 1.9843327e+46)
(-6.7823594e+46 2.849975e+45 1.5928294e+46)
(-6.6167111e+46 6.6243525e+45 1.5288675e+46)
(-7.7365798e+46 7.2681079e+45 1.9818299e+46)
(-7.6839882e+46 7.1952839e+45 1.9540476e+46)
(-6.8700031e+46 2.5341453e+45 1.6427194e+46)
(-6.6003409e+46 6.6422592e+45 1.5171592e+46)
(-7.7622274e+46 7.0532715e+45 2.0216255e+46)
(-7.6914829e+46 7.2226057e+45 1.947914e+46)
(-6.7761418e+46 2.8776799e+45 1.6250156e+46)
(-6.6318921e+46 6.387625e+45 1.574613e+46)
(-7.6840318e+46 7.0206552e+45 1.9961798e+46)
(-7.6279394e+46 6.7889021e+45 1.9778642e+46)
(-1.4785376e+47 8.4897953e+45 -2.2525869e+46)
(-9.3231185e+46 8.8284722e+45 -1.7948107e+44)
(-9.7356042e+46 6.3629797e+45 1.5277163e+46)
(-9.2828665e+46 8.7092666e+45 -9.3088275e+44)
(-9.3915366e+46 7.1796277e+45 -5.2741585e+44)
(-9.632129e+46 6.065341e+45 1.5046848e+46)
(-9.5073543e+46 1.1396009e+46 1.4446647e+46)
(-9.3717988e+46 6.3280614e+45 5.9853277e+45)
(-8.9125757e+46 8.1972924e+45 -5.8920179e+45)
(-8.9052207e+46 8.4527624e+45 -6.202509e+45)
(-9.0099799e+46 6.7118303e+45 -5.7247777e+45)
(-9.2850618e+46 9.7306058e+45 5.604536e+45)
(-9.3898534e+46 6.1500292e+45 5.6391739e+45)
(-8.9060565e+46 6.5791463e+45 -8.1588638e+45)
(-9.002318e+46 4.9109711e+45 -7.6390096e+45)
(-9.2315345e+46 7.5304708e+45 5.8059384e+44)
(-9.2758199e+46 4.9263293e+45 6.0142433e+44)
(-1.0861339e+47 6.6584083e+45 2.0011913e+45)
(-9.0235004e+46 5.3309437e+45 -6.9061744e+45)
(-8.8978317e+46 6.541814e+45 -7.883137e+45)
(-9.2560873e+46 5.107437e+45 7.446609e+44)
(-1.0405413e+47 1.2715297e+46 6.2652638e+44)
(-8.9090819e+46 7.5468629e+45 -7.8515505e+45)
(-9.0036701e+46 5.368246e+45 -7.3775063e+45)
(-9.0152662e+46 8.8779448e+45 3.1594997e+44)
(-9.0743228e+46 6.2185694e+45 4.6894638e+44)
(-8.9039796e+46 7.6046064e+45 -7.6871341e+45)
(-9.0700513e+46 5.9774699e+45 6.728728e+44)
(-1.0163799e+47 1.0574005e+46 -1.4036647e+46)
(-1.0129261e+47 9.190296e+45 -1.3412508e+46)
(-8.9986738e+46 8.4003917e+45 1.1311621e+45)
(-8.9495642e+46 7.2838036e+45 -7.4290156e+45)
(-8.9528099e+46 5.4586145e+45 -7.3052835e+45)
(-9.1537776e+46 5.3096693e+45 1.2237049e+45)
(-8.9052213e+46 4.9201945e+45 -7.5531734e+45)
(-9.2791512e+46 4.8203041e+45 7.5329116e+44)
(-9.1739591e+46 7.5347942e+45 9.4545897e+44)
(-8.9069174e+46 6.4567362e+45 -8.1524958e+45)
(-1.0353187e+47 1.2051557e+46 5.0568893e+44)
(-8.8948927e+46 6.3485786e+45 -8.0321006e+45)
(-8.9245955e+46 4.8576786e+45 -7.7686405e+45)
(-9.1529432e+46 7.4103341e+45 6.462332e+44)
(-1.0710519e+47 6.5356412e+45 1.6996024e+45)
(-9.1957437e+46 4.6691343e+45 7.42937e+44)
(-8.8555115e+46 7.2009462e+45 -7.7455614e+45)
(-8.981535e+46 5.587321e+45 5.5154593e+44)
(-8.9147966e+46 5.0735257e+45 -7.456992e+45)
(-8.9086847e+46 8.2534442e+45 2.7150589e+44)
(-9.9889008e+46 8.1235981e+45 -1.3891856e+46)
(-1.0069649e+47 1.0395517e+46 -1.3736868e+46)
(-9.2772864e+46 8.1458452e+45 -7.6145577e+44)
(-9.4287871e+46 6.9066776e+45 9.1863085e+43)
(-9.5597993e+46 5.2913461e+45 1.4969843e+46)
(-9.4384129e+46 1.0715212e+46 1.4840695e+46)
(-9.4480324e+46 1.071945e+46 1.4835439e+46)
(-9.2572713e+46 8.3947803e+45 -7.1680783e+44)
(-9.3546067e+46 6.4433864e+45 -3.7748253e+44)
(-9.5032312e+46 5.791981e+45 1.5072236e+46)
(-9.1815536e+46 9.0785918e+45 5.5553326e+45)
(-8.9287934e+46 5.9452018e+45 -5.7627448e+45)
(-8.8372518e+46 7.7019992e+45 -5.9837321e+45)
(-9.2667846e+46 5.6020119e+45 5.7643379e+45)
(-9.2483617e+46 9.7389053e+45 6.1491055e+45)
(-8.9241688e+46 7.4900489e+45 -5.7542004e+45)
(-9.0075393e+46 6.5164746e+45 -4.7788275e+45)
(-9.3466891e+46 5.5016394e+45 5.8503588e+45)
(-1.2978651e+47 1.2573901e+46 1.7672435e+46)
(-9.2749878e+46 9.7430718e+45 -2.9819336e+45)
(-1.0798945e+47 1.4041747e+46 6.783096e+45)
(-1.1071976e+47 6.7142538e+45 6.8645656e+45)
(-9.2207389e+46 1.1219508e+46 -3.9431925e+45)
(-1.3340287e+47 7.8506343e+45 1.7935628e+46)
(-9.1092651e+46 9.5163778e+45 -3.2562419e+45)
(-1.0722602e+47 1.285823e+46 6.4383591e+45)
(-1.0896943e+47 6.4841624e+45 7.2527776e+45)
(-8.9392857e+46 1.1428877e+46 -3.4510039e+45)
(-9.0041097e+46 1.3380362e+46 -2.7275245e+46)
(-9.1237792e+46 7.9650071e+45 -2.7676686e+46)
(-7.7607808e+46 4.9323169e+45 1.208632e+43)
(-7.6929624e+46 3.6233429e+45 -3.5504168e+44)
(-9.0133465e+46 3.9759338e+45 -5.2098849e+44)
(-7.5185062e+46 4.6164608e+45 -7.1345141e+45)
(-7.6210858e+46 3.5279997e+45 -6.2083842e+45)
(-7.7388803e+46 5.4334462e+45 4.5443976e+44)
(-7.7358951e+46 3.6407991e+45 2.2349505e+44)
(-8.949031e+46 6.6018701e+45 -4.4130472e+44)
(-7.5876308e+46 4.47069e+45 -6.4278463e+45)
(-7.6419499e+46 4.0314028e+45 -5.9952481e+45)
(-7.4223755e+46 4.3334766e+45 -3.5426402e+45)
(-7.4408902e+46 5.6842367e+45 -3.6407952e+44)
(-7.3627063e+46 5.00937e+45 -4.0024012e+45)
(-7.4467415e+46 3.9793194e+45 -4.9419617e+44)
(-8.7491878e+46 6.1877484e+45 -9.8343881e+45)
(-8.8114017e+46 4.2671009e+45 -8.3435349e+45)
(-7.3999213e+46 3.6721336e+45 -4.2277712e+45)
(-7.4274949e+46 5.3588626e+45 -8.5465517e+44)
(-7.3133877e+46 4.8779573e+45 -4.5452927e+45)
(-7.402397e+46 4.0058144e+45 -9.4325363e+44)
(-7.2395065e+46 3.9651547e+45 -4.9697717e+45)
(-7.1618099e+46 5.0476105e+45 -5.2493463e+45)
(-7.38569e+46 5.3257036e+45 -4.8395539e+43)
(-7.3632449e+46 3.9227768e+45 -1.3732681e+44)
(-7.2473742e+46 3.9837143e+45 -4.7646553e+45)
(-7.4059265e+46 5.436476e+45 1.6700004e+44)
(-7.2065175e+46 4.8750101e+45 -5.062225e+45)
(-7.4045979e+46 3.7645712e+45 5.2205734e+42)
(-7.2450263e+46 4.0882082e+45 -4.8325855e+45)
(-7.3178738e+46 5.6875612e+45 3.9168195e+43)
(-7.1836501e+46 5.2249095e+45 -5.1465795e+45)
(-7.3206642e+46 4.0105321e+45 -4.4181187e+43)
(-7.7401713e+46 4.677382e+45 1.8635479e+43)
(-7.681253e+46 3.3013806e+45 -2.7222276e+44)
(-9.0571662e+46 3.8533564e+45 -7.616846e+44)
(-7.5057095e+46 4.386064e+45 -7.1122061e+45)
(-7.5984024e+46 3.3321573e+45 -6.2192895e+45)
(-7.7599148e+46 4.8535104e+45 1.1429058e+44)
(-7.7211221e+46 3.2345896e+45 -1.4333853e+44)
(-9.0474362e+46 6.3862594e+45 -7.5865792e+44)
(-7.5581385e+46 4.2165792e+45 -6.9000611e+45)
(-7.6483678e+46 3.4538314e+45 -6.1417528e+45)
(-7.3794111e+46 3.4668051e+45 -4.2475298e+45)
(-7.4118077e+46 5.2027779e+45 -9.292899e+44)
(-7.2986192e+46 4.6700659e+45 -4.5374621e+45)
(-7.3907851e+46 3.851021e+45 -9.8400187e+44)
(-7.4017963e+46 3.6630896e+45 -4.0914762e+45)
(-7.4253305e+46 5.0231429e+45 -7.7672725e+44)
(-7.3356914e+46 4.6886863e+45 -4.3838493e+45)
(-7.4311127e+46 3.6156563e+45 -8.3288495e+44)
(-8.8710125e+46 3.6495094e+45 -8.8801795e+45)
(-8.7513044e+46 5.9611964e+45 -9.7555655e+45)
(-7.2595794e+46 4.1407118e+45 -4.8481377e+45)
(-7.3889661e+46 5.566072e+45 -8.7516415e+43)
(-7.1790428e+46 5.1079662e+45 -5.1177628e+45)
(-7.3667377e+46 4.0428116e+45 -1.9707764e+44)
(-7.2847734e+46 4.7131033e+45 -4.2902501e+45)
(-7.4027045e+46 6.1514446e+45 4.1531948e+44)
(-7.2369731e+46 5.1871366e+45 -4.6884676e+45)
(-7.408586e+46 4.1685324e+45 2.1909386e+44)
(-7.2737751e+46 4.7811774e+45 -4.4122666e+45)
(-7.2956244e+46 6.3169174e+45 3.4252185e+44)
(-7.2088207e+46 5.5975702e+45 -4.8536993e+45)
(-7.309976e+46 4.3144755e+45 2.2317384e+44)
(-7.2383061e+46 4.175914e+45 -4.9352319e+45)
(-7.292506e+46 5.9912882e+45 -8.1717007e+43)
(-7.1625749e+46 5.4749948e+45 -5.2653882e+45)
(-7.2773777e+46 4.330779e+45 -1.5448713e+44)
(-8.7231199e+46 6.5297535e+45 -1.0653429e+46)
(-8.7200203e+46 5.1201123e+45 -9.2253622e+45)
(-9.1332771e+46 7.359926e+45 1.4475148e+45)
(-9.1727382e+46 4.1691593e+45 -4.4206615e+44)
(-8.7079171e+46 6.0397614e+45 -1.0556988e+46)
(-8.8334098e+46 4.5236889e+45 -8.0149308e+45)
(-9.3326508e+46 6.5766561e+45 1.0656061e+45)
(-9.2225341e+46 3.6112392e+45 2.5585777e+44)
(-8.6802218e+46 6.7048141e+45 -1.1438415e+46)
(-8.7182047e+46 4.2710678e+45 -1.0936572e+46)
(-9.1010003e+46 6.3785919e+45 -1.0405618e+45)
(-9.1886695e+46 4.2722815e+45 -7.8008949e+44)
(-8.8716837e+46 6.0141938e+45 -2.5494525e+45)
(-8.772026e+46 3.744779e+45 -9.7860988e+45)
(-8.9682737e+46 4.2013193e+45 -2.4145002e+45)
(-8.7453508e+46 6.3513843e+45 -1.0363515e+46)
(-8.7699171e+46 4.8536235e+45 -9.7149073e+45)
(-7.6973101e+46 4.8361982e+45 -1.6799359e+44)
(-7.5674406e+46 3.4081131e+45 -6.7002346e+45)
(-7.6769528e+46 4.7375885e+45 -2.332525e+43)
(-7.6522042e+46 3.1834648e+45 -2.1587755e+44)
(-7.5085707e+46 4.1233484e+45 -7.4199909e+45)
(-7.5644643e+46 3.3927434e+45 -6.4341782e+45)
(-7.325832e+46 3.6110353e+45 -4.3327274e+45)
(-7.3569425e+46 4.9408198e+45 -8.9367498e+44)
(-7.2828983e+46 4.6251288e+45 -4.5450042e+45)
(-7.232373e+46 4.5573229e+45 -4.406464e+45)
(-7.2479341e+46 5.1056357e+45 -3.8943967e+45)
(-7.3996461e+46 6.7482873e+45 1.757721e+45)
(-7.1911271e+46 5.5848116e+45 -4.3251e+45)
(-1.07356e+47 8.7547858e+45 1.4104346e+46)
(-1.0473501e+47 1.140773e+46 1.4715683e+46)
(-6.743868e+46 1.0482067e+46 -1.761871e+46)
(-6.716839e+46 6.45253e+45 -1.8824282e+46)
(-8.1638478e+46 9.6503973e+45 -4.8378826e+45)
(-8.1820519e+46 8.7734299e+45 -3.9812517e+45)
(-9.7825933e+46 6.1429475e+45 3.9136519e+45)
(-9.6402989e+46 1.0948367e+46 4.145607e+45)
(-9.1453714e+46 8.1009415e+45 -1.5739831e+45)
(-8.775464e+46 6.789364e+45 -9.4323724e+45)
(-8.7642323e+46 7.6344642e+45 -1.0465414e+46)
(-9.279286e+46 4.8485508e+45 -1.5090429e+45)
(-9.3091981e+46 7.7167816e+45 -8.7874631e+44)
(-8.78076e+46 5.7319854e+45 -1.026425e+46)
(-8.7460324e+46 7.1896659e+45 -1.0477532e+46)
(-9.3431364e+46 4.460345e+45 -7.5375904e+44)
(-8.1204692e+46 9.9518819e+45 -4.437321e+45)
(-8.2305562e+46 8.3093613e+45 -4.5353762e+45)
(-9.746279e+46 5.4318604e+45 4.0230578e+45)
(-9.680305e+46 9.7928685e+45 3.4455915e+45)
(-6.5251612e+46 1.5537041e+46 -1.8862646e+46)
(-1.0394232e+47 1.2645655e+46 1.4038738e+46)
(-6.6621248e+46 1.0663936e+46 -1.8253215e+46)
(-7.9471308e+46 9.4001983e+45 -4.3491112e+45)
(-7.9276152e+46 7.9341503e+45 -3.5509571e+45)
(-9.4497093e+46 5.8207246e+45 3.2438194e+45)
(-9.3130304e+46 9.5126335e+45 3.0925437e+45)
(-8.6651888e+46 5.5953029e+45 -1.1076186e+46)
(-8.6075634e+46 7.899039e+45 -1.1682862e+46)
(-9.1469838e+46 7.1107795e+45 -2.7020733e+45)
(-9.2305656e+46 5.031214e+45 -2.2650289e+45)
(-8.7002547e+46 6.5432102e+45 -1.011462e+46)
(-9.2492262e+46 8.0781907e+45 -9.7715097e+44)
(-9.8430487e+46 1.5259396e+46 -9.6393347e+45)
(-1.0074939e+47 5.3702314e+45 -1.0053428e+46)
(-7.7617515e+46 6.2995148e+45 1.1854381e+46)
(-7.6717879e+46 5.7170583e+45 1.1233944e+46)
(-7.7108138e+46 6.736916e+45 1.1980077e+46)
(-7.6270415e+46 6.1509349e+45 1.1146587e+46)
(-7.7073227e+46 6.5138293e+45 1.1336905e+46)
(-7.6029105e+46 6.0567986e+45 1.1067632e+46)
(-7.7494512e+46 7.1001566e+45 1.1335379e+46)
(-7.6259199e+46 6.6456884e+45 1.0901664e+46)
(-7.7579407e+46 6.9946999e+45 1.1539007e+46)
(-7.6501246e+46 6.5475216e+45 1.0703516e+46)
(-7.7237328e+46 6.8584416e+45 1.1366822e+46)
(-7.5938135e+46 6.3846734e+45 1.1091209e+46)
(-1.2932453e+47 1.2959945e+46 -1.0136559e+46)
(-1.2922711e+47 1.1388511e+46 -9.4616924e+45)
(-1.0765755e+47 8.13963e+45 -1.4557631e+46)
(-8.0654093e+46 7.3159165e+45 -9.7977605e+45)
(-8.1959857e+46 6.7435714e+45 -1.0444325e+46)
(-9.0689498e+46 1.3826088e+46 -1.6008819e+46)
(-9.3434997e+46 6.8289961e+45 -1.6093061e+46)
(-1.0760864e+47 7.2003887e+45 -1.4385253e+46)
(-8.0784332e+46 6.0926342e+45 -1.0161255e+46)
(-8.0159369e+46 6.7685358e+45 -9.7480695e+45)
(-8.4488562e+46 5.6424743e+45 -2.1419376e+46)
(-8.4499841e+46 5.3361609e+45 -2.1544998e+46)
(-8.4350931e+46 5.9944215e+45 -2.1473304e+46)
(-8.4596456e+46 5.6476814e+45 -2.1197985e+46)
(-4.4440993e+46 6.0518129e+45 -1.6444492e+46)
(-4.4048476e+46 5.9925583e+45 -1.6510851e+46)
(-4.3956352e+46 3.2819391e+45 -9.4440557e+45)
(-4.2511833e+46 6.9974238e+45 -9.9283856e+45)
(-3.7237685e+46 3.3632833e+45 3.0806307e+45)
(-3.4459423e+46 6.8221001e+45 1.0717922e+45)
(-4.6882307e+46 1.2076874e+45 1.6690544e+46)
(-4.5257714e+46 7.955279e+45 1.5827108e+46)
(-3.6960305e+46 3.2534148e+45 2.5691389e+45)
(-3.4629302e+46 6.65319e+45 1.6615165e+45)
(-4.68917e+46 6.4687871e+44 1.6471602e+46)
(-4.5355163e+46 7.7320593e+45 1.5795144e+46)
(-4.387624e+46 3.4340404e+45 -9.7171198e+45)
(-4.4611044e+46 6.2069246e+45 -1.6629768e+46)
(-4.4939952e+46 6.3223537e+45 -1.6699562e+46)
(-4.2747936e+46 6.9754254e+45 -9.6382121e+45)
(-4.4148578e+46 5.8513266e+45 -1.6632808e+46)
(-4.4062591e+46 5.8065744e+45 -1.6607204e+46)
(-4.3706484e+46 3.1819507e+45 -9.6660217e+45)
(-4.2631776e+46 6.8525162e+45 -9.7919384e+45)
(-4.4243864e+46 5.6588286e+45 -1.666909e+46)
(-4.3901105e+46 5.4214046e+45 -1.6772373e+46)
(-4.3660672e+46 3.2540588e+45 -9.8103534e+45)
(-3.6624056e+46 3.2751232e+45 2.7626692e+45)
(-3.4597651e+46 6.7284206e+45 1.2460196e+45)
(-4.5664128e+46 7.8281067e+45 1.5817403e+46)
(-4.6859975e+46 9.7790337e+44 1.6339235e+46)
(-9.6356819e+46 8.5389355e+45 -1.6701872e+46)
(-9.0634426e+46 1.5818297e+46 -1.583033e+46)
(-1.0734149e+47 9.2628434e+45 -1.4347075e+46)
(-8.2268272e+46 8.0049882e+45 -1.0580111e+46)
(-8.1930011e+46 8.4526623e+45 -9.8094875e+45)
(-1.0773621e+47 8.4499613e+45 -1.3873638e+46)
(-8.0976808e+46 8.0689003e+45 -9.4683407e+45)
(-8.1608699e+46 7.292072e+45 -9.9775163e+45)
(-8.3913174e+46 6.2972751e+45 -2.0979935e+46)
(-8.4109619e+46 6.0166187e+45 -2.0738774e+46)
(-8.4080683e+46 6.2527473e+45 -2.0866592e+46)
(-8.4181456e+46 6.1146098e+45 -2.0963669e+46)
(-4.5778994e+46 7.1044341e+45 -1.6590597e+46)
(-4.6395773e+46 7.185406e+45 -1.6802912e+46)
(-4.2617087e+46 7.2308803e+45 -9.6081236e+45)
(-4.4096005e+46 3.6085776e+45 -9.1547489e+45)
(-4.2528994e+46 7.3027124e+45 -9.7426132e+45)
(-4.522783e+46 6.8950564e+45 -1.6461312e+46)
(-4.5687348e+46 6.8657007e+45 -1.6284984e+46)
(-3.6789094e+46 3.6930724e+45 2.81129e+45)
(-3.3639045e+46 7.1456444e+45 6.0921684e+44)
(-4.6747227e+46 1.4197315e+45 1.6513203e+46)
(-4.4541206e+46 8.2722374e+45 1.5191638e+46)
(-4.3821944e+46 3.7817898e+45 -9.3612297e+45)
(-4.2351291e+46 7.2918613e+45 -9.9467426e+45)
(-4.4484289e+46 6.5373005e+45 -1.6410085e+46)
(-4.4882974e+46 6.6138411e+45 -1.6276781e+46)
(-4.3703221e+46 3.6016759e+45 -9.2900567e+45)
(-4.248033e+46 7.4017667e+45 -9.5016483e+45)
(-4.4997651e+46 6.7598565e+45 -1.6382381e+46)
(-4.5126851e+46 6.7345415e+45 -1.6318446e+46)
(-3.6246576e+46 3.5874308e+45 2.5617454e+45)
(-3.372806e+46 7.2706501e+45 1.0251181e+45)
(-4.6746106e+46 1.0619918e+45 1.6328771e+46)
(-4.4770671e+46 8.379386e+45 1.5374012e+46)
(-3.6915116e+46 3.8636294e+45 2.9300019e+45)
(-3.4257523e+46 7.0776041e+45 1.0086538e+45)
(-4.6496247e+46 1.5860467e+45 1.6448104e+46)
(-4.4592155e+46 8.0943228e+45 1.5277472e+46)
(-1.4550459e+47 8.611404e+45 5.2238105e+45)
(-5.3884571e+46 6.0472157e+45 1.6879308e+46)
(-5.4058084e+46 1.6675023e+45 1.7339031e+46)
(-6.7819362e+46 4.8019815e+45 1.6783771e+46)
(-6.811722e+46 5.1085625e+45 1.7043698e+46)
(-5.3597202e+46 5.8123231e+45 1.7182856e+46)
(-5.3490591e+46 1.7330984e+45 1.7125019e+46)
(-6.7507853e+46 4.904805e+45 1.6456486e+46)
(-6.7768448e+46 5.0148354e+45 1.6551198e+46)
(-5.3889871e+46 5.832282e+45 1.7011727e+46)
(-5.4147752e+46 1.4556839e+45 1.7628972e+46)
(-6.7511679e+46 4.9591828e+45 1.7313274e+46)
(-6.758149e+46 5.3696202e+45 1.688971e+46)
(-5.2986235e+46 6.3089101e+45 1.7253978e+46)
(-5.3206324e+46 2.1716375e+45 1.7052842e+46)
(-6.736058e+46 5.147191e+45 1.6982008e+46)
(-6.7396212e+46 5.3881497e+45 1.6497462e+46)
(-5.3505176e+46 6.3000886e+45 1.6836962e+46)
(-5.3697701e+46 1.7455139e+45 1.7394741e+46)
(-6.7745566e+46 4.9923265e+45 1.7025452e+46)
(-6.7652804e+46 5.5189913e+45 1.6539721e+46)
(-5.2774911e+46 6.0517828e+45 1.7152219e+46)
(-5.2823628e+46 2.10629e+45 1.7116415e+46)
(-6.6947969e+46 5.1845364e+45 1.6874533e+46)
(-6.696286e+46 5.2116884e+45 1.6521042e+46)
(-5.3531754e+46 6.3622943e+45 1.6587619e+46)
(-5.4074895e+46 1.9734988e+45 1.7298657e+46)
(-6.8029575e+46 5.3722788e+45 1.6854349e+46)
(-6.7922636e+46 5.8477395e+45 1.6415727e+46)
(-5.2845307e+46 6.4158241e+45 1.695677e+46)
(-5.3061547e+46 2.4320779e+45 1.6947481e+46)
(-6.7315329e+46 5.5521773e+45 1.6754477e+46)
(-6.7449528e+46 5.6239737e+45 1.6434756e+46)
(-5.3638837e+46 6.2421494e+45 1.67313e+46)
(-5.4018992e+46 1.8368998e+45 1.7397422e+46)
(-6.8225862e+46 5.2373194e+45 1.693817e+46)
(-6.8239929e+46 5.608728e+45 1.6849159e+46)
(-5.2996112e+46 6.3701882e+45 1.7075083e+46)
(-5.3146156e+46 2.2503862e+45 1.703928e+46)
(-6.7510786e+46 5.492208e+45 1.6245364e+46)
(-6.7659065e+46 5.6404077e+45 1.6265786e+46)
(-5.3645218e+46 6.2442776e+45 1.6749334e+46)
(-5.3974788e+46 1.8851899e+45 1.7410125e+46)
(-6.7880725e+46 5.2645122e+45 1.6966707e+46)
(-6.776897e+46 5.7019368e+45 1.6538067e+46)
(-5.2886803e+46 5.9782544e+45 1.7129922e+46)
(-5.3141704e+46 2.2724844e+45 1.705275e+46)
(-6.7031019e+46 5.3729448e+45 1.6885697e+46)
(-6.7034081e+46 5.3610165e+45 1.6555292e+46)
(-1.4749983e+47 8.223226e+45 -2.1945117e+46)
(-7.6832179e+46 6.011776e+45 -1.2274281e+45)
(-7.9257066e+46 7.9553351e+45 7.5824779e+45)
(-7.5661887e+46 6.8181645e+45 -1.576196e+45)
(-7.9585059e+46 5.1507317e+45 7.5173039e+45)
(-7.966739e+46 6.1565047e+45 3.9307505e+45)
(-7.9848409e+46 9.2003592e+45 1.3825756e+46)
(-7.862301e+46 6.8909075e+45 3.5546198e+45)
(-8.0436659e+46 5.165733e+45 1.4192394e+46)
(-7.6505745e+46 5.8755859e+45 -1.3281061e+45)
(-7.5370606e+46 6.7917894e+45 -1.6111713e+45)
(-7.8508566e+46 7.8183738e+45 7.4857143e+45)
(-7.8870334e+46 5.0716966e+45 7.5783877e+45)
(-7.6574946e+46 5.9331028e+45 -1.1129963e+45)
(-7.5872976e+46 6.5344021e+45 -1.5116737e+45)
(-7.8643246e+46 8.080682e+45 7.6986367e+45)
(-7.9182843e+46 5.0568476e+45 7.5446749e+45)
(-7.9260245e+46 5.9190673e+45 3.8753824e+45)
(-7.9543761e+46 8.9872318e+45 1.3865997e+46)
(-7.8215325e+46 6.7562783e+45 3.6681714e+45)
(-7.9928076e+46 4.9436057e+45 1.4336486e+46)
(-7.9614672e+46 6.130412e+45 4.0909349e+45)
(-7.8520009e+46 6.7715984e+45 3.5155531e+45)
(-7.9813327e+46 8.8677063e+45 1.3947013e+46)
(-8.0487735e+46 4.9163807e+45 1.4119404e+46)
(-7.4547361e+46 5.3998474e+45 -3.9276555e+45)
(-7.3501262e+46 6.8057906e+45 -4.351106e+45)
(-7.5864193e+46 7.6008733e+45 2.6280347e+45)
(-7.5851682e+46 5.4879157e+45 2.5418957e+45)
(-7.3040959e+46 5.4615134e+45 -4.383041e+45)
(-7.1974153e+46 6.5401277e+45 -4.8406654e+45)
(-7.4803241e+46 6.9620792e+45 1.1438894e+45)
(-7.4608878e+46 5.2810194e+45 8.9369041e+44)
(-7.189319e+46 6.6751592e+45 -4.9083642e+45)
(-7.2912217e+46 5.4959702e+45 -4.5621193e+45)
(-7.455969e+46 7.0427449e+45 9.2699586e+44)
(-7.4536394e+46 5.3818672e+45 8.3273226e+44)
(-7.3037905e+46 5.4792949e+45 -4.351564e+45)
(-7.2371396e+46 6.3134324e+45 -4.7131081e+45)
(-7.4743156e+46 7.1213474e+45 1.2430782e+45)
(-7.4913581e+46 5.1381553e+45 1.044296e+45)
(-7.4628587e+46 5.5216556e+45 -3.8275549e+45)
(-7.3801767e+46 6.6612644e+45 -4.2654239e+45)
(-7.5524143e+46 7.3873629e+45 2.4312258e+45)
(-7.5945735e+46 5.2378465e+45 2.3796219e+45)
(-7.4379591e+46 5.394275e+45 -3.9999279e+45)
(-7.3369987e+46 6.7825561e+45 -4.3356205e+45)
(-7.5394092e+46 7.6025174e+45 2.2796297e+45)
(-7.5442558e+46 5.5492727e+45 2.3075133e+45)
(-7.7667437e+46 5.5360596e+45 -4.2274838e+44)
(-7.7436923e+46 4.3326416e+45 -5.2593049e+44)
(-9.174406e+46 4.8048692e+45 -9.7129321e+44)
(-7.5866409e+46 5.3676747e+45 -7.079062e+45)
(-7.6789957e+46 4.2942056e+45 -6.6131318e+45)
(-7.7871056e+46 5.6708772e+45 -1.5524633e+44)
(-7.8373871e+46 4.0290861e+45 -1.0272036e+44)
(-9.1619721e+46 7.1503173e+45 -1.054123e+45)
(-7.6693102e+46 4.9710681e+45 -6.3076666e+45)
(-7.6837518e+46 4.3242438e+45 -6.449479e+45)
(-7.4644245e+46 4.51997e+45 -4.0983153e+45)
(-7.4971538e+46 5.9905967e+45 -8.6183962e+44)
(-7.42456e+46 5.5011179e+45 -4.4377899e+45)
(-7.5150246e+46 4.5770887e+45 -8.6716905e+44)
(-7.4367616e+46 4.3473327e+45 -4.2474278e+45)
(-7.4759247e+46 6.1704987e+45 -1.0621801e+45)
(-7.3598594e+46 5.6726032e+45 -4.6298516e+45)
(-7.4605127e+46 4.9536577e+45 -1.1005119e+45)
(-9.0206968e+46 4.2189789e+45 -8.8951613e+45)
(-8.8582653e+46 6.5935528e+45 -9.7686777e+45)
(-7.8424841e+46 4.1855443e+45 1.6884938e+44)
(-9.1055903e+46 7.3809534e+45 -7.741377e+44)
(-7.7602689e+46 4.689058e+45 -5.8787476e+45)
(-7.7059174e+46 5.0481102e+45 -6.283281e+45)
(-7.7601193e+46 5.5665141e+45 -4.1217005e+44)
(-7.7793059e+46 4.2997433e+45 -4.2403088e+44)
(-9.1250405e+46 4.7388424e+45 -9.164012e+44)
(-7.6580476e+46 4.1705076e+45 -6.7324485e+45)
(-7.5937997e+46 5.20064e+45 -6.6204727e+45)
(-7.4292597e+46 4.4083149e+45 -4.3440096e+45)
(-7.368761e+46 5.68381e+45 -4.7198065e+45)
(-7.4661535e+46 6.1173242e+45 -1.1059235e+45)
(-7.458962e+46 4.934972e+45 -1.1318616e+45)
(-8.8744997e+46 6.7601464e+45 -9.890942e+45)
(-9.0237204e+46 4.9611488e+45 -8.3009747e+45)
(-7.3209629e+46 4.9501458e+45 -4.9390304e+45)
(-7.2277926e+46 6.0788097e+45 -5.2327386e+45)
(-7.4383831e+46 6.4163197e+45 -3.8829259e+44)
(-7.4208512e+46 5.083113e+45 -4.4010274e+44)
(-7.3335461e+46 4.9896642e+45 -4.7331286e+45)
(-7.4612463e+46 6.4666935e+45 -1.2414077e+44)
(-7.2828736e+46 5.8028881e+45 -5.0100897e+45)
(-7.4728545e+46 4.8104643e+45 -2.2360748e+44)
(-7.3193739e+46 5.0867252e+45 -4.8447142e+45)
(-7.368389e+46 6.774974e+45 -1.5163966e+44)
(-7.2478659e+46 6.2354767e+45 -5.1884388e+45)
(-7.3842975e+46 5.0840956e+45 -1.9119275e+44)
(-7.2947859e+46 5.029175e+45 -5.028634e+45)
(-7.3482274e+46 6.984254e+45 -3.6207874e+44)
(-7.1995576e+46 6.4680967e+45 -5.3559441e+45)
(-7.3310588e+46 5.5142654e+45 -3.8347552e+44)
(-7.2296027e+46 6.0535313e+45 -5.2551825e+45)
(-7.428108e+46 4.995471e+45 -4.8082294e+44)
(-7.2094847e+46 6.3775308e+45 -5.3774289e+45)