/*--------------------------------*- C++ -*----------------------------------*\
  =========                 |
  \\      /  F ield         | OpenFOAM: The Open Source CFD Toolbox
   \\    /   O peration     | Website:  https://openfoam.org
    \\  /    A nd           | Version:  7
     \\/     M anipulation  |
\*---------------------------------------------------------------------------*/
FoamFile
{
    version     2.0;
    format      ascii;
    class       volVectorField;
    location    "8000";
    object      UMean;
}
// * * * * * * * * * * * * * * * * * * * * * * * * * * * * * * * * * * * * * //

dimensions      [0 1 -1 0 0 0 0];

internalField   nonuniform List<vector> 
34251
(
(-1.19924e+45 1.2893811e+44 1.129879e+44)
(-1.091313e+45 1.6064594e+44 -3.0603685e+43)
(-1.0644678e+45 9.0367276e+43 1.3338178e+44)
(-1.1640936e+45 6.0679875e+43 1.179094e+44)
(-1.0726292e+45 5.8842154e+43 1.4382181e+44)
(-1.1741158e+45 7.3385421e+43 1.2755307e+44)
(-1.1555551e+45 4.6052646e+43 -2.2690219e+43)
(-1.1500193e+45 4.7402546e+43 7.8839074e+43)
(-1.1607211e+45 6.2346165e+43 8.9234087e+43)
(-1.0446677e+45 8.1898227e+43 -1.3636335e+44)
(-8.2658285e+44 1.1290911e+44 -1.6704495e+43)
(-1.0403949e+45 4.7344303e+43 -1.3662798e+44)
(-8.2916253e+44 4.7030029e+43 -1.3529194e+43)
(-8.9343607e+44 5.1123901e+43 1.0369227e+44)
(-8.9232954e+44 4.2958844e+43 1.037306e+44)
(-1.0975589e+45 5.7450668e+43 1.2206114e+44)
(-1.0978343e+45 3.7448221e+43 1.2198505e+44)
(-9.0168574e+44 3.8875976e+43 1.1198955e+44)
(-9.0126957e+44 4.6943438e+43 1.040533e+44)
(-1.1082614e+45 6.0984323e+43 1.3569755e+44)
(-1.1138324e+45 3.7743403e+43 1.3132762e+44)
(-1.2148244e+45 5.9196186e+43 5.0155909e+43)
(-1.1621208e+45 4.4781702e+43 -2.3299709e+43)
(-1.1583834e+45 3.7132603e+43 -2.8352807e+43)
(-1.2080281e+45 3.9169217e+43 4.2583121e+43)
(-1.0277203e+45 3.1917414e+43 -4.1635776e+43)
(-1.0680906e+45 2.7565699e+43 -1.6615417e+43)
(-1.0364684e+45 2.5927831e+43 -4.2803115e+43)
(-1.0589244e+45 3.7862019e+43 -1.5360634e+43)
(-1.1669419e+45 4.8401399e+43 -1.5837013e+43)
(-1.1661945e+45 2.9542101e+43 -1.8434997e+43)
(-1.0694859e+45 3.7362754e+43 -5.789935e+43)
(-1.063987e+45 2.7318865e+43 -6.0306929e+43)
(-1.037684e+45 2.927353e+43 7.9643251e+43)
(-1.0404262e+45 4.7840175e+43 7.8974846e+43)
(-1.0461855e+45 4.9218623e+43 8.6092859e+43)
(-1.0475984e+45 2.8382302e+43 8.0980983e+43)
(-1.1325488e+45 4.9949477e+43 -1.0539927e+44)
(-1.1286207e+45 7.5045674e+43 -1.023457e+44)
(-9.715143e+44 3.6048577e+43 -1.2082131e+44)
(-1.0101465e+45 4.314692e+43 -1.0935441e+44)
(-1.0140095e+45 2.8447429e+43 -1.0842597e+44)
(-9.7073106e+44 4.1473865e+43 -1.2116021e+44)
(-7.9638098e+44 4.5928336e+43 -1.5319004e+44)
(-7.96544e+44 3.1568228e+43 -1.5378416e+44)
(-6.0134249e+44 3.1398594e+43 -3.9028266e+42)
(-5.9594236e+44 6.9121881e+43 -7.0418374e+42)
(-1.0178506e+45 2.8293038e+43 -1.1186123e+44)
(-1.0081724e+45 4.8050592e+43 -1.0996648e+44)
(-9.7087497e+44 3.6938634e+43 -1.2344346e+44)
(-9.7276473e+44 3.7860312e+43 -1.203316e+44)
(-7.9224117e+44 2.8734334e+43 -1.5479403e+44)
(-7.9867735e+44 4.1404593e+43 -1.5391238e+44)
(-6.0185047e+44 2.3326277e+43 -9.501526e+41)
(-6.0630387e+44 6.3457172e+43 -1.0793788e+42)
(-9.6112245e+44 2.503562e+43 1.0554702e+44)
(-7.5292271e+44 2.8759034e+43 8.4276227e+43)
(-9.6845111e+44 3.9705159e+43 1.0947058e+44)
(-7.5162261e+44 2.5372723e+43 8.4844814e+43)
(-9.6163714e+44 4.282023e+43 1.0737136e+44)
(-7.5309547e+44 2.9898036e+43 7.9923345e+43)
(-9.650595e+44 2.8085516e+43 1.0461183e+44)
(-9.6970973e+44 4.2434478e+43 1.1735659e+44)
(-7.5584569e+44 2.5535365e+43 8.2414328e+43)
(-9.6981408e+44 2.6717669e+43 1.1214005e+44)
(-7.5468459e+44 2.489915e+43 8.230732e+43)
(-7.5371189e+44 2.8600725e+43 8.2464042e+43)
(-9.6912943e+44 3.7737138e+43 1.0802231e+44)
(-9.6680363e+44 2.3659163e+43 1.074027e+44)
(-1.0942794e+45 4.7472281e+43 6.7258535e+43)
(-1.1009644e+45 2.8921924e+43 6.495524e+43)
(-1.057672e+45 3.8179818e+43 5.1329822e+42)
(-1.0594839e+45 2.8375556e+43 5.3781148e+41)
(-1.0435919e+45 2.5439609e+43 -4.3597311e+43)
(-1.03517e+45 3.2125733e+43 -4.2074665e+43)
(-1.0719415e+45 2.6877408e+43 -1.8282443e+43)
(-1.066879e+45 3.8068353e+43 -1.5793329e+43)
(-1.1745835e+45 4.7423938e+43 -1.6282961e+43)
(-1.0689062e+45 3.6454929e+43 -1.9999665e+43)
(-1.0354172e+45 3.0319897e+43 -4.7167233e+43)
(-1.0395743e+45 2.6412225e+43 -4.4281748e+43)
(-1.0686752e+45 2.7150101e+43 -1.8706322e+43)
(-1.1739714e+45 2.820289e+43 -2.0197141e+43)
(-1.0919487e+45 4.5766682e+43 6.0731267e+43)
(-1.0884774e+45 2.8742713e+43 6.1168969e+43)
(-1.0541035e+45 2.9186873e+43 1.5767366e+42)
(-1.0540816e+45 3.7985292e+43 7.0361657e+41)
(-1.0741031e+45 3.7292143e+43 -5.8265256e+43)
(-1.0701173e+45 2.664061e+43 -6.1200537e+43)
(-9.0544938e+44 2.2541733e+43 -4.0815624e+43)
(-9.0618904e+44 2.1969198e+43 -3.8012751e+43)
(-9.1453964e+44 2.4609725e+43 -3.1381335e+43)
(-1.0353592e+45 3.2838263e+43 -4.4181922e+43)
(-9.1512425e+44 2.2687491e+43 -3.3412116e+43)
(-8.9886682e+44 2.0807243e+43 -3.4325571e+43)
(-9.0058866e+44 2.1074252e+43 -3.3818031e+43)
(-9.1507454e+44 2.3927395e+43 -1.9973401e+43)
(-9.0805918e+44 2.0398474e+43 -4.0926229e+43)
(-9.1060317e+44 1.9690586e+43 -4.0269046e+43)
(-9.1884765e+44 2.0357748e+43 -3.341511e+43)
(-9.2026103e+44 2.2146986e+43 -3.3371722e+43)
(-1.0547637e+45 2.4347999e+43 -4.2501207e+43)
(-8.9555469e+44 2.2319455e+43 -3.4257218e+43)
(-8.9709045e+44 2.3760428e+43 -3.1277153e+43)
(-9.0593769e+44 2.6192816e+43 -1.9619742e+43)
(-9.0747273e+44 2.1879082e+43 -2.1273389e+43)
(-1.0172833e+45 3.0895867e+43 -5.9722639e+43)
(-1.0211727e+45 2.2613147e+43 -6.2315983e+43)
(-1.0035286e+45 2.900662e+43 -7.5323297e+43)
(-1.0303359e+45 2.9622108e+43 -5.5728225e+43)
(-9.0243739e+44 1.9345696e+43 -4.8296286e+43)
(-9.0716971e+44 2.2090686e+43 -4.1429136e+43)
(-8.9720047e+44 2.6302583e+43 -1.3017463e+43)
(-1.1774005e+45 4.5017226e+43 -3.4353748e+43)
(-9.517869e+44 3.0297688e+43 -8.8467158e+43)
(-1.0496678e+45 3.4634501e+43 -5.4074552e+43)
(-1.0612962e+45 2.3634637e+43 -5.1829407e+43)
(-9.5766065e+44 2.1258388e+43 -8.7854065e+43)
(-1.177698e+45 2.3918267e+43 -3.710959e+43)
(-9.3001398e+44 2.8734331e+43 -9.5279715e+43)
(-1.0342026e+45 3.1159022e+43 -7.3451943e+43)
(-1.022282e+45 3.7412248e+43 -1.1961e+44)
(-1.0198009e+45 1.6412989e+43 -1.198433e+44)
(-9.1332792e+44 3.6038101e+43 7.3072983e+43)
(-9.0964199e+44 3.5544432e+43 7.2120613e+43)
(-9.1019687e+44 2.1257835e+43 6.8503795e+43)
(-9.1462648e+44 1.9797572e+43 7.3297166e+43)
(-9.162041e+44 3.3886093e+43 7.1442786e+43)
(-9.1243902e+44 1.9464626e+43 7.1237208e+43)
(-1.1972332e+45 5.4982218e+43 -1.1471077e+44)
(-1.1931622e+45 4.9898775e+43 -1.1237988e+44)
(-1.030654e+45 3.7709609e+43 -1.3751683e+44)
(-9.950229e+44 3.8407605e+43 -8.6086928e+43)
(-9.9781384e+44 2.0080105e+43 -8.5859355e+43)
(-1.0280805e+45 3.2795316e+43 -1.3657862e+44)
(-8.292678e+44 2.0412847e+43 -1.386208e+44)
(-8.2856313e+44 3.0284377e+43 -1.3780191e+44)
(-6.965677e+44 2.6524826e+43 -1.6110825e+44)
(-6.9815012e+44 2.5143404e+43 -1.6209581e+44)
(-8.3016749e+44 2.0183093e+43 -1.3886588e+44)
(-8.2711298e+44 3.1175082e+43 -1.3848214e+44)
(-6.9668975e+44 2.6315048e+43 -1.6399796e+44)
(-6.9830669e+44 2.4114049e+43 -1.6094394e+44)
(-4.8830844e+44 2.531556e+43 -1.4539688e+44)
(-4.2839929e+44 3.8879767e+43 3.1834008e+43)
(-4.2472994e+44 1.3084012e+43 3.1387879e+43)
(-4.837132e+44 2.0895066e+43 -1.4677578e+44)
(-4.8528425e+44 2.180705e+43 -1.4462824e+44)
(-4.8574521e+44 2.5936069e+43 -1.4663882e+44)
(-4.2381602e+44 1.6874035e+43 3.2681774e+43)
(-1.0048266e+45 2.1257666e+43 -8.6314884e+43)
(-9.9205072e+44 4.116579e+43 -8.7402625e+43)
(-1.0298597e+45 3.6775733e+43 -1.3823234e+44)
(-1.0297277e+45 3.083725e+43 -1.3468983e+44)
(-8.3155196e+44 1.7854808e+43 -1.3972094e+44)
(-8.2903074e+44 3.0365648e+43 -1.401833e+44)
(-6.9653887e+44 2.3632183e+43 -1.6541362e+44)
(-6.9800139e+44 1.9940782e+43 -1.6259331e+44)
(-6.9519808e+44 2.2979091e+43 -1.6083563e+44)
(-8.2707245e+44 2.7588155e+43 -1.3649051e+44)
(-8.2761651e+44 1.8623268e+43 -1.3740824e+44)
(-6.9663462e+44 2.3390513e+43 -1.6245668e+44)
(-4.8182026e+44 1.7319095e+43 -1.4797179e+44)
(-4.8665061e+44 2.0121898e+43 -1.458134e+44)
(-4.3065595e+44 3.2531065e+43 3.2870931e+43)
(-4.8485956e+44 2.4315333e+43 -1.4602777e+44)
(-4.8482812e+44 1.7669113e+43 -1.4420518e+44)
(-4.2720979e+44 1.1627066e+43 3.3074452e+43)
(-4.2362551e+44 3.8004917e+43 2.8176208e+43)
(-6.5724508e+44 1.788639e+43 8.524464e+43)
(-6.5309852e+44 2.0875922e+43 7.8947824e+43)
(-8.3350574e+44 2.1225725e+43 1.0013838e+44)
(-8.3313359e+44 3.0696122e+43 1.0257957e+44)
(-6.5662218e+44 1.4191292e+43 8.5711038e+43)
(-6.5508089e+44 1.756335e+43 8.0131243e+43)
(-8.2891123e+44 2.9082737e+43 1.0241658e+44)
(-8.3078218e+44 1.9915653e+43 1.000306e+44)
(-8.3165991e+44 2.5804842e+43 9.6478378e+43)
(-6.5462514e+44 1.7155061e+43 7.9471397e+43)
(-6.5221067e+44 2.131999e+43 7.8534857e+43)
(-8.2908842e+44 1.8468376e+43 9.6102296e+43)
(-6.5776656e+44 1.3103722e+43 8.1779672e+43)
(-6.5524029e+44 1.7346077e+43 8.1037543e+43)
(-8.340318e+44 2.3600257e+43 1.0070272e+44)
(-8.3181859e+44 1.5463386e+43 1.0025847e+44)
(-6.5912525e+44 1.3567224e+43 8.4188145e+43)
(-6.5603132e+44 1.799452e+43 7.8470542e+43)
(-8.3464872e+44 2.7812912e+43 1.0116275e+44)
(-8.3524927e+44 1.9801022e+43 9.8813122e+43)
(-6.5824456e+44 1.690284e+43 8.2233998e+43)
(-6.5547255e+44 1.923613e+43 8.1752108e+43)
(-8.3409779e+44 2.5124657e+43 1.0064076e+44)
(-8.3055744e+44 1.5774027e+43 1.0024425e+44)
(-1.1217456e+45 2.7539881e+43 -1.139375e+44)
(-9.2115242e+44 2.0080846e+43 2.9947691e+43)
(-9.6672995e+44 2.1171255e+43 7.7084134e+43)
(-9.2178116e+44 2.0790773e+43 2.902106e+43)
(-9.2412748e+44 2.9290979e+43 2.9467869e+43)
(-9.6465762e+44 1.9565459e+43 7.4906418e+43)
(-9.6653547e+44 3.3876609e+43 7.4298561e+43)
(-9.3364535e+44 2.1540339e+43 1.1019445e+43)
(-9.0115165e+44 2.1917634e+43 -1.7239468e+43)
(-9.0305449e+44 2.2152284e+43 -1.7347611e+43)
(-9.0608742e+44 2.4849599e+43 -1.6433323e+43)
(-9.3658576e+44 2.8460995e+43 1.0318982e+43)
(-9.3477296e+44 2.0830724e+43 1.023513e+43)
(-9.1079673e+44 2.1238263e+43 -4.1568421e+43)
(-9.1459989e+44 2.0111218e+43 -4.0595371e+43)
(-9.2382244e+44 2.2743911e+43 -3.3730318e+43)
(-9.2086608e+44 2.1020345e+43 -3.4000004e+43)
(-1.0611953e+45 2.4160429e+43 -4.3433163e+43)
(-9.1304622e+44 2.2296251e+43 -3.8858581e+43)
(-9.0773382e+44 2.3191469e+43 -4.1946395e+43)
(-9.175811e+44 2.3340172e+43 -3.4600239e+43)
(-1.0424843e+45 3.2941246e+43 -4.4529346e+43)
(-9.016191e+44 2.2026336e+43 -3.4836076e+43)
(-9.0431535e+44 2.2164427e+43 -3.4122775e+43)
(-9.1663728e+44 2.4839103e+43 -2.1632656e+43)
(-9.1348815e+44 2.1987521e+43 -2.2047886e+43)
(-8.9854672e+44 2.3367994e+43 -3.5567127e+43)
(-9.1116443e+44 2.2783842e+43 -2.2370381e+43)
(-1.0270781e+45 2.1940404e+43 -6.3810791e+43)
(-1.0234153e+45 3.0539734e+43 -6.0977595e+43)
(-9.1132597e+44 2.5897758e+43 -2.2709012e+43)
(-9.0133774e+44 2.5133795e+43 -3.725249e+43)
(-8.9777382e+44 2.2597918e+43 -3.6777843e+43)
(-9.1648e+44 2.4239069e+43 -2.2377157e+43)
(-9.0580523e+44 2.0515244e+43 -4.3866067e+43)
(-9.2203917e+44 2.45657e+43 -3.6139604e+43)
(-9.1578975e+44 2.3400416e+43 -3.6532044e+43)
(-9.1185411e+44 2.4509474e+43 -4.3718923e+43)
(-1.0439047e+45 3.0510679e+43 -4.9186257e+43)
(-9.1237152e+44 2.2614458e+43 -3.8234409e+43)
(-9.115151e+44 2.250811e+43 -4.1143506e+43)
(-9.2106346e+44 2.4965304e+43 -3.3732143e+43)
(-1.0574395e+45 2.4489007e+43 -4.429567e+43)
(-9.201222e+44 2.229862e+43 -3.1785915e+43)
(-9.0109062e+44 2.3479142e+43 -3.2200201e+43)
(-9.1231892e+44 2.299223e+43 -1.9907624e+43)
(-9.012664e+44 2.451468e+43 -3.3878686e+43)
(-9.1306116e+44 2.6688649e+43 -2.1583773e+43)
(-1.0204832e+45 2.8768586e+43 -6.7095451e+43)
(-1.0270316e+45 2.408683e+43 -6.309926e+43)
(-9.2157877e+44 2.1989957e+43 2.7731017e+43)
(-9.214053e+44 3.0949344e+43 3.0445021e+43)
(-9.6101615e+44 2.2451498e+43 7.1370125e+43)
(-9.5877758e+44 3.6594198e+43 7.3502859e+43)
(-9.6467948e+44 3.573055e+43 7.5427474e+43)
(-9.2065914e+44 2.2726767e+43 3.2268628e+43)
(-9.2207061e+44 3.15157e+43 3.1010595e+43)
(-9.5912893e+44 2.1631942e+43 7.5678679e+43)
(-9.3273225e+44 3.0411121e+43 1.1054763e+43)
(-9.0310597e+44 2.6879226e+43 -1.5357318e+43)
(-9.0134207e+44 2.2967977e+43 -1.4233479e+43)
(-9.3179727e+44 2.2133228e+43 1.2595069e+43)
(-9.3325884e+44 3.1266275e+43 1.1184146e+43)
(-9.0331536e+44 2.3923776e+43 -1.8029381e+43)
(-8.9961434e+44 2.6204258e+43 -1.6919996e+43)
(-9.3492037e+44 2.3408958e+43 9.2906262e+42)
(-1.1805598e+45 4.2727746e+43 -3.4887744e+43)
(-9.5241728e+44 3.028883e+43 -8.9919083e+43)
(-1.0562281e+45 3.3075811e+43 -5.553467e+43)
(-1.067055e+45 2.1193037e+43 -5.4488621e+43)
(-9.5928806e+44 1.8331747e+43 -9.123662e+43)
(-1.1824039e+45 2.2171145e+43 -3.6836202e+43)
(-9.5321935e+44 2.8414664e+43 -9.5142524e+43)
(-1.0546917e+45 3.0636968e+43 -6.2280685e+43)
(-1.0616686e+45 2.1795554e+43 -5.6561878e+43)
(-9.5445439e+44 1.7914116e+43 -9.3994011e+43)
(-1.0251394e+45 3.6834333e+43 -1.2143993e+44)
(-1.0234926e+45 1.5625436e+43 -1.2187769e+44)
(-7.8506645e+44 1.7214867e+43 -2.7831961e+43)
(-7.8103484e+44 1.7449828e+43 -2.9747346e+43)
(-9.2087865e+44 2.2262885e+43 -3.4968027e+43)
(-7.8797668e+44 1.7506682e+43 -3.8692231e+43)
(-7.9101817e+44 1.692437e+43 -3.6886346e+43)
(-7.8711181e+44 1.9041162e+43 -2.5531035e+43)
(-7.8551387e+44 1.7685436e+43 -2.6262747e+43)
(-9.1970854e+44 2.3203389e+43 -3.3219456e+43)
(-7.9290608e+44 1.775241e+43 -3.4723398e+43)
(-7.951861e+44 1.9143223e+43 -3.3921568e+43)
(-7.6324352e+44 1.7863123e+43 -2.6300326e+43)
(-7.7029726e+44 1.8445215e+43 -2.3379439e+43)
(-7.6125946e+44 1.7349454e+43 -2.7518522e+43)
(-7.6921894e+44 1.7211848e+43 -2.4070195e+43)
(-9.1299175e+44 2.1710506e+43 -4.3132171e+43)
(-9.1557791e+44 2.1484989e+43 -3.8418292e+43)
(-7.6028802e+44 1.5673221e+43 -2.9117372e+43)
(-7.6856401e+44 1.6744778e+43 -2.5656817e+43)
(-7.5670682e+44 1.6931152e+43 -3.0820826e+43)
(-7.6491065e+44 1.6744883e+43 -2.6910842e+43)
(-7.535698e+44 1.4798872e+43 -2.7554723e+43)
(-7.5030543e+44 1.4389138e+43 -2.8860813e+43)
(-7.6389709e+44 1.5708229e+43 -2.4168936e+43)
(-7.6040734e+44 1.4423984e+43 -2.5042509e+43)
(-7.5169334e+44 1.5046336e+43 -2.835132e+43)
(-7.6230845e+44 1.6038569e+43 -2.4603958e+43)
(-7.528942e+44 1.5627461e+43 -2.8884843e+43)
(-7.6318112e+44 1.5435609e+43 -2.5113927e+43)
(-7.4652198e+44 1.525735e+43 -2.5238548e+43)
(-7.632641e+44 1.6723204e+43 -1.8529301e+43)
(-7.4709396e+44 1.4822503e+43 -2.5992447e+43)
(-7.6406934e+44 1.4662062e+43 -1.9102066e+43)
(-7.865241e+44 1.6146778e+43 -2.6555168e+43)
(-7.8348398e+44 1.4744945e+43 -2.8570179e+43)
(-9.2531973e+44 1.9895195e+43 -3.5552598e+43)
(-7.908552e+44 1.4701293e+43 -3.7285247e+43)
(-7.9243579e+44 1.5970721e+43 -3.5401085e+43)
(-7.8519023e+44 1.6847575e+43 -2.7349834e+43)
(-7.8581359e+44 1.6279341e+43 -2.8261135e+43)
(-9.2741806e+44 2.0054795e+43 -3.5297168e+43)
(-7.9315925e+44 1.6287348e+43 -3.6829258e+43)
(-7.9180433e+44 1.6703969e+43 -3.6190744e+43)
(-7.6152758e+44 1.4941129e+43 -2.7759428e+43)
(-7.7037581e+44 1.5873587e+43 -2.4625604e+43)
(-7.5885383e+44 1.4566533e+43 -2.9484128e+43)
(-7.6721944e+44 1.4592424e+43 -2.58194e+43)
(-7.6040429e+44 1.546016e+43 -2.8503012e+43)
(-7.683078e+44 1.6041525e+43 -2.5567802e+43)
(-7.6121721e+44 1.6087598e+43 -2.9333754e+43)
(-7.6972991e+44 1.5856148e+43 -2.5860084e+43)
(-9.1972736e+44 1.7376646e+43 -4.4148433e+43)
(-9.1617097e+44 2.0516716e+43 -4.5144588e+43)
(-7.5180272e+44 1.5512617e+43 -2.8359552e+43)
(-7.6217418e+44 1.651593e+43 -2.4706251e+43)
(-7.480136e+44 1.6170878e+43 -2.9824393e+43)
(-7.5859301e+44 1.6021346e+43 -2.5782293e+43)
(-7.5401764e+44 1.7590091e+43 -2.5779803e+43)
(-7.6386426e+44 1.8616216e+43 -2.2059265e+43)
(-7.5255091e+44 1.6756644e+43 -2.6905393e+43)
(-7.627395e+44 1.667671e+43 -2.3024353e+43)
(-7.4911722e+44 1.7936236e+43 -2.2431876e+43)
(-7.6294682e+44 1.907004e+43 -1.6649537e+43)
(-7.474008e+44 1.5953834e+43 -2.3851486e+43)
(-7.6245724e+44 1.5758954e+43 -1.7526447e+43)
(-7.4663037e+44 1.5738521e+43 -2.5267218e+43)
(-7.6221374e+44 1.7167403e+43 -1.8934912e+43)
(-7.4309981e+44 1.5355761e+43 -2.6643248e+43)
(-7.5869634e+44 1.5082998e+43 -1.9877755e+43)
(-9.2941193e+44 2.2187384e+43 -5.384713e+43)
(-9.2668889e+44 1.9858523e+43 -5.2228176e+43)
(-9.3429972e+44 2.2203212e+43 -3.9521032e+43)
(-9.3002137e+44 2.2074533e+43 -4.4993556e+43)
(-9.310981e+44 1.9648089e+43 -5.6048077e+43)
(-9.3112856e+44 1.536068e+43 -5.6288304e+43)
(-9.4287652e+44 1.788642e+43 -4.2660761e+43)
(-9.3607204e+44 1.9804586e+43 -4.5985209e+43)
(-9.3636018e+44 2.6629644e+43 -6.2133445e+43)
(-9.3586155e+44 1.5907333e+43 -6.2605431e+43)
(-9.329881e+44 1.8119247e+43 -5.4142963e+43)
(-9.3635471e+44 2.623113e+43 -5.2343116e+43)
(-9.1492329e+44 1.9548535e+43 -4.5667697e+43)
(-9.162619e+44 1.8296064e+43 -4.9689254e+43)
(-9.1877831e+44 2.4075117e+43 -4.4154956e+43)
(-9.1708874e+44 2.4901431e+43 -5.0263667e+43)
(-9.2981847e+44 1.9971512e+43 -5.6228575e+43)
(-7.8196275e+44 1.9342276e+43 -3.1797017e+43)
(-7.8825136e+44 1.8796489e+43 -4.1108635e+43)
(-7.7783054e+44 1.6076321e+43 -3.252197e+43)
(-7.8035968e+44 1.7347928e+43 -3.2628604e+43)
(-7.8932166e+44 1.7345372e+43 -4.1281892e+43)
(-7.8556003e+44 1.5993236e+43 -4.1417274e+43)
(-7.538833e+44 1.4875492e+43 -3.2986935e+43)
(-7.6063736e+44 1.5542965e+43 -2.9865214e+43)
(-7.5586274e+44 1.7155311e+43 -3.3134829e+43)
(-7.5151167e+44 1.6176883e+43 -2.1873556e+43)
(-7.5283583e+44 1.8184847e+43 -1.939294e+43)
(-7.7120727e+44 1.976609e+43 -1.2867547e+43)
(-7.5181316e+44 1.5367779e+43 -2.0748328e+43)
(-1.0536505e+45 2.6506294e+43 -4.5171193e+43)
(-1.0463343e+45 3.3132672e+43 -4.2060625e+43)
(-9.0076443e+44 2.2652996e+43 -6.9986523e+43)
(-8.9964536e+44 1.8002954e+43 -7.1224537e+43)
(-9.2228852e+44 2.080106e+43 -1.0258978e+44)
(-9.1697033e+44 2.1358607e+43 -1.0407825e+44)
(-9.8413067e+44 2.4637922e+43 -5.8209707e+43)
(-9.7929684e+44 2.4538882e+43 -5.7969284e+43)
(-9.484667e+44 2.0885325e+43 -5.5409937e+43)
(-9.4100024e+44 2.0597349e+43 -6.676429e+43)
(-9.4269655e+44 2.1639058e+43 -6.9532513e+43)
(-9.5114625e+44 2.4188424e+43 -5.7166659e+43)
(-9.5750785e+44 1.6426749e+43 -5.5976389e+43)
(-9.4302229e+44 1.6103124e+43 -7.3489549e+43)
(-9.4603185e+44 1.8006489e+43 -7.0193356e+43)
(-9.5442296e+44 1.8549321e+43 -5.689816e+43)
(-9.2786128e+44 1.9010415e+43 -1.0242103e+44)
(-9.231873e+44 1.7085934e+43 -1.0628926e+44)
(-9.8635035e+44 1.856802e+43 -6.0945545e+43)
(-9.8350373e+44 1.8313087e+43 -6.4073894e+43)
(-8.9708461e+44 2.6951629e+43 -7.109624e+43)
(-1.0400821e+45 3.1290941e+43 -4.774934e+43)
(-8.9808757e+44 2.1724517e+43 -6.7624842e+43)
(-9.1841101e+44 2.5472615e+43 -1.0659414e+44)
(-9.1553712e+44 1.7002021e+43 -1.0829408e+44)
(-9.8823873e+44 2.8629028e+43 -7.5228987e+43)
(-9.8656556e+44 1.7555819e+43 -7.9970378e+43)
(-9.4941619e+44 1.4817755e+43 -8.3644395e+43)
(-9.4894502e+44 2.6119145e+43 -8.1353599e+43)
(-9.5582002e+44 1.5606341e+43 -6.9396878e+43)
(-9.5878064e+44 2.8833875e+43 -6.6477441e+43)
(-9.4313151e+44 2.2420147e+43 -7.4589733e+43)
(-9.5402385e+44 2.1203346e+43 -5.5872316e+43)
(-9.6617837e+44 1.9621207e+43 -1.1753469e+44)
(-9.6651901e+44 2.8284251e+43 -1.1643098e+44)
(-7.8700779e+44 2.669247e+43 7.4124896e+43)
(-7.864244e+44 1.6425593e+43 7.1025699e+43)
(-7.8237108e+44 2.4819151e+43 7.5386511e+43)
(-7.8337109e+44 1.4598202e+43 7.2227532e+43)
(-7.8574469e+44 2.4515084e+43 7.056822e+43)
(-7.8266855e+44 1.5896286e+43 7.0320463e+43)
(-7.864655e+44 2.1919872e+43 7.2755885e+43)
(-7.8335685e+44 1.2440522e+43 7.2386844e+43)
(-7.8737878e+44 2.3501497e+43 7.365807e+43)
(-7.8744407e+44 1.4563376e+43 7.0573646e+43)
(-7.8757487e+44 2.3919445e+43 7.3661805e+43)
(-7.8348953e+44 1.3256832e+43 7.3823012e+43)
(-1.2135398e+45 4.6739501e+43 -6.7563914e+43)
(-1.2102727e+45 4.0616934e+43 -6.4375658e+43)
(-1.0521429e+45 3.3030113e+43 -1.138487e+44)
(-8.3306513e+44 1.5698292e+43 -1.4253232e+44)
(-8.3595157e+44 2.9314725e+43 -1.444509e+44)
(-1.0328285e+45 3.6195012e+43 -6.4686381e+43)
(-1.0391589e+45 2.1306274e+43 -6.5475566e+43)
(-1.0526149e+45 2.7711117e+43 -1.144047e+44)
(-8.3369699e+44 2.9616345e+43 -1.4338244e+44)
(-8.3341851e+44 1.5946472e+43 -1.4342529e+44)
(-7.2966122e+44 2.5169974e+43 -1.7466951e+44)
(-7.310796e+44 2.165085e+43 -1.7532097e+44)
(-7.3020349e+44 2.4040604e+43 -1.7678431e+44)
(-7.3107309e+44 2.0910325e+43 -1.7419017e+44)
(-5.035594e+44 1.5222108e+43 -1.4720802e+44)
(-5.0176088e+44 1.2065139e+43 -1.4814801e+44)
(-3.6366089e+44 1.3708424e+43 -1.6042637e+44)
(-3.6439926e+44 1.3189012e+43 -1.6162047e+44)
(-2.8511245e+44 1.4779038e+43 -4.8852926e+43)
(-2.7848528e+44 1.7588634e+43 -5.8434714e+43)
(-4.119748e+44 8.0281277e+42 6.0404246e+43)
(-4.0422788e+44 2.0065597e+43 5.4530674e+43)
(-2.8201783e+44 1.5560966e+43 -5.484998e+43)
(-2.8693683e+44 1.5087202e+43 -4.8125228e+43)
(-4.103031e+44 4.0795646e+42 5.9041774e+43)
(-4.1370649e+44 1.6043438e+43 6.0727653e+43)
(-3.6325098e+44 1.6171953e+43 -1.6467039e+44)
(-5.0399918e+44 1.1861438e+43 -1.4860824e+44)
(-5.0428255e+44 1.7311177e+43 -1.5079487e+44)
(-3.6568889e+44 1.1337498e+43 -1.6030567e+44)
(-5.0172428e+44 1.7874721e+43 -1.4842925e+44)
(-5.0170824e+44 1.3550616e+43 -1.4688826e+44)
(-3.6149436e+44 1.6859827e+43 -1.6195448e+44)
(-3.6418719e+44 1.3763814e+43 -1.5855977e+44)
(-5.0507467e+44 1.6531265e+43 -1.4800906e+44)
(-5.0383626e+44 1.2454336e+43 -1.4936498e+44)
(-3.6439602e+44 1.610658e+43 -1.6019145e+44)
(-2.7980254e+44 1.6593043e+43 -5.1730941e+43)
(-2.8294093e+44 1.8260226e+43 -5.0358172e+43)
(-4.1045981e+44 2.0219794e+43 6.0036286e+43)
(-4.0903887e+44 7.9596746e+42 6.0328438e+43)
(-1.0501831e+45 2.3251933e+43 -7.0443221e+43)
(-1.0309464e+45 3.6951746e+43 -6.6149319e+43)
(-1.0518444e+45 3.1684685e+43 -1.1527556e+44)
(-8.3573988e+44 2.7897837e+43 -1.4549759e+44)
(-8.3638123e+44 1.3686847e+43 -1.4320124e+44)
(-1.0526674e+45 2.7070978e+43 -1.1041816e+44)
(-8.3364992e+44 1.5155278e+43 -1.4176103e+44)
(-8.3275947e+44 2.7481684e+43 -1.413004e+44)
(-7.2860771e+44 2.0814923e+43 -1.7737263e+44)
(-7.2957762e+44 1.7225744e+43 -1.7526942e+44)
(-7.2810539e+44 2.2406397e+43 -1.74045e+44)
(-7.2989277e+44 2.0751703e+43 -1.7530512e+44)
(-5.0381386e+44 9.5003719e+42 -1.4993339e+44)
(-5.0411474e+44 1.5118863e+43 -1.5254049e+44)
(-3.6250635e+44 8.1213486e+42 -1.6259208e+44)
(-3.6015887e+44 1.0677478e+43 -1.6231155e+44)
(-3.6200747e+44 9.0551744e+42 -1.6351902e+44)
(-5.0186931e+44 8.876086e+42 -1.4927298e+44)
(-5.0241114e+44 1.2532687e+43 -1.4841282e+44)
(-2.8593706e+44 1.1442805e+43 -4.6784673e+43)
(-2.8090879e+44 1.3218829e+43 -5.6242972e+43)
(-4.1710897e+44 3.5892394e+42 6.0821602e+43)
(-4.1061023e+44 1.6043339e+43 5.5754878e+43)
(-3.6265992e+44 1.4413746e+43 -1.614605e+44)
(-3.63236e+44 1.2674177e+43 -1.6305832e+44)
(-5.0146074e+44 1.1797797e+43 -1.4907995e+44)
(-5.0308746e+44 1.5284231e+43 -1.4793886e+44)
(-3.591148e+44 1.3590524e+43 -1.63486e+44)
(-3.6283449e+44 1.1503506e+43 -1.6002968e+44)
(-5.0130166e+44 1.1415529e+43 -1.4708923e+44)
(-5.0037953e+44 1.5196527e+43 -1.4838111e+44)
(-2.8087576e+44 1.3297434e+43 -5.1773924e+43)
(-2.8578009e+44 1.5690943e+43 -4.8711426e+43)
(-4.1254763e+44 3.0418919e+42 5.8512693e+43)
(-4.1563666e+44 1.7184347e+43 5.9591416e+43)
(-2.8637761e+44 1.6484231e+43 -4.7573042e+43)
(-2.8031949e+44 1.7488288e+43 -5.7635111e+43)
(-4.1483506e+44 8.7537493e+42 6.0969592e+43)
(-4.0731717e+44 1.9469438e+43 5.5622643e+43)
(-1.0674418e+45 2.4900794e+43 3.0087029e+43)
(-5.716914e+44 1.6055944e+43 8.1916389e+43)
(-5.7295734e+44 9.7514526e+42 8.6584231e+43)
(-7.2456163e+44 2.2413673e+43 8.9072168e+43)
(-7.2678499e+44 1.5592778e+43 8.9908363e+43)
(-5.6689554e+44 1.6606799e+43 8.1227315e+43)
(-5.6688864e+44 9.6714056e+42 8.048082e+43)
(-7.2535435e+44 1.8901749e+43 8.5496707e+43)
(-7.2409298e+44 1.2958963e+43 8.5463944e+43)
(-5.7415544e+44 1.1286413e+43 8.4057745e+43)
(-5.7388183e+44 5.3310555e+42 8.7981748e+43)
(-7.2446802e+44 1.9825584e+43 9.1931649e+43)
(-7.2468701e+44 1.2616426e+43 9.0544128e+43)
(-5.6958801e+44 1.5364919e+43 8.2949115e+43)
(-5.6992953e+44 7.181375e+42 8.2954916e+43)
(-7.2685305e+44 1.697151e+43 8.8757494e+43)
(-7.2476741e+44 1.1395496e+43 8.6718124e+43)
(-5.7070771e+44 1.6969671e+43 8.0533185e+43)
(-5.7092456e+44 7.8638524e+42 8.4876628e+43)
(-7.2728884e+44 2.0595832e+43 8.7799118e+43)
(-7.2650459e+44 1.5719946e+43 8.585939e+43)
(-5.6752634e+44 1.7093434e+43 8.1987241e+43)
(-5.664968e+44 1.1215155e+43 8.0625143e+43)
(-7.2539355e+44 1.9750647e+43 8.7792091e+43)
(-7.2247596e+44 1.3004228e+43 8.6149913e+43)
(-5.7386951e+44 1.2326013e+43 8.1919096e+43)
(-5.7331396e+44 3.5209684e+42 8.5398861e+43)
(-7.2862806e+44 1.7454752e+43 8.917024e+43)
(-7.2832713e+44 1.2238191e+43 8.7609567e+43)
(-5.6960679e+44 1.3541904e+43 8.3433112e+43)
(-5.6928469e+44 6.6358922e+42 8.206732e+43)
(-7.2709742e+44 1.6286192e+43 8.9682743e+43)
(-7.2444115e+44 9.1918015e+42 8.8048843e+43)
(-5.7264782e+44 1.1995353e+43 8.2209553e+43)
(-5.7175009e+44 4.5635428e+42 8.5543345e+43)
(-7.2791059e+44 1.9075604e+43 8.994595e+43)
(-7.2975562e+44 1.248105e+43 9.0002531e+43)
(-5.7001545e+44 1.5220034e+43 8.2099597e+43)
(-5.6883792e+44 6.6862006e+42 8.064011e+43)
(-7.2834956e+44 1.6727917e+43 8.5651858e+43)
(-7.2723854e+44 1.1173774e+43 8.5602893e+43)
(-5.7386822e+44 1.5150346e+43 8.1923522e+43)
(-5.7267789e+44 6.8887163e+42 8.5088949e+43)
(-7.2922697e+44 2.0121111e+43 8.9306473e+43)
(-7.2865176e+44 1.4466151e+43 8.800061e+43)
(-5.7108568e+44 1.4420134e+43 8.4251193e+43)
(-5.7005134e+44 9.9756993e+42 8.2538034e+43)
(-7.2728642e+44 1.8000748e+43 9.0643239e+43)
(-7.2446208e+44 1.0079192e+43 8.9043882e+43)
(-1.1237443e+45 2.729678e+43 -1.1531957e+44)
(-7.8644779e+44 1.8227975e+43 1.0047059e+43)
(-8.1731599e+44 2.0269019e+43 3.5746079e+43)
(-7.8311389e+44 1.3759212e+43 9.0796162e+42)
(-8.1504427e+44 1.3061623e+43 3.5284918e+43)
(-7.9724216e+44 2.0405528e+43 5.1373603e+43)
(-8.3239664e+44 2.3071873e+43 8.1840691e+43)
(-7.9483735e+44 1.2064851e+43 5.0852354e+43)
(-8.302574e+44 1.223738e+43 8.205987e+43)
(-7.8848914e+44 2.0070422e+43 1.1097607e+43)
(-7.8434883e+44 1.4563697e+43 1.0480004e+43)
(-8.177434e+44 2.2052498e+43 3.5949607e+43)
(-8.1514052e+44 1.4140067e+43 3.6117051e+43)
(-7.8668086e+44 1.9499298e+43 1.0553775e+43)
(-7.8787581e+44 1.4487435e+43 9.1735198e+42)
(-8.1648908e+44 2.2682759e+43 3.5820156e+43)
(-8.1802922e+44 1.5236556e+43 3.4394753e+43)
(-7.9805336e+44 2.2822772e+43 5.2451744e+43)
(-8.3339252e+44 2.4620792e+43 8.2422673e+43)
(-7.9512032e+44 1.3391634e+43 5.2624697e+43)
(-8.3027721e+44 1.3042307e+43 8.3208058e+43)
(-7.9779001e+44 2.2074832e+43 5.2227926e+43)
(-7.9794377e+44 1.3653426e+43 4.9922611e+43)
(-8.3207111e+44 2.5500759e+43 8.1726924e+43)
(-8.3386674e+44 1.5399002e+43 8.0290664e+43)
(-7.6364695e+44 1.6828873e+43 -1.4673542e+43)
(-7.6061888e+44 1.5159898e+43 -1.5847519e+43)
(-7.931593e+44 1.8784613e+43 3.0893735e+42)
(-7.900848e+44 1.4571301e+43 2.1730934e+42)
(-7.5294411e+44 1.6476777e+43 -2.2992547e+43)
(-7.4932368e+44 1.5884709e+43 -2.415615e+43)
(-7.7274554e+44 1.7595892e+43 -1.6315808e+43)
(-7.693064e+44 1.5743302e+43 -1.737572e+43)
(-7.5194437e+44 1.6226038e+43 -2.2833952e+43)
(-7.5619901e+44 1.7526654e+43 -2.1627987e+43)
(-7.7538099e+44 1.8671668e+43 -1.5463152e+43)
(-7.7152204e+44 1.6190724e+43 -1.6189635e+43)
(-7.5431612e+44 1.7092727e+43 -2.235154e+43)
(-7.553499e+44 1.5954236e+43 -2.3039331e+43)
(-7.7393144e+44 1.8613192e+43 -1.5726865e+43)
(-7.7490996e+44 1.619874e+43 -1.6528424e+43)
(-7.6519602e+44 1.7863854e+43 -1.3873283e+43)
(-7.6577197e+44 1.5479189e+43 -1.5042211e+43)
(-7.9291746e+44 1.9947628e+43 2.8092965e+42)
(-7.9468715e+44 1.5506015e+43 2.0126069e+42)
(-7.6626379e+44 1.8371618e+43 -1.3391048e+43)
(-7.6237407e+44 1.5818701e+43 -1.4358673e+43)
(-7.95004e+44 2.0156728e+43 3.5136923e+42)
(-7.9124948e+44 1.5281772e+43 3.0155265e+42)
(-7.8781898e+44 1.7642223e+43 -2.7547162e+43)
(-7.8390762e+44 1.7059823e+43 -2.9190443e+43)
(-9.2685866e+44 2.057838e+43 -3.6167165e+43)
(-7.9125152e+44 1.7039425e+43 -3.7904774e+43)
(-7.952495e+44 1.72982e+43 -3.5635095e+43)
(-7.868854e+44 1.8031046e+43 -2.8432828e+43)
(-7.8829573e+44 1.7610699e+43 -2.7685085e+43)
(-9.3115596e+44 2.0090982e+43 -3.5520703e+43)
(-7.9446307e+44 1.7475694e+43 -3.6775069e+43)
(-7.9448329e+44 1.7879812e+43 -3.697865e+43)
(-7.6213307e+44 1.6885283e+43 -2.9199319e+43)
(-7.7055517e+44 1.7471761e+43 -2.5919207e+43)
(-7.6323808e+44 1.7620862e+43 -2.9122655e+43)
(-7.717047e+44 1.7306577e+43 -2.5617983e+43)
(-7.6320224e+44 1.6643777e+43 -2.8170142e+43)
(-7.7240549e+44 1.7561641e+43 -2.4802401e+43)
(-7.5960653e+44 1.708952e+43 -2.9960982e+43)
(-7.6822017e+44 1.7013165e+43 -2.6056662e+43)
(-9.2435004e+44 1.6879232e+43 -4.4308143e+43)
(-9.1810992e+44 2.0823832e+43 -4.5781985e+43)
(-7.9037644e+44 1.7919369e+43 -2.6453193e+43)
(-9.2700237e+44 2.3770255e+43 -3.3994573e+43)
(-7.9961131e+44 1.9603305e+43 -3.440323e+43)
(-7.984235e+44 1.7863908e+43 -3.4939978e+43)
(-7.8457474e+44 1.7591556e+43 -2.9798981e+43)
(-7.8117017e+44 1.8545501e+43 -3.0024101e+43)
(-9.2267659e+44 2.2717288e+43 -3.6074054e+43)
(-7.9151362e+44 1.7438663e+43 -3.8467352e+43)
(-7.8681231e+44 1.855893e+43 -3.9333186e+43)
(-7.5995225e+44 1.6211702e+43 -3.0615593e+43)
(-7.566193e+44 1.8229489e+43 -3.142295e+43)
(-7.6893133e+44 1.7242899e+43 -2.6909379e+43)
(-7.6490216e+44 1.802674e+43 -2.7525657e+43)
(-9.1563522e+44 2.2172137e+43 -4.4186227e+43)
(-9.2426993e+44 2.1959963e+43 -3.9788912e+43)
(-7.5564757e+44 1.6672715e+43 -2.752774e+43)
(-7.5146335e+44 1.6855092e+43 -2.9015695e+43)
(-7.6623385e+44 1.7637481e+43 -2.4205794e+43)
(-7.6207952e+44 1.6798716e+43 -2.5192641e+43)
(-7.5377907e+44 1.6584764e+43 -2.8649843e+43)
(-7.6467048e+44 1.7550827e+43 -2.4952525e+43)
(-7.5482391e+44 1.7210122e+43 -2.8707898e+43)
(-7.6556909e+44 1.7048204e+43 -2.509507e+43)
(-7.4913642e+44 1.6826533e+43 -2.5545964e+43)
(-7.6496448e+44 1.8097549e+43 -1.9280106e+43)
(-7.4987078e+44 1.6562968e+43 -2.6046178e+43)
(-7.6608915e+44 1.6204025e+43 -1.9596419e+43)
(-7.5066337e+44 1.7131311e+43 -2.4662906e+43)
(-7.6690681e+44 1.8499298e+43 -1.8402864e+43)
(-7.4666179e+44 1.64433e+43 -2.5937606e+43)
(-7.6241959e+44 1.6277775e+43 -1.9319516e+43)