/*--------------------------------*- C++ -*----------------------------------*\
  =========                 |
  \\      /  F ield         | OpenFOAM: The Open Source CFD Toolbox
   \\    /   O peration     | Website:  https://openfoam.org
    \\  /    A nd           | Version:  7
     \\/     M anipulation  |
\*---------------------------------------------------------------------------*/
FoamFile
{
    version     2.0;
    format      ascii;
    class       volScalarField;
    location    "2000";
    object      k;
}
// * * * * * * * * * * * * * * * * * * * * * * * * * * * * * * * * * * * * * //

dimensions      [0 2 -2 0 0 0 0];

internalField   nonuniform List<scalar> 
34387
(
1.5181801
1.5164845
1.5141701
1.52021
1.5197627
1.518178
1.5182317
1.518232
1.518036
1.5180335
1.5164531
1.5162505
1.5165679
1.5165838
1.5162942
1.5164827
1.5164705
1.5162567
1.5163022
1.5144492
1.5144158
1.5141589
1.5200332
1.5191938
1.520216
1.5202213
1.5202581
1.5202485
1.520214
1.523392
1.5197665
1.5199544
1.5199574
1.5194914
1.5195146
1.5181793
1.5182239
1.518052
1.5182237
1.5180501
1.5175054
1.517515
1.5168408
1.5168311
1.5164254
1.516523
1.5165094
1.5162303
1.5162689
1.5164615
1.5164556
1.5162335
1.5162756
1.5153183
1.5160133
1.5161307
1.5161699
1.5153342
1.5160412
1.5158556
1.5158446
1.5152015
1.5152234
1.5146013
1.5145895
1.5144482
1.5145615
1.5144184
1.5142245
1.5171939
1.524198
1.5200028
1.519874
1.5198247
1.5198627
1.5199122
1.5216695
1.5191056
1.5202217
1.5202344
1.5202731
1.5202618
1.5202328
1.5183557
1.5191687
1.5191758
1.5183889
1.5229324
1.5234236
1.5231553
1.523465
1.5234398
1.5231181
1.5197611
1.5199012
1.519907
1.5195115
1.5194835
1.5214778
1.5215388
1.5190387
1.5190244
1.5181766
1.5182226
1.5180684
1.5182191
1.5180659
1.517491
1.5168316
1.5175005
1.5168255
1.5174767
1.5174935
1.5167225
1.516714
1.5163986
1.5164448
1.5164464
1.5162501
1.5162092
1.5162069
1.5164748
1.5164795
1.5162464
1.5160952
1.5160646
1.5152963
1.5159881
1.5153081
1.5160153
1.5158444
1.5158325
1.5151771
1.5151962
1.5150416
1.5153281
1.5149792
1.5160537
1.5161088
1.5150514
1.5153036
1.5149964
1.5158893
1.5158997
1.5151758
1.5151835
1.5146357
1.5150046
1.5146243
1.5146598
1.5145868
1.5144644
1.5148842
1.5145992
1.5144376
1.5140855
1.5197375
1.5172455
1.5171656
1.5172412
1.5170552
1.5170833
1.5171172
1.5170458
1.5170734
1.5171518
1.5257624
1.5242244
1.5198349
1.5197946
1.5199722
1.5198524
1.5198838
1.5179886
1.5173676
1.5173986
1.5180087
1.5215029
1.5190339
1.5202278
1.5202863
1.5202749
1.5202381
1.520238
1.518297
1.5191585
1.5191685
1.5183321
1.5182662
1.5190694
1.5191391
1.5183043
1.521603
1.5228455
1.5228773
1.5227122
1.5226655
1.5228492
1.5234409
1.5232043
1.5234902
1.5234682
1.5231855
1.5251049
1.5264983
1.526351
1.524967
1.5197187
1.5198681
1.5198677
1.5195064
1.5194722
1.5215981
1.5215632
1.5190482
1.5190564
1.5216025
1.521634
1.5190126
1.5190366
1.5182183
1.5181635
1.5180785
1.5182169
1.5180734
1.5174774
1.5168281
1.5174867
1.5168163
1.5174569
1.516677
1.5175045
1.516678
1.5174216
1.5174265
1.5166451
1.5166441
1.5163722
1.5164331
1.5164502
1.51645
1.5162195
1.5161782
1.5161811
1.5162221
1.5164343
1.5158158
1.5158273
1.5151708
1.5159903
1.5151492
1.5159533
1.5152655
1.5160184
1.5160424
1.5152863
1.5160035
1.5159959
1.5150229
1.5152729
1.5149581
1.5150329
1.5152885
1.5149701
1.5158609
1.5158031
1.5151787
1.5151791
1.5147031
1.5150469
1.5152256
1.5148356
1.5160586
1.516098
1.5147102
1.5150483
1.5152434
1.5148649
1.5157859
1.515773
1.515108
1.5151195
1.5146151
1.5149493
1.5146197
1.5146529
1.5145735
1.5143918
1.5147865
1.5146017
1.5143627
1.514651
1.5216153
1.5197648
1.5197499
1.51971
1.5195271
1.5195313
1.5162002
1.5172311
1.5171382
1.5170352
1.51706
1.5172277
1.5170513
1.5170258
1.5170814
1.51711
1.5161732
1.5162402
1.5170041
1.5162566
1.5170121
1.5159905
1.5163852
1.5163929
1.51602
1.5257474
1.5242402
1.517348
1.5173128
1.5198022
1.5199323
1.51976
1.5198267
1.5198586
1.5179546
1.5179769
1.5178305
1.5171866
1.5172495
1.517911
1.5246873
1.5213949
1.5189646
1.5202964
1.5202346
1.5202397
1.5202396
1.5202843
1.5191399
1.5191554
1.5182422
1.5182751
1.5181446
1.5190428
1.5190709
1.5181629
1.518134
1.5190116
1.5190239
1.5181698
1.5234604
1.5216777
1.5220256
1.5219158
1.521879
1.5219672
1.522773
1.522627
1.5226672
1.5228254
1.5228099
1.5260692
1.525631
1.5257078
1.5261691
1.5234667
1.5235063
1.523488
1.5232548
1.5232918
1.5253028
1.5267076
1.5266057
1.5252
1.5252882
1.5269741
1.5267585
1.5252166
1.519659
1.5198342
1.5198371
1.5194893
1.5194474
1.5216629
1.521619
1.5190705
1.5190791
1.5216831
1.5216916
1.5190281
1.5189743
1.5216165
1.5216516
1.5189429
1.5189384
1.5174562
1.5182064
1.5181469
1.5180817
1.5182026
1.5180721
1.516817
1.5174724
1.5168006
1.5174521
1.5166896
1.5174635
1.5166965
1.5174085
1.5166428
1.5174172
1.5166462
1.5163464
1.5164238
1.51641
1.5164141
1.5161924
1.5161507
1.5161452
1.5161876
1.5164282
1.515797
1.515974
1.5159973
1.5152444
1.5159532
1.515218
1.515909
1.5151208
1.5151428
1.5158116
1.5157825
1.5157745
1.5151798
1.5149419
1.5150081
1.5149248
1.515142
1.5149934
1.5152131
1.5159872
1.5160062
1.5152303
1.5160231
1.5160011
1.514685
1.5150302
1.5151893
1.5148313
1.5146954
1.5150045
1.5152065
1.5148561
1.5157601
1.5157473
1.5150917
1.5151012
1.5145962
1.5149331
1.5146169
1.5146426
1.5145575
1.5145988
1.5147788
1.5145752
1.5145009
1.5141278
1.5252358
1.5214157
1.5210278
1.5217027
1.5217303
1.5211279
1.5173035
1.5172586
1.5197448
1.5197404
1.5196943
1.5195677
1.5195614
1.5170956
1.5171114
1.5160311
1.5161417
1.5172137
1.5171051
1.5172156
1.5170368
1.5170136
1.5170298
1.5170059
1.5170469
1.5170714
1.5162173
1.516998
1.5162329
1.5170047
1.516164
1.5163789
1.5163743
1.5159493
1.5159702
1.5160109
1.5167813
1.5163285
1.5170399
1.5167844
1.5163362
1.5170325
1.5159264
1.5163251
1.5163307
1.515986
1.526582
1.5257515
1.5242385
1.5171878
1.5171235
1.5172944
1.5198953
1.5197632
1.5197257
1.5198271
1.5197963
1.5172533
1.5179192
1.5179451
1.5177823
1.5178258
1.5177363
1.5170631
1.5170909
1.5177617
1.5242302
1.5247083
1.5213155
1.518905
1.5191108
1.5202948
1.5202419
1.5203092
1.5202338
1.5202374
1.5181868
1.5182223
1.5191313
1.5190609
1.5191013
1.518115
1.5180943
1.5180679
1.5190052
1.5190103
1.5180959
1.5246844
1.523879
1.5246289
1.5243687
1.5239676
1.5241926
1.5217372
1.5219039
1.5220341
1.5219755
1.5218751
1.5263547
1.5266443
1.5264541
1.526232
1.5227124
1.5225869
1.522785
1.5226188
1.5227768
1.5257707
1.5257425
1.5262399
1.5263091
1.5263693
1.5260995
1.5262334
1.5263697
1.5234997
1.5235221
1.5235062
1.5233445
1.523382
1.5268671
1.5267771
1.525389
1.5254937
1.5254809
1.5271043
1.5270513
1.525358
1.5253741
1.5270785
1.5269653
1.525271
1.5195976
1.5197955
1.5194062
1.5194538
1.5197989
1.5217224
1.5216838
1.5190881
1.5190842
1.5217481
1.5217277
1.5189916
1.5189825
1.5217
1.5216702
1.5189445
1.518946
1.5174584
1.5174406
1.5181301
1.5181863
1.5181801
1.5180581
1.5180746
1.5168001
1.5174118
1.5167854
1.5167295
1.517502
1.5166857
1.5174003
1.5166501
1.5174047
1.5166517
1.5163234
1.5163889
1.516121
1.5161629
1.5163905
1.5161581
1.5163889
1.5163722
1.5161158
1.5159261
1.5157645
1.515785
1.5151073
1.5159086
1.5150803
1.5158627
1.5151728
1.5152006
1.5159553
1.5157551
1.5159459
1.5159495
1.5149754
1.5151934
1.5149083
1.5149573
1.5151621
1.5148886
1.5151149
1.5151193
1.5157999
1.5157379
1.5157414
1.5150797
1.5148228
1.5146712
1.5149444
1.5147925
1.5146662
1.5150608
1.514995
1.5151503
1.5159628
1.5159844
1.5151702
1.5145705
1.5146282
1.5149188
1.5147642
1.5145864
1.514492
1.5143903
1.514199
1.5144039
1.5143147
1.5213397
1.5251292
1.525171
1.5254274
1.5255191
1.5253748
1.5212764
1.521644
1.5216072
1.5209805
1.5210565
1.517767
1.5192945
1.519388
1.5178085
1.5171917
1.5172495
1.5171311
1.5172159
1.5197286
1.5197187
1.5196779
1.5195865
1.5195799
1.5170817
1.5170989
1.5169737
1.517004
1.5160101
1.5160005
1.5161294
1.5170764
1.517185
1.5171843
1.5169944
1.5170144
1.5170177
1.5169869
1.5170077
1.5170422
1.516099
1.5162098
1.5169986
1.5161944
1.5169942
1.5163734
1.5163674
1.5159176
1.515939
1.5167809
1.5162841
1.5170532
1.5167799
1.5163003
1.5170464
1.5159994
1.5163221
1.5163218
1.5158769
1.5159303
1.5159965
1.5170202
1.5167329
1.516233
1.5170932
1.5167349
1.5170173
1.5162495
1.5170722
1.515863
1.5162963
1.5163005
1.5158965
1.5237617
1.5266937
1.5257439
1.524231
1.5170419
1.5170123
1.5171369
1.5198637
1.5196934
1.5197278
1.5197954
1.5197653
1.5172357
1.5171999
1.5179049
1.5178724
1.5170786
1.5178127
1.5178312
1.5177036
1.5177212
1.519727
1.5243398
1.5247237
1.5212471
1.5188546
1.5191023
1.5190464
1.5202489
1.5203222
1.5202236
1.5202307
1.5203065
1.5190788
1.5181357
1.5181689
1.518039
1.5180945
1.5190701
1.5189847
1.5190035
1.5180166
1.5180402
1.5267931
1.5251113
1.5259076
1.5255114
1.5252999
1.5256537
1.5242189
1.524815
1.5243943
1.5242251
1.5246028
1.5287049
1.5285051
1.5276914
1.527875
1.5217698
1.5220075
1.5219751
1.5218542
1.5218522
1.5269215
1.5264595
1.5264062
1.5267822
1.526976
1.5270036
1.526919
1.5268191
1.522679
1.5225599
1.5225845
1.5227573
1.5227565
1.5258104
1.5263502
1.5257809
1.5264179
1.5262181
1.5262453
1.5264449
1.5265257
1.5266521
1.5263662
1.5264051
1.5267061
1.5235327
1.5234511
1.5235471
1.5234172
1.5235314
1.5270261
1.5269302
1.5255814
1.5256843
1.5271778
1.5271229
1.5255647
1.5256987
1.5255504
1.5272282
1.5271565
1.5254556
1.5195397
1.5193552
1.5197484
1.5197539
1.5194059
1.5217554
1.5190535
1.519073
1.5217305
1.5218121
1.5217992
1.5190379
1.5190489
1.5217895
1.5217397
1.5189635
1.5189823
1.5173766
1.5174121
1.5181142
1.5181569
1.5181637
1.5180581
1.5180416
1.5173869
1.5173559
1.5167634
1.516782
1.5167046
1.5174148
1.5167084
1.5166526
1.5173957
1.5166452
1.5163039
1.516373
1.5160872
1.5163351
1.5163722
1.5161358
1.5160929
1.516344
1.5161306
1.5157366
1.5150466
1.5158167
1.5150692
1.5158622
1.5157523
1.5151565
1.515894
1.5158583
1.5151328
1.5159268
1.5157074
1.5157227
1.5148716
1.5151111
1.514939
1.5148515
1.5150826
1.5149182
1.5151056
1.5151284
1.5159481
1.515715
1.5159219
1.5159401
1.5146594
1.5149394
1.5151251
1.5147853
1.514652
1.5149391
1.5150974
1.5147341
1.5150273
1.5150448
1.5157312
1.5147513
1.5146165
1.5145439
1.5148991
1.514739
1.5146001
1.5145111
1.5148886
1.5145865
1.5145251
1.5144806
1.5146018
1.5144813
1.5142451
1.525926
1.5210699
1.5209824
1.5211484
1.5212395
1.5210848
1.5235865
1.5235997
1.5252445
1.5255698
1.5252646
1.5257118
1.5256
1.5233035
1.5233435
1.5211674
1.5209049
1.5214941
1.5215226
1.5209829
1.5192277
1.5191324
1.5176976
1.5177506
1.5175629
1.5191659
1.5192315
1.5176409
1.5170365
1.5171279
1.5170099
1.5170933
1.5172028
1.5171634
1.5197016
1.5196884
1.5196641
1.519573
1.5195875
1.5170852
1.517059
1.5169666
1.5169909
1.5168731
1.5168802
1.5159782
1.5159955
1.5170501
1.5169749
1.5171591
1.5171584
1.5169933
1.5169888
1.516968
1.5169871
1.5170138
1.5160792
1.5160479
1.516178
1.5169933
1.5161902
1.5169949
1.5158882
1.5163593
1.5163664
1.515909
1.5159931
1.5167832
1.5162564
1.5170617
1.5167852
1.5162425
1.517073
1.5163225
1.5163196
1.5158454
1.5158949
1.5170281
1.5167426
1.5161969
1.5171168
1.5167374
1.5170241
1.5162144
1.5170805
1.5159864
1.5162882
1.5162851
1.5158137
1.5158388
1.5170149
1.5170574
1.5167314
1.5170572
1.5167348
1.5170558
1.5170125
1.5170498
1.5300504
1.5235546
1.5267851
1.5257343
1.5242218
1.5169899
1.5198324
1.5197644
1.519695
1.5196573
1.5197344
1.5171532
1.5171888
1.5178568
1.5178209
1.5170833
1.5170223
1.5177652
1.5177617
1.5169573
1.5176638
1.5176911
1.5190638
1.5194641
1.5244513
1.5247398
1.5211896
1.5188139
1.5190036
1.5189461
1.520256
1.5202107
1.5203377
1.5203201
1.5202206
1.5190371
1.5180753
1.5181173
1.5190629
1.519012
1.5179926
1.5179886
1.5179474
1.5179838
1.5189686
1.5274947
1.5275593
1.5286761
1.528216
1.5278156
1.5282208
1.5254476
1.5258614
1.5260586
1.5256702
1.525523
1.5288508
1.5283953
1.5283055
1.5287608
1.524485
1.5249058
1.5247755
1.524416
1.5245221
1.5289551
1.5281193
1.5279933
1.528826
1.529275
1.5290576
1.5280413
1.5280974
1.5217648
1.5219738
1.521795
1.5218157
1.5219602
1.5265366
1.5264857
1.5270304
1.5271624
1.5272843
1.5269779
1.5269934
1.527147
1.5272161
1.5274401
1.5273124
1.5271671
1.5226625
1.5227574
1.5225487
1.5227493
1.5225692
1.5258535
1.5258183
1.5264585
1.5265444
1.5261731
1.5265937
1.5261822
1.5266784
1.5264083
1.526411
1.5267563
1.5267959
1.5235617
1.5235579
1.5235748
1.523504
1.5234753
1.5258261
1.527163
1.5257476
1.5270797
1.5273428
1.5272809
1.5257627
1.5258604
1.5273694
1.5272927
1.5256428
1.5257435
1.5194828
1.5197034
1.519697
1.5193012
1.5193531
1.519006
1.5217638
1.5217521
1.5190281
1.5218216
1.519038
1.519022
1.5218411
1.5218632
1.5218307
1.5190045
1.5190116
1.5173566
1.5180994
1.5181347
1.5181416
1.5180414
1.5180221
1.517304
1.5173331
1.5167534
1.5167288
1.5173647
1.5173521
1.5166527
1.5167134
1.5166445
1.5173365
1.5166358
1.5162852
1.516316
1.5163241
1.5161026
1.5160562
1.5160617
1.5163526
1.5163533
1.5161065
1.51571
1.5150957
1.5157673
1.5158111
1.5157271
1.5150359
1.5158163
1.5150153
1.5158329
1.5151195
1.5157013
1.5148219
1.5150123
1.5148873
1.5150386
1.5148373
1.5149031
1.5156913
1.5150873
1.5158731
1.5158339
1.5150691
1.5158675
1.5156877
1.5157006
1.5146458
1.5147409
1.5150058
1.5148872
1.5147222
1.5146377
1.5149777
1.5148832
1.5150478
1.5150716
1.5159002
1.5145883
1.5145567
1.5148684
1.5147261
1.5145326
1.5146053
1.514852
1.5147111
1.5145895
1.5145087
1.5144512
1.5145997
1.5144567
1.5144254
1.5227642
1.5258275
1.525816
1.5258732
1.5256116
1.5256462
1.5208448
1.5210917
1.5210344
1.5207509
1.5209073
1.519887
1.521189
1.5212405
1.5200032
1.5234123
1.5234644
1.5236156
1.5257175
1.5258557
1.5253675
1.5253424
1.5257446
1.5236198
1.5232374
1.5232851
1.5231361
1.523113
1.5210779
1.521408
1.5213796
1.5208214
1.5208993
1.5175864
1.518932
1.5190466
1.5176607
1.5190702
1.5190067
1.517483
1.5175428
1.5174067
1.5189624
1.5190399
1.5174514
1.5169918
1.5169681
1.5171085
1.5170565
1.5171488
1.5171093
1.5196716
1.5196569
1.5196529
1.5195607
1.5195755
1.5170281
1.5170567
1.5169907
1.5169536
1.5168643
1.5168714
1.5159673
1.5169489
1.5169542
1.51713
1.5170218
1.5171315
1.5169722
1.5169669
1.5169875
1.5169639
1.5161678
1.5169955
1.5160128
1.5160361
1.5161769
1.5169941
1.5158572
1.5163508
1.5163585
1.5158789
1.5159745
1.5159642
1.5167862
1.5162021
1.5170898
1.5167861
1.5162124
1.5170809
1.5157904
1.5163135
1.5163177
1.5158547
1.5159529
1.5167452
1.5170319
1.5161791
1.5170931
1.5170353
1.5167462
1.5161631
1.5171179
1.5162838
1.5162826
1.5157704
1.5157958
1.5170237
1.5170706
1.5167333
1.5170706
1.5167314
1.5170643
1.5170199
1.5170642
1.5170367
1.5169945
1.5170422
1.5170403
1.5169865
1.5170334
1.5231123
1.5303472
1.5233639
1.5268671
1.5257246
1.5242084
1.519659
1.5196076
1.5198024
1.519703
1.5197333
1.5178007
1.5171357
1.5170918
1.5177618
1.51701
1.5170213
1.5176938
1.5176801
1.516932
1.5169
1.5176339
1.5176067
1.5203136
1.5189512
1.5192458
1.5245598
1.5247547
1.5211401
1.5187834
1.518927
1.5202635
1.5203521
1.5203341
1.5202065
1.5202021
1.5180026
1.5189978
1.5190227
1.5180493
1.5189367
1.5179409
1.5179621
1.5189464
1.5189088
1.5178983
1.5179195
1.5229019
1.5280532
1.5280395
1.5283107
1.5287965
1.5284707
1.5281777
1.5290347
1.5285739
1.5282728
1.5286681
1.5311332
1.5309538
1.5304848
1.5306444
1.5256754
1.5257393
1.5261213
1.5260077
1.5256675
1.5288998
1.5289695
1.5284897
1.5284373
1.5292523
1.5285621
1.5285343
1.529132
1.5246516
1.5246257
1.5249631
1.5245483
1.5248761
1.5291457
1.5290345
1.5282041
1.5283046
1.5294505
1.5283353
1.5282126
1.5293849
1.5294908
1.5293706
1.5283422
1.528422
1.521735
1.5217468
1.521937
1.5217753
1.5219345
1.5266124
1.5274047
1.5272515
1.5265509
1.5269586
1.526954
1.5274114
1.5275556
1.5276622
1.5272308
1.5272286
1.5275581
1.522654
1.522538
1.5227702
1.5227531
1.5225571
1.5266635
1.5258816
1.5265901
1.5258544
1.5262215
1.5262188
1.5266717
1.5267407
1.5264187
1.5268268
1.5264088
1.5268564
1.5235872
1.5235863
1.5236039
1.5235423
1.5235211
1.5272159
1.5272973
1.5259303
1.5258687
1.5259287
1.5274899
1.5259004
1.5274401
1.5275057
1.5274395
1.5258311
1.5259131
1.5194257
1.5196492
1.5196527
1.519298
1.5192435
1.5217548
1.5217582
1.5189652
1.5189861
1.5190025
1.5218183
1.5218236
1.5189966
1.5218978
1.5189982
1.5190074
1.5218839
1.5180864
1.5181152
1.5180013
1.5180225
1.5181212
1.5172516
1.5172804
1.5167164
1.5166929
1.5172985
1.5172986
1.5166349
1.5165994
1.5173079
1.517282
1.5166004
1.5166215
1.516267
1.516024
1.5163007
1.516337
1.5163368
1.5160771
1.5160283
1.5160726
1.5163064
1.5157822
1.5157979
1.5150764
1.5157669
1.5150459
1.5157139
1.5149828
1.515677
1.5156962
1.5150052
1.5157019
1.5148594
1.5150328
1.5147964
1.5157553
1.5156945
1.5149673
1.51481
1.5148741
1.5149424
1.5157807
1.5150516
1.5156697
1.5147055
1.5146238
1.5149304
1.5148489
1.5149524
1.5147122
1.5146312
1.5148426
1.5156767
1.5150277
1.5158263
1.5157876
1.5150087
1.5145786
1.5146181
1.5147039
1.514831
1.5146927
1.5146058
1.514549
1.514815
1.5145889
1.5144862
1.5146002
1.5145489
1.5145474
1.5143978
1.5162356
1.5227808
1.5232807
1.5222515
1.5222985
1.5231809
1.5249021
1.5248194
1.5258587
1.5258781
1.5259062
1.5257453
1.5256818
1.5264445
1.5262968
1.5206781
1.5205483
1.5209351
1.5209701
1.5206889
1.5211373
1.521085
1.5196284
1.5197715
1.5197512
1.5211828
1.521208
1.5198635
1.5233457
1.523403
1.5235445
1.5254588
1.5254922
1.5258518
1.5259728
1.5258781
1.5231813
1.5236952
1.5236568
1.5232118
1.5236356
1.5230506
1.523093
1.5228736
1.5228687
1.5209996
1.5207354
1.5212788
1.5213011
1.5208138
1.5188287
1.5187114
1.5174724
1.5175436
1.5174013
1.5188063
1.5188955
1.5174688
1.5188924
1.5188169
1.517329
1.5173722
1.5169467
1.5169144
1.5170425
1.516982
1.5170942
1.5170551
1.5196429
1.5196262
1.5196461
1.5195431
1.5195655
1.5170014
1.5170245
1.516886
1.5169544
1.5168581
1.5168395
1.5163397
1.5170015
1.5169463
1.5161587
1.5169496
1.5159737
1.5170866
1.5169895
1.5170694
1.516955
1.5169296
1.5169324
1.5169296
1.5160008
1.5161671
1.5169964
1.5163478
1.5158419
1.5158161
1.5167892
1.5161669
1.5171041
1.5159473
1.5159433
1.5167871
1.5161748
1.5170959
1.5157749
1.516309
1.516312
1.5157888
1.5159339
1.5159154
1.5170397
1.51675
1.5161338
1.5170898
1.5170375
1.5167474
1.5161472
1.5170676
1.5157289
1.5162773
1.5162809
1.5157535
1.5167352
1.5170724
1.5170271
1.5170737
1.517031
1.5170671
1.5167376
1.5170823
1.5170431
1.5170271
1.5170439
1.5170437
1.5170243
1.5170404
1.5170095
1.5170063
1.5169978
1.5169992
1.5209687
1.5229906
1.5306015
1.5231885
1.5269419
1.525711
1.5241899
1.5170664
1.5170149
1.5196074
1.519773
1.5195526
1.5197014
1.5196686
1.5176996
1.5177395
1.5176349
1.5169527
1.5169449
1.5176406
1.5168476
1.5168771
1.5175761
1.5175541
1.5193639
1.5203543
1.5188616
1.5190965
1.5246632
1.5247683
1.5210975
1.518759
1.5202717
1.5201834
1.5203686
1.5201982
1.5203485
1.5189471
1.518978
1.5179683
1.5179146
1.5178882
1.5189201
1.5189027
1.5179076
1.5188617
1.5178362
1.5178685
1.5188797
1.522924
1.5230874
1.5231148
1.5239959
1.5239199
1.5230715
1.5285063
1.5285516
1.5283701
1.5288176
1.5290796
1.5267572
1.5266702
1.528276
1.5283597
1.5286437
1.5287957
1.5292461
1.5290188
1.5286101
1.5314002
1.5308697
1.5307509
1.5312639
1.5315154
1.5313105
1.5306855
1.5307539
1.5257907
1.5261487
1.5257684
1.5257389
1.5260772
1.5285309
1.5290542
1.5290018
1.5285029
1.5292888
1.5293069
1.5286501
1.5286152
1.5294157
1.5288313
1.5288102
1.5293796
1.5247498
1.5250031
1.5247091
1.524656
1.5249446
1.5284895
1.5293519
1.5283703
1.5292195
1.5295466
1.5294901
1.5284397
1.5285477
1.5296495
1.5285866
1.528506
1.5295736
1.5216921
1.521896
1.521896
1.5217275
1.5216977
1.527676
1.5266791
1.5275104
1.5266289
1.5270255
1.5277474
1.527612
1.5270081
1.5272475
1.5272342
1.5277588
1.5278636
1.5226498
1.5225479
1.5225303
1.5227931
1.5227679
1.5259065
1.5267659
1.5267038
1.5258843
1.5267849
1.5262544
1.5267316
1.5262646
1.5264354
1.5264281
1.5268754
1.5269072
1.5236095
1.5235787
1.5236325
1.5236149
1.5235577
1.5273533
1.5274346
1.5260104
1.5259603
1.5275198
1.5275725
1.5260375
1.5259858
1.5260413
1.5276161
1.5259761
1.5275644
1.5193701
1.5196043
1.5196046
1.5192386
1.5191815
1.5217271
1.5217348
1.5189411
1.5189089
1.521847
1.5218383
1.5189375
1.5189462
1.5189543
1.5219178
1.5219063
1.5189737
1.518075
1.5180983
1.5181037
1.518
1.517976
1.517203
1.5166576
1.5166811
1.5172294
1.5172426
1.5172454
1.5166145
1.5165961
1.517228
1.5172522
1.5165862
1.5165717
1.5162454
1.5162819
1.5162732
1.5163139
1.5163182
1.5160445
1.5159918
1.5159883
1.5160403
1.5150015
1.5156572
1.5157498
1.515646
1.5156643
1.514969
1.5157132
1.5149425
1.515026
1.5157685
1.515724
1.5157417
1.5148446
1.5150056
1.5147826
1.5148275
1.5149742
1.5147651
1.5149162
1.5156524
1.5156673
1.5149293
1.5156459
1.5146135
1.5147922
1.5149693
1.5147009
1.5157312
1.515659
1.5149097
1.5147085
1.5146192
1.5147881
1.5148927
1.5157533
1.5149903
1.5146756
1.5145416
1.5146006
1.5147843
1.5146834
1.5145759
1.5146285
1.5147972
1.5145923
1.5144703
1.5145976
1.5145907
1.5144298
1.514591
1.5145602
1.5145596
1.5146544
1.5162963
1.5154523
1.5152308
1.5158025
1.5161457
1.5162531
1.5228177
1.5223081
1.5222682
1.5232747
1.5231992
1.5267535
1.5235321
1.5235023
1.5265452
1.5248947
1.5248344
1.524728
1.5246132
1.5259096
1.5259397
1.5260022
1.5259183
1.5258193
1.5267628
1.5265841
1.5264816
1.526324
1.5208566
1.5208121
1.520535
1.5203888
1.520509
1.5193928
1.5209681
1.5210267
1.5195125
1.5211783
1.5211829
1.5194612
1.5196231
1.5196802
1.5211652
1.5211936
1.5197937
1.5234601
1.5237619
1.523823
1.5255862
1.5256174
1.5259734
1.5260846
1.5259948
1.5231339
1.5231628
1.5230522
1.5237042
1.5236659
1.5230295
1.5235097
1.5228935
1.522883
1.5212069
1.5211811
1.5209276
1.5206469
1.5207281
1.517361
1.5185304
1.518626
1.5174292
1.5186779
1.51858
1.5172693
1.5173664
1.5172272
1.5186262
1.5187251
1.5172842
1.5168867
1.5168529
1.516971
1.5169171
1.517039
1.5169995
1.5196143
1.5196372
1.519593
1.519519
1.5195476
1.516975
1.5169991
1.5168391
1.5168732
1.5167971
1.5168222
1.5171214
1.5163359
1.5162999
1.5167952
1.5170025
1.5161308
1.5161554
1.5159385
1.5159496
1.5169594
1.5169118
1.5170135
1.5170302
1.5169265
1.5169253
1.5169111
1.5169138
1.5168837
1.5159099
1.5158008
1.5163257
1.517012
1.5161436
1.5157683
1.5159376
1.5167918
1.5161388
1.5171106
1.5163049
1.5157269
1.5157358
1.5170445
1.5167528
1.5161098
1.5171333
1.5158838
1.5158986
1.517042
1.5167511
1.5161201
1.5170785
1.515696
1.5162671
1.5162732
1.5157148
1.51706
1.5170371
1.5167397
1.5170972
1.5170334
1.5170606
1.5167388
1.5170845
1.5170443
1.5170403
1.5170456
1.5170484
1.517037
1.5170434
1.5170336
1.5170293
1.517027
1.5170302
1.5170254
1.5170184
1.5213612
1.5209073
1.5228868
1.5308321
1.5230231
1.5270098
1.5256951
1.5241702
1.5168842
1.5169809
1.5168633
1.519551
1.5197455
1.5196653
1.5196313
1.5194983
1.5169239
1.5176709
1.5176213
1.517581
1.5175896
1.5175283
1.5168143
1.5167828
1.5175026
1.5232176
1.5192374
1.5204019
1.5187999
1.5190013
1.5247584
1.5247786
1.5210565
1.5187365
1.5202821
1.5203649
1.5203862
1.5201514
1.5201815
1.5178336
1.5188874
1.5178816
1.5189232
1.5188678
1.5188702
1.5178278
1.5178102
1.5177625
1.5188242
1.5188418
1.5178008
1.5253026
1.5231685
1.5237054
1.5235595
1.5232398
1.5233298
1.5232251
1.5231013
1.5230977
1.5238825
1.5239481
1.5249892
1.525402
1.5253963
1.5249502
1.5288444
1.5287298
1.5292637
1.5290952
1.5286181
1.5265074
1.5265937
1.5281717
1.5280563
1.5265776
1.5265244
1.5281915
1.5282828
1.5289454
1.5288381
1.5293926
1.5292333
1.5289608
1.5310333
1.5315988
1.5314929
1.5309415
1.53172
1.5309693
1.5308574
1.5316368
1.5316045
1.5314734
1.5308831
1.5309635
1.5258367
1.5257731
1.5261607
1.5257713
1.5261122
1.5291384
1.5285719
1.5285346
1.5290784
1.5287008
1.5293085
1.5293067
1.5286793
1.5294283
1.5294436
1.5288521
1.5288482
1.5248079
1.5250245
1.5249845
1.5247365
1.5247751
1.5295792
1.5286885
1.5285699
1.5294466
1.5286824
1.5297399
1.5285794
1.5296564
1.5297894
1.5297144
1.5286547
1.5287209
1.5216425
1.5218615
1.5216551
1.5216818
1.5218577
1.5267385
1.5266947
1.5278003
1.5279544
1.5279338
1.5270817
1.5278058
1.5270777
1.5272657
1.528059
1.5279537
1.527258
1.5226483
1.522827
1.5225195
1.52254
1.5227912
1.5259024
1.5259187
1.526865
1.5268023
1.526226
1.5268985
1.5268315
1.5262435
1.5269705
1.526443
1.5269328
1.5264408
1.5236282
1.5236081
1.5236624
1.5236432
1.5235903
1.5260821
1.5275528
1.5274819
1.5260366
1.5276214
1.5277087
1.5261423
1.5261173
1.5276631
1.5277153
1.5261611
1.5261007
1.5193158
1.519176
1.5195616
1.5195665
1.5191166
1.52169
1.5216972
1.5188764
1.5188352
1.5218311
1.5218568
1.5188902
1.5188857
1.5219297
1.5219347
1.518912
1.518929
1.518065
1.51808
1.5179441
1.5179744
1.518087
1.5171536
1.5171821
1.5166425
1.516615
1.517191
1.5165802
1.5165769
1.5171875
1.5171726
1.5171973
1.5165626
1.5165469
1.5162252
1.5162327
1.5162818
1.5162496
1.5160033
1.5159453
1.5159487
1.5160053
1.5162911
1.5157315
1.5157061
1.515606
1.5156303
1.5149229
1.5156567
1.5148937
1.5155926
1.51496
1.5149852
1.5147984
1.5149362
1.5147355
1.515713
1.5156199
1.5156295
1.5147513
1.5149054
1.5148132
1.5148829
1.5149571
1.5157283
1.5157013
1.5157155
1.5146087
1.514768
1.514945
1.5146916
1.5146035
1.5148008
1.5149189
1.5146765
1.514863
1.5156084
1.5156254
1.5148785
1.5145931
1.5145713
1.5147591
1.5146592
1.5146691
1.5146252
1.5145846
1.5147659
1.5145854
1.5144588
1.5145842
1.5145866
1.5146768
1.5145958
1.5145755
1.5145781
1.5144313
1.5166913
1.5160241
1.5157553
1.5158984
1.516
1.5158769
1.5140295
1.513884
1.5152407
1.5154853
1.515076
1.5158877
1.5160137
1.5169403
1.5170851
1.5228805
1.5233221
1.5223123
1.5223456
1.5232474
1.5235841
1.5236553
1.5272438
1.5269649
1.5270944
1.523912
1.5238921
1.5269304
1.5247921
1.5247074
1.5247395
1.5246375
1.5245001
1.5243718
1.5259747
1.5260039
1.5261107
1.5260684
1.5259754
1.5271086
1.5269269
1.526732
1.5265811
1.5264995
1.5263354
1.5208859
1.5207881
1.520725
1.5204046
1.5206839
1.5202515
1.5203595
1.5192294
1.5193101
1.5192842
1.5210354
1.5211117
1.5193662
1.5211332
1.5210889
1.5194495
1.5195711
1.5237447
1.5237976
1.5238988
1.5239654
1.5257041
1.525723
1.5260848
1.5261823
1.5261045
1.523085
1.5231169
1.5230288
1.5230243
1.5229001
1.5236014
1.5235531
1.5228982
1.518453
1.5183532
1.5211083
1.5208547
1.5210749
1.5205528
1.5206397
1.517262
1.5173239
1.5171476
1.518375
1.5184525
1.5172186
1.5185136
1.518406
1.5171106
1.5171727
1.5168262
1.5167939
1.516918
1.5169813
1.5168696
1.5195815
1.5195546
1.5196268
1.5195197
1.5194873
1.5169399
1.5169402
1.5169703
1.5168481
1.5168669
1.5167656
1.5167819
1.5171352
1.5170505
1.5171329
1.5162875
1.5162502
1.5167983
1.5167608
1.5160942
1.5161304
1.5158405
1.5158946
1.5169314
1.516892
1.5169648
1.5169827
1.5169046
1.5169049
1.5168929
1.5168442
1.5168783
1.516126
1.517027
1.5158535
1.5158858
1.5161383
1.5170128
1.516321
1.5163101
1.5157446
1.5157128
1.515834
1.5157236
1.5162668
1.5171453
1.5168018
1.5161294
1.5157011
1.515865
1.5170476
1.5167544
1.5160997
1.5171044
1.5162593
1.5156753
1.5156617
1.5170654
1.517047
1.5167424
1.5171188
1.517042
1.5170623
1.5167403
1.5171055
1.5170413
1.5170476
1.5170545
1.5170513
1.5170468
1.5170419
1.5170367
1.5170426
1.5170425
1.5170354
1.517034
1.5170327
1.5188539
1.5214241
1.5208528
1.5228073
1.5310429
1.5228671
1.5270742
1.5256789
1.5241509
1.5167403
1.5167929
1.5166983
1.5168867
1.5197205
1.5194975
1.5194257
1.5195947
1.5196296
1.5175851
1.5175362
1.5168269
1.5167628
1.5175003
1.5174709
1.5174316
1.5174662
1.5197659
1.5234944
1.5191123
1.5204566
1.5187587
1.518947
1.5248459
1.5247844
1.5210148
1.518714
1.5204041
1.5202954
1.5201032
1.5203814
1.520148
1.5188623
1.5188246
1.5177486
1.5178
1.5177258
1.5188134
1.5177484
1.5188179
1.5187638
1.5187912
1.5177166
1.5176728
1.5261737
1.525926
1.5264866
1.5268626
1.5261616
1.5258643
1.5233353
1.5237697
1.5233758
1.5233254
1.523658
1.5251413
1.525114
1.5258305
1.526014
1.5232568
1.5230469
1.5230834
1.5238295
1.5238337
1.5250138
1.5250016
1.5253973
1.5254057
1.5254018
1.5253421
1.5254011
1.52532
1.5290764
1.5288013
1.5288743
1.5294036
1.5292749
1.526382
1.5278389
1.5279565
1.5264535
1.5263519
1.5264362
1.5280948
1.5279602
1.5264183
1.5263287
1.5281339
1.5282329
1.5291418
1.5294994
1.5293852
1.5290062
1.5290917
1.531102
1.5318051
1.531686
1.5311995
1.53116
1.5318223
1.5317654
1.5310655
1.5317942
1.531125
1.5310432
1.5317045
1.5258432
1.5261581
1.5261242
1.5257743
1.5257589
1.5286289
1.5292345
1.5285895
1.5291718
1.5294143
1.5286932
1.5286739
1.5293849
1.5288416
1.5294882
1.529461
1.5288493
1.5248403
1.5250367
1.5250056
1.5248004
1.5248372
1.5297963
1.5296744
1.5287771
1.5288939
1.5299624
1.5288043
1.5287111
1.5298714
1.5288403
1.5299426
1.5287734
1.5298635
1.5215891
1.5216206
1.5218299
1.5218234
1.5216397
1.5268019
1.5281838
1.528051
1.5267522
1.5270905
1.5270855
1.52807
1.5282001
1.5282684
1.5272638
1.5281535
1.5272687
1.5226492
1.5228663
1.5225022
1.5225271
1.5228212
1.5269539
1.525927
1.5259111
1.5268993
1.5262129
1.5262478
1.5269561
1.5269526
1.5264541
1.5270461
1.5270079
1.5264473
1.5236436
1.5236953
1.5236192
1.5236719
1.5236322
1.5261388
1.52765
1.5275906
1.5261014
1.5262154
1.5278057
1.5277477
1.5261551
1.5277673
1.5278214
1.5262461
1.5262088
1.5192622
1.5195192
1.5195256
1.5190496
1.5191116
1.5187995
1.5216712
1.5216698
1.5187689
1.5217989
1.5218274
1.5188309
1.5188231
1.5219275
1.521935
1.5188874
1.5188634
1.5180552
1.5180614
1.5179051
1.5179419
1.51807
1.5170985
1.5165745
1.5166001
1.5171294
1.5171403
1.5171398
1.5165721
1.5165559
1.5171213
1.5165205
1.5165329
1.5171429
1.5162082
1.5162509
1.5159038
1.5159636
1.5162607
1.5159639
1.5162058
1.5161861
1.5159023
1.5156515
1.5155574
1.5156828
1.5149368
1.5155919
1.5149015
1.5155224
1.5148376
1.5148712
1.5155853
1.5156923
1.5156352
1.5155603
1.5155864
1.51472
1.5148621
1.5147839
1.5148269
1.5147021
1.5147667
1.5148844
1.5149073
1.5145937
1.5147791
1.5148711
1.5146523
1.5156704
1.5155742
1.5155908
1.5146664
1.5145987
1.5148463
1.5147687
1.5148261
1.5148952
1.5156892
1.5145708
1.514592
1.5147504
1.5146477
1.5145903
1.5145703
1.5147458
1.5146346
1.5145846
1.5145382
1.5145742
1.5145943
1.514779
1.5145799
1.5145581
1.5145556
1.5147614
1.5235791
1.516948
1.5168983
1.5164426
1.5160613
1.5162165
1.5158893
1.5159046
1.5158602
1.5157343
1.515791
1.5137326
1.5153651
1.5153485
1.5138376
1.5139844
1.5137526
1.5138645
1.5152947