/*--------------------------------*- C++ -*----------------------------------*\
  =========                 |
  \\      /  F ield         | OpenFOAM: The Open Source CFD Toolbox
   \\    /   O peration     | Website:  https://openfoam.org
    \\  /    A nd           | Version:  7
     \\/     M anipulation  |
\*---------------------------------------------------------------------------*/
FoamFile
{
    version     2.0;
    format      ascii;
    class       volScalarField;
    location    "2000";
    object      nut;
}
// * * * * * * * * * * * * * * * * * * * * * * * * * * * * * * * * * * * * * //

dimensions      [0 2 -1 0 0 0 0];

internalField   nonuniform List<scalar> 
34387
(
7.7023906e-91
1.0476742e-90
3.4118426e-92
1.146278e-90
3.5898508e-91
9.5159335e-91
9.4193803e-91
7.9184429e-91
9.1638754e-91
1.3407828e-90
1.2907506e-90
1.8663322e-90
1.5478076e-90
1.2113009e-90
1.2462758e-90
1.368018e-90
1.4697647e-90
1.7429608e-90
1.098478e-90
1.5539971e-91
7.0862274e-92
3.7586271e-92
1.1671571e-90
3.198376e-90
1.6040928e-90
1.6174274e-90
1.6180372e-90
1.1666185e-90
1.1751814e-90
6.745824e-91
5.937283e-91
5.3880838e-91
6.071285e-91
7.3164283e-91
5.6476967e-91
1.3458118e-90
1.1957941e-90
1.1063495e-90
9.1773294e-91
1.6092696e-90
3.9989652e-91
5.1651648e-91
1.4463208e-90
6.7207937e-91
1.7549141e-90
1.5857898e-90
2.1934718e-90
2.4589416e-90
1.8928626e-90
1.4449489e-90
1.7607566e-90
2.1640698e-90
1.4609818e-90
2.1491484e-90
1.5904096e-90
1.2677717e-90
7.3798753e-91
5.907783e-91
1.7538833e-90
1.6582779e-90
1.3301276e-90
1.027647e-90
7.7474142e-91
2.310353e-91
8.0453095e-92
5.3061694e-91
3.7040731e-91
1.812836e-91
6.5970796e-91
9.3957848e-91
2.3848259e-90
1.6729179e-90
1.6536606e-90
1.7218685e-90
1.3194393e-90
1.2026878e-90
6.6196846e-91
5.5356352e-90
2.2761499e-90
1.9210048e-90
2.2089257e-90
1.5770996e-90
1.5049191e-90
1.8455534e-90
1.0744664e-90
4.3840407e-91
1.3107645e-90
6.6829271e-91
3.8171022e-91
4.4690669e-91
4.1754211e-91
3.7338416e-91
3.7380771e-91
1.0058344e-90
8.2959869e-91
6.5098524e-91
7.2311607e-91
1.0818053e-90
4.7617905e-91
8.1750984e-91
1.1161457e-90
6.8269906e-91
2.0189069e-90
1.6287025e-90
1.3796386e-90
1.2539921e-90
1.9047204e-90
1.7657781e-90
1.7043808e-90
1.4335509e-90
2.7578664e-90
6.6911087e-92
6.0442651e-92
5.9461857e-91
1.2669617e-91
2.407426e-90
2.3059105e-90
1.8638184e-90
2.1046794e-90
3.0193715e-90
2.7647141e-90
2.8878472e-90
2.1630036e-90
2.6067952e-90
2.7572197e-90
2.4012437e-90
2.0212365e-90
2.2875704e-90
1.2204151e-90
2.463316e-90
1.7546803e-90
2.9956111e-90
2.7050798e-90
1.4042483e-90
1.5646116e-90
4.8628347e-91
1.6015833e-90
2.6490289e-91
1.5946481e-91
2.9473844e-91
8.5169726e-92
6.0155318e-91
8.2246126e-91
7.4477684e-91
2.3398763e-91
1.6864039e-91
2.5656952e-91
5.7413905e-92
5.3429379e-91
3.3433649e-91
2.1451442e-91
7.3726921e-91
9.090164e-92
7.6851034e-91
7.2148322e-91
5.0611318e-91
8.5785488e-91
1.286597e-90
1.2259141e-90
1.5244747e-90
1.5962614e-90
1.1075451e-90
1.5956035e-90
1.8008239e-90
1.3567911e-90
1.2526417e-90
5.951299e-91
4.6647745e-90
1.690795e-90
2.1753353e-90
2.4651328e-90
2.3010178e-90
1.6186597e-90
1.5299157e-90
2.5621579e-90
3.2763065e-90
9.7991803e-91
2.0794899e-90
8.3185305e-90
3.2023408e-90
2.9386091e-90
2.220179e-90
2.5225756e-90
2.0430204e-90
2.4405873e-90
3.4861238e-90
2.609653e-90
2.2153051e-90
3.2728666e-91
1.7540838e-91
5.9872613e-92
2.8163354e-91
5.5074042e-91
3.7928012e-91
3.2168517e-91
3.6248729e-91
3.7216066e-91
3.8779429e-91
1.0638105e-90
9.1824508e-91
7.7571777e-91
4.6609359e-91
4.7709278e-91
5.3957803e-91
5.3426325e-91
3.6532385e-91
4.8547036e-91
1.7547307e-90
1.2479921e-90
9.6818707e-91
1.1116601e-90
1.4618439e-90
1.3550781e-90
9.7598196e-91
2.0451528e-90
1.6594719e-90
4.024897e-91
9.7246397e-92
1.6136862e-91
4.1881354e-91
2.3649548e-90
2.8551792e-90
1.904956e-90
1.8306181e-90
2.2511725e-90
2.4064535e-90
1.6879789e-90
1.9731115e-90
2.4460755e-90
3.2730558e-91
1.6197652e-91
1.9797455e-91
4.2830969e-91
6.2081428e-92
5.923146e-92
1.4315256e-90
1.1640834e-91
3.2546616e-90
3.109154e-90
3.7670795e-90
3.0015954e-90
3.238647e-90
3.8520222e-90
3.5674395e-90
2.9566543e-90
2.4728584e-90
4.0163213e-90
3.5966663e-90
2.2288402e-90
3.0931938e-90
2.5765037e-90
3.568791e-90
3.8104622e-90
4.6251099e-90
4.5026553e-90
3.5822413e-90
7.3261802e-91
2.6566401e-91
3.403785e-90
2.9867247e-91
1.5311137e-90
5.5196708e-90
1.6341756e-91
2.657703e-90
1.1236367e-90
1.3891204e-90
3.6647969e-91
1.8280173e-91
1.594056e-90
4.3780182e-91
6.5572935e-91
3.5725097e-91
2.3229992e-91
1.4364775e-91
1.3944037e-90
6.6448336e-92
7.9883897e-92
8.8856089e-92
4.0068301e-90
5.1139487e-91
2.1286403e-91
1.5504122e-91
5.471385e-91
4.8931019e-91
6.2901085e-91
7.7438853e-91
7.9836663e-91
6.0271431e-91
3.3500409e-91
3.0216326e-91
4.0289268e-91
5.9062502e-91
4.9347778e-91
9.5713713e-91
1.1652899e-90
1.2856475e-90
1.2373551e-90
9.2089499e-91
1.2756423e-90
1.986927e-90
1.7274705e-90
2.1471985e-90
1.5292484e-90
1.5182799e-90
2.0873473e-90
2.2871352e-90
2.2980156e-90
1.5605031e-90
1.2026103e-90
9.3870766e-91
1.6445833e-90
1.3351818e-90
2.1473056e-90
1.8822847e-90
1.0466704e-90
8.680193e-91
1.6022975e-90
2.1619916e-90
7.6436365e-90
2.9726233e-90
3.7511177e-90
2.3518651e-90
3.3860523e-90
2.7274424e-90
3.2684905e-90
2.3008411e-90
3.4905178e-90
3.7171148e-90
3.0717457e-91
1.8349712e-90
5.6572772e-91
1.1003897e-91
1.1625043e-90
4.6603742e-90
1.5148041e-89
3.525738e-90
4.2833219e-90
3.3904e-90
2.7647912e-90
3.1672303e-90
3.4691147e-90
3.0391787e-90
4.1201268e-90
3.0969632e-90
3.1610794e-90
1.2458773e-90
2.9232438e-91
1.9089761e-90
3.0881446e-91
1.6214106e-91
5.4892865e-92
2.5565986e-91
5.2773171e-91
3.4822982e-91
3.5953263e-91
3.5333417e-91
3.1052926e-91
3.4834635e-91
1.1950894e-90
7.2464206e-91
4.448079e-91
4.1318339e-91
7.8970852e-91
4.5173229e-91
3.4928537e-91
8.6319448e-91
7.9806614e-91
2.0381746e-90
1.4247729e-90
9.6070827e-91
9.756435e-91
1.468697e-90
1.4524186e-90
1.4133861e-90
1.0647197e-90
1.6107526e-90
7.0677053e-92
5.4899576e-92
3.3392874e-91
3.7915365e-91
2.6204916e-90
1.9316989e-90
1.561521e-90
1.6623455e-90
2.1062782e-90
2.4254491e-90
2.6278146e-90
2.2233904e-90
2.8893697e-90
2.6669835e-91
1.4357797e-91
1.7442569e-91
2.6088449e-91
1.3442493e-90
9.7126118e-92
1.6150951e-91
1.2326874e-90
3.3876857e-90
2.7551481e-90
3.9116069e-90
2.5214157e-90
2.804286e-90
3.1917275e-90
2.6912848e-90
2.7171469e-90
3.9088734e-90
6.4543735e-90
2.4237088e-90
2.1489497e-90
4.6247679e-90
3.1475442e-91
1.5605924e-91
1.9058173e-91
4.8061891e-91
4.1787575e-90
4.533516e-90
3.983502e-90
3.4358779e-90
4.0204728e-90
5.0766036e-90
4.9215572e-90
4.4188442e-90
4.0942846e-90
4.1006559e-90
4.3804322e-90
3.9913295e-90
3.4420406e-90
4.5503611e-90
4.8123198e-90
4.0578647e-90
6.0076267e-90
3.0164802e-90
3.7871473e-90
1.5812153e-90
1.0937291e-90
3.2288474e-90
1.8027511e-90
2.3372565e-90
3.3895516e-90
1.9779514e-90
3.7510348e-90
5.9553889e-90
1.3845084e-90
4.1250303e-91
1.026525e-90
1.0960453e-90
2.5757599e-91
9.0416175e-91
1.6081636e-90
2.8163305e-91
5.2331137e-91
8.2057006e-91
4.6598804e-91
1.5048249e-91
9.1755599e-91
7.9762527e-91
2.25078e-90
3.6231672e-91
1.6664455e-91
7.8820793e-91
4.6531718e-91
2.6024498e-91
3.9951296e-91
3.651065e-91
5.6627926e-91
2.5484949e-90
2.311629e-91
3.9591658e-91
9.0944418e-91
2.3512742e-91
9.9196186e-91
8.8718851e-91
6.9428282e-91
6.3123866e-91
5.8690196e-91
2.2146005e-90
2.0786316e-90
1.4208609e-90
1.6947181e-90
1.8980362e-90
1.611675e-90
1.2837262e-90
1.7798998e-90
2.5157623e-90
5.1476762e-91
3.3770785e-90
2.1368818e-90
2.3548705e-90
2.4374057e-90
2.0366101e-90
2.8127479e-90
2.3991532e-90
2.9007637e-90
3.1352964e-90
2.1697108e-90
3.2046285e-90
2.6596832e-90
2.3043211e-90
2.6352165e-90
2.2708641e-90
1.9807414e-90
2.7260165e-90
3.0651827e-90
3.9441235e-90
4.3747249e-91
1.8745864e-90
1.881346e-91
1.1824777e-90
5.7151671e-91
2.0126386e-91
2.7963831e-91
2.8430187e-91
2.6047558e-91
2.0395573e-91
2.5375488e-91
1.0497292e-90
4.5968903e-90
1.3634577e-89
5.3033678e-90
1.1480897e-90
3.616494e-90
4.6089427e-90
3.1026197e-90
3.8323312e-90
3.4150712e-90
4.2248455e-90
4.3969677e-90
3.919451e-90
3.1492112e-90
1.4036331e-90
5.1591978e-91
2.8127052e-91
1.7780832e-90
6.3734031e-91
1.026614e-91
1.1487273e-90
3.3423732e-90
1.219221e-89
2.6997259e-89
4.8142415e-90
3.8877631e-90
5.7138745e-90
4.5312498e-90
4.7027137e-90
3.7511607e-90
4.5776371e-90
4.1112164e-90
3.6963594e-90
2.4772023e-90
2.4112135e-90
1.6083573e-90
2.3664321e-90
1.617198e-90
1.7433153e-90
2.7903177e-91
7.6391336e-90
5.4354113e-91
3.4585736e-91
3.6424112e-91
3.7588846e-91
3.2455837e-91
3.517281e-91
1.1459985e-90
7.1929009e-91
7.0561356e-91
4.2006797e-91
4.0119573e-91
6.2079197e-91
6.8835373e-91
3.681232e-91
5.6599643e-91
2.5188671e-90
1.3551134e-90
9.004893e-91
9.3781189e-91
1.3963999e-90
1.961272e-90
2.1024942e-90
1.7643893e-90
1.5646712e-90
3.1269827e-91
5.256991e-92
4.9039136e-91
1.7258716e-91
2.7467829e-90
2.1081546e-90
1.6498254e-90
1.5382718e-90
2.0175074e-90
2.2024085e-90
1.7610377e-90
1.5317062e-90
2.5172906e-90
2.1609306e-91
2.6506989e-91
1.2773868e-91
1.6851433e-91
6.8445253e-92
5.481495e-92
6.8060699e-91
1.0268761e-90
3.7579933e-90
2.7614595e-90
2.9570815e-90
2.354671e-90
2.3648537e-90
2.7236588e-90
2.3571671e-90
2.4074185e-90
3.2908497e-90
1.6634466e-90
4.7256576e-91
6.0967851e-91
1.2628e-90
2.4715306e-91
1.3391559e-91
1.67783e-91
2.4998944e-91
1.7387271e-90
4.0372702e-90
5.2142469e-90
3.2605965e-90
3.5736949e-90
4.4986424e-90
3.569019e-90
3.7801684e-90
4.3217181e-90
3.9289614e-90
3.4948739e-90
2.2940961e-90
1.6839e-90
3.0054018e-90
1.2757718e-90
1.3560282e-90
1.7711813e-90
5.2869709e-90
5.1541083e-90
5.966334e-90
5.4322362e-90
4.4525739e-90
5.6857323e-90
5.3059292e-90
5.6803443e-90
6.5055e-90
6.3179349e-90
5.2358608e-90
4.9250153e-90
5.3791053e-90
6.6804951e-90
5.3183323e-90
5.7056673e-90
6.7956017e-90
4.8725329e-90
4.8271608e-90
1.2548925e-89
5.2511984e-90
4.0393821e-90
6.7465286e-90
9.1583616e-90
8.0477595e-90
1.0089636e-89
3.2486807e-90
1.3673858e-89
2.0344034e-90
4.2149949e-90
6.5139328e-90
2.1047965e-90
1.3198767e-90
2.6654447e-90
5.6961081e-91
5.8473449e-90
9.7513191e-91
1.702468e-90
1.8668907e-90
1.1653578e-90
2.0422708e-90
5.8073049e-90
1.7049986e-90
4.1177652e-91
1.335871e-90
2.895664e-91
2.7508096e-91
1.731577e-90
4.1444039e-91
6.0120237e-91
4.6244228e-91
6.6099907e-91
8.2438427e-91
6.2877764e-91
1.4535288e-90
3.3185089e-91
4.4632784e-91
5.931037e-91
9.8322603e-91
7.1139447e-91
4.1190351e-91
1.6983392e-90
1.0226711e-90
1.2505389e-90
1.4035466e-90
1.0006697e-90
1.5469738e-90
1.1704916e-90
1.3583e-90
1.4453205e-90
2.6485247e-91
2.7044087e-90
3.4974943e-91
2.4268639e-90
2.0329698e-90
2.4063728e-90
2.7579702e-90
1.7792797e-90
2.2254809e-90
3.0245303e-90
1.8806839e-90
6.9032581e-91
4.0783839e-91
4.0603661e-91
7.8722481e-91
3.5783259e-90
3.1093856e-90
2.6884906e-90
3.1756421e-90
3.4824163e-90
2.6889821e-90
4.1392234e-90
3.7408308e-90
3.0134202e-90
3.1737073e-90
3.597792e-90
1.8609493e-90
2.925636e-90
2.934696e-90
3.6135669e-90
2.5268946e-90
3.4465643e-90
3.4401565e-90
3.4149441e-90
1.5871898e-90
7.6154264e-91
3.0409229e-90
1.9040988e-90
2.0858508e-91
4.8536312e-90
2.2352417e-90
3.1033901e-91
4.869598e-91
4.7101476e-91
9.9719817e-91
3.3645908e-91
1.0479747e-90
1.5733937e-91
1.7198734e-91
1.3822583e-91
7.6354891e-92
1.795726e-90
2.0070362e-91
4.2728036e-92
2.6680771e-91
2.3512594e-91
1.8793012e-91
2.400849e-91
9.8001147e-91
3.2621208e-90
1.1779015e-89
2.5619261e-89
6.9058907e-90
1.3483303e-90
1.1579188e-90
5.98957e-90
5.3544028e-90
4.1119305e-90
4.4187694e-90
4.7057319e-90
3.4985132e-90
3.8964077e-90
3.9243558e-90
4.5958339e-90
1.5591843e-90
1.8021198e-90
1.6372669e-90
1.8643849e-90
5.0638314e-91
1.1550046e-90
3.6633223e-90
1.0245809e-89
2.3464349e-89
4.4298109e-89
5.1665807e-90
2.5503536e-90
7.3911009e-90
5.570992e-90
6.0419508e-90
5.1228992e-90
4.9870582e-90
5.1644389e-90
5.2703159e-90
4.6769868e-90
3.1973087e-90
2.0831005e-90
2.2474068e-90
4.7522082e-90
6.1580119e-90
2.104361e-90
6.3944262e-90
5.3369397e-91
3.4915152e-91
3.873078e-91
3.6478696e-91
3.3293972e-91
3.9148337e-91
1.1202751e-90
7.079994e-91
7.0130855e-91
3.9913765e-91
4.2769735e-91
3.3881884e-91
3.541901e-91
2.657798e-91
3.4870651e-91
2.7976887e-90
1.3360624e-90
9.1329038e-91
8.5897478e-91
1.4320728e-90
1.3220369e-90
2.000622e-90
9.4002743e-91
1.794473e-90
1.3376137e-91
1.2605895e-91
3.9674703e-92
2.5196497e-91
3.0125486e-90
2.1242484e-90
1.712778e-90
1.57578e-90
2.1087902e-90
2.8433905e-90
1.4522028e-90
1.352859e-90
2.7857048e-90
9.8571851e-91
1.0157852e-90
2.3086596e-91
2.9174598e-91
8.972281e-91
5.1825784e-92
4.8337646e-91
1.9521948e-91
3.8119481e-90
2.6136355e-90
2.9453876e-90
2.1950251e-90
2.546131e-90
2.4368611e-90
2.0888302e-90
1.9750643e-90
2.6220145e-90
2.209934e-90
6.4308225e-91
6.0535254e-91
1.4124653e-90
2.0538013e-91
2.474938e-91
1.2287462e-91
1.6252483e-91
5.2168949e-90
4.0610745e-90
3.5617345e-90
3.4107315e-90
3.2656953e-90
3.3098258e-90
3.9584963e-90
3.6334573e-90
3.5939785e-90
3.4004794e-90
7.1196283e-90
4.2891574e-90
4.7405817e-90
3.3638803e-90
5.1710396e-91
7.1505903e-91
1.7863166e-90
2.959353e-90
2.5711955e-90
6.7551506e-90
4.7782149e-90
4.1862351e-90
5.0098864e-90
5.3040328e-90
5.3889204e-90
5.0346824e-90
5.4480036e-90
4.4476451e-90
3.7106853e-90
3.7926116e-90
4.8924271e-90
7.8767761e-90
7.7500624e-90
2.3133423e-90
6.6369686e-90
6.4522502e-90
7.2272986e-90
7.3715072e-90
5.9771405e-90
6.653262e-90
7.8423356e-90
6.4268699e-90
7.0490775e-90
6.4962543e-90
6.9215998e-90
8.0430255e-90
5.4260483e-90
7.4719209e-90
6.2635303e-90
6.3895925e-90
7.2529879e-90
6.2745851e-90
6.2938745e-90
3.8272994e-90
1.3649831e-89
1.5311792e-89
6.6746232e-90
3.477661e-90
5.8649858e-90
5.0365655e-90
4.6091845e-90
5.1069581e-90
2.7039602e-90
3.0053651e-90
3.907469e-90
6.6153978e-90
2.1629036e-89
2.7927571e-89
5.024407e-90
2.3479449e-90
2.8500768e-90
1.3264244e-90
5.2585334e-90
1.6758013e-90
6.7495676e-90
1.1744772e-90
2.5473658e-90
2.2769515e-90
1.3201845e-89
4.5383018e-91
7.0395377e-91
5.7643549e-91
7.3736103e-91
1.5346464e-90
3.2685808e-91
5.8064932e-91
1.5512135e-90
5.3637912e-91
1.2515361e-90
1.9398934e-90
2.990528e-91
2.0551148e-90
2.8488422e-90
3.5163566e-91
1.5586675e-90
6.627102e-91
6.1222219e-91
4.4618662e-91
3.8552362e-91
8.510054e-91
1.026593e-90
1.3008492e-90
1.7835187e-90
1.5340749e-90
1.4315309e-90
1.0069238e-90
1.0939408e-90
9.5373999e-91
2.4892042e-90
2.0257611e-90
1.8472968e-90
1.7004465e-90
1.637107e-90
1.6660078e-90
1.7562191e-90
2.1018264e-90
1.8367144e-90
2.2127144e-91
1.8957237e-91
2.1280977e-91
1.8555533e-91
2.7112043e-91
8.8505764e-91
3.5501104e-91
2.0695904e-90
3.0490142e-90
3.0031016e-90
2.8190794e-90
3.2855464e-90
3.7944226e-90
2.9024686e-90
2.4192065e-90
3.5513663e-90
3.4637791e-90
7.1910147e-90
7.8878793e-91
5.7865695e-91
4.2669837e-91
9.341984e-91
1.1197606e-90
4.1162637e-90
4.4532208e-90
4.2011278e-90
3.6359727e-90
3.8015997e-90
5.5673558e-90
5.0448225e-90
4.2521624e-90
4.5452513e-90
3.9738541e-90
3.7425822e-90
4.6846407e-90
4.2348386e-90
3.4235111e-90
4.442214e-90
4.1186299e-90
4.4943865e-90
3.4570211e-90
3.5004593e-90
2.5310333e-90
2.0286754e-90
1.3732479e-90
2.2402121e-90
4.3343697e-90
1.9264406e-90
4.302111e-90
2.8940291e-90
5.5873022e-90
2.9316733e-90
9.5809566e-91
1.6277128e-90
7.7308135e-91
1.0360682e-90
1.5478648e-90
8.1955795e-91
7.876911e-91
2.0195034e-91
3.4847292e-91
2.5602564e-90
2.8831777e-91
4.7254939e-91
4.6696802e-91
1.0492613e-90
5.2032252e-91
7.7500417e-91
1.5664742e-91
1.3437818e-91
7.1311125e-92
2.4464875e-91
1.427283e-91
3.9161351e-92
1.1858863e-90
3.0544445e-90
9.7613589e-90
2.4263688e-89
4.6323614e-89
1.5294245e-90
7.8599734e-90
5.4477373e-90
5.7122266e-90
6.7335373e-90
6.2780366e-90
5.5229356e-90
4.5503358e-90
5.0407608e-90
6.0558708e-90
3.8872698e-90
3.1675538e-90
2.3785286e-90
2.3844489e-90
2.1078368e-90
3.1464182e-90
3.0764153e-90
1.1492801e-90
3.9058754e-90
9.7669722e-90
2.1927125e-89
4.0158838e-89
7.3825411e-89
5.0051254e-90
3.7888441e-90
9.2510238e-90
7.0020359e-90
7.3053846e-90
6.2980811e-90
6.9177055e-90
6.2272681e-90
6.2769298e-90
6.2042088e-90
5.8694378e-90
1.1053777e-89
4.9703633e-90
4.9809116e-90
6.2509796e-90
3.4867457e-90
4.5446761e-90
5.3405933e-91
3.6051366e-91
3.6962255e-91
3.9019536e-91
3.3794563e-91
3.7447222e-91
1.1122704e-90
4.5241502e-91
7.2830686e-91
7.0998342e-91
3.980021e-91
3.2854034e-91
2.7678815e-91
3.2829001e-91
7.8820231e-91
2.8097885e-90
1.3168435e-90
9.0537058e-91
8.3646602e-91
1.3569046e-90
1.3514101e-90
1.57775e-90
1.2075298e-90
6.2166879e-91
5.3481084e-91
1.6155566e-91
2.2694198e-91
2.4725889e-91
3.4416183e-90
2.1307628e-90
2.3162651e-90
1.5930303e-90
1.7613668e-90
3.1940523e-90
1.5605693e-90
2.072075e-90
3.6309328e-90
1.0058344e-90
4.3960395e-91
2.7011576e-91
6.3814214e-91
1.5992272e-91
1.270627e-91
4.1654236e-92
5.5564183e-91
4.1115746e-90
2.7626183e-90
2.9492631e-90
2.3249871e-90
2.5899975e-90
2.9235731e-90
2.7520117e-90
2.0811677e-90
2.9351911e-90
1.5241076e-90
6.5283219e-91
2.2478402e-90
1.0386802e-90
9.7101977e-91
1.0299997e-90
2.3184071e-91
2.7657365e-91
5.2221377e-90
3.6263291e-90
3.6356036e-90
3.6019377e-90
2.9852908e-90
3.2006597e-90
3.0565163e-90
2.9262175e-90
3.1686437e-90
2.6398041e-90
5.7926517e-90
6.3928831e-90
1.0466507e-89
6.4895208e-90
8.5404199e-91
7.9884211e-91
2.4680336e-90
7.0081793e-90
4.2919281e-90
4.7385123e-90
5.7274797e-90
4.6102636e-90
4.6569217e-90
4.6132324e-90
4.4092001e-90
4.5298672e-90
3.7292904e-90
6.2807881e-90
6.2348244e-90
3.7299564e-90
1.9593879e-89
4.416067e-90
8.4852379e-90
1.598158e-89
4.8812921e-90
8.7537082e-90
6.0328472e-90
5.5158124e-90
6.0906084e-90
6.7960128e-90
6.277577e-90
6.3367102e-90
6.5741585e-90
7.4266151e-90
8.7352534e-90
1.5979004e-89
4.6295546e-90
6.2430853e-90
9.5276366e-90
8.163789e-90
1.4322407e-89
8.1178815e-90
9.8271819e-90
8.7121702e-90
8.5561645e-90
9.3252903e-90
1.0110233e-89
8.0321677e-90
7.4943564e-90
8.70535e-90
7.5533245e-90
9.1016374e-90
9.7685141e-90
7.071342e-90
7.9845874e-90
7.893365e-90
9.2006244e-90
7.4425024e-90
7.3982845e-90
7.3346828e-90
2.2982006e-89
6.2872875e-90
5.6208185e-90
6.446796e-90
9.8478447e-90
4.9607764e-90
5.3704825e-90
1.4323139e-89
7.0344762e-90
7.0974907e-90
2.1732265e-89
8.2585158e-90
6.6321072e-90
1.3708859e-89
9.1019003e-90
3.039957e-90
3.6291542e-90
6.2258476e-90
3.9837487e-90
1.0178443e-89
3.0823865e-90
1.3409925e-89
9.340112e-90
3.8079159e-90
6.5588251e-90
1.5000561e-89
4.1735363e-91
6.1160545e-91
3.6679306e-90
1.5779407e-90
1.8442491e-90
1.2680938e-90
1.9263795e-90
1.2394827e-90
6.1557465e-91
2.9401033e-90
9.1808783e-90
4.0521834e-91
2.5423886e-90
2.934951e-90
3.4599406e-91
4.3179845e-91
6.6619553e-91
1.4783881e-90
6.6268481e-91
3.8091459e-91
2.0905183e-90
1.8303534e-90
2.105142e-90
1.7535224e-90
1.2401521e-90
8.8771422e-91
9.7346759e-91
9.6933576e-91
9.3269551e-91
4.4799221e-91
2.404611e-91
1.2083138e-90
2.5325671e-90
1.9415628e-90
2.1463945e-90
1.9309394e-90
1.6690428e-90
2.0647286e-90
2.1700271e-90
1.0760904e-90
2.1422681e-91
2.3565512e-91
3.5750667e-90
2.3844368e-90
2.7371538e-90
2.7517685e-90
2.3470837e-90
2.7946626e-90
2.6214292e-90
2.3730487e-90
2.2644423e-90
8.3550566e-91
5.2839149e-90
3.6872496e-90
7.5029813e-91
2.1316742e-91
1.7766258e-91
2.0107824e-91
1.7140872e-91
1.2009523e-90
6.9314535e-90
3.7834146e-90
2.6178889e-90
4.1539162e-90
3.7928273e-90
3.8933684e-90
4.3636168e-90
5.1978869e-90
3.8565857e-90
3.2732228e-90
3.9017305e-90
3.4970857e-90
2.1988449e-90
4.1863852e-90
5.2289264e-90
6.1683819e-91
1.4426597e-90
7.0269672e-90
5.3880978e-90
5.2344576e-90
5.2332306e-90
5.0098103e-90
5.0752404e-90
5.5130961e-90
6.1836467e-90
7.0908261e-90
4.8912532e-90
5.5529343e-90
4.7871581e-90
4.8883337e-90
4.9807878e-90
6.2763039e-90
5.3811543e-90
5.1361208e-90
4.8267746e-90
5.0564195e-90
1.4297777e-89
1.4895029e-89
5.4934587e-90
2.191493e-90
6.8670277e-90
6.1389624e-90
1.00959e-89
6.9088775e-90
2.8108098e-90
2.7092447e-90
1.5607415e-89
4.9463699e-90
5.8378548e-90
8.9745117e-91
3.9438119e-90
8.9912782e-91
7.9812992e-91
4.1496151e-90
2.7301972e-90
1.2376368e-90
2.9869394e-90
2.1820345e-90
2.4807077e-90
1.0780976e-89
1.2469058e-90
5.2086077e-91
5.561825e-91
5.5310511e-91
1.7255662e-90
2.0998131e-90
3.2032898e-91
5.1559853e-91
3.5246068e-91
7.0271629e-91
5.5268572e-91
6.3505717e-91
3.1721331e-91
4.7981321e-91
1.6002669e-91
1.1326744e-90
3.4793571e-90
8.4298903e-90
2.2606318e-89
4.4156925e-89
7.3996765e-89
7.0505573e-90
8.0451077e-90
9.9177775e-90
8.0307986e-90
6.9066457e-90
6.3552204e-90
6.6761215e-90
6.4828888e-90
5.8768645e-90
2.5996562e-90
2.7541128e-90
3.0033774e-90
3.4108737e-90
2.2684072e-89
8.9046845e-90
5.5731831e-90
4.4881432e-90
1.1920221e-90
4.3279729e-90
1.0803472e-89
2.2015679e-89
3.8119893e-89
6.6480669e-89
1.0563367e-88
1.5859141e-89
1.185591e-89
9.7270138e-90
8.3519053e-90
8.0470676e-90
8.4659186e-90
8.1641865e-90
7.0965093e-90
7.4087302e-90
7.3276771e-90
1.6196307e-89
6.4250916e-90
5.9670747e-90
2.0299759e-89
1.4123544e-89
1.5538741e-89
2.8762153e-89
5.1726071e-91
3.6595797e-91
4.0776335e-91
3.7910935e-91
3.7854633e-91
3.3651886e-91
1.1488749e-90
7.3190794e-91
7.6768669e-91
4.2358839e-91
4.4549839e-91
3.0896034e-91
6.2584665e-91
4.3711086e-91
3.337879e-91
2.7864904e-90
1.3452298e-90
1.3207925e-90
9.0980065e-91
8.2230995e-91
3.9219904e-91
8.4838467e-91
1.921461e-90
4.5105659e-91
2.1707566e-91
2.4216344e-91
1.825467e-91
4.7358675e-91
3.6961034e-90
2.2642833e-90
2.1201285e-90
1.5658247e-90
1.7496336e-90
1.8960493e-90
1.1915751e-90
1.3208606e-90
2.4259509e-90
2.0450947e-91
1.2711413e-91
9.3520237e-92
2.7662441e-91
3.0601538e-91
1.3203373e-91
1.7027731e-91
6.2520158e-91
4.3844171e-90
2.9640613e-90
2.9776964e-90
2.5905042e-90
2.6820446e-90
3.0430572e-90
3.0883637e-90
2.5585653e-90
2.8756071e-90
8.7803414e-91
1.305615e-90
2.1759147e-90
1.9830803e-90
1.5515316e-90
4.5291296e-91
3.2522358e-91
7.078677e-91
5.531268e-90
3.800512e-90
3.6525844e-90
3.0610699e-90
3.6714219e-90
3.4730701e-90
3.0263536e-90
3.1537164e-90
3.4816029e-90
2.2221141e-90
1.8546688e-90
2.6470921e-90
2.5199671e-90
1.9640352e-90
8.589726e-91
1.2494055e-90
1.312e-90
6.8922455e-90
4.388273e-90
4.6296766e-90
4.981432e-90
4.161027e-90
4.4624963e-90
4.358214e-90
4.135276e-90
3.8900363e-90
2.9424574e-89
3.3455818e-90
2.3449029e-89
3.2130452e-90
9.1409456e-90
3.9394391e-90
3.3100832e-90
4.6192129e-90
9.1150787e-90
6.3593901e-90
5.7600181e-90
6.5175081e-90
7.1738614e-90
6.3905963e-90
5.4143993e-90
6.2095257e-90
5.6208898e-90
6.4395551e-90
4.5655085e-90
3.9761901e-90
7.7551258e-90
1.2272084e-89
2.1578323e-89
1.5101146e-89
1.7420966e-89
1.0978973e-89
7.6168362e-90
8.0087217e-90
7.769919e-90
6.830767e-90
7.7731913e-90
8.1109438e-90
8.1495492e-90
7.2932741e-90
3.0662137e-89
3.2871155e-89
5.3975195e-90
6.5165006e-90
1.8642853e-89
1.2236015e-89
1.4652032e-89
1.3726738e-89
9.9252197e-90
1.1961899e-89
1.1486727e-89
1.0421118e-89
9.5478885e-90
1.1204688e-89
1.0420793e-89
1.034749e-89
1.2025071e-89
8.6575979e-90
8.8871785e-90
1.1258505e-89
1.203981e-89
9.4919254e-90
1.205137e-89
9.6992998e-90
9.0442925e-90
9.6579312e-90
8.7547561e-90
1.1083457e-88
1.0127454e-89
7.3492111e-90
1.0366999e-89
2.2564219e-89
5.2782354e-89
1.0448257e-89
7.623934e-90
7.1253706e-90
8.8961633e-90
3.373602e-89
1.0091482e-89
1.3784824e-89
1.1228093e-89
4.8365828e-90
1.3818506e-89
1.1582884e-89
1.4730412e-89
1.1863214e-89
3.6069412e-90
2.1303039e-89
1.6071685e-89
7.1363254e-89
3.2041979e-89
1.1403883e-89
4.708364e-89
5.1437261e-90
4.8633241e-90
7.950231e-90
1.0147984e-89
4.8226609e-90
3.204581e-90
3.9756924e-90
8.2064759e-90
2.9747333e-90
2.3980558e-90
1.5984609e-90
4.0711329e-90
3.5828792e-90
1.8643591e-90
3.4766619e-91
1.3070692e-90
6.642398e-91
6.2108382e-91
4.3602776e-91
3.8624918e-91
9.9910893e-91
1.1574337e-90
2.1531741e-90
2.1811367e-90
2.6468771e-90
1.83199e-90
1.4139108e-90
9.4529429e-91
9.9494833e-91
2.7622327e-90
2.2123091e-90
2.5618086e-90
2.4922569e-90
1.8644153e-90
1.1304766e-90
2.3402299e-90
2.3816606e-90
1.0154523e-90
1.9962683e-91
2.2119106e-91
3.747698e-91
3.3353034e-91
4.6766559e-91
2.2903949e-91
1.0207172e-90
2.7044499e-90
3.0052199e-90
3.6262747e-90
2.5877531e-90
2.2256845e-90
2.6138175e-90
2.3512555e-90
2.5804082e-90
2.3319181e-90
3.1392407e-90
1.4701431e-90
9.0131764e-91
2.0285198e-91
2.2944424e-91
4.9157378e-90
3.6030352e-90
3.9762759e-90
3.3715048e-90
3.1764516e-90
3.7351326e-90
2.8810391e-90
3.4337531e-90
3.3314373e-90
1.14563e-89
3.6448247e-90
6.7506416e-90
5.5823444e-90
1.6650935e-90
1.8585438e-90
1.8284359e-90
1.0583213e-90
1.089379e-89
9.2968034e-90
3.2986875e-90
3.0372896e-90
5.3314204e-90
4.7405391e-90
5.1350955e-90
5.6742288e-90
7.1663604e-90
5.2844512e-90
4.4246729e-90
4.6765308e-90
4.9023162e-90
1.2609567e-89
1.0701263e-89
3.1346992e-90
1.5361377e-89
6.62821e-90
7.4576112e-90
7.2706145e-90
7.4464216e-90
6.0631964e-90
7.2147555e-90
6.0537257e-90
6.606446e-90
6.5465715e-90
7.7348764e-90
9.2828787e-90
7.023502e-90
7.770412e-90
6.27817e-90
5.5980561e-90
7.7108942e-90
5.7057967e-90
6.8061189e-90
6.5327909e-90
4.9986327e-90
5.653358e-90
5.6706483e-90
6.665707e-90
7.6402677e-90
4.5012501e-90
4.2142846e-90
5.1338367e-90
2.7903007e-90
3.1180922e-90
3.4503689e-90
2.4846001e-90
5.2952533e-90
6.3806664e-90
2.9257184e-90
1.7209749e-90
3.0933648e-90
1.6079788e-90
6.1987835e-90
1.1997581e-90
3.8018937e-90
1.5372448e-90
6.4025564e-90
4.7281931e-90
3.5568854e-90
1.1077326e-89
6.8994165e-91
4.072809e-91
1.2601576e-90
6.4219329e-91
4.9423248e-91
3.3800589e-91
8.4882919e-90
2.2274848e-90
4.7849256e-91
1.4672096e-90
4.96731e-91
2.6210678e-91
5.1466534e-91
4.3249262e-91
4.4936749e-91
1.0717666e-90
2.4803096e-90
1.265441e-90
1.1461046e-90
4.2865605e-90
8.7954483e-90
2.1450407e-89
4.1257955e-89
7.1577623e-89
1.0395566e-88
7.7025117e-90
7.3842545e-90
8.7705014e-90
1.2138107e-89
9.8909178e-90
9.3322676e-90
9.2152717e-90
7.338371e-90
6.8612797e-90
6.3754786e-90
3.4280967e-90
3.9884258e-90
7.439693e-90
4.4105883e-90
6.4628505e-90
6.2211711e-90
6.0257544e-90
1.2265448e-90
4.6603829e-90
1.2897685e-89
2.3836381e-89
3.902166e-89
6.568429e-89
9.2782018e-89
1.3753806e-88
1.455932e-89
1.0703241e-89
1.1538493e-89
9.5666469e-90
1.1557416e-89
8.5969059e-90
8.4728779e-90
1.0527398e-89
9.1909717e-90
1.0296872e-89
2.0978336e-89
1.8680787e-89
7.4249329e-90
1.5972826e-89
2.35859e-89
4.1725849e-89
9.8761613e-90
5.082486e-91
3.7190816e-91
3.7974404e-91
3.8414518e-91
3.5119383e-91
4.1245347e-91
1.1428378e-90
7.6687288e-91
4.6760466e-91
4.2604244e-91
7.1593191e-91
7.6473601e-91
3.3419436e-91
3.5465e-91
4.4998814e-91
2.9851932e-90
1.4442616e-90
1.3644893e-90
9.2716999e-91
8.761102e-91
1.265494e-90
1.4776676e-90
4.7171865e-91
4.2050123e-91
2.4314082e-91
3.6591167e-91
3.7443882e-91
1.286655e-90
3.8332329e-90
2.1841902e-90
2.2001532e-90
1.5789842e-90
1.7487904e-90
2.1770963e-90
2.2236991e-90
1.3940538e-90
1.4297756e-90
2.5531364e-91
5.0862114e-91
1.5667339e-91
4.288123e-91
1.7580908e-91
1.6165684e-91
1.4559283e-91
6.1555819e-91
4.8454082e-90
2.9778209e-90
3.3394983e-90
2.5487538e-90
2.7323641e-90
3.1884015e-90
2.3360462e-90
2.143307e-90
2.1190634e-90
7.4605794e-91
5.1315955e-91
4.6819554e-91
9.4128099e-91
2.2998991e-91
1.2661702e-91
1.0840562e-91
4.5459588e-91
5.9513475e-90
4.063651e-90
3.6839389e-90
3.4093132e-90
3.8802737e-90
3.3070938e-90
3.3482307e-90
2.9751131e-90
3.9109947e-90
5.4145251e-90
8.8141697e-90
5.1595524e-90
2.2809391e-90
9.6632729e-91
2.1258483e-90
2.0657922e-90
2.257979e-90
7.2738594e-90
4.6073474e-90
4.8317118e-90
4.9910015e-90
4.1293341e-90
3.9063645e-90
4.2110404e-90
3.9178052e-90
3.801948e-90
2.6333732e-90
4.2173484e-90
2.6056271e-90
3.8440304e-90
3.8432449e-90
2.9368257e-90
6.4881042e-90
5.3619597e-90
8.8541128e-90
6.4530588e-90
5.8047232e-90
5.5576241e-90
5.7934154e-90
5.7091118e-90
4.9239626e-90
4.8004454e-90
4.903501e-90
3.723637e-90
4.6499934e-90
1.5016615e-89
1.638118e-89
5.2080178e-90
1.3990688e-89
4.2388155e-90
1.6572411e-89
1.1607225e-89
8.6992365e-90
7.6121157e-90
8.1277668e-90
8.020084e-90
6.2176953e-90
6.9990961e-90
8.1020508e-90
7.5683107e-90
5.7143427e-90
7.4063553e-90
5.7324371e-90
5.9649658e-90
2.4011495e-89
1.2171474e-89
1.5387139e-89
1.6701364e-89
1.3788666e-89
9.7886208e-90
8.990955e-90
9.2997416e-90
1.011544e-89
9.4430849e-90
9.8988843e-90
8.8316105e-90
9.9050852e-90
3.9235205e-89
2.595138e-89
1.7053414e-89
1.9588359e-89
1.2882435e-89
1.0268147e-89
1.5566555e-89
1.6815742e-89
1.2266533e-89
1.3896624e-89
1.4435073e-89
1.2830198e-89
1.2265375e-89
1.2328353e-89
1.2525002e-89
1.5305328e-89
1.3092626e-89
1.0092996e-89
1.4665331e-89
1.1049042e-89
1.1421381e-89
1.2061731e-89
1.2282113e-89
1.4228733e-89
1.2829813e-89
1.0798285e-89
1.050954e-89
1.8596582e-89
1.582936e-89
1.1406027e-89
1.8030108e-89
1.0571632e-89
1.0673142e-89
2.938925e-89
1.0003053e-89
6.9669427e-90
6.2049828e-89
6.5466861e-89
1.0055057e-89
9.6166071e-90
8.9091286e-90
6.7109281e-90
1.652374e-89
7.6084374e-90
1.28405e-89
1.1024868e-89
5.7238291e-89
7.9737226e-90
5.4995588e-90
7.5829367e-90
5.5133891e-89
9.6784016e-90
2.5311181e-89
1.1466826e-89
7.3968218e-90
5.9636783e-90
1.6409296e-89
4.100536e-90
5.9214543e-90
7.7289742e-90
6.0375603e-90
2.6240133e-90
6.9241483e-90
2.8377998e-90
1.9459562e-90
9.0068938e-90
2.2069123e-90
2.5454612e-90
3.1477443e-90
2.6613864e-90
3.5442425e-91
4.2635821e-91
6.1461322e-91
1.2820727e-90
6.536394e-91
3.8542506e-91
2.9386316e-90
1.9115028e-90
2.0656362e-90
1.8579341e-90
1.5139442e-90
1.2830237e-90
1.2594212e-90
1.0091707e-90
7.1025519e-91
3.9878599e-91
2.2547451e-91
1.1191805e-90
2.1238608e-90
3.136633e-90
2.9445097e-90
3.1095183e-90
2.5002827e-90
2.0568194e-90
2.2755243e-90
1.005486e-90
2.1685629e-91
8.3268683e-91
3.1626968e-90
2.9433884e-90
3.9015559e-90
3.0030554e-90
2.4448068e-90
2.673064e-90
2.6506889e-90
2.7288772e-90
2.404091e-90
9.5498596e-91
2.8109357e-90
2.4054175e-90
9.0144945e-91
1.8731429e-91
2.1252983e-91
3.9016499e-91
3.3727544e-91
1.1233902e-90
3.8396202e-90
3.10095e-90
3.8334819e-90
4.1828627e-90
5.0430697e-90
3.507617e-90
3.0670782e-90
3.2375506e-90
3.184395e-90
1.0899777e-89
3.8797281e-90
5.0613607e-90
8.3140339e-90
1.733876e-90
9.5312159e-91
7.9461739e-91
4.8012076e-90
5.3511109e-90
6.5848536e-90
4.7436095e-90
4.181431e-90
4.2061034e-90
3.8585108e-90
3.8654765e-90
4.2547551e-90
4.5835387e-90
8.2981089e-90
1.2049302e-89
9.3092952e-90
4.4786108e-90
2.1569293e-89