/*--------------------------------*- C++ -*----------------------------------*\
  =========                 |
  \\      /  F ield         | OpenFOAM: The Open Source CFD Toolbox
   \\    /   O peration     | Website:  https://openfoam.org
    \\  /    A nd           | Version:  7
     \\/     M anipulation  |
\*---------------------------------------------------------------------------*/
FoamFile
{
    version     2.0;
    format      ascii;
    class       volScalarField;
    location    "2000";
    object      omega;
}
// * * * * * * * * * * * * * * * * * * * * * * * * * * * * * * * * * * * * * //

dimensions      [0 0 -1 0 0 0 0];

internalField   nonuniform List<scalar> 
34387
(
460.61147
452.72445
471.06623
453.74921
472.00696
456.24034
460.59517
463.29161
460.36902
457.94281
449.85205
449.26008
450.27642
452.00768
451.16621
452.96528
451.33684
449.55799
451.53034
465.99246
471.3845
466.86549
453.39424
450.72366
451.11569
452.83556
452.4821
454.21685
454.51096
476.85727
463.05935
473.97405
469.13799
465.70593
470.25688
452.86314
455.99759
456.4662
458.31239
454.47449
460.24486
463.17308
458.04438
456.17289
447.65356
449.35082
447.92736
446.9553
448.43668
450.20828
448.82049
447.3008
448.83422
445.64524
446.5979
447.9358
449.47824
447.35854
447.99976
450.97681
449.62087
446.59261
448.13652
463.48465
467.04327
459.17065
471.37793
462.56293
457.73797
453.14361
451.87866
450.84681
451.86163
451.77166
453.3427
453.59667
459.46388
449.39119
449.26502
450.48613
450.10069
451.42766
451.76818
450.27507
450.88549
453.08486
452.08511
478.58224
467.20476
473.25381
474.57988
480.57992
479.22182
457.40444
461.80984
465.39489
462.99454
459.78128
471.3986
467.56286
461.85529
464.77946
450.59444
452.59398
453.25754
454.25935
451.78089
454.2965
453.66947
456.68859
451.88597
484.53032
495.55038
477.46432
473.90001
446.07939
446.8412
447.91661
446.69052
445.53162
445.28372
446.0823
447.19092
446.36409
446.70088
445.69653
443.17293
444.7133
444.51235
445.80885
448.46948
447.32228
443.79545
445.15811
442.24786
456.69088
442.28662
458.287
465.20064
444.93781
467.18107
444.68041
461.09282
456.19066
457.74992
461.38254
457.23007
470.22586
460.09149
462.46284
459.14637
456.86044
473.77178
465.14952
459.37242
456.18232
456.86556
453.04348
450.15628
451.17587
450.4848
452.42724
450.32042
449.53107
451.31759
452.23624
460.48234
450.43467
450.88512
449.73747
449.09685
449.58421
450.88973
449.31467
448.90094
450.03347
450.85032
452.78756
448.97971
447.99449
448.40529
449.35375
448.69482
449.65564
447.9294
448.10624
449.2258
448.92501
457.57186
458.56521
466.29883
461.77145
479.15448
467.39445
481.30558
481.61944
475.32899
474.81414
459.56584
463.8999
464.51576
469.44194
468.63525
471.82695
474.80497
479.65893
475.9395
454.346
456.99273
459.26793
457.97832
455.97744
460.30926
463.77594
459.03178
456.79771
492.85563
488.62386
473.02608
477.86794
450.35056
449.09935
450.86323
451.44042
449.81299
451.14481
450.75101
452.61129
449.58474
463.96522
465.24678
470.88826
459.97631
495.55818
510.73722
486.69796
480.47603
445.00989
445.41226
444.82026
445.58397
444.86695
444.05499
444.26147
445.11675
446.19414
445.38692
446.30959
443.04572
444.15754
442.29808
443.27171
441.57112
443.8969
444.65501
442.2954
454.00729
451.73344
440.11748
449.04604
440.2739
440.87768
453.61225
441.17952
452.13595
449.74742
449.68626
453.5802
444.1121
453.70446
460.30956
455.83442
460.82089
470.02777
445.76
463.29704
470.88547
463.33198
465.64143
458.91775
461.50987
466.34765
454.64733
457.94576
457.82755
457.11572
456.54432
454.7659
461.8779
461.06837
456.54695
455.09876
465.03762
457.5726
455.25316
453.17972
455.37924
457.68113
451.1237
448.63511
447.9133
448.04612
449.56872
450.07211
448.70008
447.31464
447.80953
449.36896
449.57597
448.8143
447.57947
450.66277
448.97912
447.80297
445.72943
447.1171
449.34387
453.51551
449.94628
447.94906
447.0538
449.07224
447.91847
448.22898
448.00269
448.92469
446.98427
447.96621
456.07579
455.45563
459.21313
460.33173
457.0868
451.40816
448.8164
447.26481
447.15995
447.39701
448.10378
447.9059
446.40386
447.24268
446.23983
447.08131
450.66475
451.82972
455.131
453.54123
459.27258
461.83507
474.03715
465.05667
479.85035
467.26453
475.49588
475.43072
482.42224
482.1426
459.5494
464.83005
469.856
469.68279
464.65363
478.43874
481.90252
474.99499
473.82859
456.3868
459.0377
461.53752
461.36196
459.0543
463.01206
464.30553
468.76358
466.64875
492.07836
505.42304
506.68523
497.30647
452.52248
453.99437
455.41304
454.73987
453.3978
455.96527
457.89471
454.98013
453.30471
470.94405
478.61409
467.85315
464.13127
504.71801
498.44223
474.55061
480.92664
448.90902
449.60821
448.12503
449.12647
448.93617
448.33297
448.67049
449.99773
447.68826
454.72794
455.83916
458.19113
453.11835
466.25809
469.52868
476.05424
461.72976
444.29662
443.98057
444.44684
444.97768
443.98376
443.36226
443.17006
443.80378
444.50758
444.10894
442.76633
443.32428
441.11781
442.8907
440.56675
442.20803
441.14894
441.78673
444.72348
446.94315
448.19033
446.89476
439.58197
439.4897
439.04995
445.21071
439.0189
444.34477
446.51461
448.6928
446.43358
456.01147
453.27984
442.14599
447.29372
450.38113
448.75647
443.07161
450.67492
456.27495
451.93772
453.41746
450.08254
450.99315
456.40165
452.66209
453.84045
455.82874
454.55331
454.44814
454.02542
456.48362
457.64942
454.89722
454.53986
476.91624
457.43042
460.66327
461.6925
465.78802
464.81235
454.31911
452.40088
453.67852
452.06851
450.78607
452.34983
453.92232
452.174
454.27705
462.89529
446.81444
447.83969
446.32886
446.8472
447.31674
446.13679
446.6819
445.57178
445.97488
447.13029
444.99786
445.47965
446.62209
446.6698
448.05119
444.31129
443.13174
445.23574
446.37932
458.22746
445.19116
466.66086
444.27387
447.84456
471.4511
447.26923
458.66074
455.15668
459.04814
465.07176
458.44301
452.02183
449.77216
452.81443
451.26823
446.29381
447.14639
447.74051
447.1061
447.58643
446.98205
445.52866
445.41699
446.1901
451.3339
453.67526
457.24223
456.02281
460.96643
463.89983
457.76177
453.01668
451.08761
448.82678
445.07558
446.92972
446.62562
446.4623
446.49298
447.00993
444.93215
445.56708
445.73417
448.433
449.86069
448.02307
449.07246
450.41134
451.80136
456.30272
453.9291
480.44464
467.61233
475.93198
482.73822
482.84852
475.87317
459.21851
464.64054
464.6734
469.85532
469.89587
475.77295
475.40898
482.45452
481.6771
456.36334
459.21985
461.78009
461.70247
459.34267
465.34968
469.33364
468.79357
465.06441
496.78516
516.51417
501.72554
491.80545
454.63165
455.99444
457.45482
457.57898
456.15002
459.4576
461.73117
460.71067
458.51239
473.17839
478.90916
488.01641
479.33079
500.05732
518.64417
522.46105
508.33957
451.41943
452.16754
451.68046
452.58852
453.04647
453.34095
454.64605
452.17695
450.99691
461.05711
465.57205
460.55924
457.64427
473.49752
484.41908
468.14636
463.82288
451.24541
448.10773
447.49347
448.40579
447.89734
447.34629
447.90807
447.00761
447.40384
446.34795
451.41103
452.81725
450.30088
454.19795
456.43331
458.71258
452.91586
443.83262
443.7791
442.74512
443.23877
444.15919
443.0558
443.77306
443.40558
442.57686
441.9086
443.17152
443.62415
440.79698
441.93589
440.39522
441.41674
439.73437
440.19906
442.33765
444.9158
444.12289
445.17245
438.61618
442.94693
438.57722
438.20196
442.10185
438.11048
442.80366
443.67182
445.89696
446.27952
447.90239
447.34335
445.77309
441.26595
444.81625
443.31948
440.5685
445.24697
442.6104
444.41719
446.23034
449.14931
446.85448
451.81442
452.97675
449.46603
452.13453
452.72364
453.08313
453.19936
454.63898
453.54765
454.42696
475.47745
469.91934
463.84453
461.25682
464.52705
470.95765
454.06668
458.76217
456.41255
456.0879
458.36747
457.09922
458.35588
461.87054
460.27608
464.89403
450.90113
461.38234
449.65716
451.01184
449.90078
449.2168
451.27517
450.13744
449.26164
450.63224
462.45524
470.32062
468.36119
451.05503
445.90633
445.26142
446.24143
445.5043
444.78175
445.6583
444.74037
444.29421
445.15399
445.53901
445.17154
444.12801
444.88409
443.25464
443.92899
442.44386
441.72861
443.62503
444.35296
442.38428
452.1835
441.45921
443.52576
458.64625
442.48305
453.72819
451.28319
448.53301
450.35051
453.04789
461.11375
446.86348
461.79798
473.02285
458.40113
472.19184
449.15416
480.17556
471.52194
462.12324
458.60395
463.51604
471.20034
459.05857
454.01741
451.66543
449.77735
452.86353
451.09447
449.99382
446.65927
446.34279
446.80859
446.72577
446.29301
445.01915
444.47862
444.85227
444.31317
448.73915
448.44014
449.841
451.2953
454.15887
457.04016
453.22971
452.47507
451.10149
448.92719
444.62661
446.41361
446.30541
445.90098
445.9254
446.28255
446.25995
444.23111
444.03794
444.48508
446.30536
447.23114
447.43966
447.75918
449.33042
447.35942
448.37415
480.86184
467.83267
475.5873
476.61638
483.98711
482.46266
459.42968
464.92841
464.88207
470.24053
470.17969
477.14442
482.95996
483.03087
477.44609
455.98156
459.00925
461.48492
461.48928
458.88309
465.66858
465.78818
469.99707
469.29582
504.74829
503.07191
524.27748
513.09271
454.71711
456.17726
457.57825
457.7583
456.33655
460.58181
462.82049
463.00585
460.4138
479.625
489.75931
484.03726
477.68797
508.40053
536.02818
514.81684
499.60775
453.51457
454.26331
454.19875
455.20106
455.06923
456.60616
458.07519
457.21935
455.84609
465.47014
471.13989
467.14267
462.73815
474.09784
482.43942
494.99821
482.59521
450.74275
450.56569
451.04215
451.6018
451.194
451.48265
449.29104
450.12226
452.34582
455.95024
458.05244
455.2515
453.5579
460.91498
466.41934
460.09511
457.11881
450.34763
449.92652
447.09466
447.15207
447.54145
447.10965
446.74725
446.84786
446.36338
445.34626
445.839
449.12034
448.68279
448.15517
450.90212
451.90548
449.72396
443.55159
443.36595
442.17513
442.99177
443.61505
442.72258
442.35128
443.28731
442.57259
442.50972
439.80924
440.83517
440.13005
441.27307
442.81716
439.4964
441.61714
441.3787
439.24697
442.76981
443.65103
444.2891
437.86637
441.99589
437.94531
437.66072
441.47281
437.70942
440.92072
441.45816
443.46401
444.30146
443.55831
444.66728
439.51877
441.11088
442.81366
441.83044
438.82768
440.15384
441.68779
440.39849
442.33655
443.42956
445.24451
447.73533
450.60486
449.28299
446.18866
444.73122
449.69219
448.13332
443.37251
451.16445
451.56479
451.54194
452.9892
451.60858
455.01485
475.22366
460.4836
463.71633
462.96873
469.00295
469.92558
466.76793
461.84938
460.93882
457.04523
458.54153
459.46372
461.98813
461.91204
467.11933
452.10518
453.25014
453.4195
454.83433
454.67836
456.2873
454.38437
453.26276
455.01241
466.23759
469.61384
477.47876
474.27365
467.17429
458.08155
462.45426
455.34868
448.63079
447.70731
449.21549
448.46386
448.21933
448.5957
449.41252
448.21963
447.30238
452.69568
456.67314
465.95708
476.73539
451.72604
448.99688
444.55031
443.8498
444.56758
445.09216
444.47745
443.94094
443.38608
444.02716
444.48156
444.59907
444.06801
442.04452
442.79785
442.70643
443.51314
442.5724
440.70229
441.2783
443.10651
447.30236
441.51394
448.6097
440.65419
440.71911
445.85307
439.96429
446.06256
444.41187
446.41424
448.20303
443.3489
450.82799
454.69654
449.77664
455.1504
444.87509
463.50894
453.71914
455.41202
453.72041
450.00638
451.82862
455.45616
461.24753
462.07353
470.82857
466.1995
484.61606
468.22406
466.75504
484.80922
460.59409
453.94179
453.36278
451.63867
449.87861
449.81711
446.3639
446.1277
446.1884
445.88472
445.79152
443.6315
444.05822
443.91625
443.51155
447.53799
446.65121
447.3587
446.37887
448.55229
448.14297
449.63232
457.01493
452.36924
452.67257
452.46953
451.22695
449.07879
445.602
445.90167
446.13384
445.57622
445.5222
445.79741
445.82862
443.62489
443.42717
443.73563
443.93518
444.88337
444.93117
445.59445
445.76034
446.63066
446.81905
481.20151
468.1098
476.10796
483.06097
483.24977
475.97262
459.50854
469.98157
464.76536
465.1183
470.69756
476.69616
478.83656
483.86838
482.16314
456.16798
459.23614
461.72112
461.69171
459.08171
466.25661
466.65934
471.21229
470.92114
507.5987
518.65586
516.6832
509.38447
454.41004
456.00922
455.85061
457.29049
457.3538
461.36766
463.73767
463.28793
461.02485
480.31473
481.9663
492.56602
491.99702
520.56398
529.013
555.97711
534.75723
453.61655
454.44241
454.32831
455.3672
455.21393
457.74237
459.18751
459.08919
457.68258
467.34252
470.76129
472.22329
466.15976
484.82655
498.64178
487.92565
480.04347
452.82314
453.64736
453.11469
453.00981
453.65809
453.90976
454.63462
454.84442
455.54509
459.56944
461.86072
459.45343
457.32437
465.63473
472.39191
466.97608
462.23271
450.3437
450.69184
450.30963
449.88142
450.30348
448.14387
450.24495
450.80798
448.69067
453.37983
451.34116
452.37496
454.54741
455.4608
457.76189
454.77855
453.05726
449.19748
446.85812
446.66979
446.94584
446.61306
446.33727
445.60155
445.96175
445.00927
444.71189
447.74097
447.0187
446.63553
447.35591
448.55904
448.01658
447.55737
443.41253
442.75968
442.96443
442.23302
441.92351
442.09635
443.10885
443.2798
442.40079
442.08485
438.86379
440.43352
440.97693
442.28871
439.64879
440.78523
439.47368
441.17745
439.08004
442.79934
437.29085
440.6128
437.34119
440.98406
437.49921
437.54229
443.26332
440.31359
442.24644
441.74761
439.91781
442.31166
443.119
443.75372
438.43754
439.38894
441.46724
439.34448
438.7694
438.19715
440.88404
438.79237
440.4954
440.99405
442.93088
446.51748
445.62158
441.53776
442.5927
443.56645
444.08663
440.22153
440.68105
448.28444
449.30352
449.56613
449.51123
449.72123
457.2312
474.45834
469.21363
463.17866
461.13215
464.00066
470.11958
456.53425
460.06772
457.84384
458.55021
460.94689
462.52821
461.93779
467.12343
467.79836
487.47247
478.79368
459.794
455.15374
456.66248
455.85344
457.23835
458.05305
457.57245
457.58228
459.99053
475.33139
483.09141
450.91034
452.43725
451.51342
451.43957
452.36051
450.63157
451.5266
452.88528
451.95177
463.49568
459.25238
456.16901
460.6228
467.76408
471.20017
481.12683
478.14154
458.6086
455.47711
453.23346
451.57092
446.95494
446.31071
448.02865
447.51678
447.58914
447.54806
448.12416
445.92958
446.62858
450.84569
449.46745
453.26891
458.24519
448.92159
442.76351
443.20614
443.96438
444.0943
444.31386
443.68153
443.265
443.81226
443.45588
441.1746
441.98254
443.1493
443.57859
441.61063
442.51022
441.77356
439.92775
440.32889
442.15856
446.05204
445.16898
439.61249
443.23398
438.8994
440.12772
444.05341
439.39713
444.46582
442.60232
443.19903
445.31338
446.89436
447.42476
442.143
449.96381
446.89669
441.03601
444.60388
446.17338
444.02151
446.83505
444.74375
446.31325
448.70364
452.32397
452.93947
454.88282
453.53214
460.93294
457.62831
456.43902
458.85408
477.71267
468.31865
485.23153
496.76525
476.0444
483.46508
459.1406
455.54117
453.10427
453.30413
451.73803
450.03342
445.82022
445.59298
446.21003
445.45934
445.72828
443.25495
443.34787
443.09105
442.99941
445.20201
445.92818
445.5466
444.84558
447.2745
446.306
447.08989
446.07491
456.97584
452.27529
451.76033
452.66807
452.6031
451.4053
449.26186
445.17019
446.07022
445.30265
445.50629
445.54888
445.37492
443.01053
443.22449
443.42473
443.22498
444.06241
444.01986
444.45796
444.42925
444.48983
444.43468
445.09324
480.65766
468.44785
482.59208
475.6881
476.81076
484.00309
459.84234
465.14128
464.74832
470.23944
470.37823
478.58648
484.33598
483.15041
477.80155
456.19666
459.19286
459.13608
461.63322
461.8663
471.4113
467.11054
467.68564
473.15796
504.92248
503.74027
516.87516
516.12391
454.64929
456.07797
456.26582
457.48325
457.57798
461.57144
463.95265
464.20497
461.7797
480.16982
484.23518
498.09325
492.46268
524.04615
541.11685
561.1431
543.23982
453.35894
454.08259
454.14458
454.9485
455.01732
458.68989
458.25896
459.67342
460.0354
468.98344
473.3659
473.04421
468.53696
485.97647
488.76008
502.83026
507.55513
452.92012
453.18847
453.19102
453.83499
453.759
455.75296
455.78176
456.68194
456.68965
461.76141
463.98498
462.57461
460.37462
469.22871
471.97133
475.43318
466.97286
452.41108
452.77353
452.39454
452.22978
452.6644
453.92075
453.3989
452.62557
453.21553
454.9198
456.60362
455.95572
457.91565
459.44264
461.8439
459.096
456.98885
450.12857
449.83595
450.11518
449.77176
449.51039
449.83546
449.52326
447.38712
447.75497
449.72029
451.60424
452.46012
450.50396
453.06724
450.98279
451.99555
454.16794
446.74324
446.36385
446.0737
446.2936
446.56666
445.10615
445.34153
444.51727
444.33428
446.06796
446.5318
446.03955
445.48481
447.17829
446.51047
446.09315
446.8086
443.3739
441.75505
442.67312
442.98359
443.09159
442.22021
441.99544
442.04121
442.8012
440.72376
440.85129
438.75939
440.44004
438.65089
440.18496
439.20804
441.79436
441.92926
439.3599
442.21256
437.07938
439.35959
437.06593
441.24384
442.51222
440.18591
437.18526
437.22143
439.89586
441.49243
439.60434
442.34454
438.10972
437.77707
440.06193
438.09268
440.43431
438.3628
438.00973
438.33889
442.77284
439.88592
441.84637
441.39351
439.49694
442.09961
442.34745
439.4138
439.25002
438.64994
441.20447
441.06997
438.58608
445.7199
446.72902
446.46987
448.42633
448.28129
460.89913
473.24654
460.68162
463.73916
463.214
469.23109
469.80259
468.05037
462.66152
460.54182
458.48035
457.27676
458.95304
461.25459
463.30938
468.78082
454.70334
455.86665
455.43599
456.68753
457.2509
459.7032
457.40483
458.0068
460.45188
478.50277
478.78659
489.08921
487.63603
491.67999
482.24013
467.78897
455.04122
454.15828
453.98394
454.77132
455.70558
454.51696
454.73813
456.0495
455.99174
462.83872
459.93712
465.01612
477.34179
486.14097
450.16854
450.25655
450.30425
450.92791
450.88761
450.45888
449.61648
448.72576
449.62974
451.73231
454.59084
456.61663
453.58028
463.78154
459.07449
455.61025
460.66989
453.31737
451.50306
450.21443
449.07049
445.77942
445.33794
447.25879
446.90445
447.21352
446.85638
447.27455
444.92045
445.40148
447.54066
448.40939
450.80082
449.11525
439.38437
441.3977
442.75428
440.55479
443.13951
442.53403
443.79887
443.81573
443.55844
443.4037
442.38458
442.77553
443.1556
442.81914
440.8799
441.81428
439.6736
441.49043
441.25542
438.98287
442.07957
438.35243
444.18681
444.70945
439.2983
442.58625
438.62326
443.2044
441.5832
442.05227
443.87457
445.70055
444.78882
439.39687
441.12348
442.77475
440.79971
440.02361
442.70325
444.02889
442.26288
444.07982
442.43201
443.33103
445.03796
449.74283
451.06948
449.42737
449.30498
447.03882
447.67732
445.88813
445.42086
458.7169
454.62142
458.94312
469.49987
460.1569
469.64723
474.44114
471.33126
481.06195
481.64695
458.37856
453.8096
454.81905
452.95069
453.42247
451.89692
450.2175
442.90292
442.72266
445.59101
446.15669
445.42335
445.46979
445.28966
442.5932
442.80608
444.26224
444.59809
444.06687
443.84117
444.80794
445.5648
445.26761
444.57069
456.7185
452.216
451.72677
451.7077
452.81144
452.79357
451.6107
449.46146
446.09072
445.23829
445.21437
445.40214
445.35845
442.97482
443.10751
442.89417
442.80518
443.36548
443.58521
443.83234
443.685
443.72384
443.58337
443.98613
444.09603
480.81513
467.68809
475.38216
475.18401
482.29291
482.18966
460.09697
464.85878
470.08001
471.0995
465.67844
482.26033
476.9329
478.46224
484.34629
456.59818
459.24484
459.50169
461.97646
461.74193
467.60983
467.35253
472.18061
472.61709
506.90761
517.31081
510.03778
500.6383
454.68325
456.15588
456.18039
457.56734
457.48469
461.8986
461.63741
464.30628
464.65829
490.96205
479.85917
483.11315
491.81941
537.42637
520.23946
537.917
553.38719
453.65434
454.45267
454.34786
455.18926
455.28775
458.93871
458.78534
460.39879
460.18212
467.77543
472.14483
474.18858
468.72848
485.72522
490.71164
521.21765
502.54649
452.67205
452.93231
453.53392
453.50982
452.91183
456.52427
456.84119
457.33637
457.69533
463.65881
463.7222
465.46348
465.68062
472.93812
478.06363
477.60071
472.67737
452.50125
452.8486
452.46688
452.39262
452.83508
454.49729
454.49223
455.06784
455.07796
458.1541
459.11102
459.06401
460.2474
463.5699
465.69292
463.35196
461.21795
452.189
451.78113
451.91877
452.20048
452.06615
453.01434
452.72082
451.86436
452.22059
455.63283
454.76238
453.46559
454.19786
454.83752
456.85858
455.80098
457.98226
450.03547
449.57178
449.75999
449.48705
449.29888
448.9907
449.24321
447.13969
446.93605
450.99458
450.47368
448.53002
449.09644
449.40516
451.48527
452.25355
450.2211
446.71925
446.20289
446.34063
446.08603
445.93224
444.81423
444.06199
444.20008
444.95216
445.42898
445.751
445.05861
444.76685
445.67943
446.11525
445.56387
445.0283
443.41107
442.74701
442.67938
442.96303
443.01945
442.1537
441.95871
441.6734
441.91901
438.49547
440.0025
440.58753
441.66345
441.72326
439.15279
440.24088
439.09581
438.58987
440.66337
440.86934
441.0876
437.02749
439.10203
437.00488
437.00351
438.91352
436.95165
439.49994
441.91137
442.08782
439.68493
441.85916
437.49185
437.67724
439.02035
437.62247
440.873
442.12516
439.656
437.83324
437.62941
437.87442
439.35826
441.1489
439.22652
437.81067
439.81465
439.77592
437.76472
438.16499
440.35589
440.25768
438.09002
443.95023
444.92235
444.34983
442.86911
443.57614
442.59797
448.01709
447.71135
464.93301
473.0124
468.1043
461.96547
459.50896
462.61811
468.76451
456.73787
460.35151
458.17008
458.76795
460.99522
464.18605
463.55957
469.57741
470.2502
487.64085
479.0825
460.40074
458.0847
457.43936
456.35737
455.63129
456.45884
457.75661
458.46751
460.88272
478.78195
489.20813
454.65663
453.81457
453.52718
454.02505
454.98248
455.1011
454.70603
455.99633
456.52406
467.56991
462.2718
461.16802
466.768
481.90666
482.71407
494.90351
492.58692
468.73955
453.66056
452.87074
453.67479
453.09538
453.28327
453.54554
454.16411
452.43304
453.39756
455.61668
458.41111
460.31862
457.38175
462.88371
459.06351
464.9097
449.97102
449.57515
449.71621
449.46074
449.91647
447.40233
448.23393
448.87035
448.02572
453.02271
451.64556
449.36642
450.50996
450.88914
454.1086
456.26169
452.87184
450.15282
448.94549
448.12736
447.32767
444.97189
444.67107
446.77266
447.01529
446.5181
446.43625
446.73321
444.23046
444.55642
446.32793
446.90773
447.24701
448.17751
437.94923
439.22197
440.65932
438.50967
441.32213
441.09402
440.37099
443.19901
442.3226
443.6769
442.48351
443.29362
443.47479
442.79231
442.45697
442.17179
443.14346
442.96375
442.16359
441.07266
439.04097
441.0104
440.18523
440.89808
443.72848
438.76081
441.54324
438.1717
441.07299
442.72134
442.24575
438.70736
439.59685
441.47447
439.12174
443.75552
444.29213
439.03837
440.19133
441.96656
439.797
442.83625
441.33992
441.82855
443.5167
441.95428
442.21595
441.003
440.69217
444.23664
444.33477
443.32224
442.83956
454.67998
450.70881
452.88984
449.55808
447.46778
450.5514
457.6508
454.69526
461.09935
465.48539
467.16892
475.19889
458.38294
452.98395
453.06542
454.7476
453.00509
453.60747
452.08866
450.42013
443.63624
442.60046
443.28484
445.47062
446.176
445.34678
445.20249
445.35939
442.47734
442.4747
442.36944
443.24659
443.54765
443.96996
444.20589
443.63117
443.52335
457.34171
451.95523
451.69796
451.71789
451.8117
453.01273
453.01173
451.82824
449.67433
446.17434
445.3112
445.22294
445.1823
445.31775
442.68676
442.8546
442.75984
442.92877
443.23754
443.43001
443.15087
442.96082
443.03899
443.27156
443.52296
443.29359
481.36344
467.74761
475.58986
482.31781
482.35568
475.42985
459.23859
464.29787
469.60986
469.67224
464.35853
477.15502
475.39316
480.86598
483.00175
456.79204
459.53725
459.82564
462.46408
461.8977
467.50737
471.67925
473.20834
468.30654
516.62682
502.98232
501.22883
516.3569
455.17348
457.76692
456.60713
457.87633
456.51508
462.15039
461.79714
464.44681
464.64709
483.85944
480.72955
489.3078
494.41056
534.24033
548.94082
532.67753
518.55291
453.70546
454.4557
454.39231
455.2836
455.21609
458.53222
458.87699
460.40014
460.03961
468.39706
468.56006
472.72209
474.29996
506.86196
485.87619
489.9021
502.89074
453.01474
453.27127
453.8512
453.82698
453.30042
456.7961
456.99372
457.9169
457.72581
463.37524
462.69508
465.30724
464.58294
470.2682
475.50856
478.355
471.97952
452.25876
452.17808
452.12922
452.5662
452.58392
455.5523
456.14144
455.94626
455.49194
462.02643
461.44861
462.58066
462.3681
468.1803
468.92966
470.00531
469.87852
452.27461
451.91733
451.9876
452.27277
452.21331
454.08036
453.78283
453.74761
454.09746
457.61695
457.02933
457.61035
458.265
459.47626
461.63198
460.14155
462.41057
452.09794
451.54296
451.62929
451.83317
451.72998
451.38524
452.2452
452.4702
451.61365
454.1208
453.70664
452.49624
452.95019
456.16915
455.50269
453.57124
454.21719
450.03386
449.3277
449.58176
449.4881
449.17617
448.66781
448.8166
446.79579
446.66116
449.91646
450.18254
448.1102
447.72493
450.952
450.43402
448.25079
448.80095
446.7641
446.14314
445.85474
445.99427
446.23611
444.68963
444.75275
444.00993
443.98385
445.0442
444.33497
444.55599
445.24491
445.12993
445.41377
444.63857
444.36304
443.51232
442.72876
443.01014
442.78497
441.86991
441.67252
441.94793
442.13705
443.03253
440.57578
440.57092
441.6327
441.65464
439.08778
440.10028
439.06255
439.91137
438.4244
438.48269
436.96864
438.75236
436.89156
440.6019
441.69969
441.82981
436.92941
439.29331
437.00044
439.1346
438.80203
440.74676
440.48982
440.70805
437.45893
437.46601
438.80555
437.4691
437.48146
437.30334
438.6192
437.35675
439.02753
441.61603
441.77064
439.18388
439.06376
439.08407
437.32886
437.28349
437.5062
439.41114
439.41682
437.52463
440.96067
442.51869
440.8281
441.73696
442.97744
441.507
448.58405
447.90081
469.36522
472.83709
459.38642
462.35536
461.97948
468.02984
468.47859
467.70953
461.68894
459.08483
455.50279
456.87732
457.58905
459.86551
462.84573
469.12548
455.14534
456.35465
455.95365
457.07265
457.56608
460.98346
458.59915
459.32985
461.77565
478.25084
477.93644
488.57236
489.51766
492.99714
482.2738
468.41306
463.03495
456.70659
455.44807
455.64498
454.87461
454.53375
454.7318
455.66311
455.79502
457.11368
462.84215
468.55032
482.9293
495.81308
453.63411
452.82345
453.28635
452.80442
452.67647
452.88528
453.49363
453.02009
453.97998
457.00378
457.94943
459.69689
458.70219
468.74482
462.3085
460.66891
467.30463
456.91585
455.58155
452.1798
451.65058
452.83083
452.43298
452.88044
452.76478
453.18873
450.99206
451.65357
453.10852
454.30478
454.71169
458.17006
460.17864
456.43327
447.72766
447.33579
449.39395
449.45475
449.12022
448.93538
449.27557
446.4765
446.91604
447.77001
449.74592
450.65013
448.53378
452.61945
451.24563
448.62934
449.68798
448.00788
447.16547
446.68845
444.43504
446.13039
446.47094
446.29054
446.93762
446.40927
446.22142
444.23783
443.78233
444.00621
445.38477
445.86549
446.02479
446.65136
438.35694
438.26894
437.80126
440.26589
440.36604
438.36327
438.85744
440.58406
440.66963
442.84639
442.84317
443.64399
442.32504
443.16212
443.27916
442.56957
442.29874
442.06646
442.87413
443.01463
439.91463
440.72727
441.90138
442.03098
440.07122
440.99681
438.95523
438.84516
440.79829
440.70629
442.48698
441.87591
439.93661
437.68277
438.26412
440.33822
441.5204
443.33322
438.49834
439.17681
440.99996
438.66805
440.79912
442.38434
441.88461
439.67508
439.87901
439.07964
438.57585
440.89151
440.5375
439.70881
439.36863
442.63482
442.5141
443.03288
445.73973
444.36714
445.93273
450.10681
451.46135
447.76673
447.02752
453.03688
459.02563
457.84409
453.06244
452.27468
452.94576
454.8813
453.13814
453.82854
452.29956
450.63667
443.19995
442.97921
442.8376
442.41247
446.25446
445.44066
445.33922
445.17821
445.30892
442.33898
442.30827
442.35081
442.72973
443.01826
442.79414
442.94481
443.23801
456.60897
452.71535
451.41561
451.71446
451.84551
451.98089
453.2423
453.24227
452.05387
449.89529
445.26726
446.30747
445.18576
445.35474
445.3026
442.86127
442.87313
442.64577
442.67968
442.79729
442.96936
442.87386
443.10157
442.91469
443.11618
442.89406
442.73338
481.28113
468.44197
483.15036
476.4525
476.68192
483.57542
459.19878
464.44885
464.32318
469.7291
469.77072
477.44064
484.865
483.87347
477.1967
455.89867
458.65118
461.14027
461.28966
458.73367
466.87514
471.59656
470.45881
466.41598
509.74182
503.34917
513.15188
515.39771
455.30937
457.95694
456.70633
456.83178
458.18817
461.76329
462.29545
465.07931
464.54004
481.27932
489.11114
490.07657
482.94316
542.50288
523.77799
519.75335
540.59057
454.25791
454.96629
455.71672
455.68111
454.90472
460.63853
458.89927
460.32579
459.25191
469.59134
469.79722
474.54155
474.06374
490.90634
485.74535
499.36256
510.38904
453.07781
453.32349
453.85008
453.89821
453.33699
456.89133
456.48997
457.84009
457.41841
463.27539
462.90375
464.94105
465.31659
470.78615
471.22411
476.81137
478.07963
452.61809
452.53232
452.92609
452.96915
452.58849
455.40147
456.03112
456.30302
455.7372
460.21129
461.03607
462.0098
461.26873
466.77043
465.2608
468.53352
467.08062
452.03516
451.63999
451.7397
452.00239
451.94733
454.71278
454.88197
455.16697
455.0729
460.57773
460.8605
461.85262
461.88159
468.79409
467.12188
468.61241
467.57652
452.18802
451.66099
451.69457
451.90009
451.85575
453.25104
453.30537
453.52541
453.48723
457.22256
457.05907
456.38524
456.68546
461.01398
458.95409
459.24958
461.20316
452.10412
451.48598
451.56133
451.62686
451.44511
451.111
451.9449
452.07994
451.2405
452.11018
453.46641
453.53174
452.2801
455.04362
454.74462
452.74755
453.14524
450.09922
449.54092
449.47905
449.13085
449.26014
446.60371
448.59975
448.57354
446.55869
449.51728
449.73911
447.43682
447.21852
449.98512
450.18587
447.90075
447.54575
446.86245
446.15918
445.84854
445.95882
446.22151
444.67446
443.96393
443.98404
444.68587
444.83279
444.9432
444.19093
444.07112
444.83061
443.99284
444.18755
445.00061
443.66747
443.12424
441.99569
442.16417
443.11312
441.91388
442.85495
442.84345
441.72941
440.55693
441.66424
440.57798
438.43454
440.03065
438.41967
439.86298
439.04937
439.08168
441.65579
440.55066
440.48652
441.61069
441.67278
436.91129
439.01078
436.98311
438.94131
436.93986
437.00087
438.60885
438.6952
437.50545
437.1633
438.41526
437.15693
440.26154
441.4501
441.55667
437.25764
437.51096
438.8648
437.21412
438.74651
438.51318
440.37535
438.83412
438.84707
437.1156
437.13035
438.70141
438.6525
436.93425
437.01422
439.79502
442.7688
439.81118
440.32994
442.56094
440.296
448.68735
449.88935
473.27392
473.93068
467.66093
461.56449
459.30912
462.26668
468.41608
455.38834
459.1159
456.91554
457.36578
459.62269
462.18549
462.04048
468.45575
468.81819
485.68066
459.17489
477.01084
453.89439
455.12481
454.64654