/*--------------------------------*- C++ -*----------------------------------*\
  =========                 |
  \\      /  F ield         | OpenFOAM: The Open Source CFD Toolbox
   \\    /   O peration     | Website:  https://openfoam.org
    \\  /    A nd           | Version:  7
     \\/     M anipulation  |
\*---------------------------------------------------------------------------*/
FoamFile
{
    version     2.0;
    format      ascii;
    class       volScalarField;
    location    "2000";
    object      p;
}
// * * * * * * * * * * * * * * * * * * * * * * * * * * * * * * * * * * * * * //

dimensions      [0 2 -2 0 0 0 0];

internalField   nonuniform List<scalar> 
34387
(
-1.2221408e+183
-1.1585813e+183
-1.1822162e+183
-1.1568483e+183
-1.2139069e+183
-1.1513764e+183
-1.2043759e+183
-1.2416973e+183
-1.2449604e+183
-1.2080358e+183
-1.0914983e+183
-1.1450946e+183
-1.1442871e+183
-1.1790475e+183
-1.1794919e+183
-1.1767089e+183
-1.1415224e+183
-1.1438401e+183
-1.1785621e+183
-1.1822097e+183
-1.1822072e+183
-1.1478739e+183
-1.1555616e+183
-1.149238e+183
-1.089873e+183
-1.1435002e+183
-1.1427263e+183
-1.177451e+183
-1.1783668e+183
-1.2049422e+183
-1.1417254e+183
-1.2346748e+183
-1.1960778e+183
-1.200643e+183
-1.2381872e+183
-1.0847349e+183
-1.1344145e+183
-1.1737121e+183
-1.1698228e+183
-1.1385738e+183
-1.2060958e+183
-1.2420156e+183
-1.2451393e+183
-1.2093784e+183
-1.0278558e+183
-1.1114266e+183
-1.0778133e+183
-1.0787904e+183
-1.1117718e+183
-1.1087919e+183
-1.075279e+183
-1.0780889e+183
-1.1107513e+183
-1.1461628e+183
-1.1453233e+183
-1.145796e+183
-1.1798023e+183
-1.1801379e+183
-1.1802863e+183
-1.1770809e+183
-1.1428668e+183
-1.1444505e+183
-1.1789307e+183
-1.1820357e+183
-1.1821932e+183
-1.1478705e+183
-1.1821564e+183
-1.1478564e+183
-1.1135741e+183
-1.1551676e+183
-1.1483186e+183
-1.0891064e+183
-1.1419929e+183
-1.1415161e+183
-1.1756857e+183
-1.1766054e+183
-1.1377067e+183
-1.0828558e+183
-1.0266017e+183
-1.0771661e+183
-1.0764732e+183
-1.1098724e+183
-1.1105791e+183
-1.1453022e+183
-1.1445804e+183
-1.178139e+183
-1.1793463e+183
-1.1950535e+183
-1.1294376e+183
-1.1914729e+183
-1.1864076e+183
-1.2266189e+183
-1.230822e+183
-1.075822e+183
-1.1250398e+183
-1.1607364e+183
-1.1656551e+183
-1.1301987e+183
-1.2353845e+183
-1.1978979e+183
-1.2023174e+183
-1.2388215e+183
-1.022261e+183
-1.0684626e+183
-1.1056663e+183
-1.1016266e+183
-1.0723817e+183
-1.1362071e+183
-1.1743806e+183
-1.1707704e+183
-1.1401065e+183
-1.2063117e+183
-1.2420079e+183
-1.2451219e+183
-1.2095269e+183
-9.6735386e+182
-1.0124003e+183
-1.0441993e+183
-1.0463526e+183
-1.0147665e+183
-1.0158564e+183
-1.014669e+183
-1.04654e+183
-1.0471683e+183
-1.1119871e+183
-1.0793061e+183
-1.0801656e+183
-1.0794518e+183
-1.1127042e+183
-1.1125408e+183
-1.109233e+183
-1.0765615e+183
-1.0789155e+183
-1.1112081e+183
-1.1469609e+183
-1.1461825e+183
-1.146052e+183
-1.1458122e+183
-1.179843e+183
-1.1807923e+183
-1.1801157e+183
-1.1807467e+183
-1.1773244e+183
-1.1430216e+183
-1.1444939e+183
-1.1788527e+183
-1.1820254e+183
-1.1808835e+183
-1.1476027e+183
-1.1821359e+183
-1.1478601e+183
-1.1135809e+183
-1.1814935e+183
-1.147606e+183
-1.1135538e+183
-1.0803665e+183
-1.1485036e+183
-1.1720139e+183
-1.0894383e+183
-1.1376596e+183
-1.1402439e+183
-1.1736837e+183
-1.1412278e+183
-1.1416876e+183
-1.1747653e+183
-1.1752465e+183
-1.1359903e+183
-1.0821294e+183
-1.1092038e+183
-1.0760555e+183
-1.0260827e+183
-1.0759973e+183
-1.1093392e+183
-1.1436785e+183
-1.1430533e+183
-1.1763722e+183
-1.1772596e+183
-1.0728297e+183
-1.0210238e+183
-9.6652999e+182
-1.0136437e+183
-1.0452729e+183
-1.0141819e+183
-1.0459097e+183
-1.0786797e+183
-1.0781415e+183
-1.1109019e+183
-1.1114774e+183
-1.1455122e+183
-1.1447608e+183
-1.1781296e+183
-1.1795609e+183
-1.1849542e+183
-1.1173265e+183
-1.2224875e+183
-1.2180831e+183
-1.1765492e+183
-1.1817453e+183
-1.064963e+183
-1.1196814e+183
-1.1139221e+183
-1.1501927e+183
-1.155618e+183
-1.1932e+183
-1.1884148e+183
-1.2272908e+183
-1.2314687e+183
-1.0147695e+183
-1.0598422e+183
-1.0925077e+183
-1.0975632e+183
-1.0647433e+183
-1.1271132e+183
-1.1618586e+183
-1.1665718e+183
-1.131945e+183
-1.2353588e+183
-1.1979435e+183
-1.2024252e+183
-1.2388954e+183
-1.0067296e+183
-9.6290889e+182
-1.0415053e+183
-1.0377919e+183
-1.0100177e+183
-1.0699143e+183
-1.106302e+183
-1.1024447e+183
-1.0736834e+183
-1.1364954e+183
-1.1746669e+183
-1.1711109e+183
-1.1403606e+183
-1.2063261e+183
-1.2420205e+183
-1.2451398e+183
-1.2095505e+183
-9.0947832e+182
-9.5257299e+182
-9.5444315e+182
-9.8491576e+182
-9.8551444e+182
-9.5517414e+182
-9.5477154e+182
-9.8471422e+182
-9.8287971e+182
-1.0135142e+183
-1.0445481e+183
-1.0468083e+183
-1.048177e+183
-1.0154999e+183
-1.0163193e+183
-1.0170962e+183
-1.016234e+183
-1.0473366e+183
-1.0482139e+183
-1.1120463e+183
-1.0793904e+183
-1.080736e+183
-1.0803537e+183
-1.0801309e+183
-1.1133625e+183
-1.1128346e+183
-1.1125708e+183
-1.1093959e+183
-1.0767374e+183
-1.0791349e+183
-1.1114161e+183
-1.1473636e+183
-1.1473949e+183
-1.1462071e+183
-1.1463882e+183
-1.1458243e+183
-1.1798438e+183
-1.181723e+183
-1.1808745e+183
-1.1801237e+183
-1.1815048e+183
-1.1773353e+183
-1.1430354e+183
-1.144514e+183
-1.1788672e+183
-1.1475975e+183
-1.1474056e+183
-1.1135155e+183
-1.1476056e+183
-1.1135656e+183
-1.0803725e+183
-1.1463993e+183
-1.1133537e+183
-1.080357e+183
-1.0483622e+183
-1.137263e+183
-1.1653635e+183
-1.1305731e+183
-1.082699e+183
-1.1347528e+183
-1.1691867e+183
-1.1721183e+183
-1.0730701e+183
-1.0263796e+183
-1.0759724e+183
-1.10812e+183
-1.1057527e+183
-1.1095622e+183
-1.0770714e+183
-1.0761518e+183
-1.1092599e+183
-1.138715e+183
-1.1407663e+183
-1.1417182e+183
-1.1738355e+183
-1.1752146e+183
-1.1426022e+183
-1.1426461e+183
-1.1749815e+183
-1.1756499e+183
-1.0716449e+183
-1.0204655e+183
-1.1099397e+183
-1.0775733e+183
-1.0450883e+183
-9.6611197e+182
-1.0134416e+183
-1.0134939e+183
-1.0449259e+183
-1.077609e+183
-1.1102614e+183
-1.143782e+183
-1.1430989e+183
-1.1764381e+183
-1.1772982e+183
-1.0602199e+183
-1.0134523e+183
-9.6218471e+182
-9.5422309e+182
-9.0892863e+182
-9.5428745e+182
-9.8454063e+182
-9.8420967e+182
-1.0150726e+183
-1.0460251e+183
-1.0156139e+183
-1.04661e+183
-1.0787713e+183
-1.0782974e+183
-1.1110945e+183
-1.1116584e+183
-1.1455222e+183
-1.1447597e+183
-1.1781279e+183
-1.17957e+183
-1.1752443e+183
-1.105869e+183
-1.1661595e+183
-1.1714916e+183
-1.2134472e+183
-1.2085987e+183
-1.0539945e+183
-1.102711e+183
-1.1393942e+183
-1.145005e+183
-1.108501e+183
-1.2232249e+183
-1.2190832e+183
-1.1791142e+183
-1.18386e+183
-1.0057679e+183
-1.0496104e+183
-1.0817607e+183
-1.0875018e+183
-1.0550935e+183
-1.12199e+183
-1.116594e+183
-1.1517331e+183
-1.1568149e+183
-1.1932664e+183
-1.1884813e+183
-1.2271971e+183
-1.23141e+183
-9.5680065e+182
-9.9895671e+182
-1.0296239e+183
-1.0342349e+183
-1.0032291e+183
-1.0614456e+183
-1.0935781e+183
-1.0984357e+183
-1.0662426e+183
-1.1273958e+183
-1.1620629e+183
-1.1667695e+183
-1.1321742e+183
-1.235369e+183
-1.1979563e+183
-1.2024416e+183
-1.2389106e+183
-1.0079178e+183
-9.7781188e+182
-9.060122e+182
-9.805916e+182
-9.4807676e+182
-9.5040588e+182
-1.0419465e+183
-1.0382781e+183
-1.0111373e+183
-1.0701102e+183
-1.1065196e+183
-1.1027149e+183
-1.0738531e+183
-1.1365164e+183
-1.1746884e+183
-1.1711312e+183
-1.1403777e+183
-8.5375987e+182
-8.9708482e+182
-8.9521586e+182
-9.2427912e+182
-9.2566138e+182
-8.9654734e+182
-8.974206e+182
-9.2624405e+182
-9.2610528e+182
-9.5359056e+182
-9.5572008e+182
-9.8552116e+182
-9.8618175e+182
-9.8653079e+182
-9.5610759e+182
-9.5597632e+182
-9.5549594e+182
-9.8513764e+182
-9.8314831e+182
-1.0136765e+183
-1.0447279e+183
-1.0469822e+183
-1.0481602e+183
-1.0485883e+183
-1.0169921e+183
-1.0155937e+183
-1.0173272e+183
-1.0171955e+183
-1.0163783e+183
-1.0474902e+183
-1.0483731e+183
-1.1120621e+183
-1.0793998e+183
-1.0804999e+183
-1.0808556e+183
-1.0803595e+183
-1.0801423e+183
-1.1134405e+183
-1.1135804e+183
-1.1128518e+183
-1.1127569e+183
-1.1094157e+183
-1.0767588e+183
-1.0791455e+183
-1.1114343e+183
-1.1135219e+183
-1.113591e+183
-1.0804083e+183
-1.113366e+183
-1.0803662e+183
-1.0483615e+183
-1.1127614e+183
-1.0802198e+183
-1.0483584e+183
-1.0176138e+183
-1.1183047e+183
-1.0724973e+183
-1.1258051e+183
-1.1197719e+183
-1.1549969e+183
-1.1608599e+183
-1.1657562e+183
-1.13187e+183
-1.098392e+183
-1.0659236e+183
-1.0208485e+183
-1.0701826e+183
-1.1026642e+183
-1.135837e+183
-1.1695024e+183
-1.1723466e+183
-1.0742503e+183
-1.0424382e+183
-9.6618027e+182
-1.0108203e+183
-1.044396e+183
-1.0127832e+183
-1.0453131e+183
-1.0136024e+183
-1.0131903e+183
-1.0450506e+183
-1.076767e+183
-1.0775136e+183
-1.1085119e+183
-1.1101171e+183
-1.1060028e+183
-1.1106068e+183
-1.0785664e+183
-1.0778007e+183
-1.1099231e+183
-1.1388665e+183
-1.1423356e+183
-1.1408898e+183
-1.1432487e+183
-1.1752013e+183
-1.1738237e+183
-1.1754765e+183
-1.1426371e+183
-1.1426411e+183
-1.17483e+183
-1.1756725e+183
-1.0585588e+183
-1.0127484e+183
-9.61884e+182
-1.110021e+183
-1.0776702e+183
-1.0458239e+183
-9.0878455e+182
-9.8363779e+182
-9.5322312e+182
-9.8395801e+182
-9.5378405e+182
-1.0148597e+183
-1.0149236e+183
-1.0456353e+183
-1.0777498e+183
-1.1104159e+183
-1.1437799e+183
-1.1430982e+183
-1.1764321e+183
-1.1772885e+183
-1.0482573e+183
-1.0047609e+183
-9.5631556e+182
-9.0557506e+182
-9.5557882e+182
-9.2583106e+182
-8.5341291e+182
-8.9660537e+182
-8.9670018e+182
-9.2583567e+182
-9.5558819e+182
-9.8517751e+182
-9.8485972e+182
-1.0151581e+183
-1.0461338e+183
-1.015712e+183
-1.0467012e+183
-1.0787777e+183
-1.0783026e+183
-1.1111009e+183
-1.1116648e+183
-1.165792e+183
-1.0953118e+183
-1.1563252e+183
-1.1993793e+183
-1.2041115e+183
-1.1612686e+183
-1.0432912e+183
-1.097418e+183
-1.0916721e+183
-1.1284848e+183
-1.1340862e+183
-1.1687022e+183
-1.1739585e+183
-1.2144358e+183
-1.2097075e+183
-9.9642965e+182
-1.0392419e+183
-1.0765551e+183
-1.0707914e+183
-1.0447544e+183
-1.1057062e+183
-1.1413065e+183
-1.1466101e+183
-1.1112367e+183
-1.2232679e+183
-1.2192445e+183
-1.1794412e+183
-1.1839585e+183
-9.4959318e+182
-9.9023649e+182
-1.0201341e+183
-1.0252239e+183
-9.9487858e+182
-1.0513601e+183
-1.0831139e+183
-1.0886237e+183
-1.0567151e+183
-1.1222445e+183
-1.116889e+183
-1.1519591e+183
-1.1570405e+183
-1.1932794e+183
-1.1884952e+183
-1.227209e+183
-1.2314228e+183
-9.0115802e+182
-9.4152517e+182
-9.4499945e+182
-9.7447749e+182
-9.7059781e+182
-9.9997524e+182
-1.0301007e+183
-1.0347069e+183
-1.0042681e+183
-1.0616384e+183
-1.0938532e+183
-1.0986674e+183
-1.0664091e+183
-1.1274158e+183
-1.1620786e+183
-1.1667887e+183
-1.132193e+183
-1.00806e+183
-9.7815157e+182
-8.5111888e+182
-9.2026045e+182
-8.9160036e+182
-8.9371243e+182
-9.2235511e+182
-9.808428e+182
-9.490916e+182
-9.5130682e+182
-1.042106e+183
-1.0384557e+183
-1.0112921e+183
-1.0701308e+183
-1.1065379e+183
-1.1027361e+183
-1.0738724e+183
-7.9991453e+182
-8.4011786e+182
-8.4119872e+182
-8.6881445e+182
-8.6808354e+182
-8.6941552e+182
-8.6961134e+182
-8.4120241e+182
-8.4136058e+182
-8.9823774e+182
-8.9603615e+182
-9.2442314e+182
-9.2593131e+182
-9.2701372e+182
-8.9703503e+182
-8.9738077e+182
-8.9826545e+182
-9.2683161e+182
-9.265432e+182
-9.5372922e+182
-9.5579794e+182
-9.8563783e+182
-9.869051e+182
-9.8627994e+182
-9.8668421e+182
-9.5699971e+182
-9.5618904e+182
-9.5678465e+182
-9.5558099e+182
-9.8521221e+182
-9.8330796e+182
-1.0136919e+183
-1.0447466e+183
-1.0469913e+183
-1.0481182e+183
-1.0484035e+183
-1.0486232e+183
-1.0170202e+183
-1.0175078e+183
-1.0156037e+183
-1.0173738e+183
-1.0172004e+183
-1.0163851e+183
-1.0474972e+183
-1.0483778e+183
-1.0804142e+183
-1.0802327e+183
-1.0808557e+183
-1.0801388e+183
-1.048378e+183
-1.0483579e+183
-1.0176103e+183
-1.0482638e+183
-1.0176113e+183
-9.8764479e+182
-1.1039042e+183
-1.1417611e+183
-1.1057954e+183
-1.0596907e+183
-1.1125313e+183
-1.1485524e+183
-1.0130507e+183
-1.0875139e+183
-1.0557328e+183
-1.0613292e+183
-1.0934911e+183
-1.1273287e+183
-1.1217525e+183
-1.1562035e+183
-1.1615114e+183
-1.165966e+183
-1.0989221e+183
-1.1321039e+183
-1.0672161e+183
-1.0357625e+183
-1.0049169e+183
-9.6207673e+182
-1.0396146e+183
-1.008257e+183
-1.0713591e+183
-1.1030444e+183
-1.1360416e+183
-1.1697722e+183
-1.1723587e+183
-1.0744246e+183
-1.0427317e+183
-9.088837e+182
-9.8130947e+182
-9.5107687e+182
-9.5267578e+182
-9.8254901e+182
-9.5301092e+182
-9.5331133e+182
-9.83274e+182
-9.8340467e+182
-1.0118577e+183
-1.0447728e+183
-1.0460105e+183
-1.0133938e+183
-1.0138017e+183
-1.0462136e+183
-1.0145606e+183
-1.01452e+183
-1.0457763e+183
-1.0781513e+183
-1.0769548e+183
-1.0787903e+183
-1.110096e+183
-1.1087589e+183
-1.110985e+183
-1.1061612e+183
-1.110784e+183
-1.0787521e+183
-1.0779578e+183
-1.1100362e+183
-1.1388846e+183
-1.1435742e+183
-1.1425751e+183
-1.1409141e+183
-1.1435248e+183
-1.1753547e+183
-1.1767255e+183
-1.1738412e+183
-1.175491e+183
-1.1426444e+183
-1.1426498e+183
-1.1748291e+183
-1.1756642e+183
-1.0463266e+183
-1.0041118e+183
-9.5609576e+182
-9.0551087e+182
-1.1100273e+183
-1.0776776e+183
-1.0459226e+183
-8.5350431e+182
-8.963904e+182
-9.2503305e+182
-9.2562243e+182
-8.9662647e+182
-9.8412338e+182
-9.5431972e+182
-9.8452224e+182
-9.5499954e+182
-1.0149392e+183
-1.0149924e+183
-1.0457428e+183
-1.0777562e+183
-1.1104217e+183
-1.0372434e+183
-9.9512485e+182
-9.4938213e+182
-9.009296e+182
-8.5081725e+182
-9.2633689e+182
-9.5563983e+182
-7.9970736e+182
-8.4110695e+182
-8.4102709e+182
-8.6924016e+182
-8.692186e+182
-8.9770185e+182
-8.9776123e+182
-9.2631054e+182
-9.5566856e+182
-9.852779e+182
-9.8493499e+182
-1.0151639e+183
-1.0461401e+183
-1.0157193e+183
-1.0467093e+183
-1.1564389e+183
-1.0854597e+183
-1.1469354e+183
-1.1517544e+183
-1.1947936e+183
-1.1898139e+183
-1.0332069e+183
-1.0812296e+183
-1.0866617e+183
-1.123391e+183
-1.1181783e+183
-1.1588206e+183
-1.2005268e+183
-1.2051402e+183
-1.1635401e+183
-9.8711555e+182
-1.0288513e+183
-1.0600095e+183
-1.0656019e+183
-1.0341868e+183
-1.1003306e+183
-1.0946485e+183
-1.1303431e+183
-1.1358924e+183
-1.1689506e+183
-1.174245e+183
-1.2145271e+183
-1.209923e+183
-9.4178487e+182
-9.8135089e+182
-1.0104444e+183
-1.0156099e+183
-9.8610527e+182
-1.0410577e+183
-1.0778905e+183
-1.072308e+183
-1.0464547e+183
-1.1060291e+183
-1.1416038e+183
-1.1467958e+183
-1.1114986e+183
-1.2232775e+183
-1.2192563e+183
-1.1794569e+183
-1.1839718e+183
-8.9536674e+182
-9.3832911e+182
-9.3468587e+182
-9.66958e+182
-9.6277906e+182
-9.9122623e+182
-1.0206303e+183
-1.025632e+183
-9.9581476e+182
-1.0515247e+183
-1.0833955e+183
-1.0888691e+183
-1.0568571e+183
-1.1222626e+183
-1.1169079e+183
-1.1519719e+183
-1.1570559e+183
-8.4722461e+182
-8.8916588e+182
-8.8681955e+182
-9.1459049e+182
-9.1750232e+182
-9.423286e+182
-9.4579225e+182
-9.7461993e+182
-9.7072442e+182
-1.0000766e+183
-1.0302348e+183
-1.0348471e+183
-1.0043824e+183
-1.0616521e+183
-1.0938717e+183
-1.0986855e+183
-1.0664238e+183
-1.0080752e+183
-9.7828107e+182
-7.9779653e+182
-8.372711e+182
-8.6485287e+182
-8.6685602e+182
-8.3908847e+182
-9.2041654e+182
-8.9243865e+182
-8.9450416e+182
-9.2245079e+182
-9.8099303e+182
-9.492077e+182
-9.5143299e+182
-1.0421245e+183
-1.0384742e+183
-1.0113086e+183
-7.4758458e+182
-7.866187e+182
-7.880802e+182
-7.8759326e+182
-8.1380752e+182
-8.1441579e+182
-7.8745357e+182
-8.1480437e+182
-8.1470325e+182
-8.4085831e+182
-8.4165894e+182
-8.4137079e+182
-8.6899967e+182
-8.696608e+182
-8.6813257e+182
-8.6981433e+182
-8.698844e+182
-8.4210602e+182
-8.419668e+182
-8.9828861e+182
-8.9612891e+182
-9.2454362e+182
-9.2703541e+182
-9.2604e+182
-9.2734226e+182
-8.9781547e+182
-8.9711057e+182
-8.9815653e+182
-8.9831237e+182
-9.2690242e+182
-9.2661036e+182
-9.5374372e+182
-9.5580373e+182
-9.856453e+182
-9.874573e+182
-9.8697468e+182
-9.8628823e+182
-9.8675017e+182
-9.5755141e+182
-9.5709663e+182
-9.5619699e+182
-9.5688049e+182
-9.5559194e+182
-9.8522363e+182
-9.8332284e+182
-1.0481192e+183
-1.048261e+183
-1.0483703e+183
-1.0486246e+183
-1.017029e+183
-1.0175519e+183
-1.0175922e+183
-1.0173804e+183
-1.0176049e+183
-1.0176056e+183
-9.8764143e+182
-1.0175626e+183
-9.8764235e+182
-9.5771396e+182
-1.0915565e+183
-1.0475617e+183
-1.0993806e+183
-1.0930395e+183
-1.1293509e+183
-1.1355755e+183
-1.1444247e+183
-1.1090248e+183
-1.0746945e+183
-1.0040648e+183
-1.0441796e+183
-1.0501789e+183
-1.0811522e+183
-1.1154196e+183
-1.1503461e+183
-9.5623792e+182
-1.0013678e+183
-9.972496e+182
-1.0267849e+183
-1.0316423e+183
-1.0884068e+183
-1.0570007e+183
-1.0625348e+183
-1.0941593e+183
-1.1276119e+183
-1.1220572e+183
-1.1565052e+183
-1.1617461e+183
-1.165989e+183
-1.0991768e+183
-1.1321264e+183
-1.0674233e+183
-1.0360933e+183
-1.0059076e+183
-9.7630498e+182
-9.4693699e+182
-9.0571893e+182
-9.4933597e+182
-9.79101e+182
-1.0399206e+183
-1.0092081e+183
-1.0715417e+183
-1.1032258e+183
-1.1360595e+183
-1.1697897e+183
-1.0744451e+183
-1.0429033e+183
-8.5391484e+182
-8.9589469e+182
-8.9450347e+182
-9.2312108e+182
-9.2417363e+182
-8.9631521e+182
-8.9645679e+182
-9.247911e+182
-9.2492547e+182
-9.8135449e+182
-9.5180554e+182
-9.531165e+182
-9.5342186e+182
-9.8274435e+182
-9.8375395e+182
-9.5399667e+182
-9.5398977e+182
-9.8368592e+182
-9.8371529e+182
-1.0119935e+183
-1.0459204e+183
-1.0448656e+183
-1.0462898e+183
-1.0143298e+183
-1.0134422e+183
-1.0145379e+183
-1.046358e+183
-1.0146032e+183
-1.0145859e+183
-1.0459254e+183
-1.0783983e+183
-1.0781396e+183
-1.0769626e+183
-1.0788866e+183
-1.1102162e+183
-1.1108071e+183
-1.108776e+183
-1.1111315e+183
-1.1061835e+183
-1.1107947e+183
-1.0787593e+183
-1.0779696e+183
-1.1100518e+183
-1.1437031e+183
-1.1436129e+183
-1.1425779e+183
-1.1435181e+183
-1.1753698e+183
-1.1770507e+183
-1.1770329e+183
-1.1755001e+183
-1.0351623e+183
-9.9441759e+182
-9.4932343e+182
-9.0096623e+182
-8.5088902e+182
-1.0459284e+183
-7.9991026e+182
-8.6926835e+182
-8.6933291e+182
-8.414416e+182
-8.4108036e+182
-8.9739282e+182
-9.2534601e+182
-9.2606684e+182
-8.9772734e+182
-9.8419924e+182
-9.5436118e+182
-9.8459176e+182
-9.5504984e+182
-1.0149426e+183
-1.0149964e+183
-1.0457491e+183
-1.0270379e+183
-9.8562275e+182
-9.4159647e+182
-8.9528029e+182
-8.4708941e+182
-7.9760348e+182
-9.2642141e+182
-9.5564356e+182
-7.4739556e+182
-7.8776584e+182
-7.876138e+182
-8.1474402e+182
-8.1474155e+182
-8.420118e+182
-8.4190034e+182
-8.6951815e+182
-8.6951543e+182
-8.9777286e+182
-8.9782643e+182
-9.2638756e+182
-9.5567306e+182
-9.8528396e+182
-9.8494006e+182
-1.1473185e+183
-1.0762295e+183
-1.1373218e+183
-1.1803044e+183
-1.1853308e+183
-1.1422228e+183
-1.023801e+183
-1.108492e+183
-1.0713208e+183
-1.0763683e+183
-1.1133861e+183
-1.1495666e+183
-1.1542228e+183
-1.1960201e+183
-1.1911092e+183
-9.7811635e+182
-1.0190007e+183
-1.0497691e+183
-1.0550742e+183
-1.0240477e+183
-1.0841189e+183
-1.0895109e+183
-1.1250405e+183
-1.1199613e+183
-1.1590579e+183
-1.2007023e+183
-1.2052378e+183
-1.1636764e+183
-9.3384773e+182
-9.7237501e+182
-9.7696603e+182
-1.0056959e+183
-1.0006952e+183
-1.0305952e+183
-1.0614984e+183
-1.0669944e+183
-1.0358531e+183
-1.1006244e+183
-1.0948989e+183
-1.1305703e+183
-1.1361665e+183
-1.1689762e+183
-1.1742569e+183
-1.214541e+183
-1.2099491e+183
-8.8882915e+182
-9.311423e+182
-9.270176e+182
-9.5900858e+182
-9.5460264e+182
-9.8238236e+182
-1.010999e+183
-1.0160623e+183
-9.8706048e+182
-1.0411925e+183
-1.0781314e+183
-1.072566e+183
-1.0465761e+183
-1.1060541e+183
-1.1416277e+183
-1.1468128e+183
-1.111518e+183
-8.4240357e+182
-9.0850138e+182
-8.8114207e+182
-8.8405697e+182
-9.117082e+182
-9.3907822e+182
-9.3549093e+182
-9.6699774e+182
-9.6285596e+182
-9.9129667e+182
-1.0207328e+183
-1.0257292e+183
-9.9588137e+182
-1.0515349e+183
-1.0834131e+183
-1.0888843e+183
-1.0568669e+183
-7.9460719e+182
-8.6049257e+182
-8.3310664e+182
-8.3536928e+182
-8.6267645e+182
-8.8984835e+182
-8.8759353e+182
-9.1465571e+182
-9.1749808e+182
-9.4241216e+182
-9.4588754e+182
-9.7472259e+182
-9.7081168e+182
-1.0000861e+183
-1.0302463e+183
-1.0348602e+183
-1.0043943e+183
-9.7829428e+182
-7.4586694e+182
-7.8435933e+182
-8.1125221e+182
-8.1277113e+182
-7.8560109e+182
-8.3803994e+182
-8.649579e+182
-8.6698741e+182
-8.3986514e+182
-9.2053175e+182
-8.9254898e+182
-8.945889e+182
-9.2255214e+182
-9.8100751e+182
-9.492195e+182
-9.5144608e+182
-6.9645745e+182
-7.3521382e+182
-7.6189312e+182
-7.6199037e+182
-7.3563021e+182
-7.3559398e+182
-7.3482987e+182
-7.6113672e+182
-7.6149255e+182
-7.8728749e+182
-7.8864711e+182
-7.8807381e+182
-7.8835276e+182
-8.1379012e+182
-8.1450981e+182
-8.1507541e+182
-7.8782455e+182
-8.1490601e+182
-8.1498446e+182
-8.4092833e+182
-8.4170851e+182
-8.4168273e+182
-8.4184916e+182
-8.6904051e+182
-8.6942203e+182
-8.6966832e+182
-8.6821573e+182
-8.6986852e+182
-8.6995863e+182
-8.4217066e+182
-8.4200315e+182
-8.9829233e+182
-8.9613855e+182
-9.2455622e+182
-9.2760935e+182
-9.2711465e+182
-9.2604986e+182
-9.2742533e+182
-8.9785377e+182
-8.9813685e+182
-8.9711741e+182
-8.9820095e+182
-8.983148e+182
-9.2690818e+182
-9.2661552e+182
-9.8761444e+182
-9.8761741e+182
-9.869831e+182
-9.8675971e+182
-9.5768529e+182
-9.5768394e+182
-9.5710442e+182
-9.5688811e+182
-9.876259e+182
-9.8763695e+182
-9.5771181e+182
-9.8762113e+182
-9.5771121e+182
-9.2768668e+182
-1.0807931e+183
-1.1184518e+183
-1.0817305e+183
-1.0365287e+183
-1.0873926e+183
-1.1238357e+183
-9.943074e+182
-1.0626482e+183
-1.0331109e+183
-1.0388269e+183
-1.0687145e+183
-1.1027641e+183
-1.0967949e+183
-1.1324201e+183
-1.138408e+183
-1.144839e+183
-1.1093814e+183
-1.0759563e+183
-9.493323e+182
-9.9294757e+182
-9.8823041e+182
-1.0166037e+183
-1.0219975e+183
-1.0454646e+183
-1.0514116e+183
-1.0822812e+183
-1.115724e+183
-1.1506527e+183
-9.0120344e+182
-9.6958056e+182
-9.4093778e+182
-9.4428464e+182
-9.7322614e+182
-1.0022088e+183
-9.9810159e+182
-1.027013e+183
-1.0318602e+183
-1.0886817e+183
-1.0571391e+183
-1.0626927e+183
-1.0944131e+183
-1.1276375e+183
-1.1220813e+183
-1.1565386e+183
-1.1617773e+183
-1.0991992e+183
-1.0674433e+183
-1.0362649e+183
-1.0060474e+183
-9.763928e+182
-9.4770288e+182
-9.1954245e+182
-8.9134282e+182
-8.5121064e+182
-8.9313679e+182
-9.2156389e+182
-9.5004865e+182
-9.7917256e+182
-1.0401092e+183
-1.0093719e+183
-1.0715638e+183
-1.1032472e+183
-1.0429199e+183
-8.4213094e+182
-8.4192599e+182
-8.4055351e+182
-8.004074e+182
-8.6793955e+182
-8.6893214e+182
-8.6931326e+182
-8.6947471e+182
-8.4166236e+182
-8.9632441e+182
-8.9654408e+182
-8.951855e+182
-9.2305146e+182
-9.2430347e+182
-9.2522696e+182
-8.9728641e+182
-8.9715213e+182
-9.2517421e+182
-9.2510431e+182
-9.8148029e+182
-9.5191168e+182
-9.5395154e+182
-9.5318712e+182
-9.5417281e+182
-9.8367288e+182
-9.8280673e+182
-9.8385117e+182
-9.5402653e+182
-9.5403727e+182
-9.8372933e+182
-9.837584e+182
-1.0120068e+183
-1.0458919e+183
-1.0461011e+183
-1.044872e+183
-1.0463203e+183
-1.0146851e+183
-1.0143601e+183
-1.0134496e+183
-1.0145685e+183
-1.0463627e+183
-1.0146061e+183
-1.0145879e+183
-1.045932e+183
-1.0783488e+183
-1.0782084e+183
-1.0781363e+183
-1.0788839e+183
-1.1102126e+183
-1.110609e+183
-1.1108047e+183
-1.1111284e+183
-1.143697e+183
-1.143638e+183
-1.1436003e+183
-1.1770548e+183
-1.1771524e+183
-1.1770292e+183
-1.024899e+183
-9.8484632e+182
-9.4157899e+182
-8.9543759e+182
-8.4722844e+182
-7.9774475e+182
-8.1519148e+182
-7.8809314e+182
-7.4767053e+182
-7.8781222e+182
-8.1477421e+182
-8.6954892e+182
-8.6961791e+182
-8.4236764e+182
-8.4197615e+182
-8.9742627e+182
-9.2538306e+182
-9.2611431e+182
-8.9778219e+182
-9.8420235e+182
-9.5436337e+182
-9.8459562e+182
-9.5505265e+182
-1.017606e+183
-9.7654001e+182
-9.3355897e+182
-8.8885111e+182
-8.4241407e+182
-7.9454003e+182
-7.4568808e+182
-9.2642588e+182
-6.962328e+182
-7.3531395e+182
-7.619337e+182
-7.6202975e+182
-7.3531424e+182
-7.8861535e+182
-7.8841659e+182
-8.1491914e+182
-8.1493418e+182
-8.4205878e+182
-8.4195187e+182
-8.6957723e+182
-8.6956815e+182
-8.9777701e+182
-8.9783085e+182
-9.2639208e+182
-1.1386207e+183
-1.0677802e+183
-1.1707219e+183
-1.1282797e+183
-1.1329894e+183
-1.1755284e+183
-1.0151583e+183
-1.062371e+183
-1.0668168e+183
-1.1037678e+183
-1.0990911e+183
-1.1397891e+183
-1.1814546e+183
-1.1863897e+183
-1.1445709e+183
-9.696424e+182
-1.0145032e+183
-1.0098533e+183
-1.0401451e+183
-1.0450392e+183
-1.1101972e+183
-1.0739992e+183
-1.0790146e+183
-1.1150165e+183
-1.1498968e+183
-1.154467e+183
-1.1963784e+183
-1.1916249e+183
-9.2597959e+182
-9.6804668e+182
-9.6366538e+182
-9.9612671e+182
-9.9139696e+182
-1.0206226e+183
-1.0511469e+183
-1.0564217e+183
-1.0256201e+183
-1.0843614e+183
-1.0897195e+183
-1.1251697e+183
-1.1201891e+183
-1.1590908e+183
-1.2007232e+183
-1.2052581e+183
-1.1637063e+183
-8.81991e+182
-9.2358806e+182
-9.1945882e+182
-9.5066633e+182
-9.4635059e+182
-9.7337394e+182
-9.7788698e+182
-1.0061341e+183
-1.0012191e+183
-1.0307459e+183
-1.0617377e+183
-1.0672685e+183
-1.0360105e+183
-1.1006493e+183
-1.0949201e+183
-1.1305912e+183
-1.1361863e+183
-8.3686557e+182
-8.7468737e+182
-8.7798403e+182
-9.0513894e+182
-9.0141421e+182
-9.3191094e+182
-9.2782538e+182
-9.5908411e+182
-9.5473828e+182
-9.8247077e+182
-1.0111115e+183
-1.0161467e+183
-9.8711283e+182
-1.041203e+183
-1.0781475e+183
-1.072585e+183
-1.0465841e+183
-7.9055899e+182
-8.5522543e+182
-8.2818478e+182
-8.3078045e+182
-8.5792909e+182
-9.0860311e+182
-8.8193906e+182
-8.8474281e+182
-9.1171799e+182
-9.3913185e+182
-9.355411e+182
-9.6704853e+182
-9.6291082e+182
-9.913022e+182
-1.0207405e+183
-1.0257363e+183
-9.9588701e+182
-7.4318944e+182
-7.8080082e+182
-8.0740294e+182
-8.0957867e+182
-7.8287293e+182
-8.6047935e+182
-8.3372637e+182
-8.359961e+182
-8.6262372e+182
-8.8991545e+182
-8.8764581e+182
-9.1471949e+182
-9.1757833e+182
-9.4241966e+182
-9.4589743e+182
-9.7473321e+182
-9.708196e+182
-6.9492197e+182
-7.3283518e+182
-7.3415949e+182
-7.6024297e+182
-7.5906877e+182
-7.8504331e+182
-8.1129365e+182
-8.127885e+182
-7.8623285e+182
-8.3812722e+182
-8.6505683e+182
-8.6706852e+182
-8.3994518e+182
-9.2054282e+182
-8.9255983e+182
-8.9459871e+182
-9.2256323e+182
-6.4616732e+182
-6.8478401e+182
-6.844894e+182
-6.8397757e+182
-7.0992342e+182
-7.1049877e+182
-6.8506412e+182
-7.1032276e+182
-7.1030588e+182
-7.3585605e+182
-7.6189238e+182
-7.621957e+182
-7.6229218e+182
-7.3607361e+182
-7.3574529e+182
-7.3605106e+182
-7.3549132e+182
-7.6110597e+182
-7.6160058e+182
-7.8735541e+182
-7.8861722e+182
-7.8866622e+182
-7.884508e+182
-7.8839437e+182
-8.1386217e+182
-8.1455555e+182
-8.1483892e+182
-8.1497966e+182
-7.8787297e+182
-8.1495746e+182
-8.15006e+182
-8.4093517e+182
-8.4170234e+182
-8.4172761e+182
-8.416854e+182
-8.418592e+182
-8.6904465e+182
-8.6941118e+182
-8.6952193e+182
-8.6966881e+182
-8.6822367e+182
-8.6987063e+182
-8.6996276e+182
-8.4217437e+182
-8.4200501e+182
-9.2765643e+182
-9.2764923e+182
-9.2711885e+182
-9.2742975e+182
-8.978563e+182
-8.98118e+182
-8.9812709e+182
-8.9820286e+182
-9.5768883e+182
-9.5770851e+182
-9.5768565e+182
-9.2768549e+182
-9.2768414e+182
-8.9814823e+182
-1.0709367e+183
-1.0263734e+183
-1.0767746e+183
-1.0715827e+183
-1.1084497e+183
-1.1135454e+183
-1.1217718e+183
-1.0857773e+183
-1.0518332e+183
-1.0230379e+183
-9.848544e+182
-1.0282183e+183
-1.0572902e+183
-1.0911948e+183
-1.1269864e+183
-9.4156119e+182
-9.8378037e+182
-9.7911292e+182
-1.0065194e+183
-1.0117626e+183
-1.0641889e+183
-1.0345109e+183
-1.0400831e+183
-1.0700188e+183
-1.1031237e+183
-1.0972135e+183
-1.1329432e+183
-1.138874e+183
-1.1448733e+183
-1.1094059e+183
-1.0761939e+183
-9.6175772e+182
-9.3414232e+182
-8.9567243e+182
-9.3782027e+182
-9.6588418e+182
-9.9358989e+182
-9.8888233e+182
-1.016625e+183
-1.022011e+183
-1.0455364e+183
-1.0514768e+183
-1.0825008e+183
-1.1157442e+183
-1.150681e+183
-8.4758855e+182
-8.8931536e+182
-8.8680954e+182
-9.1426887e+182
-9.1720832e+182
-9.6956211e+182
-9.415995e+182
-9.4496313e+182
-9.732286e+182
-1.0023046e+183
-9.9818023e+182
-1.0270977e+183
-1.0319685e+183
-1.0886983e+183
-1.0571509e+183
-1.0627077e+183
-1.0944313e+183
-1.0362829e+183
-1.0060625e+183
-9.7650903e+182
-9.4780144e+182
-9.195226e+182
-8.9203862e+182
-8.6489178e+182
-8.3751698e+182
-7.9814761e+182
-8.3897167e+182
-8.6647722e+182
-8.9376471e+182
-9.2151754e+182
-9.5014414e+182
-9.7929341e+182
-1.0401289e+183
-1.0093884e+183
-8.4280807e+182
-8.4255554e+182
-8.1552661e+182
-8.4250192e+182
-8.1524507e+182
-8.4141701e+182
-8.1438637e+182
-7.4805268e+182
-7.8717352e+182
-8.1555384e+182
-7.8862195e+182
-7.8820149e+182
-7.8838131e+182
-8.680117e+182
-8.6916464e+182
-8.6991781e+182
-8.6967446e+182
-8.6969525e+182
-8.4263418e+182
-8.9700265e+182
-8.9639035e+182
-8.9723183e+182
-8.9527384e+182
-9.2314702e+182
-9.2511778e+182
-9.2438275e+182
-9.2536509e+182
-8.973226e+182
-8.9719681e+182
-9.2523239e+182
-9.2514945e+182
-9.8149253e+182
-9.5192291e+182
-9.5439943e+182
-9.5401626e+182
-9.5319512e+182
-9.5424162e+182
-9.8415849e+182
-9.8373083e+182
-9.8281578e+182
-9.8390604e+182
-9.5402862e+182
-9.5404139e+182
-9.8373348e+182
-9.8376041e+182
-1.0458939e+183
-1.0460788e+183
-1.0461256e+183
-1.046322e+183
-1.0147778e+183
-1.014782e+183
-1.0143674e+183
-1.0145748e+183
-1.0783502e+183
-1.078236e+183
-1.0782061e+183
-1.1105958e+183
-1.1106373e+183
-1.1107984e+183
-1.1436417e+183
-1.1436307e+183
-1.1771538e+183
-1.1771625e+183
-1.0154305e+183
-9.7572791e+182
-9.3350946e+182
-8.8908651e+182
-8.4264071e+182
-7.9472127e+182
-7.4584594e+182
-8.1541893e+182
-7.8894249e+182
-7.6245298e+182
-6.9645706e+182
-7.3591452e+182
-7.6231777e+182
-7.3577778e+182
-7.8866848e+182
-8.1495287e+182
-8.6961554e+182
-8.6967152e+182
-8.4242537e+182
-8.4203402e+182
-8.9742806e+182
-9.2538489e+182
-9.2611672e+182
-8.977852e+182
-1.0089034e+183
-9.6799796e+182
-9.2563967e+182
-8.820234e+182
-8.3700979e+182
-7.9062684e+182
-7.4310362e+182
-6.9478411e+182
-6.4596405e+182
-6.8426385e+182
-6.8440351e+182
-7.1020855e+182
-7.1028453e+182
-7.3600426e+182
-7.6204247e+182
-7.621454e+182
-7.3599518e+182
-7.8863977e+182
-7.8846314e+182
-8.1496872e+182
-8.1496985e+182
-8.4206184e+182
-8.4195515e+182
-8.6958096e+182
-8.695713e+182
-1.1301723e+183
-1.0599998e+183
-1.1196667e+183
-1.124049e+183
-1.1659792e+183
-1.1612246e+183
-1.0072403e+183
-1.054206e+183
-1.0905326e+183
-1.094971e+183
-1.0584268e+183
-1.1716246e+183
-1.1306257e+183
-1.1352538e+183
-1.1763457e+183
-9.6180977e+182
-1.0058554e+183
-1.0017165e+183
-1.0315791e+183
-1.0358319e+183