/*--------------------------------*- C++ -*----------------------------------*\
  =========                 |
  \\      /  F ield         | OpenFOAM: The Open Source CFD Toolbox
   \\    /   O peration     | Website:  https://openfoam.org
    \\  /    A nd           | Version:  7
     \\/     M anipulation  |
\*---------------------------------------------------------------------------*/
FoamFile
{
    version     2.0;
    format      ascii;
    class       surfaceScalarField;
    location    "2000";
    object      phi;
}
// * * * * * * * * * * * * * * * * * * * * * * * * * * * * * * * * * * * * * //

dimensions      [0 3 -1 0 0 0 0];

internalField   nonuniform List<scalar> 
99977
(
1.18771e+87
-5.724609e+88
-2.0087178e+87
2.4442324e+87
2.2407578e+87
-2.4353684e+87
-9.1788492e+86
-8.6747157e+86
-5.7821567e+88
-1.7512237e+87
-2.3544181e+87
2.4291133e+87
1.7678171e+87
2.5728469e+87
-1.9227182e+87
-1.6689968e+87
1.8096922e+87
-4.7068912e+84
1.3809159e+84
-4.1352072e+85
-1.0104121e+87
-7.1935691e+86
-6.1861535e+88
-2.5176386e+87
-2.6100543e+87
2.2922684e+87
2.2828922e+87
1.7234667e+87
-5.6783168e+88
2.2650672e+87
-2.3721786e+87
-2.8302717e+87
1.9279453e+87
-4.7590006e+86
-5.3725838e+86
-5.7492173e+88
-1.9965414e+87
2.2644088e+87
2.4430417e+87
-2.3190863e+87
7.2986465e+87
-4.0688623e+86
6.9492892e+86
-9.5569453e+87
-3.8457391e+85
-5.3380434e+86
6.2435705e+86
1.6207039e+85
-7.6638259e+87
-3.3790821e+85
-1.0034366e+88
-1.2932469e+86
-9.7361061e+86
-1.677046e+87
-5.6452576e+88
2.4165994e+87
-2.2931533e+87
-1.6491095e+87
1.7415763e+87
2.5499086e+87
-1.8893171e+87
-1.4595101e+87
1.8646951e+87
-1.1370393e+86
7.3028562e+87
-8.2404284e+87
-2.0316247e+86
-4.9677849e+86
7.6932446e+87
-2.6593589e+86
-9.8559045e+87
-3.9518407e+85
-1.9051329e+85
-2.9216575e+85
2.7206451e+86
1.1015871e+85
6.9952118e+86
-6.9934664e+87
-4.4324447e+86
5.2990798e+86
2.9263845e+86
-2.2631415e+86
2.6862284e+86
-9.1294544e+87
1.709636e+86
7.1257807e+87
-8.2242038e+87
-6.7933778e+86
-1.17545e+86
3.2442804e+86
1.2196169e+86
-1.5088695e+85
-7.6414291e+84
-5.9683816e+85
-1.1677841e+85
7.6115415e+84
-3.5214183e+85
-5.4657444e+84
-1.0914664e+84
-3.8870993e+85
-7.3494458e+86
-1.6796414e+86
-6.1849147e+88
-2.6509948e+87
-2.7130478e+87
2.2287462e+87
2.2474487e+87
-5.6637498e+86
-2.1823454e+87
-6.1301245e+88
-5.9608479e+86
-2.0036101e+87
-6.0310951e+88
-2.3732608e+87
-2.482184e+87
2.4538721e+87
2.4770933e+87
-1.7157461e+86
7.6932038e+87
-1.0268937e+88
-3.625765e+85
7.8177046e+87
-1.6451938e+86
-1.0378382e+88
-5.6425809e+85
1.2145747e+86
-1.9245342e+86
7.9435752e+83
1.1372273e+86
4.7397874e+86
-6.0191332e+88
-3.0864953e+87
-2.5720089e+87
2.1384868e+87
1.859403e+87
-4.0374247e+86
-1.0047545e+87
-5.5837295e+88
-2.0137411e+87
2.3619939e+87
2.0522167e+87
-2.4751007e+87
-7.6333771e+87
-5.7176275e+86
5.2569048e+86
1.9678287e+84
-4.7895158e+86
5.4905758e+86
-9.8825205e+87
-1.9313865e+86
7.8073732e+87
-1.0191115e+88
-2.3055175e+86
-6.6416049e+85
-9.4730808e+86
-1.8245006e+87
-5.7066909e+88
-2.0420139e+87
2.3996706e+87
2.5423021e+87
-2.2304142e+87
7.4494406e+87
-2.9116242e+86
5.7253655e+86
-9.8191544e+87
9.1804062e+85
4.8860879e+86
-7.8081684e+87
7.9512933e+85
6.6847409e+86
1.5567319e+86
-1.0181701e+88
3.1909087e+85
7.2243048e+87
-2.6008042e+86
3.5275786e+86
-7.4376037e+87
8.2172443e+85
-2.2751825e+86
3.7643234e+86
-1.6221392e+86
-7.5747719e+87
-1.3337466e+86
-7.8598735e+87
2.3334e+85
-8.2533053e+86
-1.8031607e+87
-5.525293e+88
-1.9570272e+87
2.5134139e+87
1.8503646e+87
-1.5007474e+87
-1.434131e+87
-2.2508471e+87
2.3248205e+87
1.8830184e+87
-7.3577588e+87
-7.6120209e+85
-9.1906133e+85
8.648683e+85
1.6829475e+86
-2.0703589e+86
-9.4884783e+87
-1.2369519e+86
7.2913835e+87
-8.464858e+87
1.4287426e+85
-3.2162373e+86
5.8596348e+85
6.578175e+86
-6.9254118e+87
-3.463535e+86
3.8326666e+86
3.0895797e+86
2.2076912e+85
1.5450958e+86
-9.1378285e+87
1.4651315e+86
7.275511e+87
-8.2066471e+87
-5.7133125e+86
6.5042825e+85
4.5400814e+86
1.1564429e+86
7.9845037e+85
6.9568926e+87
-7.304623e+87
1.5208245e+86
-8.7354055e+85
8.1799149e+87
-9.5391802e+87
1.1590783e+86
6.7250428e+85
7.4672871e+87
-9.2890564e+85
-7.3263901e+87
-7.6706762e+84
-3.774095e+85
-1.3989794e+86
5.4076259e+85
8.4909817e+85
-6.2798567e+85
-1.2080343e+86
2.3151549e+86
-7.4177628e+87
-2.2083076e+86
1.1838765e+86
1.9628375e+86
-3.2089632e+86
1.2807544e+86
-7.1485434e+87
9.4568271e+85
6.4029238e+87
-6.7296832e+87
-6.0235961e+85
-5.1438929e+85
-4.7607797e+85
-1.1421629e+86
-4.9524323e+85
-3.3811045e+85
-3.9882932e+86
-2.108316e+85
3.3392789e+84
-6.9586029e+85
-2.061948e+85
-1.0912225e+84
-4.4262421e+85
-1.5984967e+86
1.2757318e+85
-3.7993453e+86
-5.081534e+84
-1.6269036e+84
-3.602146e+85
-4.6587113e+84
-6.4650504e+84
-3.4911391e+85
-3.5155323e+86
2.3892606e+87
-5.6966757e+88
-2.0638019e+87
-1.7381451e+87
1.5898371e+87
-2.4210327e+87
-1.7992196e+87
1.5965432e+87
2.0477197e+87
-7.172418e+86
-2.505721e+87
-6.134902e+88
-9.8891105e+84
-1.9830759e+87
2.542875e+87
-2.4592369e+87
-6.0465696e+88
-2.5387616e+87
2.4685691e+87
-1.2166339e+85
7.8340777e+87
-1.0502448e+88
-1.3497122e+86
8.2368544e+87
3.410917e+85
-1.0923425e+88
-7.2746556e+85
1.9301358e+86
-1.7986019e+86
5.4014073e+85
-1.7659323e+85
-4.3597066e+86
-5.7260289e+88
-5.8163754e+86
-3.4207665e+87
-6.0249717e+88
-4.046547e+86
-1.9758665e+87
-5.9001836e+88
-2.4559897e+87
2.534166e+87
-2.3172229e+87
2.4851416e+87
-1.6734554e+86
7.9871373e+87
-1.0370663e+88
-2.9422205e+85
8.1342476e+87
-1.0452282e+86
-1.0711422e+88
3.2169883e+85
9.4572649e+85
-1.3497577e+86
2.5014649e+86
1.9796242e+86
-2.3352788e+86
7.7783028e+87
-7.8931571e+87
2.1924429e+86
8.1152252e+87
-2.1810649e+86
-8.3839871e+87
1.9692798e+86
4.0128712e+86
-1.7594958e+86
-1.328798e+86
2.0936964e+86
1.5369919e+85
-6.094405e+88
1.7937372e+87
2.1111158e+87
-2.7295789e+87
-3.1922733e+87
-4.9653065e+86
-5.2254133e+88
-2.1773446e+87
-1.7043678e+87
2.7842725e+87
2.4519177e+87
4.5911654e+86
7.8519294e+87
-1.0476402e+88
-3.7207646e+86
7.6483546e+87
6.4986463e+86
-1.0193315e+88
-2.1779234e+86
-4.8990923e+86
6.6056904e+86
-7.0905604e+85
-1.1525685e+86
-2.0589135e+87
-1.9728632e+87
-5.4700337e+88
-1.7694481e+87
2.5602438e+87
2.3725351e+87
-2.0929694e+87
7.5548576e+87
-4.5589901e+86
5.110653e+86
-9.7121142e+87
8.8355946e+85
-4.9949599e+86
4.9744621e+86
3.6383058e+85
-7.9318199e+87
-3.8098292e+85
-1.0247111e+88
-4.3168468e+85
-7.4631386e+87
-3.9427167e+86
3.2649617e+86
-9.1556861e+85
-2.5793614e+86
2.2512259e+86
-7.465603e+87
-1.5785483e+86
7.6542468e+87
-7.7383004e+87
-5.1673363e+85
-2.4651024e+85
-8.7384176e+86
-2.2034112e+87
-2.1254656e+87
-5.6579244e+88
2.460891e+87
2.6163488e+87
-2.1653131e+87
7.7768666e+87
-1.5553794e+86
4.3204141e+86
-1.025259e+88
1.5721275e+86
3.4885112e+86
-7.9381751e+87
1.9056313e+86
5.7248033e+86
2.7638856e+86
-1.0249134e+88
7.9517654e+85
7.5793144e+87
-8.3925221e+85
2.4359164e+86
-7.8004717e+87
1.5329938e+86
1.5053779e+86
-8.007326e+87
1.948183e+86
2.5767103e+86
1.9025286e+86
-8.0871757e+87
1.5591062e+86
8.870979e+86
9.26818e+84
-4.5504064e+84
-8.2153539e+86
1.1914586e+85
5.8701337e+84
1.1454393e+85
6.0215611e+85
-6.9826835e+86
9.0271457e+85
-7.9032015e+86
1.1206505e+86
-5.8553374e+86
-1.7219142e+87
-5.4359716e+88
-2.0474526e+87
-2.2668976e+87
2.4203667e+87
1.8550237e+87
-1.477821e+87
-1.4131448e+87
1.8811185e+87
2.46307e+87
7.0579337e+87
6.0283332e+85
6.7981179e+85
-9.2681586e+87
1.2493662e+86
-1.4302886e+86
3.0131755e+86
2.752358e+86
-7.2474684e+87
1.5755637e+86
5.9060354e+86
-8.3604224e+87
4.8106086e+85
-3.7561178e+86
-2.9889397e+86
7.5391297e+87
-8.4390494e+87
-3.7818942e+86
1.4287532e+86
7.3794857e+87
-1.9452929e+86
-9.7828914e+87
4.8193777e+85
7.1202518e+85
-4.6135663e+85
1.9076218e+86
8.0624859e+86
2.2224574e+86
-7.2796596e+87
8.4571843e+85
-6.8617381e+85
2.3808082e+85
1.8371237e+86
-9.0493182e+85
-7.5256336e+87
2.9063421e+85
7.4574002e+87
-7.6233043e+87
2.0389648e+86
1.600079e+86
8.7316825e+87
-9.9590643e+87
1.6764299e+86
1.6679243e+86
1.9603424e+86
9.9912127e+85
1.6990357e+86
1.3442948e+86
-6.8750882e+87
-1.5924016e+86
9.3311358e+85
1.0143476e+86
1.9834187e+85
8.2563079e+85
-6.9213844e+87
9.0416491e+85
6.9276735e+87
-7.0282202e+87
-1.2856924e+85
1.982873e+86
-2.2442421e+85
1.7684074e+86
6.9466081e+87
-7.3092106e+87
2.3908617e+86
3.9151383e+86
8.416302e+84
4.0884937e+86
-7.1824111e+86
3.2203302e+85
1.8141384e+86
6.3276789e+87
-6.85466e+87
2.4112362e+86
2.9287836e+86
3.8515045e+86
-3.8120403e+84
-4.9088294e+86
1.1031042e+86
-8.463932e+84
-8.809419e+84
3.4804332e+85
3.7878736e+86
-8.3342973e+84
1.7605904e+85
5.7830786e+85
-1.6967235e+85
9.2833878e+86
-4.869109e+86
-3.2496707e+85
1.0087756e+85
7.8126297e+85
-2.6543436e+85
1.7604658e+85
-4.6542286e+86
8.2026442e+85
5.202708e+86
-7.3183971e+86
1.5700434e+85
1.1790197e+86
4.1702557e+85
8.132142e+85
-1.9483482e+86
-5.7491556e+85
-5.4460266e+86
-2.668493e+85
-1.0306679e+85
-5.9034612e+86
-4.4594338e+85
-8.8873737e+84
-3.9480872e+86
-3.3180139e+86
7.8603514e+84
-4.4384522e+86
-2.2114751e+85
-7.0271562e+84
-4.6616345e+85
-1.1863207e+85
-5.6502167e+84
-3.3350138e+85
1.2751698e+86
-2.2774817e+85
-4.78433e+86
-1.2120712e+86
-1.0025159e+85
-3.4464728e+86
-4.3490191e+84
-7.6787375e+84
-3.6661748e+85
-5.1275507e+84
-6.8000917e+84
-3.1866462e+85
-2.2535874e+87
2.5156801e+87
-2.1510075e+87
-5.8321668e+88
-2.529036e+87
1.97699e+87
-6.8573048e+87
-5.1065907e+86
7.1960206e+86
2.3353581e+86
-1.9908306e+87
-2.0392645e+87
-5.6313423e+88
-1.4365182e+87
1.7835841e+87
2.4842539e+87
1.8248127e+87
-1.4071935e+87
-2.1960354e+87
2.3139832e+87
-1.8886713e+86
4.5036305e+86
-9.2411482e+87
5.8552734e+85
6.816031e+87
-7.9460494e+87
-1.1982235e+86
-6.771634e+86
5.1168128e+85
2.1123404e+86
1.4911722e+86
6.8886506e+87
-9.2161601e+87
-2.0852274e+86
7.3056796e+87
-8.2491494e+87
-4.8425475e+86
-2.2237052e+86
1.6338957e+86
6.0970388e+86
-2.1150366e+86
1.0193229e+85
2.3207618e+85
-5.652329e+88
-3.153454e+84
-3.913111e+87
-5.9997444e+88
-8.4658352e+87
4.1742744e+85
-8.5921149e+85
1.2946936e+86
-8.7653368e+85
1.1390337e+86
2.9723906e+85
-1.0981044e+88
8.9465027e+85
-2.2472661e+87
2.6795231e+87
-5.935806e+88
-2.2665982e+87
-2.4204577e+87
2.6530528e+87
8.3114945e+87
-1.1051318e+88
8.8889709e+84
1.8438476e+86
-8.1346485e+85
8.2486005e+87
-8.6093674e+87
8.9046498e+85
8.580024e+87
-1.1985815e+86
-8.6505311e+87
3.6282251e+85
1.0988062e+86
-1.0717717e+86
6.9467557e+85
4.2859734e+84
-8.6918848e+86
-5.3433913e+87
-5.6527367e+88
-6.3743481e+86
-2.6356491e+87
-5.9826316e+88
-4.3025527e+86
-1.721462e+87
-2.2828814e+87
-5.8089692e+88
-2.265413e+87
2.5208859e+87
2.6814602e+87
8.4056153e+87
1.3010018e+86
-2.5099438e+84
-1.1044531e+88
5.5334948e+85
7.7770713e+85
-6.7670412e+85
2.182599e+86
8.008285e+87
-1.0421123e+88
3.1187759e+85
1.5439935e+86
-1.2208186e+86
7.7562089e+87
-7.8198274e+87
6.5791107e+85
8.3644586e+87
-1.1048561e+86
-8.4899689e+87
1.4609082e+86
1.7906771e+86
-1.5913033e+86
2.1068702e+86
1.7146691e+86
-2.5001235e+85
7.9699613e+86
-6.5545808e+86
9.8921618e+85
1.0604689e+87
-2.5096614e+85
-8.4580584e+86
-1.760157e+85
5.8547971e+85
-2.2343229e+85
-3.9865246e+85
6.2007037e+85
5.144698e+86
-6.1612838e+88
-2.6459046e+87
-3.169849e+87
1.745068e+87
2.1693291e+87
-1.6915434e+86
-5.2269541e+88
-1.7738067e+87
2.8314334e+87
2.5289092e+87
-2.264143e+87
6.3246667e+86
-8.0397989e+87
-1.412392e+86
-7.7494343e+87
7.7719583e+86
-1.0051158e+86
-5.0664712e+86
6.6718149e+86
-1.0478576e+88
-1.6096769e+86
-1.0799237e+88
-2.8961566e+86
-4.87552e+87
-6.9650087e+86
-5.0445088e+88
-1.5323798e+87
2.7175049e+87
2.4717233e+87
-1.8666994e+87
4.9618843e+86
7.9883404e+87
-1.025294e+88
1.0213852e+86
7.6578427e+87
6.9457144e+86
-9.803708e+87
2.4311945e+86
-4.8750188e+86
6.4523725e+86
9.1068248e+85
-2.6197779e+85
2.5180735e+86
7.2929328e+87
-7.5810434e+87
-1.1064306e+86
7.1854647e+87
3.5569443e+86
-7.3736292e+87
-1.3350764e+86
-3.3055007e+86
4.2158284e+86
-1.1832814e+86
-1.1826834e+86
-1.2473409e+87
-2.3309931e+87
-5.4249426e+88
-1.9180921e+87
2.5654081e+87
2.3880688e+87
-2.1112939e+87
7.5684817e+87
-3.08725e+86
4.7586382e+86
-9.7555337e+87
2.5047674e+86
-4.2927703e+86
5.49758e+86
2.9613714e+86
-7.9148599e+87
1.8349012e+86
-1.0028252e+88
1.4374207e+86
7.3947566e+87
-2.2895816e+86
2.1885237e+86
-7.4271538e+87
1.3086537e+86
-2.2605495e+86
1.6242837e+86
2.9166646e+85
-7.790339e+87
4.5557938e+85
-7.9195554e+87
1.006833e+86
-5.572367e+86
-2.5110044e+85
2.0003276e+85
7.2089494e+85
4.2378772e+84
-1.6130944e+85
-7.0701129e+86
3.8292176e+84
5.7988893e+86
-6.7651153e+86
4.4647208e+85
7.7368624e+85
8.1399404e+87
-5.0854913e+85
1.5969775e+86
1.7501375e+86
-1.0549256e+88
-5.4703814e+86
-2.2101776e+87
2.645816e+87
-5.6142656e+88
2.3921563e+87
-2.1386739e+87
-2.30055e+87
2.0714853e+86
-7.8781314e+87
1.8406008e+86
4.3814447e+86
2.7270534e+86
-1.0114601e+88
8.8286101e+85
7.8694433e+87
-1.8476041e+85
2.6381905e+86
-8.0668099e+87
1.0924064e+86
3.7421341e+85
-7.9759207e+87
1.3520012e+86
2.2901352e+86
1.5377e+86
-7.9207492e+87
8.8434646e+85
6.8987312e+86
-6.1738372e+84
1.2696743e+85
-6.2339923e+86
8.031047e+85
3.3192422e+84
-6.9238064e+86
1.0365565e+86
6.2900698e+84
5.5631254e+85
-6.0331805e+86
7.8284897e+85
4.2371144e+86
-1.8325897e+85
2.3129325e+85
-5.0105201e+86
-1.6072189e+85
3.2413869e+85
-5.3088987e+86
-5.2504625e+86
-4.4656499e+86
-1.5613426e+87
-5.3671302e+88
-2.1410578e+87
-2.1520713e+87
2.3933262e+87
1.7934676e+87
-1.5503301e+87
-1.4167167e+87
1.8784992e+87
2.5144041e+87
2.2221573e+86
7.2009336e+87
-1.1654186e+86
-9.4577445e+87
1.0369046e+86
7.6913856e+87
2.2956942e+86
-1.4612583e+86
-1.0105785e+88
6.4063484e+85
1.196089e+86
-2.1808105e+85
2.3106267e+86
-7.4006108e+87
1.3863119e+86
7.97565e+86
-8.5394027e+87
8.2869711e+85
-1.9232775e+86
7.4011007e+87
-8.3594699e+87
-3.397581e+86
1.0720193e+86
3.2658877e+85
7.3427253e+86
1.5486957e+86
1.7074841e+86
2.5775875e+86
6.89409e+87
2.5583978e+85
6.016004e+85
-6.9676844e+87
1.1279254e+86
5.0567682e+85
7.4936371e+85
1.2243985e+86
-7.0146394e+87
1.5258497e+86
4.1961277e+85
-8.7764635e+87
1.2061939e+86
9.3638432e+85
-7.1208788e+87
1.0421244e+86
7.5721685e+85
-9.7443783e+87
1.1055841e+86
1.0355803e+86
-2.476332e+86
7.416853e+87
-7.1647562e+87
4.0989825e+85
9.7425562e+85
7.5475903e+87
-1.5664027e+86
-7.7053898e+87
1.1500411e+86
2.5722648e+86
-1.6840495e+86
1.2390008e+86
1.3992943e+86
1.3309419e+86
-6.1592823e+86
1.0824943e+85
-2.8432484e+83
1.3833285e+86
2.162072e+85
-6.6960177e+84
-6.7343032e+86
7.1655483e+85
7.3105815e+87
-7.0735011e+87
1.7229131e+85
1.1723966e+86
7.6462691e+86
-6.5121287e+86
1.7233813e+85
5.0965791e+85
7.135066e+87
-7.0836361e+87
3.7036885e+84
9.8812848e+85
1.7018049e+86
1.9713347e+86
2.3421815e+85
1.3369565e+86
1.8115997e+86
2.1123737e+86
-4.904914e+86
-7.6529354e+84
1.6635354e+85
1.1752614e+86
3.5981072e+84
1.0947731e+85
-5.2757321e+86
1.129599e+86
6.7809734e+86
-5.5429894e+86
-7.5829375e+84
8.5680793e+85
1.1737107e+84
1.1428282e+86
5.6441883e+87
1.6369737e+86
2.6844416e+86
-5.5961122e+87
1.0567103e+87
1.221496e+85
5.8849278e+85
-7.0403726e+86
7.1348628e+84
6.3557015e+86
2.6489194e+85
-5.4446038e+86
8.0433547e+86
1.0441531e+85
8.0027985e+85
-5.8620782e+86
5.6745e+86
-3.6696378e+84
-5.1106387e+86
-5.2104597e+84
-8.5734585e+84
-4.7134478e+86
-2.5300767e+85
1.2910771e+85
-2.7343603e+85
1.4703595e+85
-4.7288362e+86
4.94603e+86
6.0915205e+84
-4.8416687e+86
-4.3539943e+86
-5.5739667e+86
9.2029823e+83
-7.9658885e+84
-4.2069784e+86
-2.9319369e+86
-1.2556386e+85
-8.7636152e+84
-3.5295034e+85
-7.5937937e+84
-5.10379e+84
-2.8881263e+85
-4.7352419e+86
-7.8276676e+85
-3.7330835e+84
-3.5496262e+86
-3.8501071e+84
-1.0395295e+85
-3.3892046e+85
-6.2631837e+84
-5.9915093e+84
-2.9740941e+85
-9.1489468e+87
-5.5227143e+88
-2.3893245e+87
-1.9655421e+87
2.2681009e+87
2.0862908e+87
-7.8121622e+87
-6.8391749e+86
7.9976706e+86
1.1930563e+86
-4.149594e+86
6.1490971e+86
4.7834523e+85
-1.0210949e+88
-3.6701073e+87
2.5422752e+87
-2.1290586e+87
-5.7136425e+88
-2.1928993e+87
2.2705774e+87
7.4075349e+87
-9.8205348e+87
-8.0628811e+85
2.344715e+85
-7.3069146e+87
-2.765861e+86
3.0891628e+86
1.8816586e+86
1.0199022e+86
7.2296863e+87
1.2662546e+86
1.2873743e+86
-9.6262984e+87
-2.315661e+87
2.5692001e+87
-5.5424741e+88
-2.0571159e+87
1.8151476e+87
-1.4735174e+87
1.8782477e+87
-1.4367768e+87
-2.2056043e+87
2.4268785e+87
7.0172413e+87
-8.0148681e+87
7.5084206e+85
-4.1198007e+86
2.2414101e+86
1.039162e+86
5.267247e+86
4.5880359e+86
2.3813226e+86
-7.1425495e+87
-2.3986646e+85
6.228783e+86
1.1932758e+86
-2.5619652e+86
-8.1733961e+87
-3.096902e+86
1.8954349e+86
7.1022191e+87
-9.4488921e+87
8.3485805e+84
9.013661e+85
-2.0307566e+86
2.6793245e+86
-7.3929872e+87
7.9774346e+85
6.2197028e+87
-6.5865251e+87
-3.6096527e+85
8.0029191e+85
7.7060447e+87
-9.0251871e+87
7.5734033e+85
8.1998985e+85
-1.6309821e+86
-6.1240702e+85
7.9040979e+85
-2.3261896e+86
-4.5271462e+85
6.7829907e+87
-7.0363081e+87
-2.9783062e+85
6.9933051e+87
-7.357735e+87
1.959379e+86
-9.9140338e+85
2.3471453e+86
1.1146767e+86
-1.9594394e+86
9.657858e+83
5.6375846e+86
-6.1951013e+87
-5.5674227e+88
-4.4553562e+84
-3.1020014e+87
-5.9775656e+88
-8.6173966e+87
3.2050133e+85
-1.706676e+85
8.1358429e+85
-3.9892414e+85
6.5572453e+85
9.7982258e+85
-8.7113287e+87
-8.4175037e+87
-4.1814888e+85
-8.6147985e+85
2.4394864e+86
-1.865302e+86
-1.7793212e+87
-5.8301116e+88
2.5585853e+87
-2.4259514e+87
2.7278652e+87
-2.3818117e+87
-6.9140338e+85
5.1726133e+85
-1.0793119e+88
1.2643342e+86
8.7391176e+87
-1.1337497e+88
1.0627318e+86
2.3136827e+86
8.7107391e+87
-8.996386e+87
1.4416248e+86
1.5867886e+86
-7.4473764e+84
8.6710336e+86
-7.8887735e+86
-6.7973413e+84
6.6928997e+86
-9.0259223e+84
-6.5942104e+86
2.8016798e+85
1.0469716e+85
-8.1300327e+84
-1.0416515e+85
-8.9823259e+85
-1.9669617e+87
-3.0040529e+87
-5.3745886e+88
-8.9775015e+86
-2.5450267e+87
-5.6967531e+88
-4.7800296e+86
-2.1083607e+87
-5.9508387e+88
3.3311672e+85
8.5868595e+87
-1.2396652e+86
1.5520683e+86
-1.0934288e+88
-3.1037582e+86
-1.4237201e+87
2.6517827e+87
-5.7387531e+88
-2.309509e+87
-2.3018826e+87
2.5450142e+87
8.0985951e+87
-1.0554422e+88
7.7603503e+85
-1.745299e+85
1.9400378e+86
-4.8131626e+85
2.5446892e+86
8.4637455e+87
1.214864e+86
1.2662179e+85
-8.6373001e+87
9.474509e+85
1.3159137e+86
-5.7801064e+85
1.1824862e+86
7.7865307e+87
-7.8786758e+87
8.8181484e+85
8.4290091e+85
-8.2652521e+84
5.5101807e+86
-5.5979475e+86
7.615273e+85
7.1207845e+86
-9.002347e+84
-6.3768228e+86
7.245015e+85
1.5163826e+85
-1.5210373e+85
7.7028676e+85
8.1923084e+85
-2.0344643e+85
5.8740982e+86
-5.3383878e+86
4.9758792e+86
-1.8337444e+85
-5.7228066e+86
3.759717e+85
-9.2614859e+84
1.0358695e+87
-6.2069933e+88
-2.5461148e+87
2.3435783e+87
1.7929547e+87
-3.1153546e+87
3.7164582e+86
-5.2708455e+88
-2.2320118e+87
-1.8079195e+87
2.8493098e+87
2.541511e+87
-6.2940686e+86
7.6542963e+87
8.6256936e+86
-1.0453851e+88
-7.9508893e+85
7.7703668e+87
-1.0636319e+88
-2.6612073e+86
7.9451918e+86
-1.4147268e+86
1.1207362e+87
2.6085641e+85
-5.7857555e+87
-4.9247435e+85
-4.8876076e+88
-1.5130501e+87
2.4295376e+87
2.7404943e+87
-1.9119382e+87
7.8484007e+87
-5.6465835e+86
7.2515267e+86
-1.0043398e+88
2.6069898e+86
-5.2146993e+86
6.3373983e+86
8.8989542e+85
-8.1237745e+87
-2.2784515e+85
-1.0390024e+88
1.3202072e+86
4.7878842e+86
-7.4972368e+87
-5.6615247e+84
-7.2382143e+87
5.2025673e+86
-4.7723263e+84
-3.6928664e+86
4.0907286e+86
-7.4847617e+87
4.5797058e+85
-7.7232838e+87
-7.7158693e+85
-1.3696401e+87
-1.3425791e+87
-5.1198393e+88
-1.8203272e+87
2.619386e+87
2.3608637e+87
-2.0253825e+87
7.684469e+87
-3.8907442e+86
6.6052919e+86
-9.790829e+87
3.0253529e+86
-4.364152e+86
6.5422558e+86
3.8045974e+86
-7.930739e+87
2.6287054e+86
-9.9139145e+87
2.0327245e+86
2.0837525e+86
7.7157409e+87
-7.7278433e+87
1.2472504e+86
7.3771461e+87
2.9715105e+86
-7.3552213e+87
1.3242477e+86
-2.123706e+86
2.7718174e+86
2.9778232e+85
5.8559406e+85
-2.2218583e+85
5.8567771e+86
-7.0914734e+86
1.8936627e+85
5.4324332e+86
1.8631873e+84
-7.081233e+86
7.312778e+84
-2.1629994e+85
3.5744838e+85
1.036915e+86
8.8848829e+85
-5.2062285e+86
-2.1805908e+87
-5.4234294e+88
-2.1179891e+87
-2.2123398e+87
2.3388223e+87
2.4674701e+87
7.6469984e+87
-1.8209425e+86
3.2639593e+86
-9.8862174e+87
1.7683596e+86
-3.1036754e+86
4.6475606e+86
3.0249139e+86
-7.7273831e+87
2.1497933e+86
-9.9574935e+87
9.6424679e+85
7.3708221e+87
-1.1288891e+86
2.3674032e+86
-7.3762627e+87
1.3207404e+86
-1.4470774e+86
2.2034308e+86
1.641746e+86
-7.7858237e+87
1.3406672e+86
-7.5999855e+87
1.0883636e+86
6.9392791e+86
-1.0556022e+85
5.9724779e+84
-6.3366268e+86
7.5193589e+85
-1.7678541e+84
-6.7897977e+84
2.4652195e+85
-6.8490595e+86
5.8480194e+85
-6.5284675e+86
7.0768956e+85
-4.1391971e+86
-3.0134399e+85
2.4411622e+85
-1.7280737e+85
1.4051805e+85
-4.8793958e+86
4.6590639e+86
-5.020911e+86
8.1805585e+87
3.1377543e+85
5.197538e+85
1.0314343e+86
-8.192037e+87
-2.0402501e+86
-8.1286791e+87
1.5505632e+86
2.7421482e+86
-3.0134306e+86
-1.9384489e+87
-5.5839766e+88
2.5028763e+87
-2.2186106e+87
-2.3435838e+87
2.4349286e+87
-7.913249e+87
1.5752917e+86
-6.8467754e+85
-4.2069573e+85
-1.0317185e+88
1.6037404e+86
-1.0439201e+88
4.0394271e+85
-6.2263075e+85
-7.7039099e+87
1.0442222e+86
1.9418934e+86
1.3000333e+86
-7.6349343e+87
1.1084957e+86
5.7775636e+86
-9.125171e+84
2.5782531e+85
-5.9388586e+86
1.0871922e+86
1.3518856e+85
-5.6372048e+86
9.8723097e+85
2.3514425e+85
9.8137362e+85
-5.7556623e+86
1.0210813e+86
5.2833142e+86
-9.0611587e+84
1.7624352e+85
-5.3845437e+86
1.4745298e+85
-5.1775087e+86
1.7683994e+85
-5.3178945e+86
-3.2099255e+86
-1.2653998e+87
-5.3015041e+88
-2.1614207e+87
-1.5367667e+87
1.7746459e+87
2.3830149e+87
1.7914724e+87
2.4473015e+87
-2.2067746e+87
-1.5613373e+87
1.4980538e+86
7.8338345e+87
-2.4572756e+86
-1.0005721e+88
1.2675479e+86
7.3371024e+87
1.3959371e+86
-1.1974257e+86
-9.5748341e+87
6.5814923e+85
2.7330025e+85
2.5385061e+85
2.1997053e+86
-7.3953617e+87
1.5185128e+86
7.0484508e+86
-8.525152e+87
6.0792755e+85
-3.4173183e+86
7.5732034e+87
-8.5306544e+87
-4.6720965e+86
1.5775291e+86
-4.4481802e+85
7.706184e+86
1.8616787e+86
-3.8130919e+85
2.3610542e+86
2.0526742e+86
6.9661614e+87
-1.0599673e+86
-7.0731599e+87
1.1142427e+86
7.6941717e+87
1.5818388e+86
-6.8772396e+85
-7.8163195e+87
9.6806104e+85
2.1557486e+86
-1.1919774e+86
1.2347079e+86
-7.1220127e+87
2.099915e+86
1.0147444e+86
-8.4432463e+87
9.7351089e+85
1.3335834e+86
-7.2882638e+87
3.1752219e+86
8.9785855e+85
-9.3640053e+87
1.8234463e+86
2.0633416e+86
7.0751946e+87
-7.0358247e+87
1.9318984e+86
7.9917079e+85
-1.3698696e+86
1.8724397e+86
5.8933049e+85
-1.3892141e+85
1.3314307e+86
5.3044349e+86
-3.7482493e+84
7.8146404e+84
-5.2383763e+86
1.0212738e+86
-3.5173471e+83
1.0103985e+85
1.1556419e+86
-4.8098754e+86
8.5181695e+85
-6.2655626e+84
-6.8796357e+87
3.8397774e+85
-7.9812894e+85
-6.8444318e+87
-5.3701038e+85
5.8201487e+85
-6.7057797e+87
4.4844186e+85
-3.9192909e+84
-4.9178603e+86
2.5050776e+84
8.0276792e+85
-6.7613966e+87
1.1064945e+85
5.0451805e+85
-1.9019115e+85
5.6380729e+86
-5.2288954e+86
1.905202e+84
7.3632682e+85
6.1987141e+86
-1.3399925e+85
-5.7939053e+86
6.8915186e+85
2.121565e+85
-1.3846956e+85
6.2982904e+85
8.4324393e+84
5.8478267e+85
-4.5635126e+86
4.5261152e+84
-4.2238391e+83
1.4168007e+85
-4.3474899e+84
-4.7080877e+86
5.4622079e+87
-5.3462795e+87
-4.0337743e+85
-5.4637156e+85
5.9008255e+86
-4.9848493e+86
-8.86647e+83
4.3779487e+85
4.8649871e+86
-4.9943978e+86
1.4494689e+85
4.6918383e+86
-4.2943031e+86
-8.2521371e+84
5.9750562e+85
8.1573682e+85
1.3586731e+86
1.1396434e+85
9.5225199e+85
1.6920267e+85
2.2848903e+84
9.3118162e+85
-4.5814833e+86
-1.3076052e+85
1.2162168e+85
-6.6528814e+83
9.7836292e+84
-4.5766931e+86
4.6212399e+86
-4.5964777e+86
-6.6325318e+84
-2.5615384e+84
-3.540654e+86
-5.0377527e+86
9.2686018e+84
4.6489689e+84
-4.5857888e+86
-2.4208131e+86
-7.2851357e+84
-9.2606749e+84
-2.7701792e+85
-6.1146966e+84
-4.9116348e+84
-2.8283188e+85
-4.6653151e+86
-2.3517296e+85
7.9040262e+84
-4.0569539e+86
-5.7796037e+84
-8.7374187e+84
-3.0313146e+85
-6.759524e+84
-5.2261287e+84
-2.8591708e+85
-2.0713793e+87
3.9572672e+87
-1.4260235e+86
-4.7247748e+88
-5.1215212e+86
3.9122765e+87
-5.3871762e+87
-5.3790327e+88
2.5221845e+87
-1.9268836e+87
-2.0516744e+87
2.3004022e+87
4.6708097e+86
7.7414878e+87
-9.9232427e+87
-5.9733179e+85
8.0774615e+87
2.4236579e+86
-9.9874259e+87
1.6914344e+86
-5.2059576e+86
5.1108423e+86
3.3999661e+85
-9.8801738e+85
-8.0426869e+87
-2.8207763e+86
4.2269757e+86
8.1962979e+85
-2.1146896e+86
3.3000695e+86
-8.2265638e+87
1.1317851e+86
-7.9492651e+87
-3.7876689e+86
4.0310159e+86
2.5626186e+86
-6.5042983e+85
1.5173081e+86
1.7552667e+86
-1.0340534e+88
-3.2696808e+87
2.5281587e+87
-2.258522e+87
-5.6602643e+88
2.3399894e+87
-2.1938311e+87
7.6008095e+87
-9.8052655e+87
7.3141982e+85
1.3088978e+86
7.5456139e+87
-7.6669135e+87
9.7137009e+85
1.6251227e+86
-4.5060273e+86
-3.2435824e+85
2.9817101e+85
9.292618e+85
1.4970626e+86
7.4301858e+87
4.8980736e+85
1.0183818e+86
-7.6019681e+87
-7.4096438e+87
-9.4480295e+85
1.6526515e+86
2.8176372e+86
-1.8024896e+87
-5.4265732e+88
2.3797995e+87
-2.2198352e+87
-1.6191265e+87
1.6804344e+87
-2.3223533e+87
-1.5717326e+87
1.7328026e+87
2.396969e+87
8.4333432e+85
-1.4546777e+86
-9.5390246e+87
1.3340252e+86
-7.0586412e+87
1.6728075e+86
5.9716332e+86
-8.0626432e+87
5.572953e+85
-4.4090816e+86
-7.2198879e+87
-5.9856065e+85
7.2254023e+86
2.6205909e+86
-1.7476575e+86
-8.2105866e+87
-3.7000446e+86
9.8695433e+85
7.4439246e+87
-9.8341473e+87
6.1582033e+85
2.7590834e+86
6.7689015e+87
-6.8276944e+87
1.1325393e+86
1.7033533e+86
8.1972787e+87
-9.2970016e+87
1.5753772e+86
2.2052165e+86
-3.9549397e+85
9.9874812e+85
2.2597189e+86
1.2217675e+86
1.9952171e+86
1.4483883e+86
9.0944672e+85
-7.3634501e+87
-2.0486687e+86
1.7927623e+86
1.5064038e+86
-2.6946018e+86
-7.2320543e+87
1.4112418e+86
1.8648939e+86
7.2444177e+87
-7.5838625e+87
1.4391057e+86
7.6315063e+85
-1.273962e+85
3.0634682e+85
-4.9148134e+86
1.0277136e+86
6.023065e+87
-6.527214e+87
2.5266145e+86
2.9113228e+86
5.6999808e+86
-6.8412689e+86
1.3026987e+85
1.684102e+86
6.5601429e+87
-6.8361374e+87
2.5873643e+86
2.952021e+86
2.033217e+86
2.7503574e+86
6.1225132e+84
1.1968669e+86
5.7846975e+86
-1.0500384e+86
-6.301165e+84
4.6166958e+86
-5.5241803e+86
5.8265493e+85
5.6468258e+86
-7.6459903e+86
3.5651341e+85
5.8851097e+85
2.5386356e+85
2.6508198e+85
7.2531508e+84
-4.3194495e+85
1.8681698e+87
-3.6394961e+87
-5.3350819e+88
1.2076235e+86
-2.9834458e+87
-5.6811272e+88
-2.1315286e+86
-2.2656966e+87
-5.955412e+88
-6.6910358e+86
3.9417301e+84
-1.4950659e+84
8.8612859e+85
-3.0568515e+84
7.5566938e+84
9.7499503e+85
-6.7310414e+86
-8.5035887e+87
-1.2370117e+86
3.3742986e+85
1.2617127e+86
-2.8798678e+86
-1.3944711e+87
-5.7536191e+88
-2.4248476e+87
2.556115e+87
2.7578073e+87
-2.2819148e+87
-8.3915835e+87
8.0437434e+85
-1.1353071e+86
1.9014541e+86
9.2101225e+85
3.6845816e+85
-1.0976148e+88
2.9669858e+85
-8.8193508e+87
2.42026e+86
-1.1345759e+88
1.1273403e+86
-5.1170829e+85
-3.6990752e+85
-8.4153562e+87
1.263671e+86
9.0873673e+87
-9.1273781e+87
1.0777822e+86
1.408486e+86
7.1860354e+86
-6.785478e+86
9.2062235e+85
7.715411e+85
-5.9765136e+84
5.4058641e+86
-6.0910382e+86
5.9087997e+86
-9.3956428e+84
-6.1215958e+86
5.5815188e+84
-9.6677572e+84
-2.2632387e+87
-2.3542631e+86
-5.0027351e+88
-1.1301768e+87
-2.1131047e+87
-5.4417252e+88
-4.9977499e+86
-1.9803242e+87
-5.7116396e+88
-2.7378959e+86
-1.7445126e+87
-5.9215132e+88
-9.6483798e+84
8.5164076e+87
-1.4429505e+86
-8.3124019e+87
1.0514957e+86
-8.4214975e+87
-3.2167469e+85
-8.4663014e+85
2.5582674e+86
-1.1821865e+86
-1.1232471e+87
-5.6785427e+88
-2.3888393e+87
-2.4001902e+87
2.5412703e+87
2.5661546e+87
7.7050781e+85
-4.4313478e+85
-1.0873801e+88
1.1006108e+86
8.2711125e+87
-1.0806601e+88
6.4931743e+85
1.9140744e+86
7.8464654e+87
-7.9547027e+87
1.0742313e+86
-7.7897577e+85
1.2049495e+86
-5.6418443e+85
1.1209899e+86
6.223146e+86
9.3698408e+84
1.6996084e+84
-6.3430334e+86
9.5673656e+85
8.7305461e+84
-3.5459132e+84
9.7704519e+85
5.8096836e+86
-5.9092928e+86
9.4119242e+85
1.0035419e+86
-7.9533563e+84
5.149965e+86
-5.1846726e+86
5.6179913e+86
-8.2434109e+84
-5.6480302e+86
1.3590033e+85
-1.2505655e+85
1.3788259e+87
-6.2372391e+88
-2.4529389e+87
-3.0420665e+87
1.7694386e+87
2.3937923e+87
8.6110409e+86
-5.3066498e+88
-1.8455152e+87
-2.3087629e+87
2.501098e+87
2.9072609e+87
7.7890882e+87
-7.9933083e+86
1.0352692e+87
-1.0610894e+88
3.9757553e+85
-9.7771107e+86
1.2318962e+87
1.9488019e+86
-7.8145742e+87
6.0117497e+85
-1.0705995e+88
-1.606934e+86
-5.6779718e+87
4.0111487e+86
-4.8852583e+88
-1.596947e+87
2.7121095e+87
2.3104705e+87
-2.0538784e+87
5.7431511e+86
8.0117034e+87
-1.0234037e+88
1.4116251e+86
7.8716721e+87
8.2761794e+86
-1.0164842e+88
2.3194967e+86
-5.6981406e+86
7.8589264e+86
5.1054199e+85
-1.9177918e+85
-5.1201173e+86
7.0623764e+87
6.1790861e+86
-7.2736598e+87
2.58812e+85
7.076532e+87
-7.4562747e+87
1.0685064e+85
6.8238696e+86
-8.7116212e+85
8.3323076e+86
8.8569934e+85
-1.9546624e+87
-4.6891391e+86
-4.9074922e+88
-1.6869809e+87
2.6509934e+87
2.323438e+87
-2.007555e+87
7.8716402e+87
-5.0244534e+86
7.2164184e+86
-9.8853113e+87
2.8142693e+86
4.936061e+86
-8.0657492e+87
2.6588358e+86
6.9390421e+86
3.6844075e+86
-1.0010727e+88
1.9112379e+86
7.450075e+87
-2.8438678e+86
3.4175296e+86
-7.3632933e+87
1.1655485e+86
-2.67185e+86
2.8529494e+86
3.6194853e+85
-7.7170602e+87
-1.9009639e+85
-7.6716731e+87
9.939946e+85
1.8549248e+85
-5.0741395e+86
6.6627189e+85
-7.1330174e+86
-1.1734464e+85
1.0375456e+84
-2.3990838e+85
1.6778279e+85
-6.2745183e+86
-3.283106e+85
-6.1560024e+86
8.9094016e+84
-4.71305e+86
-1.6374688e+87
-5.1858303e+88
-2.1576583e+87
-2.0144201e+87
2.2480186e+87
2.5122006e+87
7.7393179e+87
-2.8437454e+86
5.1619887e+86
-9.9865824e+87
1.9512231e+86
-3.7747437e+86
6.2633432e+86
3.1901982e+86
-7.6940928e+87
2.2832862e+86
-9.7850255e+87
1.0757563e+86
7.285799e+87
-1.2539095e+86
3.1687035e+86
-7.2972457e+87
1.2251106e+86
-1.2768468e+86
2.7648337e+86
1.6224327e+86
-7.521385e+87
1.4907482e+86
-7.3222416e+87
1.1548269e+86
7.2195201e+84
6.8223946e+86
-6.3336567e+86
7.461935e+85
6.7285024e+86
1.3357648e+85
-6.087852e+86
6.223602e+85
1.5180087e+84
5.6048277e+84
-1.260214e+85
2.6393051e+85
1.6409752e+85
4.2085113e+86
-4.8524067e+86
3.5653783e+86
2.5874276e+85
-4.4159613e+86
-2.4546485e+85
3.5702746e+85
-2.3390149e+86