/*--------------------------------*- C++ -*----------------------------------*\
  =========                 |
  \\      /  F ield         | OpenFOAM: The Open Source CFD Toolbox
   \\    /   O peration     | Website:  https://openfoam.org
    \\  /    A nd           | Version:  7
     \\/     M anipulation  |
\*---------------------------------------------------------------------------*/
FoamFile
{
    version     2.0;
    format      ascii;
    class       volScalarField;
    location    "2000";
    object      pMean;
}
// * * * * * * * * * * * * * * * * * * * * * * * * * * * * * * * * * * * * * //

dimensions      [0 2 -2 0 0 0 0];

internalField   nonuniform List<scalar> 
34387
(
-1.6514369e+179
-1.6108645e+179
-1.6237685e+179
-1.6074186e+179
-1.6539569e+179
-1.6115057e+179
-1.6437604e+179
-1.6590208e+179
-1.6585016e+179
-1.6441733e+179
-1.574592e+179
-1.6034889e+179
-1.6049675e+179
-1.6167563e+179
-1.6182877e+179
-1.6174282e+179
-1.6055891e+179
-1.6026097e+179
-1.6173853e+179
-1.6237427e+179
-1.6237543e+179
-1.6023197e+179
-1.6062777e+179
-1.6049854e+179
-1.5725848e+179
-1.6023738e+179
-1.6022445e+179
-1.6145118e+179
-1.6150328e+179
-1.6543195e+179
-1.6162058e+179
-1.660725e+179
-1.6432096e+179
-1.6433881e+179
-1.6582766e+179
-1.576087e+179
-1.6040116e+179
-1.6167486e+179
-1.6163066e+179
-1.6047162e+179
-1.6427371e+179
-1.6633556e+179
-1.6624063e+179
-1.6427814e+179
-1.5371559e+179
-1.580556e+179
-1.5679859e+179
-1.5652243e+179
-1.5796194e+179
-1.580618e+179
-1.5684007e+179
-1.5680282e+179
-1.5800477e+179
-1.6029143e+179
-1.6017086e+179
-1.6037272e+179
-1.6193532e+179
-1.621434e+179
-1.6209111e+179
-1.6205018e+179
-1.603877e+179
-1.6016347e+179
-1.620542e+179
-1.6237294e+179
-1.6237158e+179
-1.6022979e+179
-1.6238254e+179
-1.6022931e+179
-1.5825664e+179
-1.6065955e+179
-1.6042149e+179
-1.571644e+179
-1.6009234e+179
-1.6001271e+179
-1.6121168e+179
-1.6135922e+179
-1.6147144e+179
-1.5738937e+179
-1.5362175e+179
-1.5665133e+179
-1.5651967e+179
-1.5769416e+179
-1.5777218e+179
-1.6004156e+179
-1.6007843e+179
-1.6179885e+179
-1.6182385e+179
-1.6483493e+179
-1.6150337e+179
-1.6388524e+179
-1.6372423e+179
-1.6588016e+179
-1.6580813e+179
-1.5800485e+179
-1.6032696e+179
-1.6155605e+179
-1.6166069e+179
-1.6043335e+179
-1.6662544e+179
-1.6425063e+179
-1.6421078e+179
-1.6624066e+179
-1.5386277e+179
-1.5674634e+179
-1.5796717e+179
-1.5784875e+179
-1.568532e+179
-1.6020193e+179
-1.620318e+179
-1.6200423e+179
-1.6029389e+179
-1.6426806e+179
-1.6633904e+179
-1.6624069e+179
-1.6425096e+179
-1.4991596e+179
-1.5309948e+179
-1.5431539e+179
-1.5444808e+179
-1.5289483e+179
-1.5299111e+179
-1.5294652e+179
-1.5421809e+179
-1.5425901e+179
-1.5842931e+179
-1.565811e+179
-1.5636422e+179
-1.5640565e+179
-1.5820584e+179
-1.5817206e+179
-1.5840583e+179
-1.5666916e+179
-1.5674476e+179
-1.5828965e+179
-1.6021109e+179
-1.6029541e+179
-1.6017954e+179
-1.6036689e+179
-1.6195331e+179
-1.6224415e+179
-1.6216571e+179
-1.6231074e+179
-1.6205906e+179
-1.6035894e+179
-1.6014423e+179
-1.620676e+179
-1.6237028e+179
-1.6222588e+179
-1.6022748e+179
-1.6238055e+179
-1.6022647e+179
-1.5825619e+179
-1.6235459e+179
-1.6023089e+179
-1.5825513e+179
-1.5640862e+179
-1.6063995e+179
-1.6134803e+179
-1.5710621e+179
-1.6004281e+179
-1.5986901e+179
-1.6128697e+179
-1.600332e+179
-1.5990264e+179
-1.6115169e+179
-1.6132086e+179
-1.618806e+179
-1.573993e+179
-1.5759265e+179
-1.564269e+179
-1.5360369e+179
-1.5631645e+179
-1.5754152e+179
-1.5991282e+179
-1.5983559e+179
-1.6148469e+179
-1.6169407e+179
-1.5775917e+179
-1.5368024e+179
-1.4990211e+179
-1.527096e+179
-1.5394735e+179
-1.5293786e+179
-1.5414448e+179
-1.5644521e+179
-1.5631014e+179
-1.5805132e+179
-1.5811407e+179
-1.6003863e+179
-1.600658e+179
-1.6179291e+179
-1.6184135e+179
-1.6398931e+179
-1.6206123e+179
-1.6563271e+179
-1.6551529e+179
-1.6300906e+179
-1.633346e+179
-1.5825478e+179
-1.5998191e+179
-1.5996401e+179
-1.6107751e+179
-1.6115485e+179
-1.6389947e+179
-1.6379124e+179
-1.6651383e+179
-1.6643449e+179
-1.5397775e+179
-1.5701121e+179
-1.5796475e+179
-1.5809031e+179
-1.5712776e+179
-1.601125e+179
-1.6185384e+179
-1.6195989e+179
-1.6026091e+179
-1.6664356e+179
-1.6425391e+179
-1.6418287e+179
-1.6625126e+179
-1.5306432e+179
-1.500468e+179
-1.5440015e+179
-1.5419006e+179
-1.5321398e+179
-1.5647802e+179
-1.5829162e+179
-1.5815057e+179
-1.5669084e+179
-1.6018933e+179
-1.6203405e+179
-1.6201316e+179
-1.6027056e+179
-1.642684e+179
-1.6633856e+179
-1.6623965e+179
-1.6425036e+179
-1.4618452e+179
-1.4932053e+179
-1.4914054e+179
-1.5043723e+179
-1.5061276e+179
-1.4915239e+179
-1.4934191e+179
-1.5050999e+179
-1.5052385e+179
-1.5290318e+179
-1.5463863e+179
-1.5469957e+179
-1.5451628e+179
-1.5274372e+179
-1.5272699e+179
-1.5286827e+179
-1.52676e+179
-1.5443628e+179
-1.5446893e+179
-1.5844817e+179
-1.5657223e+179
-1.5636623e+179
-1.5634577e+179
-1.5641981e+179
-1.5821299e+179
-1.5820911e+179
-1.5818691e+179
-1.5842076e+179
-1.566717e+179
-1.5672164e+179
-1.5828722e+179
-1.6023744e+179
-1.6021355e+179
-1.6029496e+179
-1.6017168e+179
-1.6036486e+179
-1.6195201e+179
-1.623821e+179
-1.6222543e+179
-1.6216485e+179
-1.6235584e+179
-1.6205982e+179
-1.6035673e+179
-1.6014328e+179
-1.6206793e+179
-1.6022503e+179
-1.6021393e+179
-1.5826551e+179
-1.6022994e+179
-1.5825437e+179
-1.5640951e+179
-1.6017216e+179
-1.5825777e+179
-1.56408e+179
-1.5453287e+179
-1.6177563e+179
-1.6115012e+179
-1.6023345e+179
-1.5744609e+179
-1.6005184e+179
-1.6117861e+179
-1.6167983e+179
-1.5637826e+179
-1.5357433e+179
-1.5645764e+179
-1.5772962e+179
-1.5755478e+179
-1.578126e+179
-1.5649874e+179
-1.5638981e+179
-1.5760571e+179
-1.5980942e+179
-1.5980137e+179
-1.596609e+179
-1.6156595e+179
-1.6146876e+179
-1.5986986e+179
-1.5980272e+179
-1.6140878e+179
-1.6162313e+179
-1.579475e+179
-1.5362371e+179
-1.5785297e+179
-1.5621542e+179
-1.5409643e+179
-1.4991678e+179
-1.5306158e+179
-1.5276115e+179
-1.5384492e+179
-1.5607196e+179
-1.5785317e+179
-1.5990078e+179
-1.5982184e+179
-1.6148975e+179
-1.6169468e+179
-1.5539636e+179
-1.5350909e+179
-1.4990817e+179
-1.4920049e+179
-1.4615476e+179
-1.4921205e+179
-1.5047146e+179
-1.5029064e+179
-1.5247506e+179
-1.5423211e+179
-1.5271413e+179
-1.544321e+179
-1.564477e+179
-1.5631177e+179
-1.5806061e+179
-1.581374e+179
-1.6003976e+179
-1.6006464e+179
-1.6179233e+179
-1.6184216e+179
-1.6344999e+179
-1.6193399e+179
-1.6235554e+179
-1.625471e+179
-1.6511188e+179
-1.6499315e+179
-1.5870436e+179
-1.5975803e+179
-1.6060532e+179
-1.6087261e+179
-1.5987581e+179
-1.6639249e+179
-1.6641954e+179
-1.6332333e+179
-1.635558e+179
-1.5388326e+179
-1.5703316e+179
-1.5787918e+179
-1.5798866e+179
-1.5715518e+179
-1.5991228e+179
-1.5985443e+179
-1.6132168e+179
-1.6140618e+179
-1.6389795e+179
-1.6382644e+179
-1.6655917e+179
-1.664534e+179
-1.4997286e+179
-1.5324768e+179
-1.5442628e+179
-1.5453514e+179
-1.5326472e+179
-1.5674118e+179
-1.5822964e+179
-1.5841502e+179
-1.5696886e+179
-1.6009171e+179
-1.6184988e+179
-1.6195178e+179
-1.6023522e+179
-1.6664464e+179
-1.642551e+179
-1.6418301e+179
-1.6625187e+179
-1.5284768e+179
-1.5062472e+179
-1.4620926e+179
-1.5056675e+179
-1.4947758e+179
-1.4922113e+179
-1.547547e+179
-1.5444421e+179
-1.5307413e+179
-1.564702e+179
-1.5830714e+179
-1.5817463e+179
-1.5668359e+179
-1.6018962e+179
-1.6203536e+179
-1.6201522e+179
-1.6026984e+179
-1.4244394e+179
-1.4562317e+179
-1.4552555e+179
-1.4681237e+179
-1.4693344e+179
-1.4553606e+179
-1.4563455e+179
-1.4676714e+179
-1.4670704e+179
-1.4907993e+179
-1.4891706e+179
-1.5067258e+179
-1.507618e+179
-1.5082905e+179
-1.4896749e+179
-1.4923909e+179
-1.4914508e+179
-1.5070868e+179
-1.5081684e+179
-1.528871e+179
-1.5464829e+179
-1.5471931e+179
-1.5457516e+179
-1.5449318e+179
-1.5271618e+179
-1.5274587e+179
-1.5267654e+179
-1.5284693e+179
-1.5267975e+179
-1.5444207e+179
-1.5446681e+179
-1.5844884e+179
-1.5657209e+179
-1.5641936e+179
-1.5636581e+179
-1.5634477e+179
-1.5641552e+179
-1.5825962e+179
-1.5822852e+179
-1.5821008e+179
-1.5819515e+179
-1.5842072e+179
-1.5667195e+179
-1.5671985e+179
-1.5828748e+179
-1.5826598e+179
-1.5822956e+179
-1.5640947e+179
-1.5825898e+179
-1.5640956e+179
-1.5453285e+179
-1.581957e+179
-1.5639871e+179
-1.5453147e+179
-1.5269924e+179
-1.5858005e+179
-1.5804929e+179
-1.6042166e+179
-1.6088576e+179
-1.6128133e+179
-1.6127004e+179
-1.6155156e+179
-1.6001129e+179
-1.5781079e+179
-1.5672384e+179
-1.536555e+179
-1.5665103e+179
-1.5772532e+179
-1.5983608e+179
-1.6151728e+179
-1.6171982e+179
-1.5614086e+179
-1.5405423e+179
-1.4994564e+179
-1.5310964e+179
-1.5417605e+179
-1.5299936e+179
-1.5420154e+179
-1.5300511e+179
-1.5293269e+179
-1.5397596e+179
-1.5634627e+179
-1.5625706e+179
-1.5793689e+179
-1.5788666e+179
-1.5776017e+179
-1.5798955e+179
-1.5638727e+179
-1.5615943e+179
-1.578472e+179
-1.5982551e+179
-1.5969738e+179
-1.5978639e+179
-1.5966557e+179
-1.6162051e+179
-1.6156907e+179
-1.6157131e+179
-1.5987508e+179
-1.597708e+179
-1.6141479e+179
-1.616308e+179
-1.5515018e+179
-1.5338988e+179
-1.4984582e+179
-1.5786608e+179
-1.562105e+179
-1.5440572e+179
-1.4617652e+179
-1.504832e+179
-1.4911669e+179
-1.502918e+179
-1.4909049e+179
-1.5291764e+179
-1.5257565e+179
-1.5410345e+179
-1.560696e+179
-1.578639e+179
-1.5989993e+179
-1.5982008e+179
-1.6148928e+179
-1.6169422e+179
-1.5487892e+179
-1.5289295e+179
-1.4972466e+179
-1.4612174e+179
-1.4903079e+179
-1.4676827e+179
-1.4239679e+179
-1.4557393e+179
-1.4548186e+179
-1.466685e+179
-1.4901887e+179
-1.5075825e+179
-1.5055166e+179
-1.5247604e+179
-1.5424726e+179
-1.5271805e+179
-1.544496e+179
-1.5644717e+179
-1.5631169e+179
-1.5806165e+179
-1.5813832e+179
-1.6312818e+179
-1.6176763e+179
-1.619714e+179
-1.6470602e+179
-1.6488879e+179
-1.6212216e+179
-1.5891332e+179
-1.5973044e+179
-1.5944579e+179
-1.6012733e+179
-1.603761e+179
-1.6279461e+179
-1.6289778e+179
-1.6601458e+179
-1.6595905e+179
-1.539975e+179
-1.5715385e+179
-1.5797769e+179
-1.5783663e+179
-1.5723835e+179
-1.5963709e+179
-1.6084207e+179
-1.6108348e+179
-1.5979104e+179
-1.6640678e+179
-1.6643083e+179
-1.6335841e+179
-1.635556e+179
-1.4980887e+179
-1.5312604e+179
-1.5438045e+179
-1.5454915e+179
-1.53277e+179
-1.5677459e+179
-1.5817149e+179
-1.5831516e+179
-1.5698684e+179
-1.5986788e+179
-1.5980496e+179
-1.6132633e+179
-1.6140572e+179
-1.639004e+179
-1.6383104e+179
-1.6655721e+179
-1.6645426e+179
-1.4605134e+179
-1.4918181e+179
-1.4927138e+179
-1.5059601e+179
-1.5059191e+179
-1.5304012e+179
-1.547553e+179
-1.549614e+179
-1.5312269e+179
-1.5672625e+179
-1.5824233e+179
-1.5841712e+179
-1.5693485e+179
-1.6009161e+179
-1.6185144e+179
-1.6195349e+179
-1.6023476e+179
-1.5283012e+179
-1.509315e+179
-1.4242306e+179
-1.469239e+179
-1.4552956e+179
-1.4541221e+179
-1.4663429e+179
-1.5087982e+179
-1.4932618e+179
-1.4895597e+179
-1.547625e+179
-1.5445945e+179
-1.5305373e+179
-1.5646926e+179
-1.583082e+179
-1.5817554e+179
-1.5668335e+179
-1.3862379e+179
-1.4176109e+179
-1.4178403e+179
-1.4309099e+179
-1.4303791e+179
-1.4320254e+179
-1.4322217e+179
-1.4186099e+179
-1.4164621e+179
-1.4543965e+179
-1.4535166e+179
-1.4710716e+179
-1.4719245e+179
-1.4719389e+179
-1.4540991e+179
-1.4554987e+179
-1.4551294e+179
-1.4706057e+179
-1.4692579e+179
-1.4907374e+179
-1.4892043e+179
-1.5069316e+179
-1.5082105e+179
-1.5078565e+179
-1.5085688e+179
-1.4918448e+179
-1.4896939e+179
-1.4917192e+179
-1.491097e+179
-1.5071289e+179
-1.5082344e+179
-1.5288602e+179
-1.5464938e+179
-1.5471945e+179
-1.5456895e+179
-1.5454248e+179
-1.5449058e+179
-1.527232e+179
-1.5269072e+179
-1.5274511e+179
-1.5267889e+179
-1.5284403e+179
-1.526793e+179
-1.5444237e+179
-1.5446611e+179
-1.5641161e+179
-1.5640134e+179
-1.5636511e+179
-1.5641402e+179
-1.5452652e+179
-1.545315e+179
-1.5269792e+179
-1.5451204e+179
-1.5269802e+179
-1.5087239e+179
-1.5956071e+179
-1.6213021e+179
-1.6113252e+179
-1.5609537e+179
-1.6059479e+179
-1.6146617e+179
-1.5354332e+179
-1.580537e+179
-1.5683145e+179
-1.5684166e+179
-1.5793496e+179
-1.6018904e+179
-1.6041886e+179
-1.6139658e+179
-1.6159107e+179
-1.6156279e+179
-1.5811743e+179
-1.5998435e+179
-1.5650479e+179
-1.5413974e+179
-1.5293739e+179
-1.4988415e+179
-1.5412202e+179
-1.5298619e+179
-1.5648243e+179
-1.5802427e+179
-1.5982584e+179
-1.6153207e+179
-1.6172036e+179
-1.5612465e+179
-1.5431574e+179
-1.4609771e+179
-1.5059674e+179
-1.4932601e+179
-1.4924917e+179
-1.5053008e+179
-1.4912821e+179
-1.4919125e+179
-1.5051754e+179
-1.5040641e+179
-1.5291515e+179
-1.5441187e+179
-1.5438399e+179
-1.5280309e+179
-1.5286605e+179
-1.5448468e+179
-1.5286698e+179
-1.5269859e+179
-1.5425225e+179
-1.5624044e+179
-1.5633425e+179
-1.5619245e+179
-1.5789122e+179
-1.5794087e+179
-1.5784845e+179
-1.5777952e+179
-1.579743e+179
-1.5635922e+179
-1.56154e+179
-1.5785377e+179
-1.5982579e+179
-1.596937e+179
-1.596875e+179
-1.5978615e+179
-1.5966826e+179
-1.6160974e+179
-1.6167388e+179
-1.615671e+179
-1.6157777e+179
-1.598739e+179
-1.5976925e+179
-1.6141312e+179
-1.6162839e+179
-1.5442259e+179
-1.5249925e+179
-1.4958359e+179
-1.4607998e+179
-1.5786646e+179
-1.5621039e+179
-1.5441047e+179
-1.4234161e+179
-1.4537127e+179
-1.4657645e+179
-1.4674041e+179
-1.456052e+179
-1.5079981e+179
-1.4887209e+179
-1.5055512e+179
-1.4887601e+179
-1.5290055e+179
-1.5256457e+179
-1.5411803e+179
-1.5606941e+179
-1.5786455e+179
-1.5478896e+179
-1.5251874e+179
-1.4943604e+179
-1.4594928e+179
-1.4235332e+179
-1.4709346e+179
-1.4899758e+179
-1.3860006e+179
-1.4173681e+179
-1.4166068e+179
-1.4295777e+179
-1.4301945e+179
-1.4536485e+179
-1.4519833e+179
-1.4691656e+179
-1.4901667e+179
-1.5077292e+179
-1.5055578e+179
-1.5247643e+179
-1.5424806e+179
-1.5271846e+179
-1.5445036e+179
-1.6303796e+179
-1.6164176e+179
-1.6183771e+179
-1.6186068e+179
-1.6463438e+179
-1.645156e+179
-1.5903903e+179
-1.5925446e+179
-1.5945891e+179
-1.5996357e+179
-1.5978609e+179
-1.6250442e+179
-1.6573509e+179
-1.6591643e+179
-1.6258659e+179
-1.5409876e+179
-1.5715378e+179
-1.5766493e+179
-1.5788772e+179
-1.5719921e+179
-1.5966639e+179
-1.5932608e+179
-1.6038421e+179
-1.6060998e+179
-1.628265e+179
-1.6291336e+179
-1.6604099e+179
-1.6598231e+179
-1.4971381e+179
-1.5320422e+179
-1.5449097e+179
-1.5460519e+179
-1.5331303e+179
-1.5690394e+179
-1.5827781e+179
-1.5815305e+179
-1.5703138e+179
-1.5958024e+179
-1.6083211e+179
-1.6107365e+179
-1.5972622e+179
-1.664081e+179
-1.6643233e+179
-1.6336403e+179
-1.6355931e+179
-1.4590697e+179
-1.4915885e+179
-1.4907509e+179
-1.5061666e+179
-1.5048464e+179
-1.5290797e+179
-1.5470512e+179
-1.5495887e+179
-1.531374e+179
-1.5675761e+179
-1.5818295e+179
-1.5831224e+179
-1.5694658e+179
-1.5986753e+179
-1.5980414e+179
-1.6133116e+179
-1.6140963e+179
-1.4227227e+179
-1.453142e+179
-1.4547068e+179
-1.4669371e+179
-1.4668419e+179
-1.4896517e+179
-1.4906296e+179
-1.5092732e+179
-1.5087961e+179
-1.5303455e+179
-1.547671e+179
-1.5496285e+179
-1.531133e+179
-1.5672488e+179
-1.5824329e+179
-1.5841783e+179
-1.5693299e+179
-1.5282956e+179
-1.5092854e+179
-1.3861961e+179
-1.4167e+179
-1.4297114e+179
-1.430525e+179
-1.4184384e+179
-1.4726591e+179
-1.4535049e+179
-1.4520582e+179
-1.4686744e+179
-1.5089821e+179
-1.4930018e+179
-1.4895547e+179
-1.5476364e+179
-1.5446048e+179
-1.5305288e+179
-1.3481926e+179
-1.3794924e+179
-1.3796226e+179
-1.3787833e+179
-1.3930078e+179
-1.3941166e+179
-1.3779652e+179
-1.3931152e+179
-1.3926421e+179
-1.4153707e+179
-1.4168538e+179
-1.4148407e+179
-1.4338069e+179
-1.4335345e+179
-1.4327334e+179
-1.4345039e+179
-1.4352911e+179
-1.4169458e+179
-1.4152145e+179
-1.4541369e+179
-1.4535197e+179
-1.4712247e+179
-1.4733687e+179
-1.4720404e+179
-1.4736841e+179
-1.4553541e+179
-1.4541279e+179
-1.4554055e+179
-1.4548529e+179
-1.4707521e+179
-1.4693819e+179
-1.4907353e+179
-1.4892042e+179
-1.5069385e+179
-1.5085991e+179
-1.5082019e+179
-1.5078618e+179
-1.5085314e+179
-1.4914601e+179
-1.4916456e+179
-1.489697e+179
-1.4914205e+179
-1.4910773e+179
-1.5071348e+179
-1.5082352e+179
-1.545665e+179
-1.5451406e+179
-1.5452807e+179
-1.5448859e+179
-1.5272251e+179
-1.5267892e+179
-1.5268086e+179
-1.5267719e+179
-1.5268065e+179
-1.526962e+179
-1.5087038e+179
-1.5267855e+179
-1.5087095e+179
-1.4911882e+179
-1.5958688e+179
-1.5608948e+179
-1.6117158e+179
-1.6125291e+179
-1.6178685e+179
-1.620632e+179
-1.6078732e+179
-1.6054014e+179
-1.5779475e+179
-1.5282639e+179
-1.5646469e+179
-1.5647758e+179
-1.5755893e+179
-1.6016091e+179
-1.6072925e+179
-1.4962145e+179
-1.528504e+179
-1.5285353e+179
-1.5413364e+179
-1.5414345e+179
-1.5840439e+179
-1.5661873e+179
-1.5665024e+179
-1.5831861e+179
-1.6014768e+179
-1.6034346e+179
-1.6138921e+179
-1.6157678e+179
-1.6156506e+179
-1.5812687e+179
-1.5998364e+179
-1.5648969e+179
-1.5443883e+179
-1.5272248e+179
-1.5037785e+179
-1.491251e+179
-1.4606177e+179
-1.4924842e+179
-1.5043914e+179
-1.5445484e+179
-1.5275561e+179
-1.5645831e+179
-1.5803212e+179
-1.5982505e+179
-1.6153294e+179
-1.5612425e+179
-1.5431081e+179
-1.4217132e+179
-1.4518147e+179
-1.4527073e+179
-1.4669923e+179
-1.4673072e+179
-1.453307e+179
-1.4520717e+179
-1.4674155e+179
-1.4664102e+179
-1.5094439e+179
-1.4910943e+179
-1.4907036e+179
-1.4906684e+179
-1.5082816e+179
-1.5077959e+179
-1.4889846e+179
-1.4904022e+179
-1.5081603e+179
-1.5068304e+179
-1.5288586e+179
-1.5448609e+179
-1.5441998e+179
-1.544672e+179
-1.5281684e+179
-1.5279354e+179
-1.5281276e+179
-1.5450232e+179
-1.5285831e+179
-1.5269365e+179
-1.5427013e+179
-1.5623446e+179
-1.562141e+179
-1.5633242e+179
-1.5615801e+179
-1.5788088e+179
-1.5793592e+179
-1.57942e+179
-1.57822e+179
-1.5778098e+179
-1.5797409e+179
-1.5635673e+179
-1.5615438e+179
-1.5785464e+179
-1.596375e+179
-1.5963388e+179
-1.5968503e+179
-1.5966622e+179
-1.6160984e+179
-1.615552e+179
-1.616321e+179
-1.6157709e+179
-1.5420906e+179
-1.5192386e+179
-1.4919322e+179
-1.4586951e+179
-1.4227693e+179
-1.5441118e+179
-1.3852739e+179
-1.4300991e+179
-1.4289144e+179
-1.4160301e+179
-1.416213e+179
-1.4514819e+179
-1.4677506e+179
-1.4702803e+179
-1.4544543e+179
-1.5082965e+179
-1.4887976e+179
-1.5056492e+179
-1.4886357e+179
-1.5289938e+179
-1.5256423e+179
-1.54119e+179
-1.5477678e+179
-1.5243033e+179
-1.4917147e+179
-1.4576316e+179
-1.4221297e+179
-1.3857002e+179
-1.4708746e+179
-1.4899595e+179
-1.3482731e+179
-1.3799316e+179
-1.3780632e+179
-1.3919615e+179
-1.3924168e+179
-1.4156315e+179
-1.4142226e+179
-1.4319263e+179
-1.4334401e+179
-1.4535756e+179
-1.4519966e+179
-1.4693113e+179
-1.4901631e+179
-1.5077398e+179
-1.5055656e+179
-1.631148e+179
-1.6155468e+179
-1.6174871e+179
-1.6460807e+179
-1.6472424e+179
-1.6181366e+179
-1.5911366e+179
-1.596712e+179
-1.5920908e+179
-1.5925223e+179
-1.5969496e+179
-1.624284e+179
-1.623736e+179
-1.6561284e+179
-1.6550745e+179
-1.5420301e+179
-1.5711894e+179
-1.5756415e+179
-1.5772974e+179
-1.5718226e+179
-1.5915751e+179
-1.5938251e+179
-1.6021757e+179
-1.6009387e+179
-1.625771e+179
-1.6581459e+179
-1.6598492e+179
-1.6265418e+179
-1.4973617e+179
-1.5324535e+179
-1.5314148e+179
-1.5447375e+179
-1.5452015e+179
-1.5686525e+179
-1.5798598e+179
-1.5824105e+179
-1.5693715e+179
-1.5957177e+179
-1.5925097e+179
-1.6038257e+179
-1.6059008e+179
-1.6283337e+179
-1.6291931e+179
-1.6604309e+179
-1.659842e+179
-1.4576599e+179
-1.4913952e+179
-1.4898955e+179
-1.5064575e+179
-1.5051895e+179
-1.53022e+179
-1.5482694e+179
-1.5499453e+179
-1.5318539e+179
-1.5686993e+179
-1.5827706e+179
-1.5816696e+179
-1.5698055e+179
-1.595781e+179
-1.6083577e+179
-1.6107747e+179
-1.5972392e+179
-1.4216429e+179
-1.4668532e+179
-1.4540083e+179
-1.4529527e+179
-1.4663222e+179
-1.4899405e+179
-1.4888965e+179
-1.5094639e+179
-1.50722e+179
-1.5290055e+179
-1.5472303e+179
-1.549617e+179
-1.5313019e+179
-1.5675555e+179
-1.5818311e+179
-1.5831232e+179
-1.5694373e+179
-1.3849242e+179
-1.4302536e+179
-1.4168242e+179
-1.4156224e+179
-1.4280855e+179
-1.4508479e+179
-1.4529805e+179
-1.4693657e+179
-1.4694193e+179
-1.489686e+179
-1.4906099e+179
-1.5093968e+179
-1.5089247e+179
-1.5303381e+179
-1.5476727e+179
-1.5496253e+179
-1.5311249e+179
-1.509288e+179
-1.3482509e+179
-1.378663e+179
-1.3918674e+179
-1.3929141e+179
-1.3786969e+179
-1.4145671e+179
-1.4322861e+179
-1.4331748e+179
-1.4167228e+179
-1.472709e+179
-1.4535129e+179
-1.4519339e+179
-1.4688193e+179
-1.5089898e+179
-1.4929842e+179
-1.4895526e+179
-1.3102155e+179
-1.341495e+179
-1.3543559e+179
-1.3565887e+179
-1.3423396e+179
-1.3409529e+179
-1.3415685e+179
-1.3549765e+179
-1.353594e+179
-1.3775238e+179
-1.3779295e+179
-1.3775195e+179
-1.3760359e+179
-1.3954173e+179
-1.3958539e+179
-1.3948566e+179
-1.3760927e+179
-1.3949158e+179
-1.394475e+179
-1.4152775e+179
-1.4145702e+179
-1.4165603e+179
-1.4145905e+179
-1.4339008e+179
-1.4345511e+179
-1.4347034e+179
-1.4328275e+179
-1.4345708e+179
-1.4353381e+179
-1.4170398e+179
-1.4152339e+179
-1.454125e+179
-1.4535248e+179
-1.4712386e+179
-1.4737509e+179
-1.47335e+179
-1.4720475e+179
-1.4737256e+179
-1.4554657e+179
-1.4556945e+179
-1.454132e+179
-1.4554639e+179
-1.4548404e+179
-1.4707729e+179
-1.4693921e+179
-1.5085547e+179
-1.508566e+179
-1.508198e+179
-1.5085363e+179
-1.4913526e+179
-1.4912538e+179
-1.491638e+179
-1.4914094e+179
-1.5085692e+179
-1.5086863e+179
-1.4911822e+179
-1.5085607e+179
-1.4911818e+179
-1.4735006e+179
-1.5957058e+179
-1.6145377e+179
-1.6112985e+179
-1.5618803e+179
-1.6117896e+179
-1.6161516e+179
-1.5240176e+179
-1.5782375e+179
-1.5643244e+179
-1.5649314e+179
-1.5779211e+179
-1.604313e+179
-1.6046953e+179
-1.6005941e+179
-1.6042516e+179
-1.6073119e+179
-1.6033753e+179
-1.5847459e+179
-1.492298e+179
-1.5250701e+179
-1.5238339e+179
-1.538112e+179
-1.538969e+179
-1.5655876e+179
-1.5658483e+179
-1.5833143e+179
-1.5999388e+179
-1.6069357e+179
-1.4582273e+179
-1.5026831e+179
-1.4885804e+179
-1.490171e+179
-1.5027694e+179
-1.526586e+179
-1.5268385e+179
-1.5444053e+179
-1.5449334e+179
-1.5843264e+179
-1.5661558e+179
-1.5663754e+179
-1.5831422e+179
-1.6014677e+179
-1.6034e+179
-1.6139133e+179
-1.6157893e+179
-1.5812762e+179
-1.5648861e+179
-1.5445286e+179
-1.5270978e+179
-1.5064202e+179
-1.4890293e+179
-1.4661974e+179
-1.4530296e+179
-1.4216309e+179
-1.4535204e+179
-1.4669309e+179
-1.4904145e+179
-1.5075842e+179
-1.544573e+179
-1.5275025e+179
-1.564563e+179
-1.5803151e+179
-1.5431112e+179
-1.4134366e+179
-1.4144559e+179
-1.4150883e+179
-1.3846579e+179
-1.4278514e+179
-1.4283129e+179
-1.428025e+179
-1.4286451e+179
-1.4151637e+179
-1.450244e+179
-1.4504241e+179
-1.4502425e+179
-1.4693682e+179
-1.4695964e+179
-1.4693107e+179
-1.4514285e+179
-1.450871e+179
-1.4696947e+179
-1.4683279e+179
-1.5096179e+179
-1.4911883e+179
-1.4902133e+179
-1.4906324e+179
-1.4900419e+179
-1.5090542e+179
-1.5084404e+179
-1.5088058e+179
-1.4889787e+179
-1.4903503e+179
-1.5083569e+179
-1.5070064e+179
-1.5288364e+179
-1.5447993e+179
-1.5451157e+179
-1.544199e+179
-1.5447308e+179
-1.5281636e+179
-1.5281738e+179
-1.5279129e+179
-1.5281784e+179
-1.545025e+179
-1.5285682e+179
-1.5269267e+179
-1.5427114e+179
-1.5620663e+179
-1.5618203e+179
-1.5621097e+179
-1.5615414e+179
-1.5787889e+179
-1.5790496e+179
-1.5792156e+179
-1.5782066e+179
-1.5963738e+179
-1.5962309e+179
-1.59631e+179
-1.615601e+179
-1.6162846e+179
-1.6163131e+179
-1.5417456e+179
-1.5175362e+179
-1.4882515e+179
-1.4563541e+179
-1.4213101e+179
-1.3849388e+179
-1.3909743e+179
-1.3783353e+179
-1.348312e+179
-1.3777055e+179
-1.390582e+179
-1.433191e+179
-1.4314541e+179
-1.4135757e+179
-1.4138764e+179
-1.4513153e+179
-1.4679075e+179
-1.4701933e+179
-1.4541561e+179
-1.5083089e+179
-1.4888031e+179
-1.5056597e+179
-1.4886298e+179
-1.5477761e+179
-1.5246112e+179
-1.4907191e+179
-1.455694e+179
-1.4207038e+179
-1.38465e+179
-1.3481303e+179
-1.4708679e+179
-1.3108169e+179
-1.3405599e+179
-1.3530296e+179
-1.3558835e+179
-1.3426746e+179
-1.3779786e+179
-1.3756969e+179
-1.3943867e+179
-1.3943296e+179
-1.4155347e+179
-1.4142686e+179
-1.4320855e+179
-1.4334904e+179
-1.4535651e+179
-1.4519941e+179
-1.4693157e+179
-1.6344059e+179
-1.6159753e+179
-1.6494777e+179
-1.6192787e+179
-1.619184e+179
-1.6468197e+179
-1.591999e+179
-1.5918072e+179
-1.5908998e+179
-1.5951307e+179
-1.5955482e+179
-1.6236799e+179
-1.6571294e+179
-1.6584017e+179
-1.6237378e+179
-1.5429074e+179
-1.5711943e+179
-1.5709585e+179
-1.5753819e+179
-1.5756828e+179
-1.6008095e+179
-1.5916672e+179
-1.5918824e+179
-1.6004962e+179
-1.62463e+179
-1.6241511e+179
-1.656252e+179
-1.6554071e+179
-1.4977113e+179
-1.5319854e+179
-1.5327717e+179
-1.5449796e+179
-1.5451809e+179
-1.5679921e+179
-1.5788511e+179
-1.580666e+179
-1.5687129e+179
-1.590823e+179
-1.5928553e+179
-1.6020619e+179
-1.6011203e+179
-1.6258527e+179
-1.6581543e+179
-1.6598748e+179
-1.6266379e+179
-1.4574154e+179
-1.4918919e+179
-1.4909802e+179
-1.5057359e+179
-1.5061915e+179
-1.5307708e+179
-1.529517e+179
-1.5478493e+179
-1.5484272e+179
-1.5682571e+179
-1.5799476e+179
-1.5825063e+179
-1.5690892e+179
-1.5956762e+179
-1.5924812e+179
-1.6038755e+179
-1.6059354e+179
-1.420421e+179
-1.4527172e+179
-1.4523189e+179
-1.4661102e+179
-1.4654435e+179
-1.4902038e+179
-1.4879952e+179
-1.5099641e+179
-1.5078124e+179
-1.5301678e+179
-1.5483919e+179
-1.5499373e+179
-1.5317155e+179
-1.5686731e+179
-1.5827684e+179
-1.5816746e+179
-1.5697726e+179
-1.384124e+179
-1.4294978e+179
-1.4163265e+179
-1.4158746e+179
-1.4284517e+179
-1.4692161e+179
-1.4523744e+179
-1.4506819e+179
-1.4686906e+179
-1.4899377e+179
-1.488854e+179
-1.5095784e+179
-1.5073862e+179
-1.5289989e+179
-1.5472352e+179
-1.5496106e+179
-1.5312931e+179
-1.3471602e+179
-1.3770072e+179
-1.3911708e+179
-1.3912127e+179
-1.3782914e+179
-1.4331292e+179
-1.4147268e+179
-1.4134648e+179
-1.430362e+179
-1.4508e+179
-1.452757e+179
-1.4694675e+179
-1.4695446e+179
-1.4896904e+179
-1.4906131e+179
-1.509405e+179
-1.5089319e+179
-1.3106481e+179
-1.3412414e+179
-1.3425366e+179
-1.3544649e+179
-1.3541156e+179
-1.3765694e+179
-1.3943857e+179
-1.3955454e+179
-1.3764533e+179
-1.414541e+179
-1.4324254e+179
-1.4331206e+179
-1.4165166e+179
-1.4727077e+179
-1.4535128e+179
-1.4519311e+179
-1.4688291e+179
-1.2725338e+179
-1.3017313e+179
-1.3047002e+179
-1.3039747e+179
-1.3172876e+179
-1.3183355e+179
-1.3038412e+179
-1.3182544e+179
-1.3177782e+179
-1.3391941e+179
-1.35613e+179
-1.3591305e+179
-1.3572683e+179
-1.3414649e+179
-1.3402555e+179
-1.3394617e+179
-1.3394105e+179
-1.3571949e+179
-1.3559415e+179
-1.3775551e+179
-1.3765698e+179
-1.3775804e+179
-1.3769989e+179
-1.3760861e+179
-1.3955185e+179
-1.3959236e+179
-1.3949694e+179
-1.3945625e+179
-1.3761297e+179
-1.3951512e+179
-1.3945557e+179
-1.4152716e+179
-1.4145376e+179
-1.4148459e+179
-1.4165447e+179
-1.4147029e+179
-1.4339143e+179
-1.4346773e+179
-1.4354383e+179
-1.4348247e+179
-1.4328363e+179
-1.4345695e+179
-1.4353372e+179
-1.4170378e+179
-1.4152283e+179
-1.4736601e+179
-1.4736168e+179
-1.4733425e+179
-1.4737287e+179
-1.455465e+179
-1.4557437e+179
-1.455687e+179
-1.4554621e+179
-1.491344e+179
-1.4911749e+179
-1.4912462e+179
-1.4734981e+179
-1.473496e+179
-1.4556485e+179
-1.595363e+179
-1.5631329e+179
-1.6114386e+179
-1.6115839e+179
-1.6118241e+179
-1.6131169e+179
-1.5957247e+179
-1.602637e+179
-1.5778423e+179
-1.5647328e+179
-1.5232593e+179
-1.565109e+179
-1.5780379e+179
-1.6036782e+179
-1.598443e+179
-1.4886103e+179
-1.5224814e+179
-1.5218269e+179
-1.5371226e+179
-1.5380782e+179
-1.5849327e+179
-1.5658102e+179
-1.5668988e+179
-1.5850662e+179
-1.6019819e+179
-1.6022628e+179
-1.5998535e+179
-1.6035749e+179
-1.6073611e+179
-1.603253e+179
-1.5848467e+179
-1.4992715e+179
-1.4857823e+179
-1.4556538e+179
-1.4871763e+179
-1.5002506e+179
-1.523949e+179
-1.5229187e+179
-1.5423957e+179
-1.5435497e+179
-1.5654352e+179
-1.5656639e+179
-1.5832562e+179
-1.5998455e+179
-1.6069967e+179
-1.4202781e+179
-1.4516544e+179
-1.4500468e+179
-1.463173e+179
-1.4650436e+179
-1.5055133e+179
-1.4862289e+179
-1.4881617e+179
-1.5058522e+179
-1.526467e+179
-1.5266351e+179
-1.5444972e+179
-1.5450054e+179
-1.5843309e+179
-1.5661459e+179
-1.5663593e+179
-1.583138e+179
-1.5445372e+179
-1.5270913e+179
-1.5065459e+179
-1.4889191e+179
-1.4686243e+179
-1.4509946e+179
-1.427956e+179
-1.4145176e+179
-1.3839238e+179
-1.4135219e+179
-1.4275005e+179
-1.4512766e+179
-1.4697295e+179
-1.4903911e+179
-1.5077886e+179
-1.5445743e+179
-1.5274987e+179
-1.4116151e+179
-1.4130543e+179
-1.3903762e+179
-1.4127347e+179
-1.3918214e+179
-1.4129076e+179
-1.3913335e+179
-1.3480356e+179
-1.3788837e+179
-1.3915035e+179
-1.3782372e+179
-1.3788485e+179
-1.3798661e+179
-1.4295041e+179
-1.4296976e+179
-1.4304159e+179
-1.4294327e+179
-1.4307649e+179
-1.412828e+179
-1.4500175e+179
-1.4502416e+179
-1.4501772e+179
-1.4502212e+179
-1.4695697e+179
-1.469857e+179
-1.4697211e+179
-1.469856e+179
-1.4513359e+179
-1.4507989e+179
-1.4698296e+179
-1.4685141e+179
-1.50962e+179
-1.4911897e+179
-1.4900195e+179
-1.4902334e+179
-1.4906285e+179
-1.4900417e+179
-1.5092577e+179
-1.5091297e+179
-1.5084421e+179
-1.5089039e+179
-1.4889809e+179
-1.4903508e+179
-1.5083663e+179
-1.5070121e+179
-1.5447755e+179
-1.5447606e+179
-1.5449175e+179
-1.5447023e+179
-1.5281365e+179
-1.5280859e+179
-1.5281584e+179
-1.5281628e+179
-1.5620165e+179
-1.5615323e+179
-1.5617679e+179
-1.5789856e+179
-1.5787295e+179
-1.5791763e+179
-1.5962637e+179
-1.596251e+179
-1.6163311e+179
-1.6163534e+179
-1.5418539e+179
-1.5175479e+179
-1.4865674e+179
-1.4539655e+179
-1.4195945e+179
-1.3839558e+179
-1.3478786e+179
-1.3930927e+179
-1.3762592e+179
-1.3542744e+179
-1.3107782e+179
-1.3413401e+179
-1.3543311e+179
-1.3423026e+179
-1.3758775e+179
-1.3928188e+179
-1.4332935e+179
-1.4315106e+179
-1.4135117e+179
-1.4139026e+179
-1.4513037e+179
-1.4679173e+179
-1.4701891e+179
-1.4541361e+179
-1.5484539e+179
-1.5253161e+179
-1.4907313e+179
-1.4547217e+179
-1.4191644e+179
-1.3835775e+179
-1.3473185e+179
-1.3108053e+179
-1.2731697e+179
-1.3041202e+179
-1.3049154e+179
-1.3175962e+179
-1.3169008e+179
-1.3382725e+179
-1.3552197e+179
-1.3586003e+179
-1.3407282e+179
-1.3777629e+179
-1.3756908e+179
-1.3944648e+179
-1.3944598e+179
-1.4155312e+179
-1.4142716e+179
-1.4320949e+179
-1.4334913e+179
-1.637774e+179
-1.6174154e+179
-1.6229129e+179
-1.6211298e+179
-1.6505556e+179
-1.6538839e+179
-1.5934186e+179
-1.5913049e+179
-1.5955709e+179
-1.5967723e+179
-1.5927406e+179
-1.6611381e+179
-1.6252683e+179
-1.6253575e+179
-1.6570827e+179
-1.5441033e+179
-1.5711279e+179
-1.5718387e+179
-1.5757879e+179
-1.5746579e+179