/*--------------------------------*- C++ -*----------------------------------*\
  =========                 |
  \\      /  F ield         | OpenFOAM: The Open Source CFD Toolbox
   \\    /   O peration     | Website:  https://openfoam.org
    \\  /    A nd           | Version:  7
     \\/     M anipulation  |
\*---------------------------------------------------------------------------*/
FoamFile
{
    version     2.0;
    format      ascii;
    class       volVectorField;
    location    "2000";
    object      U;
}
// * * * * * * * * * * * * * * * * * * * * * * * * * * * * * * * * * * * * * //

dimensions      [0 1 -1 0 0 0 0];

internalField   nonuniform List<vector> 
34387
(
(-5.7401282e+90 1.4079361e+89 -2.0749502e+88)
(-6.1117156e+90 -1.0734094e+89 -9.7844406e+88)
(-4.659402e+90 -6.4807486e+87 -3.1737353e+88)
(-6.1938901e+90 -1.1405138e+89 -9.9965622e+88)
(-6.0367149e+90 1.3836527e+89 1.0565019e+89)
(-5.7885873e+90 -5.0581128e+88 -7.906019e+88)
(-3.3472128e+90 7.8224347e+88 7.8114664e+89)
(-3.5290536e+90 3.739376e+89 -6.0740793e+89)
(-3.836632e+90 1.2361265e+88 -6.8943942e+89)
(-3.3683774e+90 3.408901e+89 7.2359251e+89)
(-5.9904167e+90 -1.8526903e+89 -1.2654787e+89)
(-3.2745669e+90 8.8915527e+89 1.4310779e+89)
(-3.4544864e+90 8.1412018e+89 -2.504455e+89)
(-4.0434874e+90 -7.2291263e+89 1.6601911e+89)
(-4.038086e+90 -7.91705e+89 -1.7360129e+89)
(-3.4111002e+90 3.3960208e+89 -6.8173587e+89)
(-3.408244e+90 -6.9771072e+88 6.4461458e+89)
(-3.2432703e+90 2.3288893e+89 7.581326e+89)
(-3.8651872e+90 -2.088942e+88 -8.423505e+89)
(-6.8269684e+90 -3.3706879e+88 -6.2052235e+88)
(-3.620593e+90 4.3627673e+88 -4.9273146e+88)
(-4.4759239e+90 -1.9084424e+88 -3.3221602e+88)
(-6.1770297e+90 -7.7905568e+88 -9.4023836e+88)
(-5.8473906e+90 -9.9044528e+88 -7.3822079e+88)
(-6.065791e+90 -2.099021e+89 -8.2957516e+88)
(-3.3878569e+90 7.939639e+89 9.9577991e+88)
(-3.3562556e+90 8.0853474e+89 -2.3360393e+89)
(-3.7910077e+90 -5.8742294e+89 8.0392479e+88)
(-3.7767494e+90 -6.248091e+89 -2.154809e+89)
(-6.490523e+90 1.0568016e+89 6.3491673e+88)
(-5.7052152e+90 -8.6374539e+88 -1.0524596e+89)
(-3.704386e+90 3.5156414e+89 -5.0950134e+89)
(-3.5326156e+90 9.9809966e+87 8.6157202e+89)
(-3.4404477e+90 4.1246321e+89 7.7405801e+89)
(-3.9573254e+90 4.3029624e+88 -5.7983603e+89)
(-5.7877557e+90 -1.7072487e+89 -1.3785272e+89)
(-3.4084619e+90 5.1739759e+88 6.4094111e+89)
(-3.8579234e+90 5.6094258e+87 -5.9908311e+89)
(-3.5523806e+90 3.5434969e+89 -5.1901703e+89)
(-3.4690609e+90 2.6862329e+89 5.9466614e+89)
(-3.4470726e+90 1.8262635e+89 -5.7709057e+88)
(-3.4376499e+90 1.632913e+89 7.3538313e+88)
(-3.5608262e+90 1.0131744e+89 5.3871881e+88)
(-3.6881956e+90 6.8672218e+88 -6.2594107e+88)
(-5.865187e+90 -2.128313e+89 -1.2974393e+89)
(-3.7374206e+90 -6.0469329e+89 1.4942753e+89)
(-3.3493578e+90 7.4683767e+89 -2.211679e+89)
(-3.4318883e+90 7.3185211e+89 6.529925e+88)
(-3.8099114e+90 -6.6061059e+89 -1.22709e+89)
(-3.3714677e+90 2.7896656e+89 -6.4455568e+89)
(-3.3594682e+90 -1.0799944e+89 5.7928852e+89)
(-3.4001663e+90 1.2233253e+89 6.0824794e+89)
(-3.8859927e+90 -4.209476e+88 -7.3962158e+89)
(-3.6489595e+90 -1.4132152e+88 2.4569221e+88)
(-3.5193467e+90 1.6062076e+88 -3.0136071e+88)
(-3.5355983e+90 -1.1316141e+89 -6.908451e+87)
(-3.8682237e+90 -4.8232293e+88 -4.4256968e+88)
(-3.688774e+90 1.3198483e+87 3.221768e+88)
(-3.9171e+90 1.0158801e+89 -6.4742942e+88)
(-3.7616438e+90 6.9282177e+88 -3.6886186e+88)
(-3.6627784e+90 1.0041783e+89 -1.2783652e+89)
(-3.45586e+90 1.1367936e+89 -2.7716632e+88)
(-3.2905508e+90 8.1887367e+88 6.6933712e+87)
(-3.5904399e+90 -2.7805121e+88 -1.275529e+89)
(-7.8724067e+90 -5.015969e+87 -1.0286752e+89)
(-5.1176961e+90 -1.7857688e+88 -8.5272571e+88)
(-3.6854136e+90 6.2219253e+88 -6.3239529e+88)
(-3.4365326e+90 8.3998816e+87 -3.4796886e+88)
(-4.0687167e+90 -3.434581e+88 -2.7671898e+88)
(-5.984056e+90 -7.5804097e+88 -3.3107163e+88)
(-5.8779004e+90 -8.9669701e+88 -6.3103659e+88)
(-6.0654519e+90 -2.0755943e+89 -3.2294488e+88)
(-3.4051867e+90 8.1213037e+89 1.2704451e+89)
(-3.7067536e+90 7.7144618e+89 -1.8577708e+89)
(-3.9033735e+90 -5.4276391e+89 9.3180569e+88)
(-3.732591e+90 -5.7336443e+89 -2.2256429e+89)
(-5.5278948e+90 -5.634134e+89 -9.9856799e+88)
(-5.7657697e+90 -2.4665114e+89 -9.2848731e+88)
(-5.9341302e+90 -2.0879184e+89 -6.5084171e+88)
(-3.5526516e+90 6.7051918e+89 8.6582614e+88)
(-3.5661188e+90 6.7657266e+89 -2.0380905e+89)
(-3.7885857e+90 -5.5881103e+89 7.3900074e+88)
(-3.7989275e+90 -5.6890802e+89 -2.0060102e+89)
(-3.5861209e+90 -1.3412377e+89 -1.1213939e+89)
(-3.6698702e+90 -1.0997751e+89 -1.2777596e+89)
(-3.7693874e+90 7.4499694e+88 -1.4585215e+89)
(-3.6683503e+90 -8.0614968e+87 -1.5799945e+89)
(-6.7959941e+90 4.1748596e+88 9.1861035e+88)
(-5.7346614e+90 -6.7601956e+88 -6.3219733e+89)
(-3.6899425e+90 3.6305853e+89 8.8228836e+89)
(-3.7521237e+90 1.4605132e+88 9.0623636e+89)
(-3.4644283e+90 3.5828642e+89 -4.2266808e+89)
(-3.7446504e+90 2.3238877e+88 -5.1835611e+89)
(-5.661388e+90 -2.2193385e+89 -2.4660638e+89)
(-3.4745055e+90 5.0942883e+88 6.1329787e+89)
(-3.6785425e+90 3.1437082e+89 -4.2085373e+89)
(-3.8949523e+90 6.9983897e+88 -4.9829759e+89)
(-3.5208339e+90 3.3420954e+89 5.7423655e+89)
(-3.5965505e+90 1.7691228e+89 4.2620146e+88)
(-3.5846793e+90 1.3033707e+89 -8.6945346e+87)
(-3.6427833e+90 1.4778856e+89 -4.1599963e+88)
(-3.6971603e+90 1.8835636e+89 1.667151e+88)
(-5.7334262e+90 -2.0358591e+89 -1.3473358e+89)
(-3.6031794e+90 -8.1847309e+86 5.3290438e+89)
(-3.7892962e+90 -2.6657611e+88 -5.7618148e+89)
(-3.5987246e+90 2.7851732e+89 -5.1166316e+89)
(-3.6066441e+90 2.0073782e+89 5.0329851e+89)
(-3.5892029e+90 1.0943068e+89 -1.0093578e+89)
(-3.8299162e+90 3.8875023e+88 -2.3105767e+88)
(-3.5774676e+90 1.2937264e+89 -5.6246291e+87)
(-3.8460685e+90 1.7313195e+88 -1.1915448e+89)
(-5.3479229e+90 -8.222675e+88 -5.2745177e+87)
(-4.8803393e+90 -7.4699088e+88 2.5335061e+88)
(-3.2417559e+90 2.0577528e+88 1.4049832e+88)
(-4.8266982e+90 -9.2448194e+88 -1.8226308e+88)
(-5.759786e+90 -2.0731778e+89 -1.1711475e+89)
(-3.4083135e+90 -1.2692495e+89 5.346782e+89)
(-3.4124718e+90 2.0245523e+89 -5.9566687e+89)
(-3.6745953e+90 -9.6532061e+88 -6.7714488e+89)
(-3.4887595e+90 7.1877861e+88 5.8002861e+89)
(-3.6108434e+90 5.8583158e+89 1.1881149e+88)
(-3.4889951e+90 6.3990626e+89 -2.3696368e+89)
(-3.5869469e+90 -5.4032579e+89 1.0754373e+89)
(-3.8521384e+90 -6.3385836e+89 -1.8408769e+89)
(-3.580899e+90 2.8214798e+88 -1.7316147e+88)
(-3.6120821e+90 -6.1927016e+88 -5.507517e+88)
(-3.8796673e+90 -8.5365053e+88 -9.6841949e+88)
(-3.8921079e+90 -3.2081291e+88 -8.9783781e+88)
(-3.9926184e+90 -7.5107637e+87 -4.4581219e+88)
(-4.1309326e+90 2.858649e+88 -1.632564e+88)
(-3.445546e+90 8.3054042e+88 -2.1491605e+88)
(-3.4427301e+90 4.0562723e+88 -1.0939611e+89)
(-3.7066352e+90 -1.4129955e+88 -9.8822409e+88)
(-3.6959388e+90 5.3673688e+88 -3.2348753e+88)
(-3.9332179e+90 -1.3636448e+89 -1.0813754e+89)
(-3.7103736e+90 -1.1464424e+88 -2.1118412e+88)
(-3.6950824e+90 -3.6060164e+88 -1.1920774e+89)
(-2.4360412e+90 -1.2914364e+88 1.7258189e+88)
(-2.1007535e+90 -1.8650934e+88 -2.5444424e+88)
(-3.9034824e+90 1.0152322e+89 -1.1927463e+89)
(-1.3889733e+90 5.7319416e+87 7.7706207e+88)
(-3.3138128e+90 3.5132263e+88 -1.2819175e+89)
(-3.0684372e+90 1.3196886e+89 -5.2146441e+88)
(-2.7565163e+90 1.6791634e+89 -2.9364296e+88)
(-4.5754432e+90 9.6118432e+87 -6.2104731e+87)
(-1.9438715e+90 7.1530528e+88 9.8427748e+87)
(-4.7801586e+90 -6.1126272e+88 -1.6312082e+89)
(-4.5026764e+90 -2.1372356e+88 -1.7705102e+89)
(-3.4975012e+90 -2.1422943e+88 -1.1596654e+89)
(-4.4724306e+90 4.5950562e+88 -1.3345157e+89)
(-4.7854209e+90 -1.3199069e+88 -8.070587e+88)
(-3.7073054e+90 -2.653136e+88 -5.8972821e+88)
(-3.2127332e+90 -1.7160258e+88 9.2758692e+87)
(-3.1698226e+90 -4.944588e+88 -4.7713376e+88)
(-3.7361703e+90 -4.0347906e+88 -2.5497607e+88)
(-3.6650194e+90 -3.6291215e+88 -2.670875e+88)
(-5.9296676e+90 -8.24721e+88 -3.2251542e+88)
(-3.297748e+90 3.7229676e+89 6.7119229e+89)
(-5.9299478e+90 -2.3332226e+89 5.9737185e+88)
(-3.3809888e+90 -4.5068237e+88 -6.8309304e+89)
(-3.169769e+90 2.2192676e+89 -7.6286838e+89)
(-3.6415282e+90 1.8113852e+88 7.8071248e+89)
(-3.2244472e+90 8.7289812e+89 2.0682721e+89)
(-3.4316701e+90 8.3926487e+89 -1.169585e+89)
(-3.8492804e+90 -6.3064316e+89 1.1002817e+89)
(-3.4971389e+90 -6.1609192e+89 -2.3673199e+89)
(-5.4970668e+90 -6.264341e+89 -9.3877474e+87)
(-5.7176556e+90 -2.6195162e+89 -3.1568754e+88)
(-3.9507413e+90 -5.3245155e+89 1.2222793e+89)
(-3.7689884e+90 6.315768e+89 -1.2589764e+89)
(-5.9583278e+90 -2.3329907e+89 -1.7037718e+88)
(-3.6486346e+90 6.7636116e+89 1.4530054e+89)
(-3.836813e+90 -5.4320063e+89 -1.5539072e+89)
(-3.7795303e+90 -8.1218742e+88 -5.3667615e+88)
(-3.9739436e+90 -9.2595725e+88 -3.1238073e+88)
(-4.0742237e+90 -1.3789566e+87 -3.6223486e+88)
(-3.7466033e+90 5.3851475e+88 -6.2546123e+88)
(-5.5448616e+90 -4.5411618e+89 -1.8554356e+89)
(-5.6947539e+90 -2.2558394e+89 -8.0778303e+88)
(-5.8203034e+90 -2.0415557e+89 -4.9360692e+88)
(-3.726204e+90 5.8729284e+89 -1.5662605e+89)
(-3.8103469e+90 -5.077889e+89 7.6372473e+88)
(-3.6074839e+90 5.8344854e+89 8.441175e+88)
(-3.7081815e+90 -5.0247564e+89 -1.6336279e+89)
(-3.5578155e+90 -1.0044072e+89 -6.0907784e+88)
(-3.7732103e+90 -1.277927e+89 -7.7523261e+88)
(-3.8601067e+90 -4.9000035e+88 -1.0458003e+89)
(-3.687293e+90 -5.3270227e+88 -7.9632758e+88)
(-4.0789857e+90 -5.6488823e+88 -1.1631543e+89)
(-4.77799e+90 -2.7599526e+88 -1.7618178e+89)
(-6.8418166e+90 4.0755533e+88 -2.8270766e+89)
(-4.7570908e+90 -4.7185494e+88 -2.102304e+89)
(-6.857889e+90 4.5401832e+88 8.1854987e+88)
(-5.9362677e+90 4.0334923e+87 -7.286809e+89)
(-3.7348183e+90 9.1214484e+88 -4.6197717e+89)
(-3.4430741e+90 4.0112755e+89 -3.9443027e+89)
(-3.8867322e+90 2.1283174e+88 9.1555786e+89)
(-3.86445e+90 3.9278921e+89 8.6085212e+89)
(-5.2351403e+90 -1.2169946e+89 -4.4256634e+89)
(-3.6093316e+90 2.9407419e+89 5.0697362e+89)
(-3.5611235e+90 1.0504943e+89 5.4762178e+89)
(-3.7492005e+90 3.5514974e+89 -4.2894174e+89)
(-3.9643954e+90 2.6187387e+88 -5.0792213e+89)
(-3.6241233e+90 1.0579543e+89 -7.8384033e+87)
(-3.5942466e+90 1.6710891e+89 5.4951764e+87)
(-3.3923437e+90 1.9156145e+89 6.2440828e+88)
(-3.4447451e+90 1.5894224e+89 4.6877398e+88)
(-5.5289384e+90 -2.3953105e+89 -1.7118828e+89)
(-3.5343586e+90 3.9643357e+88 4.4886952e+89)
(-3.5689385e+90 2.9282241e+89 -4.7831851e+89)
(-3.7995186e+90 4.5406156e+88 -5.3166183e+89)
(-3.5453161e+90 2.5960313e+89 4.2588899e+89)
(-3.514337e+90 1.3534808e+89 -8.1034156e+88)
(-3.6148982e+90 1.0754469e+89 4.1759716e+88)
(-3.69822e+90 1.2832292e+89 1.7578123e+88)
(-3.7189539e+90 1.0413992e+89 -8.2969262e+88)
(-2.4191012e+90 1.447406e+89 7.8193778e+87)
(-4.0652855e+90 -5.9583358e+88 4.3174996e+88)
(-3.8093574e+90 4.0053127e+88 1.1509475e+88)
(-2.9131703e+90 1.5765381e+89 -4.3590232e+87)
(-3.8058674e+90 -8.0456915e+88 4.6439853e+89)
(-5.6724638e+90 -1.9788009e+89 -1.0264729e+89)
(-3.7122307e+90 -4.6593841e+88 -5.4329572e+89)
(-3.6806352e+90 1.9834009e+89 -5.0041141e+89)
(-3.5881619e+90 1.6060919e+89 4.6033243e+89)
(-3.7086033e+90 7.7105406e+88 -1.060044e+89)
(-3.8233155e+90 9.3691782e+87 -4.2536998e+88)
(-3.7482386e+90 7.6044883e+88 -4.486406e+88)
(-3.8187312e+90 -1.5607882e+87 -1.0558179e+89)
(-3.8219537e+90 8.020556e+88 -3.8911464e+88)
(-4.3146084e+90 -1.5042808e+88 -5.1961416e+88)
(-4.0421404e+90 5.1727398e+88 -3.753731e+88)
(-3.6803456e+90 3.8590322e+88 -3.9497151e+88)
(-3.004658e+90 1.6099353e+89 -1.2895269e+88)
(-2.3760951e+90 1.7493261e+89 -2.185841e+88)
(-3.3316071e+90 5.4208018e+88 -2.2998882e+88)
(-3.4212479e+90 4.374994e+88 -2.9022944e+88)
(-5.6846493e+90 -1.9922208e+89 -8.3104987e+88)
(-3.4806836e+90 -1.9430345e+89 5.0776844e+89)
(-3.6537426e+90 5.6415275e+89 -2.067487e+89)
(-3.6495558e+90 -5.2534138e+89 8.3658727e+88)
(-3.6361111e+90 -5.7644644e+89 -1.9164228e+89)
(-3.613324e+90 5.58057e+89 -1.2141372e+88)
(-3.5733887e+90 8.5289102e+87 5.0076373e+89)
(-3.7522935e+90 -1.4869994e+89 -6.2056e+89)
(-3.4502689e+90 1.3926547e+89 -5.5575254e+89)
(-3.4656945e+90 1.5373622e+88 -1.0614717e+89)
(-3.4401948e+90 1.8288498e+88 -2.1918124e+88)
(-3.6860343e+90 -2.2176225e+88 -4.8023779e+88)
(-4.1033779e+90 1.8357341e+87 -4.2905894e+88)
(-3.7314985e+90 -4.3379319e+88 -7.0357914e+88)
(-3.9049013e+90 -6.9299257e+88 -6.6087928e+88)
(-3.7344528e+90 -1.0253069e+89 -8.8009282e+88)
(-3.689201e+90 -1.1805407e+89 -1.1021971e+89)
(-3.7724455e+90 -1.5963727e+88 -1.0069299e+89)
(-4.1146486e+90 -7.5810962e+88 -1.1295193e+89)
(-3.2048621e+90 -2.7472038e+88 1.1544695e+87)
(-4.0153174e+90 -1.3617441e+88 -6.6852585e+88)
(-4.0459944e+90 -1.1894274e+89 -7.1491713e+88)
(-4.3836877e+90 -3.9295076e+88 -1.1919936e+89)
(-4.0496685e+90 -7.8397233e+86 -1.067122e+89)
(-4.2577117e+90 -5.3907656e+88 -1.0577726e+89)
(-5.2167352e+90 -4.598723e+88 -9.5979347e+88)
(-4.0792904e+90 -4.0897649e+88 -5.4845979e+88)
(-2.782028e+90 1.2324279e+89 -3.916338e+88)
(-3.1002937e+90 5.4123289e+88 -3.3217727e+88)
(-3.8985046e+90 -1.7196877e+88 -5.5150846e+88)
(-4.7494208e+90 -2.5316648e+88 -5.6941668e+88)
(-3.8866216e+90 -1.2673654e+89 -1.8097113e+89)
(-4.8077698e+90 -9.2520729e+88 -1.5645556e+89)
(-4.0991268e+90 -5.3369479e+88 -1.4128474e+88)
(-4.4037149e+90 -9.4163386e+88 -7.9155713e+88)
(-3.5251261e+90 -3.8846965e+88 1.1222192e+88)
(-3.8408422e+90 -1.2769113e+88 -4.1485471e+88)
(-3.9885758e+90 -3.7376718e+88 -2.1208969e+89)
(-9.3548715e+90 2.0751459e+87 -3.5424654e+89)
(-4.6927534e+90 -2.0333492e+88 3.4922764e+88)
(-6.0805197e+90 -1.8843653e+89 -1.6109333e+89)
(-3.0520158e+90 1.1807043e+89 -2.4938016e+88)
(-3.1476541e+90 1.4140294e+89 -2.8016854e+88)
(-3.4949528e+90 8.514057e+88 -3.5815932e+88)
(-3.379947e+90 1.4588745e+88 -2.1843938e+88)
(-4.0281594e+90 -5.698623e+88 -1.2832559e+89)
(-4.2439279e+90 -2.6997734e+88 -1.3928455e+89)
(-3.5275032e+90 -2.7969406e+87 -9.3515645e+88)
(-2.7951328e+90 -3.8319181e+88 -1.1152431e+89)
(-3.660627e+90 -4.0667358e+88 -5.6525422e+88)
(-2.9867623e+90 -2.4644976e+88 -4.9243508e+88)
(-3.6185513e+90 -7.1228432e+88 -3.0873211e+88)
(-2.9866457e+90 -6.4308103e+88 -2.9570863e+88)
(-3.6216936e+90 -5.7848145e+88 -1.8569469e+88)
(-3.3939669e+90 -3.6675152e+88 -3.4843932e+88)
(-5.7313949e+90 -5.1559599e+89 2.1111115e+88)
(-3.6259667e+90 4.0605683e+89 5.2092556e+89)
(-3.6379463e+90 4.4900561e+88 -6.1031983e+89)
(-5.7893107e+90 -2.6582136e+89 6.3190591e+88)
(-3.3678105e+90 3.6201785e+89 -6.3616001e+89)
(-3.5889323e+90 1.2080932e+89 5.6686829e+89)
(-3.6326076e+90 1.2072137e+89 1.7237905e+88)
(-3.5389342e+90 -1.4342304e+89 -5.7421046e+89)
(-5.8686256e+90 -2.4225324e+89 7.8499703e+88)
(-3.288318e+90 8.6465873e+88 -6.0704947e+89)
(-3.7380667e+90 -8.2466169e+88 7.2069045e+89)
(-3.4816582e+90 2.5008604e+89 6.1012827e+89)
(-3.7033436e+90 -6.4683353e+89 1.4883951e+89)
(-3.3747832e+90 6.4082749e+89 -2.746546e+88)
(-3.2914131e+90 7.1321927e+89 2.2134583e+89)
(-3.549886e+90 -5.7939195e+89 -1.6157393e+89)
(-3.6582037e+90 1.0216319e+89 9.9003127e+88)
(-3.3737657e+90 7.0228833e+88 4.176937e+88)
(-3.3387458e+90 2.9940223e+88 1.5026818e+88)
(-3.2076319e+90 1.1476743e+89 -1.4571991e+88)
(-3.6728802e+90 1.4611572e+89 -5.9632787e+87)
(-3.3402367e+90 -6.3399877e+88 -4.7571583e+88)
(-3.7607213e+90 1.7434945e+88 1.4746557e+88)
(-3.670801e+90 8.2366461e+88 -5.7401379e+88)
(-3.4043275e+90 3.1302419e+88 -8.156822e+88)
(-5.4185914e+90 -5.0914372e+89 -1.398589e+88)
(-5.6842029e+90 -2.5680529e+89 -3.5943307e+88)
(-4.0294257e+90 -1.9078018e+88 -6.5586816e+87)
(-4.0005568e+90 -1.0949535e+89 2.8566674e+88)
(-3.9275809e+90 -5.3363831e+89 1.291485e+89)
(-5.8519902e+90 -1.952052e+89 -3.8697935e+88)
(-3.7406872e+90 5.3328454e+89 -1.2023687e+89)
(-3.883902e+90 5.4881929e+89 1.3778598e+89)
(-3.9582365e+90 -5.1887087e+89 -1.1154619e+89)
(-3.9339085e+90 -1.2352577e+89 3.2606675e+87)
(-3.9971573e+90 -3.1555219e+88 -2.4994099e+88)
(-4.3701659e+90 -1.0086667e+88 -7.6383705e+88)
(-3.6189819e+90 -8.1422675e+87 -2.5263909e+88)
(-3.8736478e+90 -9.0866778e+87 -2.6959518e+88)
(-5.0619424e+90 2.161822e+88 -9.0010273e+88)
(-5.3036468e+90 -5.0004305e+89 -4.5743356e+89)
(-5.4618477e+90 -2.6268816e+89 -1.2171723e+89)
(-5.6432418e+90 -1.9021548e+89 -4.9600475e+88)
(-3.7931577e+90 4.793508e+89 -1.3651468e+89)
(-5.7397325e+90 -1.8147042e+89 -3.4236882e+88)
(-3.6737844e+90 5.1601752e+89 1.0046816e+89)
(-3.6895135e+90 -4.7818713e+89 -1.339918e+89)
(-3.8827368e+90 -4.9404102e+89 8.9295033e+88)
(-3.8281902e+90 -1.1088162e+89 -3.2525837e+88)
(-3.903822e+90 -3.9482362e+88 -5.7884143e+88)
(-3.6006122e+90 -9.9611304e+88 -7.5091708e+88)
(-3.6881822e+90 -1.932216e+88 -7.3832664e+88)
(-2.989688e+90 -1.9683282e+88 -4.4668249e+88)
(-3.482618e+90 -3.4082682e+88 -7.4901323e+88)
(-4.2716774e+90 -4.9441982e+88 -1.2042113e+89)
(-3.1384611e+90 -4.3229979e+88 -6.5296697e+88)
(-3.3065141e+90 -3.2288569e+88 -1.133142e+89)
(-3.3262559e+90 -1.3700461e+88 -1.4239713e+89)
(-2.6769731e+90 -1.1088841e+88 -1.4445822e+89)
(-3.856121e+90 -2.5015847e+88 -1.8964638e+89)
(-6.8865659e+90 1.0595501e+89 6.7769685e+88)
(-6.0761177e+90 3.8098817e+88 -7.6797594e+89)
(-3.9308638e+90 8.9646775e+88 8.6799277e+89)
(-3.8171976e+90 4.424104e+89 8.5242597e+89)
(-3.545828e+90 1.6356737e+89 -4.6037349e+89)
(-3.303377e+90 5.0731015e+89 -4.0623123e+89)
(-5.2045257e+90 -8.0378425e+87 -4.9931204e+89)
(-3.6597815e+90 1.2678132e+89 5.4176782e+89)
(-3.8853333e+90 3.5646771e+89 -3.8932393e+89)
(-4.0916759e+90 7.3492316e+88 -4.7003982e+89)
(-3.6718118e+90 3.5398352e+89 4.9796601e+89)
(-3.5358749e+90 2.0693013e+89 2.8380333e+88)
(-3.4462442e+90 2.3221481e+89 5.1520658e+88)
(-3.6132152e+90 1.9792662e+89 -4.075895e+88)
(-3.7811837e+90 1.5015359e+89 -2.1330342e+88)
(-5.2466057e+90 -1.7824e+89 -1.9992551e+89)
(-3.6019325e+90 9.4149813e+88 3.9603168e+89)
(-3.6751428e+90 3.2576509e+89 -4.9053389e+89)
(-3.8901759e+90 3.9270863e+88 -5.5496563e+89)
(-3.560109e+90 2.5788823e+89 3.6042788e+89)
(-3.7524048e+90 7.7306783e+88 -1.1218161e+89)
(-3.5619307e+90 1.4916114e+89 -1.0898499e+89)
(-3.6669038e+90 1.349525e+89 4.4436859e+88)
(-3.7649468e+90 7.4411718e+88 2.838411e+88)
(-4.4234497e+90 -1.2922174e+89 3.3386168e+88)
(-4.4484507e+90 -9.8312721e+88 4.181839e+88)
(-1.994965e+90 2.0114914e+89 8.8433424e+87)
(-2.4907644e+90 1.066977e+89 1.1133868e+88)
(-5.5013204e+90 -2.2749878e+89 -9.924065e+88)
(-3.6248361e+90 -1.9749627e+88 4.2893756e+89)
(-3.4878e+90 2.3830683e+89 -4.8433191e+89)
(-3.5792297e+90 2.3846332e+88 -5.2478198e+89)
(-3.5397925e+90 1.9556371e+89 4.1178778e+89)
(-3.5111497e+90 1.0724566e+89 -1.1833516e+89)
(-3.6162982e+90 1.0155309e+89 -5.0823827e+88)
(-3.7963479e+90 8.9085695e+88 -4.3781961e+88)
(-3.6479423e+90 8.0997395e+88 -1.1653105e+89)
(-3.8907512e+90 6.4841874e+88 -3.435884e+88)
(-4.2426263e+90 -3.4215044e+88 -5.888617e+86)
(-3.965035e+90 5.2456183e+88 -1.1327725e+88)
(-3.924877e+90 6.4329277e+88 -2.820303e+88)
(-2.4016517e+90 1.8913343e+89 -2.895258e+88)
(-2.9128943e+90 1.0971217e+89 -1.5908925e+88)
(-3.095245e+90 1.4713563e+89 -1.9973717e+88)
(-2.8428617e+90 2.0829729e+89 -2.6242731e+88)
(-3.8932302e+90 -1.1223166e+88 -1.0218072e+89)
(-3.6860708e+90 1.3893648e+89 -4.9423581e+89)
(-5.6378775e+90 -1.784567e+89 -7.1826036e+88)
(-3.6211503e+90 -5.1912083e+88 -5.0281676e+89)
(-3.7480387e+90 -1.0600964e+89 4.329043e+89)
(-3.6673388e+90 1.3727337e+89 4.7017175e+89)
(-3.7407759e+90 -1.2275478e+87 -2.6027713e+88)
(-3.8734341e+90 1.8419176e+88 -3.6525085e+88)
(-3.645545e+90 -3.7141018e+87 -1.008796e+89)
(-3.3324177e+90 1.150237e+89 -3.485504e+88)
(-3.2251919e+90 7.1810281e+88 -4.0225171e+88)
(-3.2792713e+90 1.2896458e+89 -4.2131273e+88)
(-3.2881717e+90 4.9846493e+88 -3.0262471e+88)
(-3.3332107e+90 1.0972138e+89 -1.9570026e+88)
(-3.2488601e+90 6.6871351e+88 -2.7704308e+88)
(-3.2753142e+90 1.2578433e+89 -1.7861371e+88)
(-3.3170244e+90 5.6111547e+88 -2.3353688e+88)
(-5.6133688e+90 -1.5657708e+89 -6.9335e+88)
(-3.7206827e+90 4.7408787e+89 -1.9604592e+89)
(-3.5370291e+90 -1.6605352e+89 4.9170701e+89)
(-3.4971841e+90 9.0879076e+88 -5.1398406e+89)
(-3.6205592e+90 -1.5324113e+89 -5.7597606e+89)
(-3.6381314e+90 2.4647346e+88 5.1018109e+89)
(-3.7057935e+90 4.8202582e+89 4.7551216e+88)
(-3.7338383e+90 -5.5297642e+89 -1.6241156e+89)
(-3.7143026e+90 -5.0677599e+89 8.4651492e+88)
(-3.5078305e+90 -8.3168665e+88 -1.0144337e+89)
(-3.7442492e+90 -1.1090918e+89 -7.1862467e+88)
(-3.8426375e+90 -4.034335e+88 -9.4773053e+88)
(-3.7467352e+90 -4.6293485e+88 -1.1450893e+89)
(-3.9583478e+90 -2.964446e+88 -5.1841811e+88)
(-3.7426464e+90 -8.3226109e+88 -1.2747146e+89)
(-3.7583005e+90 -8.4503653e+88 -1.2435572e+89)
(-3.7145002e+90 -1.1747634e+89 -7.4891963e+88)
(-3.8296759e+90 -9.2334927e+88 -2.5198962e+88)
(-3.4787566e+90 -3.9096681e+88 -2.5491625e+88)
(-3.1797444e+90 3.723183e+88 -3.6486684e+88)
(-3.1808993e+90 3.535797e+88 -4.2362017e+88)
(-3.0695632e+90 1.9540676e+88 -4.6839909e+88)
(-3.9408932e+90 4.5997425e+87 -6.808109e+87)
(-3.9112122e+90 -2.1529238e+88 -2.6945674e+88)
(-3.8413065e+90 -2.4359921e+88 -6.5742273e+88)
(-2.9952714e+90 7.2682836e+87 -2.8381557e+88)
(-3.8229284e+90 -7.7667759e+88 -1.2124733e+88)
(-3.3491799e+90 -3.146208e+88 -7.472709e+88)
(-3.4242221e+90 -3.0179564e+88 -1.0150475e+89)
(-3.8521534e+90 -3.2160841e+88 -1.034453e+89)
(-3.7289916e+90 -3.5749967e+88 -9.969546e+88)
(-2.9713782e+90 -4.4942502e+88 9.370139e+87)
(-2.9252631e+90 -3.2555885e+88 -3.4626543e+88)
(-3.7558711e+90 -1.2038047e+88 8.7519258e+87)
(-3.4653484e+90 -3.3516717e+88 -5.8176131e+88)
(-3.3541684e+90 -2.4948739e+88 -9.0259397e+88)
(-2.8048228e+90 5.8142054e+88 -3.780539e+88)
(-3.9193066e+90 -1.0079454e+89 -9.8975777e+88)
(-4.468364e+90 -6.2877399e+88 -1.1928836e+89)
(-3.3794292e+90 -4.0971165e+88 -4.0136433e+88)
(-3.5407053e+90 -8.156117e+87 -6.8136407e+88)
(-3.0462119e+90 1.065685e+89 -3.3877501e+88)
(-2.9998262e+90 6.4132354e+88 -3.4006946e+88)
(-3.1920878e+90 2.0283476e+88 -2.8888747e+88)
(-3.3007502e+90 5.8850456e+88 -3.5255797e+88)
(-3.0288952e+90 -2.569331e+88 -1.0049504e+89)
(-3.8434675e+90 -3.3071962e+88 -1.0872034e+89)
(-4.0030368e+90 -1.9711002e+87 -1.6693162e+88)
(-1.9583455e+90 -4.823099e+88 -7.2622654e+88)
(-2.7720628e+90 -4.4623429e+88 -4.086527e+88)
(-2.8028444e+90 -2.8650121e+88 -4.5384704e+88)
(-3.4475471e+90 -1.594304e+88 -3.1683408e+88)
(-3.3988199e+90 -2.9679379e+88 -1.1947575e+88)
(-3.1916862e+90 -5.0684423e+88 -3.0316053e+88)
(-3.2254041e+90 -3.5529241e+88 -4.2796637e+88)
(-5.7217957e+90 -4.9747159e+89 7.1151308e+89)
(-5.5571482e+90 -4.7890224e+89 1.36753e+89)
(-3.3902727e+90 3.7668772e+89 -5.5221562e+89)
(-3.541485e+90 -5.060881e+88 -5.3254128e+89)
(-4.0050613e+90 2.9621373e+89 4.1928285e+89)
(-3.8822911e+90 1.1058149e+89 5.0182053e+89)
(-3.7621428e+90 1.6016154e+89 -1.6438151e+88)
(-3.8523753e+90 1.0128658e+89 7.9244251e+88)
(-3.6327113e+90 2.3613148e+89 5.1253211e+89)
(-3.7207829e+90 -9.406405e+88 -5.1038141e+89)
(-5.7257882e+90 -2.8022544e+89 7.0551121e+88)
(-3.4683236e+90 1.9238001e+89 -4.9307998e+89)
(-3.6470803e+90 1.850254e+88 5.5573289e+89)
(-3.6099753e+90 1.3619948e+89 9.0307593e+88)
(-3.6069571e+90 1.7132151e+89 1.187151e+88)
(-2.703095e+90 1.8003511e+89 5.291592e+88)
(-3.7717403e+90 -2.5990895e+88 1.0368291e+89)
(-3.582408e+90 1.5525251e+89 5.9916452e+89)
(-5.7657534e+90 -1.7835301e+89 2.7412567e+88)
(-3.5495615e+90 -1.8873849e+89 -5.2922595e+89)
(-3.609439e+90 -1.1581245e+89 6.8378589e+89)
(-3.3764622e+90 8.6160911e+88 -5.8044766e+89)
(-3.6324458e+90 -6.6391714e+89 1.8083174e+89)
(-3.484366e+90 6.0856028e+89 -4.3288594e+88)
(-3.5230204e+90 6.1611318e+89 1.816826e+89)
(-3.6054601e+90 -5.843314e+89 -1.3859761e+89)
(-3.6065448e+90 -6.6715117e+88 9.6616217e+88)
(-3.5911142e+90 -7.7748258e+88 7.7716331e+88)
(-3.6301208e+90 -2.0110457e+88 3.8973582e+88)
(-3.9384716e+90 -2.2294015e+87 1.0158111e+87)
(-3.7043954e+90 2.7016531e+88 5.4874585e+87)
(-4.0005936e+90 -3.3511194e+88 8.9001548e+88)
(-3.7661209e+90 -1.3105059e+89 1.1903956e+89)
(-3.6046483e+90 -1.2200985e+89 7.9621816e+88)
(-3.5582864e+90 1.4691148e+88 3.0822409e+88)
(-2.6628373e+90 1.6747927e+89 2.8591205e+88)
(-3.5194836e+90 -5.6816375e+88 1.2221939e+89)
(-4.5785047e+90 -3.5047169e+88 4.7093649e+88)
(-3.7489639e+90 -9.8022663e+88 1.1009482e+89)
(-3.2676448e+90 -6.1849032e+87 1.9542489e+87)
(-2.6229978e+90 1.235455e+89 7.0402504e+87)
(-3.7109394e+90 1.376469e+89 1.546179e+89)
(-2.7856485e+90 3.3931377e+87 -5.6031893e+88)
(-4.9759332e+90 1.3340895e+88 5.7842317e+88)
(-2.1591414e+90 4.1812694e+88 -6.7181943e+88)
(-2.6715122e+90 1.0572843e+88 -8.5065959e+88)
(-5.1913212e+90 -6.0171486e+89 -5.1073783e+86)
(-5.4332195e+90 -3.0433579e+89 -4.5010641e+88)
(-5.6505915e+90 -1.9877602e+89 -4.1442882e+88)
(-3.6619469e+90 -2.7531249e+88 -5.325557e+87)
(-3.7755124e+90 -3.0998848e+88 3.0233839e+88)
(-4.0900793e+90 -4.6724137e+88 3.9490263e+88)
(-5.7630082e+90 -1.6826878e+89 -4.1651642e+88)
(-3.794628e+90 -4.8214244e+89 8.6808021e+88)
(-3.794278e+90 5.3429391e+89 -1.5112802e+89)
(-3.9089213e+90 -5.0136272e+89 -1.3033403e+89)
(-3.932385e+90 4.860422e+89 6.2367822e+88)
(-3.8671602e+90 -1.2572169e+89 1.0790279e+88)
(-4.1403285e+90 -1.2064636e+89 2.2221055e+88)
(-4.1993638e+90 -4.9268107e+88 2.7494156e+88)
(-3.6673146e+90 -3.7212096e+88 4.2370517e+87)
(-4.135894e+90 -3.8956618e+88 -3.1663813e+88)
(-3.5527504e+90 -1.5456535e+88 -5.8011347e+88)
(-3.7504614e+90 -2.2427079e+88 -2.8025876e+88)
(-3.5308724e+90 -1.4936528e+88 -2.4519517e+88)
(-2.9029295e+90 -4.8354563e+87 -4.0889106e+88)
(-4.8743498e+90 -1.1997379e+89 -5.5053986e+89)
(-5.1844126e+90 -2.4453997e+89 -1.603577e+89)
(-5.456171e+90 -2.0213786e+89 -5.2562433e+88)
(-5.6111014e+90 -1.5814e+89 -2.2482399e+88)
(-3.8027842e+90 -1.2124158e+89 -2.6679739e+88)
(-3.7178098e+90 -4.7867438e+89 9.1947134e+88)
(-5.6818813e+90 -1.3989748e+89 -1.7995519e+88)
(-3.7575483e+90 4.5884913e+89 -1.2344549e+89)
(-3.7850663e+90 4.7483824e+89 6.3592841e+88)
(-3.7006879e+90 -4.5550786e+89 -1.1669118e+89)
(-3.6373814e+90 -1.0408721e+89 -2.1011743e+88)
(-3.7065021e+90 -3.4517723e+88 -5.3429256e+88)
(-4.0106473e+90 -4.5799381e+88 -3.1217685e+88)
(-3.3907198e+90 -2.8294382e+88 -2.9327857e+88)
(-3.392249e+90 -3.4827332e+88 -5.1517039e+88)
(-3.2891576e+90 -2.7372103e+88 -6.94137e+88)
(-3.2016254e+90 -2.9198004e+88 -6.2353097e+88)
(-3.1524454e+90 -3.4139125e+88 -4.8621868e+88)
(-3.3313441e+90 -3.2534944e+88 -7.7548263e+88)
(-3.379414e+90 -2.9644287e+88 -1.1091681e+89)
(-3.1493819e+90 -3.2113873e+88 -7.0368251e+88)
(-6.9052371e+90 1.5189114e+89 6.3987627e+88)
(-6.1347492e+90 9.8729633e+88 -7.5793275e+89)
(-4.0132176e+90 1.6396235e+89 8.0149904e+89)
(-3.3278058e+90 5.5782869e+89 -4.4103442e+89)
(-3.512678e+90 2.7208048e+89 -4.8346388e+89)
(-3.8644777e+90 5.1288296e+89 8.0001361e+89)
(-5.2786809e+90 3.6861897e+88 -4.842938e+89)
(-3.6417366e+90 3.5968988e+89 4.8880799e+89)
(-3.7312871e+90 1.5551732e+89 5.3384518e+89)
(-3.84674e+90 4.0046903e+89 -3.6342466e+89)
(-4.0808455e+90 8.0957487e+88 -4.5129739e+89)
(-3.5334926e+90 2.9080413e+89 -6.507548e+88)
(-3.557002e+90 2.2844191e+89 -3.0752047e+88)
(-3.3400789e+90 3.0929493e+89 5.7811542e+88)
(-3.3360398e+90 3.7826588e+89 -1.5309904e+88)
(-5.0630726e+90 -6.6843177e+88 -2.392927e+89)
(-3.6698607e+90 1.2537963e+89 3.7187491e+89)
(-4.0211985e+90 8.8025318e+88 -5.200777e+89)
(-3.817247e+90 3.3853412e+89 -4.5837273e+89)
(-3.6242519e+90 3.1422656e+89 3.3736062e+89)
(-3.6125705e+90 1.7721474e+89 -1.2465797e+89)
(-3.7620958e+90 1.4101006e+89 2.0684725e+88)
(-3.8257954e+90 1.2864094e+89 4.2539265e+88)
(-3.7724987e+90 1.2763628e+89 -1.151164e+89)
(-2.5446582e+90 2.0149291e+89 -5.7622095e+87)
(-4.8463771e+90 -4.1065227e+88 1.516349e+88)
(-3.7781027e+90 1.4747304e+89 1.3374366e+88)
(-3.5296347e+90 9.1421202e+88 2.8363069e+88)
(-5.3092561e+90 -1.8734201e+89 -1.0762069e+89)
(-3.7162741e+90 3.2791526e+88 3.943817e+89)
(-3.5466374e+90 2.8741171e+89 -4.7020531e+89)
(-3.6135215e+90 4.2863981e+88 -5.1658681e+89)
(-3.5680455e+90 2.2479841e+89 3.697517e+89)
(-3.5363885e+90 1.2662949e+89 -1.2504678e+89)
(-3.6449012e+90 1.0767991e+89 -7.1445455e+88)
(-3.7655568e+90 7.7607083e+88 -6.2679958e+88)
(-3.5857364e+90 7.150976e+88 -1.2927922e+89)
(-4.0368483e+90 2.0197851e+88 -3.3593039e+88)
(-3.9173293e+90 8.0279048e+88 -3.1911157e+88)
(-4.1506579e+90 4.5070008e+87 9.1001697e+87)
(-4.0654127e+90 -2.4436359e+88 -6.3610311e+87)
(-2.9464274e+90 8.2999085e+88 -1.8695618e+88)
(-2.5770906e+90 1.6695688e+89 -1.9266958e+88)
(-2.116772e+90 2.2748997e+89 -3.9378325e+88)
(-2.5487788e+90 1.4282641e+89 -3.3854927e+88)
(-5.5168914e+90 -1.9446789e+89 -7.1742886e+88)
(-3.7084034e+90 -5.5046218e+88 4.3274846e+89)
(-3.6040062e+90 1.2641317e+89 4.2364798e+89)
(-3.5414892e+90 -5.2000605e+88 -4.7860877e+89)
(-3.4950282e+90 1.8135404e+89 -4.4595725e+89)
(-3.5343781e+90 5.2481901e+88 -9.6997669e+88)
(-3.5343318e+90 6.6081567e+88 -4.8656426e+88)
(-3.5306545e+90 8.6219878e+88 -4.3572862e+88)
(-3.4998378e+90 3.6200321e+88 -9.8896495e+88)
(-3.2425825e+90 1.4644436e+89 -3.9926237e+88)
(-3.5103938e+90 1.1883917e+89 -4.6558231e+88)
(-3.5867758e+90 1.1177812e+89 -3.9087429e+88)
(-3.4131887e+90 1.1663671e+89 -3.3589174e+88)
(-3.3885775e+90 1.1594785e+89 -2.3171625e+88)
(-3.383567e+90 8.1851812e+88 -1.5128511e+88)
(-3.2388513e+90 1.3741074e+89 -2.1123065e+88)
(-3.3932966e+90 1.1984518e+89 -2.1892568e+88)
(-3.523716e+90 2.9424743e+88 -3.3714222e+88)
(-3.8249895e+90 -2.0289936e+88 -3.6077998e+88)
(-5.6138965e+90 -1.5419506e+89 -6.5506741e+88)
(-3.5685642e+90 1.1408174e+89 -4.5707145e+89)
(-3.6704687e+90 -1.1323766e+89 4.3865384e+89)
(-3.8388721e+90 9.2197601e+88 4.3583681e+89)
(-3.7668164e+90 -8.5150485e+88 -4.6873454e+89)
(-3.6233911e+90 1.6741116e+88 -2.5066885e+88)
(-3.686921e+90 -2.5650903e+88 -1.0121944e+89)
(-3.6942343e+90 -2.9060061e+87 -9.1735813e+88)
(-3.3446967e+90 3.5875805e+88 -3.7759403e+88)
(-3.4274293e+90 6.906881e+88 -4.2807831e+88)
(-3.3682763e+90 2.6357432e+88 -3.7215947e+88)
(-3.3922901e+90 1.0137494e+89 -3.1386876e+88)
(-3.3660063e+90 4.877758e+88 -2.6672612e+88)
(-3.3970665e+90 1.01112e+89 -2.526632e+88)
(-3.3989306e+90 3.5450994e+88 -2.9353683e+88)
(-5.556508e+90 -1.4306733e+89 -5.3064649e+88)
(-3.5958334e+90 -1.4914049e+89 4.5758032e+89)
(-3.7167541e+90 5.540078e+88 4.6522137e+89)
(-3.723039e+90 -1.1565185e+89 -5.2266446e+89)