/*--------------------------------*- C++ -*----------------------------------*\
  =========                 |
  \\      /  F ield         | OpenFOAM: The Open Source CFD Toolbox
   \\    /   O peration     | Website:  https://openfoam.org
    \\  /    A nd           | Version:  7
     \\/     M anipulation  |
\*---------------------------------------------------------------------------*/
FoamFile
{
    version     2.0;
    format      ascii;
    class       volVectorField;
    location    "2000";
    object      UMean;
}
// * * * * * * * * * * * * * * * * * * * * * * * * * * * * * * * * * * * * * //

dimensions      [0 1 -1 0 0 0 0];

internalField   nonuniform List<vector> 
34387
(
(-2.9072087e+88 3.2532507e+86 -3.4694404e+86)
(-2.8346133e+88 -5.0619698e+85 -2.9152334e+86)
(-1.8250318e+88 -1.8161762e+86 -1.9304811e+86)
(-2.9141731e+88 -1.8713548e+86 -1.5384046e+86)
(-3.0138282e+88 3.5667594e+86 -1.0690842e+86)
(-2.9042117e+88 7.8946435e+85 -2.9766174e+86)
(-2.0861148e+88 3.7722102e+86 -6.2974083e+85)
(-2.1176818e+88 4.0361901e+86 -2.6488883e+86)
(-2.1447202e+88 2.980924e+86 -2.7225478e+86)
(-2.1317292e+88 2.4612116e+86 4.4420772e+85)
(-2.821098e+88 -1.191673e+86 -2.7137358e+86)
(-2.0104094e+88 3.0547797e+86 1.3657367e+85)
(-2.0597396e+88 1.6638192e+86 -2.0516041e+86)
(-2.0523738e+88 -2.2179603e+85 -2.2603202e+86)
(-1.9912777e+88 3.2367158e+84 -1.5543164e+86)
(-2.0932412e+88 2.2636568e+86 -4.1227755e+86)
(-2.0422311e+88 2.0194106e+86 -1.3896913e+86)
(-2.0220875e+88 2.4388743e+86 1.2617591e+86)
(-2.0176514e+88 1.0363293e+86 -2.3154219e+86)
(-1.8295368e+88 -1.8588129e+86 -2.153604e+86)
(-1.7951714e+88 -1.629514e+86 -1.9990918e+86)
(-1.8045053e+88 -1.7630894e+86 -1.8402212e+86)
(-2.92184e+88 -1.8194057e+86 -7.0181081e+85)
(-2.9943346e+88 -1.3359865e+86 -2.5139596e+86)
(-2.9012708e+88 -1.3604217e+86 -1.0023772e+86)
(-2.1204366e+88 1.5166422e+86 -1.6987563e+86)
(-2.1204955e+88 9.9367953e+85 -1.969238e+86)
(-2.113733e+88 -3.9421354e+85 -1.7171418e+86)
(-2.0969565e+88 4.2659628e+85 -1.7791873e+86)
(-3.117554e+88 1.4571533e+86 -7.7615871e+86)
(-2.9107793e+88 -6.0116839e+85 -2.7438659e+86)
(-2.1607938e+88 1.8826376e+86 -1.1255823e+86)
(-2.1307258e+88 5.6956108e+85 1.8375415e+86)
(-2.1732927e+88 4.550472e+86 3.1289683e+86)
(-2.1568622e+88 4.6044243e+86 1.3358162e+85)
(-2.8830965e+88 -7.0956719e+85 -2.0522671e+86)
(-2.1085498e+88 3.4094508e+86 2.4299938e+85)
(-2.1685364e+88 1.7257548e+86 -1.8220488e+86)
(-2.1451028e+88 3.7155701e+86 -1.501631e+86)
(-2.1521735e+88 1.6549696e+86 9.5297132e+85)
(-1.9485479e+88 4.2104916e+86 -2.1734405e+86)
(-1.945344e+88 4.7527084e+86 -2.9193971e+86)
(-2.0416717e+88 2.6711375e+86 -2.6643778e+86)
(-2.048841e+88 1.3531308e+86 -2.2177557e+86)
(-2.8055461e+88 -2.0534543e+86 -2.6015339e+86)
(-2.0642914e+88 -1.7445824e+85 -1.6058158e+86)
(-2.0581072e+88 1.3915197e+86 -1.3527101e+86)
(-2.0411338e+88 2.53643e+86 -6.4643208e+85)
(-2.036534e+88 1.1474055e+85 -1.2668889e+86)
(-2.0790283e+88 1.5719207e+86 -2.8107442e+86)
(-2.0375349e+88 1.4258122e+86 -1.3908199e+86)
(-2.0382948e+88 1.1126743e+86 4.5549321e+85)
(-2.0684518e+88 6.761282e+85 -2.4900328e+86)
(-1.9447484e+88 -1.5250021e+86 8.8473039e+84)
(-2.0348886e+88 7.6418236e+85 -1.421832e+86)
(-1.9704376e+88 -1.9992149e+86 -1.7850063e+86)
(-1.9890291e+88 -2.0347842e+86 -2.4218182e+86)
(-1.9247708e+88 -2.0610336e+86 -8.0053949e+85)
(-1.9973622e+88 7.2248372e+84 -1.9383335e+86)
(-1.9909512e+88 2.7241585e+86 -2.7560108e+86)
(-1.95826e+88 2.571113e+86 -2.5032426e+86)
(-1.9781406e+88 2.9142586e+86 -2.0812893e+86)
(-1.9464603e+88 2.5353398e+86 -2.4871955e+86)
(-1.9057868e+88 -1.7836681e+86 -2.037223e+86)
(-1.823215e+88 -1.8681142e+86 -2.4389748e+86)
(-1.8141261e+88 -1.7709748e+86 -1.9787898e+86)
(-1.9007114e+88 -1.0128712e+86 -1.9578976e+86)
(-1.7896333e+88 -1.544763e+86 -1.8826076e+86)
(-1.7915899e+88 -1.6741948e+86 -1.75004e+86)
(-2.8336883e+88 -2.1910012e+86 1.2113078e+86)
(-3.0018744e+88 -1.5345237e+86 -8.6450436e+85)
(-2.9068669e+88 -1.514419e+86 -6.2791079e+85)
(-2.1282228e+88 1.4243482e+86 -1.8430867e+84)
(-2.1749083e+88 1.3225494e+86 -3.5741705e+85)
(-2.1555224e+88 -7.9420549e+85 4.8566065e+84)
(-2.1177187e+88 -1.4752856e+85 -4.1739673e+85)
(-3.04313e+88 -1.6859699e+87 -4.9200902e+86)
(-2.9526586e+88 -2.2445282e+86 -1.3275823e+86)
(-2.8868718e+88 -1.7393618e+86 -5.0709864e+85)
(-2.1489685e+88 1.0336888e+86 -9.4092037e+85)
(-2.1535524e+88 1.0163312e+86 -1.8435691e+86)
(-2.1550601e+88 1.7941059e+85 -1.8422491e+86)
(-2.1417486e+88 5.3442542e+85 -1.344321e+86)
(-1.9479754e+88 -1.6166429e+86 -3.5088414e+86)
(-1.9742763e+88 -2.1892509e+86 -2.6171337e+86)
(-1.9613979e+88 -2.5357355e+86 -2.4767259e+86)
(-1.9307574e+88 -1.8752745e+86 -3.287876e+86)
(-3.2397752e+88 2.5763326e+86 -1.0141696e+87)
(-3.0019564e+88 -2.3904588e+86 -1.82614e+87)
(-2.2151173e+88 2.3370926e+86 1.9036053e+86)
(-2.1974703e+88 1.3527213e+86 2.5102605e+85)
(-2.1680632e+88 1.392983e+86 -2.7916091e+86)
(-2.1425348e+88 1.8277938e+86 -1.4456193e+86)
(-2.8666299e+88 -1.9329561e+86 -3.3974273e+86)
(-2.118967e+88 1.7827254e+86 9.5017401e+85)
(-2.1775192e+88 1.3036731e+86 -4.4864881e+84)
(-2.1969625e+88 3.579015e+86 -3.6001993e+85)
(-2.1721361e+88 3.8746313e+86 1.7172259e+86)
(-1.9928825e+88 4.7138663e+86 -3.0201528e+86)
(-1.9802668e+88 3.049172e+86 -2.1725217e+86)
(-2.0630237e+88 4.37884e+86 -2.4029237e+86)
(-2.0490975e+88 6.060129e+86 -2.8322935e+86)
(-2.8711369e+88 -1.8807319e+86 -2.1457968e+86)
(-2.1563583e+88 2.2634811e+86 1.6221617e+85)
(-2.1994003e+88 1.212679e+86 -1.2876003e+86)
(-2.1798884e+88 3.0071381e+86 -9.4988299e+85)
(-2.1763236e+88 1.4124748e+86 6.6231786e+85)
(-1.9795584e+88 3.4775469e+86 -1.8456102e+86)
(-2.0478586e+88 6.4014559e+85 -2.445804e+86)
(-1.9682392e+88 3.7279846e+86 -2.3347651e+86)
(-2.0574459e+88 2.4117958e+85 -2.2001822e+86)
(-1.8205598e+88 4.0500102e+86 -1.7698545e+86)
(-1.8344089e+88 4.3532095e+86 -2.1192184e+86)
(-1.9080641e+88 2.6489165e+86 -1.9227001e+86)
(-1.9118655e+88 1.418574e+86 -1.6063219e+86)
(-2.7960823e+88 -2.6752919e+86 -2.4679471e+86)
(-2.0655508e+88 5.5798621e+85 -1.0589293e+86)
(-2.0938499e+88 7.2309885e+85 -1.9275771e+86)
(-2.0791216e+88 -7.5980599e+85 -1.9380792e+86)
(-2.0449604e+88 -4.2953375e+85 6.7584003e+85)
(-2.0620409e+88 9.3343973e+85 -1.5600309e+86)
(-2.0850492e+88 6.9506829e+85 -1.8096406e+86)
(-2.0768052e+88 1.7365176e+85 -1.7118519e+86)
(-2.0928265e+88 -1.2623173e+86 -2.3529204e+86)
(-1.9541426e+88 -2.154997e+86 -1.3709579e+86)
(-1.943428e+88 -1.4792991e+86 -1.4131207e+86)
(-1.9966289e+88 -1.4000939e+86 -1.807653e+86)
(-2.0630813e+88 2.241646e+85 -2.2115814e+86)
(-1.9698776e+88 -1.6444876e+86 -7.1862848e+85)
(-2.0450893e+88 5.1615603e+85 -1.9413195e+86)
(-1.9311618e+88 1.9271656e+86 -2.9176853e+86)
(-1.9232878e+88 1.4942218e+86 -2.3604989e+86)
(-1.9859751e+88 7.2188167e+85 -2.0358164e+86)
(-1.9890895e+88 1.802499e+86 -2.4166411e+86)
(-1.9601194e+88 -1.2442388e+86 -1.8705503e+86)
(-1.804931e+88 -1.695029e+86 -2.0105771e+85)
(-1.9623852e+88 9.4924511e+85 -1.9746481e+86)
(-1.8312623e+88 -1.7488618e+86 -1.8490415e+86)
(-1.8767062e+88 -1.8789866e+86 -2.6422702e+86)
(-1.9369509e+88 -9.0696293e+85 -2.2686231e+86)
(-1.8122815e+88 -1.9398232e+86 -1.0803667e+86)
(-1.9392254e+88 3.1054694e+85 -1.9033216e+86)
(-1.8491461e+88 2.8262473e+86 -2.0098816e+86)
(-1.8333474e+88 2.8473143e+86 -1.8330556e+86)
(-1.849648e+88 2.7394895e+86 -1.6062819e+86)
(-1.8031922e+88 2.2250935e+86 -1.9119768e+86)
(-1.8837456e+88 -1.827208e+86 -2.7370542e+86)
(-1.8283668e+88 -1.7028843e+86 -2.3651427e+86)
(-1.8824686e+88 -1.6826127e+86 -1.8865726e+86)
(-1.8890425e+88 -1.6570249e+86 -2.4599843e+86)
(-1.8121027e+88 -1.7423163e+86 -2.1736636e+86)
(-1.8049026e+88 -1.6601377e+86 -1.9053521e+86)
(-1.819634e+88 6.4374744e+85 -1.7647459e+86)
(-1.8779047e+88 -9.5187648e+85 -1.8673595e+86)
(-1.7924782e+88 -1.5320894e+86 -1.7700276e+86)
(-1.7764828e+88 -1.6460712e+86 -1.710158e+86)
(-2.9206148e+88 -1.563461e+86 1.0842059e+86)
(-2.0632791e+88 1.1903027e+86 2.4250822e+86)
(-2.8156084e+88 -2.7951071e+86 1.5132923e+86)
(-2.0482094e+88 1.1193882e+86 -5.0857129e+85)
(-2.0062668e+88 7.9623965e+85 -1.7296535e+86)
(-1.9988125e+88 1.3858188e+85 1.6899814e+86)
(-2.0202562e+88 1.0910688e+86 1.3823705e+86)
(-2.0510396e+88 2.1452438e+86 5.2577569e+85)
(-2.035829e+88 -1.5911636e+86 1.5580327e+86)
(-2.0056519e+88 -4.0450984e+85 1.2374462e+86)
(-3.0638381e+88 -1.9216911e+87 -1.775902e+85)
(-2.9481844e+88 -2.7396785e+86 -1.177755e+86)
(-2.205237e+88 -1.0603419e+86 6.3337219e+84)
(-2.1956742e+88 6.9754175e+85 -2.3396519e+85)
(-2.8952684e+88 -2.2277039e+86 -5.4311911e+85)
(-2.1735714e+88 1.4027369e+86 6.3776668e+85)
(-2.1687525e+88 2.6337794e+85 1.2042609e+85)
(-2.0280649e+88 -1.9712828e+86 -7.8978118e+84)
(-2.0960838e+88 -2.0925353e+86 1.028919e+86)
(-2.081005e+88 -2.1226492e+86 9.3866753e+85)
(-2.0020544e+88 -2.2975755e+86 -6.3520721e+85)
(-2.8944706e+88 -8.7124033e+86 -2.8039393e+86)
(-2.9417122e+88 -3.0174523e+86 -9.1693717e+85)
(-2.8771367e+88 -2.3889438e+86 -2.4629568e+85)
(-2.1887227e+88 1.9495481e+85 -9.4457442e+85)
(-2.1921181e+88 -2.2166834e+85 -1.2373036e+86)
(-2.1688292e+88 3.1334378e+85 -4.8423996e+85)
(-2.1721659e+88 2.4012216e+85 -5.6807465e+85)
(-1.9722892e+88 -1.7639431e+86 -2.3650496e+86)
(-2.0155684e+88 -2.1685524e+86 -2.2858671e+86)
(-1.998363e+88 -2.5511624e+86 -2.6528172e+86)
(-1.9682781e+88 -2.1756914e+86 -3.0774431e+86)
(-1.8194776e+88 -1.6631959e+86 -3.5939489e+86)
(-1.8164473e+88 -1.8178848e+86 -2.7117951e+86)
(-1.8398646e+88 -1.9578279e+86 -2.6787547e+86)
(-1.8058495e+88 -1.7464246e+86 -3.4858158e+86)
(-3.3142437e+88 3.87687e+86 -1.2326086e+87)
(-3.0585329e+88 1.1002844e+86 -2.1957644e+87)
(-2.2041124e+88 2.7562725e+86 -2.2747786e+86)
(-2.1871127e+88 3.9636838e+85 -2.8542238e+86)
(-2.2382226e+88 4.6327717e+85 1.8164337e+86)
(-2.2821375e+88 4.4734701e+86 2.7646398e+86)
(-2.8130357e+88 -1.033344e+86 -9.3564749e+86)
(-2.1715546e+88 2.9158016e+86 6.7834426e+85)
(-2.1259747e+88 3.2865549e+86 -7.4943601e+84)
(-2.2196578e+88 2.6957392e+86 -3.709928e+86)
(-2.2162162e+88 1.7939698e+86 -2.962492e+86)
(-2.0375927e+88 3.0767749e+86 -3.1629902e+86)
(-2.016621e+88 5.3130493e+86 -2.9770246e+86)
(-2.0196145e+88 6.0461389e+86 -3.8833312e+86)
(-2.0243044e+88 4.1703921e+86 -3.7884465e+86)
(-2.8495737e+88 -3.113776e+86 -3.2741655e+86)
(-2.1377163e+88 2.2364802e+86 -9.015954e+85)
(-2.195808e+88 2.1502678e+86 -1.0559053e+86)
(-2.2233314e+88 2.8948763e+86 -1.4567734e+86)
(-2.1650692e+88 2.7786145e+86 -1.3510273e+85)
(-1.9758338e+88 3.1717436e+86 -1.9633762e+86)
(-1.9870963e+88 2.5327774e+86 -2.1585248e+86)
(-2.0604685e+88 3.6566444e+86 -2.6433352e+86)
(-2.0635602e+88 3.3547675e+86 -2.6941707e+86)
(-1.9104327e+88 4.6305645e+86 -2.1156295e+86)
(-1.8372469e+88 2.7282769e+86 -1.7216609e+86)
(-1.9021309e+88 4.6251908e+86 -1.4848824e+86)
(-1.9005544e+88 6.1844144e+86 -1.7691211e+86)
(-2.2043474e+88 5.816634e+83 -3.8685044e+85)
(-2.8604205e+88 -2.4315837e+86 -1.9857164e+86)
(-2.2177788e+88 7.9851594e+85 -1.2550858e+86)
(-2.2229352e+88 1.1166656e+86 -1.6116683e+86)
(-2.1760728e+88 8.7163534e+85 3.1776314e+85)
(-2.0317932e+88 2.143563e+86 -2.0245017e+86)
(-2.0629377e+88 3.6242554e+85 -2.6181696e+86)
(-2.0144629e+88 2.9484162e+86 -2.4221121e+86)
(-2.067362e+88 5.7721385e+85 -2.3470811e+86)
(-1.8675657e+88 3.9502521e+86 -1.6864295e+86)
(-1.9144969e+88 9.5248266e+85 -1.7624321e+86)
(-1.8383206e+88 4.1626292e+86 -1.8376203e+86)
(-1.9271391e+88 7.0978637e+85 -1.6269304e+86)
(-1.7831579e+88 4.6593583e+86 -1.7451775e+86)
(-1.7844899e+88 5.0755307e+86 -1.7899354e+86)
(-1.869017e+88 3.0428588e+86 -1.6499279e+86)
(-1.8658485e+88 1.8446086e+86 -1.5930371e+86)
(-2.7921939e+88 -3.1445804e+86 -2.1569209e+86)
(-2.101121e+88 -1.4908678e+86 -6.3827884e+85)
(-2.1244791e+88 -2.3428978e+85 -1.8759144e+86)
(-2.1129942e+88 -1.0683431e+86 -1.7986159e+86)
(-2.1002762e+88 -1.8373871e+86 -2.8453957e+86)
(-2.0706611e+88 1.558797e+85 -2.0640772e+86)
(-2.0773954e+88 -1.7019365e+86 1.7697074e+85)
(-2.1165687e+88 -2.306498e+86 -2.13683e+86)
(-2.1112146e+88 -7.8187824e+85 -1.4371434e+86)
(-1.9433346e+88 7.3661874e+85 -2.1836046e+86)
(-1.9408906e+88 1.2207937e+86 -2.793182e+86)
(-1.9777657e+88 -2.3335232e+85 -2.3245744e+86)
(-2.0835376e+88 -1.0792216e+86 -2.4038215e+86)
(-2.0006837e+88 -9.1440841e+85 -1.9031814e+86)
(-2.0689228e+88 -1.7108248e+86 -1.9897907e+86)
(-2.0172513e+88 -1.9882213e+86 -2.9492097e+86)
(-1.9883091e+88 -1.9118376e+86 -2.4246349e+86)
(-1.9711817e+88 -1.9973858e+86 -2.0959898e+86)
(-2.034575e+88 -2.0951585e+86 -2.8799271e+86)
(-1.8084437e+88 -2.0114527e+86 -1.2298182e+86)
(-1.7871451e+88 -1.8067782e+86 -1.1978665e+86)
(-2.0151886e+88 -1.4962731e+86 -2.7506876e+86)
(-1.8750807e+88 -1.6187947e+86 -1.8209869e+86)
(-2.0119305e+88 3.5965093e+85 -2.3581052e+86)
(-1.9967232e+88 -1.0901695e+86 -2.4886014e+86)
(-1.8284285e+88 -1.7041197e+86 -8.7913247e+85)
(-1.9892981e+88 7.2784836e+85 -1.9062906e+86)
(-1.8057822e+88 2.2947069e+86 -2.1802685e+86)
(-1.7749981e+88 1.958381e+86 -2.0005356e+86)
(-1.8762522e+88 9.2971027e+85 -1.6835967e+86)
(-1.859344e+88 1.8947145e+86 -1.7536843e+86)
(-1.9316095e+88 -9.164208e+85 -1.8275566e+86)
(-1.9083412e+88 -1.7917547e+86 -2.6553578e+86)
(-1.7635778e+88 -1.7532962e+86 1.1516621e+85)
(-1.8744515e+88 4.97363e+85 -2.0225708e+86)
(-1.7805856e+88 -1.7954498e+86 -1.6168067e+86)
(-1.7986848e+88 -1.6983296e+86 -2.412064e+86)
(-1.9091092e+88 -7.7242707e+85 -1.7965204e+86)
(-1.8677569e+88 -1.7471122e+86 -3.2249681e+86)
(-1.7716558e+88 -1.694395e+86 -8.055657e+85)
(-1.8476516e+88 -4.6688061e+85 -2.20942e+86)
(-1.8008091e+88 3.0603554e+86 -1.830212e+86)
(-1.7795043e+88 3.0456149e+86 -1.8347575e+86)
(-1.7950132e+88 3.1819019e+86 -1.6846822e+86)
(-1.7731632e+88 2.5466316e+86 -1.687675e+86)
(-1.9393065e+88 -1.8411741e+86 -2.4630015e+86)
(-1.8392863e+88 -1.6722865e+86 -1.9650845e+86)
(-1.8525602e+88 -1.5341202e+86 -2.0780274e+86)
(-1.9170085e+88 -1.4909441e+86 -2.3392423e+86)
(-1.8438951e+88 -1.7253287e+86 -2.0849933e+86)
(-1.7723473e+88 -1.5937262e+86 -1.8994385e+86)
(-1.8260116e+88 1.2786121e+86 -1.7898108e+86)
(-1.8476128e+88 -1.0484544e+86 -1.7504234e+86)
(-1.7722635e+88 -1.5626706e+86 -1.6874476e+86)
(-1.7721695e+88 -1.6726256e+86 -1.7201412e+86)
(-2.9873573e+88 -1.4655679e+87 1.2383047e+86)
(-2.1967177e+88 2.9528334e+86 2.5531e+86)
(-2.1581378e+88 2.0145005e+86 -7.581858e+85)
(-2.8737889e+88 -2.9521266e+86 5.0943691e+85)
(-2.1258105e+88 2.5479244e+86 -1.8098027e+86)
(-2.120771e+88 2.1850426e+86 5.1899554e+85)
(-1.9762082e+88 5.6408911e+85 2.327534e+86)
(-2.0865963e+88 1.1719573e+84 -2.8132185e+85)
(-2.8118065e+88 -2.9987088e+86 1.6868352e+86)
(-2.0049457e+88 -2.2314088e+85 -8.6994352e+85)
(-2.0528021e+88 -1.0781983e+86 1.8170582e+86)
(-2.0961368e+88 7.9150996e+85 1.6561596e+86)
(-2.0647974e+88 -1.9962105e+86 2.1960459e+86)
(-2.024579e+88 7.1164792e+85 1.4524715e+86)
(-2.0430353e+88 6.5094455e+85 1.273106e+86)
(-2.0459274e+88 -2.1660838e+85 1.4717947e+86)
(-1.9850689e+88 3.6413786e+85 1.8902531e+86)
(-1.9406095e+88 -9.9678574e+84 1.8491626e+86)
(-1.9993347e+88 -6.1600723e+84 8.3952321e+85)
(-1.924263e+88 5.2329769e+85 2.1890702e+86)
(-1.9796199e+88 -1.8915742e+85 1.6248893e+86)
(-1.9284194e+88 -1.8402104e+86 1.3041804e+86)
(-2.0165917e+88 -1.6833881e+86 1.5245463e+86)
(-2.0104484e+88 -2.1133312e+86 1.3889607e+86)
(-1.9305337e+88 -2.1658181e+86 1.2476125e+86)
(-2.8841577e+88 -1.0489561e+87 -7.1054228e+85)
(-2.9381432e+88 -3.7687555e+86 -1.2736583e+86)
(-2.1065785e+88 -2.3844769e+86 1.0862677e+86)
(-2.1132643e+88 -2.2615074e+86 1.1651674e+86)
(-2.234787e+88 -1.7668529e+86 2.834879e+84)
(-2.8836874e+88 -2.4158917e+86 -8.0479593e+85)
(-2.1972971e+88 -2.708059e+85 -2.6899253e+85)
(-2.2172848e+88 1.7167556e+85 6.5006158e+85)
(-2.2267372e+88 -8.8672746e+85 5.1829297e+85)
(-2.087787e+88 -2.2028435e+86 7.6629493e+85)
(-2.0619437e+88 -2.3583587e+86 3.758422e+85)
(-1.8608972e+88 -1.7578569e+86 4.2984e+84)
(-1.9263187e+88 -1.7283637e+86 1.1711809e+86)
(-1.9237392e+88 -1.8626825e+86 1.2030239e+86)
(-1.8515754e+88 -1.9132725e+86 -5.2725124e+85)
(-2.810003e+88 -1.0739274e+87 -1.066701e+87)
(-2.9101328e+88 -5.1955572e+86 -2.2288871e+86)
(-2.9329317e+88 -2.9550736e+86 -4.8915681e+85)
(-2.2048456e+88 -9.8846695e+85 -4.9335151e+85)
(-2.8736736e+88 -2.6497995e+86 -1.8031096e+85)
(-2.1826116e+88 -3.9970412e+85 -2.7310161e+85)
(-2.1973244e+88 -3.4434227e+85 -1.6780634e+85)
(-2.2349475e+88 -1.5539726e+86 -5.5595712e+85)
(-2.0577922e+88 -2.4909882e+86 -9.6105217e+85)
(-2.0417487e+88 -2.7049259e+86 -1.6216765e+86)
(-1.9954453e+88 -1.9011088e+86 -1.7026978e+86)
(-1.9900632e+88 -2.2868586e+86 -1.9541412e+86)
(-1.8197199e+88 -1.8370308e+86 -2.3390989e+86)
(-1.8504596e+88 -1.9600657e+86 -2.4077155e+86)
(-1.8509147e+88 -2.0563944e+86 -2.7855836e+86)
(-1.8333471e+88 -1.9272309e+86 -3.1449431e+86)
(-1.7694091e+88 -1.7895861e+86 -3.7629784e+86)
(-1.7660086e+88 -1.9062171e+86 -2.8276943e+86)
(-1.7508738e+88 -1.8986016e+86 -2.5927797e+86)
(-1.7667867e+88 -1.7435542e+86 -3.6045554e+86)
(-3.3723849e+88 5.6344162e+86 -1.383167e+87)
(-3.1084965e+88 2.6350044e+86 -2.4103162e+87)
(-2.2575537e+88 1.2709554e+86 2.385375e+86)
(-2.2771253e+88 4.9402966e+86 3.3486532e+86)
(-2.1753258e+88 2.5472104e+86 -2.337681e+86)
(-2.181318e+88 1.5727907e+86 -3.1490556e+86)
(-2.8133501e+88 1.0162034e+86 -1.1941181e+87)
(-2.1455215e+88 2.7015997e+86 7.6632506e+85)
(-2.2566938e+88 2.4956619e+86 -3.0939753e+86)
(-2.2767271e+88 3.9071508e+86 -3.0537835e+86)
(-2.1950417e+88 5.0053943e+86 1.4854154e+86)
(-2.1197012e+88 5.6739567e+86 -4.4826102e+86)
(-2.0589819e+88 3.9857322e+86 -4.5847934e+86)
(-2.0447782e+88 4.0860947e+86 -3.5682996e+86)
(-2.1177051e+88 4.6959583e+86 -3.6439003e+86)
(-2.8096066e+88 -2.2626868e+86 -5.0057292e+86)
(-2.1474713e+88 2.9927148e+86 -1.3732731e+86)
(-2.2310997e+88 2.8812184e+86 -2.789428e+86)
(-2.2503145e+88 2.0871877e+86 -3.0896368e+86)
(-2.1654548e+88 2.3450586e+86 -8.9791159e+85)
(-2.0638208e+88 2.767915e+86 -3.448555e+86)
(-2.005427e+88 4.6005842e+86 -2.6153694e+86)
(-2.0167911e+88 4.8644455e+86 -2.4296426e+86)
(-2.0524831e+88 2.7105932e+86 -2.964178e+86)
(-1.8429811e+88 2.8520246e+86 -1.8033939e+86)
(-1.8305764e+88 4.588308e+86 -1.944811e+86)
(-1.8585914e+88 5.7389723e+86 -2.5778983e+86)
(-1.8687035e+88 3.7698136e+86 -2.3030479e+86)
(-2.8355527e+88 -3.4271488e+86 -2.3136182e+86)
(-2.1698699e+88 8.8555429e+85 -1.3990596e+86)
(-2.2061782e+88 1.2004662e+86 -1.9046967e+86)
(-2.205191e+88 1.4203028e+86 -1.3526382e+86)
(-2.162791e+88 4.0121542e+85 -5.9053808e+85)
(-1.9957248e+88 2.9238579e+86 -2.1111926e+86)
(-1.9937322e+88 3.2231078e+86 -2.6522498e+86)
(-2.0587709e+88 3.1177345e+86 -3.1150099e+86)
(-2.0402009e+88 2.6316783e+86 -2.6599192e+86)
(-1.8635395e+88 3.6487663e+86 -1.7596814e+86)
(-1.8577037e+88 2.7099398e+86 -1.7617684e+86)
(-1.9173282e+88 4.1140893e+86 -1.7360412e+86)
(-1.9224406e+88 4.0243238e+86 -1.7061006e+86)
(-1.8430916e+88 4.8838094e+86 -1.7868293e+86)
(-1.8090476e+88 3.3199816e+86 -1.7242923e+86)
(-1.8723946e+88 5.2197003e+86 -1.6452868e+86)
(-1.8663137e+88 6.7452567e+86 -1.6391015e+86)
(-2.0814668e+88 -3.1323215e+85 -2.3324052e+86)
(-2.244537e+88 -4.3935256e+85 -2.2415132e+86)
(-2.8542439e+88 -2.7961971e+86 -1.7931153e+86)
(-2.211296e+88 4.0957725e+85 -4.1637063e+85)
(-2.2075258e+88 -1.0315104e+86 -8.6788331e+85)
(-2.1995866e+88 -9.7194799e+84 5.8294385e+85)
(-2.0594874e+88 7.0836057e+85 -2.6906513e+86)
(-2.0703344e+88 6.7729492e+85 -2.692734e+86)
(-2.0398048e+88 9.4768926e+85 -2.1327077e+86)
(-1.8988275e+88 2.752846e+86 -1.7458552e+86)
(-1.9298602e+88 8.210223e+85 -1.9202129e+86)
(-1.8874962e+88 3.5299983e+86 -1.9014591e+86)
(-1.925533e+88 1.0876655e+86 -1.7953666e+86)
(-1.8079134e+88 4.210881e+86 -1.739162e+86)
(-1.8664539e+88 1.2183847e+86 -1.6556904e+86)
(-1.797891e+88 4.3996135e+86 -1.7688406e+86)
(-1.8725377e+88 8.922502e+85 -1.6686889e+86)
(-2.786109e+88 -3.0891485e+86 -2.0286017e+86)
(-2.1443492e+88 -1.2131683e+86 -2.0920251e+86)
(-2.120397e+88 -1.2839876e+86 -7.3786166e+85)
(-2.1256641e+88 -1.7830569e+86 -1.3245139e+86)
(-2.1143925e+88 -2.5544529e+86 -2.1537918e+86)
(-2.0988491e+88 -1.6897959e+86 1.2528755e+85)
(-2.1064467e+88 -4.4792516e+85 -9.64698e+85)
(-2.1272012e+88 -2.6632472e+86 -2.412836e+86)
(-2.1486209e+88 -2.142277e+86 -1.9189709e+86)
(-1.9738992e+88 -1.7473251e+86 -2.1855751e+86)
(-2.0307783e+88 -2.3857758e+86 -2.3366934e+86)
(-2.0275121e+88 -2.6274384e+86 -2.2733488e+86)
(-2.0248222e+88 -2.5470888e+86 -3.3204387e+86)
(-2.0972807e+88 -2.3713171e+86 -2.8062671e+86)
(-2.0425393e+88 -2.3908427e+86 -3.1885097e+86)
(-2.0533901e+88 -1.8694725e+86 -2.6697368e+86)
(-2.0299284e+88 -2.2045196e+86 -2.0315861e+86)
(-2.0264787e+88 -1.9814639e+86 -2.3248962e+86)
(-1.9624764e+88 -7.0447394e+85 -2.7331717e+86)
(-1.8032643e+88 1.1408503e+86 -1.9726148e+86)
(-1.798225e+88 1.6308281e+86 -2.1277457e+86)
(-1.8531486e+88 2.4559508e+84 -1.925069e+86)
(-2.012278e+88 -8.1565681e+85 -2.0332499e+86)
(-2.0178795e+88 -1.5332371e+86 -2.6643517e+86)
(-2.0181519e+88 -1.5203174e+86 -2.2908825e+86)
(-1.861435e+88 -5.958473e+85 -1.7928202e+86)
(-2.0168077e+88 -2.1864502e+86 -2.3755394e+86)
(-1.9001649e+88 -1.9671201e+86 -2.850758e+86)
(-1.8340926e+88 -2.1060488e+86 -2.2085763e+86)
(-1.8321654e+88 -2.0762547e+86 -1.8982046e+86)
(-1.8966932e+88 -1.8679046e+86 -2.7644504e+86)
(-1.7621113e+88 -2.0084685e+86 -1.0397703e+86)
(-1.7452504e+88 -2.0709479e+86 -1.0278405e+86)
(-1.9673531e+88 -1.0986332e+86 -2.0971829e+86)
(-1.9008269e+88 -1.7041005e+86 -3.0515761e+86)
(-1.8041033e+88 -1.8168065e+86 -1.5472288e+86)
(-1.8872538e+88 3.6434178e+85 -1.9246782e+86)
(-1.95946e+88 -1.2122145e+86 -2.1795724e+86)
(-1.8943197e+88 -1.8708441e+86 -3.002861e+86)
(-1.7747386e+88 -1.8122769e+86 -5.3982932e+85)
(-1.8878741e+88 5.6587653e+85 -2.0776375e+86)
(-1.7593954e+88 2.4425755e+86 -1.9788042e+86)
(-1.7445327e+88 2.0640915e+86 -2.0179509e+86)
(-1.8102784e+88 1.2798684e+86 -1.7315081e+86)
(-1.8070999e+88 2.2979059e+86 -1.7314733e+86)
(-1.9176353e+88 -1.8479386e+86 -2.6151761e+86)
(-1.8309131e+88 -1.6711532e+86 -2.4718317e+86)
(-1.8272277e+88 -1.4217566e+86 -2.0522232e+86)
(-1.9039235e+88 -1.6097981e+86 -2.353796e+86)
(-1.7889012e+88 -1.6735028e+86 -2.0108355e+86)
(-1.7506999e+88 -1.6263082e+86 -1.8089695e+86)
(-1.8236648e+88 1.2021076e+86 -1.7892449e+86)
(-1.8221801e+88 -9.8297735e+85 -1.6102325e+86)
(-1.7640074e+88 -1.6051227e+86 -1.6920866e+86)
(-1.7699609e+88 -1.6672432e+86 -1.7400894e+86)
(-2.6500286e+88 -9.8781804e+86 1.6577475e+87)
(-2.8283961e+88 -9.2266913e+86 6.8914745e+85)
(-2.1271513e+88 2.6794692e+86 -2.8092993e+86)
(-2.1513442e+88 -2.1222409e+86 -1.3809277e+86)
(-2.2778304e+88 -2.567954e+86 8.1977269e+85)
(-2.1766427e+88 1.0981429e+86 -1.8755782e+86)
(-2.1074834e+88 1.1447131e+86 2.6631808e+86)
(-2.1057622e+88 7.0064091e+85 2.0920297e+86)
(-2.207547e+88 1.0831179e+86 1.1958731e+86)
(-2.1787231e+88 -2.1946226e+85 -6.946688e+85)
(-2.8622638e+88 -4.0217199e+86 7.7184902e+85)
(-2.1379539e+88 8.350312e+85 -1.2195353e+86)
(-2.1663712e+88 1.6218716e+86 -7.8825494e+84)
(-1.9979877e+88 1.7502312e+86 2.0163232e+86)
(-1.9774823e+88 1.7707547e+86 2.2585755e+86)
(-1.8695309e+88 7.0415008e+85 2.1904857e+86)
(-2.0306341e+88 -8.7538831e+85 2.0686896e+86)
(-2.1402602e+88 -5.0009611e+85 2.3424775e+86)
(-2.7972127e+88 -2.6991745e+86 1.1203156e+86)
(-2.1044014e+88 -1.0665824e+86 2.8659351e+85)
(-2.0727964e+88 -1.2900919e+86 1.6868116e+86)
(-2.0235856e+88 -2.5052352e+85 -7.1322429e+85)
(-2.0755168e+88 -2.1402093e+86 2.4540882e+86)
(-2.0364929e+88 3.2065585e+85 1.4402886e+86)
(-2.087367e+88 -1.3246357e+85 9.8212407e+85)
(-2.0896662e+88 -1.1388306e+86 1.052918e+86)
(-1.9467114e+88 -8.0461653e+85 1.9523783e+86)
(-1.9993421e+88 -9.8192448e+85 1.549646e+86)
(-1.9501597e+88 -9.1987652e+85 2.0449722e+86)
(-2.0198944e+88 -7.5680539e+85 1.3229309e+86)
(-2.0150893e+88 -3.0545344e+85 2.1483772e+86)
(-2.0157135e+88 -2.115513e+86 2.416106e+86)
(-2.0027975e+88 -2.1369572e+86 2.7746804e+86)
(-1.9730793e+88 -1.9822611e+86 1.4496299e+86)
(-1.9558558e+88 -2.1125922e+86 1.5675855e+86)
(-1.8352442e+88 7.6232617e+85 1.8572931e+86)
(-1.895058e+88 -3.4077762e+85 2.1209956e+86)
(-1.8443515e+88 -3.3671135e+85 1.8061266e+86)
(-1.8966121e+88 -1.0685755e+86 9.1106921e+85)
(-1.8874726e+88 -1.9188735e+85 1.8186893e+86)
(-1.856946e+88 2.2328316e+85 1.9822239e+86)
(-1.8851159e+88 -7.6980831e+85 1.4633573e+86)
(-1.7786785e+88 -1.8788398e+86 1.3930322e+86)
(-1.8896339e+88 -1.4874592e+86 1.8455438e+86)
(-1.854541e+88 -1.7920532e+86 1.7798927e+86)
(-1.8301998e+88 -2.1412439e+86 1.4885292e+86)
(-2.7666835e+88 -1.2930407e+87 -2.961249e+85)
(-2.8973742e+88 -6.4028697e+86 -1.1100938e+86)
(-2.92957e+88 -3.4194764e+86 -1.2829173e+86)
(-1.9337298e+88 -1.9842316e+86 1.1645918e+86)
(-1.9350259e+88 -1.9162468e+86 1.2279432e+86)
(-2.1154016e+88 -2.6826626e+86 8.9307258e+85)
(-2.87587e+88 -2.7179222e+86 -9.3254086e+85)
(-2.2346896e+88 -1.2581578e+86 -5.0534636e+85)
(-2.2153782e+88 -3.1126403e+84 -9.2389413e+85)
(-2.2575272e+88 -2.0028441e+86 -4.0864085e+85)
(-2.2361757e+88 -7.5868027e+85 -8.0015596e+85)
(-2.0956056e+88 -2.3136023e+86 3.6056833e+85)
(-2.1432927e+88 -2.6192376e+86 5.1104911e+85)
(-2.1313233e+88 -2.7819096e+86 9.4731516e+85)
(-1.9143211e+88 -1.9594999e+86 8.7882356e+85)
(-1.9009078e+88 -1.9945029e+86 4.7746172e+85)
(-1.7987847e+88 -1.9274604e+86 8.6502137e+84)
(-1.8563235e+88 -1.8528744e+86 1.203004e+86)
(-1.8428383e+88 -1.8198332e+86 1.166111e+86)
(-1.7767085e+88 -1.9337856e+86 -4.6912146e+85)
(-2.7527731e+88 -3.5547211e+86 -1.4622133e+87)
(-2.8516299e+88 -5.2643879e+86 -4.3989577e+86)
(-2.9052941e+88 -4.0848279e+86 -1.0747572e+86)
(-2.9293956e+88 -2.8973857e+86 -1.4284497e+85)
(-2.0737537e+88 -2.8134138e+86 -4.0768738e+85)
(-2.2392515e+88 -1.929492e+86 -2.511234e+85)
(-2.8703683e+88 -2.5683681e+86 -8.4055602e+84)
(-2.2085584e+88 -1.5784109e+86 -3.8504697e+85)
(-2.2154023e+88 -6.3531681e+85 -8.7566902e+85)
(-2.2196993e+88 -6.8811914e+85 -3.7896877e+85)
(-2.0167689e+88 -2.0387316e+86 -1.0451823e+86)
(-2.0149719e+88 -2.5059281e+86 -1.3260917e+86)
(-2.0852243e+88 -3.0833844e+86 -7.6660479e+85)
(-1.8778728e+88 -2.1275727e+86 -1.0425959e+86)
(-1.8696783e+88 -2.199427e+86 -1.708332e+86)
(-1.8332135e+88 -2.0658842e+86 -1.6891769e+86)
(-1.8346207e+88 -2.1111479e+86 -1.9168289e+86)
(-1.7756205e+88 -2.0169353e+86 -2.4464624e+86)
(-1.7943672e+88 -2.0687986e+86 -2.5491551e+86)
(-1.7862716e+88 -2.0252569e+86 -2.9278713e+86)
(-1.7748092e+88 -1.9194549e+86 -3.2826415e+86)
(-3.4131023e+88 6.754935e+86 -1.4773208e+87)
(-3.151078e+88 4.0709804e+86 -2.5159663e+87)
(-2.2735734e+88 1.5711046e+86 2.6367634e+86)
(-2.1837385e+88 1.8212103e+86 -3.6206571e+86)
(-2.1976277e+88 3.5495104e+86 -3.4749743e+86)
(-2.291135e+88 5.8396292e+86 3.489992e+86)
(-2.8273751e+88 2.3607076e+86 -1.2580837e+87)
(-2.1770349e+88 5.1478942e+86 1.9078956e+86)
(-2.1566525e+88 2.6438315e+86 1.3726392e+86)
(-2.2682702e+88 2.7800585e+86 -2.8609694e+86)
(-2.284717e+88 4.0501436e+86 -2.86959e+86)
(-2.0584606e+88 5.2507821e+86 -3.9092181e+86)
(-2.0874032e+88 4.7089207e+86 -3.8001623e+86)
(-2.0786363e+88 4.6084943e+86 -4.6584356e+86)
(-2.0689032e+88 5.5157383e+86 -4.8389844e+86)
(-2.7823448e+88 -5.4094142e+85 -6.4739241e+86)
(-2.1597787e+88 2.6296441e+86 -1.7943182e+86)
(-2.2861237e+88 3.4868404e+86 -3.6505045e+86)
(-2.2671144e+88 2.653922e+86 -3.5010645e+86)
(-2.1797137e+88 3.7127266e+86 -1.0932876e+86)
(-2.0259241e+88 4.604329e+86 -2.8446327e+86)
(-2.0405952e+88 4.4159672e+86 -2.3992538e+86)
(-2.102132e+88 4.571528e+86 -2.8931006e+86)
(-2.0957776e+88 4.477736e+86 -3.6043015e+86)
(-1.9413927e+88 4.9947001e+86 -2.4692849e+86)
(-1.919095e+88 3.2279068e+86 -2.7869972e+86)
(-1.850733e+88 3.444623e+86 -1.9453653e+86)
(-1.9256237e+88 4.2962202e+86 -1.8018831e+86)
(-2.8062004e+88 -2.7848057e+86 -3.0363421e+86)
(-2.1903056e+88 1.2486638e+86 -1.6666602e+86)
(-2.2284547e+88 1.8400206e+86 -2.877006e+86)
(-2.2204656e+88 1.1817128e+86 -2.4390932e+86)
(-2.1679682e+88 6.9273539e+85 -1.4259783e+86)
(-2.0159383e+88 3.3603801e+86 -2.3166191e+86)
(-2.0133189e+88 3.9208794e+86 -3.1013408e+86)
(-2.0493864e+88 2.6689252e+86 -3.601373e+86)
(-2.026949e+88 2.3811954e+86 -2.980138e+86)
(-1.9244674e+88 3.4119163e+86 -1.8201615e+86)
(-1.9012079e+88 5.0933813e+86 -1.7800198e+86)
(-1.8460854e+88 5.1341118e+86 -1.774189e+86)
(-1.8812404e+88 3.1784675e+86 -1.8776022e+86)
(-1.8292913e+88 3.5583061e+86 -1.7931235e+86)
(-1.8164935e+88 5.5173248e+86 -1.9060363e+86)
(-1.8498082e+88 6.3461312e+86 -1.8296053e+86)
(-1.8339982e+88 4.4211127e+86 -1.834227e+86)
(-2.8370696e+88 -3.3686023e+86 -1.9982651e+86)
(-2.1987004e+88 -4.3743453e+85 -1.2245736e+86)
(-2.1841499e+88 -1.3920559e+86 -3.5122998e+85)
(-2.200621e+88 -6.5685542e+85 -6.5079473e+85)
(-2.2115457e+88 9.6586182e+83 -1.6977969e+86)
(-2.024385e+88 1.5773244e+86 -2.2977005e+86)
(-2.0169216e+88 2.1729205e+86 -3.0330614e+86)
(-2.0214547e+88 1.7407963e+86 -3.1553898e+86)
(-2.0160518e+88 3.9349936e+85 -2.2834555e+86)
(-1.8691234e+88 3.7052804e+86 -1.9951937e+86)
(-1.8637299e+88 4.0252353e+86 -2.0613981e+86)
(-1.9125495e+88 3.9301838e+86 -1.9514163e+86)
(-1.9097948e+88 3.4114537e+86 -1.8545576e+86)
(-1.7968572e+88 3.9715901e+86 -1.8327472e+86)
(-1.8078688e+88 3.1427923e+86 -1.7876992e+86)
(-1.8689055e+88 4.5842216e+86 -1.7559984e+86)
(-1.866659e+88 4.4583104e+86 -1.7874982e+86)
(-1.9306622e+88 4.2764548e+85 -1.7951754e+86)
(-2.0810531e+88 -6.6688676e+85 -2.9142535e+86)
(-2.8519156e+88 -2.8689425e+86 -1.8567846e+86)
(-2.2261513e+88 -1.4752828e+86 -1.3064771e+86)
(-2.2023456e+88 -1.8717522e+86 -6.821749e+85)
(-2.2378691e+88 -1.259495e+86 1.2653447e+85)
(-2.2379265e+88 -9.1310261e+85 -8.2064576e+85)
(-2.0382938e+88 9.0338906e+85 -2.5069755e+86)
(-2.0554563e+88 -9.3883998e+85 -2.4423603e+86)
(-2.0598818e+88 2.294264e+85 -1.9900814e+86)
(-1.9134777e+88 1.2549327e+86 -1.9674877e+86)
(-1.9194275e+88 1.443641e+86 -1.9672939e+86)
(-1.9103336e+88 1.4159752e+86 -1.8771847e+86)
(-1.8447581e+88 3.0538273e+86 -1.8048154e+86)
(-1.876639e+88 9.716908e+85 -1.7968364e+86)
(-1.8239713e+88 3.8434971e+86 -1.8017585e+86)
(-1.8749618e+88 1.2601196e+86 -1.8358725e+86)
(-2.7816893e+88 -3.1962614e+86 -2.0627408e+86)
(-2.1379436e+88 -1.1095647e+86 -9.0239212e+85)