/*--------------------------------*- C++ -*----------------------------------*\
  =========                 |
  \\      /  F ield         | OpenFOAM: The Open Source CFD Toolbox
   \\    /   O peration     | Website:  https://openfoam.org
    \\  /    A nd           | Version:  7
     \\/     M anipulation  |
\*---------------------------------------------------------------------------*/
FoamFile
{
    version     2.0;
    format      ascii;
    class       volScalarField;
    location    "2000";
    object      k;
}
// * * * * * * * * * * * * * * * * * * * * * * * * * * * * * * * * * * * * * //

dimensions      [0 2 -2 0 0 0 0];

internalField   nonuniform List<scalar> 
33730
(
1.5226307
1.5199192
1.5203564
1.5198836
1.520238
1.5227757
1.5232191
1.5229726
1.5231518
1.5204075
1.5201407
1.5197054
1.51987
1.5205214
1.5200843
1.5202236
1.5206224
1.519957
1.5217812
1.5199194
1.5196779
1.5202154
1.5216515
1.5198414
1.5196719
1.5201774
1.5200156
1.5237434
1.5225259
1.5222899
1.5232288
1.5235129
1.5240962
1.523127
1.5235666
1.5236262
1.5226279
1.5226882
1.5238527
1.5239051
1.5241829
1.5231815
1.5235955
1.5208482
1.5201084
1.5208762
1.52013
1.5205381
1.5207485
1.5199928
1.5198807
1.5202501
1.5209399
1.520235
1.5209168
1.520958
1.5209649
1.5204089
1.5203526
1.519994
1.5199202
1.5213716
1.5213633
1.5214493
1.5198347
1.5197437
1.5199214
1.5214169
1.51967
1.5197252
1.5195749
1.5198149
1.5196989
1.5194238
1.5196117
1.5195485
1.5194829
1.5196052
1.5196743
1.5198793
1.5200511
1.5199924
1.5201395
1.5216939
1.5214442
1.521438
1.5201798
1.5202046
1.520075
1.5199579
1.5203968
1.5204615
1.5203094
1.5202912
1.5221298
1.521908
1.5239236
1.5227472
1.5224624
1.5233987
1.5236738
1.5238834
1.5233821
1.5233885
1.5240888
1.5241312
1.5242497
1.5241942
1.5239765
1.5233935
1.5232194
1.5228156
1.5242808
1.5242244
1.5233863
1.5233445
1.5238102
1.522804
1.5228944
1.5240237
1.5240699
1.5239571
1.5240168
1.5242123
1.5242072
1.5242085
1.5243048
1.5243089
1.5239611
1.5242455
1.5229024
1.5233019
1.5243265
1.5243241
1.523398
1.5234042
1.5205213
1.5213873
1.5214099
1.5205242
1.5214078
1.5214241
1.5205537
1.5205344
1.5209596
1.521207
1.5202367
1.5203326
1.5212694
1.5213141
1.5204056
1.5204353
1.5214495
1.5214522
1.5206137
1.520624
1.521416
1.5214394
1.5205966
1.5205991
1.5214102
1.5206983
1.5207081
1.5213349
1.5214401
1.5214506
1.5206692
1.5206693
1.520415
1.5203147
1.5204066
1.5203296
1.5214458
1.521444
1.5203348
1.520237
1.5202035
1.5203257
1.5198512
1.5214253
1.521431
1.521431
1.521429
1.5214053
1.521423
1.5213865
1.5213647
1.5214231
1.521472
1.5213531
1.5202428
1.5202222
1.520231
1.5202452
1.5201546
1.5201351
1.5201128
1.5201373
1.5196955
1.519588
1.5197442
1.5213591
1.5214722
1.5213568
1.521467
1.5199488
1.520119
1.5200087
1.5200457
1.5201699
1.5202314
1.5202053
1.5201903
1.5199717
1.5201152
1.5200107
1.5200648
1.5202188
1.5202446
1.5201755
1.5201559
1.51958
1.519455
1.5191141
1.5191886
1.5194601
1.5193616
1.5194507
1.5195537
1.5193388
1.5193116
1.5193808
1.5194204
1.51955
1.5195027
1.519614
1.5196752
1.5199416
1.5199445
1.5200372
1.5200453
1.5198589
1.519936
1.5198337
1.5199512
1.5200116
1.5200582
1.5200372
1.5200349
1.5201275
1.5201527
1.5201312
1.5201519
1.5202835
1.5202998
1.5202711
1.5203178
1.5203922
1.5203749
1.5204372
1.5204727
1.5203156
1.5202696
1.5203329
1.5202826
1.5204834
1.5204152
1.5203779
1.5204322
1.5214632
1.521477
1.5213681
1.5213704
1.5214713
1.5214691
1.5213841
1.5213827
1.5214635
1.5214673
1.5206207
1.5206242
1.5206572
1.5206319
1.520504
1.5205414
1.520337
1.5204424
1.5207519
1.5207503
1.5207713
1.5207789
1.520717
1.5207036
1.5206907
1.5206851
1.5221434
1.5219504
1.5240633
1.5241644
1.5242082
1.5227496
1.522485
1.52354
1.5234277
1.5237847
1.523933
1.5234217
1.5242733
1.524223
1.52402
1.5239671
1.5239992
1.5240784
1.5232608
1.5235618
1.5236718
1.5231918
1.5231005
1.5230766
1.5240271
1.5239379
1.5236669
1.5229375
1.5231397
1.5226196
1.524292
1.5242872
1.5242879
1.5242951
1.5242522
1.5242278
1.524264
1.5242289
1.5231789
1.5231883
1.5242048
1.52419
1.523168
1.5231592
1.524168
1.5241345
1.5239677
1.524041
1.5241641
1.5228118
1.5228924
1.5241606
1.5242813
1.5242781
1.5240663
1.524245
1.5243263
1.524332
1.5239912
1.5241424
1.5241501
1.5238693
1.5242644
1.5242791
1.5242594
1.5242853
1.523635
1.5225196
1.5229799
1.5240267
1.523069
1.5231274
1.5241453
1.5241842
1.5243408
1.5243433
1.5243328
1.5243376
1.5243379
1.5243326
1.5243344
1.524327
1.5242332
1.523191
1.5232196
1.5242369
1.5231981
1.5232051
1.5242329
1.5242285
1.522395
1.5223573
1.5208306
1.5208338
1.5224013
1.5224203
1.5208384
1.5208393
1.5224135
1.5223934
1.520843
1.5208441
1.5223755
1.5224168
1.5208714
1.5208702
1.5219972
1.521692
1.5204798
1.520546
1.5222266
1.5221939
1.5206487
1.5206589
1.5222828
1.52225
1.5207096
1.5207152
1.522299
1.5223092
1.5207521
1.5207596
1.5224179
1.5224035
1.5209031
1.5209027
1.5223675
1.5224086
1.5209159
1.5209154
1.5223735
1.5223424
1.5208776
1.5208787
1.5223934
1.5224158
1.5208886
1.5208888
1.5222396
1.5222638
1.5209346
1.5209273
1.5219876
1.5221242
1.5209183
1.5209277
1.5223355
1.5223234
1.5209315
1.5209282
1.5223345
1.5223643
1.5209347
1.5209324
1.519108
1.5210519
1.5210328
1.5210068
1.5209821
1.5210467
1.5209961
1.5210524
1.5209955
1.5210665
1.5209915
1.5210406
1.5209655
1.5210623
1.5209829
1.5210662
1.5209812
1.5215577
1.5215338
1.5215684
1.5215544
1.5215471
1.5215638
1.5215492
1.5215393
1.5214684
1.5214662
1.5209781
1.5209665
1.5209786
1.5209522
1.5209682
1.5209538
1.5209763
1.5209548
1.5208262
1.5208312
1.5207054
1.5207185
1.5201419
1.5208473
1.5208596
1.5207745
1.5207305
1.5202579
1.5201245
1.5202611
1.5215509
1.5215899
1.5215678
1.5215726
1.521577
1.5215583
1.5215401
1.5215578
1.5214603
1.5214668
1.5214638
1.5214633
1.5214677
1.5214642
1.5214637
1.5214602
1.5216033
1.5215922
1.5215806
1.5215654
1.5214626
1.5214596
1.5214653
1.521463
1.5215906
1.5213769
1.5214215
1.5213746
1.5214172
1.5214602
1.521477
1.5214726
1.5214737
1.5214779
1.5214231
1.5213714
1.5213692
1.5214164
1.5210367
1.5210555
1.5209767
1.5209915
1.5210191
1.5209614
1.5210289
1.5209652
1.5210316
1.520943
1.5210404
1.5209458
1.5210476
1.5209565
1.5210671
1.5209718
1.5209623
1.5209379
1.5209802
1.520952
1.5208123
1.5208268
1.5207108
1.5206918
1.5200641
1.5207918
1.5207964
1.5206765
1.5206671
1.5200454
1.5209426
1.520921
1.5209517
1.5209247
1.5200362
1.5200579
1.5199787
1.5199575
1.5199717
1.5199904
1.5200393
1.5200635
1.5201891
1.5201759
1.5213705
1.5213756
1.5214285
1.5214207
1.5214704
1.5214659
1.5214679
1.5214724
1.5214246
1.5213704
1.5213675
1.5214179
1.5214706
1.5214692
1.5214741
1.5214749
1.518197
1.5182892
1.5180662
1.5181346
1.5187096
1.5187299
1.5188155
1.5204574
1.5205603
1.5203335
1.5204213
1.5207044
1.5207568
1.5205917
1.5206316
1.5205633
1.5204484
1.520664
1.5205364
1.5206122
1.5204854
1.5206566
1.5205179
1.5209077
1.5207922
1.5209083
1.5207885
1.5209519
1.5209946
1.5208629
1.5208983
1.520952
1.5208621
1.5209518
1.5208578
1.520909
1.5207953
1.5209495
1.5208276
1.5206592
1.5207578
1.5205418
1.5206277
1.5208363
1.5207443
1.5208967
1.5207949
1.5207154
1.5206218
1.520811
1.5207063
1.5207901
1.5206725
1.5208472
1.5207187
1.5208238
1.5208248
1.5207099
1.520708
1.5208277
1.5207168
1.5208646
1.5207444
1.5207374
1.5206125
1.5206344
1.5207687
1.5207298
1.5207319
1.5206028
1.5206016
1.5194974
1.5195701
1.5194717
1.5195165
1.5193312
1.5193782
1.519372
1.5193488
1.5193668
1.5194469
1.519872
1.519852
1.5198655
1.5198835
1.519707
1.5196977
1.5197955
1.5197911
1.519863
1.5197624
1.5197687
1.5198612
1.5199532
1.519932
1.5199393
1.5199581
1.5197002
1.5196187
1.5196414
1.5197227
1.5195663
1.5195407
1.5195941
1.5196313
1.5196625
1.5196505
1.5196855
1.5196997
1.5197546
1.5197835
1.519772
1.5198005
1.5198779
1.5198611
1.5198911
1.5199088
1.5197686
1.5197985
1.5197773
1.51981
1.5199266
1.5198389
1.5198747
1.5199728
1.5200582
1.5199381
1.5199742
1.5200925
1.5207437
1.5206845
1.5208423
1.52077
1.5207553
1.5206627
1.520852
1.5207457
1.5209353
1.5208732
1.5207778
1.5208308
1.5209204
1.5208578
1.5207982
1.5208533
1.5206601
1.5206414
1.5207617
1.5207289
1.5205441
1.520484
1.5206147
1.5206713
1.5205018
1.520592
1.5204624
1.5203668
1.5207742
1.5207527
1.5208362
1.5208087
1.5205964
1.5206105
1.5207359
1.5207237
1.5208868
1.5209289
1.5208658
1.5209025
1.5208912
1.5208683
1.5208842
1.5208603
1.5207291
1.5207666
1.5206371
1.5205961
1.5209705
1.5209113
1.5209675
1.5209054
1.5209685
1.5209099
1.5210103
1.5209464
1.5209837
1.5209851
1.5208939
1.5208886
1.5209839
1.5208933
1.5210261
1.5209299
1.5209673
1.5209876
1.5208569
1.5208715
1.5209974
1.5209102
1.5210053
1.5209129
1.5209599
1.5209522
1.5208429
1.5208453
1.5210121
1.5209236
1.5210322
1.520939
1.5210339
1.5209539
1.5210366
1.520952
1.520993
1.5208942
1.5209953
1.5208921
1.5209987
1.5209055
1.5209808
1.52089
1.5210373
1.5210131
1.5209424
1.5209643
1.5208712
1.5208783
1.5207672
1.5207648
1.5207828
1.5206687
1.5207889
1.5206703
1.5208873
1.5207807
1.520906
1.5207934
1.5208001
1.5206853
1.5208163
1.5206955
1.5209288
1.5208407
1.5209204
1.5208229
1.5209222
1.5208212
1.5207357
1.5208389
1.5208404
1.520734
1.5207585
1.5208546
1.5207592
1.5214756
1.5214502
1.5213937
1.5214482
1.5214206
1.5213768
1.5213819
1.5214254
1.5214335
1.5213842
1.5213906
1.5214318
1.5214404
1.5214678
1.5214649
1.5214646
1.5214678
1.5214678
1.521464
1.5214648
1.5214687
1.5213952
1.5213972
1.5214411
1.5214383
1.5213933
1.521398
1.5214453
1.5214388
1.5214637
1.5214667
1.5214693
1.521466
1.5214661
1.5214668
1.5214693
1.5214684
1.521486
1.5214897
1.5214904
1.5208869
1.5208918
1.5208946
1.5208947
1.5209258
1.5209283
1.5208994
1.520897
1.520772
1.5207644
1.5208096
1.520818
1.5205375
1.5206089
1.5207093
1.5207195
1.5209782
1.5209818
1.5209757
1.5209781
1.5209771
1.5209705
1.5209559
1.5209647
1.5209654
1.5209673
1.5209542
1.5209531
1.5209398
1.52094
1.5209308
1.5209274
1.5223549
1.5220909
1.5231316
1.523027
1.5219239
1.5226887
1.522999
1.5241833
1.5241687
1.5242051
1.5242669
1.5242263
1.5236712
1.5234621
1.5237815
1.5234809
1.5238909
1.5238951
1.5239405
1.5240456
1.5239762
1.5240032
1.5240764
1.5233179
1.5235444
1.5236673
1.5236353
1.5232307
1.5232055
1.5242669
1.5242713
1.5242974
1.5243032
1.524298
1.5243043
1.52421
1.5242343
1.5242715
1.5242362
1.5242735
1.5242386
1.5240259
1.5240472
1.5240074
1.5240032
1.5240879
1.5240954
1.5241121
1.5240989
1.5237206
1.5236767
1.523695
1.5237743
1.5233143
1.5232534
1.5230412
1.5231063
1.5232334
1.5238321
1.5238044
1.5232255
1.5232373
1.5237748
1.5237448
1.5232162
1.5241018
1.5241193
1.5240942
1.524118
1.5240081
1.5240562
1.5240004
1.5240532
1.523804
1.5237036
1.5238266
1.5237059
1.5231416
1.5236273
1.5235162
1.5230787
1.5233783
1.5233485
1.5230055
1.5229841
1.5228989
1.5232603
1.5229265
1.5226985
1.5242948
1.5242881
1.5242862
1.5242937
1.5242997
1.5243011
1.5242947
1.5242922
1.5242709
1.5242741
1.5242709
1.5242657
1.5242305
1.5242413
1.5242412
1.524223
1.5232905
1.5239402
1.5239282
1.5233015
1.5233293
1.5239307
1.5239391
1.5233215
1.5242835
1.5242873
1.5242629
1.5242692
1.5242778
1.5242806
1.5242581
1.5242607
1.5233255
1.5239361
1.5239251
1.5233246
1.5233138
1.5239044
1.523895
1.5232883
1.5242583
1.5242652
1.5242393
1.5242479
1.5242152
1.5242371
1.5241977
1.5242215
1.5222098
1.5224031
1.522424
1.5241035
1.5241607
1.524059
1.5241224
1.5242394
1.5242757
1.5242762
1.5242807
1.5243348
1.524329
1.5241484
1.5240747
1.524195
1.5240546
1.5239711
1.5241841
1.5242497
1.5242388
1.5242812
1.5242966
1.5242791
1.5242984
1.5243228
1.5243278
1.5243428
1.5243509
1.5243468
1.5243387
1.5243335
1.5243323
1.5243543
1.524356
1.5243482
1.524351
1.5241693
1.5241457
1.5241872
1.524181
1.5239722
1.5238747
1.5237613
1.5239526
1.5242744
1.5242696
1.5242544
1.5242642
1.5242811
1.5242926
1.524297
1.5242896
1.5236771
1.5239298
1.5238756
1.5235439
1.5234822
1.5231104
1.5223967
1.5228033
1.5237979
1.5237072
1.5230595
1.5231486
1.5241708
1.5241234
1.5241462
1.5240774
1.5238787
1.5238653
1.5231973
1.5232197
1.523916
1.5239025
1.5232497
1.5232487
1.5242526
1.5242401
1.5242286
1.5242116
1.52428
1.5242699
1.5242587
1.5242462
1.5243411
1.5243396
1.5243267
1.5243299
1.5243322
1.5243437
1.5243437
1.5243329
1.524331
1.5243409
1.5243293
1.5243399
1.5243332
1.5243309
1.5243239
1.5243204
1.5243185
1.5243145
1.5242893
1.5242953
1.5239626
1.5239588
1.5233032
1.5233236
1.5233442
1.5239673
1.523969
1.5233347
1.5243219
1.5243214
1.5243002
1.5242994
1.5233358
1.5239733
1.5239663
1.523337
1.5233413
1.5239646
1.5239611
1.5233134
1.5243187
1.5243213
1.5242976
1.5243009
1.52431
1.5243143
1.5242893
1.5242943
1.5245144
1.5225447
1.5225056
1.5225471
1.5225674
1.5225586
1.522538
1.5225182
1.5225623
1.5221577
1.5218451
1.5223868
1.5223564
1.5224365
1.5224014
1.5224518
1.5224617
1.5225558
1.5225405
1.5224977
1.522547
1.5225164
1.5224791
1.5225338
1.5225594
1.5223623
1.5223829
1.5222378
1.5224648
1.5224511
1.5224582
1.5224953
1.5218822
1.5217441
1.5217323
1.5218725
1.5217146
1.5217297
1.5216122
1.5215975
1.5216259
1.5217676
1.5216397
1.5217563
1.5216179
1.5215078
1.5216337
1.5215231
1.5217873
1.5219321
1.5217905
1.5219338
1.5218157
1.5216833
1.521677
1.5218139
1.5217972
1.5219289
1.5217854
1.5219428
1.5218125
1.5216777
1.5218252
1.5216873
1.5216611
1.5215673
1.5215529
1.5216479
1.5214883
1.5215758
1.5215898
1.5214731
1.5215432
1.5215273
1.5214631
1.5214479
1.521396
1.521468
1.5213807
1.5214841
1.5216024
1.5217067
1.52161
1.521702
1.5215285
1.5216347
1.5216286
1.5215197
1.5217141
1.5216132
1.5217032
1.5216051
1.5215238
1.5216316
1.5216406
1.52153
1.5217895
1.5216434
1.521725
1.5217402
1.5216371
1.5217563
1.5217725
1.521649
1.5215005
1.5215047
1.5215089
1.5222597
1.5222534
1.5220304
1.5220202
1.5220431
1.5218599
1.5218479
1.5220508
1.5220481
1.5220316
1.5218386
1.5218541
1.5218733
1.5218574
1.5217087
1.5216936
1.5220877
1.5223256
1.5220883
1.5223285
1.5221083
1.5219093
1.5219079
1.5221116
1.5220916
1.5223203
1.5220817
1.5223286
1.5221044
1.5219032
1.5221172
1.5219145
1.5225989
1.5225989
1.5223122
1.5223079
1.5223044
1.5223066
1.5225938
1.5225928
1.522581
1.5206286
1.5225749
1.5206393
1.5206625
1.5206766
1.5225228
1.522519
1.5222455
1.5222346
1.5220324
1.5220156
1.522266
1.5222535
1.5222462
1.5207109
1.5225031
1.5206659
1.520697
1.5207557
1.5206075
1.5206417
1.5206527
1.5206167
1.5207084
1.5206836
1.5206527
1.5207508
1.521617
1.5216708
1.521683
1.5216104
1.5216962
1.5217097
1.5216304
1.5216234
1.5214836
1.5214877
1.5214723
1.5214918
1.521496
1.5216501
1.5215995
1.5216593
1.5216042
1.5214793
1.5214694
1.5214753
1.5214664
1.5216931
1.5216495
1.5215802
1.5215794
1.5215933
1.5214504
1.5215733
1.5214548
1.521464
1.5214764
1.521485
1.5214681
1.5214209
1.5214172
1.5213999
1.5214111
1.5214138
1.5214434
1.521565
1.5215688
1.5214466
1.5218211
1.5219732
1.5218204
1.521977
1.5219824
1.5219648
1.5218162
1.5218315
1.5218471
1.5217036
1.5218495
1.5217019
1.5218609
1.5217042
1.5217175
1.5218445
1.5219513
1.5218008
1.5219597
1.5218038
1.5218318
1.5216861
1.5218266
1.5216856
1.5218257
1.5219613
1.5218067
1.5219827
1.5218347
1.52169
1.521707
1.5218549
1.5217097
1.5216069
1.5216066
1.5217125
1.5216324
1.5215197
1.5215182
1.5216342
1.5217165
1.5217348
1.5216114
1.5216264
1.5216393
1.5216557
1.5215239
1.5215369
1.5216223
1.5217287
1.5216245
1.5217289
1.5215367
1.5216514
1.5216507
1.5215331
1.5216413
1.5217309
1.5216288
1.5217457
1.5215437
1.521657
1.5216702
1.5215538
1.5223925
1.5223964
1.52214
1.522141
1.5221666
1.5219488
1.5219491
1.5221617
1.5223703
1.5223809
1.5221365
1.5221237
1.522147
1.5221627
1.5219383
1.5219533
1.5226852
1.5226848
1.5223786
1.5223755
1.5223546
1.5223594
1.5226545
1.5226535
1.5226357
1.5206245
1.5226667
1.5206116
1.5206549
1.5206659
1.5226678
1.5226689
1.5223597
1.5223592
1.5223709
1.5223778
1.5226867
1.522687
1.5226686
1.5205911
1.522651
1.5205847
1.5206264
1.5206348
1.5221242
1.5223723
1.5221196
1.5223788
1.5221396
1.5219284
1.521933
1.5221487
1.5221443
1.5223864
1.522128
1.5223993
1.5221513
1.521935
1.5221711
1.5219534
1.520567
1.5206064
1.5206112
1.5205702
1.5205951
1.5206345
1.5206383
1.5206009
1.5205871
1.5205988
1.5205624
1.5205538
1.5205713
1.5205563
1.5205242
1.5205326
1.5205461
1.520588
1.5205974
1.5205494
1.520619
1.5206243
1.5205775
1.5205757
1.5206091
1.5205986
1.520567
1.5205745
1.5205871
1.5206247
1.520635
1.5205947
1.5206394
1.5206753
1.5206996
1.5207433
1.5206222
1.5206449
1.5207151
1.5206846
1.5215621
1.5215618
1.5214408
1.5214399
1.5213969
1.5214077
1.5214069
1.5213961
1.52144
1.5215634
1.5215643
1.5214413
1.5214088
1.5214073
1.5213965
1.5213978
1.5180151
1.5179583
1.5179223
1.5178914
1.5185614
1.5183941
1.5184054
1.5185707
1.5183249
1.5184542
1.5184413
1.5186409
1.5186339
1.5182581
1.5182819
1.5181643
1.5182029
1.5183169
1.5182325
1.5182719
1.5183737
1.518352
1.5183266
1.5184901
1.5184556
1.5189998
1.518894
1.5191181
1.5194129
1.5192929
1.5189936
1.5192415
1.5192456
1.5195732
1.5195483
1.5193253
1.5192974
1.5196595
1.5195964
1.5196799
1.5195855
1.5196532
1.5195566
1.5206898
1.5206227
1.5206788
1.5207545
1.5208649
1.5208483
1.5207749
1.5207882
1.5205955
1.5206133
1.5205375
1.5206776
1.5207891
1.5207021
1.5207744
1.5206921
1.5210678
1.5209862
1.5209925
1.5210781
1.5211535
1.521128
1.5210421
1.5210625
1.5208961
1.5209875
1.5208923
1.5209945
1.5210643
1.5209592
1.5210427
1.5209422
1.5208587
1.5208803
1.5207989
1.5209491
1.5207904
1.5206997
1.5207566
1.5208576
1.5209686
1.5210389
1.5209516
1.5210604
1.5209512
1.5208496
1.5209694
1.5208642
1.5208924
1.5208235
1.520827
1.5208977
1.5208247
1.5207466
1.5207505
1.5208296
1.5209425
1.5209613
1.5208708
1.5208855
1.520872
1.520888
1.5207899
1.5207994
1.5213065
1.5213909
1.5213086
1.5213908
1.5213205
1.521206
1.5212043
1.5213206
1.5213981
1.5213122
1.52138
1.5212982
1.5213128
1.5211991
1.5213271
1.5212112
1.5215194
1.5214322
1.5214339
1.5215231
1.5215731
1.521555
1.5214686
1.5214841
1.5213599
1.5214585
1.521359
1.5214619
1.5215127
1.5214098
1.5214964
1.5213964
1.5214405
1.5215289
1.5214434
1.521529
1.52147
1.5213708
1.5213674
1.5214686
1.5214469
1.521514
1.5214279
1.5215365
1.521456
1.5213571
1.5214758
1.5213734
1.5213799
1.5212977
1.5212993
1.5213831
1.5211982
1.5213137
1.52131
1.5212006
1.5214189
1.5214334
1.5213364
1.5213473
1.5212366
1.5213606
1.5212461
1.5213501
1.5210834
1.5211496
1.521061
1.5210003
1.5212573
1.5211666
1.521235
1.5211478
1.5210015
1.5208918
1.5209521
1.5210716
1.5211598
1.5211798
1.5210403
1.5210591
1.5213161
1.521397
1.5213076
1.5214076
1.5213331
1.5212314
1.521239
1.5213435
1.5214615
1.5214926
1.5213717
1.521399
1.5213987
1.5214285
1.5212945
1.5213203
1.5213018
1.521245
1.5211568
1.5212092
1.5212353
1.5211738
1.5210739
1.5211299
1.5213148
1.5213857
1.5212933
1.52141
1.5212143
1.5213203
1.5213429
1.5212339
1.5211761
1.5212509
1.5211679
1.521261
1.521067
1.521179
1.5211896
1.5210756
1.5213443
1.5212546
1.5213158
1.521231
1.5211274
1.5212434
1.5212682
1.5211498
1.521203
1.5211164
1.5211168
1.5212042
1.5211993
1.5212132
1.5211136
1.5211246
1.5210185
1.5211164
1.5210191
1.521118
1.5211258
1.521025
1.5211141
1.5210164
1.5211981
1.5211147
1.5211174
1.5212029
1.5210211
1.5211155
1.52102
1.5211193
1.5211618
1.5212372
1.521152
1.5212491
1.5211527
1.5210535
1.521062
1.5211636
1.5210201
1.5209507
1.5209515
1.5210225
1.5208755
1.5209542
1.5209522
1.520876
1.5209038
1.5209838
1.520992
1.5209063
1.5210538
1.5210636
1.5209824
1.5209898
1.5210186
1.5209477
1.5209473
1.5210193
1.5210166
1.5209461
1.5210261
1.520953
1.5208689
1.5208698
1.5209483
1.5209493
1.5209549
1.5209476
1.520871
1.5208734
1.5197508
1.5198015
1.5198028
1.5197602
1.5198111
1.5198686
1.5198772
1.5198437
1.5198066
1.5198457
1.5195291
1.5195643
1.5196068
1.5196213
1.5196258
1.5196344
1.5196816
1.5196856
1.5197079
1.5196675
1.5244509
1.5243983
1.5204934
1.5204796
1.5204596
1.5204448
1.5204852
1.5204637
1.520435
1.5204464
1.5205121
1.5205025
1.5204629
1.5204628
1.5204644
1.520509
1.5205276
1.5204841
1.5202289
1.5202743
1.5203819
1.5203283
1.5202171
1.520252
1.5203519
1.5203126
1.5203572
1.5204052
1.5204499
1.5204007
1.5203394
1.5203733
1.5204148
1.5203796
1.5204659
1.5204159
1.5204228
1.5203736
1.5203928
1.5202824
1.520245
1.5203435
1.5204098
1.5203039
1.5202762
1.5203665
1.5203965
1.5204332
1.5204894
1.5204494
1.5205486
1.520524
1.5204834
1.5205088
1.5205235
1.5205263
1.5204898
1.5204806
1.5205196
1.5205538
1.5205437
1.5205059
1.520575
1.5205435
1.5205088
1.5205412
1.5203514
1.5203293
1.5203118
1.5202937
1.5203148
1.5202163
1.5201934
1.5202833
1.5202028
1.5202466
1.5203439
1.5202932
1.5203577
1.5203166
1.5203506
1.5203922
1.5201647
1.5201839
1.5202751
1.5202593
1.5201078
1.5200555
1.5201125
1.5201856
1.5201242
1.5201119
1.5201668
1.5201939
1.520248
1.5202564
1.5202912
1.5202865
1.5201976
1.5201799
1.5202652
1.5202379
1.5201732
1.5201658
1.5202235
1.52024
1.5203404
1.5203162
1.5203145
1.5203412
1.5203344
1.5203345
1.5203592
1.5203649
1.5204149
1.5203848
1.5203683
1.520395
1.520434
1.5204014
1.5204224
1.5204621
1.5203916
1.5204094
1.5204314
1.520407
1.5204711
1.5204594
1.5204211
1.5204318
1.5205132
1.5205261
1.5204986
1.5205134
1.5205098
1.520506
1.5204832
1.5204894
1.520557
1.5205426
1.5205013
1.5205127
1.52054
1.5205793
1.5205645
1.5205271
1.5202928
1.5202975
1.5203561
1.5203499
1.5204484
1.5204429
1.5204397
1.5204448
1.5203482
1.5202968
1.5202991
1.5203553
1.520444
1.5204454
1.5204534
1.5204445
1.5204375
1.5203763
1.5204966
1.5204245
1.5203398
1.5203368
1.520387
1.5203903
1.5204765
1.5204705
1.5204672
1.5204736
1.5205056
1.520504
1.5205854
1.5205795
1.5206474
1.520572
1.5205632
1.5206286
1.5205431
1.5205331
1.5205154
1.5205246
1.5205425
1.5205752
1.5205879
1.5205522
1.5206904
1.5206206
1.5205952
1.520657
1.5216805
1.5215261
1.5217199
1.521562
1.521593
1.5215503
1.5214061
1.5214451
1.5218219
1.5218479
1.521658
1.5216822
1.5215353
1.5217137
1.5215581
1.5216887
1.5214277
1.5214743
1.5213654
1.5213219
1.5213435
1.5212276
1.5212749
1.5213951
1.521475
1.5215639
1.5214521
1.5215885
1.5214818
1.5215059
1.5213585
1.5213803
1.5215529
1.52163
1.5216629
1.5215236
1.5215681
1.5215804
1.5214614
1.5214703
1.5213717
1.5215007
1.5213793
1.52149
1.5215537
1.5215847
1.5214617
1.5214341
1.5219044
1.5217467
1.5218714
1.521716
1.5218338
1.5218172
1.521659
1.5216712
1.5217017
1.5216879
1.5215406
1.5215505
1.5216005
1.5216307
1.5217463
1.5217789
1.5221132
1.5218535
1.5221452
1.521884
1.5219111
1.5216903
1.521874
1.5216575
1.5222897
1.5222704
1.5219957
1.5220185
1.522047
1.5218164
1.5220224
1.521792
1.522583
1.5225521
1.5222388
1.5225692
1.5225703
1.5222446
1.5222801
1.5222958
1.5226003
1.5226019
1.5221208
1.5224188
1.5221009
1.5224317
1.522591
1.522252
1.5225918
1.522265
1.5225733
1.5224041
1.5222548
1.5222675
1.5219996
1.5219866
1.5220113
1.5217894
1.5218035
1.5220277
1.5220624
1.5222967
1.5220348
1.5223185
1.5220603
1.5218422
1.5220906
1.5218727
1.5226212
1.5226139
1.5226314
1.5226322
1.5223271
1.522329
1.5223241
1.5223367
1.5226385
1.5226395
1.5221061
1.5223573
1.5220978
1.5223667
1.5223614
1.5223778
1.5221085
1.5221282
1.5221207
1.5219029
1.5221325
1.5219108
1.5221554
1.5219209
1.5219427
1.5221328
1.5223409
1.5223489
1.522089
1.5220953
1.5221202
1.5219053
1.5221108
1.5219
1.5221034
1.5223393
1.5220799
1.5223579
1.5221037
1.5218879
1.5219141
1.52213
1.5226575
1.5226581
1.5223425
1.5223446
1.5223451
1.5223552
1.5226529
1.5226533
1.5226349
1.5226397
1.5219253
1.5217752
1.5217788
1.5219327
1.5218034
1.5216627
1.5218082
1.5216634
1.5219149
1.5219427
1.5217608
1.5217861
1.521647
1.5218168
1.5216705
1.5217902
1.5217805
1.5219283
1.5217732
1.5219389
1.5218015
1.5216571
1.5216619
1.5218104
1.5218194
1.5219479
1.5217967
1.5219719
1.5218266
1.5216844
1.5218501
1.5217052
1.5216751
1.5217003
1.5215925
1.5215704
1.5215863
1.5216897
1.5215871
1.5216919
1.5216158
1.5215028
1.5215004
1.5216163
1.5216001
1.5216236
1.521486
1.5215063
1.5215818
1.5216839
1.5215785
1.5216904
1.5214929
1.5216072
1.5216118
1.5214941
1.5217351
1.5216286
1.5217131
1.5216097
1.5215266
1.5216398
1.5216596
1.5215431
1.5213349
1.5214182
1.5213374
1.5214179
1.5214399
1.5214312
1.5213507
1.5213561
1.5213477
1.5212392
1.5213468
1.5212375
1.5213671
1.5212536
1.5212586
1.5213621
1.5215434
1.5215425
1.5214573
1.521456
1.5214811
1.5214801
1.5213828
1.5213812
1.5214741
1.5215491
1.5214623
1.5215638
1.5213886
1.5214876
1.5215005
1.5213983
1.5214194
1.5213347
1.5214082
1.5213267
1.5214006
1.5213994
1.5213184
1.5213181
1.5213284
1.5213261
1.5212184
1.5212184
1.5212279
1.5212355
1.5213378
1.5213461
1.5214714
1.5215607
1.521474
1.5215593
1.5214983
1.5213995
1.5213968
1.5214976
1.5214933
1.5215691
1.5214839
1.5215807
1.5215094
1.5214109
1.5215196
1.5214183
1.5215506
1.5215435
1.5214703
1.5214617
1.5214853
1.5213918
1.5214922
1.5214003
1.5214715
1.5215476
1.5214662
1.5215549
1.5214899
1.5213969
1.5214009
1.5214959
1.5214162
1.5213396
1.5213328
1.5214099
1.521347
1.5212458
1.5212403
1.5213424
1.5214151
1.5214198
1.5213384
1.5213406
1.5213481
1.5213504
1.5212461
1.5212485
1.5212935
1.5213767
1.5213046
1.5213652
1.52122
1.5213102
1.5213001
1.5212104
1.521305
1.5212936
1.5212424
1.5212327
1.5211692
1.5212394
1.5211644
1.5212479
1.5214165
1.5215078
1.5214304
1.5214936
1.5214147
1.5213994
1.5213486
1.5213348
1.5213533
1.5212788
1.5213671
1.5212913
1.5214497
1.5214368
1.521363
1.5213498
1.5212157
1.5211374
1.5211381
1.5212184
1.5212276
1.5212376
1.5211473
1.521155
1.5211565
1.5210615
1.5211477
1.5210552
1.521138
1.5211395
1.5210482
1.5210471
1.5209813
1.521048
1.5209827
1.521048
1.5209837
1.5209106
1.5209101
1.5209833
1.5210551
1.5210627
1.5209887
1.5209941
1.5209959
1.5209198
1.52099
1.5209183
1.5211596
1.5212394
1.5211602
1.5212403
1.5211612
1.5210697
1.521068
1.5211617
1.5211815
1.5212549
1.5211753
1.5212624
1.5211763
1.5210832
1.5211837
1.5210884
1.5210021
1.5210698
1.5210036
1.5210694
1.5210051
1.5209328
1.5210047
1.5209314
1.5210904
1.5210838
1.5210171
1.5210218
1.5210242
1.5209455
1.5210189
1.520946
1.5211457
1.5212208
1.5211539
1.5212124
1.5211541
1.5210771
1.5211464
1.5210691
1.5212439
1.5211706
1.5212411
1.5211669
1.5211681
1.5210824
1.5211711
1.521087
1.5211752
1.5212462
1.5211717
1.5212507
1.5211721
1.5210864
1.5210891
1.5211765
1.5209592
1.5210262
1.5210231
1.5209564
1.5210866
1.5210254
1.5210213
1.521083
1.5210861
1.5210244
1.5210899
1.5210267
1.5210282
1.5209603
1.5210256
1.520959
1.5209533
1.5209593
1.5210206
1.5210145
1.5210136
1.5210765
1.5210204
1.5210693
1.5209974
1.5209413
1.5213825
1.5213908
1.5214422
1.5214511
1.521448
1.521456
1.5214579
1.521449
1.5214266
1.52141
1.5213955
1.5214259
1.5215609
1.5215587
1.5214439
1.521449
1.5215541
1.5215467
1.5214555
1.5214623
1.5214219
1.5214308
1.5214224
1.5214125
1.521405
1.5214154
1.5214106
1.5213999
1.521478
1.5215021
1.5214668
1.5214595
1.5215351
1.5215196
1.5214691
1.5214675
1.5214522
1.5214506
1.5214467
1.5214499
1.5214399
1.521447
1.5214411
1.5214324
1.5214179
1.5214294
1.5214432
1.5223747
1.5224089
1.5221661
1.5219725
1.5234155
1.523306
1.5231424
1.5230515
1.5218367
1.5233093
1.5229716
1.5227229
1.5230206
1.5242474
1.5242963
1.5242644
1.5242303
1.5242578
1.5242604
1.5242328
1.5242964
1.524292
1.5242946
1.5243001
1.5243044
1.5242908
1.5242721
1.524245
1.5242361
1.5242586
1.5237663
1.5239741
1.5238882
1.5235146
1.5235079
1.5235771
1.5232962
1.5239487
1.524001
1.5232901
1.5236134
1.5235707
1.5233248
1.5240352
1.5239947
1.5239501
1.52398
1.5240684
1.524094
1.523999
1.5240181
1.5240448
1.5240138
1.5241105
1.5241016
1.5237582
1.5237024
1.5236986
1.5236554
1.5232309
1.5231969
1.5230722
1.5232866
1.5243046
1.5243028
1.5243102
1.5243089
1.5242959
1.5242944
1.5243019
1.5243002
1.5242797
1.5242813
1.5242452
1.5242442
1.5242774
1.5242735
1.5242461
1.5242317
1.5240586
1.5240173
1.5241203
1.5241078
1.5237119
1.5237948
1.5233322
1.5230288
1.5235899
1.5239062
1.5238741
1.5235797
1.5235872
1.5238613
1.5238144
1.5235545
1.5241088
1.5241248
1.5240946
1.5241163
1.5240176
1.524065
1.5240058
1.5240571
1.5238193
1.5237201
1.5238445
1.5237262
1.5234841
1.5237199
1.5236214
1.523427
1.5233993
1.5233634
1.5230031
1.5229736
1.5230009
1.5233771
1.5232731
1.5230037
1.524289
1.5242872
1.5242951
1.5242926
1.5242728
1.5242676
1.524244
1.524225
1.5236538
1.5239945
1.5239833
1.5236696
1.5236922
1.5239994
1.5239879
1.523682
1.5242828
1.5242869
1.5242481
1.524255
1.5242778
1.5242806
1.5242447
1.5242478
1.5236783
1.5239938
1.523979
1.523679
1.5236732
1.5239734
1.5239429
1.5236394
1.5242592
1.5242659
1.5242283
1.5242373
1.5242171
1.5242388
1.5241889
1.5242122
1.5219311
1.522413
1.5226088
1.5222482
1.5225748
1.5227058
1.5225295
1.5224563
1.5227512
1.5241821
1.5241673
1.5241374
1.5242366
1.5242819
1.5242711
1.5242833
1.5240967
1.5241806
1.524111
1.524201
1.5241177
1.5241803
1.5242858
1.5242976
1.5242811
1.5242713
1.5243339
1.5243505
1.5243579
1.5243339
1.5243282
1.524348
1.524342
1.524353
1.5243542
1.5243526
1.5243601
1.5243594
1.5243533
1.524354
1.5243475
1.5243419
1.5243471
1.5242008
1.5242067
1.523984
1.5240648
1.5238457
1.523984
1.5241715
1.5241952
1.5242913
1.5242859
1.5243066
1.5243057
1.5242693
1.5242758
1.5242927
1.5242989
1.5243479
1.5243421
1.5243562
1.524351
1.524339
1.5243403
1.5243325
1.5243295
1.5243599
1.5243524
1.5243613
1.5243549
1.5243383
1.5243403
1.5243424
1.5243427
1.5241504
1.5241867
1.5237588
1.5239638
1.5242558
1.5242654
1.5242818
1.5242906
1.5236771
1.5239361
1.523862
1.5235252
1.5235238
1.5231274
1.5227203
1.5231634
1.5238705
1.5237693
1.5234352
1.5235418
1.5241738
1.5241264
1.5241346
1.5240665
1.5239371
1.5239204
1.5235787
1.5236043
1.5239766
1.5239536
1.523629
1.5236417
1.5242523
1.5242406
1.5242132
1.5241985
1.5242795
1.5242694
1.5242439
1.5242307
1.5243266
1.5243297
1.5243318
1.5243324
1.5243311
1.5243291
1.5243236
1.5243199
1.5243174
1.5243138
1.5242744
1.5242792
1.5240108
1.5240007
1.5236719
1.5236938
1.523706
1.5240231
1.5240168
1.5236983
1.5243207
1.5243201
1.5242851
1.5242849
1.5236969
1.5240267
1.5240221
1.5237035
1.5237074
1.5240258
1.5240124
1.523683
1.5243177
1.5243204
1.5242826
1.5242874
1.524309
1.5243132
1.5242748
1.5242803
1.5243633
1.5244166
1.5233374
1.5224889
1.5233042
1.5224506
1.523336
1.5224908
1.5233507
1.5225103
1.5233464
1.522502
1.5233294
1.52248
1.5233128
1.5224645
1.5233512
1.5225082
1.5228771
1.5221268
1.5224524
1.5218375
1.5231938
1.5223378
1.5231215
1.5223153
1.5232365
1.5223814
1.5232067