/*--------------------------------*- C++ -*----------------------------------*\
  =========                 |
  \\      /  F ield         | OpenFOAM: The Open Source CFD Toolbox
   \\    /   O peration     | Website:  https://openfoam.org
    \\  /    A nd           | Version:  7
     \\/     M anipulation  |
\*---------------------------------------------------------------------------*/
FoamFile
{
    version     2.0;
    format      ascii;
    class       volScalarField;
    location    "2000";
    object      nut;
}
// * * * * * * * * * * * * * * * * * * * * * * * * * * * * * * * * * * * * * //

dimensions      [0 2 -1 0 0 0 0];

internalField   nonuniform List<scalar> 
33730
(
1.5670212e-89
1.7995022e-90
2.1480698e-90
2.2147446e-91
2.2422364e-91
3.0380808e-91
8.0103456e-90
2.688279e-91
6.8872437e-90
1.2262466e-90
1.0672932e-90
3.0184591e-91
3.8031618e-91
1.2295602e-90
4.344797e-91
4.2713011e-91
1.2893201e-90
1.7788961e-91
8.3364025e-92
2.4042042e-91
1.565354e-91
2.6165234e-91
9.6000392e-92
2.0745958e-91
1.8993456e-91
2.1577856e-91
2.0992202e-91
5.3537363e-91
1.4929835e-91
1.798402e-91
6.3502757e-91
6.1421295e-91
6.0677027e-91
5.3523119e-90
4.8434741e-90
4.760019e-91
1.198652e-91
1.5047556e-91
5.9295589e-91
5.5481385e-91
5.7098391e-91
4.5737015e-90
5.0664611e-90
5.4153115e-91
3.0958339e-91
5.7524196e-91
2.9634712e-91
4.7596439e-91
5.0929321e-91
2.6579299e-91
2.5112634e-91
2.7600807e-91
5.3263864e-91
2.6340856e-91
4.916274e-91
4.9053007e-91
5.1534425e-91
2.6687271e-91
2.8947429e-91
1.1258454e-91
9.4056205e-92
6.2111034e-92
5.6629487e-92
6.3106127e-92
1.0825225e-91
8.6297508e-92
8.6290633e-92
6.7687621e-92
1.8603925e-91
1.7721016e-91
1.786461e-91
1.9691325e-91
8.7108049e-92
9.7868711e-92
1.0340169e-91
1.1183782e-91
8.2953949e-92
8.8113709e-92
1.1156684e-91
1.5962578e-91
1.6048005e-91
1.868502e-91
1.8755397e-91
5.9247852e-92
4.3079098e-92
5.4914325e-92
1.8084922e-91
1.909064e-91
1.7709169e-91
1.7252489e-91
1.7312613e-91
1.6983733e-91
1.8158709e-91
1.6708051e-91
1.9570814e-91
1.8582841e-91
2.0474156e-91
1.3892111e-91
1.5718243e-91
1.9487491e-91
2.7360282e-91
4.3064633e-91
2.7193836e-91
4.357214e-91
2.917715e-91
2.7820178e-91
4.3015603e-91
4.5876733e-91
5.2472191e-91
5.2124168e-91
2.109646e-90
2.0687625e-90
5.0114593e-91
5.1040282e-91
1.9804857e-90
2.1785252e-90
2.2020444e-91
1.4800166e-91
1.7393393e-91
2.0933577e-91
2.9912242e-91
2.9278742e-91
4.5571194e-91
4.6736266e-91
2.8188813e-91
2.8229118e-91
4.5109539e-91
4.466612e-91
5.2703122e-91
5.2678701e-91
2.025564e-90
2.2096121e-90
5.4189421e-91
5.4245441e-91
2.1536908e-90
2.1983241e-90
1.7682121e-91
2.101314e-91
2.208051e-91
1.6517453e-91
2.2233407e-91
2.2616064e-91
1.7588295e-91
1.8137934e-91
1.9931941e-91
2.1176135e-91
1.6193355e-91
1.5908255e-91
2.0998767e-91
2.1865403e-91
1.6845756e-91
1.6253523e-91
2.1517635e-91
2.1675878e-91
1.6620708e-91
1.620531e-91
1.9714416e-91
2.1007312e-91
1.5676235e-91
1.5453522e-91
1.9493371e-91
1.6006703e-91
1.4762389e-91
1.8300458e-91
1.9714886e-91
2.0660347e-91
1.6306778e-91
1.5694311e-91
7.9514284e-92
8.1094858e-92
7.4187003e-92
7.6414366e-92
7.9569012e-92
7.3280245e-92
6.1651551e-92
6.2267212e-92
5.8254231e-92
5.7427944e-92
6.5798126e-92
5.9110892e-92
5.7444541e-92
6.2751947e-92
6.0275807e-92
4.0675008e-92
4.1859973e-92
4.3107377e-92
4.2034588e-92
4.3088061e-92
4.4630318e-92
4.2267532e-92
8.613541e-92
8.2641594e-92
7.9631086e-92
8.0310144e-92
6.4552215e-92
6.0108771e-92
5.6845385e-92
6.0434512e-92
6.2063012e-92
6.7024663e-92
6.8486442e-92
3.4494114e-92
3.4913616e-92
3.4875049e-92
3.7488653e-92
1.4392914e-91
1.514162e-91
1.5958853e-91
1.4160087e-91
1.2229471e-91
1.2712877e-91
1.2089542e-91
1.2368417e-91
1.1987507e-91
1.1840407e-91
1.2190146e-91
1.1107503e-91
1.5533406e-91
1.5634576e-91
1.4998117e-91
1.4433001e-91
6.1202915e-92
6.0310763e-92
2.2951636e-91
2.7525309e-91
7.3504194e-92
7.0931491e-92
6.352012e-92
6.4208467e-92
4.6335849e-92
5.5099127e-92
6.0641197e-92
4.5190975e-92
4.2554418e-92
5.5286342e-92
5.6841856e-92
4.256047e-92
9.4525441e-92
8.5700221e-92
8.4414845e-92
8.8341059e-92
7.0292576e-92
5.9310007e-92
6.1643258e-92
6.471157e-92
5.896216e-92
7.0173663e-92
6.466542e-92
6.168227e-92
8.5739086e-92
8.9486539e-92
8.2973418e-92
8.3523912e-92
1.1489198e-91
1.1180758e-91
1.0966667e-91
1.1610681e-91
1.0913859e-91
1.0501347e-91
1.0400729e-91
1.0750677e-91
1.5435384e-91
1.4496412e-91
1.5829376e-91
1.5263318e-91
1.4054286e-91
1.4890135e-91
1.4398507e-91
1.4058761e-91
1.9460495e-92
3.7518378e-92
2.6928402e-92
2.9706773e-92
3.0310499e-92
2.5474016e-92
2.8552071e-92
2.480954e-92
3.0952317e-92
2.4719705e-92
1.2061227e-91
1.2308649e-91
1.3134384e-91
1.2337924e-91
1.178271e-91
1.2137223e-91
1.1944588e-91
1.2429552e-91
1.1647284e-91
1.1465967e-91
1.1358358e-91
1.087415e-91
1.2174282e-91
1.1813564e-91
1.2098201e-91
1.1215552e-91
3.2340242e-91
3.4465455e-91
2.7816022e-91
3.2384335e-91
3.1417119e-91
1.2317634e-91
1.3300278e-91
2.7373162e-91
3.0667445e-91
3.1461914e-91
1.8733039e-91
1.8858428e-91
1.9310542e-91
1.9881672e-91
2.590417e-91
2.6366039e-91
1.9676866e-91
1.8965163e-91
2.4755646e-91
2.5662614e-91
1.9596142e-91
1.9546223e-91
5.4564795e-91
5.9396762e-91
1.711128e-91
1.7755433e-91
1.7766089e-91
5.686678e-91
1.7436037e-91
5.6435257e-91
2.6682955e-91
2.6897313e-91
2.0151674e-91
1.9417603e-91
2.7072291e-91
2.5875153e-91
2.0137253e-91
2.0059513e-91
5.4758625e-91
5.9586563e-91
1.7676429e-91
1.8566897e-91
5.8922234e-91
6.0134195e-91
1.8599788e-91
1.8168274e-91
3.1463168e-91
3.4560062e-91
3.3683363e-91
1.3803385e-91
1.5408243e-91
2.9839698e-91
3.2406382e-91
3.2977436e-91
2.0681841e-91
2.0670064e-91
1.9921075e-91
1.9522841e-91
2.8018497e-91
2.7604181e-91
2.0451072e-91
1.9596786e-91
2.7444801e-91
2.5884623e-91
2.0431551e-91
2.0397301e-91
1.8202506e-91
5.4032979e-91
5.8269179e-91
1.9045876e-91
5.6659854e-91
5.9418598e-91
1.9121327e-91
1.9030809e-91
2.6893865e-91
2.6857838e-91
1.9045751e-91
1.987983e-91
2.6441453e-91
2.5427833e-91
1.9903476e-91
2.0092287e-91
1.7660905e-91
5.4691583e-91
5.9068335e-91
1.820815e-91
5.8809744e-91
5.970772e-91
1.8390741e-91
1.8064709e-91
2.1959671e-91
2.1185866e-91
6.0047602e-92
6.0470035e-92
2.3936552e-91
2.3027248e-91
6.2223736e-92
5.9144999e-92
2.2486448e-91
2.1470143e-91
6.0128525e-92
6.0041361e-92
2.2259247e-91
2.2049357e-91
6.8790722e-92
6.5878241e-92
2.1224435e-91
1.9474478e-91
5.6886869e-92
5.785028e-92
2.2703609e-91
2.2004978e-91
6.0197619e-92
5.7639546e-92
2.0633013e-91
1.9663699e-91
5.4352138e-92
5.6635574e-92
2.2836664e-91
2.1971257e-91
6.1362507e-92
5.8126804e-92
2.1933937e-91
2.0595888e-91
5.6414642e-92
5.7531774e-92
2.2327476e-91
2.2887027e-91
6.1982188e-92
5.783667e-92
2.0558214e-91
1.9417688e-91
5.3252226e-92
5.5884899e-92
2.2575191e-91
2.2135515e-91
5.7809193e-92
5.558827e-92
1.8733199e-91
1.7798883e-91
5.4391334e-92
5.4125886e-92
1.7810505e-91
1.8918662e-91
5.7271043e-92
5.0267335e-92
1.9995273e-91
1.8293622e-91
5.7304395e-92
5.8098061e-92
2.2378442e-91
2.2339135e-91
5.9323953e-92
5.5570108e-92
2.6187517e-91
8.1739252e-92
8.0472423e-92
7.4741076e-92
7.2977816e-92
8.3544126e-92
7.6755009e-92
8.6460369e-92
7.8832202e-92
8.9217697e-92
7.2957514e-92
8.6395537e-92
7.0688659e-92
9.1501956e-92
7.4577023e-92
9.421642e-92
7.6529334e-92
5.3827307e-92
6.3264777e-92
7.185509e-92
6.1226593e-92
7.4582119e-92
6.1025798e-92
4.8681629e-92
6.2876054e-92
7.6736965e-92
6.4957755e-92
5.9243917e-92
5.7447402e-92
5.9111377e-92
5.6074768e-92
6.2516951e-92
6.0041939e-92
6.4599481e-92
6.1100494e-92
4.3329443e-92
4.4188966e-92
4.617254e-92
4.7420755e-92
4.3762388e-92
4.0383449e-92
4.0180314e-92
4.3520613e-92
4.2705521e-92
4.1743414e-92
4.5353048e-92
4.8243543e-92
8.6687158e-92
1.0389196e-91
8.5656644e-92
1.0500905e-91
8.5361261e-92
6.5700075e-92
6.6218281e-92
8.6139905e-92
9.1849982e-92
1.0856342e-91
9.1062443e-92
1.0919754e-91
9.0639934e-92
6.9432715e-92
9.3149016e-92
6.9295699e-92
1.6226701e-91
1.5717526e-91
1.1530973e-91
1.134315e-91
1.2367083e-91
1.2221913e-91
1.7330068e-91
1.7424488e-91
1.0534348e-91
2.9409411e-92
3.2172476e-92
3.229546e-92
2.8773882e-92
1.1284508e-91
3.2018088e-92
3.1219488e-92
2.8958669e-92
3.016005e-92
2.8924473e-92
2.8726775e-92
2.7515784e-92
2.7405996e-92
9.0057184e-92
9.2014066e-92
8.171198e-92
8.2693217e-92
8.8029832e-92
8.1112577e-92
9.3054353e-92
8.5481688e-92
9.5814142e-92
7.7800581e-92
1.0116924e-91
8.1740437e-92
9.6846991e-92
7.8631737e-92
9.7697534e-92
7.8821367e-92
6.5667374e-92
6.2880738e-92
6.77992e-92
6.3480046e-92
4.5457835e-92
4.6888072e-92
5.1064296e-92
4.847033e-92
4.2978469e-92
4.5011601e-92
4.6099169e-92
4.918813e-92
4.8491019e-92
4.1487316e-92
6.3827874e-92
6.2122779e-92
6.6533598e-92
6.4506357e-92
4.3206994e-92
4.5016014e-92
3.5827181e-92
3.3830437e-92
3.572369e-92
3.7214907e-92
3.5605792e-92
3.7501845e-92
4.0987961e-92
3.6897179e-92
2.1981524e-92
2.2497854e-92
2.2384446e-92
2.1252962e-92
2.3063318e-92
2.2577317e-92
2.2352716e-92
2.2792799e-92
2.463461e-92
2.5180074e-92
2.2080702e-92
2.2086684e-92
2.3857725e-92
2.6463076e-92
2.7228436e-92
2.4229855e-92
6.7937058e-92
6.0164177e-92
5.9172517e-92
4.3560676e-92
5.6285623e-92
5.838708e-92
7.4153046e-92
1.1741338e-91
1.1425514e-91
8.2802489e-92
8.4187387e-92
1.0121079e-91
1.0647322e-91
9.1705555e-92
9.41788e-92
1.0736829e-91
9.6618977e-92
1.0887036e-91
9.7043194e-92
1.0656992e-91
7.9548166e-92
1.0481934e-91
8.0821804e-92
1.0048145e-91
7.9184203e-92
1.0058747e-91
7.7963752e-92
1.0354077e-91
1.0849329e-91
8.9423182e-92
9.2295778e-92
1.0188685e-91
8.9368273e-92
1.0393665e-91
9.0026409e-92
9.8160256e-92
7.8099809e-92
1.0002135e-91
7.9121006e-92
1.0329974e-91
1.0446323e-91
8.0691341e-92
8.0302089e-92
9.7909971e-92
8.3497738e-92
1.039566e-91
8.6264499e-92
1.0804474e-91
9.3215008e-92
1.116796e-91
9.5206591e-92
9.0976944e-92
7.2489238e-92
9.317603e-92
7.3774516e-92
1.0312179e-91
1.0381406e-91
9.4101119e-92
9.4073346e-92
1.044938e-91
9.4862124e-92
1.0875467e-91
9.7124723e-92
1.1389618e-91
8.467806e-92
8.644094e-92
1.1218058e-91
1.1631423e-91
1.1321683e-91
8.4946873e-92
8.5112812e-92
1.9085302e-92
1.8590277e-92
3.7246416e-92
3.5884582e-92
1.9860159e-92
1.9373231e-92
3.5437304e-92
3.9361357e-92
5.4646245e-92
5.4861852e-92
3.7311195e-92
3.5706698e-92
3.7789021e-92
3.8887431e-92
3.8883678e-92
3.3737401e-92
3.9659847e-92
3.5828863e-92
4.4556371e-92
4.5750204e-92
4.2468181e-92
4.0454573e-92
4.4949509e-92
4.3650845e-92
4.1522003e-92
4.2155965e-92
3.0590174e-92
2.8792229e-92
2.4473454e-92
2.6336395e-92
2.4867976e-92
2.7664303e-92
3.1416002e-92
2.4325377e-92
3.0050908e-92
3.0548563e-92
2.3584314e-92
2.3192403e-92
2.7365711e-92
2.540356e-92
2.8658067e-92
2.5824769e-92
3.2615316e-92
2.8535337e-92
2.4662092e-92
2.6281826e-92
2.8173673e-92
2.2897009e-92
3.1824491e-92
2.4918882e-92
2.7444208e-92
2.6886069e-92
2.2232629e-92
2.3150532e-92
2.8022611e-92
2.6802753e-92
2.5213044e-92
2.5623953e-92
9.7762698e-92
8.961557e-92
1.0107446e-91
9.1497335e-92
1.0573051e-91
8.6002124e-92
1.0757728e-91
8.6803794e-92
1.0238941e-91
9.6514586e-92
7.7415163e-92
8.0006668e-92
9.6009693e-92
8.8321376e-92
8.1590331e-92
8.6334904e-92
7.3696225e-92
6.9471767e-92
7.4211279e-92
6.9871316e-92
5.0392381e-92
4.5455306e-92
4.1494016e-92
4.5065781e-92
4.9074432e-92
4.9354904e-92
5.2000887e-92
5.2331322e-92
6.0954384e-92
6.1013e-92
6.6510476e-92
6.460541e-92
4.9345381e-92
5.1174294e-92
4.5881601e-92
4.5133521e-92
6.7983532e-92
7.3108462e-92
6.4187953e-92
6.6517123e-92
6.6392101e-92
6.5347323e-92
6.6761669e-92
6.5440866e-92
4.6105344e-92
4.9200927e-92
5.252295e-92
4.9191129e-92
9.1200355e-92
8.4485397e-92
9.3074978e-92
8.5605423e-92
9.0959756e-92
8.3272329e-92
9.5484727e-92
8.6234479e-92
1.0190437e-91
1.0084772e-91
8.3039773e-92
8.2942535e-92
9.9942229e-92
8.219494e-92
1.0313082e-91
8.4287724e-92
9.4930126e-92
9.4960443e-92
7.5277763e-92
7.4713838e-92
9.6642214e-92
8.3599168e-92
1.0278141e-91
8.8458309e-92
9.7157076e-92
9.2686093e-92
7.3629183e-92
7.6585798e-92
9.9185921e-92
8.4611672e-92
1.0122384e-91
8.5679201e-92
9.2062589e-92
7.9518183e-92
9.6130423e-92
8.241425e-92
8.9428043e-92
7.1189844e-92
9.1952319e-92
7.2658069e-92
8.6792907e-92
6.8654832e-92
8.4313653e-92
6.6391966e-92
9.0866362e-92
8.9444485e-92
7.6726503e-92
7.769608e-92
9.702464e-92
1.0261093e-91
9.413683e-92
8.9359619e-92
1.0906951e-91
7.8643509e-92
1.1120418e-91
8.2952343e-92
1.0013121e-91
8.9841758e-92
1.0192314e-91
9.1125829e-92
1.0893725e-91
8.0534075e-92
1.0633952e-91
8.1477205e-92
8.9902171e-92
8.1049517e-92
9.3437812e-92
8.6011253e-92
9.6590111e-92
8.8498983e-92
7.7888691e-92
1.0680685e-91
1.0642324e-91
7.9606999e-92
7.5407691e-92
1.0050538e-91
7.2341316e-92
3.4107762e-92
7.8605458e-93
8.0132488e-93
1.2621063e-92
1.3253496e-92
1.7739305e-92
1.9875602e-92
1.779344e-92
2.0815475e-92
1.8093202e-92
1.8509012e-92
1.8584577e-92
1.7432752e-92
1.7143958e-92
1.810462e-92
1.7250705e-92
1.7743741e-92
1.9723637e-92
1.8686181e-92
1.7581712e-92
1.7813228e-92
1.9593771e-92
2.8090605e-92
2.7021118e-92
2.1174036e-92
1.5379162e-92
1.6568484e-92
1.6356282e-92
1.385177e-92
1.9924312e-92
2.6899961e-92
2.5836281e-92
1.8658814e-92
1.4917327e-92
1.5640478e-92
1.5899112e-92
1.3798897e-92
1.997406e-92
3.0123023e-92
2.0688843e-92
6.1376318e-92
6.6225405e-92
6.1524386e-92
6.3593161e-92
6.8114511e-92
6.8243909e-92
6.3213522e-92
6.0259428e-92
6.0487495e-92
5.3455536e-92
6.0455691e-92
6.0459267e-92
5.7119023e-92
6.4696698e-92
5.9552214e-92
6.2214595e-92
6.0031885e-92
5.9583081e-92
6.4054338e-92
5.7659956e-92
5.307697e-92
6.0887287e-92
5.5903662e-92
5.3859703e-92
6.0246871e-92
6.2281256e-92
6.0526727e-92
5.5394498e-92
5.9926933e-92
5.7195185e-92
6.0637109e-92
5.3215907e-92
3.5532564e-91
2.7773172e-91
1.4329624e-91
1.3315752e-91
3.1166231e-91
1.2515904e-91
1.1367319e-91
2.1643966e-91
1.2975437e-91
1.3013848e-91
1.5663192e-91
1.6497415e-91
2.2444494e-91
1.2379802e-91
1.2733818e-91
1.5714091e-91
1.5392728e-91
2.083883e-91
1.9404725e-91
1.9378304e-91
2.1300987e-91
1.6713708e-91
1.6387112e-91
1.9820696e-91
2.0017171e-91
1.6367271e-91
1.9738512e-91
2.1130751e-91
1.6094312e-91
2.1885557e-91
1.9721941e-91
2.2152638e-91
1.9425134e-91
1.7078421e-91
1.6706966e-91
2.0802425e-91
2.1005934e-91
2.0540146e-91
2.2015547e-91
1.6979662e-91
1.6698777e-91
2.0885253e-91
1.0033451e-91
1.0114517e-91
2.0618561e-91
2.0592226e-91
2.0173473e-91
9.5460168e-92
9.8136464e-92
1.9856566e-91
2.0050456e-91
9.680211e-92
9.443689e-92
9.5589042e-92
1.9410554e-91
9.6594459e-92
1.9605938e-91
7.4151675e-92
6.4622849e-92
6.8130516e-92
7.6815218e-92
7.8742269e-92
7.0419413e-92
6.7923637e-92
7.7612643e-92
6.0122328e-92
6.0044773e-92
6.4193944e-92
5.7196389e-92
5.705916e-92
5.7845852e-92
6.5710524e-92
6.3840478e-92
5.8342085e-92
5.8052138e-92
5.853017e-92
6.2914093e-92
7.3155264e-92
6.375238e-92
6.5103912e-92
7.4295131e-92
5.9144592e-92
5.5487409e-92
5.5295533e-92
6.0045403e-92
6.3137423e-92
6.463e-92
7.3124715e-92
7.1949609e-92
2.1281143e-91
1.0263788e-91
1.0280767e-91
2.0841425e-91
2.083629e-91
2.074458e-91
9.7094069e-92
9.944e-92
2.0779319e-91
2.095735e-91
9.6876503e-92
9.8075631e-92
2.0465693e-91
2.0519583e-91
9.8275079e-92
9.9144345e-92
7.6557797e-92
6.6042385e-92
7.0819259e-92
7.9304708e-92
8.050149e-92
7.2076043e-92
7.0123829e-92
7.8933372e-92
6.1021815e-92
6.1207953e-92
6.591813e-92
5.7213911e-92
5.7924111e-92
5.905975e-92
6.718448e-92
6.4149331e-92
7.7063014e-92
6.7223526e-92
6.998197e-92
7.8885404e-92
7.8640501e-92
6.9574121e-92
6.7110743e-92
7.727928e-92
5.87071e-92
5.9769708e-92
6.749886e-92
6.0135222e-92
5.6047663e-92
5.6409695e-92
6.5940873e-92
6.374139e-92
1.4125513e-91
1.5155319e-91
3.0956834e-91
2.4991321e-91
1.3541936e-91
1.420123e-91
1.7190546e-91
1.7131283e-91
2.5956271e-91
1.3217367e-91
1.3277334e-91
1.5945984e-91
1.634829e-91
2.3323571e-91
2.1543859e-91
2.3640475e-91
2.0745401e-91
1.7070403e-91
1.754954e-91
2.1166785e-91
2.1252353e-91
2.0599885e-91
2.2630346e-91
1.7309336e-91
1.7026046e-91
2.1009836e-91
2.1027565e-91
2.1997249e-91
2.0029342e-91
1.6937836e-91
1.6695908e-91
2.1963611e-91
1.9935582e-91
1.9589702e-91
2.2424635e-91
1.6727729e-91
1.7187896e-91
2.1486052e-91
1.0482834e-91
2.0959016e-91
1.0520554e-91
2.0953275e-91
2.1092494e-91
9.8135053e-92
1.0035524e-91
2.094512e-91
2.1080032e-91
9.8126671e-92
1.0040566e-91
1.0141111e-91
2.0737767e-91
2.0576817e-91
1.0201428e-91
6.2902973e-92
6.2142556e-92
6.269217e-92
5.2748212e-92
7.0393586e-92
6.49638e-92
7.5354904e-92
7.8748721e-92
7.1538641e-92
7.1616255e-92
7.8564614e-92
7.8059122e-92
5.8534727e-92
5.9748815e-92
6.4646054e-92
5.8475875e-92
7.0890136e-92
6.6715652e-92
7.5494885e-92
7.6627141e-92
6.8996847e-92
7.0214385e-92
7.6633903e-92
7.7134741e-92
6.0432994e-92
6.0864141e-92
6.532967e-92
5.4816168e-92
5.7176405e-92
5.7605262e-92
6.2556063e-92
5.9254643e-92
2.0706005e-91
2.0563019e-91
9.6560948e-92
9.9309946e-92
1.029237e-91
2.1147994e-91
2.0762513e-91
1.0303746e-91
9.6434856e-92
2.0354511e-91
9.8885654e-92
2.044581e-91
1.9832981e-91
1.995669e-91
9.8271585e-92
9.9033215e-92
6.0579748e-92
6.0917252e-92
5.589056e-92
6.631167e-92
7.0900468e-92
6.5946215e-92
7.7188614e-92
7.9197289e-92
7.9525878e-92
7.1029433e-92
7.0734217e-92
7.928076e-92
5.7386798e-92
5.8439769e-92
6.7010187e-92
6.1106953e-92
7.741203e-92
6.594186e-92
6.9584917e-92
7.9100716e-92
7.8505127e-92
6.8477665e-92
6.7287151e-92
7.7619655e-92
5.9640264e-92
5.9482939e-92
6.4493448e-92
5.565669e-92
5.6641105e-92
5.7000325e-92
6.2779819e-92
5.9111475e-92
2.7671913e-91
9.3728168e-92
8.8389405e-92
9.160736e-92
9.1633358e-92
9.2475716e-92
8.7867121e-92
9.0585561e-92
9.3545886e-92
9.061417e-92
8.37643e-92
8.9956661e-92
9.0272583e-92
8.7491586e-92
8.2815209e-92
8.6851653e-92
8.6572507e-92
8.902762e-92
8.4802606e-92
8.4428934e-92
8.7167019e-92
8.6169049e-92
7.9980643e-92
8.7184052e-92
8.7796834e-92
8.1048065e-92
7.8418189e-92
7.6954017e-92
8.6133039e-92
8.0983113e-92
8.4915601e-92
8.6011421e-92
7.5237353e-92
6.4052933e-92
6.4945198e-92
7.5964029e-92
7.1712684e-92
7.1324203e-92
6.0286601e-92
6.0216299e-92
5.0330131e-92
6.3210962e-92
5.0262336e-92
6.4296975e-92
5.9227809e-92
4.6745966e-92
5.9693983e-92
4.7317505e-92
6.8682496e-92
7.823105e-92
6.664363e-92
8.1001843e-92
6.6692323e-92
5.3134105e-92
5.3193201e-92
6.8436539e-92
6.9577718e-92
8.026323e-92
6.7763755e-92
8.2070357e-92
6.7590942e-92
5.3702307e-92
6.8586594e-92
5.3539089e-92
5.5212553e-92
4.8718476e-92
4.923556e-92
5.6510888e-92
4.0277417e-92
4.9846494e-92
4.9457235e-92
4.018667e-92
5.2648488e-92
5.2420895e-92
4.6087579e-92
4.5730805e-92
3.813315e-92
4.6073913e-92
3.7482909e-92
4.6769936e-92
5.2274373e-92
5.908034e-92
5.229049e-92
5.9669154e-92
4.3430046e-92
5.3412237e-92
5.3117373e-92
4.2989778e-92
6.086231e-92
5.3238067e-92
6.0333092e-92
5.2863266e-92
4.3625693e-92
5.3662697e-92
5.3871147e-92
4.3628611e-92
7.2877564e-92
7.1575483e-92
7.3690369e-92
6.9664449e-92
7.6172388e-92
7.3325647e-92
6.9971195e-92
7.6100022e-92
8.1687579e-92
7.6901908e-92
8.087538e-92
1.0839838e-91
1.1005492e-91
8.9369478e-92
9.0070357e-92
8.9777004e-92
6.8685581e-92
6.8803479e-92
8.9189771e-92
1.0171578e-91
1.0266052e-91
8.3859468e-92
8.3639596e-92
8.4255912e-92
8.4552975e-92
6.4587236e-92
6.41627e-92
9.3707332e-92
1.1143785e-91
9.2255681e-92
1.1307127e-91
9.2276871e-92
7.1007481e-92
7.1494085e-92
9.321552e-92
9.5375396e-92
1.1369231e-91
9.3439653e-92
1.152396e-91
9.4077977e-92
7.1905125e-92
9.8055055e-92
7.2630408e-92
1.7324332e-91
1.7290953e-91
1.2254477e-91
1.2225752e-91
1.2465078e-91
1.2374441e-91
1.7333715e-91
1.7138303e-91
1.055111e-91
3.1214292e-92
1.1079315e-91
3.1966436e-92
3.5079058e-92
3.5492744e-92
1.6905065e-91
1.7141576e-91
1.1937513e-91
1.2059627e-91
1.1251701e-91
1.1110761e-91
1.5949367e-91
1.5780886e-91
1.0141188e-91
2.868173e-92
1.082115e-91
2.8596338e-92
3.1364383e-92
3.2631364e-92
3.0098732e-92
3.1445136e-92
3.1078015e-92
2.9747352e-92
2.8696043e-92
2.9573329e-92
2.7249289e-92
3.1162691e-92
8.0869811e-92
8.0586529e-92
7.5611736e-92
8.6198781e-92
7.8549463e-92
7.0916604e-92
7.3615691e-92
8.4348502e-92
9.1542906e-92
8.2255489e-92
9.2852896e-92
8.6409333e-92
7.8249736e-92
1.9364384e-91
1.8971252e-91
1.0653541e-91
1.0949088e-91
1.2414159e-91
1.2418574e-91
2.1611786e-91
2.1476579e-91
3.0260695e-92
2.5253222e-92
1.1358809e-91
2.66804e-92
3.151017e-92
1.1603944e-91
1.0963507e-91
1.1775916e-91
2.8488672e-92
2.9396445e-92
3.5102533e-92
3.3771127e-92
1.1707877e-91
1.1176006e-91
9.6300875e-92
9.6129111e-92
9.8076594e-92
9.6570711e-92
9.5038399e-92
9.7372446e-92
1.0028933e-91
7.2175068e-92
8.3430923e-92
7.06751e-92
8.442323e-92
8.4961692e-92
8.3895883e-92
7.0897217e-92
7.1427154e-92
6.9677753e-92
5.5400529e-92
7.1035652e-92
5.5533519e-92
7.0583588e-92
5.5977819e-92
5.5747418e-92
7.0379025e-92
8.1341888e-92
6.9232115e-92
8.4014851e-92
7.177299e-92
7.0033673e-92
5.5479057e-92
6.8724271e-92
5.4485689e-92
7.3815003e-92
8.4198667e-92
7.0811552e-92
8.6511913e-92
7.0465106e-92
5.5930121e-92
5.6546118e-92
7.2473704e-92
6.0565127e-92
5.3299623e-92
5.4439824e-92
6.1860193e-92
5.3905226e-92
4.3853861e-92
4.4694492e-92
5.4808852e-92
6.2486426e-92
6.4475024e-92
5.4507271e-92
5.5553927e-92
5.5088677e-92
5.5882783e-92
4.4737189e-92
4.515684e-92
5.469267e-92
6.1468837e-92
5.4055867e-92
6.2160994e-92
4.4558579e-92
5.4799537e-92
5.5269393e-92
4.4795676e-92
5.5165558e-92
6.2668057e-92
5.4632412e-92
6.3110599e-92
4.5221421e-92
5.5561768e-92
5.5653034e-92
4.5113019e-92
1.1888752e-91
1.2128771e-91
9.8344472e-92
9.9742494e-92
9.9121829e-92
7.5479724e-92
7.6035854e-92
9.814095e-92
1.1766757e-91
1.1918371e-91
9.7883655e-92
9.7114314e-92
9.8045819e-92
9.8940925e-92
7.5147127e-92
7.5213547e-92
1.8301432e-91
1.8766681e-91
1.3074724e-91
1.3261479e-91
1.2904989e-91
1.2852891e-91
1.7731545e-91
1.7791467e-91
1.1598239e-91
3.3307499e-92
1.1429846e-91
3.2132211e-92
3.6491752e-92
3.7025289e-92
1.8242919e-91
1.8248713e-91
1.2783616e-91
1.292744e-91
1.3194472e-91
1.3232038e-91
1.8305952e-91
1.83668e-91
1.1941195e-91
3.2333228e-92
1.1115465e-91
3.1779962e-92
3.5953276e-92
3.5755941e-92
9.8331539e-92
1.157376e-91
9.5586841e-92
1.1822984e-91
9.6479607e-92
7.4233556e-92
7.5962096e-92
9.872834e-92
1.0005096e-91
1.2008145e-91
9.7538004e-92
1.224358e-91
9.9062914e-92
7.6120821e-92
1.0148045e-91
7.7204654e-92
3.0944741e-92
3.2685798e-92
3.166712e-92
3.0013924e-92
3.1243419e-92
3.2059963e-92
3.2765384e-92
3.0960881e-92
2.3151101e-92
2.4097457e-92
2.2841211e-92
2.2885911e-92
2.2829846e-92
2.2784172e-92
2.2571264e-92
2.2394818e-92
2.4445615e-92
2.7170156e-92
2.6785727e-92
2.3766661e-92
2.7447434e-92
2.6701538e-92
2.4159732e-92
2.4382466e-92
2.2523523e-92
2.3213554e-92
2.2271614e-92
2.2183513e-92
2.4000159e-92
2.6062667e-92
2.6569254e-92
2.3684482e-92
2.3322188e-92
2.7364736e-92
2.4726514e-92
2.8004144e-92
2.2854291e-92
2.2409036e-92
2.2745495e-92
2.2379173e-92
6.7354457e-92
6.1635457e-92
5.7488864e-92
6.2641435e-92
5.7763018e-92
5.5944177e-92
6.3099947e-92
6.4708522e-92
7.7069613e-92
7.9841372e-92
8.1478781e-92
8.1488978e-92
8.074065e-92
7.6067594e-92
7.7587272e-92
8.1660879e-92
1.9250228e-92
3.0066218e-92
3.3338592e-92
7.1506175e-92
3.5761911e-92
3.1923949e-92
3.2812966e-92
3.5966212e-92
3.15484e-92
3.6674836e-92
3.7177835e-92
3.874169e-92
3.98841e-92
2.6366342e-92
2.2650575e-92
2.575588e-92
2.0520251e-92
2.5480817e-92
2.6742289e-92
2.1128877e-92
2.1546205e-92
2.3120515e-92
2.5263007e-92
2.5183395e-92
2.771787e-92
4.0883118e-92
4.2850556e-92
3.5596079e-92
3.9644268e-92
4.375159e-92
3.8139997e-92
5.2114695e-92
5.1327283e-92
5.6639294e-92
5.4208675e-92
7.3797846e-92
6.7881444e-92
7.9398043e-92
7.1677551e-92
8.6531993e-92
7.0902198e-92
9.0500804e-92
7.6225771e-92
3.5057133e-92
3.4056469e-92
3.6344867e-92
3.686267e-92
3.5942156e-92
3.4894539e-92
3.344601e-92
3.5222611e-92
3.3177206e-92
3.8563895e-92
3.172462e-92
4.1660719e-92
3.9284936e-92
3.2756499e-92
3.8341714e-92
3.1763681e-92
3.0024003e-92
2.8209676e-92
2.9198922e-92
3.0753468e-92
3.3482816e-92
3.2637188e-92
3.0248982e-92
3.1133263e-92
2.6514097e-92
2.9039899e-92
2.6121456e-92
3.0074719e-92
3.1768285e-92
2.8299495e-92
3.0994148e-92
2.7589146e-92
3.2347729e-92
3.3706831e-92
3.132844e-92
3.4495581e-92
3.1634189e-92
2.818789e-92
2.8947492e-92
3.3382203e-92
3.1398079e-92
3.2887084e-92
3.0398496e-92
3.3797987e-92
3.1054358e-92
2.7495256e-92
3.1749451e-92
2.7826059e-92
3.1972938e-92
3.1292723e-92
3.2514696e-92
3.3598458e-92
3.6141374e-92
3.0134704e-92
3.1288136e-92
3.7739208e-92
3.4663836e-92
3.5909081e-92
3.3416758e-92
3.4789634e-92
3.9122132e-92
3.9545222e-92
3.2362208e-92
3.3319111e-92
4.0928705e-92
4.3742373e-92
3.9745548e-92
4.5030235e-92
3.9113516e-92
3.1858928e-92
3.2180458e-92
4.0449013e-92
4.3576435e-92
3.9411427e-92
4.2680458e-92
3.842576e-92
3.7792735e-92
3.0727713e-92
3.8402265e-92
3.1118366e-92
5.0294719e-92
4.5068023e-92
4.6147244e-92
5.0636251e-92
5.3390849e-92
5.3069784e-92
4.7221919e-92
4.7657154e-92
3.7425834e-92
4.4778849e-92
3.723588e-92
4.5850014e-92
4.7347839e-92
3.8928906e-92
4.6945666e-92
3.8804932e-92
4.9147741e-92
5.25994e-92
4.7417831e-92
5.3793773e-92
4.7358239e-92
3.9261582e-92
3.9715464e-92
4.9045124e-92
4.7188949e-92
5.0703114e-92
4.5409006e-92
5.2275782e-92
4.5509869e-92
3.7687302e-92
4.6661387e-92
3.7921818e-92
4.1173279e-92
3.741607e-92
3.8019775e-92
4.2251213e-92
3.0580796e-92
3.7757762e-92
3.721792e-92
3.0765758e-92
4.3479626e-92
4.3798463e-92
3.909155e-92
3.9243024e-92
3.1956604e-92
3.8866442e-92
3.1957386e-92
3.906636e-92
4.3414009e-92
4.4246217e-92
4.0167429e-92
3.9391247e-92
4.3392222e-92
3.9141641e-92
4.2611674e-92
3.8401402e-92
3.8742922e-92
3.1591023e-92
3.1992354e-92
3.9200147e-92
3.7426411e-92
3.8015093e-92
3.038307e-92
3.081323e-92
4.2644744e-92
4.603952e-92
4.1517435e-92
4.7016295e-92
4.0993091e-92
3.397028e-92
3.4418845e-92
4.2181319e-92
5.0604917e-92
5.2578354e-92
4.5116332e-92
4.6278724e-92
4.4456306e-92
4.5244252e-92
3.6461174e-92
3.6900169e-92
5.4545294e-92
5.3011175e-92
4.7731723e-92
4.8759997e-92
4.8045831e-92
4.7549221e-92
3.9305069e-92
3.97353e-92
4.7962405e-92
5.2094014e-92
4.6528743e-92
5.3597946e-92
3.80452e-92
4.6126444e-92
4.7337555e-92
3.8216164e-92
3.5128825e-92
3.7559084e-92
3.4132729e-92
3.9146413e-92
2.806779e-92
3.4041e-92
3.4994598e-92
2.8606904e-92
4.2159715e-92
3.7520852e-92
4.1196481e-92
3.6934002e-92
3.0125666e-92
3.6792294e-92
3.7147185e-92
3.0548981e-92
3.4132076e-92
3.1705759e-92
3.2166124e-92
3.4912359e-92
3.3424294e-92
3.4205228e-92
3.0690846e-92
3.139302e-92
2.8945345e-92
3.2539575e-92
2.8817387e-92
3.2848586e-92
3.2218824e-92
2.8519932e-92
3.1665663e-92
2.7957987e-92
3.25397e-92
3.0344995e-92
3.0689174e-92
3.2936717e-92
2.8350578e-92
3.1393398e-92
2.7942425e-92
3.1748319e-92
3.223225e-92
3.4413673e-92
3.1692838e-92
3.4745256e-92
3.2840354e-92
2.8991022e-92
2.9573726e-92
3.3094835e-92
3.4233624e-92
3.3146576e-92
3.4033134e-92
3.5157981e-92
3.1470551e-92
4.0075443e-92
3.8427044e-92
3.2398052e-92
3.4127895e-92
4.11961e-92
4.1641662e-92
3.4412246e-92
3.6312874e-92
3.7386016e-92
3.4786626e-92
3.6053214e-92
3.5338464e-92
3.4271139e-92
3.4884851e-92
3.6012502e-92
3.5090405e-92
3.3499328e-92
3.6387609e-92
3.4907984e-92
3.2218267e-92
3.3157323e-92
3.9633063e-92
4.0509393e-92
3.9900716e-92
3.9001207e-92
3.1991777e-92
3.2940923e-92
7.7751812e-93
1.2744495e-92
1.2582114e-92
7.8202172e-93
7.4811014e-93
7.3830366e-93
1.3179858e-92
1.3051816e-92
3.0286574e-92
2.6452357e-92
8.5270197e-93
8.1574528e-93
1.406881e-92
1.2927627e-92
7.8343717e-93
7.7170924e-93
1.291433e-92
1.251755e-92
3.1730836e-92
3.2266754e-92
5.315353e-92
5.2894779e-92
2.33181e-92
2.3184576e-92
2.2963374e-92
2.2677982e-92
2.379498e-92
2.2392037e-92
2.2433602e-92
2.2622696e-92
2.6541722e-92
2.7256999e-92
2.4533591e-92
2.4177354e-92
2.4313449e-92
2.7021093e-92
2.7769594e-92
2.4574399e-92
2.6778952e-92
3.030677e-92
2.8851871e-92
2.5479319e-92
2.5313057e-92
2.5537485e-92
2.3452526e-92
2.3275943e-92
2.2864872e-92
2.6434449e-92
2.7613677e-92
2.4542049e-92
2.2244331e-92
2.1945284e-92
2.4494519e-92
2.2944893e-92
3.1958885e-92
2.8953828e-92
2.9955329e-92
2.6947787e-92
3.2572591e-92
3.3897767e-92
3.1680953e-92
3.121192e-92
3.6625336e-92
3.7272729e-92
3.3984279e-92
3.3363042e-92
2.8862224e-92
3.1603631e-92
3.495176e-92
3.1384004e-92
3.2223282e-92
3.1378376e-92
2.9237685e-92
3.0384874e-92
3.1007213e-92
3.1526573e-92
3.0267016e-92
2.9559264e-92
3.2747464e-92
3.5962669e-92
3.4903244e-92
3.1704798e-92
3.5964145e-92
3.443391e-92
3.1409706e-92
3.2845151e-92
1.806369e-92
1.8005369e-92
1.7903025e-92
1.6960923e-92
1.7745476e-92
1.7668129e-92
1.724098e-92
1.7506058e-92
1.8819605e-92
2.0172059e-92
1.9746874e-92
1.7774224e-92
1.8446451e-92
1.7070754e-92
1.834132e-92
2.0259085e-92
1.5176881e-92
1.7838468e-92
1.7104766e-92
1.4489847e-92
2.538253e-92
1.9552176e-92
2.2260524e-92
2.2965814e-92
2.0305555e-92
1.7104172e-92
2.4174797e-92
2.4817709e-92
1.3792321e-92
1.3762983e-92
1.5791382e-92
1.423609e-92
1.9339609e-92
1.6771131e-92
2.7546878e-92
2.6620956e-92
2.1492244e-92
1.5801487e-92
2.450428e-92
2.7010719e-92
1.5353732e-92
1.3376535e-92
1.3018424e-92
1.3826601e-92
1.3868257e-92
1.3261907e-92
1.4323381e-92
1.5356563e-92
1.6675021e-92
1.6097151e-92
1.6541382e-92
1.6898625e-92
1.9467174e-92
1.7608156e-92
1.8125537e-92
1.9884052e-92
1.7309936e-92
1.6913762e-92
1.7322443e-92
1.6892333e-92
2.0008279e-92
2.0241051e-92
1.786034e-92
1.8077923e-92
1.7366859e-92
1.7285994e-92
1.7744829e-92
1.7855453e-92
1.8154186e-92
1.713684e-92
1.7209041e-92
1.702255e-92
1.8927399e-92
1.9551017e-92
1.7533601e-92
1.7467277e-92
1.8200667e-92
1.9729275e-92
1.9562616e-92
1.7640499e-92
2.1594155e-92
1.9326734e-92
2.7038349e-92
2.7686516e-92
1.5198541e-92
1.3625111e-92
1.4317223e-92
1.5839297e-92
2.6635947e-92
2.0869186e-92
1.9413624e-92
2.7828104e-92
1.6564205e-92
1.647149e-92
1.4491634e-92
1.5027546e-92
1.8077692e-92
1.610695e-92
2.8207809e-92
2.8213527e-92
2.0297353e-92
1.9539401e-92
2.8424916e-92
2.4695986e-92
1.5666355e-92
1.5300506e-92
1.3617668e-92
1.3913548e-92
1.3766463e-92
1.4423795e-92
1.5897104e-92
1.4332625e-92
1.739969e-92
1.7222696e-92
1.6790456e-92
1.720925e-92
1.6931939e-92
1.6700502e-92
1.6864674e-92
1.6982961e-92
1.7840065e-92
1.968243e-92
1.977849e-92
1.7709819e-92
2.0067469e-92
1.9579433e-92
1.7623181e-92
1.801522e-92
8.9891289e-92
7.6626203e-92
9.2515775e-92
7.8507595e-92
7.7427785e-92
7.6030472e-92
6.0557495e-92
6.1422905e-92
9.083331e-92