/*--------------------------------*- C++ -*----------------------------------*\
  =========                 |
  \\      /  F ield         | OpenFOAM: The Open Source CFD Toolbox
   \\    /   O peration     | Website:  https://openfoam.org
    \\  /    A nd           | Version:  7
     \\/     M anipulation  |
\*---------------------------------------------------------------------------*/
FoamFile
{
    version     2.0;
    format      ascii;
    class       volScalarField;
    location    "2000";
    object      omega;
}
// * * * * * * * * * * * * * * * * * * * * * * * * * * * * * * * * * * * * * //

dimensions      [0 0 -1 0 0 0 0];

internalField   nonuniform List<scalar> 
33730
(
4423.459
4143.6952
4087.1199
937.0951
922.74544
1302.5197
9195.1613
1325.8518
9333.9492
7870.6145
7756.4884
1941.7514
1933.1813
7784.6231
1896.3396
1850.2956
7497.2437
771.20218
687.46495
850.70654
780.93011
835.25278
618.62871
2131.5772
2140.7782
2059.9647
2099.4394
2049.3613
766.87946
756.64852
1998.5127
4532.4232
4630.1611
18271.553
18482.591
2098.341
772.70997
767.54006
2055.1091
4708.0671
4615.409
18587.953
18458.391
13467.072
4438.351
13479.243
4456.8303
13336.853
13278.215
4404.4069
4485.6788
4363.8081
13401.02
4385.5273
13291.02
12523.824
13103.859
4146.6287
4260.6096
1584.1857
1431.8206
3345.2299
3020.9631
1236.5932
1598.8886
1431.3961
677.80611
1104.9276
1959.2943
1915.9732
1935.0309
1936.0516
684.38709
616.92908
611.48326
1636.2277
1463.4397
1438.5664
1608.8512
1894.341
1875.3471
1919.8345
1882.2671
555.79145
958.49727
846.8215
4963.3474
5000.4671
4921.4569
5039.8618
4798.2788
4688.4
4900.7093
4900.5847
651.75767
648.02711
2219.786
792.41055
778.97048
2159.0365
3524.8393
6723.606
3523.1206
6652.7998
3617.0488
3590.8005
6807.689
6837.4329
13066.523
12910.312
32372.931
31840.105
13191.076
13136.372
32526
32521.286
2270.1933
796.38845
793.04045
2219.5291
3663.1264
3695.4012
6963.33
6875.6121
3590.6255
3593.4836
6756.8581
6820.6572
13319.575
13160.648
32551.832
32397.935
13138.577
13018.531
32567.034
32277.004
8189.6601
21888.844
22082.255
8165.1196
21903.086
21966.647
8219.0137
8114.9462
21448.38
21875.692
8239.6621
8230.5524
21365.304
21584.406
7985.1283
8114.252
21840.599
21855.17
8030.4016
8084.6936
21361.181
21847.67
7997.8973
8022.7835
20759.942
7606.929
7533.9395
20101.952
21220.352
21653.431
7877.7226
7877.4655
3865.9208
3918.4862
4013.5032
4096.1702
8819.5993
8677.7065
3267.405
3317.4285
2988.6394
2968.3416
1221.0813
7889.6428
8030.7541
8047.624
8163.1686
6762.9797
6837.2214
5667.9466
2621.1786
5712.221
2459.3684
2465.6915
3985.2323
3972.9563
4159.9982
4147.0157
3357.4962
3031.707
3024.4237
3359.3202
1218.0163
1087.6276
1096.8248
2006.5286
1973.6271
2166.2047
2142.6532
4796.743
5094.5964
5264.3042
4642.3843
4694.7615
4787.9924
4738.768
4719.9872
4830.1613
4713.5112
4907.8467
4638.225
5136.9341
5185.1707
4722.9096
4706.9422
551.84394
554.34554
501.93808
500.76024
1091.0494
1112.2107
1243.6328
1221.3287
966.21072
860.58453
837.34997
946.44607
942.10721
834.26767
835.41628
947.28282
4147.3274
4327.401
4132.3311
3958.1127
3510.9224
3010.4387
3159.5151
3339.4347
2994.2605
3363.9273
3343.608
3014.5025
3957.2022
3995.6055
4164.0117
4189.3468
4637.5206
4725.2766
4659.2871
4730.0717
4650.7533
4574.7478
4464.8428
4567.536
5085.5896
4654.3379
5088.2167
4626.6165
4886.6457
4993.6005
4557.2296
4436.8294
747.4986
626.67794
1763.5528
1598.2192
1548.965
1724.923
1256.6883
1410.4879
1211.929
1360.1646
9000.5324
8967.8951
9064.6337
8920.1015
8762.3524
8943.2791
9074.6064
9055.352
8690.2025
8662.929
8397.116
8324.187
8918.6609
8843.0844
8839.5536
8779.493
640.77679
635.09261
2311.9094
4145.872
4088.2137
782.1751
765.75822
2252.0568
4032.3462
4037.9108
7401.473
7317.6923
7471.3122
7513.5384
12456.546
12527.293
18560.437
18430.965
12275.051
12367.307
18406.771
18145.356
48375.971
48731.497
28317.772
28633.096
28369.385
48019.571
27992.154
47421.747
12577.279
12640.678
18678.441
18562.346
12593.218
12521.787
18604.43
18378.395
48537.708
48821.971
28363.818
28719.934
48808.843
48543.637
28743.454
28366.421
2365.9782
4216.3434
4190.8011
786.98284
781.74992
2309.9913
4108.2607
4103.016
7644.779
7546.4312
7421.6769
7500.0102
12719.278
12786.543
18782.263
18659.844
12631.047
12538.598
18657.555
18385.605
28239.245
48452.49
48724.337
28480.039
48428.641
48309.243
28480.98
28154.299
12553.216
12625.089
18502.975
18599.518
12478.323
12423.918
18497.942
18284.408
28297.921
48764.927
48827.15
28377.689
48646.45
48340.753
28347.149
27966.029
39085.773
38595.182
11901.811
11898.366
38938.267
39381.172
11922.319
11903.23
39130.68
38721.687
11841.851
11840.825
38278.608
39242.863
12007.551
11910.364
38584.287
37350.594
11806.29
11879.072
38504.422
39081.779
11918.658
11872.267
38105.213
37849.536
11592.23
11585.153
38015.508
38358.811
11758.089
11765.873
38969.005
38679.502
11796.239
11773.001
38250.621
39007.126
11852.742
11800.316
38098.995
37401.628
11593.38
11593.181
38602.998
39117.769
11770.842
11741.918
36919.125
36932.859
11232.856
11111.899
34927.717
36128.734
10969.649
10919.146
37646.933
37300.599
11527.388
11456.56
38220.526
38706.132
11639.109
11584.413
476.66851
8808.3328
8708.5703
8648.4754
8524.9293
8962.59
8825.3709
9066.5399
8888.3306
9311.8338
8924.533
9199.2725
8800.5664
9492.9838
9131.6651
9602.711
9193.2154
14677.887
14611.203
15481.461
14619.079
15521.73
15056.622
14256.027
15075.127
16126.655
15179.517
7842.9264
7987.5072
7769.2266
7882.132
8000.5106
8150.6688
8081.8518
8202.2975
6861.0521
6894.6409
5754.5879
5797.9475
2585.3324
6690.9673
6617.2928
5548.4982
5578.4856
2573.2817
2422.6696
2437.9539
15997.128
17535.755
15993.72
17582.052
16349.61
15101.403
15102.731
16398.64
16617.734
18272.935
16615.256
18285.913
17033.364
15684.958
17059.359
15686.994
18957.913
18989.931
17270.697
17248.548
17958.569
17925.389
19776.64
19764.977
18244.739
5062.5173
5040.4281
5010.4873
5074.8808
18979.53
4647.729
4580.2659
4654.1477
4729.1198
4543.8448
4522.4532
4580.4613
4589.9391
9202.862
9279.5019
9036.9309
9097.464
9068.7266
8927.7494
9219.6967
9037.3549
9602.8483
9240.1424
9758.3587
9342.0165
9727.8928
9330.8233
9823.9441
9408.4531
8217.308
8357.6065
8277.9106
8402.9967
7029.4234
7069.1037
5950.8703
5889.128
2608.1827
6942.4699
6994.7032
5855.9868
5817.4814
2612.0697
8100.6356
8248.0444
8209.8241
8339.4768
2445.2531
2443.1846
1958.8646
1970.2962
2138.3264
2129.6977
1959.7546
2124.2983
2140.1614
1986.3791
3693.95
3581.4364
3572.6546
3682.639
3527.4767
3524.4112
3671.0839
3682.1276
4072.8854
4070.9172
4136.2152
4137.02
4165.564
4063.6816
4097.4044
4203.0726
1046.98
1164.3215
809.02302
911.05158
2808.0724
3105.4283
3683.5013
9751.5382
9707.0619
8790.7514
8727.5515
9717.9214
10026.976
9004.3138
9223.8634
10237.507
9450.5177
10177.248
9373.0038
9326.5772
8445.3347
9570.1811
8603.1671
10216.072
9601.2651
10150.533
9510.1658
9903.3675
10145.49
9521.1902
9727.84
10010.078
9637.5502
9941.4371
9541.8189
10096.656
9484.2234
10346.35
9684.118
10485.267
10421.057
9813.6847
9721.3692
9706.3145
9320.3556
10048.958
9610.3379
10345.74
9913.5829
10289.113
9824.5186
9888.1027
9281.142
10226.343
9551.0977
10041.843
9982.7409
9292.1651
9215.5025
9926.4526
9189.652
10162.056
9359.1494
9505.869
8600.2566
8723.1911
9701.252
9608.3331
9560.054
8688.7431
8618.6692
737.78981
738.65126
618.56637
619.81686
754.01358
743.12493
624.70349
627.34197
550.56351
547.48152
1959.159
1947.5665
2114.2221
2120.107
2243.7095
2073.3398
2138.3294
1978.2457
2441.7707
2563.547
2725.8491
2595.9299
2423.2379
2412.9052
2581.3744
2589.1897
1576.6114
1648.6287
1819.7205
1739.648
1465.8957
1327.6775
1258.3081
1398.4857
1212.7445
1209.1674
1350.2177
1359.1347
1537.0872
1708.8331
1549.7078
1720.6202
1533.1442
1555.2532
1728.9237
1711.1907
1220.2028
1368.3585
1194.0628
1344.7283
1226.1938
1207.059
1354.3443
1377.7565
1575.7859
1547.469
1719.7834
1744.1354
9572.1308
9407.4715
9539.9934
9344.0042
10116.719
9714.1818
10072.727
9635.8301
9769.022
9442.716
9088.8238
9376.6445
9183.2241
8889.3224
8757.9192
9029.9995
8565.1069
8704.8517
8520.8878
8643.8236
5819.8439
5633.3896
6744.6003
6949.3099
7336.9333
7259.333
6061.1685
6143.308
7901.3385
8059.1862
8150.1394
8303.648
5726.3386
5859.9792
6975.1131
6852.0507
8045.9472
8213.134
8213.3538
8367.2742
8131.6535
8295.4382
8031.9978
8194.8032
6873.5576
7009.813
5856.4921
5719.3992
9130.3943
9011.4532
9054.1106
8918.6209
9049.7229
8920.7092
9238.0623
9092.539
9636.4483
9707.3468
9376.4833
9281.4273
9613.6408
9274.2631
9827.4833
9467.6389
10083.85
10217.058
9432.5107
9525.9377
9845.0226
9446.4019
9990.3361
9537.8961
10129.186
9994.6709
9368.6757
9445.2619
9950.1844
9520.3775
10067.158
9611.1384
9730.4566
9331.0814
9836.8178
9387.7172
9874.8569
9248.9326
9973.8319
9291.0375
9618.138
8978.5169
9522.6462
8867.8212
9512.9009
9405.8735
8971.2878
9089.0176
9785.9682
9901.1412
9111.8825
9055.4266
9360.9612
8474.8452
9446.1721
8499.7739
9869.0402
9113.4345
9994.9857
9191.2838
9431.2163
8520.9231
9534.9503
8572.4338
9392.6254
8664.3808
9667.1138
8936.1415
9745.1597
8960.0238
8354.2916
9241.556
9291.271
8350.9599
8092.6492
8966.0346
8006.432
699.77961
1086.2423
1112.7002
856.43386
866.05389
3246.0363
3113.0163
3229.2393
3093.2788
2800.0745
2627.0658
2770.0696
2591.4501
2493.1076
2512.9759
2713.7944
2683.3373
3002.1403
3030.1267
3188.4199
3168.7016
1738.5698
1947.0308
1880.9332
1697.9127
2374.7319
2189.5362
2123.9669
2326.9644
1584.7479
1786.4714
1770.8966
1583.9567
2244.6202
2029.4037
2012.6822
2223.4832
2088.0254
1837.8947
1628.5988
12482.612
12500.116
12501.789
12459.775
12460.244
12593.407
12410.971
12400.382
12159.346
12147.016
12329.409
12330.915
12416.669
12515.954
12530.796
12460.945
12117.709
12201.881
12017.281
12068.691
11766.082
11666.525
11512.16
11430.925
12328.331
12414.985
12340.953
12346.238
12295.833
12342.595
12165
12130.751
630.86937
619.9686
802.97574
810.58403
614.13427
781.29392
805.46841
2303.0958
4116.0256
4072.2363
4713.978
4794.7864
2248.7492
3996.1668
4018.0017
4665.7778
4675.0871
6186.1709
6179.6116
10306.508
10362.575
15750.103
15639.585
6163.6839
6105.883
15635.113
10243.639
10189.805
15360.955
6247.362
6221.3577
10439.423
10368.244
15854.663
15755.6
6334.4842
6277.1285
10468.576
10423.453
15845.691
15618.975
19021.716
23425.499
23343.423
19048.586
18912.228
18809.618
23115.608
23322.77
18860.513
18920.23
23332.519
23232.356
22944.297
18579.36
22799.712
18576.163
53369.39
66558.741
66790.335
53483.743
54032.016
67688.084
66802.108
53879.899
27460.669
27226.351
40872.277
40571.276
27424.171
27605.886
40756.432
41505.96
27367.543
27434.466
40440.841
40218.386
53278.22
66138.71
65762.182
53025.922
40034.636
27085.458
26836.978
39579.945
65302.93
65887.553
52592.86
52213.586
19139.217
23533.32
23409.794
19146.613
19040.486
18928.795
23215.438
23439.612
19112.172
19035.364
23353.973
23493.16
18819.961
18810.651
23151.672
23027.082
53437.184
66665.588
67242.624
53622.211
54106.477
67683.26
66943.215
53799.059
27576.317
27307.862
41286.637
40742.393
27482.649
27703.287
41043.133
41731.563
54024.729
67186.321
67152.721
54097.638
54146.501
67272.01
66603.364
53889.127
27622.15
27475.921
41280.906
41166.844
27086.001
27314.385
40536.983
41188.088
763.06237
767.20548
2261.1672
2361.7296
4157.9759
4203.4338
4884.1918
4832.5102
2299.9098
4068.4562
4092.0423
4747.8036
4731.8532
6419.8988
6430.0773
10620.572
10589.358
15866.359
15977.309
6361.7234
6313.3473
10500.087
10434.157
15876.159
15615.946
6247.734
6189.1675
10305.037
10349.212
15723.744
15501.102
6282.5295
6263.5977
10406.985
10476.827
15721.306
15821.685
19239.735
23581.16
19241.687
23446.441
19106.974
19021.616
23263.737
23412.867
19155.713
19099.271
23410.94
23497.597
23151.351
18823.662
18816.849
22979.706
27285.8
27453.969
40189.036
39733.038
66087.24
65787.434
52603.509
53094.851
66095.567
66362.043
53468.581
53235.357
27442.365
27658.844
40152.337
40442.29
66290.54
66198.544
53244.005
53351.565
65863.385
66240.403
53497.702
53131.923
27553.426
27469.195
40650.378
40364.032
26980.367
27260.822
40010.413
40595.874
18981.096
18883.169
23155.345
23329.971
23408.341
19063.302
19094.295
23321.713
23275.513
18948.386
23375.924
19010.209
18713.413
18729.381
23054.073
22931.889
27419.814
27224.445
40642.905
40955.848
66446.212
66335.971
53632.583
53843.297
54138.669
66325.302
66263.205
53856.778
27354.803
27528.224
40580.567
40874.702
53866.283
66053.069
66291.064
53967.074
54017.694
65930.684
65890.098
53631.845
27468.44
27373.795
40572.285
40442.886
26974.265
27186.081
40006.675
40303.202
474.95348
41258.18
40764.115
41015.072
41494.479
41206.494
40788.879
40317.362
41356.234
40933.752
39660.891
40772.005
41408.406
40249.392
39964.723
40181.131
40518.237
40980.933
40682.838
40151.836
41073.236
40186.387
39365.516
40654.855
41255.798
38885.395
38769.776
38089.545
39598.061
39203.831
40107.309
40747.332
15761.193
14843.979
14815.718
15760.612
15291.659
15264.931
14381.611
14386.676
14391.922
15305.496
14443.465
15288.921
14843.135
13996.658
14838.523
14012.438
14990.691
15861.709
15011.647
15888.381
15485.297
14682.203
14628.394
15473.862
15330.372
16129.871
15229.536
16250.882
15734.15
14880.694
15842.721
14964.703
14891.243
14268.054
14205.471
14851.442
14040.2
14710.832
14760.699
13968.849
14459.687
14445.503
13865.398
13832.836
13671.306
14322.761
13618.791
14357.354
14501.785
15145.435
14568.642
15106.334
14392.888
15078.75
15028.386
14320.878
15473.153
14834.556
15374.513
14757.993
14575.127
15300.381
15388.874
14639.12
30818.653
29500.339
28327.2
28949.305
28873.61
29593
30206.347
30142.203
30331.665
31017.659
31718.015
17826.222
17845.063
16241.081
16223.993
16649.262
15344.537
15316.469
16636.465
17289.025
17308.23
15747.441
15732.615
16117.245
16147.065
14855.235
14870.097
16308.303
17798.002
16291.637
17846.955
16676.275
15448.557
15451.325
16723.007
16631.04
18107.473
16540.401
18190.082
16963.258
15678.172
17076.502
15776.678
19120.112
19138.9
17511.409
17505.902
17788.833
17825.277
19463
19473.524
18346.249
5122.9925
18639.919
5145.5496
5055.0133
5083.3066
19237.822
19246.337
17528.425
17497.449
17001.102
16981.493
18698.165
18675.737
17927.504
4946.6503
18439.549
4979.8389
4929.4683
4919.5722
4601.227
4515.2243
4521.6089
4606.2263
4493.3276
4457.7746
4506.1031
4460.6253
26915.568
25845.494
26439.197
26279.94
27074.854
27695.183
28229.57
27579.663
27462.207
28140.279
27197.493
28882.714
29603.549
25064.302
25455.646
25321.172
25729.575
26870.282
26635.953
26601.788
26324.059
31237.011
25565.761
16977.075
26610.382
32415.553
16578.745
16113.756
17559.462
27373.613
28327.804
34312.352
33318.079
17375.077
16379.687
14606.246
14472.333
15425.442
14709.478
14463.988
15286.257
15641.295
15529.491
16473.414
15540.209
16487.901
16492.092
16367.018
15465.706
15573.254
16028.765
15149.36
16027.593
15115.687
16090
15118.799
15213.929
15973.989
16025.186
15157.789
16137.661
15222.736
15719.575
14863.292
15631.871
14818.879
15624.064
16425.183
15489.24
16579.506
15995.183
15116.214
15232.463
16136.513
15285.24
14700.607
14735.339
15354.06
15214.79
14532.834
14553.783
15273.364
15612.473
15738.913
14977.933
15080.741
15525.137
15641.545
14788.422
14879.535
14955.808
15627.919
14996.606
15608.864
14789.672
15527.152
15499.744
14741.495
15091.628
15617.203
15000.238
15726.056
14824.679
15550.749
15649.871
14899.743
18554.273
18578.805
16946.456
16946.116
17381.139
16039.004
16029.487
17356.86
18344.768
18427.781
16870.094
16774.508
17198.634
17312.845
15912.561
16020.265
19965.642
19966.065
18244.967
18224.47
18024.614
18070.118
19699.401
19705.722
18869.861
5274.5223
19144.05
5245.0872
5185.7673
5199.3926
19432.322
19473.25
17746.805
17788.551
18180.258
18242.299
19949.836
19966.008
19127.143
5190.956
18677.696
5177.0993
5117.3349
5128.5162
16557.054
18027.119
16478.22
18124.839
16860.324
15612.903
15692.417
16979.163
16991.021
18502.174
16866.925
18605.448
17295.217
15969.622
17442.198
16103.009
4658.757
4576.5641
4558.3512
4642.5611
4714.1866
4626.9679
4609.3044
4706.7982
3488.4707
3546.8405
3701.36
3646.7602
3483.733
3474.9419
3635.3886
3629.094
4150.8448
4039.1963
4033.6641
4129.4925
4057.9873
4108.0104
4207.637
4171.4474
3460.146
3458.5299
3608.5342
3602.529
4101.9774
3998.2496
3999.404
4098.3835
4075.1691
4001.4852
4060.8131
3981.0408
3613.8403
3475.8442
3452.3205
3592.248
11948.918
11040.651
10975.252
11927.964
10686.391
10664.961
11624.996
11669.27
12851.51
12800.631
13639.366
13782.707
13529.195
12571.998
12638.436
13619.933
715.40534
606.5298
603.01237
536.11206
1863.3236
1805.339
1952.4307
2001.6923
1818.5547
2378.541
2227.5483
2421.9916
2280.0233
1422.8537
1591.1436
1120.2979
1253.2504
1166.8805
1129.2409
1260.8806
1308.4131
1586.9536
1434.2189
1640.5874
1489.5171
6444.2357
5359.1614
6165.5197
6437.4592
5385.3021
5101.4741
7247.2968
7393.6113
7555.3566
7683.7996
8163.7464
8032.9863
8497.6107
8341.1771
9022.3745
8662.695
9282.7154
8873.731
13283.177
12581.401
12604.65
13333.717
13263.34
13231.954
12530.098
12544.214
12074.613
12752.905
12037.985
12790.287
12733.848
12015.629
12718.864
12046.039
13850.972
13166.417
13169.184
13895.829
14424.218
14189.62
13453.943
13633.218
12563.643
13416.318
12589.876
13417.181
13868.436
12952.91
13680.548
12812.076
13837.049
14524.304
13768.609
14633.044
13989.181
13114.382
13150.713
14065.659
13748.094
14466.837
13705.779
14538.453
13934.815
13049.668
13975.662
13073.962
12787.458
12124.142
12092.397
12768.876
12323.421
11678.324
11654.501
12301.272
12998.582
13152.813
12315.9
12428.417
12506.465
12626.933
11839.977
11883.312
14726.641
15426.293
14813.211
15358.771
15212.987
14240.738
14162.234
15146.275
15358.17
14710.66
15168.57
14567.731
14996.786
14047.214
15142.74
14172.704
15235.948
14710.181
14726.768
15272.103
15595.19
15488.991
14964.744
15053.779
14625.162
15273.635
14621
15304.893
15647.23
14962.723
15554.118
14891.733
14902.561
15491.293
14989.053
15437.537
15569.753
14922.938
14825.439
15488.804
14886.863
15195.875
14690.19
15427.495
15275.918
14642.343
15482.574
14811.577
15124.699
14510.217
14518.169
15149.585
13966.131
14937.111
14906.142
13987.589
15418.668
15492.742
14790.71
14833.586
14237.843
15236.104
14277.417
15205.239
15615.004
15729.366
15058.51
14969.99
15568.477
14889.603
15508.131
14848.847
15340.558
14350.091
14427.968
15463.825
15253.823
15290.4
14252.976
14306.536
14358.582
14848.908
14323.325
14900.825
14875.697
14226.306
14247.326
14921.754
15280.393
15550.6
14741.138
14981.421
15311.042
15578.039
14632.772
14864.208
15934.309
15825.997
15272.49
15350.383
15935.434
15831.759
15138.624
15213.207
15202.94
15714.507
15133.805
15797.064
15002.329
15710.193
15773.902
15052.131
14138.457
14714.321
14114.897
14752.535
13600.444
14504.071
14548.38
13636.9
15393.835
14718.08
15136.126
14508.949
13959.26
14906.315
15123.115
14163.842
14424.674
13648.6
13600.96
14378.411
14268.454
14414.844
13509.717
13624.238
12946.094
13870.309
13001.852
13833.847
13856.776
12954.918
13733.953
12867.08
14187.107
13451.583
13473.761
14234.676
12823.303
13679.156
12823.481
13710.914
13748.758
14460.728
13695.404
14526.087
13914.912
13021.409
13066.776
13980.263
13007.536
12325.324
12317.434
13019.169
11875.765
12522.269
12518.827
11866.051
12015.985
12683.361
12723.517
11985.031
13201.052
13257.935
12496.685
12532.308
13184.164
12488.425
12436.053
13139.749
13052.353
12366.374
13149.544
12432.993
12002.227
11972.095
12675.142
12636.811
12634.789
12563.583
11940.609
11947.009
1085.4889
848.76081
843.48001
1068.1305
1075.8521
1087.3387
849.28316
843.90251
688.11071
693.65427
1166.6018
1124.8324
898.35841
883.93349
1081.7199
1083.0953
852.15935
853.12349
693.87878
710.93983
548.07589
542.29368
3427.2729
3432.8012
3579.8751
3578.5273
3420.4566
3432.6752
3596.6523
3568.0323
3956.7729
3992.9676
4108.9688
4047.3694
4060.025
3963.6792
3974.7271
4081.753
4439.1397
4377.3081
4261.3703
4345.7481
3952.2489
3809.3642
3681.3643
3838.832
4052.8526
3978.4467
4021.8686
4113.8178
3588.6097
3451.9705
3467.2748
3616.9392
4530.0698
4443.6849
4598.3991
4495.2723
4773.6104
4860.4989
4905.6021
4826.5821
5297.781
5371.3396
5451.3772
5371.1839
5004.5492
4925.8261
5060.8967
5149.4677
4498.6929
4461.0935
4533.9542
4583.8425
4449.0235
4526.4902
4622.0626
4524.9199
5189.6274
5082.8589
4975.6756
5070.9291
5050.51
4975.0164
5073.935
5165.6726
2486.6422
2662.9991
2498.302
2679.1592
2683.2175
2775.1061
2961.3032
2862.2549
3441.3393
3295.6634
3178.0421
3328.674
2984.2011
3126.4971
3117.6244
2961.1621
2506.5011
2339.2496
2257.4065
2440.3888
2111.6316
1909.8877
1845.765
2043.6683
1632.4166
1665.7918
1838.733
1819.5442
2250.7221
2066.4789
2046.2324
2240.4623
1555.7566
1569.188
1757.3688
1754.5851
1534.3299
1560.3183
1744.6338
1720.8811
1948.7552
1975.5129
2177.8514
2155.9919
1992.1567
2198.5521
2200.0777
1999.7292
2419.4841
2437.7922
2620.9394
2607.6903
2921.9879
3091.1455
3077.2125
2912.5748
2644.0296
2465.2813
2463.6043
2636.5904
2933.4406
2948.3742
3103.482
3091.2406
2464.1127
2488.6922
2658.2549
2696.6665
2476.2237
2502.4678
2682.1857
2669.6914
2988.5859
2982.2302
3138.1932
3140.5643
3189.6839
3020.8877
2972.2406
3138.2746
1584.3657
1595.6055
1797.1949
1775.3409
2039.2215
2246.7527
2213.7836
2012.406
1726.834
1539.9009
1549.1876
1737.9563
1978.3892
1977.5299
2208.1237
2195.6948
1619.8683
1624.0145
1825.7853
1811.8175
1556.189
1565.1749
1759.112
1754.0108
1990.7765
1997.6389
2206.6099
2199.4019
2258.6868
2057.6251
2069.9787
2261.7895
2518.688
2529.842
2701.734
2679.9528
2470.7962
2472.6355
2653.8455
2654.9249
3115.6643
2955.4772
2963.6105
3119.8946
2973.7385
3001.6807
3149.8787
3119.9817
16958.648
16018.955
17081.43
16110.603
16629.637
16520.763
15639.589
15719.156
16958.166
17025.574
15963.857
16031.944
15554.366
16541.979
15620.31
16477.73
16131.651
16232.7
15577.317
15499.364
16041.454
15306.115
15379.859
16141.723
15460.335
16054.761
15384.705
16128.869
15939.105
16014.793
15175.327
15246.535
15117.085
15466.294
15729.277
14878.723
15049.14
15111.824
14471.316
14509.078
14329.746
15063.625
14358.734
15013.479
15442.478
15698.256
14972.551
14739.787
16342.369
15465.898
16108.515
15242.131
15846.817
15746.079
14873.184
14940.696
15443.687
15368.216
14556.451
14603.425
14949.037
15183.293
15759.878
16004.165
19117.815
17454.221
19241.751
17558.104
17996.806
16613.747
17867.048
16515.713
19208.843
19165.842
17444.362
17508.85
17950.117
16555.563
17891.474
16488.447
18571.011
18331.371
17398.153
19109.613
19122.374
17439.649
17682.12
17799.223
19356.716
19383.368
18879.882
20622.604
18816.316
20664.437
20693.288
18817.176
20670.97
18848.205
19873.76
19837.16
17706.253
17788.229
16219.041
16137.757
16551.376
15300.754
15386.265
16653.372
16638.848
18000.367
16448.582
18153.543
16879.851
15640.769
17088.099
15852.485
18344.498
18428.802
19237.56
19248.791
17672.823
17690.343
17519.365
17638.557
19142.061
19178.387
16572.724
18040.77
16498.05
18128.049
18036.368
18149.184
16524.888
16656.201
16913.78
15661.047
17012.026
15728.147
17102.198
15735.481
15875.86
16955.222
17982.859
18033.938
16498.409
16533.714
16964.913
15740.722
16912.747
15719.234
16502.313
17832.831
16306.053
17996.732
16728.01
15506.541
15722.832
16948.18
19371.792
19396.755
17726.541
17765.289
17713.178
17788.249
19321.976
19336.302
18503.689
18567.801
16172.647
15344.763
15344.42
16202.947
15858.783
15081.589
15861.683
15052.104
15959.822
16192.321
15102.972
15317.901
14817.154
15845.878
15029.15
15612.903
15289.436
16103.383
15229.597
16189.99
15732.053
14917.364
14957.147
15804.897
15486.905
16195.174
15343.23
16347.472
15867.978
15068.349
16013.427
15195.177
15321.995
15557.192
14958.521
14747.152
14987.404
15594.693
15037.937
15571.229
15601.982
14945.839
14875.934
15556.802
15305.811
15537.698
14645.594
14850.276
14852.492
15413.982
14825.991
15468.024
14699.352
15374.297
15413.978
14712.03
15725.427
15129.588
15591.566
15015.599
14923.433
15590.203
15707.958
15019.457
14387.169
15072.672
14438.905
15048.223
15224.945
15171.247
14529.714
14547.274
14816.027
13870.283
14777.941
13830.635
14927.316
13963.371
13986.885
14920.409
15075.253
15029.12
14507.502
14525.537
15077.456
15032.407
14381.321
14394.163
14832.783
15315.506
14751.1
15421.512
14616.901
15312.575
15403.032
14682.27
15190.344
14514.512
15112.302
14466.76
14881.06
14837.537
14222.688
14243.489
14619.501
14568.398
13657.021
13672.469
13887.2
13941.541
14855.793
14903.381
14695.653
15300.798
14737.916
15271.115
15282.141
14591.771
14545.808
15258.01
14867.236
15354.832
14799.508
15442.813
15363.821
14669.97
15436.712
14714.713
14887.446
14833.057
14369.973
14296.445
14839.412
14167.904
14891.484
14240.69
14596.534
15096.18
14541.458
15173.919
15095.158
14407.209
14445.941
15158.854
14694.091
14082.548
14022.344
14648.051
14426.363
13516.397
13466.012
14394.848
14894.062
14940.42
14253.62
14268.877
14631.859
14644.249
13678.423
13701.328
13543.104
14221.664
13602.324
14179.05
13091.347
13933.349
13887.317
13037.369
13906.947
13825.458
13301.662
13206.463
12832.319
13526.638
12764.371
13625.766
13895.03
14510.696
13960.206
14457.19
14141.303
14090.826
13617.246
13552.616
14050.693
13388.22
14117.869
13470.728
14460.334
14412.284
13789.32
13720.941
13858.755
13171.098
13183.307
13903.634
14110.722
14195.744
13374.077
13439.445
13683.397
12793.388
13604.233
12739.429
13409.879
13428.612
12596.504
12578.678
12099.428
12787.782
12129.303
12779.156
12323.36
11670.724
11649.272
12303.721
12925.902
12994.032
12240.098
12283.636
12487.929
11790.639
12437.118
11799.577
13358.534
14103.711
13385.421
14093.771
13624.314
12768.216
12728.042
13608.547
13511.44
14204.848
13470.329
14258.015
13704.009
12827.5
13758.249
12860.028
12235.838
12959.54
12275.933
12932.68
12475.394
11824.581
12448.293
11788.954
13064.117
13018.553
12327.071
12351.705
12555.34
11868.674
12526.816
11833.548
12641.656
13354.88
12699.703
13314.551
12945.335
12136.646
12894.969
12065.061
13726.926
13046.432
13710.48
13010.895
13259.394
12417.34
13285.208
12470.422
13224.379
13910.128
13187.513
13962.232
13419.805
12560.307
12586.464
13468.844
11551.934
12196.074
12150.083
11506.834
12661.326
12002.906
11946.124
12619.062
12747.121
12064.839
12784.87
12082.118
12283.874
11635.318
12263.177
11597.463
11163.665
11239.885
11876.235
11811.263
11608.357
12332.355
11679.839
12270.543
11675.788
11039.718
690.01073
719.85876
1003.2771
964.708
1163.4938
1426.931
1425.9902
1162.9905
1524.1094
1237.5793
1538.8348
1225.3033
10093.65
9093.3097
9996.0939
8968.9891
8088.3532
7084.2262
7937.3449
6909.8797
6626.0835
6673.5808
7696.6946
7648.7247
8666.0556
8697.334
9691.8225
9682.6723
2921.4643
4269.0494
3975.3587
2731.4212
6127.3764
5190.0929
4920.1666
5920.7191
2451.8747
3760.8058
3685.4117
2404.3235
5675.4928
4693.9835
4638.4205
5628.538
4848.3436
3894.4977
2572.3613
610.29252
786.28532
783.88987
586.84415
814.55641
829.43349
794.74593
806.38403
582.62687
821.4968
789.4567
769.27714
799.34732
2118.3854
5127.6034
4589.7813
4658.8156
5231.5912
7142.9821
7225.5257
7068.9006
7120.7874
7027.5033
8064.1868
8002.4442
7062.8627
8087.6516
8191.3612
7172.131
7100.2521
2081.3343
5111.52
4550.847
4530.6569
5103.796
6962.925
7047.1551
7071.5019
7040.6224
7997.1062
7890.8703
6917.471
6990.0083
7983.5024
6996.1093
7015.8446
8022.7614
11211.624
16547.772
11271.68
16679.185
21372.597
21335.979
21079.929
21284.695
21185.156
16583.227
21319.983
11152.266
11095.153
16305.713
20807.65
20910.532
11339.327
16755.751
11269.809
16647.668
21481.523
21408.856
21188.265
21411.803
11373.684
16762.713
11328.226
16532.459
21321.189
21480.162
21117.071
21039.683
25389.615
25265.732
25018.946
25298.692
25331.58
25173.832
24912.378
24695.154
58916.968
96248.496
96561.068
59006.366
59322.043
97371.975
96676.289
59080.901
29557.388
29245.748
55964.26
55428.802
29461.25
29692.276
55735.244
56813.237
29422.195
29548.124
54763.676
54531.6
58735.703
95370.046
95085.432
58801.427
54373.984
29177.205
28844.397
53581.099
95215.875
95465.307
58724.775
58400.231
25487.981
25310.863
25106.81
25409.654
25263.763
25468.466
25104.867
24921.193
58781.92
96653.685
97031.861
58944.773
59172.884
97289.673
96944.901
58898.028
29667.231
29319.593
56606.714
55815.761
29500.318
29780.036
56246.307
57182.469
59060.991
96843.297
96877.653
59219.97
59359.363
97223.576
97173.426
59169.286
29724.403
29503.142
56547.842
56193.741
29110.005
29402.345
55881.016
56694.12
2235.166
2243.6395
4678.7399
4653.6672
4020.4918
6204.852
6131.3373
10281.283
10246.924
2173.1818
5339.7097
4761.167
4694.4565
5259.3508
7178.1184
7247.3337
7318.3257
7318.1895
7281.1018
8288.769
8300.6988
7265.5069
8121.4956
8209.6369
7194.0735
7133.9131
2113.4395
5151.3286
5174.3323
4621.8456
4593.5189
7042.8999
7124.2255
7125.0978
7170.2433
7083.3559
8134.5521
8071.7148
7116.2292
7973.2623
8071.7991
7068.6213
6999.6134
16878.299
11536.944
16758.109
11511.698
21229.411
21426.399
21535.737
21476.072
11414.134
16804.38
11341.987
16529.725
21364.232
21513.918
21110.448
21014.552
11207.04
16423.903
11255.962
16659.775
21381.522
21235.265
21018.356
20946.404
11317.078
16625.707
11390.675
16732.59
21121.749
21332.844
21368.871
21348.115
25491.667
25316.413
25101.368
25323.147
25290.955
25453.095
25086.386
24850.039
29240.415
29465.218
54361.862
53361.365
94823.216
94480.678
57931.662
58203.941
94654.381
94962.088
58481.48
58487.027
29405.282
29682.275
54268.015
54708.283
95072.136
95009.478
58470.91
58688.474
94673.371
95369.098
58689.281
58495.215
29611.832
29458.77
55327.733
54745.123
28957.794
29323.58
54446.725
55645.631
25032.663
25286.427
25347.453
25222.071
25185.255
25353.77
25008.114
24821.54
29496.991
29233.002
55736.171
56214.128
95688.506
95513.648
58542.347
58783.908
59008.347
95347.279
95381.09
58852.515
29371.814
29596.32
55442.333
55791.139
58824.513
95165.658
95345.919
59073.888
59070.581
95345.698
95714.644
58984.669
29556.181
29393.131
55447.111
55046.537
28977.032
29261.732
54887.123
55149.193
530.12231
532.15782
73055.986
36609.525
72315.851
36227.979
72902.026
36373.075
73457.151
36732.165
73356.75
36491.953
72660.804
36098.149
72526.366
35747.707
73535.534
36680.08
71921.305
36606.962
70512.885
35413.401
72209.625
36349.925
72692.747
36951.091
72115.225
35589.971
71593.723
35380.734
71864.705