/*--------------------------------*- C++ -*----------------------------------*\
  =========                 |
  \\      /  F ield         | OpenFOAM: The Open Source CFD Toolbox
   \\    /   O peration     | Website:  https://openfoam.org
    \\  /    A nd           | Version:  7
     \\/     M anipulation  |
\*---------------------------------------------------------------------------*/
FoamFile
{
    version     2.0;
    format      ascii;
    class       volScalarField;
    location    "2000";
    object      p;
}
// * * * * * * * * * * * * * * * * * * * * * * * * * * * * * * * * * * * * * //

dimensions      [0 2 -2 0 0 0 0];

internalField   nonuniform List<scalar> 
33730
(
-1.3793482e+183
-1.3329043e+183
-1.3442228e+183
-1.2723632e+183
-1.2807969e+183
-1.3512564e+183
-1.3525041e+183
-1.3394324e+183
-1.3408331e+183
-1.3193861e+183
-1.3133407e+183
-1.2988867e+183
-1.3042612e+183
-1.3246137e+183
-1.3091813e+183
-1.3136156e+183
-1.3293657e+183
-1.2014294e+183
-1.1690953e+183
-1.2341589e+183
-1.1957277e+183
-1.241168e+183
-1.1289737e+183
-1.2790332e+183
-1.2743821e+183
-1.2872278e+183
-1.2831372e+183
-1.3280033e+183
-1.3210177e+183
-1.3259766e+183
-1.3329544e+183
-1.3371325e+183
-1.332213e+183
-1.3360414e+183
-1.3311325e+183
-1.3163322e+183
-1.3093871e+183
-1.3155306e+183
-1.3225765e+183
-1.320519e+183
-1.3267371e+183
-1.3195618e+183
-1.3257625e+183
-1.3085704e+183
-1.2979906e+183
-1.3113337e+183
-1.3005927e+183
-1.3026598e+183
-1.3057349e+183
-1.2952923e+183
-1.2925707e+183
-1.3051762e+183
-1.3162586e+183
-1.3028636e+183
-1.3137555e+183
-1.3205047e+183
-1.3184517e+183
-1.3092857e+183
-1.3073203e+183
-1.221242e+183
-1.2028765e+183
-1.2132173e+183
-1.2048922e+183
-1.1875033e+183
-1.2184807e+183
-1.2002066e+183
-1.1651097e+183
-1.1692908e+183
-1.2522756e+183
-1.2339455e+183
-1.2302729e+183
-1.2563156e+183
-1.1605747e+183
-1.1229235e+183
-1.1260316e+183
-1.2122004e+183
-1.1943229e+183
-1.1974724e+183
-1.2156522e+183
-1.2369135e+183
-1.2398636e+183
-1.2597878e+183
-1.2633511e+183
-1.0897652e+183
-1.1515843e+183
-1.1307317e+183
-1.2824585e+183
-1.2849979e+183
-1.2800685e+183
-1.2776601e+183
-1.2908619e+183
-1.2928188e+183
-1.2889659e+183
-1.2869568e+183
-1.293194e+183
-1.3038979e+183
-1.307394e+183
-1.3001403e+183
-1.3049148e+183
-1.3120095e+183
-1.3217291e+183
-1.3251788e+183
-1.3238721e+183
-1.3273663e+183
-1.3194129e+183
-1.3168978e+183
-1.320347e+183
-1.3229027e+183
-1.3262322e+183
-1.3284065e+183
-1.3238194e+183
-1.3259561e+183
-1.321376e+183
-1.3239274e+183
-1.319003e+183
-1.3215536e+183
-1.2965218e+183
-1.2893043e+183
-1.2951368e+183
-1.3023379e+183
-1.3086222e+183
-1.3054291e+183
-1.3088129e+183
-1.3120623e+183
-1.3143573e+183
-1.3115954e+183
-1.3178067e+183
-1.3149957e+183
-1.3098464e+183
-1.3130591e+183
-1.3075998e+183
-1.3107736e+183
-1.3160188e+183
-1.3188118e+183
-1.3136958e+183
-1.3164917e+183
-1.2950912e+183
-1.3020573e+183
-1.3035435e+183
-1.2964875e+183
-1.3048753e+183
-1.3061099e+183
-1.2990541e+183
-1.2978212e+183
-1.2963172e+183
-1.297796e+183
-1.2896987e+183
-1.2909944e+183
-1.299237e+183
-1.3007096e+183
-1.2923637e+183
-1.293783e+183
-1.3095828e+183
-1.3107039e+183
-1.3022596e+183
-1.3033526e+183
-1.3072282e+183
-1.3084466e+183
-1.3000787e+183
-1.3011644e+183
-1.3137871e+183
-1.3063792e+183
-1.3072652e+183
-1.3147071e+183
-1.3116942e+183
-1.3128281e+183
-1.3043439e+183
-1.3053928e+183
-1.2205466e+183
-1.2193456e+183
-1.2298193e+183
-1.2285151e+183
-1.2206626e+183
-1.2249911e+183
-1.2122732e+183
-1.2111563e+183
-1.2030317e+183
-1.2040497e+183
-1.1856317e+183
-1.2123407e+183
-1.2165017e+183
-1.2128124e+183
-1.2169713e+183
-1.2083198e+183
-1.2087602e+183
-1.204263e+183
-1.1968739e+183
-1.2046244e+183
-1.1895579e+183
-1.1888548e+183
-1.2182494e+183
-1.2172435e+183
-1.2264111e+183
-1.2273927e+183
-1.2100837e+183
-1.201945e+183
-1.2008792e+183
-1.2090269e+183
-1.1830692e+183
-1.1652723e+183
-1.1674155e+183
-1.1738474e+183
-1.1742685e+183
-1.1813224e+183
-1.1819059e+183
-1.2640203e+183
-1.2525349e+183
-1.2504726e+183
-1.2661894e+183
-1.2434381e+183
-1.2346311e+183
-1.2329334e+183
-1.2452665e+183
-1.2394012e+183
-1.2310599e+183
-1.2289743e+183
-1.2414695e+183
-1.2545602e+183
-1.2565939e+183
-1.2707015e+183
-1.2683652e+183
-1.0878181e+183
-1.0858027e+183
-1.0427204e+183
-1.043932e+183
-1.1630045e+183
-1.1607479e+183
-1.1777674e+183
-1.1805498e+183
-1.144304e+183
-1.1250591e+183
-1.1262317e+183
-1.1462008e+183
-1.1481536e+183
-1.1277475e+183
-1.1296041e+183
-1.1499968e+183
-1.2109397e+183
-1.2199003e+183
-1.2219348e+183
-1.2128731e+183
-1.2028393e+183
-1.19631e+183
-1.1946523e+183
-1.2046483e+183
-1.1980075e+183
-1.2080068e+183
-1.20635e+183
-1.1997203e+183
-1.2146123e+183
-1.216175e+183
-1.2237192e+183
-1.2253457e+183
-1.2478319e+183
-1.2357349e+183
-1.2465379e+183
-1.2367713e+183
-1.2379598e+183
-1.2491237e+183
-1.2505611e+183
-1.2393113e+183
-1.2581257e+183
-1.2724501e+183
-1.2595935e+183
-1.2742032e+183
-1.2626735e+183
-1.2610818e+183
-1.2758971e+183
-1.2776993e+183
-1.1070675e+183
-1.0761611e+183
-1.166236e+183
-1.1582497e+183
-1.1585225e+183
-1.1665372e+183
-1.138612e+183
-1.1497082e+183
-1.1381314e+183
-1.1498375e+183
-1.2854843e+183
-1.2867966e+183
-1.2893531e+183
-1.2880669e+183
-1.2828518e+183
-1.2842584e+183
-1.2804553e+183
-1.2816136e+183
-1.2950769e+183
-1.2941297e+183
-1.2960231e+183
-1.2969321e+183
-1.2932208e+183
-1.2921478e+183
-1.2911994e+183
-1.2902761e+183
-1.2544199e+183
-1.2637288e+183
-1.2868898e+183
-1.3094695e+183
-1.3071333e+183
-1.2806573e+183
-1.2851174e+183
-1.2911395e+183
-1.3137726e+183
-1.3116468e+183
-1.3161515e+183
-1.3182633e+183
-1.3116315e+183
-1.3139679e+183
-1.3196347e+183
-1.3207593e+183
-1.3216979e+183
-1.3205669e+183
-1.3228133e+183
-1.3218126e+183
-1.3227241e+183
-1.3237432e+183
-1.3162089e+183
-1.31735e+183
-1.3194694e+183
-1.3206162e+183
-1.3216301e+183
-1.3183529e+183
-1.3226252e+183
-1.319297e+183
-1.314933e+183
-1.3161913e+183
-1.3171208e+183
-1.3158369e+183
-1.3174065e+183
-1.3185411e+183
-1.3183083e+183
-1.3194679e+183
-1.3115646e+183
-1.3128426e+183
-1.3147453e+183
-1.3160488e+183
-1.3140356e+183
-1.3151697e+183
-1.3172367e+183
-1.3183927e+183
-1.276892e+183
-1.2960605e+183
-1.2991917e+183
-1.2705571e+183
-1.276057e+183
-1.2823175e+183
-1.3020155e+183
-1.3047495e+183
-1.3004769e+183
-1.3035856e+183
-1.309192e+183
-1.3064662e+183
-1.303487e+183
-1.3050993e+183
-1.3060287e+183
-1.304407e+183
-1.306675e+183
-1.3081754e+183
-1.3075465e+183
-1.3090733e+183
-1.3033716e+183
-1.3003613e+183
-1.301947e+183
-1.3050035e+183
-1.3034472e+183
-1.3049283e+183
-1.3065039e+183
-1.3080168e+183
-1.3096096e+183
-1.3110747e+183
-1.3105017e+183
-1.3119803e+183
-1.3124467e+183
-1.3137157e+183
-1.3133116e+183
-1.3146129e+183
-1.3094287e+183
-1.306309e+183
-1.3078154e+183
-1.3109251e+183
-1.3091523e+183
-1.3104087e+183
-1.3122477e+183
-1.3135429e+183
-1.2975732e+183
-1.2968502e+183
-1.2931505e+183
-1.2938289e+183
-1.2989783e+183
-1.2982755e+183
-1.2945136e+183
-1.2952295e+183
-1.3003249e+183
-1.2996281e+183
-1.2958747e+183
-1.2965579e+183
-1.3014967e+183
-1.300934e+183
-1.2971886e+183
-1.2977437e+183
-1.2919675e+183
-1.2912899e+183
-1.2877544e+183
-1.2883637e+183
-1.2933476e+183
-1.292651e+183
-1.289008e+183
-1.2896951e+183
-1.2947731e+183
-1.2940293e+183
-1.2903615e+183
-1.2910825e+183
-1.2961983e+183
-1.2954888e+183
-1.2917953e+183
-1.2925115e+183
-1.3047525e+183
-1.3041815e+183
-1.3002818e+183
-1.300827e+183
-1.3057971e+183
-1.3052828e+183
-1.3013667e+183
-1.3018936e+183
-1.3025904e+183
-1.3020184e+183
-1.2982211e+183
-1.2987319e+183
-1.3036653e+183
-1.3031333e+183
-1.2992457e+183
-1.2997746e+183
-1.3087678e+183
-1.3082923e+183
-1.3043435e+183
-1.3047975e+183
-1.3096289e+183
-1.3092237e+183
-1.3052383e+183
-1.3056385e+183
-1.3067804e+183
-1.3062635e+183
-1.3023575e+183
-1.3028403e+183
-1.3078275e+183
-1.3073114e+183
-1.3033433e+183
-1.3038689e+183
-9.9114799e+182
-1.2195917e+183
-1.2201688e+183
-1.2238847e+183
-1.2244795e+183
-1.2185663e+183
-1.2228009e+183
-1.2190493e+183
-1.2233258e+183
-1.2283105e+183
-1.2331187e+183
-1.2289401e+183
-1.2337758e+183
-1.2271892e+183
-1.2319584e+183
-1.2277219e+183
-1.2325096e+183
-1.228718e+183
-1.2224692e+183
-1.2201526e+183
-1.2222135e+183
-1.2203993e+183
-1.2243053e+183
-1.2264976e+183
-1.2245513e+183
-1.220638e+183
-1.2227099e+183
-1.2113787e+183
-1.2154714e+183
-1.2118975e+183
-1.2160344e+183
-1.2104262e+183
-1.214486e+183
-1.2108957e+183
-1.2149548e+183
-1.2065221e+183
-1.206987e+183
-1.2026183e+183
-1.2030488e+183
-1.1951807e+183
-1.2074312e+183
-1.2079051e+183
-1.203874e+183
-1.2034541e+183
-1.1961876e+183
-1.1872844e+183
-1.1882979e+183
-1.2143239e+183
-1.2121114e+183
-1.2140666e+183
-1.2123529e+183
-1.2160676e+183
-1.218098e+183
-1.2183413e+183
-1.2163204e+183
-1.2148286e+183
-1.2126357e+183
-1.2145748e+183
-1.2128818e+183
-1.2165588e+183
-1.2185782e+183
-1.216812e+183
-1.2188296e+183
-1.207842e+183
-1.2080636e+183
-1.2101121e+183
-1.2103431e+183
-1.2106198e+183
-1.2108623e+183
-1.2083034e+183
-1.2085242e+183
-1.2047257e+183
-1.2006889e+183
-1.1973666e+183
-1.1970773e+183
-1.201012e+183
-1.205133e+183
-1.1910151e+183
-1.1905917e+183
-1.194162e+183
-1.1946119e+183
-1.1902681e+183
-1.1901071e+183
-1.1935704e+183
-1.1938136e+183
-1.2176311e+183
-1.218102e+183
-1.2218917e+183
-1.2223401e+183
-1.2169562e+183
-1.2211966e+183
-1.2172558e+183
-1.2215331e+183
-1.2255699e+183
-1.2302954e+183
-1.2258926e+183
-1.2306194e+183
-1.226261e+183
-1.231e+183
-1.2267206e+183
-1.231486e+183
-1.2094639e+183
-1.2135309e+183
-1.2099755e+183
-1.2140293e+183
-1.2055674e+183
-1.2060849e+183
-1.2021843e+183
-1.2016431e+183
-1.1940442e+183
-1.2048096e+183
-1.205149e+183
-1.2012038e+183
-1.2008028e+183
-1.1929231e+183
-1.2087426e+183
-1.2128514e+183
-1.2090343e+183
-1.2131334e+183
-1.1849398e+183
-1.1860812e+183
-1.1710163e+183
-1.1699087e+183
-1.1773994e+183
-1.1785551e+183
-1.1720871e+183
-1.1797045e+183
-1.1807857e+183
-1.1731548e+183
-1.1801306e+183
-1.177004e+183
-1.1770284e+183
-1.1801636e+183
-1.1774614e+183
-1.1771737e+183
-1.1803716e+183
-1.180707e+183
-1.1833583e+183
-1.1833072e+183
-1.1866671e+183
-1.1867631e+183
-1.1870517e+183
-1.1836149e+183
-1.1839776e+183
-1.187464e+183
-1.1582886e+183
-1.1751174e+183
-1.1229468e+183
-1.1419201e+183
-1.1931521e+183
-1.2011322e+183
-1.2090634e+183
-1.2632529e+183
-1.264303e+183
-1.2718316e+183
-1.2729069e+183
-1.2514976e+183
-1.2526814e+183
-1.2582521e+183
-1.2594397e+183
-1.2494535e+183
-1.2561432e+183
-1.2504585e+183
-1.2571946e+183
-1.2653885e+183
-1.2740619e+183
-1.2666319e+183
-1.2754077e+183
-1.2421926e+183
-1.2478822e+183
-1.2431912e+183
-1.2488872e+183
-1.2339809e+183
-1.2346126e+183
-1.2389476e+183
-1.2396232e+183
-1.2322895e+183
-1.237158e+183
-1.2332193e+183
-1.2381526e+183
-1.244028e+183
-1.2498005e+183
-1.2447751e+183
-1.2506604e+183
-1.2379755e+183
-1.2390103e+183
-1.2436592e+183
-1.244658e+183
-1.230158e+183
-1.2350223e+183
-1.2313041e+183
-1.2361486e+183
-1.2280498e+183
-1.23294e+183
-1.2291069e+183
-1.2340082e+183
-1.2400045e+183
-1.245675e+183
-1.2411543e+183
-1.2468658e+183
-1.2536793e+183
-1.2547196e+183
-1.2604675e+183
-1.2616042e+183
-1.2557106e+183
-1.2626611e+183
-1.2566439e+183
-1.2636703e+183
-1.2700441e+183
-1.2790264e+183
-1.2802475e+183
-1.2711481e+183
-1.2677233e+183
-1.2689069e+183
-1.2765579e+183
-1.2778156e+183
-1.1043649e+183
-1.1061831e+183
-1.0733883e+183
-1.075366e+183
-1.1029099e+183
-1.1032931e+183
-1.0727056e+183
-1.073224e+183
-1.0332263e+183
-1.033979e+183
-1.1688284e+183
-1.1674423e+183
-1.1748041e+183
-1.1763052e+183
-1.172019e+183
-1.1649608e+183
-1.173462e+183
-1.1662195e+183
-1.1805464e+183
-1.1790595e+183
-1.1867788e+183
-1.1883302e+183
-1.1837355e+183
-1.1820942e+183
-1.1899785e+183
-1.1917142e+183
-1.1514589e+183
-1.1506534e+183
-1.1577906e+183
-1.1588908e+183
-1.1430577e+183
-1.1329706e+183
-1.1331619e+183
-1.1436332e+183
-1.1345805e+183
-1.1336446e+183
-1.144294e+183
-1.1453312e+183
-1.1522495e+183
-1.1599373e+183
-1.1534299e+183
-1.1612631e+183
-1.1555779e+183
-1.1544816e+183
-1.1623135e+183
-1.1633883e+183
-1.1352243e+183
-1.1461879e+183
-1.1357055e+183
-1.1471247e+183
-1.138435e+183
-1.1370028e+183
-1.1481236e+183
-1.1492413e+183
-1.1574719e+183
-1.1563818e+183
-1.1643341e+183
-1.1654441e+183
-1.2104271e+183
-1.2145813e+183
-1.2114403e+183
-1.2156323e+183
-1.2188491e+183
-1.2234562e+183
-1.2198985e+183
-1.2245044e+183
-1.2221687e+183
-1.2209914e+183
-1.2255708e+183
-1.2267329e+183
-1.2136586e+183
-1.2125007e+183
-1.2167079e+183
-1.2178695e+183
-1.2023458e+183
-1.2064221e+183
-1.2032623e+183
-1.2073875e+183
-1.1969395e+183
-1.1958874e+183
-1.2000704e+183
-1.2011258e+183
-1.198333e+183
-1.1992087e+183
-1.19503e+183
-1.1942345e+183
-1.2041627e+183
-1.2083771e+183
-1.2052605e+183
-1.2095276e+183
-1.1988139e+183
-1.197879e+183
-1.2020466e+183
-1.2029816e+183
-1.2078784e+183
-1.2084672e+183
-1.2120095e+183
-1.2125447e+183
-1.2061723e+183
-1.210436e+183
-1.2070985e+183
-1.2113124e+183
-1.2037948e+183
-1.2044572e+183
-1.200359e+183
-1.1996365e+183
-1.2145712e+183
-1.2187907e+183
-1.2154156e+183
-1.2196464e+183
-1.2160464e+183
-1.2202779e+183
-1.2165674e+183
-1.2208038e+183
-1.2239586e+183
-1.2230976e+183
-1.2276896e+183
-1.2285938e+183
-1.2246329e+183
-1.2293143e+183
-1.2251872e+183
-1.2299184e+183
-1.2463066e+183
-1.2468869e+183
-1.2523684e+183
-1.2530243e+183
-1.2350213e+183
-1.2400814e+183
-1.2353705e+183
-1.2405104e+183
-1.2457826e+183
-1.2453072e+183
-1.2512559e+183
-1.2517993e+183
-1.235784e+183
-1.2409618e+183
-1.2362861e+183
-1.2414901e+183
-1.2367806e+183
-1.2420036e+183
-1.23735e+183
-1.2426199e+183
-1.247434e+183
-1.2536132e+183
-1.24806e+183
-1.2542773e+183
-1.248727e+183
-1.25497e+183
-1.2494157e+183
-1.2556987e+183
-1.2379743e+183
-1.2386317e+183
-1.2439166e+183
-1.2432566e+183
-1.2573223e+183
-1.2579285e+183
-1.2651271e+183
-1.2644119e+183
-1.271953e+183
-1.2810966e+183
-1.2727122e+183
-1.2819341e+183
-1.2585491e+183
-1.2658034e+183
-1.2592533e+183
-1.2665617e+183
-1.2734783e+183
-1.2827856e+183
-1.2743265e+183
-1.2837644e+183
-1.2613389e+183
-1.2688201e+183
-1.259906e+183
-1.2672628e+183
-1.260613e+183
-1.2680609e+183
-1.2845889e+183
-1.2750895e+183
-1.2759197e+183
-1.2854802e+183
-1.2863737e+183
-1.2767422e+183
-1.2872523e+183
-1.0733641e+183
-1.1228996e+183
-1.1237633e+183
-1.1019464e+183
-1.1033209e+183
-1.173815e+183
-1.1707307e+183
-1.1738294e+183
-1.1707353e+183
-1.1677051e+183
-1.1646283e+183
-1.1676548e+183
-1.1644942e+183
-1.1645767e+183
-1.1645039e+183
-1.1676631e+183
-1.1677858e+183
-1.1708923e+183
-1.1707233e+183
-1.1738853e+183
-1.174136e+183
-1.1471938e+183
-1.1533618e+183
-1.1529966e+183
-1.1463825e+183
-1.16116e+183
-1.1575794e+183
-1.1573046e+183
-1.1609368e+183
-1.1458829e+183
-1.1526583e+183
-1.1527494e+183
-1.1459841e+183
-1.1609285e+183
-1.1571546e+183
-1.157243e+183
-1.1610027e+183
-1.1574981e+183
-1.1528452e+183
-1.1460361e+183
-1.2872625e+183
-1.287913e+183
-1.2885573e+183
-1.2892858e+183
-1.2917779e+183
-1.2912035e+183
-1.290573e+183
-1.289911e+183
-1.2852305e+183
-1.2845377e+183
-1.2859076e+183
-1.2866409e+183
-1.2820941e+183
-1.2826515e+183
-1.2832365e+183
-1.2839153e+183
-1.2975198e+183
-1.2969845e+183
-1.2965356e+183
-1.296099e+183
-1.2979942e+183
-1.2984388e+183
-1.2988354e+183
-1.299242e+183
-1.2956325e+183
-1.2950857e+183
-1.2945814e+183
-1.2940882e+183
-1.2936325e+183
-1.2931201e+183
-1.2926713e+183
-1.2922188e+183
-1.2438518e+183
-1.2152118e+183
-1.2557892e+183
-1.2507198e+183
-1.223016e+183
-1.2640618e+183
-1.2600543e+183
-1.2671899e+183
-1.2991985e+183
-1.2970185e+183
-1.2862088e+183
-1.2882485e+183
-1.2710026e+183
-1.303322e+183
-1.3012582e+183
-1.2921902e+183
-1.2901965e+183
-1.3083239e+183
-1.30732e+183
-1.3096267e+183
-1.3106171e+183
-1.316267e+183
-1.3152033e+183
-1.3103978e+183
-1.3093139e+183
-1.317295e+183
-1.3116321e+183
-1.312683e+183
-1.3183198e+183
-1.3040947e+183
-1.3030464e+183
-1.306426e+183
-1.3053362e+183
-1.3118889e+183
-1.3107051e+183
-1.306291e+183
-1.3051617e+183
-1.307497e+183
-1.308584e+183
-1.3130273e+183
-1.314141e+183
-1.3181472e+183
-1.318578e+183
-1.3190931e+183
-1.3186288e+183
-1.3176051e+183
-1.3170004e+183
-1.3174571e+183
-1.3180378e+183
-1.3191216e+183
-1.3196974e+183
-1.3201284e+183
-1.3195828e+183
-1.3206245e+183
-1.320201e+183
-1.3211036e+183
-1.3206483e+183
-1.3100204e+183
-1.3141689e+183
-1.3147635e+183
-1.3105725e+183
-1.311126e+183
-1.3152981e+183
-1.3158156e+183
-1.311632e+183
-1.3176962e+183
-1.3171275e+183
-1.31682e+183
-1.3162387e+183
-1.3187662e+183
-1.3182461e+183
-1.3178838e+183
-1.3173542e+183
-1.3192592e+183
-1.3197883e+183
-1.318372e+183
-1.3189065e+183
-1.3120998e+183
-1.316296e+183
-1.3168424e+183
-1.3126057e+183
-1.3193733e+183
-1.3202817e+183
-1.3207603e+183
-1.319848e+183
-1.3177344e+183
-1.3172956e+183
-1.3130699e+183
-1.313494e+183
-1.3136652e+183
-1.3140817e+183
-1.3146711e+183
-1.3142191e+183
-1.3130514e+183
-1.3123874e+183
-1.3128232e+183
-1.3134682e+183
-1.3154216e+183
-1.3147891e+183
-1.3152382e+183
-1.3158434e+183
-1.3164799e+183
-1.3159805e+183
-1.3164e+183
-1.3169354e+183
-1.3056304e+183
-1.3096189e+183
-1.3102734e+183
-1.3062344e+183
-1.3068178e+183
-1.3108639e+183
-1.3114526e+183
-1.3073687e+183
-1.3131247e+183
-1.3124908e+183
-1.3122685e+183
-1.3116247e+183
-1.3143418e+183
-1.3137463e+183
-1.3134765e+183
-1.3128694e+183
-1.3079108e+183
-1.3120109e+183
-1.3126322e+183
-1.3084982e+183
-1.3090444e+183
-1.3131612e+183
-1.3136795e+183
-1.3095485e+183
-1.3155055e+183
-1.3149118e+183
-1.3146444e+183
-1.3140399e+183
-1.3166057e+183
-1.3160658e+183
-1.3157272e+183
-1.3151824e+183
-1.2578205e+183
-1.2647915e+183
-1.2706117e+183
-1.258052e+183
-1.2894119e+183
-1.2863268e+183
-1.275966e+183
-1.2789837e+183
-1.2630558e+183
-1.2947682e+183
-1.2921235e+183
-1.2815774e+183
-1.2840823e+183
-1.2934917e+183
-1.2919704e+183
-1.2957745e+183
-1.294207e+183
-1.2994229e+183
-1.3010171e+183
-1.2965561e+183
-1.2949964e+183
-1.2972815e+183
-1.2987921e+183
-1.3025416e+183
-1.3040466e+183
-1.3019253e+183
-1.3005933e+183
-1.3042056e+183
-1.3029068e+183
-1.3082391e+183
-1.309522e+183
-1.2992627e+183
-1.2979224e+183
-1.3001811e+183
-1.3015684e+183
-1.3054675e+183
-1.3068962e+183
-1.3026256e+183
-1.3030337e+183
-1.3033715e+183
-1.3038099e+183
-1.3018283e+183
-1.3009755e+183
-1.3014128e+183
-1.3022473e+183
-1.3049373e+183
-1.3041118e+183
-1.3045416e+183
-1.3053438e+183
-1.3060835e+183
-1.3056871e+183
-1.3063775e+183
-1.3068082e+183
-1.3011026e+183
-1.3019211e+183
-1.3011334e+183
-1.300311e+183
-1.2992412e+183
-1.2984265e+183
-1.2946755e+183
-1.2954074e+183
-1.3007458e+183
-1.2999822e+183
-1.2961308e+183
-1.296846e+183
-1.3034885e+183
-1.3027126e+183
-1.3026833e+183
-1.3018984e+183
-1.3022588e+183
-1.3014608e+183
-1.2975532e+183
-1.2983023e+183
-1.3036845e+183
-1.3029666e+183
-1.2990295e+183
-1.2997403e+183
-1.305009e+183
-1.3042227e+183
-1.3042015e+183
-1.3034069e+183
-1.3064746e+183
-1.3057487e+183
-1.3056483e+183
-1.3049161e+183
-1.3078501e+183
-1.3070683e+183
-1.3074969e+183
-1.3082605e+183
-1.3089744e+183
-1.3085701e+183
-1.3092317e+183
-1.3096663e+183
-1.3103123e+183
-1.3098824e+183
-1.3110099e+183
-1.3106045e+183
-1.3112394e+183
-1.3118029e+183
-1.3116373e+183
-1.3122384e+183
-1.307919e+183
-1.307166e+183
-1.3063296e+183
-1.3070981e+183
-1.3051331e+183
-1.3043525e+183
-1.3004022e+183
-1.3011371e+183
-1.301861e+183
-1.305839e+183
-1.3065457e+183
-1.3025602e+183
-1.3093353e+183
-1.3086408e+183
-1.30851e+183
-1.3078027e+183
-1.3032208e+183
-1.307185e+183
-1.3078834e+183
-1.3039004e+183
-1.3045086e+183
-1.3084768e+183
-1.3090666e+183
-1.3050809e+183
-1.3106677e+183
-1.3099851e+183
-1.3098362e+183
-1.3091478e+183
-1.3119055e+183
-1.3112966e+183
-1.3110548e+183
-1.3104413e+183
-9.8598059e+182
-1.2904198e+183
-1.2897395e+183
-1.2917792e+183
-1.2910922e+183
-1.2931144e+183
-1.2924432e+183
-1.2942746e+183
-1.2937319e+183
-1.2850319e+183
-1.2844322e+183
-1.2863225e+183
-1.2856694e+183
-1.2876864e+183
-1.2869848e+183
-1.2890641e+183
-1.2883734e+183
-1.2972059e+183
-1.2966945e+183
-1.2982081e+183
-1.2977041e+183
-1.2952488e+183
-1.2947489e+183
-1.2962109e+183
-1.2957263e+183
-1.3010878e+183
-1.3006321e+183
-1.301495e+183
-1.2991856e+183
-1.2987035e+183
-1.300147e+183
-1.2996489e+183
-1.2190781e+183
-1.2211123e+183
-1.2213874e+183
-1.219335e+183
-1.2198941e+183
-1.2196069e+183
-1.2216638e+183
-1.2219549e+183
-1.2256352e+183
-1.2231781e+183
-1.2253491e+183
-1.2234561e+183
-1.2240424e+183
-1.2262368e+183
-1.2237421e+183
-1.2259254e+183
-1.220376e+183
-1.2181359e+183
-1.2201554e+183
-1.2183479e+183
-1.2222021e+183
-1.2243478e+183
-1.2245516e+183
-1.2224121e+183
-1.2208561e+183
-1.2185686e+183
-1.2205991e+183
-1.2188187e+183
-1.2226524e+183
-1.2248003e+183
-1.2229176e+183
-1.2250812e+183
-1.2275427e+183
-1.2298338e+183
-1.2301359e+183
-1.2278336e+183
-1.2346371e+183
-1.2324682e+183
-1.2321675e+183
-1.2349422e+183
-1.2281342e+183
-1.2284486e+183
-1.2304444e+183
-1.2307586e+183
-1.235261e+183
-1.2331027e+183
-1.2355805e+183
-1.232784e+183
-1.2290147e+183
-1.226521e+183
-1.2287906e+183
-1.2267305e+183
-1.2335528e+183
-1.2311043e+183
-1.231327e+183
-1.2337789e+183
-1.2272679e+183
-1.2295564e+183
-1.2269831e+183
-1.2292694e+183
-1.2340454e+183
-1.2315886e+183
-1.2318845e+183
-1.2343516e+183
-1.2288951e+183
-1.22267e+183
-1.220376e+183
-1.2224112e+183
-1.2206364e+183
-1.224509e+183
-1.2266589e+183
-1.2247573e+183
-1.2208854e+183
-1.2229223e+183
-1.2250203e+183
-1.2111718e+183
-1.2113869e+183
-1.2130914e+183
-1.2133206e+183
-1.2152914e+183
-1.2170493e+183
-1.217298e+183
-1.2150537e+183
-1.2116423e+183
-1.2118913e+183
-1.213826e+183
-1.2135699e+183
-1.2155444e+183
-1.2158116e+183
-1.2175623e+183
-1.217845e+183
-1.2124034e+183
-1.2102808e+183
-1.2121842e+183
-1.2104849e+183
-1.2141348e+183
-1.216122e+183
-1.2163302e+183
-1.2143513e+183
-1.2128748e+183
-1.210727e+183
-1.2126275e+183
-1.2109662e+183
-1.2145682e+183
-1.2165485e+183
-1.2148156e+183
-1.2167947e+183
-1.2061499e+183
-1.2063543e+183
-1.2083408e+183
-1.208539e+183
-1.2087757e+183
-1.2090106e+183
-1.2065818e+183
-1.2067983e+183
-1.2031854e+183
-1.1991686e+183
-1.2035979e+183
-1.1995654e+183
-1.1956986e+183
-1.196074e+183
-1.207001e+183
-1.2071981e+183
-1.2092127e+183
-1.209418e+183
-1.2096588e+183
-1.2098998e+183
-1.2074021e+183
-1.2076181e+183
-1.2043113e+183
-1.2003476e+183
-1.2039588e+183
-1.1999349e+183
-1.1964129e+183
-1.1967814e+183
-1.1922766e+183
-1.1888443e+183
-1.1892828e+183
-1.1926677e+183
-1.1933342e+183
-1.1896462e+183
-1.1929929e+183
-1.1899553e+183
-1.2147212e+183
-1.2124791e+183
-1.2144527e+183
-1.2127398e+183
-1.216399e+183
-1.2183564e+183
-1.2186179e+183
-1.2166621e+183
-1.2130188e+183
-1.2149881e+183
-1.2132592e+183
-1.2169173e+183
-1.2188662e+183
-1.2079571e+183
-1.2082016e+183
-1.2103925e+183
-1.2106478e+183
-1.2109269e+183
-1.2111583e+183
-1.2084637e+183
-1.2086776e+183
-1.2056695e+183
-1.2040084e+183
-1.2014162e+183
-1.2042352e+183
-1.2059055e+183
-1.1984201e+183
-1.1981092e+183
-1.2017643e+183
-1.2046543e+183
-1.204458e+183
-1.2061481e+183
-1.2063537e+183
-1.2021462e+183
-1.1987758e+183
-1.1923804e+183
-1.1920159e+183
-1.1953468e+183
-1.1916994e+183
-1.191511e+183
-1.1947719e+183
-1.1950272e+183
-1.2195094e+183
-1.2173173e+183
-1.2193419e+183
-1.2174785e+183
-1.2179178e+183
-1.2176849e+183
-1.219711e+183
-1.2199397e+183
-1.2213919e+183
-1.2235403e+183
-1.221553e+183
-1.2236939e+183
-1.2219876e+183
-1.2239008e+183
-1.2241381e+183
-1.221757e+183
-1.2167873e+183
-1.2187993e+183
-1.2168908e+183
-1.2189137e+183
-1.2209463e+183
-1.2230902e+183
-1.2208389e+183
-1.2229834e+183
-1.2191891e+183
-1.2170107e+183
-1.2190426e+183
-1.2171551e+183
-1.2210906e+183
-1.2232349e+183
-1.2233987e+183
-1.2212432e+183
-1.2251414e+183
-1.2273898e+183
-1.2275149e+183
-1.2252537e+183
-1.2296705e+183
-1.2320764e+183
-1.2322021e+183
-1.2297928e+183
-1.2253967e+183
-1.2255539e+183
-1.2276533e+183
-1.2277995e+183
-1.2299367e+183
-1.2300898e+183
-1.2323494e+183
-1.2325153e+183
-1.2281384e+183
-1.225705e+183
-1.2279598e+183
-1.2258643e+183
-1.2326841e+183
-1.2302561e+183
-1.2304354e+183
-1.2328683e+183
-1.2285782e+183
-1.2260742e+183
-1.228347e+183
-1.2263088e+183
-1.2330923e+183
-1.2306535e+183
-1.2308903e+183
-1.2333373e+183
-1.2094167e+183
-1.2096114e+183
-1.2113276e+183
-1.2115188e+183
-1.2134689e+183
-1.2152924e+183
-1.2154576e+183
-1.213292e+183
-1.2098523e+183
-1.2100855e+183
-1.2119725e+183
-1.2117424e+183
-1.2136807e+183
-1.213912e+183
-1.2156671e+183
-1.2159042e+183
-1.2052787e+183
-1.2054861e+183
-1.2074773e+183
-1.2076709e+183
-1.2079109e+183
-1.2081471e+183
-1.2057257e+183
-1.2059518e+183
-1.2027824e+183
-1.1987105e+183
-1.2023169e+183
-1.1981542e+183
-1.1946125e+183
-1.1951921e+183
-1.2046594e+183
-1.2047611e+183
-1.2069409e+183
-1.2069999e+183
-1.2071395e+183
-1.2073065e+183
-1.2049255e+183
-1.2050948e+183
-1.2019263e+183
-1.1976709e+183
-1.2015633e+183
-1.1972469e+183
-1.193653e+183
-1.1940954e+183
-1.2108798e+183
-1.2089028e+183
-1.2108217e+183
-1.208947e+183
-1.2127881e+183
-1.2147831e+183
-1.2148664e+183
-1.2128594e+183
-1.2111466e+183
-1.2090736e+183
-1.2109881e+183
-1.2092351e+183
-1.212974e+183
-1.214984e+183
-1.2131266e+183
-1.2151314e+183
-1.1901453e+183
-1.1866407e+183
-1.1870851e+183
-1.1905915e+183
-1.1911015e+183
-1.1876066e+183
-1.1882765e+183
-1.191735e+183
-1.1749967e+183
-1.1742928e+183
-1.1775189e+183
-1.1782105e+183
-1.1737627e+183
-1.1733372e+183
-1.1765467e+183
-1.1769901e+183
-1.1831655e+183
-1.179764e+183
-1.1802025e+183
-1.1835979e+183
-1.18142e+183
-1.1807304e+183
-1.1841201e+183
-1.1848205e+183
-1.1760835e+183
-1.1755832e+183
-1.1788023e+183
-1.1793096e+183
-1.1854099e+183
-1.1820222e+183
-1.182535e+183
-1.1858873e+183
-1.186311e+183
-1.1829912e+183
-1.186594e+183
-1.1832469e+183
-1.1797392e+183
-1.1765274e+183
-1.1768774e+183
-1.1800481e+183
-1.1821376e+183
-1.1793125e+183
-1.1792804e+183
-1.1821262e+183
-1.1797068e+183
-1.1794938e+183
-1.1823842e+183
-1.1826403e+183
-1.1851723e+183
-1.1851144e+183
-1.1882483e+183
-1.1883724e+183
-1.1886761e+183
-1.1854545e+183
-1.1857452e+183
-1.1890014e+183
-1.1014886e+183
-1.0726111e+183
-1.0705247e+183
-1.0333648e+183
-1.1638377e+183
-1.1622821e+183
-1.1691253e+183
-1.1707124e+183
-1.160823e+183
-1.1836068e+183
-1.1760441e+183
-1.1854283e+183
-1.1777177e+183
-1.1463375e+183
-1.1537099e+183
-1.1285002e+183
-1.1385909e+183
-1.1318988e+183
-1.1299848e+183
-1.1399982e+183
-1.1417824e+183
-1.1551284e+183
-1.1476865e+183
-1.1567154e+183
-1.1493751e+183
-1.1956092e+183
-1.1916694e+183
-1.1965111e+183
-1.1975029e+183
-1.1934849e+183
-1.1925879e+183
-1.200338e+183
-1.2043115e+183
-1.2014123e+183
-1.2054651e+183
-1.2082783e+183
-1.212426e+183
-1.2094596e+183
-1.2136194e+183
-1.217898e+183
-1.2224985e+183
-1.2270461e+183
-1.2319299e+183
-1.2628236e+183
-1.2672375e+183
-1.2677789e+183
-1.2633375e+183
-1.2644383e+183
-1.2638539e+183
-1.2682851e+183
-1.2688681e+183
-1.2774539e+183
-1.2717119e+183
-1.2769382e+183
-1.2722271e+183
-1.2733752e+183
-1.2786715e+183
-1.2727571e+183
-1.278011e+183
-1.2506979e+183
-1.253999e+183
-1.2545857e+183
-1.2512675e+183
-1.2524554e+183
-1.2518442e+183
-1.2551531e+183
-1.25575e+183
-1.2617444e+183
-1.2573114e+183
-1.2611598e+183
-1.2578887e+183
-1.2590776e+183
-1.2629565e+183
-1.2584595e+183
-1.2623232e+183
-1.2524673e+183
-1.2486501e+183
-1.2519333e+183
-1.2491631e+183
-1.2552184e+183
-1.2590338e+183
-1.2595328e+183
-1.2557313e+183
-1.2534917e+183
-1.2496496e+183
-1.2529462e+183
-1.2501918e+183
-1.2562351e+183
-1.260052e+183
-1.2567935e+183
-1.2606287e+183
-1.2649727e+183
-1.2694182e+183
-1.2700428e+183
-1.2655628e+183
-1.2739509e+183
-1.2792657e+183
-1.2799301e+183
-1.2745867e+183
-1.2661583e+183
-1.2668046e+183
-1.2706614e+183
-1.2713176e+183
-1.2752333e+183
-1.2759299e+183
-1.2805976e+183
-1.2813287e+183
-1.2447264e+183
-1.2414573e+183
-1.2441968e+183
-1.2419755e+183
-1.2469463e+183
-1.2499862e+183
-1.2504814e+183
-1.2474524e+183
-1.2429514e+183
-1.2456946e+183
-1.2424594e+183
-1.2452003e+183
-1.2479368e+183
-1.2509786e+183
-1.2484477e+183
-1.2515115e+183
-1.2334481e+183
-1.2358435e+183
-1.2361653e+183
-1.2337454e+183
-1.2342626e+183
-1.2340198e+183
-1.2364478e+183
-1.2366998e+183
-1.2411376e+183
-1.238221e+183
-1.2407895e+183
-1.2385514e+183
-1.2391251e+183
-1.2417484e+183
-1.2388507e+183
-1.2414492e+183
-1.2345904e+183
-1.2317014e+183
-1.2340623e+183
-1.2322141e+183
-1.2364051e+183
-1.2389321e+183
-1.2394411e+183
-1.2369179e+183
-1.2354902e+183
-1.2326641e+183
-1.2350383e+183
-1.2331077e+183
-1.2373909e+183
-1.2399273e+183
-1.2378569e+183
-1.2404144e+183
-1.2433382e+183
-1.2461013e+183
-1.2464989e+183
-1.2437012e+183
-1.2519707e+183
-1.2493019e+183
-1.2488863e+183
-1.252414e+183
-1.2440356e+183
-1.244351e+183
-1.2468578e+183
-1.2471911e+183
-1.2528282e+183
-1.2500525e+183
-1.2532208e+183
-1.2496904e+183
-1.2371391e+183
-1.2376722e+183
-1.240418e+183
-1.2398785e+183
-1.2387375e+183
-1.2414514e+183
-1.2381906e+183
-1.2409213e+183
-1.2426295e+183
-1.2456777e+183
-1.2461869e+183
-1.2431503e+183
-1.2436446e+183
-1.2441793e+183
-1.2466765e+183
-1.2472148e+183
-1.2324128e+183
-1.2295009e+183
-1.2318561e+183
-1.2300627e+183
-1.2341891e+183
-1.2367115e+183
-1.2372535e+183
-1.2347352e+183
-1.230618e+183
-1.2311942e+183
-1.2329615e+183
-1.2335475e+183
-1.2352791e+183
-1.2358811e+183
-1.2377971e+183
-1.2384086e+183
-1.2278531e+183
-1.2273257e+183
-1.2297029e+183
-1.2302352e+183
-1.2325894e+183
-1.2320615e+183
-1.2346086e+183
-1.2351348e+183
-1.2313504e+183
-1.2283853e+183
-1.2307612e+183
-1.2289786e+183
-1.2356609e+183
-1.233121e+183
-1.2336945e+183
-1.236224e+183
-1.2424981e+183
-1.2392215e+183
-1.2419399e+183
-1.239763e+183
-1.2477226e+183
-1.2446845e+183
-1.2452433e+183
-1.2482866e+183
-1.2409295e+183
-1.2436733e+183
-1.2403158e+183
-1.243061e+183
-1.248866e+183
-1.2458153e+183
-1.2464331e+183
-1.2494843e+183
-1.2529568e+183
-1.2562604e+183
-1.2567907e+183
-1.2534583e+183
-1.2539655e+183
-1.2545141e+183
-1.2573117e+183
-1.257874e+183
-1.2640406e+183
-1.2595986e+183
-1.2634884e+183
-1.2601361e+183
-1.2612701e+183
-1.2652255e+183
-1.2606772e+183
-1.2646003e+183
-1.2549897e+183
-1.2583663e+183
-1.2588717e+183
-1.2554558e+183
-1.2662886e+183
-1.2617812e+183