/*--------------------------------*- C++ -*----------------------------------*\
  =========                 |
  \\      /  F ield         | OpenFOAM: The Open Source CFD Toolbox
   \\    /   O peration     | Website:  https://openfoam.org
    \\  /    A nd           | Version:  7
     \\/     M anipulation  |
\*---------------------------------------------------------------------------*/
FoamFile
{
    version     2.0;
    format      ascii;
    class       surfaceScalarField;
    location    "2000";
    object      phi;
}
// * * * * * * * * * * * * * * * * * * * * * * * * * * * * * * * * * * * * * //

dimensions      [0 3 -1 0 0 0 0];

internalField   nonuniform List<scalar> 
100288
(
-1.2207822e+88
-1.0565547e+88
-1.399857e+88
-1.2445079e+88
2.9533372e+87
1.4958709e+87
-2.4873771e+87
-2.6789967e+87
-3.2544227e+87
-3.2209315e+87
1.7205926e+87
-2.7758313e+87
-3.402046e+87
-3.1101282e+87
-2.4616845e+87
1.3166666e+87
9.96386e+86
1.1262e+87
-1.497207e+88
-2.6947084e+86
-3.6709649e+86
1.0666523e+87
1.1018783e+87
-1.5010837e+88
-2.4260443e+86
-3.8463145e+86
5.0289177e+86
-2.8780988e+87
-2.9046203e+87
-3.306119e+87
-3.0704214e+87
-2.6432434e+87
-3.5832005e+87
-2.3321009e+87
-2.6653519e+87
-1.9101668e+87
-2.2615801e+87
5.3525124e+86
-2.7929909e+87
-3.1509817e+87
-3.1047301e+87
-2.6799785e+87
-2.5434002e+87
-2.3394876e+87
-2.1097571e+87
-1.8872411e+87
-4.9297965e+86
-5.2227608e+86
5.6062905e+86
3.8524262e+86
-5.4960023e+86
-7.1113503e+86
-4.9854286e+86
-6.5871052e+86
-4.8676274e+86
3.3243923e+86
-5.3112753e+86
-5.079995e+86
-6.8553678e+86
-6.7735731e+86
2.4685311e+86
-2.6551711e+87
3.2744867e+86
-2.6976022e+87
-5.2538525e+86
3.7515499e+86
3.8390693e+86
-6.9888098e+86
-5.2048152e+86
-6.9030727e+86
-5.3920631e+86
1.8608402e+86
-2.7194139e+87
5.4260085e+86
-2.6806085e+87
4.1298865e+86
-5.0943616e+86
-5.5654144e+86
-6.6606347e+86
-7.2169662e+86
-6.3753292e+86
1.1704884e+88
6.9780689e+86
-8.2088841e+86
6.3547257e+86
-9.1857383e+86
-1.4911656e+88
-1.120994e+88
5.7101178e+86
-5.4745963e+86
-9.7660531e+86
-1.1637639e+88
9.3384645e+86
7.9555026e+86
-6.660351e+86
-7.05913e+86
8.9137769e+86
-1.4749098e+88
5.8309533e+86
-9.1405777e+86
-8.9687607e+86
6.5407439e+86
-7.3666467e+86
-6.2359294e+86
7.979011e+86
8.6284642e+86
-2.1769155e+86
-1.3885805e+88
6.0772758e+86
-7.0519688e+86
-2.4288997e+86
2.9483998e+86
2.2113221e+86
2.276457e+86
-3.3459989e+87
-7.3417412e+85
-4.8383591e+85
2.3754527e+86
2.095132e+86
-3.2964131e+87
-4.8901355e+85
-6.7234168e+85
-2.3252685e+86
2.3434555e+86
2.3089043e+86
-3.3306868e+87
-6.8498591e+85
-4.2117723e+85
2.404746e+86
2.1294138e+86
-3.3751876e+87
-4.9437898e+85
-7.0522275e+85
-3.1586067e+86
2.4346163e+86
3.2949456e+86
-3.6756592e+86
-2.7941493e+87
1.7576061e+86
-3.1657241e+86
-8.7263375e+86
-2.6085342e+87
3.112512e+86
-9.2767596e+86
-2.5933588e+87
3.448578e+86
-2.7907721e+87
-3.7776663e+86
7.4778569e+85
-6.2504611e+86
-5.200796e+86
-5.8556048e+86
-4.774978e+86
7.1785695e+85
-5.8026545e+86
-6.0180573e+86
-6.0623154e+86
-5.0735459e+86
-4.8974982e+86
-5.283446e+86
-4.4380405e+86
-3.8923249e+86
-4.0201723e+86
-3.4529914e+86
-7.7766187e+86
-4.2900287e+86
-3.9672894e+86
-3.8145033e+86
-3.4938555e+86
-3.0965771e+86
3.1259615e+86
3.211199e+86
-2.7225807e+87
2.3235635e+86
-8.3375955e+86
-2.5372474e+87
3.0464716e+86
-9.3942625e+86
-2.5541674e+87
3.3582445e+86
-2.7661244e+87
4.8679133e+86
8.5524449e+85
-5.8759909e+86
-5.9006929e+86
-4.9453322e+86
-4.7684755e+86
8.26084e+85
-5.79224e+86
-6.1637679e+86
-4.711571e+86
-5.1298618e+86
6.4557178e+86
-4.1785314e+86
-3.8229321e+86
-3.6707335e+86
-3.3046698e+86
-4.3983286e+86
-3.8218137e+86
-3.9477666e+86
-3.3468843e+86
-1.0520095e+86
6.1627101e+85
-8.9763152e+85
9.2991302e+85
-1.4473872e+86
-1.1057003e+86
-1.0696928e+86
-1.4697534e+86
3.4467288e+85
-6.0895191e+85
-5.6877554e+86
-1.0803124e+86
8.0518981e+85
9.9582394e+85
-1.1325809e+86
-1.0448121e+86
-1.4039957e+86
-1.5084648e+86
5.637574e+85
-5.6100433e+86
7.6993273e+85
-1.0012657e+86
8.2970255e+85
-1.0885658e+86
-1.059852e+86
-1.4221416e+86
-1.4609307e+86
-1.064069e+86
9.613712e+85
-1.1359481e+86
-1.0416277e+86
-1.5129142e+86
-1.4144981e+86
-4.5670734e+85
-5.696227e+86
-5.569819e+86
1.0879187e+86
-4.1111038e+85
5.3490863e+85
-5.7957786e+86
-6.5777116e+85
7.2967807e+85
1.0172479e+86
-1.1494269e+86
-1.0697088e+86
-1.5410617e+86
-1.4458506e+86
1.0279952e+86
-5.649006e+86
8.9709479e+85
-1.102783e+86
-1.0813506e+86
-1.4443074e+86
-1.4853017e+86
-4.90175e+85
-1.1293757e+86
1.0494211e+86
-1.1634072e+86
-1.5510315e+86
-1.444611e+86
-1.0758386e+86
-1.1031337e+86
9.9947486e+85
-1.126377e+86
-1.1037452e+86
-1.4845074e+86
-1.507621e+86
-3.0995708e+85
-5.690889e+86
-5.7862436e+86
-2.6324323e+87
-1.3896663e+86
3.3616676e+87
-1.6263312e+86
-1.8523865e+86
1.4353566e+86
1.3235257e+86
-1.1228411e+86
1.3674944e+86
1.265746e+86
-1.9608457e+86
-1.7653514e+86
-3.3726647e+87
-5.5600539e+86
-3.5337626e+85
-3.7532373e+85
2.6436292e+85
-3.5482697e+85
3.0538462e+85
-3.2054622e+85
2.3872824e+85
2.7547291e+85
-4.1513043e+85
-7.0910903e+86
-4.047503e+85
-2.6847043e+87
-1.0257606e+86
1.1638954e+86
-2.0618292e+86
-2.0955585e+86
-2.6702096e+87
-1.6417918e+86
3.4035783e+87
-1.6952935e+86
-1.8058197e+86
1.2894806e+86
1.4847973e+86
-1.2731001e+86
1.4079578e+86
-1.8429175e+86
-1.8862057e+86
1.2481294e+86
-3.4664541e+87
-4.4324519e+86
-1.1092837e+88
5.8825475e+86
5.8258858e+86
-9.9017036e+86
-9.4306278e+86
-3.4363653e+87
-7.4299611e+85
-2.2004106e+86
-2.2797392e+86
1.1564222e+86
1.2282709e+86
-2.6121234e+87
1.8780955e+86
1.8550235e+86
-1.1413139e+86
-1.2529763e+86
2.0798965e+86
-1.5511392e+86
2.6285462e+87
-3.3244604e+87
1.9008852e+86
1.4921066e+86
-1.4789624e+86
-1.6769992e+86
1.6129042e+86
-3.2755462e+87
1.493261e+86
-1.4460209e+86
-1.5549886e+86
1.7230771e+86
2.2490239e+86
-1.3242548e+86
-1.126026e+86
1.9678255e+86
1.8507802e+86
-1.0945649e+88
-9.7349059e+86
-9.6894157e+86
5.4302346e+86
5.7446417e+86
1.5663301e+86
-1.3588759e+88
5.863768e+86
-6.9814322e+86
-7.2084724e+86
6.0452842e+86
-1.3790069e+88
6.2376761e+86
-7.0453083e+86
-6.9443113e+86
6.1355773e+86
-2.5792571e+87
1.3516459e+86
-1.7244691e+86
1.2660526e+86
1.438461e+86
-1.6907547e+86
1.0029251e+86
-3.3415381e+87
1.149301e+86
-1.8802885e+86
-1.9028036e+86
1.2937271e+86
2.6087369e+87
-3.3873304e+87
-2.0097673e+86
1.2529374e+86
1.1702021e+86
-1.8663728e+86
-1.8469819e+86
-1.6399535e+86
1.2430518e+86
1.3372463e+86
1.6600573e+86
2.6766443e+87
1.7264018e+86
-1.6017909e+86
1.5173316e+86
-1.4984203e+86
2.6658876e+87
-1.6620747e+86
1.5680906e+86
1.7116372e+86
-1.4236859e+86
1.7794448e+86
-1.3138814e+86
1.8429158e+86
-1.1469593e+86
2.0810849e+86
-1.0882828e+86
-1.3397161e+86
1.9019382e+86
2.0250753e+86
-1.8379422e+86
8.1576245e+86
-4.1015656e+86
-2.5794824e+87
-3.7799578e+85
1.162491e+86
-2.3496861e+86
-2.3861109e+86
1.2375046e+86
2.8451406e+85
-3.1392598e+87
-1.9042458e+86
1.23783e+86
-2.0040118e+86
1.2807555e+86
4.3612347e+85
-5.4881032e+85
4.6174576e+85
5.1104439e+85
-7.0544958e+86
-1.3024467e+85
-9.7289787e+84
5.1050919e+85
5.0187975e+85
4.9559857e+85
-6.9552224e+86
-8.2408847e+84
-1.2811026e+85
-4.292695e+85
4.9034038e+85
4.9974285e+85
-7.0739343e+86
-1.3241616e+85
-8.8511851e+84
4.5798466e+85
5.1421406e+85
-6.9115587e+86
-1.2547617e+85
-9.2424841e+84
4.1993124e+85
-5.2144246e+85
4.8696233e+85
5.3107014e+85
-7.174609e+86
-8.9323994e+84
-1.2381591e+85
5.227811e+85
5.2377097e+85
-7.0561786e+86
-1.1883722e+85
-7.2181936e+84
-4.1159509e+85
5.0287564e+85
5.107243e+85
-7.191952e+86
-8.7880015e+84
-1.3377194e+85
4.6227658e+85
5.1901162e+85
-7.014106e+86
-9.4591822e+84
-1.2790445e+85
2.1686799e+87
-4.9377245e+86
-3.6441047e+86
-1.3611284e+88
-5.1113035e+86
-3.7785211e+86
-1.3897594e+88
-2.742163e+86
3.0512581e+86
2.0300163e+86
1.8719611e+86
-3.188833e+86
-2.8193164e+87
-2.8609731e+85
-4.8446582e+85
2.1724261e+86
-2.8893645e+86
-3.3221867e+87
2.8500305e+86
-3.3198524e+87
1.9703976e+86
2.0345752e+86
-2.829416e+87
-2.4894443e+85
-4.4636325e+85
8.6584575e+85
2.3858194e+85
-4.4170733e+85
-4.9427812e+86
3.659941e+85
-5.4339083e+85
7.9088315e+85
-4.9484318e+86
8.6370269e+85
-4.9262931e+86
8.0379485e+85
-4.9178055e+86
-3.5095135e+85
8.2795838e+85
-4.9067546e+86
8.3122224e+85
-4.8519475e+85
-4.8873311e+86
4.8614813e+85
7.6015768e+85
-6.1218587e+85
-4.8764403e+86
7.7233505e+85
-4.8991156e+86
6.0605569e+85
-3.1088975e+84
-8.9629803e+85
-9.1109031e+85
-9.1142522e+85
-7.3581016e+85
-7.6749496e+85
-3.3404972e+84
-8.8524525e+85
-9.390865e+85
-7.8653092e+85
-7.1075884e+85
7.6219754e+85
-1.1105808e+86
-7.1752867e+85
-6.7651447e+85
-6.7684682e+85
-6.3250989e+85
-6.9892191e+85
-7.4611396e+85
-6.1169676e+85
-6.5959627e+85
7.5538073e+85
3.7959446e+83
-1.0083084e+86
-8.9931576e+85
-9.0268543e+85
-7.2184132e+85
-7.5689162e+85
-4.5369634e+84
-9.2713593e+85
-8.7487167e+85
-7.8329418e+85
-7.0519857e+85
9.3455784e+85
-1.2269124e+86
-6.9733728e+85
-6.4958845e+85
-6.6267091e+85
-6.1165651e+85
-7.4227892e+85
-6.553847e+85
-6.9620232e+85
-6.0413389e+85
-2.7398974e+86
3.4773997e+86
2.0077651e+86
1.8390545e+86
-2.7582848e+87
-4.5063814e+85
-2.5202374e+85
2.3241432e+86
-3.2401961e+87
2.7408743e+86
-3.2491871e+87
2.0077237e+86
1.9250625e+86
-2.7873106e+87
-4.5098356e+85
-2.4049515e+85
-3.6661672e+85
8.2052152e+85
4.8823461e+85
-4.8103599e+86
8.2341407e+85
-4.7764807e+86
5.3923633e+85
7.4982515e+85
-4.7702706e+86
6.2995838e+85
7.6935975e+85
-4.8080271e+86
-2.6368738e+85
8.3903604e+85
-4.8450578e+86
8.4639082e+85
-4.8605471e+86
-4.267071e+85
7.8853207e+85
-4.846542e+86
7.7091043e+85
-4.8511263e+86
8.925826e+85
2.5706968e+84
-8.8056503e+85
-8.8279378e+85
-7.0245251e+85
-7.4764804e+85
-2.4991884e+84
1.1012174e+86
-9.158812e+85
-8.6106474e+85
-7.7470111e+85
-6.8555781e+85
1.0868501e+86
-6.4698906e+85
-6.8572566e+85
-6.3015339e+85
-5.8521705e+85
1.354775e+86
-7.3636155e+85
-6.3522257e+85
-6.8508265e+85
-5.795422e+85
7.4623991e+85
-1.2032474e+84
-8.9402845e+85
-8.9287508e+85
-7.5867365e+85
-7.1482557e+85
-2.6418673e+84
-9.2625776e+85
-8.707589e+85
-7.7901176e+85
-6.9290017e+85
9.4741635e+85
-6.6413479e+85
-7.0297381e+85
-6.506188e+85
-6.0479645e+85
-7.3800151e+85
-6.3920285e+85
-6.9110355e+85
-5.8866617e+85
2.33403e+85
7.2198581e+84
-9.7935089e+84
-1.1933072e+86
1.1803946e+85
-1.3733301e+85
2.6293117e+85
-2.2075941e+85
-2.2194153e+85
-3.3108721e+85
-3.4214562e+85
-2.410662e+85
1.2662837e+85
2.8431584e+85
-2.1473575e+85
-2.289124e+85
-3.4881861e+85
-3.2906386e+85
8.9823432e+84
-1.2173998e+86
8.1649543e+84
-2.4459839e+85
2.8440599e+85
-2.2273061e+85
-2.2382275e+85
-3.3690393e+85
-3.4395171e+85
-2.5036582e+85
1.2377834e+85
2.9033523e+85
-2.1738581e+85
-2.3191749e+85
-3.5132728e+85
-3.2627924e+85
-4.9397384e+84
9.1811053e+84
-1.1948951e+86
-1.2170385e+86
1.2253493e+85
-2.2870911e+85
2.5165911e+85
-2.1791438e+85
-2.1998467e+85
-3.2735046e+85
-3.3908978e+85
-2.4001704e+85
1.4358818e+85
2.7573096e+85
-2.1352827e+85
-2.2781031e+85
-3.4726825e+85
-3.2801085e+85
7.7289198e+84
-1.1800581e+86
1.0269399e+85
-1.212138e+86
9.9605729e+84
-2.4093789e+85
2.7747193e+85
-2.2249573e+85
-2.2387978e+85
-3.3663227e+85
-3.4549054e+85
-2.4652331e+85
2.850568e+85
-2.1350324e+85
-2.2923425e+85
-3.4921802e+85
-3.2593201e+85
5.7710328e+84
-1.2185278e+86
-1.2015032e+86
8.3705433e+84
-2.4838099e+85
-1.268401e+85
2.8897666e+85
-2.2624841e+85
-2.2700823e+85
-3.4260764e+85
-3.5102349e+85
-2.5363145e+85
1.1363154e+85
2.9685502e+85
-2.1868587e+85
-2.330177e+85
-3.5724912e+85
-3.3390558e+85
5.4299464e+84
-9.7609182e+84
-1.2432573e+86
9.2660798e+84
-1.227119e+86
1.1272519e+85
-2.3475743e+85
2.6599976e+85
-2.2229861e+85
-2.2209456e+85
-3.3293811e+85
-3.456406e+85
-2.4510322e+85
2.8592814e+85
-2.1713664e+85
-2.307249e+85
-3.5384533e+85
-3.3458345e+85
7.5626984e+84
-1.2006041e+86
-1.2333754e+86
-2.5855766e+85
7.2402758e+84
-1.0531362e+85
3.0054402e+85
-2.3233265e+85
-2.3325213e+85
-3.4900153e+85
-3.5789613e+85
5.0660029e+84
-8.7955492e+84
-1.2495124e+86
2.6280911e+85
-1.2283151e+86
3.0206489e+85
-2.2131541e+85
-2.3914913e+85
-3.5989924e+85
-3.3732119e+85
1.0306492e+85
-2.4693058e+85
2.8096153e+85
-2.286582e+85
-2.2895518e+85
-3.4131056e+85
-3.5091731e+85
-2.51515e+85
2.9702911e+85
-2.2083721e+85
-2.340573e+85
-3.5842302e+85
-3.3819041e+85
7.0724816e+84
-1.2225396e+86
-1.2452966e+86
-2.9594106e+85
5.4444718e+86
-7.0150319e+86
-3.7206764e+85
-3.3174523e+85
2.7299573e+85
2.9543728e+85
5.5080068e+86
-7.1436167e+86
-3.4773044e+85
-3.6815266e+85
2.5905911e+85
-3.5111578e+85
2.9522214e+85
-2.8585262e+85
6.9110807e+86
-3.6689078e+85
2.7718998e+85
-3.2671267e+85
2.9654198e+85
-3.4947374e+85
7.0371778e+86
-3.6352286e+85
2.6462361e+85
-3.4364938e+85
3.0052422e+85
1.1092118e+86
-1.4340321e+86
-6.055494e+84
6.3524362e+84
-7.2897727e+84
5.6256718e+84
-7.092382e+84
-6.3605394e+84
-7.3095591e+84
5.6099029e+84
-7.0587396e+84
-2.7016069e+85
-5.5670376e+86
-3.8564638e+85
2.7367095e+85
-3.4483344e+85
2.9309362e+85
-5.6304305e+86
-3.2899647e+85
-3.8282656e+85
2.6164336e+85
-3.6402517e+85
2.9660391e+85
2.4563162e+85
-2.9838746e+85
2.3574189e+85
2.6997735e+85
-4.2295861e+85
-4.0768727e+85
-7.2135939e+86
2.47373e+85
2.6968365e+85
-3.890936e+85
-4.2755711e+85
-7.1077096e+86
-8.4002754e+85
-2.6440911e+87
1.1971783e+86
1.2874638e+86
-2.1611638e+86
-1.9124007e+86
1.1374119e+86
5.1944122e+84
-1.4808989e+86
-6.5587902e+84
6.5314384e+84
-7.2090676e+84
5.8333943e+84
-6.9750473e+84
5.2347519e+84
-6.2643077e+84
-7.3264308e+84
5.7590686e+84
6.4532316e+84
-7.082023e+84
1.1585593e+86
-1.5119321e+86
6.4916621e+84
-7.3771006e+84
6.146311e+84
-6.7539303e+84
-7.5635787e+84
6.0607049e+84
-6.9373032e+84
6.3725094e+84
5.9392599e+84
-1.1930847e+86
-7.2680326e+84
-7.5843112e+84
-7.4516753e+84
5.3744681e+84
6.081722e+84
-1.2115075e+86
5.5944394e+84
5.9200193e+84
-7.8800822e+84
-7.3691259e+84
4.8612263e+84
-6.4182041e+84
-7.0224418e+84
-1.5224209e+86
-5.6246957e+86
-2.7481348e+85
2.5027854e+85
-3.9380373e+85
-4.0956486e+85
2.8591166e+85
-1.5539996e+86
-7.6896974e+84
-2.0779059e+85
-7.5215302e+86
-4.1102616e+85
-4.4173685e+85
2.578565e+85
2.698328e+85
-7.373738e+86
-2.5128915e+85
-4.108531e+85
-4.2135066e+85
2.4830377e+85
2.8088235e+85
-2.4209387e+85
5.5210755e+86
-7.1566155e+86
-3.7702025e+85
-3.4529972e+85
2.6976504e+85
2.8716441e+85
5.3946739e+86
-6.9740105e+86
-3.0347342e+85
-3.6191711e+85
2.5562023e+85
-3.4985111e+85
2.9104392e+85
2.5445356e+85
-2.9281919e+85
6.8602718e+86
-3.5670087e+85
2.6189586e+85
-3.4125502e+85
2.983081e+85
7.0540797e+86
-3.7105876e+85
2.7431965e+85
-3.3755249e+85
2.9106439e+85
-5.6425181e+86
-2.3922662e+85
-3.913682e+85
2.7079669e+85
-3.6032862e+85
2.8499036e+85
-2.0792995e+85
2.4385143e+85
2.6130075e+85
-4.0167478e+85
-4.3319835e+85
-7.2461724e+86
5.5287721e+86
-2.3727623e+85
2.386637e+85
2.7210817e+85
-4.0141152e+85
-4.1017394e+85
-7.0848185e+86
-2.5684175e+85
-3.7146985e+85
2.5864391e+85
-3.5929387e+85
2.9262579e+85
-2.7020248e+87
-1.0286976e+86
1.322867e+86
1.1977563e+86
-2.0826655e+86
-2.0676957e+86
4.6495128e+85
-6.3214131e+85
-3.4592616e+87
-2.2788025e+86
-2.2580078e+86
1.1381465e+86
1.2365157e+86
-3.3953072e+87
-2.3230997e+86
1.1334203e+86
1.1828776e+86
-2.18971e+86
1.2946464e+85
5.8899093e+86
-7.6898324e+86
-1.7202575e+85
2.6085672e+85
-4.5552241e+85
-4.5087835e+85
2.8761791e+85
5.9793669e+86
-7.8702691e+86
-4.6863355e+85
-4.9938835e+85
2.4747347e+85
2.6179266e+85
1.8288373e+85
-1.9878695e+85
-4.2558165e+85
-4.2795294e+85
2.5733006e+85
2.8470138e+85
2.5375545e+85
-4.6491079e+85
-4.3190556e+85
2.6793745e+85
-5.4368167e+86
3.5364699e+85
-2.2546069e+85
-2.0036348e+85
4.1056413e+85
4.5696867e+85
-3.178015e+85
5.5343645e+86
-7.0011644e+86
4.3637691e+85
-2.9235356e+85
-2.5590184e+85
3.6670032e+85
3.8846812e+85
-6.801242e+86
-2.7806843e+85
3.5328216e+85
-2.604877e+85
3.9579006e+85
4.5807458e+85
-2.3434405e+85
4.2143496e+85
-1.9419103e+85
4.4300009e+85
-5.3652821e+86
3.0659219e+85
-4.106703e+85
6.9559634e+86
-3.2674959e+85
2.9936748e+85
-3.0564667e+85
3.3853344e+85
-2.7125705e+85
5.3194663e+86
-6.76571e+86
3.1999777e+85
-3.4813015e+85
-3.1284696e+85
2.8189327e+85
2.9762481e+85
-3.6404025e+85
-6.8532206e+86
-3.4182974e+85
2.682462e+85
-3.265759e+85
3.0388252e+85
6.8695356e+86
3.6128486e+85
-3.3101543e+85
3.0820666e+85
-2.9276342e+85
3.2371499e+85
-5.2674744e+86
3.0939664e+85
-3.1473126e+85
-2.9784647e+85
3.0068012e+85
3.3980409e+85
-2.9028705e+85
5.4038894e+86
-6.8730242e+86
-3.4035181e+85
2.906234e+85
-3.0960685e+85
3.0869771e+85
-6.6954816e+86
-3.2818682e+85
2.7142321e+85
-3.1580864e+85
3.0826233e+85
-3.2644891e+85
3.1374374e+85
-2.9286909e+85
3.3010282e+85
3.5231454e+85
5.522912e+86
-2.865852e+85
-2.6527939e+85
3.5176142e+85
3.9296283e+85
5.4796462e+86
4.180399e+85
-2.9556009e+85
3.634463e+85
-2.5386161e+85
3.8411447e+85
-3.5963135e+85
4.2538815e+85
-2.3649452e+85
4.1957783e+85
4.3741282e+85
-1.9400263e+85
-2.3354704e+85
-2.0589483e+85
4.0694576e+85
4.5013588e+85
-1.946257e+86
-1.0851113e+88
8.4190637e+86
8.1891638e+86
-4.3925037e+86
-4.0732741e+86
-1.0675662e+88
8.1015542e+86
8.3281603e+86
-4.2800756e+86
-3.900139e+86
1.7594441e+86
-1.2092052e+88
-9.3294728e+86
-1.2253122e+88
-1.0155075e+87
-3.7295297e+85
2.6426044e+87
-3.412218e+87
-2.2189181e+86
-2.3185553e+86
1.1078502e+86
1.1316656e+86
2.6317562e+87
-3.3706141e+87
-4.8475036e+85
1.091442e+86
-2.2242694e+86
1.204409e+86
-2.2606215e+86
8.3766472e+85
-8.6325678e+85
-1.9867469e+86
-1.9990711e+86
1.1054587e+86
1.2383674e+86
-2.0208832e+86
-2.1544299e+86
1.1186826e+86
1.162979e+86
-2.529447e+87
1.604949e+85
-3.5309777e+85
-2.3748808e+86
-2.2973955e+86
1.138115e+86
1.1788634e+86
-3.0660573e+85
1.3003672e+85
-3.0799899e+87
1.2551207e+86
-1.8589317e+86
-1.9678956e+86
1.2722703e+86
2.5742081e+87
-2.7952242e+85
-3.172475e+87
-1.9239962e+86
-1.9113082e+86
1.3178601e+86
1.2645558e+86
3.3385439e+85
-2.407658e+86
1.1273247e+86
-2.3470422e+86
1.1192007e+86
-2.5858496e+87
1.8887078e+85
-2.3814745e+86
-2.3429966e+86
1.1515387e+86
1.2214708e+86
-1.8675013e+85
-3.1726926e+87
-1.8740219e+86
1.301822e+86
-1.9550463e+86
1.2575949e+86
2.5603647e+87
-3.1254526e+87
-1.9126835e+86
-1.9149504e+86
1.3485088e+86
1.2834559e+86
-2.3206053e+86
-2.39725e+86
1.1628408e+86
1.1520408e+86
5.2595708e+86
2.4944685e+85
-6.7496491e+86
-3.3891044e+85
-3.4872016e+85
2.5282499e+85
-3.3729391e+85
2.8826287e+85
2.8643079e+85
-3.4669812e+85
2.5682019e+85
-3.3322164e+85
2.9166345e+85
-5.3500402e+86
3.25199e+85
-3.286164e+85
-3.5775666e+85
2.7460927e+85
2.8847299e+85
-6.9342303e+86
3.0090672e+85
-3.3807538e+85
-3.6348904e+85
2.6563477e+85
2.7790516e+85
-5.3671049e+86
2.3878559e+85
-3.059007e+85
-3.6128895e+85
2.5405545e+85
-3.4751132e+85
2.8861693e+85
-1.8746715e+85
5.4994137e+86
2.4287191e+85
-7.0972783e+86
-4.0290608e+85
-4.2415622e+85
2.4262837e+85
2.4660537e+85
-2.3268354e+85
-6.8766225e+86
2.1990274e+85
2.5003057e+85
-4.0681577e+85
-4.1118767e+85
2.8709089e+85
-3.7568421e+85
2.6609435e+85
-3.530808e+85
2.7327581e+85
5.5145043e+86
1.9530292e+85
-7.1144876e+86
-4.182013e+85
-4.2259508e+85
2.276247e+85
2.5095613e+85
-2.2356104e+85
-5.4560658e+86
6.8608785e+86
-3.7892977e+85
-3.5040493e+85
2.6825145e+85
2.759269e+85
6.9553606e+86
-3.7561536e+85
2.5240831e+85
-3.6575681e+85
2.8183945e+85
-7.0001024e+86
2.3292948e+85
2.4231745e+85
-4.0604552e+85
-4.3351099e+85
2.4173597e+85
5.3513584e+86
-3.6122515e+85
2.4927543e+85
-3.5163153e+85
2.7977217e+85
5.3237091e+86
-3.6792766e+85
2.6362949e+85
-3.3654522e+85
2.7632184e+85
2.3339369e+85
-3.4548171e+85
-3.5947286e+85
2.5308498e+85
2.848645e+85
-3.6757293e+85
2.6376371e+85
-3.3482711e+85
2.7445623e+85
-2.9311061e+85
-5.5155469e+86
3.8888573e+85
7.1264187e+86
-3.3635676e+85
-2.9907938e+85
3.1808104e+85
3.3711016e+85
5.3857952e+86
2.6010381e+85
-3.3722009e+85
2.7635053e+85
-3.2197401e+85
3.1542333e+85
6.9507454e+86
-3.030415e+85
-3.2351087e+85
3.0290609e+85
3.4420211e+85
3.6612445e+85
-3.5177976e+85
2.908377e+85
-3.1648039e+85
3.1151418e+85
5.5016568e+86
3.0547981e+85
-3.4232647e+85
2.808179e+85
-3.2327456e+85
3.1887428e+85
3.2159655e+85
7.11493e+86
-3.2841213e+85
3.0767197e+85
-3.0487035e+85
3.4771778e+85
-5.4407599e+86
7.0171527e+86
-3.2972062e+85
3.2461643e+85
-2.8803362e+85
3.4503514e+85
-3.4587848e+85
-3.0581507e+85
3.1883213e+85
2.9617293e+85
5.5334528e+86
3.175389e+85
-2.8678504e+85
-2.6624977e+85
4.004496e+85
3.5649792e+85
3.4619195e+85
-2.3007948e+85
4.1362554e+85
-2.0286927e+85
4.607824e+85
5.6502682e+86
4.3222915e+85
-2.9897102e+85
3.7416913e+85
-2.5874274e+85
3.9804614e+85
4.42836e+85
-2.4031209e+85
4.2954326e+85
-1.9817218e+85
4.5169867e+85
-3.5552107e+85
5.5910604e+86
-2.9196095e+85
3.8310418e+85
5.6373818e+86
-2.8945385e+85
3.6416561e+85
-2.662737e+85
4.0610247e+85
3.5145596e+85
4.2318835e+85
-2.3168604e+85
-2.0238518e+85
4.6697463e+85
4.3931867e+85
-2.3179315e+85
4.5914955e+85
-2.401794e+87
3.7054964e+85
1.6575974e+86
1.6789495e+86
-1.2734433e+86
-1.1042606e+86
2.9076563e+85
-9.4605731e+85
-6.0634668e+86
9.5923628e+84
-1.3945664e+85
2.6366872e+85
-4.875892e+85
2.8877186e+85
-4.8519289e+85
3.9332579e+84
-7.8048893e+86
-7.9145059e+84
2.5252134e+85
-5.326865e+85
2.5721936e+85
-5.455052e+85
6.1646508e+86
-7.9967379e+86
-5.3949864e+85
-5.596212e+85
2.5841654e+85
2.51852e+85
-4.9873164e+85
-5.2526182e+85
2.5279572e+85
2.6084964e+85
6.0014274e+86
-1.0379319e+85
1.4339136e+85
-7.4248174e+86
-5.1097302e+85
2.5697328e+85
2.7248767e+85
-5.3894201e+85
-1.8578508e+84
3.1734804e+84
2.5388911e+85
-5.455082e+85
-5.5861888e+85
2.714496e+85
6.1561878e+86
-7.6420997e+86
-5.3285859e+85
2.716011e+85
2.7425662e+85
-5.2966842e+85
2.6414816e+85
-5.715532e+85
-5.5217337e+85
2.6644892e+85
6.7576904e+84
-8.6990888e+84
1.0507234e+85
1.1566218e+85
-1.4604754e+86
-3.4495615e+84
-2.9900996e+84
8.5856228e+84
1.1118915e+85
1.1027954e+85
-1.4900627e+86
-3.5485486e+84
-2.8889166e+84
-6.9711015e+84
8.2340501e+84
1.1601529e+85
1.1218515e+85
-1.460222e+86
-2.6037598e+84
-3.1874042e+84
1.0836872e+85
1.1567964e+85
-1.4893121e+86
-2.9631537e+84
-3.4108104e+84
7.1734367e+84
-8.9288266e+84
1.0567979e+85
1.1655762e+85
-1.4903793e+86
-3.0211036e+84
-3.5036619e+84
1.1272073e+85
1.1042676e+85
-1.4673645e+86
-3.4039857e+84
-2.7014497e+84
6.6966118e+84
1.0268747e+85
1.1437212e+85
-1.4449273e+86
-3.4202926e+84
-2.9874877e+84
1.1057702e+85
1.1055874e+85
-1.4843565e+86
-3.524442e+84
-2.8419612e+84
-6.7097848e+84
8.7493941e+84
1.1695313e+85
1.1498767e+85
-1.5238377e+86
-2.7904495e+84
-3.52152e+84
-8.6338947e+84
1.0991376e+85
1.1972639e+85
-1.4951414e+86
-2.8900549e+84
-3.2712596e+84
7.0139168e+84
1.1357811e+85
1.2305153e+85
-1.5278687e+86
-3.2281027e+84
-2.747455e+84
1.1947353e+85
1.1801258e+85
-1.4988042e+86
-3.2539763e+84
-2.4277986e+84
-7.1184336e+84
1.1734459e+85
1.1389699e+85
-1.4998965e+86
-2.6916626e+84
-3.4582123e+84
-8.8058579e+84
1.0829468e+85
1.1825048e+85
-1.5209147e+86
-3.0353976e+84
-3.5431395e+84
-6.7006356e+84
1.1312883e+85
1.1336585e+85
-1.5112516e+86
-2.8443143e+84
-3.581929e+84
1.0473536e+85
1.1761421e+85
-1.471705e+86
-2.9421483e+84
-3.4397426e+84
1.5663383e+87
7.3206428e+86
8.2403683e+86
-1.6921971e+87
-1.365376e+88
-6.5208962e+86
-7.3858479e+86
7.391235e+86
8.3434291e+86
-1.3918093e+88
-6.6671154e+86
-7.6030651e+86
-1.7284674e+86
2.4385039e+86
-2.4590864e+86
-2.9290304e+87
2.2322497e+86
2.0644766e+86
-8.1946189e+85
-6.3106772e+85
-3.3976074e+85
4.2662732e+85
1.0496105e+86
-6.3293272e+86
1.0398533e+86
-4.514094e+85
-6.3000002e+86
1.7662665e+86
-2.228087e+86
-2.7097274e+87
1.7953485e+86
-2.7138737e+87
-2.9455715e+87
2.2927204e+86
2.1072967e+86
-5.9336323e+85
-7.9432286e+85
-3.1534143e+85
1.0884746e+86
-6.3885868e+86
1.0726248e+86
-6.350482e+86
5.6401447e+85
-5.8105928e+85
4.0104308e+85
4.2848523e+85
-1.4004819e+86
-1.3860539e+86
-1.0343356e+86
-1.0222962e+86
9.0839534e+84
6.4040852e+84
4.2635592e+85
4.1406524e+85
-1.3635735e+86
-1.4221026e+86
6.6019374e+84
-1.0432506e+86
-1.0124083e+86
9.7808681e+84
6.3148191e+85
3.9216199e+85
4.2453462e+85
-6.3840772e+85
-1.3778211e+86
-1.3834102e+86
-1.0070143e+86
-1.0309531e+86
9.1670502e+84
6.1172522e+84
4.0386611e+85
4.1737873e+85
-1.3450449e+86
-1.4015544e+86
-1.0291763e+86
-9.993612e+85
6.1250852e+84
9.3559304e+84
4.2985555e+84
2.1514476e+85
-6.0479957e+84
-7.0769704e+85
2.1380577e+85
5.7030966e+84
-7.1079073e+85
-1.0100573e+85
1.1717216e+85
7.8361292e+84
-1.8586161e+85
-1.3320913e+85
-1.2292873e+85
-1.7453218e+85
9.1875405e+84
-1.2948686e+85
-1.814688e+85
-1.7847935e+85
-1.2926166e+85
-1.265344e+85
-3.0171428e+84
2.1785405e+85
-7.1205448e+85
2.1692364e+85
-7.1508509e+85
8.2705116e+84
8.4195207e+84
-1.8026925e+85
-1.8196497e+85
-1.2707775e+85
-1.3002298e+85
8.669778e+84
-1.3427685e+85
-1.8826698e+85
-1.2367649e+85
-1.7600945e+85
1.1420305e+85
1.4029042e+85
-1.3806538e+85
-1.8347621e+85
-9.6261929e+84
-9.2582034e+84
-1.806749e+85
1.6423882e+85
1.2922673e+85
-1.924111e+85
-9.8038096e+84
-8.9759977e+84
-1.7853851e+85
1.3390099e+85
-1.7096417e+85
-1.1011054e+85
-1.1530959e+85
-8.8634993e+84
-9.3562478e+84
1.5875583e+85
-1.0842795e+85
-1.1921462e+85
-8.7134483e+84
-9.9987337e+84
-1.5594707e+85
1.12074e+85
-1.1558824e+85
-1.1089976e+85
-9.5166613e+84
-9.0442872e+84
8.7225102e+84
-1.8672696e+85
-9.6131707e+84
-9.3010849e+84
-1.8364571e+85
-1.5693665e+85
-9.9673271e+84
-1.2037968e+85
-1.0939902e+85
-8.5990965e+84
-8.9589387e+84
-9.9138361e+84
-1.9241501e+85
-1.7728846e+85
4.8357949e+84
2.1083995e+85
-6.4779237e+84
-7.0157167e+85
2.1167112e+85
6.5217482e+84
-7.0668105e+85
-1.1400414e+85
1.3459086e+85
8.0409383e+84
-1.8420875e+85
-1.3194722e+85
-1.2156917e+85
-1.7344049e+85
9.2321793e+84
-1.4240401e+85
-1.7965684e+85
-1.7715583e+85
-1.2834608e+85
-1.248141e+85
3.1504318e+84
2.1289566e+85
-7.0245201e+85
2.1262525e+85
-6.9909365e+85
9.2260717e+84
8.1780213e+84
-1.7961209e+85
-1.7693332e+85
-1.2809286e+85
-1.2521002e+85
7.8949952e+84
-1.7203512e+85
-1.8411076e+85
-1.3165416e+85
-1.2094917e+85
1.2861919e+85
1.3299166e+85
-1.5220965e+85
-1.7996592e+85
-9.475643e+84
-9.0329585e+84
-1.7568633e+85
1.5668075e+85
1.5682005e+85
-1.8894008e+85
-9.692472e+84
-8.8167932e+84
-1.7450909e+85
1.5008304e+85
-1.8716602e+85
-1.0789527e+85
-1.1410604e+85
-8.5999895e+84
-9.2272733e+84
1.8379384e+85
-1.067982e+85
-1.1806578e+85
-8.4809338e+84
-9.86037e+84
1.0384835e+85
1.5260454e+85
-1.8495374e+85
-9.5781037e+84
-9.1564357e+84
-1.8063583e+85
1.6057999e+85
-1.9124085e+85
-9.6990475e+84
-8.8658929e+84
-1.7643634e+85
1.2818316e+85
-1.0863283e+85
-1.1418002e+85
-8.8793228e+84
-9.4600655e+84
-1.0643646e+85
-1.1784004e+85
-8.4542615e+84
-9.8565815e+84
-1.7622255e+86
2.7160944e+86
-2.8867919e+86
-2.8496604e+87
2.2085996e+86
2.0275062e+86
-7.9495984e+85
-5.944561e+85
3.663056e+85
1.0443149e+86
-6.1665225e+86
4.6792868e+85
1.0441168e+86
-6.2081204e+86
1.7804992e+86
-2.6307139e+87
-2.3169e+86
1.7020512e+86
-2.640114e+87
-2.8784691e+87
2.2279537e+86
2.0582766e+86
-7.9967915e+85
-6.1590453e+85
3.491889e+85
1.0536468e+86
-6.2464359e+86
1.0614137e+86
-6.2491862e+86
7.6329679e+85
3.8703066e+85
4.1795341e+85
-1.3466083e+86
-1.3546721e+86
-9.8420178e+85
-1.0110777e+86
6.249772e+84
9.6667104e+84
7.091756e+85
4.0155287e+85
4.1547274e+85
-1.3186294e+86
-1.3781469e+86
-1.012544e+86
-9.7984401e+85
6.3132849e+84
9.9219424e+84
-6.8240407e+85
4.094908e+85
4.2134433e+85
-1.3339809e+86
-1.3918164e+86
-9.9058378e+85
-1.0224268e+86
6.6046068e+84
1.0079644e+85
3.9226835e+85
4.215028e+85
-1.3609368e+86
-1.3689655e+86
-1.0188391e+86
-9.9295425e+85
6.2442684e+84
9.4774902e+84
4.341592e+84
2.1059166e+85
-6.89865e+85
2.0864887e+85
6.3423806e+84
-6.9349528e+85
-1.3071771e+85
1.5889815e+85
7.9807454e+84
-1.8196999e+85
-1.3039741e+85
-1.7042278e+85
-1.1899762e+85
9.4372328e+84
-1.7700494e+85
-1.7548389e+85
-1.2736472e+85
-1.2267097e+85
3.0054951e+84
2.1315946e+85
-6.9411778e+85
2.1116769e+85
6.1801381e+84
-6.8850519e+85
1.1298116e+85
8.7251584e+84
-1.7691785e+85
-1.7613779e+85
-1.2726929e+85
-1.2254946e+85
8.2651566e+84
1.5595316e+85
-1.299503e+85
-1.8190753e+85
-1.6962648e+85
-1.1852801e+85
-1.2186407e+85
1.7319955e+85
-1.1278066e+85
-1.0528332e+85
-8.2713424e+84
-9.0953427e+84
1.4376269e+85
-8.9386974e+84
-9.486287e+84
-1.775262e+85
-1.7157001e+85
1.4891976e+85
1.7952354e+85
-8.6767308e+84
-9.4972591e+84
-1.8648517e+85
-1.7087635e+85
2.1580561e+85
-1.039035e+85
-1.1659029e+85
-8.1803172e+84
-9.679756e+84
1.2458675e+85
1.3983857e+85
-8.943095e+84
-9.5234482e+84
-1.8262773e+85
-1.7649701e+85
1.4885389e+85
1.6754882e+85
-8.764185e+84
-9.4014503e+84
-1.884259e+85
-1.7189839e+85
1.5596058e+85
-1.0624304e+85
-1.134235e+85
-8.5173466e+84
-9.3306635e+84
2.0816572e+85
-1.0431892e+85
-1.170066e+85
-8.1892233e+84
-9.702342e+84
4.2190392e+84
2.1116766e+85
-6.9331617e+85
2.0938905e+85
5.8296386e+84
-6.9686684e+85
1.2115119e+85
9.1063721e+84
-1.7744258e+85
-1.7580016e+85
-1.2739638e+85
-1.2312783e+85
1.4095502e+85
7.818819e+84
-1.3046766e+85
-1.8232679e+85
-1.7094938e+85
-1.1968382e+85
2.883576e+84
2.1496225e+85
-7.0226803e+85
2.1401222e+85
-6.9936993e+85
9.8441327e+84
8.6662402e+84
-1.2789053e+85
-1.7754447e+85
-1.2394787e+85
-1.7881462e+85
8.6289666e+84
-1.8441883e+85
-1.7285307e+85
-1.3124395e+85
-1.2062396e+85
-1.2965646e+85
1.6144435e+85
-1.0630799e+85
-1.1319907e+85
-9.2374014e+84
-8.4811387e+84
1.3641512e+85
-8.9327457e+84
-9.5375121e+84
-1.7997869e+85
-1.7388385e+85
1.538142e+85
1.5965597e+85
-1.8854707e+85
-9.4424234e+84
-8.7045123e+84
-1.7334094e+85
1.9272089e+85
-1.0482516e+85
-1.1707622e+85
-8.3969285e+84
-9.8199417e+84
1.0755386e+85
1.4470827e+85
-1.8300731e+85
-9.5047292e+84
-9.0376634e+84
-1.7776996e+85
1.4985452e+85
-1.8784401e+85
-9.5304399e+84
-8.7629097e+84
-1.7260014e+85
1.367528e+85
-1.0802852e+85
-1.1420907e+85
-8.7131972e+84
-9.4394857e+84
-1.0576686e+85
-1.1751091e+85
-8.2461688e+84
-9.7195662e+84
-2.1389845e+84
-4.680134e+84
2.3655383e+84
1.1321167e+85
-2.8943515e+85
-4.5582466e+84
-2.3096307e+84
1.0950761e+85
-2.8416009e+85
1.4138931e+84
-1.6584894e+84
-2.691513e+85
1.6480579e+84
-2.7562638e+85
-1.5760251e+84
-4.6531022e+84
2.1404986e+84
1.1490098e+85
-2.8875034e+85
-4.6518576e+84
1.1359757e+85
-2.8809619e+85
8.2157198e+83
-2.7588314e+85
1.500911e+84
-2.7210871e+85
-1.901674e+84
-4.6593624e+84
1.9861133e+84
1.1475542e+85
-2.9173672e+85
-4.6687542e+84
1.1191135e+85
-2.8665828e+85
1.2034026e+84
-2.7224764e+85
1.4117093e+84
-2.7694873e+85
-1.3683024e+84
-4.8039934e+84
2.2142659e+84
1.1484901e+85
-2.9265444e+85