/*--------------------------------*- C++ -*----------------------------------*\
  =========                 |
  \\      /  F ield         | OpenFOAM: The Open Source CFD Toolbox
   \\    /   O peration     | Website:  https://openfoam.org
    \\  /    A nd           | Version:  7
     \\/     M anipulation  |
\*---------------------------------------------------------------------------*/
FoamFile
{
    version     2.0;
    format      ascii;
    class       volScalarField;
    location    "2000";
    object      pMean;
}
// * * * * * * * * * * * * * * * * * * * * * * * * * * * * * * * * * * * * * //

dimensions      [0 2 -2 0 0 0 0];

internalField   nonuniform List<scalar> 
33730
(
-1.8471492e+179
-1.8820328e+179
-1.8912861e+179
-1.8575158e+179
-1.8641179e+179
-1.8838389e+179
-1.8847256e+179
-1.8802346e+179
-1.8795792e+179
-1.9074257e+179
-1.9026204e+179
-1.9049992e+179
-1.9099088e+179
-1.9136026e+179
-1.9146292e+179
-1.9186363e+179
-1.9179017e+179
-1.7884152e+179
-1.7486434e+179
-1.8139486e+179
-1.782018e+179
-1.8215542e+179
-1.7024796e+179
-1.9004539e+179
-1.895265e+179
-1.9110708e+179
-1.906445e+179
-1.9003175e+179
-1.8946988e+179
-1.8987525e+179
-1.9054175e+179
-1.8993194e+179
-1.8961725e+179
-1.91032e+179
-1.9067701e+179
-1.892469e+179
-1.8868992e+179
-1.8904615e+179
-1.8960999e+179
-1.8888019e+179
-1.8910367e+179
-1.8973933e+179
-1.9014519e+179
-1.9155967e+179
-1.917419e+179
-1.9175307e+179
-1.9188996e+179
-1.9095979e+179
-1.9120641e+179
-1.9146874e+179
-1.9113396e+179
-1.9273596e+179
-1.9245245e+179
-1.9231539e+179
-1.9219584e+179
-1.9297513e+179
-1.9278561e+179
-1.9313963e+179
-1.9301264e+179
-1.819314e+179
-1.796616e+179
-1.8076996e+179
-1.796431e+179
-1.767541e+179
-1.8153049e+179
-1.7919119e+179
-1.7411002e+179
-1.7446095e+179
-1.8616111e+179
-1.8386068e+179
-1.8341404e+179
-1.8665049e+179
-1.7352727e+179
-1.6928081e+179
-1.6955518e+179
-1.8057689e+179
-1.7827441e+179
-1.7874195e+179
-1.8107122e+179
-1.84242e+179
-1.8455876e+179
-1.8717454e+179
-1.8755725e+179
-1.6628043e+179
-1.7304357e+179
-1.7078538e+179
-1.9189437e+179
-1.9214753e+179
-1.915692e+179
-1.9127602e+179
-1.9318027e+179
-1.9339707e+179
-1.9285431e+179
-1.9248538e+179
-1.8529372e+179
-1.8630128e+179
-1.9036001e+179
-1.891682e+179
-1.8960959e+179
-1.9091308e+179
-1.9091563e+179
-1.9176556e+179
-1.9114958e+179
-1.9204056e+179
-1.9070442e+179
-1.9041652e+179
-1.9131992e+179
-1.9156175e+179
-1.9128369e+179
-1.9149924e+179
-1.9194448e+179
-1.9214723e+179
-1.9084442e+179
-1.9102309e+179
-1.9143787e+179
-1.91636e+179
-1.8918661e+179
-1.8799942e+179
-1.8852334e+179
-1.8972543e+179
-1.8963008e+179
-1.8936465e+179
-1.9026329e+179
-1.9052271e+179
-1.9003439e+179
-1.8982358e+179
-1.9096151e+179
-1.9071188e+179
-1.8976193e+179
-1.8995226e+179
-1.9025968e+179
-1.9049172e+179
-1.9023192e+179
-1.9043846e+179
-1.9080039e+179
-1.9102007e+179
-1.9208897e+179
-1.9202029e+179
-1.9216449e+179
-1.9230025e+179
-1.9231191e+179
-1.9235909e+179
-1.9245269e+179
-1.9240949e+179
-1.9131059e+179
-1.9148403e+179
-1.9144061e+179
-1.9167263e+179
-1.9167641e+179
-1.9177079e+179
-1.9177864e+179
-1.9182449e+179
-1.9302422e+179
-1.930993e+179
-1.9311069e+179
-1.9316617e+179
-1.9264714e+179
-1.9282824e+179
-1.9269695e+179
-1.9296683e+179
-1.9357095e+179
-1.9381389e+179
-1.9383019e+179
-1.9365594e+179
-1.9329758e+179
-1.9346039e+179
-1.9342333e+179
-1.9366566e+179
-1.8215152e+179
-1.8199148e+179
-1.8341051e+179
-1.8324342e+179
-1.8216837e+179
-1.8268404e+179
-1.8055619e+179
-1.8040149e+179
-1.7930387e+179
-1.7942355e+179
-1.7636518e+179
-1.80542e+179
-1.8103963e+179
-1.8063195e+179
-1.8113008e+179
-1.7960149e+179
-1.7967826e+179
-1.7917389e+179
-1.7776476e+179
-1.7925613e+179
-1.7687572e+179
-1.7667194e+179
-1.8178249e+179
-1.8161672e+179
-1.828572e+179
-1.83045e+179
-1.8019521e+179
-1.7907615e+179
-1.7890688e+179
-1.8002807e+179
-1.7606392e+179
-1.7375286e+179
-1.7393337e+179
-1.7441884e+179
-1.7452593e+179
-1.753418e+179
-1.754863e+179
-1.8916698e+179
-1.8793077e+179
-1.8768865e+179
-1.894639e+179
-1.8609347e+179
-1.8471213e+179
-1.8449485e+179
-1.8634149e+179
-1.8556848e+179
-1.8423702e+179
-1.8396491e+179
-1.8584146e+179
-1.8827289e+179
-1.8850944e+179
-1.9002044e+179
-1.8979319e+179
-1.660722e+179
-1.6607118e+179
-1.6286451e+179
-1.6318482e+179
-1.7329091e+179
-1.730552e+179
-1.7532152e+179
-1.7569126e+179
-1.7176375e+179
-1.6978491e+179
-1.6986887e+179
-1.7201031e+179
-1.7237716e+179
-1.7016617e+179
-1.7045046e+179
-1.7259979e+179
-1.8078497e+179
-1.8195997e+179
-1.8221038e+179
-1.8102216e+179
-1.7912475e+179
-1.7820439e+179
-1.7801823e+179
-1.7935752e+179
-1.7844719e+179
-1.7981406e+179
-1.7959106e+179
-1.7866861e+179
-1.8125236e+179
-1.8146113e+179
-1.8248271e+179
-1.8271186e+179
-1.8682226e+179
-1.8491341e+179
-1.8656645e+179
-1.8510109e+179
-1.8531338e+179
-1.8703759e+179
-1.8721565e+179
-1.8549943e+179
-1.8876185e+179
-1.9031085e+179
-1.8904349e+179
-1.9068345e+179
-1.894801e+179
-1.8930879e+179
-1.9096225e+179
-1.9113478e+179
-1.6900573e+179
-1.6706938e+179
-1.7314125e+179
-1.7260566e+179
-1.7279055e+179
-1.7336783e+179
-1.713056e+179
-1.7231239e+179
-1.7148243e+179
-1.7256081e+179
-1.9253857e+179
-1.9271311e+179
-1.929959e+179
-1.9287954e+179
-1.9224598e+179
-1.9233814e+179
-1.919059e+179
-1.9207958e+179
-1.9406168e+179
-1.9387749e+179
-1.9424085e+179
-1.9430242e+179
-1.9367778e+179
-1.9356365e+179
-1.9338482e+179
-1.9317525e+179
-1.8356714e+179
-1.8468873e+179
-1.9046244e+179
-1.9178215e+179
-1.9149901e+179
-1.8783019e+179
-1.8829332e+179
-1.910821e+179
-1.9231106e+179
-1.9209282e+179
-1.9297283e+179
-1.9324657e+179
-1.9238928e+179
-1.9266422e+179
-1.9221707e+179
-1.9237024e+179
-1.9254492e+179
-1.9241623e+179
-1.9260901e+179
-1.924823e+179
-1.9266321e+179
-1.9281067e+179
-1.9290598e+179
-1.9306656e+179
-1.9259755e+179
-1.9273487e+179
-1.9285989e+179
-1.9317596e+179
-1.9297793e+179
-1.9325206e+179
-1.9165013e+179
-1.9179264e+179
-1.9196535e+179
-1.9184624e+179
-1.9191242e+179
-1.920409e+179
-1.9207563e+179
-1.9222805e+179
-1.9225791e+179
-1.92434e+179
-1.9199392e+179
-1.9214137e+179
-1.9263285e+179
-1.9272208e+179
-1.9228495e+179
-1.9240412e+179
-1.892264e+179
-1.9032488e+179
-1.9058981e+179
-1.8665156e+179
-1.8724909e+179
-1.898686e+179
-1.9090912e+179
-1.9113944e+179
-1.9120056e+179
-1.9146568e+179
-1.9203179e+179
-1.9177349e+179
-1.9047399e+179
-1.9062056e+179
-1.9077963e+179
-1.9065085e+179
-1.9073814e+179
-1.9086271e+179
-1.9088939e+179
-1.9103761e+179
-1.9071399e+179
-1.9083529e+179
-1.9104487e+179
-1.9088559e+179
-1.9126596e+179
-1.9137933e+179
-1.9103677e+179
-1.9117129e+179
-1.9105205e+179
-1.9120067e+179
-1.9123054e+179
-1.913657e+179
-1.9130781e+179
-1.9142641e+179
-1.9147256e+179
-1.9162879e+179
-1.9138745e+179
-1.9163887e+179
-1.9180369e+179
-1.9153275e+179
-1.9193087e+179
-1.9200477e+179
-1.9164109e+179
-1.9176931e+179
-1.922841e+179
-1.921791e+179
-1.9238979e+179
-1.9255576e+179
-1.9239089e+179
-1.9234341e+179
-1.9258546e+179
-1.9259723e+179
-1.9256766e+179
-1.9247453e+179
-1.9270268e+179
-1.9284324e+179
-1.9263111e+179
-1.9258819e+179
-1.9288193e+179
-1.9287412e+179
-1.9171389e+179
-1.916199e+179
-1.9171138e+179
-1.9187664e+179
-1.9183267e+179
-1.9178284e+179
-1.9192797e+179
-1.9194857e+179
-1.9198861e+179
-1.9190591e+179
-1.920608e+179
-1.9220412e+179
-1.9209259e+179
-1.920182e+179
-1.9222692e+179
-1.9223989e+179
-1.9324667e+179
-1.9315566e+179
-1.9340196e+179
-1.9355231e+179
-1.9331461e+179
-1.9330652e+179
-1.9359752e+179
-1.9358164e+179
-1.9290977e+179
-1.9278542e+179
-1.9299503e+179
-1.9318206e+179
-1.9305907e+179
-1.9300966e+179
-1.9325949e+179
-1.9328133e+179
-1.9383028e+179
-1.9372084e+179
-1.9406262e+179
-1.9420655e+179
-1.9393097e+179
-1.9391515e+179
-1.9425631e+179
-1.942206e+179
-1.9352259e+179
-1.9344297e+179
-1.9372749e+179
-1.9389071e+179
-1.9365066e+179
-1.9364274e+179
-1.9395629e+179
-1.9395402e+179
-1.5535733e+179
-1.8195662e+179
-1.8204921e+179
-1.8247593e+179
-1.8256645e+179
-1.8177483e+179
-1.8228332e+179
-1.8185162e+179
-1.8236844e+179
-1.8352648e+179
-1.841423e+179
-1.8361131e+179
-1.8423304e+179
-1.8332615e+179
-1.8392904e+179
-1.8341357e+179
-1.840252e+179
-1.834854e+179
-1.8217557e+179
-1.8192919e+179
-1.8213581e+179
-1.8197162e+179
-1.8267236e+179
-1.8288984e+179
-1.8271818e+179
-1.8202571e+179
-1.8222888e+179
-1.8035599e+179
-1.8084239e+179
-1.8043737e+179
-1.8093133e+179
-1.801814e+179
-1.8066007e+179
-1.8025674e+179
-1.8073495e+179
-1.792539e+179
-1.7932645e+179
-1.7882989e+179
-1.7890084e+179
-1.7748862e+179
-1.7940865e+179
-1.7949308e+179
-1.7906083e+179
-1.7898053e+179
-1.7763305e+179
-1.7644189e+179
-1.7659287e+179
-1.8068444e+179
-1.8055072e+179
-1.8064626e+179
-1.8059515e+179
-1.8117855e+179
-1.8132948e+179
-1.8137067e+179
-1.8122295e+179
-1.80783e+179
-1.8065011e+179
-1.8073762e+179
-1.8069579e+179
-1.8127584e+179
-1.8142225e+179
-1.8132021e+179
-1.8147246e+179
-1.8006769e+179
-1.8013511e+179
-1.8001435e+179
-1.8006363e+179
-1.8011437e+179
-1.801538e+179
-1.8018424e+179
-1.8021186e+179
-1.7913524e+179
-1.7831922e+179
-1.7800073e+179
-1.7792149e+179
-1.7840925e+179
-1.7922124e+179
-1.7701723e+179
-1.7691674e+179
-1.7730555e+179
-1.7740217e+179
-1.7680017e+179
-1.7673753e+179
-1.7713085e+179
-1.7719674e+179
-1.8158608e+179
-1.8167365e+179
-1.8209648e+179
-1.8217921e+179
-1.8143884e+179
-1.8193944e+179
-1.8149837e+179
-1.8200894e+179
-1.8297073e+179
-1.835707e+179
-1.8305123e+179
-1.8365041e+179
-1.831421e+179
-1.8374092e+179
-1.8322374e+179
-1.8382277e+179
-1.8000255e+179
-1.8047474e+179
-1.8008618e+179
-1.8055743e+179
-1.7906609e+179
-1.7916105e+179
-1.7873906e+179
-1.7864282e+179
-1.77249e+179
-1.7892071e+179
-1.7898114e+179
-1.7855828e+179
-1.7849969e+179
-1.7708546e+179
-1.7985478e+179
-1.80341e+179
-1.7991165e+179
-1.803937e+179
-1.7603036e+179
-1.7619187e+179
-1.7386522e+179
-1.7370855e+179
-1.7463106e+179
-1.7480672e+179
-1.7404522e+179
-1.7500458e+179
-1.7512754e+179
-1.7416417e+179
-1.7490154e+179
-1.7456575e+179
-1.7463829e+179
-1.7497497e+179
-1.7481235e+179
-1.7469995e+179
-1.7504572e+179
-1.7515612e+179
-1.756841e+179
-1.7562178e+179
-1.7596384e+179
-1.7600809e+179
-1.7610689e+179
-1.7578964e+179
-1.7589306e+179
-1.7622132e+179
-1.7265723e+179
-1.7491771e+179
-1.6917118e+179
-1.7130316e+179
-1.7779192e+179
-1.788491e+179
-1.8042554e+179
-1.9034759e+179
-1.9050549e+179
-1.9072893e+179
-1.9091501e+179
-1.8851807e+179
-1.8864874e+179
-1.8947057e+179
-1.8957745e+179
-1.8824177e+179
-1.8917124e+179
-1.883755e+179
-1.8932884e+179
-1.906723e+179
-1.9108128e+179
-1.9077909e+179
-1.911645e+179
-1.8634996e+179
-1.8731336e+179
-1.864855e+179
-1.8746709e+179
-1.8462166e+179
-1.8472897e+179
-1.8535103e+179
-1.8544979e+179
-1.843786e+179
-1.8509083e+179
-1.8450168e+179
-1.8522786e+179
-1.8661407e+179
-1.876096e+179
-1.8671764e+179
-1.8770973e+179
-1.8579209e+179
-1.8592762e+179
-1.8674027e+179
-1.8688001e+179
-1.8409481e+179
-1.8481394e+179
-1.842276e+179
-1.8493435e+179
-1.8382829e+179
-1.8453473e+179
-1.8395227e+179
-1.8467276e+179
-1.8606839e+179
-1.8702769e+179
-1.8618882e+179
-1.8714619e+179
-1.8881208e+179
-1.8896142e+179
-1.8974853e+179
-1.8992241e+179
-1.8910021e+179
-1.9005865e+179
-1.8922152e+179
-1.9016519e+179
-1.9125722e+179
-1.9168478e+179
-1.9178211e+179
-1.9136543e+179
-1.9092917e+179
-1.9109196e+179
-1.9133502e+179
-1.9152583e+179
-1.6884108e+179
-1.6892108e+179
-1.6681491e+179
-1.6708968e+179
-1.6865829e+179
-1.6877453e+179
-1.6683416e+179
-1.6711325e+179
-1.5907044e+179
-1.591032e+179
-1.7350142e+179
-1.7334102e+179
-1.7427359e+179
-1.7444828e+179
-1.7388932e+179
-1.7298991e+179
-1.7409909e+179
-1.7319674e+179
-1.7547614e+179
-1.7526877e+179
-1.7631734e+179
-1.765177e+179
-1.7580253e+179
-1.7564065e+179
-1.7671306e+179
-1.769209e+179
-1.7138064e+179
-1.7125103e+179
-1.7181211e+179
-1.7201302e+179
-1.7092392e+179
-1.7017633e+179
-1.7024543e+179
-1.7113403e+179
-1.7052935e+179
-1.7037495e+179
-1.7125666e+179
-1.7139728e+179
-1.7150453e+179
-1.7216651e+179
-1.7164356e+179
-1.7231659e+179
-1.7213299e+179
-1.7184746e+179
-1.7246202e+179
-1.7269178e+179
-1.7062759e+179
-1.7157019e+179
-1.7077098e+179
-1.7187615e+179
-1.7112333e+179
-1.7095831e+179
-1.7191556e+179
-1.720098e+179
-1.7228296e+179
-1.7218572e+179
-1.728558e+179
-1.7293405e+179
-1.8053925e+179
-1.8102262e+179
-1.8065148e+179
-1.8114358e+179
-1.8200684e+179
-1.8259092e+179
-1.8213155e+179
-1.8271536e+179
-1.8242388e+179
-1.8229243e+179
-1.8286619e+179
-1.8299525e+179
-1.8092362e+179
-1.8079011e+179
-1.8128698e+179
-1.8141726e+179
-1.7899957e+179
-1.7947438e+179
-1.7910277e+179
-1.7958165e+179
-1.7795857e+179
-1.7782434e+179
-1.7825772e+179
-1.7838867e+179
-1.780417e+179
-1.7813992e+179
-1.7772196e+179
-1.7763792e+179
-1.7921915e+179
-1.7971471e+179
-1.7934923e+179
-1.7984534e+179
-1.7818642e+179
-1.7809952e+179
-1.7853008e+179
-1.7862093e+179
-1.7969966e+179
-1.797925e+179
-1.801903e+179
-1.8027175e+179
-1.7947743e+179
-1.7997715e+179
-1.7958142e+179
-1.8008165e+179
-1.7872609e+179
-1.7883151e+179
-1.7840408e+179
-1.7829423e+179
-1.8105184e+179
-1.8155286e+179
-1.8115376e+179
-1.8166116e+179
-1.81258e+179
-1.817695e+179
-1.8134962e+179
-1.8185548e+179
-1.826643e+179
-1.8255428e+179
-1.8315051e+179
-1.8327339e+179
-1.8277273e+179
-1.8339212e+179
-1.8286121e+179
-1.8348416e+179
-1.8706854e+179
-1.871572e+179
-1.8807785e+179
-1.8816953e+179
-1.8483324e+179
-1.8555579e+179
-1.8491917e+179
-1.8565906e+179
-1.8695148e+179
-1.8683856e+179
-1.8782545e+179
-1.8795935e+179
-1.8501603e+179
-1.8575939e+179
-1.8510705e+179
-1.8584424e+179
-1.852131e+179
-1.8595393e+179
-1.853092e+179
-1.8606577e+179
-1.8726759e+179
-1.882905e+179
-1.8737868e+179
-1.8842198e+179
-1.8750151e+179
-1.8854301e+179
-1.8758793e+179
-1.8862178e+179
-1.8542387e+179
-1.8552227e+179
-1.8627386e+179
-1.8618293e+179
-1.8936159e+179
-1.8949886e+179
-1.9048449e+179
-1.9030582e+179
-1.9152496e+179
-1.9193938e+179
-1.917084e+179
-1.9216437e+179
-1.8962885e+179
-1.9062171e+179
-1.8974173e+179
-1.9072219e+179
-1.9186982e+179
-1.9232642e+179
-1.9198037e+179
-1.9242465e+179
-1.9012304e+179
-1.9115687e+179
-1.8987341e+179
-1.9086083e+179
-1.9000312e+179
-1.9103215e+179
-1.9259666e+179
-1.921341e+179
-1.9229827e+179
-1.9279608e+179
-1.9296407e+179
-1.9244719e+179
-1.9300002e+179
-1.6639457e+179
-1.7047196e+179
-1.7026817e+179
-1.7100927e+179
-1.7133017e+179
-1.7380856e+179
-1.7352427e+179
-1.7388958e+179
-1.7364291e+179
-1.7288487e+179
-1.7258967e+179
-1.730028e+179
-1.7268541e+179
-1.7285637e+179
-1.7279811e+179
-1.7309648e+179
-1.7320266e+179
-1.7378583e+179
-1.736853e+179
-1.7396374e+179
-1.7407436e+179
-1.7181483e+179
-1.7192753e+179
-1.7216289e+179
-1.7206289e+179
-1.7187508e+179
-1.7180119e+179
-1.7190805e+179
-1.7204634e+179
-1.7208912e+179
-1.7229166e+179
-1.7222962e+179
-1.7216876e+179
-1.721312e+179
-1.7205269e+179
-1.7200668e+179
-1.7217632e+179
-1.7207234e+179
-1.7235766e+179
-1.7235153e+179
-1.9286067e+179
-1.9300394e+179
-1.9306316e+179
-1.9310731e+179
-1.9340199e+179
-1.9338255e+179
-1.9331008e+179
-1.9318638e+179
-1.9267854e+179
-1.9254817e+179
-1.9272471e+179
-1.9275739e+179
-1.9221963e+179
-1.9235203e+179
-1.9242262e+179
-1.9246571e+179
-1.9443112e+179
-1.9439525e+179
-1.9432672e+179
-1.9419249e+179
-1.9452059e+179
-1.946373e+179
-1.9468764e+179
-1.9467723e+179
-1.9407934e+179
-1.9406119e+179
-1.9399599e+179
-1.9386635e+179
-1.9377348e+179
-1.9372745e+179
-1.9364713e+179
-1.9348476e+179
-1.8229658e+179
-1.8003596e+179
-1.8619793e+179
-1.8569855e+179
-1.8090484e+179
-1.8709032e+179
-1.8670246e+179
-1.8940651e+179
-1.9201224e+179
-1.91702e+179
-1.9239895e+179
-1.9269845e+179
-1.8993588e+179
-1.9256007e+179
-1.9232876e+179
-1.9325069e+179
-1.930095e+179
-1.9377318e+179
-1.9354317e+179
-1.9430184e+179
-1.9445547e+179
-1.9360612e+179
-1.9345661e+179
-1.9398348e+179
-1.939059e+179
-1.9375139e+179
-1.9461168e+179
-1.9476102e+179
-1.9388969e+179
-1.931445e+179
-1.9289497e+179
-1.9384742e+179
-1.9366728e+179
-1.9301509e+179
-1.9286572e+179
-1.9337898e+179
-1.9328859e+179
-1.9399578e+179
-1.9414652e+179
-1.9315861e+179
-1.9329607e+179
-1.9318758e+179
-1.9326285e+179
-1.9334174e+179
-1.9324686e+179
-1.9312851e+179
-1.9301858e+179
-1.9311521e+179
-1.9320092e+179
-1.93318e+179
-1.9343049e+179
-1.9350705e+179
-1.9341821e+179
-1.9356383e+179
-1.9347959e+179
-1.9364292e+179
-1.9354001e+179
-1.9234252e+179
-1.925302e+179
-1.9263849e+179
-1.9241392e+179
-1.9252026e+179
-1.9272112e+179
-1.9278189e+179
-1.9255631e+179
-1.9288489e+179
-1.9280965e+179
-1.9269165e+179
-1.9259829e+179
-1.9303398e+179
-1.9295626e+179
-1.9285292e+179
-1.9276275e+179
-1.9312034e+179
-1.9319682e+179
-1.9292892e+179
-1.9302411e+179
-1.926303e+179
-1.9284686e+179
-1.9299556e+179
-1.9274052e+179
-1.9307464e+179
-1.9325182e+179
-1.9332357e+179
-1.9312863e+179
-1.9305738e+179
-1.9305563e+179
-1.9279436e+179
-1.9282995e+179
-1.9258065e+179
-1.9265316e+179
-1.9273023e+179
-1.9263544e+179
-1.9252015e+179
-1.9240964e+179
-1.925022e+179
-1.925872e+179
-1.9281928e+179
-1.9271657e+179
-1.9281124e+179
-1.9289055e+179
-1.9292559e+179
-1.9286925e+179
-1.9294653e+179
-1.9302273e+179
-1.9169308e+179
-1.9187818e+179
-1.9199159e+179
-1.9179442e+179
-1.9189355e+179
-1.9209552e+179
-1.9216464e+179
-1.9195814e+179
-1.9227022e+179
-1.9219739e+179
-1.920622e+179
-1.919771e+179
-1.9243376e+179
-1.9235313e+179
-1.9223491e+179
-1.9214989e+179
-1.920659e+179
-1.9224459e+179
-1.9236191e+179
-1.9215688e+179
-1.9220232e+179
-1.9240702e+179
-1.9245531e+179
-1.92236e+179
-1.925996e+179
-1.9252824e+179
-1.924062e+179
-1.9231922e+179
-1.9272081e+179
-1.926504e+179
-1.925228e+179
-1.9244895e+179
-1.8522412e+179
-1.8595339e+179
-1.8853219e+179
-1.8834147e+179
-1.9076513e+179
-1.9047734e+179
-1.91113e+179
-1.9142268e+179
-1.8890583e+179
-1.9135624e+179
-1.9110737e+179
-1.9177725e+179
-1.9205216e+179
-1.9187299e+179
-1.9163746e+179
-1.9258988e+179
-1.924078e+179
-1.9166343e+179
-1.9181794e+179
-1.9209665e+179
-1.9200701e+179
-1.927261e+179
-1.9288462e+179
-1.9196905e+179
-1.921127e+179
-1.9272299e+179
-1.9264628e+179
-1.9350567e+179
-1.9335161e+179
-1.9256138e+179
-1.9268956e+179
-1.9250138e+179
-1.9225866e+179
-1.9302781e+179
-1.9320992e+179
-1.9227459e+179
-1.9242172e+179
-1.913402e+179
-1.9141009e+179
-1.9140298e+179
-1.9149171e+179
-1.9128657e+179
-1.9117096e+179
-1.9125145e+179
-1.9134863e+179
-1.9159094e+179
-1.9147819e+179
-1.915706e+179
-1.9165963e+179
-1.9171462e+179
-1.9163775e+179
-1.9169592e+179
-1.9179181e+179
-1.9093647e+179
-1.9102801e+179
-1.9084521e+179
-1.9076095e+179
-1.9078592e+179
-1.9068483e+179
-1.9051453e+179
-1.9060725e+179
-1.9093245e+179
-1.908781e+179
-1.9066986e+179
-1.9072824e+179
-1.9119738e+179
-1.91118e+179
-1.910063e+179
-1.9094316e+179
-1.9110133e+179
-1.910241e+179
-1.9081518e+179
-1.9089603e+179
-1.9122745e+179
-1.9116519e+179
-1.9092186e+179
-1.9100254e+179
-1.9137793e+179
-1.9129882e+179
-1.9117864e+179
-1.9111814e+179
-1.9150747e+179
-1.9144314e+179
-1.9131685e+179
-1.9125727e+179
-1.9190517e+179
-1.9179259e+179
-1.9188852e+179
-1.9197819e+179
-1.9203677e+179
-1.9195777e+179
-1.9201648e+179
-1.9211153e+179
-1.9218606e+179
-1.9208776e+179
-1.9226863e+179
-1.9219773e+179
-1.9224593e+179
-1.9229725e+179
-1.9232456e+179
-1.9239721e+179
-1.9169035e+179
-1.9161181e+179
-1.9144041e+179
-1.9149939e+179
-1.9141244e+179
-1.9132926e+179
-1.9108199e+179
-1.9118198e+179
-1.9124035e+179
-1.9147782e+179
-1.9153646e+179
-1.9130443e+179
-1.9183154e+179
-1.9176644e+179
-1.9163064e+179
-1.9156767e+179
-1.9139764e+179
-1.9160614e+179
-1.9169972e+179
-1.9149236e+179
-1.9150335e+179
-1.9174431e+179
-1.9178874e+179
-1.9155771e+179
-1.9198056e+179
-1.9191767e+179
-1.9177118e+179
-1.9171236e+179
-1.9209702e+179
-1.9203157e+179
-1.9188174e+179
-1.9182181e+179
-1.5438613e+179
-1.9300538e+179
-1.9289917e+179
-1.9312084e+179
-1.9307486e+179
-1.9329516e+179
-1.9320678e+179
-1.9340674e+179
-1.93357e+179
-1.9239144e+179
-1.9230237e+179
-1.9252626e+179
-1.9247969e+179
-1.9269636e+179
-1.9260972e+179
-1.9279831e+179
-1.927451e+179
-1.9398511e+179
-1.9388901e+179
-1.9407348e+179
-1.9404771e+179
-1.9363983e+179
-1.9350655e+179
-1.9379288e+179
-1.9373544e+179
-1.9459905e+179
-1.9450196e+179
-1.9467236e+179
-1.9429376e+179
-1.9418898e+179
-1.944124e+179
-1.9437522e+179
-1.817283e+179
-1.8193356e+179
-1.819769e+179
-1.8177288e+179
-1.8187106e+179
-1.8182261e+179
-1.8203037e+179
-1.820794e+179
-1.827304e+179
-1.8247105e+179
-1.8268493e+179
-1.8251686e+179
-1.8261284e+179
-1.8283021e+179
-1.8256728e+179
-1.8278257e+179
-1.8179352e+179
-1.8155517e+179
-1.8176142e+179
-1.815904e+179
-1.8229123e+179
-1.8250617e+179
-1.8254642e+179
-1.8232964e+179
-1.8188664e+179
-1.8163592e+179
-1.8184027e+179
-1.8168492e+179
-1.8237765e+179
-1.8259101e+179
-1.8242542e+179
-1.8264071e+179
-1.8327711e+179
-1.8355668e+179
-1.8360742e+179
-1.8332283e+179
-1.8441979e+179
-1.8417531e+179
-1.8412375e+179
-1.8447617e+179
-1.8337376e+179
-1.8342329e+179
-1.8365928e+179
-1.837067e+179
-1.845317e+179
-1.842746e+179
-1.8457804e+179
-1.8422943e+179
-1.8341501e+179
-1.8309533e+179
-1.8337272e+179
-1.8313633e+179
-1.8422898e+179
-1.8393378e+179
-1.839796e+179
-1.8427684e+179
-1.8323118e+179
-1.8350876e+179
-1.8318136e+179
-1.8345964e+179
-1.8432302e+179
-1.8402781e+179
-1.8407552e+179
-1.843697e+179
-1.8343246e+179
-1.8224825e+179
-1.8183532e+179
-1.8220699e+179
-1.8187832e+179
-1.8262701e+179
-1.8298573e+179
-1.8267115e+179
-1.8193534e+179
-1.8230666e+179
-1.8273014e+179
-1.8035701e+179
-1.8040278e+179
-1.804542e+179
-1.8049621e+179
-1.8102677e+179
-1.8113308e+179
-1.8117483e+179
-1.8098534e+179
-1.8045106e+179
-1.8049246e+179
-1.8059386e+179
-1.8054858e+179
-1.810763e+179
-1.8112018e+179
-1.8122713e+179
-1.8127412e+179
-1.8031521e+179
-1.8017653e+179
-1.8028522e+179
-1.8021348e+179
-1.8080904e+179
-1.8096209e+179
-1.8099505e+179
-1.808453e+179
-1.8040836e+179
-1.8025722e+179
-1.8036356e+179
-1.8030577e+179
-1.8089305e+179
-1.8104176e+179
-1.8093727e+179
-1.8109128e+179
-1.7968199e+179
-1.7973202e+179
-1.7963731e+179
-1.7967563e+179
-1.7971974e+179
-1.7976424e+179
-1.7978134e+179
-1.7982234e+179
-1.7877741e+179
-1.7799713e+179
-1.7886351e+179
-1.7804676e+179
-1.7761555e+179
-1.7767906e+179
-1.7987551e+179
-1.7994163e+179
-1.7981951e+179
-1.7987197e+179
-1.7992303e+179
-1.7995653e+179
-1.7997962e+179
-1.8000108e+179
-1.7902698e+179
-1.7821291e+179
-1.7895119e+179
-1.781234e+179
-1.7773623e+179
-1.7780716e+179
-1.7682477e+179
-1.7645709e+179
-1.7652016e+179
-1.7689334e+179
-1.7705086e+179
-1.7661168e+179
-1.7698142e+179
-1.7668157e+179
-1.8073152e+179
-1.8031666e+179
-1.8069243e+179
-1.8035908e+179
-1.8109849e+179
-1.8141964e+179
-1.814652e+179
-1.8114324e+179
-1.8041017e+179
-1.8078513e+179
-1.804578e+179
-1.8119745e+179
-1.8151893e+179
-1.7982768e+179
-1.7989055e+179
-1.7994205e+179
-1.7999088e+179
-1.8003994e+179
-1.800838e+179
-1.7993885e+179
-1.799793e+179
-1.7928454e+179
-1.789741e+179
-1.7846115e+179
-1.7901881e+179
-1.7933168e+179
-1.7794363e+179
-1.7786947e+179
-1.7854552e+179
-1.7911348e+179
-1.7907599e+179
-1.7938851e+179
-1.7942949e+179
-1.7863822e+179
-1.7805404e+179
-1.769096e+179
-1.7682961e+179
-1.7741575e+179
-1.7671869e+179
-1.7665296e+179
-1.7723156e+179
-1.7730254e+179
-1.8161568e+179
-1.8138144e+179
-1.8158378e+179
-1.8141659e+179
-1.8150789e+179
-1.8146215e+179
-1.8166613e+179
-1.8171234e+179
-1.8211956e+179
-1.8232747e+179
-1.8215523e+179
-1.8236551e+179
-1.8224288e+179
-1.8241042e+179
-1.8245485e+179
-1.8220083e+179
-1.8123687e+179
-1.8143766e+179
-1.8126615e+179
-1.8146797e+179
-1.8199741e+179
-1.8220571e+179
-1.8196093e+179
-1.8217206e+179
-1.8153741e+179
-1.8130259e+179
-1.8150353e+179
-1.8133924e+179
-1.8203585e+179
-1.8224456e+179
-1.8228387e+179
-1.8207514e+179
-1.8275729e+179
-1.8303078e+179
-1.8306692e+179
-1.8279368e+179
-1.835881e+179
-1.8387976e+179
-1.8391776e+179
-1.8362799e+179
-1.8283284e+179
-1.828734e+179
-1.831062e+179
-1.8314679e+179
-1.8366885e+179
-1.8370855e+179
-1.8395847e+179
-1.8399533e+179
-1.8322965e+179
-1.8291851e+179
-1.8319124e+179
-1.829562e+179
-1.8404162e+179
-1.8375429e+179
-1.8379482e+179
-1.8408583e+179
-1.8332127e+179
-1.8300094e+179
-1.8327745e+179
-1.8304686e+179
-1.8413446e+179
-1.8384201e+179
-1.8388396e+179
-1.8417665e+179
-1.8001131e+179
-1.8004377e+179
-1.8011138e+179
-1.8014288e+179
-1.806724e+179
-1.807832e+179
-1.8081647e+179
-1.8063855e+179
-1.8008378e+179
-1.8012386e+179
-1.8023705e+179
-1.8019293e+179
-1.8071844e+179
-1.8076035e+179
-1.8086642e+179
-1.8091209e+179
-1.795279e+179
-1.7956773e+179
-1.7946663e+179
-1.7950007e+179
-1.7954457e+179
-1.7957982e+179
-1.7960884e+179
-1.796337e+179
-1.7869062e+179
-1.7788708e+179
-1.7860784e+179
-1.7780648e+179
-1.7742576e+179
-1.7751815e+179
-1.7935325e+179
-1.7940383e+179
-1.7932343e+179
-1.7935149e+179
-1.7938673e+179
-1.7941433e+179
-1.7945365e+179
-1.7947711e+179
-1.7852463e+179
-1.777079e+179
-1.7844399e+179
-1.776713e+179
-1.7726987e+179
-1.7733192e+179
-1.7999584e+179
-1.7986641e+179
-1.7997503e+179
-1.7989297e+179
-1.8049259e+179
-1.8064744e+179
-1.8067074e+179
-1.8052013e+179
-1.8006847e+179
-1.7992833e+179
-1.8003455e+179
-1.7996292e+179
-1.805575e+179
-1.807074e+179
-1.8059135e+179
-1.8074203e+179
-1.764781e+179
-1.7611134e+179
-1.7615968e+179
-1.7653967e+179
-1.7661672e+179
-1.7624457e+179
-1.7635532e+179
-1.7673425e+179
-1.7416681e+179
-1.7406032e+179
-1.743961e+179
-1.7450662e+179
-1.7396611e+179
-1.7392163e+179
-1.7426161e+179
-1.7430949e+179
-1.753154e+179
-1.7499134e+179
-1.7504616e+179
-1.7536963e+179
-1.7523708e+179
-1.7513753e+179
-1.7545654e+179
-1.7556962e+179
-1.7433826e+179
-1.7427868e+179
-1.7460615e+179
-1.7467162e+179
-1.7567069e+179
-1.7533632e+179
-1.7541292e+179
-1.7573852e+179
-1.7582665e+179
-1.7552443e+179
-1.7586813e+179
-1.7556843e+179
-1.7474688e+179
-1.7443039e+179
-1.7448475e+179
-1.7482718e+179
-1.7497213e+179
-1.7446765e+179
-1.7452561e+179
-1.7504115e+179
-1.7469877e+179
-1.7460911e+179
-1.7514826e+179
-1.7523617e+179
-1.756173e+179
-1.7556159e+179
-1.7604545e+179
-1.7610245e+179
-1.7620945e+179
-1.7571986e+179
-1.7580312e+179
-1.7629332e+179
-1.6833646e+179
-1.6738775e+179
-1.6710991e+179
-1.5960207e+179
-1.7291972e+179
-1.7283809e+179
-1.7362556e+179
-1.7374488e+179
-1.7268752e+179
-1.759064e+179
-1.7488614e+179
-1.7608064e+179
-1.7501018e+179
-1.7096734e+179
-1.7152699e+179
-1.69423e+179
-1.7050331e+179
-1.6986399e+179
-1.6966876e+179
-1.7066201e+179
-1.7071344e+179
-1.7167038e+179
-1.7112324e+179
-1.7171058e+179
-1.7113707e+179
-1.7768146e+179
-1.7730219e+179
-1.7779817e+179
-1.7791181e+179
-1.775249e+179
-1.7739201e+179
-1.7871963e+179
-1.7920035e+179
-1.788462e+179
-1.7932391e+179
-1.8024659e+179
-1.8074705e+179
-1.8037101e+179
-1.8086537e+179
-1.8184908e+179
-1.8244393e+179
-1.8366465e+179
-1.8437075e+179
-1.9090119e+179
-1.9130769e+179
-1.9141685e+179
-1.9099441e+179
-1.911193e+179
-1.9106127e+179
-1.9148183e+179
-1.9152346e+179
-1.918462e+179
-1.9174429e+179
-1.917261e+179
-1.9184553e+179
-1.9196957e+179
-1.9194951e+179
-1.9191842e+179
-1.9190948e+179
-1.8853665e+179
-1.8914109e+179
-1.8923527e+179
-1.8862172e+179
-1.8875695e+179
-1.886931e+179
-1.8930721e+179
-1.8935858e+179
-1.9054322e+179
-1.8987664e+179
-1.9044685e+179
-1.8997014e+179
-1.9008901e+179
-1.9064775e+179
-1.9003732e+179
-1.9061063e+179
-1.8894177e+179
-1.8825643e+179
-1.8886005e+179
-1.8833539e+179
-1.8958768e+179
-1.9015362e+179
-1.9024726e+179
-1.8966971e+179
-1.890659e+179
-1.8839718e+179
-1.890099e+179
-1.8846352e+179
-1.8974696e+179
-1.9032123e+179
-1.8980639e+179
-1.9037108e+179
-1.9119711e+179
-1.9160277e+179
-1.9171325e+179
-1.9128892e+179
-1.9204259e+179
-1.9202041e+179
-1.9214102e+179
-1.92145e+179
-1.9135298e+179
-1.914029e+179
-1.9177385e+179
-1.9180248e+179
-1.922113e+179
-1.9224693e+179
-1.9219608e+179
-1.9222282e+179
-1.867483e+179
-1.8611598e+179
-1.866745e+179
-1.8619024e+179
-1.8741974e+179
-1.8799818e+179
-1.8808197e+179
-1.8749906e+179
-1.8632301e+179
-1.8688243e+179
-1.8625592e+179
-1.8681908e+179
-1.8757341e+179
-1.8815429e+179
-1.8763529e+179
-1.8820999e+179
-1.8433617e+179
-1.8466845e+179
-1.8472279e+179
-1.8439227e+179
-1.8449273e+179
-1.8444263e+179
-1.8477836e+179
-1.8482819e+179
-1.8570096e+179
-1.852673e+179
-1.8564075e+179
-1.8532519e+179
-1.8542416e+179
-1.8580269e+179
-1.8537726e+179
-1.857556e+179
-1.8447942e+179
-1.8408445e+179
-1.8441396e+179
-1.8415463e+179
-1.8500721e+179
-1.8537585e+179
-1.8545012e+179
-1.8507642e+179
-1.8460621e+179
-1.8421586e+179
-1.845457e+179
-1.8428068e+179
-1.8514422e+179
-1.8551739e+179
-1.8520893e+179
-1.8558371e+179
-1.8638376e+179
-1.869484e+179
-1.8701661e+179
-1.8644587e+179
-1.8828189e+179
-1.8776682e+179
-1.8769894e+179
-1.8835881e+179
-1.8650126e+179
-1.8655438e+179
-1.8707337e+179
-1.871229e+179
-1.8842077e+179
-1.8787175e+179
-1.8846415e+179
-1.8782617e+179
-1.8553914e+179
-1.8561315e+179
-1.8617232e+179
-1.8609702e+179
-1.8575202e+179
-1.8630623e+179
-1.8567991e+179
-1.8624033e+179
-1.8683692e+179
-1.8741265e+179
-1.8749097e+179
-1.869163e+179
-1.8698745e+179
-1.8705161e+179
-1.8756116e+179
-1.8761857e+179
-1.8418836e+179
-1.8378845e+179
-1.8411794e+179
-1.8386411e+179
-1.8471638e+179
-1.850787e+179
-1.8515334e+179
-1.8479016e+179
-1.8393327e+179
-1.8400703e+179
-1.8426255e+179
-1.8433375e+179
-1.8486013e+179
-1.8492992e+179
-1.8522362e+179
-1.8529273e+179
-1.8358625e+179
-1.8351675e+179
-1.8384334e+179
-1.8391285e+179
-1.8450643e+179
-1.8443233e+179
-1.847975e+179
-1.8487044e+179
-1.8404603e+179
-1.836497e+179
-1.8397757e+179
-1.8372245e+179
-1.849406e+179
-1.8457601e+179
-1.8464839e+179
-1.8501444e+179
-1.8645633e+179
-1.8581892e+179
-1.8637729e+179
-1.858941e+179
-1.876933e+179
-1.8712019e+179
-1.8719892e+179
-1.8777887e+179
-1.8603628e+179
-1.865929e+179
-1.8596287e+179
-1.8652615e+179
-1.8785416e+179
-1.8727202e+179
-1.873352e+179
-1.8791042e+179
-1.8883766e+179
-1.8944472e+179
-1.8953452e+179
-1.8891665e+179
-1.8898737e+179
-1.8905103e+179
-1.8960572e+179
-1.8965984e+179
-1.9083547e+179
-1.9017171e+179
-1.907341e+179
-1.9026362e+179
-1.9039569e+179
-1.9096349e+179
-1.9033863e+179
-1.9091075e+179
-1.8912259e+179
-1.8973066e+179
-1.898199e+179
-1.8919996e+179
-1.9113656e+179
-1.9046473e+179