/*--------------------------------*- C++ -*----------------------------------*\
  =========                 |
  \\      /  F ield         | OpenFOAM: The Open Source CFD Toolbox
   \\    /   O peration     | Website:  https://openfoam.org
    \\  /    A nd           | Version:  7
     \\/     M anipulation  |
\*---------------------------------------------------------------------------*/
FoamFile
{
    version     2.0;
    format      ascii;
    class       volVectorField;
    location    "2000";
    object      U;
}
// * * * * * * * * * * * * * * * * * * * * * * * * * * * * * * * * * * * * * //

dimensions      [0 1 -1 0 0 0 0];

internalField   nonuniform List<vector> 
33730
(
(-6.4898472e+90 -3.0037047e+90 4.1256093e+89)
(-5.1200921e+90 -1.5487307e+90 6.2290718e+89)
(-4.8752887e+90 -1.1202029e+90 7.8887602e+89)
(-5.4987086e+90 -7.0021537e+89 1.7576114e+89)
(-5.4817996e+90 -5.2592205e+89 3.1130518e+89)
(-5.150026e+90 -1.1014709e+90 -4.8712986e+89)
(-3.9926092e+90 -1.3869105e+90 4.2693057e+89)
(-5.4096661e+90 -1.5712405e+90 -5.7413378e+89)
(-4.2661127e+90 -1.9946707e+90 4.4348569e+89)
(-3.9404024e+90 -7.1280983e+89 6.5924474e+89)
(-4.1196823e+90 -9.4821611e+89 5.6783294e+89)
(-4.6378974e+90 -4.8103305e+89 8.9428236e+89)
(-4.4730435e+90 -4.7825143e+89 9.6680104e+89)
(-4.1926122e+90 -8.508102e+89 6.1818608e+89)
(-4.6275613e+90 -4.3714233e+89 9.232225e+89)
(-4.5032999e+90 -4.714304e+89 1.0013207e+90)
(-4.0532173e+90 -6.1730553e+89 6.9823208e+89)
(-5.4826907e+90 -2.3359296e+89 -5.9386835e+89)
(-5.5836292e+90 -6.4330143e+88 2.616216e+89)
(-5.5325002e+90 -3.3519021e+89 4.8180287e+89)
(-5.4469045e+90 -3.9888422e+89 -7.0974968e+89)
(-5.5707719e+90 -5.6834522e+89 5.7658703e+89)
(-4.9906527e+90 -1.570056e+89 -2.5065566e+89)
(-4.7349581e+90 -4.2626354e+89 4.7666845e+89)
(-4.7420734e+90 -4.4355956e+89 4.2520888e+89)
(-4.8080538e+90 -4.1994788e+89 5.2906044e+89)
(-4.7865983e+90 -4.060829e+89 4.186452e+89)
(-4.0932246e+90 -6.2107506e+89 -1.9456045e+89)
(-4.470294e+90 -4.4133098e+89 -6.3183604e+89)
(-4.3211778e+90 -4.3671076e+89 -7.0322919e+89)
(-3.9654531e+90 -4.3035623e+89 -2.586087e+89)
(-3.8443543e+90 -6.1893408e+89 -5.0225563e+89)
(-4.0101021e+90 -8.835267e+89 -5.3120637e+89)
(-2.9748986e+90 -8.0226997e+89 4.70337e+89)
(-3.1653476e+90 -1.2792347e+90 4.8606398e+89)
(-4.0283948e+90 -6.5421075e+89 -2.005733e+89)
(-4.3809772e+90 -4.5254851e+89 -6.0453095e+89)
(-4.2268054e+90 -4.2913179e+89 -6.9032293e+89)
(-3.8910123e+90 -4.5009945e+89 -2.4354748e+89)
(-3.9333571e+90 -9.7038653e+89 -5.324826e+89)
(-3.7601769e+90 -7.0403906e+89 -4.9178139e+89)
(-3.012366e+90 -1.368385e+90 3.9491343e+89)
(-2.8526118e+90 -9.4927241e+89 4.0839262e+89)
(-3.3642076e+90 -5.4494056e+89 5.6023021e+89)
(-3.9622111e+90 -3.1998078e+89 7.2884841e+89)
(-3.2804435e+90 -3.9986225e+89 6.1814983e+89)
(-3.8803605e+90 -3.3418267e+89 7.7549957e+89)
(-3.3388093e+90 -5.6549839e+89 5.3433555e+89)
(-3.246752e+90 -4.3883337e+89 5.9867352e+89)
(-3.897587e+90 -3.4354691e+89 7.7881605e+89)
(-3.9748453e+90 -3.3402417e+89 7.3285266e+89)
(-3.9474988e+90 -3.1907729e+89 7.8819422e+89)
(-3.3146248e+90 -3.6510895e+89 6.0097546e+89)
(-3.9819122e+90 -3.1111264e+89 7.2715215e+89)
(-3.3728255e+90 -5.0821382e+89 5.4783374e+89)
(-3.3862293e+90 -3.3676647e+89 6.4147283e+89)
(-3.4328083e+90 -4.6908955e+89 5.7990608e+89)
(-3.9602763e+90 -3.3010865e+89 8.2349454e+89)
(-4.0191076e+90 -3.0265547e+89 7.797321e+89)
(-4.9950235e+90 -3.5175147e+89 1.087545e+89)
(-4.8354943e+90 -1.8463689e+89 -4.587979e+89)
(-4.1842595e+90 -1.6211369e+89 -3.6945572e+88)
(-4.1024594e+90 -2.0931875e+89 -3.1024451e+89)
(-5.0920336e+90 -9.6993232e+88 -1.6759384e+89)
(-4.9812384e+90 -1.6908168e+89 6.5226871e+88)
(-4.8662374e+90 -2.3151109e+89 -5.0475119e+89)
(-5.5147121e+90 -3.3787829e+89 3.206269e+89)
(-4.926887e+90 -1.5296454e+89 -6.8744042e+89)
(-4.9232831e+90 -2.5984142e+89 4.8526603e+89)
(-4.7600373e+90 -2.3512009e+89 -2.411675e+89)
(-4.7778434e+90 -3.5012703e+89 -2.354963e+89)
(-4.8938845e+90 -4.4582997e+89 5.1344689e+89)
(-5.4249721e+90 -1.0059161e+89 2.1261823e+89)
(-4.9005946e+90 -1.9760024e+89 -2.4719806e+89)
(-4.9432153e+90 1.2535215e+88 -1.6468724e+89)
(-4.8722957e+90 -1.7746747e+89 4.6933267e+88)
(-4.748773e+90 -2.2369342e+89 -5.6231731e+89)
(-4.7421353e+90 -1.4371713e+89 -5.3264408e+89)
(-4.8742638e+90 -3.1019526e+89 8.1422916e+88)
(-4.8973893e+90 -3.2978809e+89 -2.3105162e+89)
(-4.9424131e+90 -2.8617331e+89 -1.6247524e+89)
(-4.9303463e+90 -2.1707914e+89 4.5883118e+89)
(-4.9398199e+90 -4.3539484e+89 5.142903e+89)
(-5.4233504e+90 2.9872156e+88 7.1687424e+89)
(-5.1753077e+90 4.0033293e+88 -3.4332987e+88)
(-4.4819322e+90 -2.598573e+87 -2.7794511e+89)
(-3.9877455e+90 -2.9016614e+89 4.249995e+89)
(-3.9940082e+90 -3.09115e+89 4.95532e+89)
(-4.0024397e+90 -3.1908523e+89 4.9597435e+89)
(-3.9854937e+90 -3.041655e+89 4.5322943e+89)
(-4.0669675e+90 -2.7915875e+89 4.7162149e+89)
(-4.0864171e+90 -3.0912651e+89 5.459951e+89)
(-4.0717547e+90 -3.0902947e+89 5.0417609e+89)
(-4.0205808e+90 -2.8410359e+89 4.4067022e+89)
(-5.5631786e+90 -8.5722033e+89 -4.2035821e+89)
(-5.6951556e+90 -8.1820836e+89 -4.0704268e+89)
(-4.6386875e+90 -4.8918985e+89 -6.1703105e+89)
(-4.6110318e+90 -4.2673204e+89 3.5426262e+88)
(-4.6087355e+90 -3.8392769e+89 -7.1204524e+88)
(-4.6548278e+90 -4.8991035e+89 -6.4581306e+89)
(-3.4325542e+90 -2.5751876e+89 -6.3554955e+89)
(-2.912002e+90 -3.8203372e+89 -3.8749305e+89)
(-3.3570563e+90 -2.6326528e+89 -6.7821767e+89)
(-2.8349242e+90 -2.650785e+89 -4.2517411e+89)
(-3.3308705e+90 -2.5017825e+89 -6.4481647e+89)
(-3.4204546e+90 -2.7554269e+89 -6.0218441e+89)
(-2.8925822e+90 -4.154493e+89 -3.787403e+89)
(-2.7919356e+90 -2.6503194e+89 -3.957954e+89)
(-2.4874749e+90 -5.529888e+89 -4.0620302e+89)
(-2.3733418e+90 -4.0637654e+89 -3.8205949e+89)
(-2.2819671e+90 -7.8716884e+89 5.9043872e+89)
(-2.1578813e+90 -4.3902742e+89 5.8159782e+89)
(-2.4577832e+90 -6.032917e+89 -4.0378684e+89)
(-2.3403708e+90 -4.3193237e+89 -3.6224654e+89)
(-2.2032344e+90 -8.4836104e+89 5.2228583e+89)
(-2.1102353e+90 -5.0186114e+89 5.6432971e+89)
(-4.5446572e+90 -5.39897e+89 -6.1771505e+89)
(-4.5112581e+90 -4.3826133e+89 4.0613776e+88)
(-4.514242e+90 -3.9251312e+89 -6.3970541e+88)
(-4.5933381e+90 -5.3209323e+89 -6.2702343e+89)
(-3.265258e+90 -2.5677795e+89 -6.3849715e+89)
(-3.3602608e+90 -2.7914434e+89 -5.9046744e+89)
(-2.841462e+90 -4.3549226e+89 -3.7800487e+89)
(-2.7336336e+90 -3.0187578e+89 -4.0466477e+89)
(-3.3086514e+90 -2.6773273e+89 -6.5622433e+89)
(-3.3898196e+90 -2.6773016e+89 -6.0757408e+89)
(-2.7816885e+90 -2.9526411e+89 -4.1699337e+89)
(-2.8668422e+90 -4.1477225e+89 -3.7659985e+89)
(-2.4250719e+90 -6.7927178e+89 -4.0563209e+89)
(-2.2888856e+90 -5.3167794e+89 -3.6032419e+89)
(-2.1411076e+90 -9.2849376e+89 4.6451131e+89)
(-2.0237814e+90 -6.3424264e+89 5.0488376e+89)
(-2.4589182e+90 -6.4651161e+89 -4.0473402e+89)
(-2.3273064e+90 -4.8791907e+89 -3.7757925e+89)
(-2.2240771e+90 -9.0276325e+89 5.3394077e+89)
(-2.0812001e+90 -5.6569044e+89 5.4481285e+89)
(-3.3753043e+90 -2.1292322e+89 6.3337185e+89)
(-2.902299e+90 -3.4936171e+89 5.7891854e+89)
(-2.8250657e+90 -2.4176645e+89 6.1386418e+89)
(-3.3399318e+90 -2.0824377e+89 6.6517704e+89)
(-2.9147056e+90 -3.1760756e+89 6.0117983e+89)
(-2.8646246e+90 -2.2197621e+89 6.4528336e+89)
(-3.3539058e+90 -2.1625244e+89 7.0457503e+89)
(-3.3928163e+90 -1.998776e+89 6.5669083e+89)
(-2.8732089e+90 -3.464846e+89 5.6476095e+89)
(-2.8094405e+90 -2.5859484e+89 6.0628156e+89)
(-3.3688729e+90 -2.1551405e+89 6.4143589e+89)
(-3.3434493e+90 -2.2348527e+89 6.7605776e+89)
(-2.9151451e+90 -3.4661346e+89 5.9085626e+89)
(-2.8467181e+90 -2.5340508e+89 6.3909165e+89)
(-3.4016694e+90 -2.1434144e+89 6.5086269e+89)
(-3.347612e+90 -2.2295506e+89 6.8510074e+89)
(-2.9501071e+90 -3.1450462e+89 6.0657406e+89)
(-2.9213659e+90 -2.0444317e+89 6.4795335e+89)
(-3.462312e+90 -2.0982167e+89 6.7072397e+89)
(-3.4251907e+90 -2.154389e+89 7.029071e+89)
(-2.9129446e+90 -3.2442299e+89 5.8388534e+89)
(-2.8660674e+90 -2.2623822e+89 6.1648152e+89)
(-3.4142712e+90 -2.0752526e+89 6.4457191e+89)
(-3.3948292e+90 -2.1603955e+89 6.7636866e+89)
(-3.0007741e+90 -2.8763348e+89 6.3105159e+89)
(-3.4864636e+90 -2.0565363e+89 7.1723205e+89)
(-3.4566197e+90 -2.2245305e+89 7.4729797e+89)
(-2.9561976e+90 -1.9647534e+89 6.689884e+89)
(-2.9594431e+90 -3.1106478e+89 6.031101e+89)
(-2.9143781e+90 -1.9591727e+89 6.2760909e+89)
(-3.4567358e+90 -2.1099766e+89 6.8821674e+89)
(-3.4269893e+90 -2.0666948e+89 7.0008942e+89)
(-4.0382556e+90 -1.9432641e+89 -2.2809144e+89)
(-4.0275689e+90 -2.3566287e+89 -2.7342539e+89)
(-4.0967822e+90 -2.5879305e+89 2.8440019e+88)
(-4.0952652e+90 -1.6612945e+89 -5.4783868e+87)
(-3.2941372e+90 -1.6154548e+89 -1.7586129e+89)
(-3.3640658e+90 -1.3030738e+89 -3.1825376e+88)
(-4.1802618e+90 -2.4765309e+89 -1.9705128e+88)
(-4.1805347e+90 -1.5739312e+89 -5.1058808e+88)
(-4.0988989e+90 -1.9774404e+89 -3.2283442e+89)
(-4.1123964e+90 -1.7427694e+89 -2.8731905e+89)
(-4.9967321e+90 -2.2910853e+89 -1.5362433e+89)
(-3.3495828e+90 -1.7096331e+89 -1.4710095e+89)
(-3.3925799e+90 -1.34483e+89 -3.7254658e+88)
(-3.3604801e+90 -1.326659e+89 -1.2955846e+89)
(-3.414842e+90 -1.7199384e+89 -2.4999956e+88)
(-3.5152184e+90 -1.4301461e+89 -2.0444101e+88)
(-3.5152826e+90 -1.7696478e+89 -1.4507812e+88)
(-3.4986115e+90 -1.6993672e+89 -2.20416e+89)
(-4.2611202e+90 -1.3632187e+89 -1.2925452e+89)
(-3.5000173e+90 -1.3915008e+89 -2.2610662e+89)
(-4.2204646e+90 -1.2754348e+89 -4.0135926e+89)
(-4.2108668e+90 -1.7956983e+89 -3.9987955e+89)
(-4.0254428e+90 -1.6223737e+89 -2.4478377e+89)
(-3.9731134e+90 -2.0837595e+89 -2.8654826e+89)
(-4.0498853e+90 -1.4815583e+89 -6.8035381e+87)
(-4.1003819e+90 -2.4083909e+89 1.8825198e+88)
(-4.1858397e+90 -2.1810302e+89 -2.9978168e+88)
(-4.0971137e+90 -1.4721946e+89 -3.0248892e+89)
(-4.0610527e+90 -1.7514059e+89 -3.1221831e+89)
(-4.1472236e+90 -1.2726871e+89 -3.8978022e+88)
(-5.0581583e+90 -8.3952556e+88 -1.4932599e+89)
(-4.9021139e+90 -1.3498137e+89 -6.6139817e+89)
(-4.8489202e+90 -5.9330623e+88 -6.4562995e+89)
(-4.3581628e+90 -1.2168954e+89 -4.6505501e+89)
(-4.3701732e+90 -9.0253673e+88 -5.1989036e+89)
(-4.4590365e+90 -8.6275143e+88 -1.5188019e+89)
(-4.4531631e+90 -1.7517602e+89 -1.7982908e+89)
(-4.1631985e+90 -1.9624759e+89 5.0277225e+89)
(-4.0539166e+90 -2.2494142e+89 3.791667e+88)
(-4.0253654e+90 -2.7578614e+89 1.2128905e+88)
(-4.1679477e+90 -3.4934e+89 5.2681683e+89)
(-4.0671331e+90 -1.7426871e+89 1.4718155e+89)
(-3.9108109e+90 -1.7680864e+89 -1.8693248e+89)
(-3.9027128e+90 -2.1904299e+89 -2.3394494e+89)
(-4.0749846e+90 -2.7766647e+89 1.8606387e+89)
(-4.0640301e+90 -1.7945962e+89 1.7326956e+89)
(-3.9229148e+90 -2.0120169e+89 -1.453749e+89)
(-3.8805331e+90 -2.3971796e+89 -1.9871554e+89)
(-4.1173947e+90 -2.8854299e+89 2.1806765e+89)
(-4.0461684e+90 -2.7517684e+89 -1.1639616e+87)
(-4.0591287e+90 -2.3354019e+89 2.8700349e+88)
(-4.146227e+90 -3.3307216e+89 5.0243966e+89)
(-4.1507415e+90 -1.8259665e+89 4.7040916e+89)
(-5.4118612e+90 -1.4535995e+89 7.754142e+89)
(-5.3054895e+90 -5.2271573e+88 7.2832858e+89)
(-3.9233492e+90 4.4829444e+87 -6.540778e+89)
(-3.9953863e+90 -1.9472941e+89 -6.4936872e+89)
(-4.7853036e+90 -3.5003878e+88 -6.5290971e+89)
(-4.8412765e+90 -1.2217677e+89 -6.7670146e+89)
(-4.9871258e+90 -8.1596982e+88 -1.7010036e+89)
(-4.9576447e+90 -2.1779969e+89 -1.5857939e+89)
(-5.060879e+90 3.307244e+88 -6.9588e+88)
(-4.4152039e+90 -2.2516721e+88 -2.7308064e+89)
(-4.4360225e+90 7.3403016e+88 -2.3696766e+89)
(-5.0880041e+90 -1.1989409e+89 -3.5659111e+88)
(-5.1091628e+90 3.9070383e+88 -3.9756721e+88)
(-4.4543996e+90 1.017863e+88 -2.5560327e+89)
(-4.4648606e+90 8.326688e+88 -2.246578e+89)
(-5.1370978e+90 -1.3781995e+89 -1.0302769e+88)
(-3.8779929e+90 -2.2981386e+89 -2.6165247e+89)
(-3.9841296e+90 -1.7458197e+89 5.3002908e+87)
(-3.9903186e+90 -2.4128935e+89 2.8415338e+88)
(-3.895907e+90 -1.4298566e+89 -2.6021848e+89)
(-4.0308783e+90 -1.4372288e+89 -5.8294825e+88)
(-4.007524e+90 -1.1448432e+89 -3.2241721e+89)
(-3.963366e+90 -1.730543e+89 -3.5466375e+89)
(-4.0712229e+90 -2.004198e+89 -2.9828877e+88)
(-4.0186212e+90 -1.6148911e+89 -3.7569099e+89)
(-4.0734071e+90 -1.9434244e+89 -5.1017534e+88)
(-4.0714332e+90 -1.2315903e+89 -7.4165724e+88)
(-4.0126133e+90 -1.1856568e+89 -3.456668e+89)
(-3.9066794e+90 -1.9615456e+89 -3.1116262e+89)
(-3.9267814e+90 -1.5532131e+89 -2.3875446e+89)
(-3.973187e+90 -1.3505099e+89 -5.1853271e+88)
(-3.9864382e+90 -2.1220698e+89 -1.5776212e+88)
(-4.1590969e+90 -2.7573911e+89 1.9673073e+89)
(-3.9627219e+90 -2.1954625e+89 -1.9548387e+89)
(-4.1238847e+90 -1.61322e+89 1.6768235e+89)
(-4.0176128e+90 -1.9072159e+89 -1.6255528e+89)
(-4.0164293e+90 -2.3633886e+89 -1.9100447e+89)
(-4.1600313e+90 -1.7483135e+89 1.7660219e+89)
(-4.165262e+90 -2.9932338e+89 2.1688995e+89)
(-4.0314226e+90 -2.1053497e+89 -1.4363909e+89)
(-4.0974866e+90 -2.6475104e+89 -2.0326558e+87)
(-4.196591e+90 -1.8062169e+89 4.938719e+89)
(-4.1479658e+90 -2.3026134e+89 4.8473478e+88)
(-4.225075e+90 -3.4370825e+89 5.2460594e+89)
(-4.1827665e+90 -2.4659806e+89 7.321342e+88)
(-4.1441673e+90 -2.7047095e+89 8.7565281e+87)
(-4.2279783e+90 -1.7241865e+89 5.0890611e+89)
(-4.2253272e+90 -3.377148e+89 5.4652923e+89)
(-4.8494521e+90 7.6188933e+88 4.6865442e+89)
(-3.5194432e+90 6.1359895e+88 -4.1393009e+89)
(-4.6135901e+90 -3.6529131e+88 -2.9696254e+89)
(-4.4399752e+90 -6.270147e+88 -6.344321e+89)
(-4.4584394e+90 -1.5668522e+88 -6.2328031e+89)
(-4.630454e+90 -1.1984821e+89 -3.0304703e+89)
(-4.2646707e+90 3.8500585e+88 -4.0336992e+89)
(-4.7370485e+90 7.3534053e+88 -2.1092311e+89)
(-4.3032989e+90 7.4679497e+88 -3.9572343e+89)
(-4.7767504e+90 -5.60909e+88 -2.0281002e+89)
(-3.3573148e+90 -1.8459334e+89 4.0881298e+89)
(-3.3769225e+90 -2.0320811e+89 4.4447517e+89)
(-3.3789519e+90 -2.0519862e+89 4.7244113e+89)
(-3.3818715e+90 -1.7831572e+89 4.211012e+89)
(-3.3862991e+90 -1.8466878e+89 4.1688691e+89)
(-3.38314e+90 -2.1037728e+89 4.6603889e+89)
(-3.3410796e+90 -1.8273605e+89 4.1239606e+89)
(-3.3713294e+90 -2.0939321e+89 4.538829e+89)
(-3.4590129e+90 -2.0412318e+89 4.7076923e+89)
(-3.4369388e+90 -1.8149536e+89 4.4105865e+89)
(-3.4757855e+90 -1.8035844e+89 4.6318173e+89)
(-3.4832708e+90 -2.1332306e+89 5.0989716e+89)
(-3.4546927e+90 -2.0733656e+89 4.7628396e+89)
(-3.4478777e+90 -1.8304906e+89 4.2794927e+89)
(-3.431874e+90 -2.0753429e+89 4.5774018e+89)
(-3.3971932e+90 -1.7815694e+89 4.2254938e+89)
(-5.5935936e+90 -6.45725e+89 -1.4479193e+89)
(-5.6976299e+90 -6.1690552e+89 -1.2088988e+89)
(-4.8050431e+90 -3.9744904e+89 -4.8888047e+89)
(-3.5851068e+90 -2.4753534e+89 -3.6577871e+89)
(-3.5811401e+90 -2.7690665e+89 -3.0337037e+89)
(-4.7192113e+90 -2.3024794e+89 -3.0146127e+89)
(-4.7126632e+90 -4.1582969e+89 -3.8066639e+89)
(-4.8292532e+90 -4.0086964e+89 -5.1500585e+89)
(-3.6286954e+90 -2.5079108e+89 -4.0104773e+89)
(-3.6134352e+90 -2.622908e+89 -3.3128063e+89)
(-3.5391252e+90 -3.4976581e+89 -8.2141694e+89)
(-3.5304142e+90 -3.5286631e+89 -8.3134143e+89)
(-3.5001176e+90 -3.8741891e+89 -8.0984318e+89)
(-3.5001092e+90 -3.7009105e+89 -8.1358508e+89)
(-1.9634024e+90 -1.3145252e+89 -5.7203884e+89)
(-1.9243266e+90 -1.3955233e+89 -5.9940077e+89)
(-1.8010966e+90 -2.1800057e+89 -3.5428865e+89)
(-1.8652441e+90 -3.2430444e+89 -3.5136853e+89)
(-1.9426933e+90 -1.5425639e+89 -6.2147583e+89)
(-1.9722931e+90 -1.3166345e+89 -5.8256034e+89)
(-1.8722079e+90 -3.0974449e+89 -3.4137969e+89)
(-1.8164454e+90 -2.2595473e+89 -3.7438004e+89)
(-1.8496594e+90 -4.4299608e+89 6.4886576e+89)
(-1.7982705e+90 -2.1710495e+89 6.7343265e+89)
(-1.4255467e+90 -4.2562998e+89 4.5989155e+88)
(-1.3803659e+90 -3.4628465e+89 1.408919e+89)
(-1.4523668e+90 -4.0353773e+89 8.8705615e+88)
(-1.884912e+90 -4.1088708e+89 6.8696322e+89)
(-1.3809335e+90 -3.3362558e+89 1.1108218e+89)
(-1.8086913e+90 -1.9502051e+89 6.8304922e+89)
(-1.9563852e+90 -1.440328e+89 -5.5728299e+89)
(-1.9184591e+90 -1.4999608e+89 -5.8985234e+89)
(-1.7768004e+90 -2.4688685e+89 -3.5690691e+89)
(-1.8466655e+90 -3.5314707e+89 -3.4892069e+89)
(-1.9417515e+90 -1.341213e+89 -5.6106706e+89)
(-1.9004559e+90 -1.4735346e+89 -6.0110005e+89)
(-1.8574594e+90 -3.3506391e+89 -3.3221093e+89)
(-1.7837842e+90 -2.3968434e+89 -3.588621e+89)
(-1.8099655e+90 -4.7641853e+89 6.2284138e+89)
(-1.7486915e+90 -2.6799296e+89 6.4375964e+89)
(-1.3988826e+90 -4.6673988e+89 3.06422e+88)
(-1.3430756e+90 -3.9440971e+89 1.2697856e+89)
(-1.8616969e+90 -4.6110109e+89 6.6381518e+89)
(-1.7940548e+90 -2.2733446e+89 6.7313323e+89)
(-1.4405884e+90 -4.5041762e+89 8.4468933e+88)
(-1.3606013e+90 -3.6865054e+89 1.323306e+89)
(-4.7020887e+90 -4.5154787e+89 -4.8612749e+89)
(-3.5053764e+90 -2.9310982e+89 -3.0500234e+89)
(-3.5136509e+90 -2.6921353e+89 -3.7846689e+89)
(-4.5931847e+90 -2.3835128e+89 -2.9535856e+89)
(-4.6094006e+90 -4.077177e+89 -3.7453037e+89)
(-4.7519894e+90 -4.3182711e+89 -4.9804865e+89)
(-3.5519449e+90 -2.8218247e+89 -3.1252142e+89)
(-3.5471601e+90 -2.6723164e+89 -3.8705616e+89)
(-3.4353215e+90 -4.6721584e+89 -8.1281419e+89)
(-3.435197e+90 -4.4432392e+89 -8.1519866e+89)
(-3.4670802e+90 -4.0655675e+89 -8.2522613e+89)
(-3.4666126e+90 -4.2284462e+89 -8.1480435e+89)
(-1.9229957e+90 -1.3036876e+89 -5.4407803e+89)
(-1.8737746e+90 -1.3940468e+89 -5.8269644e+89)
(-1.7365163e+90 -2.9966513e+89 -3.5778221e+89)
(-1.8339439e+90 -3.9739713e+89 -3.4941147e+89)
(-1.9250823e+90 -1.2954061e+89 -5.5214661e+89)
(-1.8697212e+90 -1.4493117e+89 -5.9943407e+89)
(-1.8386619e+90 -3.8687685e+89 -3.3773418e+89)
(-1.7398232e+90 -2.9809194e+89 -3.6692372e+89)
(-1.3657958e+90 -5.2800891e+89 2.5452158e+87)
(-1.7891276e+90 -5.0868342e+89 5.8314435e+89)
(-1.7144176e+90 -3.2799812e+89 6.0734861e+89)
(-1.2872245e+90 -4.734731e+89 1.1660602e+89)
(-1.8526634e+90 -5.0779231e+89 6.3138219e+89)
(-1.7502772e+90 -3.0546769e+89 6.3441009e+89)
(-1.4069317e+90 -5.2262478e+89 4.7003545e+88)
(-1.2988167e+90 -4.5781872e+89 1.0600977e+89)
(-1.9298228e+90 -1.3196071e+89 -5.4904004e+89)
(-1.8839871e+90 -1.3719167e+89 -5.8595016e+89)
(-1.8401936e+90 -3.7976582e+89 -3.4317278e+89)
(-1.7503793e+90 -2.712369e+89 -3.5327594e+89)
(-1.9476468e+90 -1.3021064e+89 -5.661832e+89)
(-1.9067526e+90 -1.5192067e+89 -6.1083297e+89)
(-1.850612e+90 -3.5551589e+89 -3.408369e+89)
(-1.7675271e+90 -2.6923255e+89 -3.7303027e+89)
(-1.3843636e+90 -5.0447581e+89 2.499975e+88)
(-1.8105061e+90 -4.9817884e+89 6.0447493e+89)
(-1.7421349e+90 -2.9441347e+89 6.3539168e+89)
(-1.3107203e+90 -4.2988608e+89 1.2363913e+89)
(-1.8553092e+90 -4.7110432e+89 6.589747e+89)
(-1.7572853e+90 -2.5973997e+89 6.5990966e+89)
(-1.4209892e+90 -4.7500696e+89 5.6346968e+88)
(-1.3219035e+90 -4.0714224e+89 9.8246017e+88)
(-2.2837467e+90 -1.3698546e+89 6.5371753e+89)
(-2.2921005e+90 -2.3364869e+89 6.3233936e+89)
(-2.9740723e+90 -1.4081861e+89 6.0676708e+89)
(-2.9635169e+90 -1.3803963e+89 6.222338e+89)
(-2.2842535e+90 -1.2434009e+89 6.7535228e+89)
(-2.3006268e+90 -2.2478789e+89 6.3986307e+89)
(-2.9900577e+90 -1.2493171e+89 5.9800101e+89)
(-2.9553826e+90 -1.263326e+89 6.1126068e+89)
(-2.2983854e+90 -1.1794525e+89 6.6072868e+89)
(-2.303928e+90 -2.1786428e+89 6.4299285e+89)
(-2.9939496e+90 -1.2912113e+89 6.1788792e+89)
(-2.9709143e+90 -1.2225435e+89 6.1500994e+89)
(-2.3420739e+90 -1.2322623e+89 6.8289893e+89)
(-2.3550309e+90 -2.0607978e+89 6.5255213e+89)
(-3.0242228e+90 -1.2439264e+89 6.4288478e+89)
(-2.9598922e+90 -1.3428652e+89 6.4239874e+89)
(-2.253791e+90 -1.38164e+89 6.3950834e+89)
(-2.2762337e+90 -2.2931677e+89 6.1720336e+89)
(-2.9534873e+90 -1.3336161e+89 5.8601788e+89)
(-2.9452032e+90 -1.3414221e+89 6.1832048e+89)
(-2.2731799e+90 -1.3667094e+89 6.6405259e+89)
(-2.2851857e+90 -2.2765745e+89 6.2807867e+89)
(-2.9797969e+90 -1.2932155e+89 5.9802016e+89)
(-2.9465452e+90 -1.343763e+89 6.1424136e+89)
(-2.2928221e+90 -1.3326215e+89 6.5320866e+89)
(-2.2934466e+90 -2.2951015e+89 6.282582e+89)
(-2.9907987e+90 -1.3322371e+89 5.9020542e+89)
(-2.9803203e+90 -1.3263494e+89 6.2610821e+89)
(-2.2838696e+90 -1.3502593e+89 6.7349372e+89)
(-2.3063553e+90 -2.1951322e+89 6.4176529e+89)
(-2.9892468e+90 -1.2508719e+89 6.0984171e+89)
(-2.9478181e+90 -1.3645096e+89 6.1975616e+89)
(-2.3438719e+90 -1.1983081e+89 6.7982463e+89)
(-2.3353354e+90 -2.2482e+89 6.5791531e+89)
(-3.0468532e+90 -1.3991225e+89 6.1161439e+89)
(-3.0354682e+90 -1.3292959e+89 6.287498e+89)
(-2.3398359e+90 -1.1057733e+89 6.9840059e+89)
(-2.3478311e+90 -2.0696715e+89 6.7150155e+89)
(-3.0571522e+90 -1.314509e+89 6.5173809e+89)
(-3.0243259e+90 -1.3638082e+89 6.4278562e+89)
(-2.3119676e+90 -1.3351672e+89 6.6246721e+89)
(-2.2975156e+90 -2.2746653e+89 6.3912549e+89)
(-3.0066574e+90 -1.3436658e+89 5.9952305e+89)
(-3.0101467e+90 -1.3948903e+89 6.3488218e+89)
(-2.3174749e+90 -1.2475341e+89 6.8849924e+89)
(-2.3179476e+90 -2.2202806e+89 6.519417e+89)
(-3.0384667e+90 -1.3549525e+89 6.1470651e+89)
(-3.0122715e+90 -1.3890063e+89 6.2982995e+89)
(-2.4055316e+90 -1.1054427e+89 6.9075155e+89)
(-2.4195857e+90 -2.0474108e+89 6.7357452e+89)
(-3.1038419e+90 -1.3424507e+89 6.543041e+89)
(-3.0947586e+90 -1.3282816e+89 6.6918612e+89)
(-2.3771e+90 -1.2284851e+89 7.1056679e+89)
(-2.4289643e+90 -2.0829339e+89 6.8356851e+89)
(-3.0802582e+90 -1.3905052e+89 6.6858713e+89)
(-3.0611041e+90 -1.5193052e+89 6.82061e+89)
(-2.3770947e+90 -1.2097665e+89 6.7788937e+89)
(-2.385498e+90 -2.1783537e+89 6.5855372e+89)
(-3.0744084e+90 -1.4032205e+89 6.4217922e+89)
(-3.0422444e+90 -1.3753406e+89 6.425885e+89)
(-2.3492641e+90 -1.0386388e+89 7.0129959e+89)
(-2.3514611e+90 -2.1566836e+89 6.6855687e+89)
(-3.0649743e+90 -1.3500746e+89 6.4862637e+89)
(-3.0368225e+90 -1.3078183e+89 6.4204496e+89)
(-5.7847828e+90 -8.3181711e+88 -5.9023853e+89)
(-3.2963773e+90 -1.4990478e+89 -1.7651665e+89)
(-3.3102296e+90 -1.2331173e+89 -1.5125153e+89)
(-3.3637522e+90 -1.2192018e+89 -3.0529758e+88)
(-3.3764378e+90 -1.6556892e+89 -7.1908094e+87)
(-3.2745249e+90 -1.4203583e+89 -1.9243565e+89)
(-3.3446636e+90 -1.1156856e+89 -4.6382031e+88)
(-3.2913972e+90 -1.1265762e+89 -1.7376911e+89)
(-3.3604375e+90 -1.5319708e+89 -2.7335108e+88)
(-3.2800164e+90 -1.5536216e+89 -1.8256751e+89)
(-3.3388895e+90 -1.1238262e+89 -2.7925467e+88)
(-3.2950455e+90 -1.2230841e+89 -1.5451218e+89)
(-3.3473615e+90 -1.6101741e+89 -5.9237652e+87)
(-3.2522263e+90 -1.4624112e+89 -1.9972625e+89)
(-3.3152415e+90 -1.0952564e+89 -4.1696246e+88)
(-3.269283e+90 -1.0972692e+89 -1.7557677e+89)
(-3.3324104e+90 -1.5942218e+89 -2.1668858e+88)
(-2.7930869e+90 -9.4916199e+88 -1.5737853e+89)
(-2.8386192e+90 -9.9565263e+88 -5.1040523e+88)
(-2.7576216e+90 -8.3948122e+88 -1.497282e+89)
(-2.8213574e+90 -7.1830805e+88 -6.6886063e+88)
(-2.7769179e+90 -7.4911749e+88 -1.3564584e+89)
(-2.7718019e+90 -8.9642497e+88 -1.5511276e+89)
(-2.8282218e+90 -7.4893696e+88 -6.8892713e+88)
(-2.7942274e+90 -7.1029263e+88 -1.3605442e+89)
(-2.7760001e+90 -8.5773579e+88 -1.4283294e+89)
(-2.8423272e+90 -7.4593406e+88 -5.9312825e+88)
(-3.3448683e+90 -1.6175168e+89 -1.5190455e+89)
(-3.3900877e+90 -1.2069871e+89 -4.3204526e+88)
(-3.3658449e+90 -1.3111801e+89 -1.2728096e+89)
(-3.4048937e+90 -1.6038236e+89 -2.4761566e+88)
(-3.3328009e+90 -1.4980653e+89 -1.6836901e+89)
(-3.3778915e+90 -1.1547648e+89 -5.7162463e+88)
(-3.3453898e+90 -1.1394298e+89 -1.5261921e+89)
(-3.3930677e+90 -1.5425831e+89 -4.4187979e+88)
(-3.5013929e+90 -1.2337892e+89 -4.3127858e+88)
(-3.5150592e+90 -1.6074039e+89 -3.1609905e+88)
(-3.4854695e+90 -1.504447e+89 -2.4271742e+89)
(-3.4900166e+90 -1.2574649e+89 -2.3007401e+89)
(-4.2480726e+90 -1.1923539e+89 -1.3724555e+89)
(-3.5076042e+90 -1.3299239e+89 -2.7587153e+88)
(-3.5264634e+90 -1.7541203e+89 -1.0256011e+88)
(-3.5201227e+90 -1.3950651e+89 -2.0772066e+89)
(-3.4887004e+90 -1.5902988e+89 -2.2392921e+89)
(-4.2753631e+90 -2.072259e+89 -9.840082e+88)
(-4.2005438e+90 -1.6775867e+89 -4.2750277e+89)
(-4.2057936e+90 -1.373516e+89 -3.3122325e+89)
(-2.7755196e+90 -1.0326068e+89 -4.5928051e+88)
(-2.6504133e+90 -8.7353005e+88 -1.3245e+89)
(-2.7674746e+90 -7.1884153e+88 -5.5756818e+88)
(-2.653962e+90 -8.1644277e+88 -1.2290385e+89)
(-2.7142552e+90 -8.460564e+88 -1.4702524e+89)
(-2.7943972e+90 -6.8751252e+88 -6.6204609e+88)
(-2.8092906e+90 -1.0202524e+89 -5.5145585e+88)
(-2.7308375e+90 -7.3536599e+88 -1.3259826e+89)
(-2.797706e+90 -1.0615437e+89 -4.3859829e+88)
(-2.6624939e+90 -8.9380047e+88 -1.2667252e+89)
(-2.7881743e+90 -7.1279253e+88 -5.4453841e+88)
(-2.6685155e+90 -7.9539965e+88 -1.171e+89)
(-2.7278108e+90 -8.4925591e+88 -1.4372866e+89)
(-2.8122413e+90 -6.7297997e+88 -6.217278e+88)
(-2.7468383e+90 -7.9938873e+88 -1.2879582e+89)
(-2.8232566e+90 -1.0332131e+89 -5.2022625e+88)
(-2.4738893e+90 -6.8414716e+88 -1.5454799e+89)
(-2.4797357e+90 -1.045253e+89 -1.4688374e+89)
(-2.7031558e+90 -7.9670036e+88 -2.9997194e+88)
(-2.7084715e+90 -1.1039018e+89 -2.1988923e+88)
(-2.6895703e+90 -8.0298724e+88 -3.0646639e+88)
(-2.6943697e+90 -1.0091718e+89 -2.3885315e+88)
(-2.4354773e+90 -7.1294091e+88 -1.7184347e+89)
(-2.443004e+90 -1.0364601e+89 -1.6488544e+89)
(-2.8195129e+90 -1.3386073e+89 -6.9731386e+88)
(-3.5729904e+90 -1.3956275e+89 -1.1492375e+89)
(-3.5266388e+90 -1.3304902e+89 -2.4944862e+89)
(-3.5296595e+90 -1.6874697e+89 -2.5669894e+89)
(-3.574715e+90 -1.7376879e+89 -1.0912817e+89)
(-2.7898038e+90 -1.3344881e+89 -9.2411032e+88)
(-3.6225787e+90 -1.2442924e+89 -2.9459743e+89)
(-3.6098323e+90 -1.4842037e+89 -2.9372911e+89)
(-3.6588627e+90 -1.2468431e+89 -1.3867831e+89)
(-3.6670203e+90 -1.6189191e+89 -1.5053176e+89)
(-3.5989308e+90 -1.2566284e+89 -2.7639679e+89)
(-3.6039936e+90 -1.5029803e+89 -2.7706683e+89)
(-3.6554404e+90 -1.2957719e+89 -1.3868035e+89)
(-3.6503924e+90 -1.6400297e+89 -1.3807885e+89)
(-3.287913e+90 -1.2713094e+89 -1.9097788e+89)
(-3.293622e+90 -9.8620443e+88 -1.7682002e+89)
(-3.3602639e+90 -9.8278102e+88 -4.4707139e+88)
(-3.3652682e+90 -1.4080349e+89 -3.0206053e+88)
(-3.2470035e+90 -1.3178486e+89 -1.925401e+89)
(-3.3216817e+90 -9.7570521e+88 -4.6138289e+88)
(-3.2738349e+90 -9.6203585e+88 -1.7187708e+89)
(-3.3414952e+90 -1.3586789e+89 -2.8592156e+88)
(-3.2298448e+90 -1.3411902e+89 -1.9873001e+89)
(-3.2983103e+90 -9.747529e+88 -4.3244215e+88)
(-3.2549482e+90 -9.5657041e+88 -1.7407779e+89)
(-3.3211868e+90 -1.4710464e+89 -2.4355859e+88)
(-3.2669812e+90 -1.3654909e+89 -1.9532723e+89)
(-3.3339686e+90 -9.6100529e+88 -4.2506335e+88)
(-3.2740268e+90 -9.9636631e+88 -1.759974e+89)
(-3.3362625e+90 -1.4336632e+89 -2.6349396e+88)
(-3.3406815e+90 -1.4184756e+89 -1.691304e+89)
(-3.3913073e+90 -9.6376679e+88 -5.88376e+88)
(-3.3534287e+90 -1.055417e+89 -1.5791652e+89)
(-3.3991817e+90 -1.3455714e+89 -5.0912002e+88)
(-3.508307e+90 -1.1177125e+89 -4.507284e+88)
(-3.5219323e+90 -1.4990817e+89 -3.6918032e+88)
(-3.4916037e+90 -1.1316759e+89 -2.3676126e+89)
(-3.486592e+90 -1.3947184e+89 -2.4583551e+89)
(-4.2712196e+90 -1.8804879e+89 -1.2179589e+89)
(-3.4723971e+90 -9.7162066e+88 -2.8431527e+88)
(-3.4964722e+90 -1.4195696e+89 -1.7803792e+88)
(-3.4634807e+90 -1.0784351e+89 -2.2027177e+89)
(-3.446183e+90 -1.302024e+89 -2.3840464e+89)
(-4.2401606e+90 -1.0788527e+89 -1.2476475e+89)
(-3.3017134e+90 -1.2696711e+89 -1.5892331e+89)
(-3.3423317e+90 -9.6339372e+88 -6.0719611e+88)
(-3.3281686e+90 -9.7241315e+88 -1.4266388e+89)
(-3.3660743e+90 -1.3476199e+89 -4.8059924e+88)
(-4.1744634e+90 -1.5123613e+89 -4.0869685e+89)
(-4.2052572e+90 -1.0250859e+89 -4.03501e+89)
(-4.356333e+90 -6.2258383e+88 -5.0653781e+89)
(-4.3263566e+90 -9.7003192e+88 -5.1355236e+89)
(-4.4180808e+90 -6.8470687e+88 -1.6938554e+89)
(-4.4579396e+90 -1.5570126e+89 -1.6580908e+89)
(-4.3561279e+90 -1.0882556e+89 -5.1929813e+89)
(-4.426447e+90 -8.4020057e+88 -1.9951277e+89)
(-4.4204798e+90 -1.6728189e+89 -1.8172623e+89)
(-4.3466381e+90 -8.0021116e+88 -5.0348516e+89)
(-3.8634135e+90 -8.0405042e+88 -1.8644177e+89)
(-3.8056165e+90 -9.8234524e+88 -3.281659e+89)
(-3.8019017e+90 -9.4697837e+88 -3.222675e+89)
(-3.8577183e+90 -1.3286757e+89 -1.876537e+89)
(-3.8466088e+90 -9.5518555e+88 -3.785523e+89)
(-3.8314871e+90 -1.2726606e+89 -3.9133813e+89)
(-3.8698262e+90 -1.0225923e+89 -2.4130707e+89)
(-3.8840211e+90 -1.3248575e+89 -2.3214751e+89)
(-3.678321e+90 -1.0737522e+89 -2.9626458e+89)
(-3.6888974e+90 -1.225686e+89 -2.7627942e+89)
(-3.7377604e+90 -1.0825508e+89 -1.8081977e+89)
(-3.7303127e+90 -1.5251112e+89 -1.8981244e+89)
(-3.7464308e+90 -1.0936643e+89 -2.1578951e+89)
(-3.7019431e+90 -1.4165729e+89 -3.3622025e+89)
(-3.7191446e+90 -1.1009764e+89 -3.2233108e+89)
(-3.7596306e+90 -1.4397801e+89 -2.1069678e+89)
(-4.7857621e+90 -1.1858566e+88 -5.9522005e+89)
(-4.9046892e+90 -1.8400874e+89 -1.2814624e+89)
(-4.5817327e+90 8.5945005e+88 -1.897861e+89)
(-5.0473972e+90 -1.0381724e+89 -6.9263948e+87)
(-4.0122636e+90 -1.1859201e+89 -2.8852084e+89)
(-4.0668433e+90 -2.1376989e+89 1.1329338e+88)
(-3.9161103e+90 -1.6519984e+89 -2.0856352e+89)
(-3.4265525e+90 -1.7214863e+89 1.5093129e+89)
(-3.4448703e+90 -1.5854775e+89 1.8501507e+89)
(-3.4950443e+90 -1.1520375e+89 4.9945407e+89)
(-3.5106879e+90 -2.4611622e+89 5.2303646e+89)
(-3.3790586e+90 -1.4840652e+89 -4.4267869e+88)
(-3.3695426e+90 -1.3534736e+89 -1.2533493e+88)
(-3.4900339e+90 -1.1311857e+89 2.458747e+89)
(-3.48511e+90 -2.0618471e+89 2.7603537e+89)
(-3.3345062e+90 -1.5661343e+89 -4.6491603e+88)
(-3.4688274e+90 -1.153502e+89 2.496509e+89)
(-3.358928e+90 -1.3794807e+89 -1.4308414e+88)
(-3.4828871e+90 -2.036457e+89 2.7807204e+89)
(-3.461684e+90 -1.7119045e+89 1.5462959e+89)
(-3.5157339e+90 -1.1118572e+89 4.8701677e+89)
(-3.465235e+90 -1.6743915e+89 1.9625539e+89)
(-3.5092289e+90 -2.3683577e+89 5.1629022e+89)
(-3.251821e+90 -1.5666271e+89 -1.7115928e+89)
(-3.3605006e+90 -1.1783851e+89 5.7730971e+88)
(-3.2683295e+90 -1.1598414e+89 -1.3909147e+89)
(-3.3811739e+90 -1.8207209e+89 8.5591074e+88)
(-3.2202116e+90 -1.3263003e+89 -1.8640811e+89)
(-3.2157875e+90 -1.0250204e+89 -1.6300281e+89)
(-3.3183602e+90 -1.0375274e+89 -7.054384e+87)
(-3.3157329e+90 -1.5500276e+89 1.4911713e+88)
(-3.1905831e+90 -1.4060554e+89 -1.9745818e+89)
(-3.2937654e+90 -1.1314578e+89 -1.7306522e+88)
(-3.2127341e+90 -1.077971e+89 -1.6878472e+89)
(-3.3143153e+90 -1.5867869e+89 9.7761744e+87)
(-3.2801035e+90 -1.5094667e+89 -1.5870051e+89)
(-3.3786627e+90 -1.0550508e+89 5.189029e+88)
(-3.2808869e+90 -1.1770774e+89 -1.3013497e+89)
(-3.374455e+90 -1.6917978e+89 7.5379409e+88)