/*--------------------------------*- C++ -*----------------------------------*\
  =========                 |
  \\      /  F ield         | OpenFOAM: The Open Source CFD Toolbox
   \\    /   O peration     | Website:  https://openfoam.org
    \\  /    A nd           | Version:  7
     \\/     M anipulation  |
\*---------------------------------------------------------------------------*/
FoamFile
{
    version     2.0;
    format      ascii;
    class       volVectorField;
    location    "2000";
    object      UMean;
}
// * * * * * * * * * * * * * * * * * * * * * * * * * * * * * * * * * * * * * //

dimensions      [0 1 -1 0 0 0 0];

internalField   nonuniform List<vector> 
33730
(
(-2.7409116e+88 -4.6722095e+87 -3.2798411e+86)
(-2.567129e+88 -2.2321256e+87 3.275024e+87)
(-2.5015868e+88 -1.4819038e+87 3.560251e+87)
(-2.7267246e+88 -3.625906e+86 2.0519459e+87)
(-2.7353567e+88 -6.3283928e+86 2.1031295e+87)
(-2.4288207e+88 -6.722447e+86 -3.1593824e+87)
(-1.960448e+88 -1.5371424e+87 -3.8307862e+86)
(-2.4811906e+88 -1.6491009e+87 -3.202542e+87)
(-2.0255518e+88 -3.4251839e+87 -3.8482882e+86)
(-2.0973514e+88 -7.3382651e+86 2.4544186e+87)
(-2.149504e+88 -1.0365014e+87 2.474358e+87)
(-2.6008031e+88 -1.6384817e+86 2.9182496e+87)
(-2.5693151e+88 -6.0657098e+86 2.8035484e+87)
(-2.1440461e+88 -7.6388294e+86 2.5207689e+87)
(-2.5807765e+88 -1.2557664e+86 2.968324e+87)
(-2.5647274e+88 -8.5725827e+86 3.0137773e+87)
(-2.1165227e+88 -7.2743809e+86 2.657568e+87)
(-2.7534148e+88 -2.5471565e+86 -6.0019214e+86)
(-2.80735e+88 1.6874237e+86 -6.3433347e+86)
(-2.8194634e+88 -2.1041913e+86 9.890831e+86)
(-2.7337392e+88 -6.5401255e+85 -7.0710137e+86)
(-2.8425077e+88 -5.959124e+86 1.0544349e+87)
(-2.5820364e+88 3.2424428e+86 -1.6181799e+87)
(-2.4507231e+88 -2.9220656e+86 1.8756715e+87)
(-2.4656837e+88 1.1412506e+86 1.9292361e+87)
(-2.4656149e+88 -5.2199727e+86 2.0971493e+87)
(-2.4643453e+88 1.1093293e+86 1.9717523e+87)
(-2.3060404e+88 -1.5596166e+86 -2.828883e+87)
(-2.4018495e+88 1.7074757e+86 -2.6794873e+87)
(-2.3788718e+88 -3.3614555e+86 -2.6092438e+87)
(-2.2846329e+88 -1.9438394e+86 -2.9870463e+87)
(-1.8672894e+88 -1.1650935e+86 -3.6480266e+87)
(-1.8955419e+88 -3.3227115e+86 -3.6058068e+87)
(-1.438026e+88 -7.1540365e+86 -6.7476332e+85)
(-1.4554305e+88 -1.6345894e+87 -1.0307859e+86)
(-2.2939732e+88 -4.0213679e+86 -2.7580614e+87)
(-2.3787714e+88 1.197757e+86 -2.5818519e+87)
(-2.3599736e+88 -1.7366827e+86 -2.5117524e+87)
(-2.2725981e+88 -1.397071e+86 -2.8266411e+87)
(-1.8938358e+88 -6.6688879e+86 -3.5356547e+87)
(-1.8519825e+88 -1.4098632e+86 -3.5257089e+87)
(-1.4541973e+88 -2.2198215e+87 -2.9049029e+86)
(-1.3996012e+88 -1.1081778e+87 -3.5361892e+86)
(-1.7863408e+88 -3.7011925e+86 1.8982714e+87)
(-2.2651555e+88 -3.2712772e+85 2.3675175e+87)
(-1.7600972e+88 -3.2360201e+86 1.9361446e+87)
(-2.2471722e+88 -4.030267e+86 2.3687452e+87)
(-1.8027826e+88 -4.8305638e+86 2.0201696e+87)
(-1.7686421e+88 -3.6740175e+86 1.910582e+87)
(-2.2678602e+88 -2.9203689e+86 2.3882353e+87)
(-2.284474e+88 5.2199718e+84 2.4983387e+87)
(-2.2787858e+88 -3.2061709e+86 2.4135344e+87)
(-1.7803521e+88 -3.0485649e+86 1.8915743e+87)
(-2.2813991e+88 2.2976773e+85 2.41246e+87)
(-1.8004215e+88 -3.6397769e+86 1.9644566e+87)
(-1.8044228e+88 -3.9617075e+86 2.1661841e+87)
(-1.8103872e+88 -3.3402037e+86 1.9923195e+87)
(-2.2757605e+88 -5.8878283e+86 2.6372625e+87)
(-2.2869187e+88 -1.1607659e+86 2.5665018e+87)
(-2.5404349e+88 -2.6536386e+86 -3.636436e+86)
(-2.4684357e+88 -1.2918014e+86 -1.0091069e+87)
(-2.2042297e+88 -7.5212686e+84 -7.9109629e+86)
(-2.1847768e+88 -1.3117626e+85 -9.4551767e+86)
(-2.5219193e+88 9.1021707e+84 -1.1642681e+87)
(-2.5349253e+88 1.0716603e+85 -4.2639371e+86)
(-2.4729585e+88 4.3389188e+85 -1.0353913e+87)
(-2.8012366e+88 -2.2644226e+86 -5.4267596e+86)
(-2.4569807e+88 3.0750427e+85 -1.574389e+87)
(-2.5757369e+88 2.9148068e+85 1.4680536e+87)
(-2.4612269e+88 -6.2437733e+85 -3.6523734e+85)
(-2.468668e+88 3.2746136e+85 2.9302991e+85)
(-2.5526182e+88 -2.5966822e+86 1.37111e+87)
(-2.7496952e+88 2.2498748e+86 -6.5625322e+86)
(-2.5514512e+88 4.320347e+86 -1.4950673e+87)
(-2.5735376e+88 7.8647741e+85 -1.5365726e+87)
(-2.4988458e+88 8.352334e+85 -5.1695146e+86)
(-2.4493323e+88 1.5430598e+86 -1.1237993e+87)
(-2.445312e+88 9.606531e+85 -1.1359943e+87)
(-2.4857545e+88 -2.3628149e+85 -6.1420223e+86)
(-2.4947056e+88 4.979716e+85 1.102725e+86)
(-2.5067175e+88 -2.9741425e+86 1.992957e+86)
(-2.5655377e+88 3.9141915e+85 1.4009501e+87)
(-2.567948e+88 -4.4915202e+86 1.4878789e+87)
(-2.8260649e+88 5.1342141e+86 -1.1120701e+87)
(-2.5467974e+88 1.7612782e+86 -1.4528422e+87)
(-2.3012554e+88 2.8913266e+86 -2.3484776e+87)
(-2.1502715e+88 1.6744975e+86 1.5635896e+87)
(-2.1435506e+88 -1.7329906e+86 1.6260701e+87)
(-2.1638218e+88 -1.5731031e+86 1.6535398e+87)
(-2.1649718e+88 1.8180579e+86 1.691783e+87)
(-2.1703722e+88 8.7069718e+85 1.7414593e+87)
(-2.1689829e+88 -3.6278608e+86 1.8679689e+87)
(-2.1708747e+88 -2.1045655e+86 1.6626065e+87)
(-2.1658298e+88 1.6882574e+86 1.6414551e+87)
(-2.7994462e+88 -8.9762687e+86 -2.7249619e+87)
(-2.8355968e+88 -7.9634335e+86 -2.7588863e+87)
(-2.4330974e+88 -4.040967e+85 -3.1559434e+87)
(-2.3537705e+88 4.0146415e+86 -2.0507425e+87)
(-2.3525839e+88 -8.7028691e+85 -2.0785666e+87)
(-2.427322e+88 -1.5430544e+86 -3.3279221e+87)
(-1.98264e+88 3.3703042e+86 -3.3322864e+87)
(-1.671127e+88 1.3932566e+86 -3.8797479e+87)
(-1.9684748e+88 -4.5556721e+84 -3.3388579e+87)
(-1.658176e+88 -3.7777435e+85 -3.947552e+87)
(-1.9713624e+88 1.4018379e+86 -3.1971037e+87)
(-1.9853127e+88 3.3100219e+86 -3.2080371e+87)
(-1.670012e+88 4.7241782e+85 -3.8076079e+87)
(-1.6517733e+88 6.448442e+85 -3.8095228e+87)
(-1.1764875e+88 -2.1791745e+85 -3.5166691e+87)
(-1.158752e+88 -1.1489886e+85 -3.5358943e+87)
(-1.0393002e+88 -7.3098281e+86 7.8913519e+86)
(-1.020963e+88 -2.3779694e+86 7.5846552e+86)
(-1.1703233e+88 -1.480589e+86 -3.4462153e+87)
(-1.1468325e+88 5.3887987e+85 -3.4258494e+87)
(-1.0131519e+88 -8.8372539e+86 5.9805785e+86)
(-9.8860968e+87 -2.9286854e+86 5.8931458e+86)
(-2.4112891e+88 -2.8100624e+86 -3.1154182e+87)
(-2.3272146e+88 4.1204669e+86 -1.9761055e+87)
(-2.3285391e+88 1.9350956e+85 -1.9468149e+87)
(-2.4100663e+88 -2.2883646e+86 -3.1966465e+87)
(-1.9606636e+88 9.7442517e+85 -3.1577558e+87)
(-1.976957e+88 2.3750894e+86 -3.2034126e+87)
(-1.6641396e+88 -1.3411528e+86 -3.7532076e+87)
(-1.6440941e+88 -5.9167255e+85 -3.7680329e+87)
(-1.9575221e+88 4.5666425e+85 -3.2158563e+87)
(-1.972732e+88 3.4370192e+86 -3.2436769e+87)
(-1.6431033e+88 -5.8606478e+85 -3.8394005e+87)
(-1.6575035e+88 5.2733742e+85 -3.7873369e+87)
(-1.1750596e+88 -3.9106764e+86 -3.3953386e+87)
(-1.1425092e+88 -1.1538452e+86 -3.3724869e+87)
(-1.0254511e+88 -1.1720225e+87 5.0863039e+86)
(-9.9434419e+87 -5.9255111e+86 4.9480542e+86)
(-1.1635756e+88 -1.6424643e+86 -3.427015e+87)
(-1.1391712e+88 -8.179451e+85 -3.4452128e+87)
(-1.0314867e+88 -9.8026198e+86 6.5750511e+86)
(-9.8486879e+87 -4.3672066e+86 5.5389493e+86)
(-1.9584945e+88 2.8725426e+85 2.1686676e+87)
(-1.5591596e+88 -2.724715e+86 1.9072646e+87)
(-1.529395e+88 -1.449794e+86 1.7744465e+87)
(-1.9494557e+88 -1.0866884e+86 2.1189722e+87)
(-1.542491e+88 -1.4334744e+86 1.8184797e+87)
(-1.5263964e+88 -1.6508326e+86 1.8741818e+87)
(-1.9433211e+88 -2.3975968e+86 2.2382732e+87)
(-1.9519863e+88 1.2104598e+85 2.1985385e+87)
(-1.5606283e+88 -3.2124204e+86 1.9538524e+87)
(-1.5398362e+88 -2.2392726e+86 1.8664854e+87)
(-1.9626381e+88 3.4926619e+85 2.253908e+87)
(-1.9571201e+88 -1.2200207e+86 2.2140116e+87)
(-1.5574974e+88 -2.3383474e+86 1.8769198e+87)
(-1.532752e+88 -2.1226604e+86 1.881304e+87)
(-1.9630284e+88 -8.4952546e+84 2.2043659e+87)
(-1.9477457e+88 -2.4610056e+86 2.2084733e+87)
(-1.563485e+88 -1.8534028e+86 1.8499815e+87)
(-1.5476137e+88 -1.5004995e+86 1.8642971e+87)
(-1.9810478e+88 -2.9979314e+85 2.2346814e+87)
(-1.9698979e+88 -2.6938572e+86 2.2526328e+87)
(-1.5646941e+88 -2.5980406e+86 1.9130346e+87)
(-1.5489308e+88 -1.9032757e+86 1.8221028e+87)
(-1.9742062e+88 5.993224e+85 2.2417531e+87)
(-1.9719686e+88 -1.34415e+86 2.2187003e+87)
(-1.5821489e+88 -2.0325456e+86 1.9714109e+87)
(-1.9924153e+88 -9.6615077e+85 2.4091299e+87)
(-1.9815816e+88 -3.6843628e+86 2.4571344e+87)
(-1.568292e+88 -2.2671164e+86 2.0399814e+87)
(-1.578451e+88 -2.4835832e+86 1.9597596e+87)
(-1.5575883e+88 -1.4763006e+86 1.8320134e+87)
(-1.9894626e+88 -8.69984e+84 2.3106926e+87)
(-1.9810167e+88 -1.8685709e+86 2.2623196e+87)
(-2.1532591e+88 -3.1105327e+85 -7.0898518e+86)
(-2.1530819e+88 1.1334242e+85 -8.0809263e+86)
(-2.1819408e+88 -8.8660445e+85 -4.0519538e+86)
(-2.185713e+88 2.4787273e+85 -4.7824814e+86)
(-1.8165413e+88 3.3200496e+84 -6.4870286e+86)
(-1.8400452e+88 2.317982e+84 -5.7040949e+86)
(-2.2002721e+88 -3.6147699e+85 -7.3310132e+86)
(-2.2019482e+88 1.0550562e+85 -8.1405393e+86)
(-2.180528e+88 1.671649e+85 -9.9164831e+86)
(-2.1843943e+88 1.8339978e+85 -8.7773745e+86)
(-2.4982503e+88 -1.0146002e+86 -1.1560121e+87)
(-1.8399878e+88 1.690952e+85 -6.4733718e+86)
(-1.8564127e+88 1.7511419e+85 -5.7312639e+86)
(-1.8417331e+88 9.749204e+84 -6.4010904e+86)
(-1.859749e+88 -7.4965765e+84 -5.6082561e+86)
(-1.8979623e+88 2.747755e+85 -6.2222805e+86)
(-1.8999284e+88 -3.6127741e+83 -6.2213644e+86)
(-1.9175849e+88 3.6922055e+85 -8.1633287e+86)
(-2.2243869e+88 1.1067113e+85 -8.4488768e+86)
(-1.9207398e+88 4.1843388e+84 -8.0376454e+86)
(-2.2062386e+88 4.9671952e+85 -1.0938935e+87)
(-2.2167334e+88 -1.18336e+84 -1.0025528e+87)
(-2.1578825e+88 8.3339134e+85 -8.0623711e+86)
(-2.1532961e+88 1.0936728e+86 -8.0447938e+86)
(-2.1843399e+88 1.3496514e+86 -4.9085493e+86)
(-2.1922283e+88 2.9149748e+85 -4.7013182e+86)
(-2.2094404e+88 7.3821817e+85 -8.1841721e+86)
(-2.187122e+88 1.299013e+86 -1.0126546e+87)
(-2.1776261e+88 1.0596962e+86 -9.8323641e+86)
(-2.2015128e+88 1.0844388e+86 -8.064264e+86)
(-2.5198954e+88 8.7946533e+85 -1.1223547e+87)
(-2.4581778e+88 1.6033425e+86 -1.5592467e+87)
(-2.4657456e+88 -5.2320192e+85 -1.5243488e+87)
(-2.2537557e+88 4.2003731e+84 -1.3462413e+87)
(-2.2569148e+88 1.2782747e+86 -1.3734165e+87)
(-2.2702584e+88 6.8845232e+84 -1.0340714e+87)
(-2.257184e+88 7.114466e+85 -1.1582461e+87)
(-2.2766605e+88 1.436912e+86 1.70377e+87)
(-2.1826912e+88 -8.2019393e+85 6.8709027e+86)
(-2.1796835e+88 1.0537781e+86 6.780932e+86)
(-2.2695759e+88 -1.683766e+86 1.6690165e+87)
(-2.1948567e+88 1.3183022e+86 1.3384097e+86)
(-2.1252674e+88 8.8052116e+85 -4.3678603e+86)
(-2.1269023e+88 1.3672837e+86 -4.7127405e+86)
(-2.1886826e+88 -1.3487541e+85 1.669922e+86)
(-2.2131203e+88 1.002674e+86 2.5016791e+86)
(-2.1328698e+88 6.4697904e+85 -3.6245924e+86)
(-2.1301805e+88 1.0938953e+86 -3.7450311e+86)
(-2.2145717e+88 -5.4632645e+85 2.6586271e+86)
(-2.1661209e+88 1.3998403e+86 5.9614813e+86)
(-2.1665282e+88 -4.8781802e+85 6.5057979e+86)
(-2.2466586e+88 -1.6722881e+86 1.5977124e+87)
(-2.2579853e+88 1.1135257e+86 1.5691226e+87)
(-2.8401958e+88 3.835211e+84 -9.4512663e+86)
(-2.7908839e+88 4.6058223e+86 -9.0806008e+86)
(-2.4541478e+88 3.3112493e+86 -2.4600496e+87)
(-2.4724648e+88 -8.0764964e+85 -2.5553705e+87)
(-2.4360429e+88 1.8935502e+86 -1.6094061e+87)
(-2.4327987e+88 2.4156764e+86 -1.5253937e+87)
(-2.4818058e+88 2.1710631e+86 -1.1855851e+87)
(-2.4665401e+88 1.4968233e+86 -1.2578865e+87)
(-2.5137947e+88 2.9738027e+86 -1.4484469e+87)
(-2.2813769e+88 4.5266599e+86 -2.3664147e+87)
(-2.3085324e+88 3.1069411e+86 -2.3508798e+87)
(-2.519749e+88 2.0289837e+86 -1.5452308e+87)
(-2.545841e+88 2.1884032e+86 -1.4546678e+87)
(-2.314533e+88 3.6597076e+86 -2.3425723e+87)
(-2.3371833e+88 8.0657347e+85 -2.3373234e+87)
(-2.5502643e+88 -4.2685613e+85 -1.4755863e+87)
(-2.1160613e+88 1.3386166e+86 -8.1483651e+86)
(-2.1617213e+88 1.2896768e+86 -4.7353887e+86)
(-2.1633283e+88 8.7650249e+85 -4.8140976e+86)
(-2.1224904e+88 1.5999234e+86 -8.0817458e+86)
(-2.1606034e+88 1.6257894e+86 -8.5756475e+86)
(-2.1570859e+88 2.215007e+86 -9.6189092e+86)
(-2.1488329e+88 1.6840861e+86 -9.867012e+86)
(-2.1639134e+88 1.7860804e+86 -8.5666644e+86)
(-2.155859e+88 1.4359302e+86 -1.0502094e+87)
(-2.1591602e+88 1.4358523e+86 -9.2158721e+86)
(-2.1614195e+88 1.4201684e+86 -9.4788199e+86)
(-2.1552949e+88 1.7670859e+86 -1.0205757e+87)
(-2.1213261e+88 1.382725e+86 -8.911408e+86)
(-2.1186154e+88 1.4296095e+86 -8.5639822e+86)
(-2.1499736e+88 1.3936168e+86 -6.2283306e+86)
(-2.1472167e+88 1.0756645e+86 -5.9207091e+86)
(-2.2314051e+88 -5.5750055e+85 2.8139075e+86)
(-2.15465e+88 1.4067453e+86 -3.5772557e+86)
(-2.2262464e+88 1.5976958e+86 2.6489528e+86)
(-2.1625638e+88 1.9461166e+85 -3.4017964e+86)
(-2.1592302e+88 3.763836e+85 -3.3349295e+86)
(-2.2276418e+88 4.0232133e+85 3.0663004e+86)
(-2.2261632e+88 -2.1813544e+86 3.9246802e+86)
(-2.1575395e+88 -1.0670495e+86 -2.4504144e+86)
(-2.1976738e+88 1.5501461e+86 7.1935403e+86)
(-2.2759868e+88 1.6125232e+86 1.6581733e+87)
(-2.2024601e+88 -9.6191288e+85 7.4129726e+86)
(-2.2811764e+88 -1.8086639e+86 1.6773503e+87)
(-2.2056685e+88 -2.4406881e+86 8.8931869e+86)
(-2.202943e+88 6.5269e+85 7.769465e+86)
(-2.280081e+88 4.2261337e+85 1.7269692e+87)
(-2.2746186e+88 -3.4519948e+86 1.811297e+87)
(-2.5348762e+88 3.490609e+86 -1.238863e+87)
(-2.198136e+88 1.5951578e+86 -1.5877845e+87)
(-2.3173499e+88 2.9394596e+85 -1.3918267e+87)
(-2.292082e+88 7.0875599e+85 -1.8426191e+87)
(-2.3005114e+88 1.890028e+86 -1.8654221e+87)
(-2.31749e+88 1.5886214e+86 -1.4610405e+87)
(-2.2460914e+88 2.0055599e+86 -2.7358062e+87)
(-2.3810607e+88 1.5302539e+86 -1.7529039e+87)
(-2.268589e+88 1.9893155e+86 -2.6166035e+87)
(-2.4003066e+88 2.3473714e+86 -1.6878333e+87)
(-1.8614788e+88 1.5693967e+86 1.6444998e+87)
(-1.8594631e+88 -3.9899195e+85 1.6102094e+87)
(-1.8492866e+88 -9.3200315e+85 1.6995462e+87)
(-1.8553631e+88 1.6730501e+86 1.6417844e+87)
(-1.8699257e+88 1.4489838e+86 1.681229e+87)
(-1.8611314e+88 -1.0327963e+86 1.7163106e+87)
(-1.8682356e+88 1.6270859e+86 1.7420639e+87)
(-1.8695638e+88 -6.8741906e+85 1.7189467e+87)
(-1.8834633e+88 -1.3775962e+86 1.7118847e+87)
(-1.8842006e+88 9.4163676e+85 1.7338003e+87)
(-1.8892303e+88 5.0921501e+85 1.8142084e+87)
(-1.8826306e+88 -2.415947e+86 1.8792513e+87)
(-1.8759084e+88 -1.4598095e+86 1.7148618e+87)
(-1.8821811e+88 1.0374459e+86 1.6630447e+87)
(-1.8793433e+88 -9.5913385e+85 1.6976553e+87)
(-1.8768902e+88 1.6333395e+86 1.7143735e+87)
(-2.8097318e+88 -4.8542773e+86 -1.485277e+87)
(-2.8486294e+88 -4.7594114e+86 -1.4810091e+87)
(-2.4848322e+88 1.3283461e+86 -2.5943386e+87)
(-1.9848684e+88 1.2772944e+86 -3.3233585e+87)
(-1.9921755e+88 4.237747e+86 -3.2862925e+87)
(-2.4579943e+88 2.8120507e+86 -1.5030037e+87)
(-2.4518859e+88 -3.1036253e+85 -1.513734e+87)
(-2.4831836e+88 2.4185901e+85 -2.7674593e+87)
(-1.9895469e+88 5.8594843e+85 -3.4698346e+87)
(-1.9933413e+88 4.3586228e+86 -3.4033802e+87)
(-1.7353143e+88 1.5598698e+86 -4.137475e+87)
(-1.7298144e+88 3.8942043e+85 -4.2156852e+87)
(-1.7271979e+88 9.1557821e+85 -4.0582319e+87)
(-1.7189641e+88 5.9960433e+85 -4.0941803e+87)
(-1.2264183e+88 2.7457898e+86 -3.5803366e+87)
(-1.2195766e+88 1.9309934e+86 -3.5556728e+87)
(-8.7826605e+87 6.6266587e+85 -3.7942052e+87)
(-8.9409795e+87 9.9768622e+85 -3.8219537e+87)
(-1.2189765e+88 1.002419e+86 -3.6631835e+87)
(-1.223609e+88 2.5769458e+86 -3.6132663e+87)
(-8.9158328e+87 1.4701829e+86 -3.8147656e+87)
(-8.8365862e+87 -1.7237046e+85 -3.9056614e+87)
(-9.6232079e+87 -2.8836352e+86 1.3582453e+87)
(-9.4620868e+87 -2.9794558e+85 1.2996214e+87)
(-6.8045251e+87 -1.9779217e+86 -1.6025185e+87)
(-6.722782e+87 -1.5316808e+86 -1.4486377e+87)
(-6.9071456e+87 -1.0389593e+86 -1.438407e+87)
(-9.7088266e+87 -1.8297362e+86 1.4309859e+87)
(-6.7505824e+87 -1.7799336e+86 -1.5322293e+87)
(-9.4787664e+87 -6.5593174e+85 1.3553119e+87)
(-1.2239333e+88 2.2330771e+86 -3.5306516e+87)
(-1.2189294e+88 1.6878547e+86 -3.4987076e+87)
(-8.7291739e+87 4.2882981e+85 -3.7437582e+87)
(-8.9188723e+87 3.14393e+85 -3.7600979e+87)
(-1.2132618e+88 2.6758028e+86 -3.5091705e+87)
(-1.2073029e+88 1.3949423e+86 -3.5487923e+87)
(-8.8050169e+87 1.2114127e+86 -3.7304861e+87)
(-8.6589294e+87 1.3957367e+84 -3.8224236e+87)
(-9.4746565e+87 -3.6890252e+86 1.2968727e+87)
(-9.3983237e+87 -1.306454e+86 1.2739327e+87)
(-6.742243e+87 -2.8938957e+86 -1.620073e+87)
(-6.678909e+87 -2.2869031e+86 -1.4423679e+87)
(-9.6849092e+87 -2.6388805e+86 1.4340743e+87)
(-9.3582239e+87 -1.9991106e+85 1.2683467e+87)
(-6.883767e+87 -2.0675863e+86 -1.3587992e+87)
(-6.577275e+87 -2.0001072e+86 -1.5069363e+87)
(-2.4525513e+88 -8.0530772e+85 -2.5836834e+87)
(-1.9766706e+88 3.398608e+86 -3.2650843e+87)
(-1.9672034e+88 7.4378651e+85 -3.2890133e+87)
(-2.4273768e+88 2.7924502e+86 -1.4571666e+87)
(-2.4207109e+88 6.6078387e+85 -1.4138644e+87)
(-2.4556589e+88 -2.1701448e+85 -2.6405173e+87)
(-1.9759408e+88 4.2222305e+86 -3.2971395e+87)
(-1.9687231e+88 8.8440323e+85 -3.3344368e+87)
(-1.7148801e+88 -1.1813622e+86 -4.0256248e+87)
(-1.7012042e+88 -8.9327895e+85 -4.062343e+87)
(-1.7048131e+88 -1.6723806e+85 -4.1029149e+87)
(-1.7103421e+88 3.9614704e+85 -4.0413562e+87)
(-1.2225869e+88 1.3406709e+86 -3.5248501e+87)
(-1.2161308e+88 1.0370434e+86 -3.4752058e+87)
(-8.7289434e+87 -7.5416518e+85 -3.6765477e+87)
(-9.0090097e+87 -1.3474487e+86 -3.6775009e+87)
(-1.2142115e+88 2.1127675e+86 -3.5230765e+87)
(-1.2069317e+88 9.1067594e+85 -3.5454557e+87)
(-8.8205595e+87 1.2128834e+85 -3.6930606e+87)
(-8.6241896e+87 -7.7902914e+85 -3.7786534e+87)
(-6.7486406e+87 -5.4485487e+86 -1.6855965e+87)
(-9.3892189e+87 -4.2297002e+86 1.2696435e+87)
(-9.2633869e+87 -1.8744613e+86 1.2349796e+87)
(-6.6244794e+87 -4.5931457e+86 -1.5022527e+87)
(-9.5770296e+87 -3.3118452e+86 1.3765568e+87)
(-9.2584885e+87 -1.3217042e+86 1.2258478e+87)
(-6.818982e+87 -4.134112e+86 -1.5189484e+87)
(-6.5622744e+87 -4.1232773e+86 -1.5747098e+87)
(-1.2172205e+88 2.3462696e+86 -3.5338515e+87)
(-1.2093995e+88 1.7510969e+86 -3.4872261e+87)
(-8.872633e+87 1.018944e+85 -3.751294e+87)
(-8.620406e+87 1.8032183e+85 -3.7352011e+87)
(-1.2148564e+88 2.5020849e+86 -3.5441627e+87)
(-1.2084129e+88 9.0787758e+85 -3.5823637e+87)
(-8.7859175e+87 9.5632706e+85 -3.7383722e+87)
(-8.6634459e+87 -6.1404265e+85 -3.8232759e+87)
(-6.7702988e+87 -3.6752373e+86 -1.6445695e+87)
(-9.4809767e+87 -3.2341305e+86 1.2713088e+87)
(-9.2817526e+87 -6.6028846e+85 1.2232682e+87)
(-6.5947367e+87 -2.8308749e+86 -1.5018354e+87)
(-9.5121225e+87 -1.9807089e+86 1.3607478e+87)
(-9.1681834e+87 -7.0064122e+85 1.2090288e+87)
(-6.7982012e+87 -2.3325763e+86 -1.4932727e+87)
(-6.4913206e+87 -2.8777282e+86 -1.6134107e+87)
(-1.3305099e+88 -1.6725187e+86 1.8581751e+87)
(-1.3329145e+88 -2.5635835e+86 1.8781136e+87)
(-1.7134734e+88 5.8982177e+85 2.0056331e+87)
(-1.7112202e+88 -5.2184451e+85 2.0013458e+87)
(-1.3205168e+88 -9.6099686e+85 1.8465808e+87)
(-1.3252843e+88 -1.7532505e+86 1.7862245e+87)
(-1.7069552e+88 6.6628386e+85 1.9333655e+87)
(-1.6987372e+88 -9.7737178e+85 1.9248457e+87)
(-1.3265224e+88 -9.2225158e+85 1.8265411e+87)
(-1.3278294e+88 -1.9600684e+86 1.8501425e+87)
(-1.7102232e+88 1.0607433e+86 1.9810818e+87)
(-1.7037644e+88 -2.0919741e+85 1.9450512e+87)
(-1.3353851e+88 -1.2345792e+86 1.9486255e+87)
(-1.3309722e+88 -1.2731293e+86 1.8334308e+87)
(-1.7059911e+88 7.1047476e+85 2.0342232e+87)
(-1.6946104e+88 -1.2434723e+86 2.0084089e+87)
(-1.3358154e+88 -2.0703259e+86 1.9307678e+87)
(-1.3407784e+88 -2.5796331e+86 1.9671118e+87)
(-1.7110571e+88 6.7827515e+85 2.0608937e+87)
(-1.7113018e+88 -6.8112588e+85 2.076302e+87)
(-1.3319126e+88 -1.5394411e+86 1.9444822e+87)
(-1.3333587e+88 -2.3086731e+86 1.872351e+87)
(-1.7111527e+88 3.0157427e+85 2.0143993e+87)
(-1.7043533e+88 -1.3085304e+86 2.0091334e+87)
(-1.333827e+88 -1.3352046e+86 1.8787491e+87)
(-1.337466e+88 -2.3635745e+86 1.9014342e+87)
(-1.7165506e+88 7.1530301e+85 1.9876595e+87)
(-1.7157016e+88 -4.0359867e+85 2.00597e+87)
(-1.3282327e+88 -1.588559e+86 1.936471e+87)
(-1.3286564e+88 -1.6782808e+86 1.832671e+87)
(-1.7062294e+88 5.0066882e+85 2.0220164e+87)
(-1.6982289e+88 -1.695181e+86 2.0208958e+87)
(-1.3458638e+88 -1.0378365e+86 1.87901e+87)
(-1.3435237e+88 -2.2998587e+86 1.8873299e+87)
(-1.7305487e+88 5.3210265e+85 1.9744254e+87)
(-1.7301794e+88 -5.5662445e+85 1.9871567e+87)
(-1.3382714e+88 -1.1288256e+86 1.908649e+87)
(-1.33978e+88 -1.2515582e+86 1.8482496e+87)
(-1.7286578e+88 2.8271156e+85 2.0587213e+87)
(-1.7193136e+88 -1.830106e+86 2.0307789e+87)
(-1.3421387e+88 -1.9343893e+86 1.8782749e+87)
(-1.3392934e+88 -2.5124404e+86 1.8924679e+87)
(-1.7237252e+88 9.7837932e+85 2.0205467e+87)
(-1.7288105e+88 -6.6284225e+85 2.0748541e+87)
(-1.3376952e+88 -1.2129634e+86 1.905513e+87)
(-1.337371e+88 -2.0421654e+86 1.8265516e+87)
(-1.726993e+88 1.8356448e+85 1.9897825e+87)
(-1.7220192e+88 -1.423372e+86 2.0020334e+87)
(-1.3743811e+88 -1.4276257e+86 1.990846e+87)
(-1.368071e+88 -2.2976718e+86 1.9660628e+87)
(-1.7491439e+88 2.3885882e+85 2.1113878e+87)
(-1.7500424e+88 -9.897214e+85 2.1425759e+87)
(-1.3646069e+88 -7.7307033e+85 2.0438091e+87)
(-1.3802659e+88 -1.5776641e+86 2.023222e+87)
(-1.7402047e+88 -2.0163602e+85 2.1856275e+87)
(-1.7357598e+88 -2.3481858e+86 2.2006196e+87)
(-1.3658043e+88 -1.5338466e+86 1.9361608e+87)
(-1.3626275e+88 -2.6482988e+86 1.9600514e+87)
(-1.7423503e+88 3.353531e+85 2.0897665e+87)
(-1.7389994e+88 -8.4869997e+85 2.064279e+87)
(-1.3442421e+88 -7.5698782e+85 1.8907887e+87)
(-1.3466247e+88 -1.7370478e+86 1.8419383e+87)
(-1.7375902e+88 9.2960282e+83 2.0393535e+87)
(-1.7292945e+88 -1.6146591e+86 2.0139267e+87)
(-2.7033309e+88 3.5505815e+86 -2.5224799e+87)
(-1.819559e+88 6.6653808e+85 -6.1559525e+86)
(-1.8147384e+88 3.4686388e+85 -5.9581831e+86)
(-1.842526e+88 6.0187405e+85 -5.3300971e+86)
(-1.8375551e+88 7.1188191e+84 -5.1185622e+86)
(-1.8129011e+88 9.4990312e+85 -7.1035319e+86)
(-1.8364904e+88 9.1984846e+85 -6.1867534e+86)
(-1.8124102e+88 1.1555786e+86 -6.9655412e+86)
(-1.8361443e+88 8.4273833e+85 -6.0516455e+86)
(-1.8056964e+88 6.1128636e+85 -5.4752927e+86)
(-1.8435637e+88 6.1756546e+85 -3.9292066e+86)
(-1.8014661e+88 1.9711209e+84 -5.2271322e+86)
(-1.8373757e+88 -2.4795972e+85 -3.740987e+86)
(-1.798905e+88 9.0024049e+85 -6.3363704e+86)
(-1.8374573e+88 9.4661666e+85 -4.6930317e+86)
(-1.7984257e+88 8.1295562e+85 -6.1709428e+86)
(-1.8374805e+88 4.741463e+85 -4.5595905e+86)
(-1.5616609e+88 1.4342399e+84 -5.5635994e+86)
(-1.5716244e+88 -3.3971062e+84 -5.5571991e+86)
(-1.5423057e+88 3.543144e+85 -5.6811649e+86)
(-1.5710212e+88 2.3314035e+85 -5.6832215e+86)
(-1.5418552e+88 -9.5536256e+84 -5.5824155e+86)
(-1.5469759e+88 1.892254e+85 -5.6915635e+86)
(-1.5811843e+88 1.5264936e+85 -5.1204543e+86)
(-1.5449076e+88 -8.1007323e+84 -5.5843231e+86)
(-1.5412698e+88 1.2951757e+85 -5.7122854e+86)
(-1.5708272e+88 1.1512215e+84 -5.6920979e+86)
(-1.8411548e+88 8.1642883e+85 -6.2849992e+86)
(-1.8585716e+88 7.5480794e+85 -5.4869469e+86)
(-1.8375334e+88 5.5603361e+85 -6.1075643e+86)
(-1.8535293e+88 3.5309562e+85 -5.3271278e+86)
(-1.834882e+88 1.0776263e+86 -7.347925e+86)
(-1.852651e+88 1.0136127e+86 -6.4327528e+86)
(-1.8335366e+88 1.426655e+86 -7.319134e+86)
(-1.8521784e+88 1.0830921e+86 -6.3329201e+86)
(-1.8924534e+88 1.1080738e+86 -7.1198116e+86)
(-1.8912005e+88 1.2758939e+86 -7.1145113e+86)
(-1.9101947e+88 1.1861724e+86 -9.0470685e+86)
(-1.9070592e+88 1.4406264e+86 -9.1997052e+86)
(-2.2213793e+88 1.4469501e+85 -8.8792758e+86)
(-1.8980268e+88 8.6599489e+85 -6.0565446e+86)
(-1.8942696e+88 4.3505857e+85 -5.9527466e+86)
(-1.9133126e+88 5.3838132e+85 -7.9480704e+86)
(-1.9163199e+88 9.5323879e+85 -7.9907303e+86)
(-2.2262915e+88 -1.9695714e+84 -7.544373e+86)
(-2.2067906e+88 2.9636093e+85 -1.0601316e+87)
(-2.204796e+88 4.007809e+85 -9.7410437e+86)
(-1.5430745e+88 -3.2741713e+84 -5.6381767e+86)
(-1.4992354e+88 6.1159392e+85 -5.8208732e+86)
(-1.5418939e+88 5.2520431e+85 -5.712281e+86)
(-1.4993616e+88 -8.2661238e+84 -5.7504956e+86)
(-1.5177814e+88 5.2817281e+85 -5.6651044e+86)
(-1.5616173e+88 4.9095948e+85 -5.0711973e+86)
(-1.5629192e+88 -1.53901e+85 -4.9759984e+86)
(-1.5176924e+88 -1.0156988e+85 -5.5993264e+86)
(-1.5409898e+88 -4.287578e+85 -5.659386e+86)
(-1.4959826e+88 3.8911462e+85 -5.9160181e+86)
(-1.5411873e+88 3.0013423e+85 -5.752937e+86)
(-1.4959085e+88 -4.6381359e+85 -5.8564237e+86)
(-1.5160434e+88 3.1653697e+85 -5.7388647e+86)
(-1.5612285e+88 2.7242707e+85 -5.1002465e+86)
(-1.5139431e+88 -5.1953868e+85 -5.6621063e+86)
(-1.5591701e+88 -5.5803883e+85 -5.0155327e+86)
(-1.4785996e+88 6.7845746e+85 -5.2042377e+86)
(-1.4790086e+88 1.9564049e+83 -5.1564014e+86)
(-1.5208659e+88 6.6308668e+85 -5.140253e+86)
(-1.5215953e+88 -4.1385157e+84 -5.0819433e+86)
(-1.518764e+88 3.8734634e+85 -5.2739673e+86)
(-1.5187797e+88 -4.3160087e+85 -5.2208804e+86)
(-1.473969e+88 3.1902856e+85 -5.4545443e+86)
(-1.4747282e+88 -4.0261594e+85 -5.4308517e+86)
(-1.5289107e+88 4.1900511e+85 -5.1791007e+86)
(-1.94951e+88 5.1732234e+85 -7.6818725e+86)
(-1.93748e+88 5.9931744e+84 -8.3195948e+86)
(-1.9396153e+88 5.9418098e+85 -8.3748171e+86)
(-1.9493166e+88 -6.9561856e+84 -7.5666647e+86)
(-1.5251178e+88 -1.2435768e+85 -5.4297522e+86)
(-1.9508877e+88 1.9827103e+85 -1.04918e+87)
(-1.957029e+88 -1.3610136e+84 -1.0355332e+87)
(-1.9630164e+88 4.4813791e+84 -9.6075037e+86)
(-1.9545857e+88 1.3175424e+85 -9.9217994e+86)
(-1.9670915e+88 3.8571767e+85 -9.0025868e+86)
(-1.9704754e+88 7.6503453e+85 -8.9720319e+86)
(-1.9739963e+88 6.5273537e+85 -8.6225744e+86)
(-1.9725538e+88 1.7346162e+85 -8.5794597e+86)
(-1.820288e+88 1.3118688e+86 -6.9734463e+86)
(-1.8113529e+88 1.3664766e+86 -7.1026337e+86)
(-1.8440207e+88 1.3175333e+86 -6.0673812e+86)
(-1.834791e+88 1.1046076e+86 -6.129522e+86)
(-1.8127573e+88 1.7242753e+86 -6.9327333e+86)
(-1.8365493e+88 1.720685e+86 -6.1058846e+86)
(-1.8151807e+88 1.7143859e+86 -6.8364912e+86)
(-1.8377094e+88 1.4907356e+86 -6.0213978e+86)
(-1.7992229e+88 1.630568e+86 -6.21581e+86)
(-1.8381003e+88 1.7343569e+86 -4.6580522e+86)
(-1.8002888e+88 1.41969e+86 -6.1166979e+86)
(-1.8391407e+88 1.1557987e+86 -4.569968e+86)
(-1.8053203e+88 1.2846905e+86 -6.231781e+86)
(-1.8445196e+88 1.3419295e+86 -4.6509774e+86)
(-1.7972296e+88 1.0582499e+86 -6.2467752e+86)
(-1.8352876e+88 7.6988553e+85 -4.6556339e+86)
(-1.8416336e+88 1.3497835e+86 -7.2527281e+86)
(-1.8607532e+88 1.4184969e+86 -6.3187392e+86)
(-1.8340284e+88 1.5487927e+86 -7.493362e+86)
(-1.8512081e+88 1.3499088e+86 -6.5005734e+86)
(-1.900254e+88 1.4106015e+86 -7.0610183e+86)
(-1.89158e+88 1.4284273e+86 -7.3370041e+86)
(-1.9085307e+88 1.54637e+86 -9.4551506e+86)
(-1.9180125e+88 1.4368522e+86 -8.9966888e+86)
(-2.2322016e+88 1.2914061e+86 -9.1532056e+86)
(-1.8928456e+88 1.8720305e+86 -6.6956624e+86)
(-1.8940829e+88 1.7511874e+86 -6.7187977e+86)
(-1.9088234e+88 1.8853043e+86 -8.8013209e+86)
(-1.9061621e+88 1.955863e+86 -8.7677394e+86)
(-2.2220195e+88 1.1886364e+86 -8.7472401e+86)
(-1.8335214e+88 1.8342161e+86 -7.0307611e+86)
(-1.852909e+88 1.8040596e+86 -6.2945857e+86)
(-1.8355172e+88 1.8834268e+86 -6.9930297e+86)
(-1.8545772e+88 1.6540538e+86 -6.227736e+86)
(-2.2019573e+88 9.7278956e+85 -1.0950542e+87)
(-2.2146697e+88 1.8193256e+86 -1.1595973e+87)
(-2.262715e+88 2.5767569e+86 -1.4569086e+87)
(-2.2443175e+88 1.0870671e+86 -1.3739604e+87)
(-2.2518177e+88 1.1113282e+86 -1.1375249e+87)
(-2.2678177e+88 2.0308712e+86 -1.2019382e+87)
(-2.2578211e+88 5.5829494e+85 -1.335846e+87)
(-2.2507893e+88 3.4299087e+85 -1.1568834e+87)
(-2.2534377e+88 2.3809312e+85 -1.0691443e+87)
(-2.2561372e+88 5.7975149e+85 -1.2838679e+87)
(-2.0439644e+88 8.0877993e+85 -9.6550427e+86)
(-2.0396845e+88 8.5841116e+85 -1.0698985e+87)
(-2.0343187e+88 1.3368174e+86 -1.063484e+87)
(-2.0386784e+88 1.0318339e+86 -9.7041508e+86)
(-2.0354009e+88 8.8820544e+85 -1.1736643e+87)
(-2.0415743e+88 -9.8167386e+84 -1.1594817e+87)
(-2.0321404e+88 2.0923052e+84 -1.1516838e+87)
(-2.0262688e+88 6.9504107e+85 -1.1639549e+87)
(-1.9926924e+88 7.9831504e+85 -9.6657915e+86)
(-1.9942839e+88 8.0123901e+85 -9.7325027e+86)
(-2.0068952e+88 7.4049667e+85 -8.8860091e+86)
(-2.0035168e+88 4.828369e+85 -8.9822063e+86)
(-1.9945623e+88 8.0114293e+84 -1.0405844e+87)
(-1.9900717e+88 -1.426639e+84 -1.1020472e+87)
(-1.9837331e+88 4.5324884e+85 -1.1143562e+87)
(-1.9876316e+88 2.8638282e+85 -1.055365e+87)
(-2.4415286e+88 2.6831602e+86 -1.2872728e+87)
(-2.460224e+88 1.9482879e+86 -1.0093608e+87)
(-2.3664368e+88 4.0741175e+86 -1.9428915e+87)
(-2.5308092e+88 2.335015e+86 -1.2332058e+87)
(-2.1513571e+88 2.6328604e+86 -8.7454705e+86)
(-2.1604535e+88 1.9566062e+86 -7.1692638e+86)
(-2.1188496e+88 1.6122609e+86 -6.6838411e+86)
(-1.8959181e+88 1.4015073e+86 1.2160461e+87)
(-1.8958156e+88 -6.2451975e+85 1.2074098e+87)
(-1.9668706e+88 1.692758e+86 1.9088195e+87)
(-1.9660409e+88 -8.2168258e+85 1.8871836e+87)
(-1.8779621e+88 1.3617416e+86 2.3414651e+86)
(-1.8679309e+88 -5.7815689e+84 2.4736693e+86)
(-1.9421021e+88 1.2089486e+86 8.0814979e+86)
(-1.9317703e+88 -7.275864e+85 8.2938855e+86)
(-1.8701867e+88 1.2281147e+86 2.3503888e+86)
(-1.9405827e+88 1.3364113e+86 8.2770308e+86)
(-1.8718796e+88 1.5830545e+85 2.4088439e+86)
(-1.9387676e+88 -2.8993018e+85 8.2200611e+86)
(-1.8980188e+88 1.4668145e+86 1.1883548e+87)
(-1.9683711e+88 1.1398328e+86 1.8455566e+87)
(-1.8906726e+88 -8.6136258e+85 1.2250538e+87)
(-1.9576509e+88 -1.3654024e+86 1.8726471e+87)
(-1.8165756e+88 1.2016078e+86 -4.0177468e+86)
(-1.8838125e+88 1.4073773e+86 3.2362822e+84)
(-1.816487e+88 9.0258264e+85 -3.8874434e+86)
(-1.8834912e+88 5.746659e+85 9.7202886e+84)
(-1.7965092e+88 1.589338e+86 -5.7948251e+86)
(-1.7856578e+88 1.4432786e+86 -5.8843781e+86)
(-1.8386724e+88 1.5633544e+86 -4.2930896e+86)
(-1.827571e+88 1.1443737e+86 -4.3049925e+86)
(-1.7921549e+88 1.321874e+86 -6.1147441e+86)
(-1.8361743e+88 1.3078525e+86 -4.5880307e+86)
(-1.7935092e+88 1.3082677e+86 -5.9519691e+86)
(-1.8361689e+88 1.0586285e+86 -4.4780307e+86)
(-1.8186807e+88 1.5648309e+86 -3.7253105e+86)
(-1.882455e+88 1.6114116e+86 1.0453744e+85)
(-1.8094986e+88 1.0112826e+86 -3.6762737e+86)
(-1.8720044e+88 6.2752286e+85 1.5890318e+85)
(-1.8158491e+88 1.0382289e+86 -3.5725845e+86)
(-1.8175395e+88 6.7928704e+85 -3.427967e+86)
(-1.8873622e+88 1.2550715e+86 5.6111691e+85)
(-1.8864241e+88 3.573202e+85 5.9901192e+85)
(-1.8021661e+88 1.3872886e+86 -5.3521817e+86)
(-1.8485962e+88 1.259457e+86 -3.774708e+86)
(-1.7907528e+88 1.0387512e+86 -5.4372969e+86)
(-1.8365296e+88 6.4023757e+85 -3.7946995e+86)