# Probe 0 (0.65 0.078 0)
# Probe 1 (0.65 0.1 0)
# Probe 2 (0.05 0.06 0)
# Probe 3 (1.02 0.01 0)
#         Probe               0               1               2               3
#          Time
           0.25       104535.72       104535.72       105991.23       103988.53
            0.5       125663.31       125663.31        135675.2        119602.6
           0.75       112746.53       112746.53       113594.06        112213.2
              1       97387.947       97387.947       101847.97       94024.074
           1.25       139492.38       139492.38       135946.32       141268.47
            1.5       38269.514       38269.514        42783.27       34553.426
           1.75       719476.01       719476.01       707798.79        727509.9
              2       996.45638       996.45638       10283.907      -6384.9878
           2.25       497552.18       497552.18       483868.05       507907.75
            2.5      -224713.42      -224713.42      -213297.94      -234143.87
           2.75       573008.66       573008.66       563418.81       580825.57
              3      -314861.98      -314861.98      -304835.99      -323168.11
           3.25       787558.28       787558.28       782131.43       791663.32
            3.5      -539867.03      -539867.03      -532385.33       -545845.5
           3.75       1372642.8       1372642.8       1363993.2       1377627.5
              4      -1240262.1      -1240262.1      -1238204.1      -1241700.7
           4.25       3080295.6       3080295.6         3074522       3082870.6
            4.5      -2909092.9      -2909092.9      -2904491.6      -2912647.8
           4.75       7727105.7       7727105.7       7714480.4       7739031.3
              5      -7929321.1      -7929321.1      -7917183.3      -7943058.8
           5.25        20380618        20380618        20347016        20414854
            5.5       -19569213       -19569213       -19541666       -19597504
           5.75        41384713        41384713        41337572        41426001
              6       -39965417       -39965417       -39920614       -40018959
           6.25        81662576        81662576        81576994        81734535
            6.5       -79907883       -79907883       -79816921       -80004926
           6.75   1.4517014e+08   1.4517014e+08   1.4492387e+08   1.4535397e+08
              7  -1.3347479e+08  -1.3347479e+08  -1.3319945e+08  -1.3367918e+08
           7.25   1.8422087e+08   1.8422087e+08   1.8322936e+08   1.8502778e+08
            7.5  -1.7514576e+08  -1.7514576e+08  -1.7378223e+08  -1.7619644e+08
           7.75   2.1081129e+08   2.1081129e+08   2.0862209e+08   2.1246009e+08
              8  -2.0354476e+08  -2.0354476e+08  -2.0120449e+08   -2.053086e+08
           8.25   2.2856908e+08   2.2856908e+08   2.2566422e+08   2.3052898e+08
            8.5  -2.1976174e+08  -2.1976174e+08  -2.1738624e+08  -2.2137326e+08
           8.75   2.2883787e+08   2.2883787e+08   2.2689692e+08   2.2989229e+08
              9  -2.1575863e+08  -2.1575863e+08  -2.1452835e+08  -2.1631328e+08
           9.25   2.0629038e+08   2.0629038e+08   2.0556905e+08    2.060947e+08
            9.5  -2.0444655e+08  -2.0444655e+08  -2.0510952e+08  -2.0305798e+08
           9.75   1.8949568e+08   1.8949568e+08   1.9013945e+08   1.8768706e+08
             10  -1.9573568e+08  -1.9573568e+08  -1.9899839e+08  -1.9199685e+08
          10.25   1.9715097e+08   1.9715097e+08   2.0197293e+08    1.917457e+08
           10.5  -2.0937248e+08  -2.0937248e+08  -2.1790202e+08  -2.0189428e+08
          10.75   1.8676336e+08   1.8676336e+08   1.9489917e+08   1.7904511e+08
             11  -2.0647002e+08  -2.0647002e+08  -2.2076467e+08  -1.9576094e+08
          11.25   1.8292976e+08   1.8292976e+08   1.9683196e+08   1.7134961e+08
           11.5  -2.1344007e+08  -2.1344007e+08  -2.3569551e+08  -1.9740401e+08
          11.75   1.9547069e+08   1.9547069e+08   2.1839673e+08   1.7730806e+08
             12  -2.3214022e+08  -2.3214022e+08  -2.6717434e+08  -2.0819421e+08
          12.25   2.1687449e+08   2.1687449e+08   2.5122623e+08   1.9019614e+08
           12.5    -2.63933e+08    -2.63933e+08  -3.1505147e+08  -2.3045549e+08
          12.75   2.7189229e+08   2.7189229e+08   3.2317078e+08   2.3326822e+08
             13  -3.4460822e+08  -3.4460822e+08    -4.18083e+08  -2.9740542e+08
          13.25    4.172136e+08    4.172136e+08   5.0028483e+08   3.5648271e+08
           13.5  -4.6900786e+08  -4.6900786e+08  -5.7619186e+08  -4.0277733e+08
          13.75   4.3106829e+08   4.3106829e+08   5.3744872e+08   3.6241936e+08
             14  -5.3398477e+08  -5.3398477e+08  -6.8275568e+08  -4.5145528e+08
          14.25   4.2276421e+08   4.2276421e+08   5.5394931e+08   3.4705161e+08
           14.5  -5.4596918e+08  -5.4596918e+08  -7.2890542e+08  -4.5266807e+08
          14.75   5.4369567e+08   5.4369567e+08   7.6893229e+08   4.3726772e+08
             15   -7.539396e+08   -7.539396e+08  -1.0852311e+09  -6.1507032e+08
          15.25   6.3347452e+08   6.3347452e+08    9.881845e+08   4.9510892e+08
           15.5  -8.6167965e+08  -8.6167965e+08   -1.292973e+09  -6.9398847e+08
          15.75   6.5177598e+08   6.5177598e+08   1.0954221e+09   4.9511019e+08
             16  -8.7337959e+08  -8.7337959e+08  -1.3772871e+09   -6.931147e+08
          16.25    7.179267e+08    7.179267e+08   1.2477737e+09   5.3926344e+08
           16.5  -1.0127017e+09  -1.0127017e+09  -1.6100109e+09  -7.9913823e+08
          16.75   9.7829227e+08   9.7829227e+08   1.5580539e+09   7.5233603e+08
             17  -1.2982718e+09  -1.2982718e+09  -1.9556399e+09  -1.0389834e+09
          17.25   1.3319863e+09   1.3319863e+09   1.9889077e+09   1.0458979e+09
           17.5  -1.5572505e+09  -1.5572505e+09  -2.2788033e+09  -1.2508776e+09
          17.75    1.584433e+09    1.584433e+09   2.3455146e+09   1.2479371e+09
             18  -1.6775803e+09  -1.6775803e+09  -2.4257097e+09  -1.3449177e+09
          18.25   1.8118098e+09   1.8118098e+09   2.7113814e+09   1.4192603e+09
           18.5   -2.204083e+09   -2.204083e+09  -3.1849577e+09  -1.7660817e+09
          18.75    2.216381e+09    2.216381e+09   3.3080516e+09   1.7363994e+09
             19   -2.473024e+09   -2.473024e+09  -3.6417674e+09  -1.9636189e+09
          19.25   2.3454121e+09   2.3454121e+09   3.5448917e+09   1.8183148e+09
           19.5  -2.6167273e+09  -2.6167273e+09   -3.926495e+09  -2.0601916e+09
          19.75   2.2285174e+09   2.2285174e+09   3.4175399e+09    1.710088e+09
             20  -2.8475227e+09  -2.8475227e+09  -4.2502253e+09  -2.2487593e+09
          20.25   2.4144138e+09   2.4144138e+09   3.7292858e+09   1.8487959e+09
           20.5    -2.75808e+09    -2.75808e+09  -4.2348969e+09   -2.158789e+09
          20.75   2.5755526e+09   2.5755526e+09   4.0558544e+09   1.9578008e+09
             21  -3.1494101e+09  -3.1494101e+09  -4.7415242e+09  -2.4800665e+09
          21.25   3.1730404e+09   3.1730404e+09   5.0031753e+09   2.4267784e+09
           21.5  -3.7947461e+09  -3.7947461e+09  -5.8225787e+09  -2.9801031e+09
          21.75   4.4323861e+09   4.4323861e+09   6.8833827e+09   3.4458533e+09
             22  -4.8235716e+09  -4.8235716e+09  -7.2694552e+09    -3.82018e+09
          22.25   4.6749764e+09   4.6749764e+09   7.2392205e+09   3.6253759e+09
           22.5  -5.2171992e+09  -5.2171992e+09  -7.9482851e+09  -4.1023099e+09
          22.75   4.3926202e+09   4.3926202e+09   6.8862286e+09   3.3640223e+09
             23  -5.1514538e+09  -5.1514538e+09  -7.7855906e+09  -4.0495902e+09
          23.25   4.6587186e+09   4.6587186e+09   7.0734627e+09   3.5787933e+09
           23.5  -5.5123063e+09  -5.5123063e+09  -8.1465382e+09  -4.3409678e+09
          23.75   5.9134446e+09   5.9134446e+09    8.882462e+09   4.5798492e+09
             24  -6.7016268e+09  -6.7016268e+09  -1.0005913e+10  -5.2712117e+09
          24.25   6.2234079e+09   6.2234079e+09   9.6393851e+09   4.7674861e+09
           24.5  -7.5028246e+09  -7.5028246e+09  -1.1334117e+10  -5.8999942e+09
          24.75   7.9911423e+09   7.9911423e+09   1.2289259e+10   6.2091561e+09
             25   -8.096253e+09   -8.096253e+09  -1.2370081e+10  -6.3562483e+09
          25.25   7.0324948e+09   7.0324948e+09   1.1237849e+10    5.355254e+09
           25.5  -8.2300281e+09  -8.2300281e+09  -1.2620299e+10  -6.4339614e+09
          25.75   7.3423047e+09   7.3423047e+09   1.1440365e+10   5.6045727e+09
             26  -7.8598505e+09  -7.8598505e+09  -1.2184645e+10  -6.0866434e+09
          26.25   6.9132857e+09   6.9132857e+09   1.1396015e+10   5.1334097e+09
           26.5  -8.2843457e+09  -8.2843457e+09  -1.2950604e+10  -6.3965624e+09
          26.75   7.6745719e+09   7.6745719e+09   1.2399763e+10   5.7485006e+09
             27  -8.9568857e+09  -8.9568857e+09  -1.3967498e+10  -6.9275047e+09
          27.25   8.9120518e+09   8.9120518e+09   1.4100563e+10   6.7659049e+09
           27.5  -9.8582958e+09  -9.8582958e+09   -1.510453e+10  -7.7005289e+09
          27.75   8.4715955e+09   8.4715955e+09    1.326889e+10   6.4287938e+09
             28  -1.0443432e+10  -1.0443432e+10  -1.5767961e+10   -8.200907e+09
          28.25   1.0728104e+10   1.0728104e+10   1.6299529e+10   8.2907838e+09
           28.5  -1.2432489e+10  -1.2432489e+10  -1.8327699e+10  -9.8649867e+09
          28.75   1.3015052e+10   1.3015052e+10   1.9386678e+10   1.0151081e+10
             29  -1.5291503e+10  -1.5291503e+10  -2.2452593e+10  -1.2142799e+10
          29.25   1.5634932e+10   1.5634932e+10   2.3784595e+10   1.2145869e+10
           29.5  -1.7540322e+10  -1.7540322e+10  -2.6423749e+10  -1.3853257e+10
          29.75   1.6204594e+10   1.6204594e+10   2.4820958e+10   1.2528207e+10
             30  -1.7704123e+10  -1.7704123e+10  -2.7217047e+10  -1.3851997e+10
          30.25   1.6538773e+10   1.6538773e+10    2.611972e+10   1.2661927e+10
           30.5  -1.8476967e+10  -1.8476967e+10  -2.8509621e+10   -1.443932e+10
          30.75   1.7638767e+10   1.7638767e+10   2.7742528e+10    1.346422e+10
             31   -1.971351e+10   -1.971351e+10  -3.0184906e+10  -1.5383352e+10
          31.25   2.0283074e+10   2.0283074e+10    3.204451e+10   1.5504216e+10
           31.5  -2.3681872e+10  -2.3681872e+10  -3.6431386e+10  -1.8511424e+10
          31.75   2.0794217e+10   2.0794217e+10   3.3855168e+10   1.5752744e+10
             32  -2.4969251e+10  -2.4969251e+10  -3.9141812e+10  -1.9427494e+10
          32.25   2.0276954e+10   2.0276954e+10   3.2878348e+10   1.5277506e+10
           32.5  -2.3839184e+10  -2.3839184e+10   -3.750255e+10  -1.8524238e+10
          32.75   2.1785032e+10   2.1785032e+10   3.5073874e+10   1.6471398e+10
             33   -2.660954e+10   -2.660954e+10  -4.0758591e+10  -2.0881704e+10
          33.25   2.7312833e+10   2.7312833e+10   4.2119217e+10   2.1031177e+10
           33.5  -3.3187126e+10  -3.3187126e+10   -4.962694e+10  -2.6235761e+10
          33.75   3.1632977e+10   3.1632977e+10   4.8946085e+10   2.4296309e+10
             34  -3.5510156e+10  -3.5510156e+10  -5.3865336e+10  -2.7873979e+10
          34.25   3.3661477e+10   3.3661477e+10   5.2268889e+10   2.5804378e+10
           34.5  -3.9800063e+10  -3.9800063e+10  -6.0955926e+10    -3.12152e+10
          34.75   3.7068577e+10   3.7068577e+10   5.7350756e+10   2.8427541e+10
             35  -4.2827015e+10  -4.2827015e+10  -6.5506557e+10  -3.3545656e+10
          35.25   4.7032574e+10   4.7032574e+10   7.3016417e+10   3.6260164e+10
           35.5  -4.9282693e+10  -4.9282693e+10  -7.5673317e+10  -3.8529989e+10
          35.75   4.9629577e+10   4.9629577e+10    7.960207e+10   3.7986691e+10
             36   -6.141087e+10   -6.141087e+10  -9.4654351e+10  -4.8175262e+10
          36.25    6.973745e+10    6.973745e+10   1.0898307e+11   5.4285749e+10
           36.5  -7.2785769e+10  -7.2785769e+10  -1.1066226e+11  -5.7376456e+10
          36.75   5.7844226e+10   5.7844226e+10   9.2126779e+10   4.4214422e+10
             37  -6.5963888e+10  -6.5963888e+10  -1.0417617e+11  -5.1214014e+10
          37.25   4.8889297e+10   4.8889297e+10   8.0147827e+10   3.6473018e+10
           37.5  -6.1947657e+10  -6.1947657e+10  -9.8430443e+10  -4.7826779e+10
          37.75   6.3516401e+10   6.3516401e+10   1.0121698e+11   4.8054644e+10
             38  -6.9836011e+10  -6.9836011e+10  -1.0740853e+11  -5.4358455e+10
          38.25    7.839408e+10    7.839408e+10    1.235584e+11   6.0013854e+10
           38.5  -9.2018788e+10  -9.2018788e+10   -1.401676e+11  -7.2136728e+10
          38.75   9.0737775e+10   9.0737775e+10   1.4327789e+11   6.9602209e+10
             39  -1.1353477e+11  -1.1353477e+11  -1.7449369e+11   -8.933647e+10
          39.25   1.1802276e+11   1.1802276e+11   1.8418743e+11   9.1808323e+10
           39.5  -1.2881008e+11  -1.2881008e+11  -1.9653522e+11  -1.0184277e+11
          39.75   1.2509646e+11   1.2509646e+11   1.9160897e+11   9.7453448e+10
             40  -1.2921177e+11  -1.2921177e+11   -1.955556e+11   -1.014362e+11
          40.25   1.1245409e+11   1.1245409e+11   1.7764649e+11   8.5273637e+10
           40.5  -1.2626134e+11  -1.2626134e+11  -1.9852873e+11  -9.7205003e+10
          40.75   1.2522241e+11   1.2522241e+11   2.0182928e+11   9.4628738e+10
             41  -1.4529912e+11  -1.4529912e+11  -2.2551828e+11  -1.1278247e+11
          41.25   1.6253064e+11   1.6253064e+11   2.5224189e+11   1.2533497e+11
           41.5  -1.8501527e+11  -1.8501527e+11  -2.8341538e+11   -1.444992e+11
          41.75   1.5585526e+11   1.5585526e+11   2.4927721e+11   1.1851224e+11
             42  -1.8057054e+11  -1.8057054e+11  -2.7832673e+11  -1.4096329e+11
          42.25   1.4092068e+11   1.4092068e+11   2.3699756e+11   1.0501867e+11
           42.5  -1.6577517e+11  -1.6577517e+11  -2.6690741e+11  -1.2799799e+11
          42.75   1.6495066e+11   1.6495066e+11   2.6901401e+11   1.2463308e+11
             43  -2.0664664e+11  -2.0664664e+11  -3.2093295e+11  -1.6180872e+11
          43.25   2.0169348e+11   2.0169348e+11   3.1494611e+11   1.5457885e+11
           43.5  -2.3112099e+11  -2.3112099e+11  -3.4830181e+11  -1.8143714e+11
          43.75   2.4058486e+11   2.4058486e+11   3.6750161e+11   1.8549014e+11
             44  -2.5889285e+11  -2.5889285e+11  -3.9348878e+11  -2.0292856e+11
          44.25   2.2547079e+11   2.2547079e+11   3.5679294e+11   1.7180158e+11
           44.5  -2.4956918e+11  -2.4956918e+11  -3.8245635e+11  -1.9482624e+11
          44.75   2.2289962e+11   2.2289962e+11   3.5085559e+11   1.6891121e+11
             45  -2.7200091e+11  -2.7200091e+11  -4.1995948e+11  -2.1157308e+11
          45.25   2.8102881e+11   2.8102881e+11   4.3447828e+11    2.150105e+11
           45.5  -3.3857129e+11  -3.3857129e+11  -5.1125142e+11  -2.6541453e+11
          45.75   3.2637688e+11   3.2637688e+11    5.048602e+11    2.500393e+11
             46  -3.9267069e+11  -3.9267069e+11  -5.9448548e+11  -3.0799343e+11
          46.25   4.3045018e+11   4.3045018e+11   6.7161192e+11    3.331538e+11
           46.5  -5.0536946e+11  -5.0536946e+11  -7.6518991e+11  -3.9963729e+11
          46.75   5.1548655e+11   5.1548655e+11   8.0674546e+11   4.0008722e+11
             47  -5.9125578e+11  -5.9125578e+11  -9.1162198e+11  -4.6484521e+11
          47.25   5.6249558e+11   5.6249558e+11   8.9207987e+11   4.3348254e+11
           47.5   -6.337267e+11   -6.337267e+11  -9.7751692e+11  -4.9704872e+11
          47.75   5.6968283e+11   5.6968283e+11   9.0751423e+11   4.3615267e+11
             48  -6.4587546e+11  -6.4587546e+11   -9.988261e+11  -5.0447137e+11
          48.25   5.5274048e+11   5.5274048e+11   8.9759093e+11   4.1768571e+11
           48.5   -6.669504e+11   -6.669504e+11  -1.0318877e+12  -5.1859047e+11
          48.75   5.8324828e+11   5.8324828e+11   9.2651335e+11   4.3905974e+11
             49  -7.2671981e+11  -7.2671981e+11  -1.1210955e+12  -5.6538054e+11
          49.25    7.464858e+11    7.464858e+11   1.1497368e+12   5.7128005e+11
           49.5  -8.3917683e+11  -8.3917683e+11  -1.2669504e+12   -6.580082e+11
          49.75   9.1736007e+11   9.1736007e+11   1.3798345e+12   7.1144351e+11
             50  -1.0939901e+12  -1.0939901e+12  -1.6075167e+12  -8.6744767e+11
          50.25   1.1703825e+12   1.1703825e+12   1.7510063e+12   9.1730368e+11
           50.5  -1.2299103e+12  -1.2299103e+12  -1.8220217e+12  -9.7340848e+11
          50.75   1.1193911e+12   1.1193911e+12    1.743322e+12   8.6190297e+11
             51  -1.3435034e+12  -1.3435034e+12  -2.0612874e+12  -1.0518222e+12
          51.25   1.3165084e+12   1.3165084e+12   2.0949818e+12   1.0097062e+12
           51.5  -1.5091291e+12  -1.5091291e+12  -2.3468632e+12  -1.1789058e+12
          51.75    1.370842e+12    1.370842e+12   2.1836062e+12   1.0445313e+12
             52  -1.6339934e+12  -1.6339934e+12  -2.5130376e+12  -1.2745018e+12
          52.25   1.5145154e+12   1.5145154e+12   2.4310143e+12   1.1508278e+12
           52.5  -1.7219362e+12  -1.7219362e+12  -2.7079046e+12  -1.3362197e+12
          52.75   1.7983284e+12   1.7983284e+12   2.8626729e+12   1.3757379e+12
             53  -2.1333053e+12  -2.1333053e+12  -3.2652132e+12  -1.6775442e+12
          53.25   2.0176471e+12   2.0176471e+12   3.0974967e+12   1.5597386e+12
           53.5   -2.476941e+12   -2.476941e+12  -3.7118534e+12  -1.9550874e+12
          53.75   2.1756312e+12   2.1756312e+12   3.2888597e+12    1.681037e+12
             54  -2.3039786e+12  -2.3039786e+12  -3.4497888e+12  -1.8070284e+12
          54.25   2.2480212e+12   2.2480212e+12    3.481205e+12   1.7191422e+12
           54.5  -2.6074617e+12  -2.6074617e+12  -3.9746196e+12  -2.0395749e+12
          54.75   2.8781398e+12   2.8781398e+12    4.457516e+12   2.2220901e+12
             55  -3.2756479e+12  -3.2756479e+12  -4.9191996e+12  -2.5774377e+12
          55.25   3.1475102e+12   3.1475102e+12   4.9232029e+12   2.4187641e+12
           55.5  -3.7243568e+12  -3.7243568e+12  -5.7502505e+12  -2.9114846e+12
          55.75   3.1701076e+12   3.1701076e+12   5.0984837e+12   2.4039244e+12
             56  -3.5223631e+12  -3.5223631e+12  -5.5990961e+12  -2.7231943e+12
          56.25   3.5045772e+12   3.5045772e+12   5.5917279e+12   2.6754352e+12
           56.5   -3.923865e+12   -3.923865e+12  -6.1844901e+12  -3.0555546e+12
          56.75   4.2016193e+12   4.2016193e+12   6.5339344e+12   3.2505164e+12
             57  -4.8435248e+12  -4.8435248e+12  -7.3353806e+12  -3.8133416e+12
          57.25   4.7882933e+12   4.7882933e+12   7.5231535e+12   3.6956169e+12
           57.5  -5.5708711e+12  -5.5708711e+12  -8.5151792e+12  -4.3808797e+12
          57.75   5.5955249e+12   5.5955249e+12   8.8624151e+12   4.3095081e+12
             58  -6.1308253e+12  -6.1308253e+12  -9.5765173e+12  -4.7900776e+12
          58.25   5.3017982e+12   5.3017982e+12   8.6796041e+12   4.0256897e+12
           58.5  -6.1764635e+12  -6.1764635e+12  -9.7683024e+12  -4.8094737e+12
          58.75   5.2090913e+12   5.2090913e+12   8.4489617e+12   3.9325927e+12
             59  -6.2705976e+12  -6.2705976e+12  -9.8706447e+12  -4.8640569e+12
          59.25   5.3529891e+12   5.3529891e+12   8.7649318e+12   4.0057244e+12
           59.5  -6.5020714e+12  -6.5020714e+12  -1.0299315e+13  -5.0332433e+12
          59.75   6.5935464e+12   6.5935464e+12   1.0694561e+13   4.9956804e+12
             60  -8.2440609e+12  -8.2440609e+12  -1.2749149e+13  -6.4638214e+12
          60.25   9.0841371e+12   9.0841371e+12   1.4043135e+13   7.0576448e+12
           60.5  -9.7652675e+12  -9.7652675e+12  -1.4863732e+13  -7.7109027e+12
          60.75   7.7176227e+12   7.7176227e+12   1.2233494e+13   5.8799173e+12
             61  -9.5853117e+12  -9.5853117e+12  -1.4848282e+13  -7.5028609e+12
          61.25   8.1274881e+12   8.1274881e+12   1.3361506e+13   6.1139809e+12
           61.5  -9.5930166e+12  -9.5930166e+12  -1.5419173e+13  -7.4102263e+12
          61.75   9.7721634e+12   9.7721634e+12   1.5928149e+13   7.3766452e+12
             62  -1.1506192e+13  -1.1506192e+13  -1.7929002e+13  -8.9529676e+12
          62.25   1.2514221e+13   1.2514221e+13   1.9331893e+13   9.6227434e+12
           62.5   -1.467902e+13   -1.467902e+13  -2.2595894e+13  -1.1485919e+13
          62.75   1.5303456e+13   1.5303456e+13   2.4059159e+13   1.1786444e+13
             63  -1.7338075e+13  -1.7338075e+13  -2.6534937e+13  -1.3622575e+13
          63.25   1.4336592e+13   1.4336592e+13   2.3598493e+13    1.087608e+13
           63.5  -1.7079555e+13  -1.7079555e+13  -2.6990238e+13  -1.3315011e+13
          63.75   1.3828538e+13   1.3828538e+13   2.2867879e+13   1.0396916e+13
             64  -1.6991058e+13  -1.6991058e+13   -2.692265e+13  -1.3228189e+13
          64.25   1.7549702e+13   1.7549702e+13   2.7883007e+13    1.340685e+13
           64.5   -2.117424e+13   -2.117424e+13  -3.2513028e+13  -1.6591647e+13
          64.75   2.3217145e+13   2.3217145e+13   3.6341594e+13    1.788456e+13
             65  -2.4976138e+13  -2.4976138e+13  -3.8065504e+13  -1.9589572e+13
          65.25   2.3656508e+13   2.3656508e+13   3.7507442e+13   1.8098474e+13
           65.5  -2.8045835e+13  -2.8045835e+13  -4.3442308e+13  -2.1950606e+13
          65.75   2.6967442e+13   2.6967442e+13   4.2492087e+13   2.0763385e+13
             66  -3.1215805e+13  -3.1215805e+13  -4.7472602e+13  -2.4621703e+13
          66.25   3.1720836e+13   3.1720836e+13   4.9001036e+13   2.4581901e+13
           66.5  -3.2354467e+13  -3.2354467e+13  -5.0302668e+13  -2.5239009e+13
          66.75   3.0296497e+13   3.0296497e+13   4.8656898e+13   2.2997184e+13
             67  -3.5440692e+13  -3.5440692e+13  -5.5503194e+13   -2.748648e+13
          67.25   3.7579346e+13   3.7579346e+13   5.8514564e+13   2.8915319e+13
           67.5       -4.33e+13       -4.33e+13  -6.5920034e+13  -3.3966623e+13
          67.75   3.8773089e+13   3.8773089e+13   6.0045755e+13   2.9840411e+13
             68  -4.7373898e+13  -4.7373898e+13  -7.2497578e+13  -3.7119394e+13
          68.25    4.228416e+13    4.228416e+13    6.691112e+13   3.2249038e+13
           68.5  -4.1891229e+13  -4.1891229e+13  -6.6404658e+13  -3.2266686e+13
          68.75   3.7559655e+13   3.7559655e+13   6.3073652e+13   2.7948157e+13
             69  -4.5126273e+13  -4.5126273e+13  -7.2673703e+13  -3.4781344e+13
          69.25   4.5814792e+13   4.5814792e+13   7.6956419e+13   3.4505434e+13
           69.5  -5.3474132e+13  -5.3474132e+13  -8.6066452e+13  -4.1300293e+13
          69.75   5.3083606e+13   5.3083606e+13   8.6929691e+13   4.0144468e+13
             70  -6.3461467e+13  -6.3461467e+13  -1.0015721e+14  -4.9211862e+13
          70.25   5.5093704e+13   5.5093704e+13   8.9309413e+13   4.1564863e+13
           70.5   -6.600075e+13   -6.600075e+13  -1.0550427e+14  -5.1090752e+13
          70.75   6.1016095e+13   6.1016095e+13   9.7927878e+13   4.6346648e+13
             71  -7.1947038e+13  -7.1947038e+13  -1.1077357e+14  -5.6524433e+13
          71.25   7.3389045e+13   7.3389045e+13   1.1633739e+14   5.6428327e+13
           71.5  -8.9512825e+13  -8.9512825e+13  -1.3849073e+14  -7.0456816e+13
          71.75    1.036711e+14    1.036711e+14   1.6350098e+14   8.0387886e+13
             72  -1.1852571e+14  -1.1852571e+14  -1.8102603e+14  -9.3490123e+13
          72.25   9.6545074e+13   9.6545074e+13   1.5522478e+14   7.3722006e+13
           72.5  -1.0828524e+14  -1.0828524e+14  -1.7093087e+14  -8.4245791e+13
          72.75   7.9925055e+13   7.9925055e+13   1.3697473e+14   5.8943675e+13
             73  -9.9538232e+13  -9.9538232e+13  -1.6304205e+14  -7.6462954e+13
          73.25   1.0153509e+14   1.0153509e+14   1.6765316e+14   7.6492397e+13
           73.5   -1.194497e+14   -1.194497e+14  -1.8636209e+14  -9.3162857e+13
          73.75   1.1652488e+14   1.1652488e+14   1.8124389e+14   8.9003707e+13
             74   -1.480584e+14   -1.480584e+14  -2.2192398e+14  -1.1650595e+14
          74.25   1.4689931e+14   1.4689931e+14   2.2118642e+14   1.1375129e+14
           74.5  -1.5828312e+14  -1.5828312e+14  -2.3876446e+14  -1.2440739e+14
          74.75   1.4666911e+14   1.4666911e+14    2.310808e+14   1.1206088e+14
             75  -1.7228303e+14  -1.7228303e+14  -2.6571389e+14  -1.3495441e+14
          75.25   1.8570413e+14   1.8570413e+14   2.9609592e+14   1.4265561e+14
           75.5  -1.9356178e+14  -1.9356178e+14  -3.0042923e+14  -1.5132346e+14
          75.75   2.0268598e+14   2.0268598e+14   3.2107521e+14   1.5561955e+14
             76  -2.3702648e+14  -2.3702648e+14   -3.651577e+14   -1.853402e+14
          76.25   2.1851096e+14   2.1851096e+14   3.4711703e+14   1.6676285e+14
           76.5  -2.5045359e+14  -2.5045359e+14  -3.9233841e+14  -1.9436949e+14
          76.75   2.5010111e+14   2.5010111e+14   4.0076535e+14   1.9077097e+14
             77  -2.8592145e+14  -2.8592145e+14  -4.4381488e+14  -2.2315953e+14
          77.25   2.7343021e+14   2.7343021e+14     4.25139e+14   2.1076296e+14
           77.5  -3.1957831e+14  -3.1957831e+14  -4.8162832e+14  -2.5180829e+14
          77.75    2.806194e+14    2.806194e+14   4.3797277e+14   2.1508194e+14
             78  -3.0694008e+14  -3.0694008e+14  -4.7267109e+14  -2.3942789e+14
          78.25   2.6140804e+14   2.6140804e+14   4.1683738e+14   1.9744632e+14
           78.5  -3.0796934e+14  -3.0796934e+14  -4.7617312e+14  -2.3927716e+14
          78.75   2.7615395e+14   2.7615395e+14   4.3051034e+14   2.0869299e+14
             79  -3.2123133e+14  -3.2123133e+14  -4.9171836e+14  -2.4993715e+14
          79.25   3.2020344e+14   3.2020344e+14    5.101901e+14   2.4303399e+14
           79.5  -3.4489604e+14  -3.4489604e+14  -5.4843257e+14  -2.6616049e+14
          79.75   3.6535261e+14   3.6535261e+14    6.000387e+14   2.7670769e+14
             80  -4.2653575e+14  -4.2653575e+14   -6.723293e+14   -3.326545e+14
          80.25   4.1728326e+14   4.1728326e+14   6.6514922e+14   3.1992271e+14
           80.5  -4.9732319e+14  -4.9732319e+14  -7.7212783e+14  -3.9017938e+14
          80.75   3.9592603e+14   3.9592603e+14   6.4178119e+14   2.9962177e+14
             81  -4.7739494e+14  -4.7739494e+14  -7.4720752e+14  -3.7143752e+14
          81.25   4.9616301e+14   4.9616301e+14   7.8679869e+14   3.8065571e+14
           81.5  -6.2697818e+14  -6.2697818e+14  -9.4322217e+14  -4.9536265e+14
          81.75   6.0431556e+14   6.0431556e+14   9.4036651e+14   4.6600575e+14
             82  -7.1961113e+14  -7.1961113e+14  -1.0967506e+15  -5.6619255e+14
          82.25   6.0248882e+14   6.0248882e+14   9.6285476e+14   4.5740867e+14
           82.5  -7.2012291e+14  -7.2012291e+14  -1.1178651e+15  -5.6240347e+14
          82.75   6.2971642e+14   6.2971642e+14   1.0072513e+15   4.7609534e+14
             83  -7.9728651e+14  -7.9728651e+14  -1.2334145e+15  -6.2308683e+14
          83.25   7.9458195e+14   7.9458195e+14   1.2563897e+15   6.0620225e+14
           83.5  -1.0090703e+15  -1.0090703e+15  -1.5436492e+15  -7.9321521e+14
          83.75    1.063736e+15    1.063736e+15   1.6685159e+15    8.209202e+14
             84  -1.2295789e+15  -1.2295789e+15  -1.8630971e+15  -9.7143831e+14
          84.25   1.3274068e+15   1.3274068e+15   2.0450646e+15   1.0331435e+15
           84.5  -1.4422508e+15  -1.4422508e+15  -2.1822593e+15  -1.1395235e+15
          84.75   1.4080651e+15   1.4080651e+15   2.1436742e+15   1.0956829e+15
             85  -1.5585615e+15  -1.5585615e+15  -2.3288016e+15  -1.2311084e+15
          85.25   1.6131709e+15   1.6131709e+15   2.4582778e+15   1.2538086e+15
           85.5   -1.807924e+15   -1.807924e+15  -2.7271065e+15  -1.4205559e+15
          85.75   1.8298099e+15   1.8298099e+15   2.7960348e+15    1.417068e+15
             86  -1.8481005e+15  -1.8481005e+15  -2.8127807e+15  -1.4400448e+15
          86.25   1.8336079e+15   1.8336079e+15    2.900437e+15   1.3999433e+15
           86.5  -2.0910991e+15  -2.0910991e+15  -3.2604063e+15  -1.6206563e+15
          86.75   2.0098936e+15   2.0098936e+15   3.2121318e+15   1.5359999e+15
             87  -2.1827105e+15  -2.1827105e+15  -3.4397182e+15  -1.6909581e+15
          87.25   1.7375914e+15   1.7375914e+15   2.8669645e+15   1.3021481e+15
           87.5  -2.0643674e+15  -2.0643674e+15  -3.2827383e+15  -1.5908743e+15
          87.75   1.8949839e+15   1.8949839e+15    3.095809e+15   1.4212792e+15
             88  -2.3472998e+15  -2.3472998e+15  -3.6626166e+15  -1.8219155e+15
          88.25   2.2509771e+15   2.2509771e+15   3.6645742e+15   1.6986504e+15
           88.5  -2.6845907e+15  -2.6845907e+15  -4.2726964e+15  -2.0812673e+15
          88.75   2.4571176e+15   2.4571176e+15   4.0928571e+15    1.844944e+15
             89  -2.8424807e+15  -2.8424807e+15  -4.5445427e+15  -2.2034839e+15
          89.25   2.8652449e+15   2.8652449e+15   4.5925979e+15   2.1934356e+15
           89.5  -3.2623759e+15  -3.2623759e+15  -5.0674849e+15  -2.5573333e+15
          89.75   3.1789429e+15   3.1789429e+15   5.0448433e+15   2.4423158e+15
             90  -3.3437762e+15  -3.3437762e+15  -5.2572257e+15  -2.6068979e+15
          90.25   3.4715514e+15   3.4715514e+15   5.4556082e+15   2.6680706e+15
           90.5  -4.0462384e+15  -4.0462384e+15  -6.1903939e+15  -3.1755456e+15
          90.75   3.8925604e+15   3.8925604e+15   6.1128793e+15   2.9944549e+15
             91  -4.3206715e+15  -4.3206715e+15  -6.6700593e+15  -3.3830483e+15
          91.25   3.8995126e+15   3.8995126e+15   6.1504857e+15   2.9773798e+15
           91.5  -4.3885625e+15  -4.3885625e+15   -6.867211e+15  -3.4083144e+15
          91.75   4.1140696e+15   4.1140696e+15   6.5704549e+15   3.1233428e+15
             92  -4.7049014e+15  -4.7049014e+15  -7.3969367e+15  -3.6459113e+15
          92.25   4.5520292e+15   4.5520292e+15    7.454076e+15   3.4421909e+15
           92.5  -4.8551378e+15  -4.8551378e+15  -7.8927815e+15  -3.7314001e+15
          92.75    4.683908e+15    4.683908e+15   7.9379115e+15   3.5069133e+15
             93  -5.7791355e+15  -5.7791355e+15  -9.3967227e+15   -4.464926e+15