/*--------------------------------*- C++ -*----------------------------------*\
  =========                 |
  \\      /  F ield         | OpenFOAM: The Open Source CFD Toolbox
   \\    /   O peration     | Website:  https://openfoam.org
    \\  /    A nd           | Version:  7
     \\/     M anipulation  |
\*---------------------------------------------------------------------------*/
FoamFile
{
    version     2.0;
    format      ascii;
    class       volScalarField;
    location    "7000";
    object      k;
}
// * * * * * * * * * * * * * * * * * * * * * * * * * * * * * * * * * * * * * //

dimensions      [0 2 -2 0 0 0 0];

internalField   nonuniform List<scalar> 
33730
(
1.5203997
1.5230859
1.5173849
1.5186831
1.5207873
1.5190083
1.5221056
1.5209437
1.5230517
1.5199339
1.5201166
1.5241916
1.5167818
1.5166713
1.5168917
1.5167958
1.5192921
1.5179471
1.5187867
1.5176904
1.5189321
1.5182957
1.5177671
1.5192307
1.5210332
1.5189086
1.5213276
1.5226803
1.5227308
1.5221344
1.5243221
1.5199818
1.5193196
1.5246043
1.5243264
1.5242649
1.524575
1.5200932
1.5191767
1.5185553
1.5183763
1.5188456
1.5184732
1.522163
1.5222711
1.5163117
1.5167164
1.5170159
1.5167449
1.5179954
1.5164998
1.5167558
1.5165798
1.5162431
1.5182484
1.516444
1.5168708
1.5161483
1.5164421
1.5166328
1.5164266
1.5161899
1.5168062
1.5215639
1.5189449
1.519293
1.5173895
1.5176916
1.5179896
1.5181424
1.5172376
1.5178149
1.5172485
1.5178317
1.5180121
1.5201385
1.5184974
1.517519
1.5181972
1.5172963
1.517265
1.5179091
1.5178859
1.5212336
1.5203928
1.52139
1.520527
1.5207427
1.5216163
1.5215685
1.521529
1.5223197
1.521743
1.5223555
1.5217994
1.5223383
1.5219197
1.5252593
1.5250122
1.5251751
1.5254594
1.5222588
1.5185724
1.5184025
1.5181589
1.5179734
1.5182082
1.5178837
1.5181112
1.5184184
1.5193616
1.5192804
1.5180583
1.5184204
1.5188164
1.5185058
1.5180221
1.5178163
1.5179935
1.5181922
1.5193581
1.5192754
1.5193343
1.5193001
1.5199679
1.5193397
1.5193866
1.519305
1.5179854
1.5177985
1.5176321
1.517648
1.5183235
1.5209346
1.5179721
1.5176921
1.5177152
1.5211294
1.5212626
1.5213312
1.5219696
1.5169518
1.5168124
1.5162501
1.5166131
1.5169601
1.5166734
1.5178588
1.5181722
1.5179756
1.5175888
1.5164262
1.516685
1.5164938
1.5161884
1.5177096
1.5174452
1.5181721
1.5179434
1.5163183
1.5164394
1.5164656
1.5162529
1.5165277
1.5162366
1.5165874
1.5170488
1.5161278
1.5161374
1.5160921
1.5161058
1.5161074
1.5160892
1.5164323
1.5164081
1.5165257
1.5167175
1.5167214
1.5163963
1.5161192
1.5161576
1.5164494
1.5164142
1.5161962
1.5161736
1.5161596
1.5161261
1.5163391
1.5167224
1.5165817
1.5169784
1.5215692
1.5213289
1.5218178
1.5216756
1.5189047
1.5190184
1.5186146
1.518171
1.5188861
1.5179998
1.5193062
1.5184529
1.51709
1.5174887
1.5171371
1.5175227
1.5173239
1.5176236
1.5178404
1.5177134
1.5169712
1.5169716
1.5173421
1.5173495
1.5169754
1.5173554
1.5169922
1.5173639
1.5194989
1.5178661
1.5174734
1.518193
1.5179677
1.5197428
1.5204265
1.5202925
1.5172057
1.5176594
1.5171356
1.517615
1.5170131
1.5169835
1.5174025
1.517416
1.5169775
1.5169854
1.5173858
1.5173836
1.5199044
1.5198562
1.5206174
1.5206025
1.5200169
1.5199802
1.520745
1.5207293
1.521334
1.5208347
1.5201199
1.5204224
1.5209507
1.5216353
1.5214561
1.5216047
1.5215139
1.5216872
1.5207881
1.5206577
1.5208679
1.520974
1.5219609
1.5213005
1.5213537
1.5210346
1.5211084
1.5219893
1.5216648
1.5211529
1.5210446
1.5210983
1.5209859
1.5220386
1.5211672
1.5206988
1.5209103
1.5209991
1.5177939
1.5175939
1.5178177
1.5179887
1.5174454
1.517431
1.5176516
1.5176706
1.517724
1.5175214
1.5176228
1.5178044
1.5174601
1.5173817
1.517368
1.5174765
1.5178519
1.5179097
1.5175368
1.5176133
1.5182032
1.5173628
1.5174144
1.5174027
1.5173477
1.5179364
1.5173588
1.517375
1.5174733
1.5174619
1.5175677
1.5179032
1.5179968
1.5176883
1.5179357
1.5176701
1.5178634
1.5180205
1.5175344
1.5174354
1.5175206
1.5174181
1.5176443
1.5179954
1.5180923
1.517776
1.5177428
1.5181038
1.5182998
1.5179941
1.5177333
1.5175064
1.5174857
1.517719
1.5174069
1.5173275
1.5173167
1.5174225
1.51737
1.5173578
1.517315
1.5173248
1.5174513
1.5175045
1.5176464
1.5176867
1.5176636
1.5174635
1.5175599
1.5177443
1.5188288
1.5188933
1.5192025
1.5192322
1.518833
1.5188677
1.5191951
1.5192052
1.518845
1.5188796
1.5191856
1.5192025
1.5189057
1.519202
1.51893
1.5193617
1.5192165
1.5194039
1.5196153
1.519402
1.5193146
1.5195788
1.5189415
1.5190101
1.5192811
1.5188867
1.5189667
1.5192469
1.51928
1.5188597
1.518915
1.5192304
1.519246
1.517774
1.5176152
1.5173891
1.5174271
1.5172469
1.5172535
1.5172593
1.5172693
1.5181062
1.51784
1.5201021
1.5202679
1.517545
1.517495
1.5172819
1.5172853
1.5173146
1.5172989
1.5204324
1.5204537
1.520573
1.5205512
1.5206615
1.5208166
1.5214634
1.5215051
1.5215541
1.5182724
1.5189457
1.5168541
1.5167334
1.5162086
1.5161461
1.5161704
1.5166001
1.5169019
1.5166151
1.5164672
1.5167032
1.5178002
1.5181177
1.5178979
1.5175406
1.5163717
1.5164136
1.516273
1.516654
1.5164874
1.5161497
1.5161125
1.5161038
1.5176385
1.5177377
1.5175929
1.5177082
1.517507
1.5174188
1.5174514
1.5173116
1.5182478
1.5175856
1.517532
1.5181831
1.5172692
1.5181123
1.5174273
1.5179147
1.5164401
1.5162288
1.5166348
1.5163931
1.5163981
1.5165337
1.5162284
1.516184
1.5161999
1.5162238
1.516282
1.5162141
1.5165982
1.5165137
1.5167816
1.5172248
1.5164683
1.5168206
1.5160835
1.5160943
1.5160992
1.5161095
1.5160897
1.516093
1.5160819
1.5160843
1.5160862
1.5160898
1.5161501
1.5161321
1.5164246
1.5164492
1.5161279
1.5164239
1.5164274
1.5161265
1.5167046
1.5163705
1.5161126
1.5161201
1.5161145
1.5161277
1.5161449
1.516157
1.5161478
1.5161665
1.5161838
1.5164579
1.5162056
1.516479
1.5161454
1.5164331
1.5161661
1.5164481
1.5161499
1.516118
1.5163137
1.5163501
1.5162789
1.5163376
1.5166106
1.5167946
1.51655
1.5168441
1.51629
1.5165478
1.5163637
1.5166152
1.5165507
1.5169018
1.5167868
1.5171917
1.5214883
1.5214175
1.5219872
1.5210091
1.5213162
1.5218801
1.5213734
1.5221043
1.5219674
1.5220147
1.5214691
1.5218964
1.5214282
1.5187768
1.5189439
1.5184873
1.5180786
1.5185412
1.5188981
1.5189577
1.5183313
1.5180084
1.5178966
1.5179503
1.5178094
1.5189943
1.5194232
1.5182044
1.5186941
1.5177329
1.5184539
1.5178358
1.5183731
1.5167723
1.5167537
1.517247
1.5172629
1.5172936
1.5167962
1.5168302
1.5173048
1.5170293
1.5169431
1.5174777
1.5175077
1.51756
1.5172786
1.5176892
1.5177536
1.5166637
1.516666
1.5171206
1.5171225
1.5166577
1.5166656
1.5171231
1.5171263
1.5166613
1.5166629
1.5171285
1.517133
1.5166737
1.5166962
1.5171407
1.5171468
1.519177
1.518966
1.5196527
1.5197527
1.517312
1.5176154
1.5180941
1.5179472
1.5170571
1.516951
1.5177026
1.5176662
1.5193657
1.5193235
1.5199271
1.5199397
1.5167688
1.5168201
1.5174106
1.517381
1.5167298
1.516739
1.5173343
1.5173291
1.516657
1.5166812
1.5171845
1.5171719
1.5166386
1.5166367
1.5171543
1.5171551
1.5166423
1.5171416
1.5171449
1.5166395
1.5166498
1.5166676
1.5171459
1.5171488
1.5195009
1.5194684
1.5201041
1.5201064
1.5194342
1.5194172
1.5200601
1.5200714
1.5196032
1.5195815
1.5202138
1.5202148
1.5201879
1.5195577
1.5195388
1.520178
1.5213603
1.5211518
1.5213016
1.5213734
1.5197152
1.5196622
1.5203182
1.5202921
1.5206138
1.5202407
1.519904
1.5204837
1.5214302
1.5214473
1.5214324
1.5214236
1.5215113
1.5214837
1.5214983
1.5214768
1.5198853
1.5201035
1.5201607
1.5199752
1.5201628
1.5199352
1.5201768
1.5199775
1.5207585
1.5203206
1.5202968
1.5203423
1.5203228
1.5209331
1.5203283
1.5202451
1.5202698
1.5203108
1.5206228
1.5208021
1.5203856
1.5204118
1.5205841
1.5206001
1.5204969
1.5206733
1.5214707
1.5206893
1.5208276
1.5203491
1.5203766
1.5204582
1.5204378
1.5213135
1.5204541
1.5205437
1.5206289
1.5206979
1.5213573
1.5215049
1.521353
1.5212738
1.5212386
1.5213188
1.5217056
1.5206677
1.5204527
1.5206108
1.5205199
1.5205249
1.5206549
1.5206276
1.5204968
1.5210906
1.5204426
1.5203559
1.5203836
1.5204212
1.5204346
1.5204566
1.5204361
1.5204103
1.5210502
1.5209565
1.5209146
1.5215551
1.521001
1.5209755
1.5202743
1.5202973
1.5204806
1.520467
1.5199971
1.5200948
1.5198919
1.5201668
1.5203431
1.5202397
1.5202632
1.5203266
1.5203009
1.5199316
1.5201188
1.5201542
1.5174333
1.5176262
1.5175105
1.517673
1.5172123
1.5172877
1.5172524
1.5173242
1.5172745
1.5174038
1.5173132
1.5174395
1.517502
1.5176238
1.5176785
1.5177684
1.5170918
1.517101
1.5171619
1.5171713
1.5171473
1.5170769
1.5170866
1.517157
1.5171357
1.5171435
1.5172597
1.5172687
1.5171494
1.5171587
1.5172735
1.5172836
1.5173195
1.5175274
1.517381
1.5175664
1.517109
1.5171484
1.5171665
1.5172045
1.5171455
1.5172292
1.5171856
1.5172675
1.5173635
1.5175663
1.5174454
1.517622
1.5170141
1.5170926
1.5170245
1.5171042
1.5169951
1.5170037
1.5170494
1.5170587
1.5169805
1.5170339
1.5169913
1.5170461
1.5170295
1.5170384
1.5171081
1.5171176
1.5176719
1.5174193
1.5178541
1.5174376
1.5177008
1.5176359
1.5173549
1.5176613
1.5174057
1.5172008
1.51716
1.5175744
1.5171858
1.5172301
1.5171431
1.5170975
1.5171797
1.5171394
1.5177756
1.5174779
1.5170455
1.5170428
1.5173955
1.51707
1.517074
1.5169913
1.5170204
1.5169863
1.5170185
1.5169778
1.5170085
1.5169757
1.5170088
1.5170343
1.517033
1.5173845
1.5170603
1.5170634
1.5173034
1.5173193
1.5169679
1.5169674
1.5170037
1.5170055
1.5169816
1.5170171
1.5169771
1.5170151
1.5169872
1.5170515
1.5169821
1.5170494
1.5169716
1.5170368
1.5169725
1.5170398
1.5171387
1.5171812
1.5170931
1.5171407
1.5176447
1.5176832
1.5173609
1.5174247
1.5176787
1.5177399
1.5173908
1.5174814
1.5171505
1.517226
1.5171035
1.5171847
1.5177726
1.517731
1.5174597
1.5175079
1.5173199
1.5173468
1.5173343
1.5173117
1.5172836
1.5173495
1.5172928
1.5173609
1.5175989
1.51741
1.5174852
1.5176622
1.5170642
1.5170562
1.5171476
1.5171423
1.5170267
1.5170209
1.5170844
1.5170805
1.5170435
1.5171272
1.5170456
1.5171313
1.5170112
1.5170095
1.5170666
1.5170701
1.5172011
1.5172679
1.5171527
1.5172251
1.517742
1.5177999
1.5174536
1.5175412
1.5178085
1.5178823
1.517519
1.5176286
1.5172489
1.5173471
1.5171984
1.5173037
1.5173329
1.5172819
1.5174204
1.5173771
1.5178961
1.5176115
1.5179636
1.5177183
1.5179828
1.5177057
1.5180854
1.5178533
1.5174115
1.5173602
1.517555
1.5175137
1.5171974
1.5173261
1.5171841
1.5173165
1.5171324
1.5172083
1.5171225
1.5171999
1.5171087
1.5171113
1.5171832
1.5171871
1.5171687
1.5172984
1.5171713
1.517303
1.5169449
1.517005
1.5169545
1.5170173
1.5169531
1.5169602
1.5169868
1.516995
1.5169429
1.5169745
1.5169507
1.516985
1.5169579
1.5169659
1.5170197
1.5170287
1.5169623
1.516991
1.5169682
1.516998
1.5169557
1.5169812
1.5169602
1.5169895
1.5170093
1.5170137
1.5170396
1.5170403
1.517015
1.5170207
1.5170468
1.5170422
1.5171224
1.51715
1.5171744
1.5171487
1.5170683
1.5171004
1.5170991
1.5171325
1.5173132
1.5174916
1.5175136
1.5173372
1.5172605
1.5172951
1.5174634
1.5174846
1.5172594
1.5173022
1.5174694
1.5174945
1.5170619
1.5170991
1.5170968
1.5171343
1.5170693
1.5171343
1.5171068
1.5171718
1.5172751
1.5173412
1.5174857
1.5175308
1.5187618
1.5185562
1.5185889
1.5187405
1.5185728
1.5186202
1.518797
1.5187649
1.5191947
1.5192043
1.5191309
1.5191453
1.5191465
1.5191647
1.5192124
1.5192243
1.5186984
1.518498
1.5185413
1.5186602
1.5185234
1.5185706
1.5187374
1.5187005
1.5191605
1.519081
1.5191047
1.5191387
1.519107
1.5191275
1.5191697
1.5191853
1.5185829
1.5184007
1.518466
1.5185066
1.5184489
1.518513
1.5186548
1.5185902
1.5190797
1.5189954
1.5190361
1.5190347
1.5190408
1.5190756
1.5190931
1.5191264
1.5183403
1.5183835
1.5184167
1.5184926
1.5189876
1.5190157
1.5189333
1.51895
1.518362
1.5189752
1.5189436
1.5192164
1.5192308
1.518924
1.5191293
1.5191344
1.5191901
1.5192012
1.5194138
1.5193854
1.5194222
1.5194487
1.5191087
1.5189853
1.5189704
1.5192318
1.5192311
1.519399
1.5193827
1.5194163
1.5194324
1.5188
1.5188359
1.5188233
1.5189309
1.5187305
1.5187683
1.5189161
1.5187578
1.5188094
1.5189646
1.5189377
1.5192952
1.5192309
1.5192442
1.5192895
1.5188721
1.5186614
1.5186953
1.5188577
1.5186849
1.5187377
1.518908
1.5188786
1.5192624
1.5192662
1.5191975
1.5192087
1.51921
1.5192276
1.519273
1.5192817
1.5188197
1.5186064
1.5186407
1.5188012
1.5186267
1.5186718
1.5188511
1.5188245
1.5192402
1.5191663
1.5191797
1.5192321
1.5191807
1.5191951
1.5192476
1.5192545
1.517655
1.5177315
1.5174351
1.5174684
1.5172059
1.5172221
1.5172516
1.5172652
1.5170819
1.5170825
1.5170871
1.5170831
1.5170896
1.5170932
1.5171082
1.5171003
1.5195178
1.5180574
1.5178927
1.5176127
1.5176515
1.5196416
1.5198313
1.5198149
1.5173626
1.5173293
1.5172837
1.5172793
1.5171005
1.5171032
1.5171039
1.5171079
1.5171423
1.5171277
1.5171109
1.5171129
1.5199514
1.5199365
1.5199896
1.5199828
1.5200933
1.5200912
1.5200637
1.5200506
1.5201975
1.520165
1.5205361
1.5212495
1.5203658
1.5213416
1.5213938
1.5214024
1.5214565
1.5214489
1.5212399
1.5210194
1.5182754
1.5188476
1.5164993
1.516834
1.5164047
1.5165891
1.5161691
1.5161486
1.5161757
1.5161251
1.5161489
1.5166824
1.5164694
1.5165641
1.5164068
1.5166793
1.5177554
1.5176749
1.5177086
1.5181015
1.5179169
1.5175069
1.5174947
1.5173856
1.5162696
1.5163956
1.5163304
1.5163822
1.5162269
1.516104
1.5161106
1.5161208
1.5160916
1.5160848
1.5176194
1.5175755
1.5174442
1.517298
1.5176503
1.5183427
1.5176141
1.5183052
1.5175624
1.5175819
1.5175687
1.5175335
1.517522
1.5175297
1.5175068
1.5174939
1.5175828
1.5175694
1.5182668
1.5182503
1.5173002
1.5172279
1.5171965
1.5173137
1.5174902
1.5181839
1.5175169
1.5182285
1.517413
1.5174285
1.5174286
1.5174025
1.5174096
1.5172673
1.5180841
1.5178581
1.5163729
1.516445
1.5163516
1.5164965
1.5163614
1.5165632
1.5162175
1.5162317
1.5162067
1.5161816
1.5161778
1.5162106
1.5166392
1.5165759
1.5165992
1.5167181
1.516402
1.516379
1.5163529
1.5163474
1.5162303
1.5162203
1.5162085
1.5162071
1.5161765
1.5161772
1.5161732
1.5161686
1.5162577
1.51624
1.516208
1.5162142
1.5161814
1.5161773
1.5161663
1.5161661
1.5165315
1.5163508
1.5162961
1.5164769
1.5162392
1.5162645
1.5164498
1.5164252
1.5167763
1.516624
1.5168478
1.5166661
1.5172684
1.5170122
1.5167909
1.5169894
1.5164687
1.516426
1.5163495
1.5163637
1.5164465
1.5165825
1.5167623
1.5166239
1.5160836
1.5160815
1.5160725
1.5160766
1.5160793
1.5160834
1.5160876
1.5160932
1.516078
1.5160874
1.5160976
1.516085
1.5161158
1.5161068
1.516102
1.5161071
1.5160902
1.5160891
1.5160957
1.5160934
1.5160892
1.516084
1.516084
1.5160891
1.5160925
1.5160877
1.5160948
1.5160889
1.51613
1.5161222
1.5161111
1.5161163
1.5160967
1.5160999
1.516101
1.5161055
1.5161867
1.5163686
1.5163652
1.5161825
1.5164064
1.5162174
1.5162006
1.5163861
1.5160961
1.516099
1.5161038
1.5161001
1.5161786
1.5161816
1.5163663
1.5163656
1.5163756
1.5161866
1.5161884
1.5163859
1.5160928
1.5160929
1.5160975
1.5160978
1.5167631
1.5166314
1.51657
1.5168137
1.5165506
1.5168332
1.5163949
1.5163694
1.5163012
1.5163441
1.5162823
1.5163336
1.5161101
1.5161214
1.5161153
1.5161123
1.5161153
1.5161211
1.5161324
1.5161265
1.5161281
1.5161355
1.5161416
1.5161589
1.5161471
1.5161454
1.5161501
1.5161534
1.5161673
1.5161627
1.5161673
1.5161754
1.5161579
1.5161535
1.5161574
1.5161629
1.516402
1.5162304
1.5162371
1.5164051
1.5161751
1.5161708
1.5161812
1.5161876
1.516265
1.5162523
1.5164215
1.5164394
1.5161251
1.5161174
1.5161195
1.516129
1.5163932
1.5162005
1.5162102
1.5163968
1.5161406
1.5161363
1.5161406
1.5161459
1.5162243
1.5162208
1.5163991
1.5164035
1.5161531
1.5161429
1.516134
1.5161501
1.5161212
1.516117
1.5161135
1.5161051
1.5162776
1.5162684
1.5162572
1.5162742
1.5163186
1.5163248
1.5163363
1.5163393
1.516494
1.5165202
1.5165474
1.5165446
1.5168859
1.5168085
1.5167873
1.5169298
1.5162735
1.5162511
1.5162455
1.5162735
1.51648
1.5163101
1.5163409
1.516506
1.5163145
1.5163161
1.5163431
1.5163482
1.516414
1.5163794
1.5165367
1.5165705
1.5164665
1.5164796
1.5165463
1.5165498
1.5167634
1.5167754
1.5169602
1.5169884
1.5166612
1.5165145
1.516616
1.5167666
1.5171215
1.5168381
1.5170127
1.5173493
1.5215784
1.521492
1.5220571
1.5210547
1.521424
1.5219534
1.5214429
1.5221288
1.5221261
1.522149
1.52215
1.5221418
1.5221394
1.5219407
1.5219255
1.522043
1.5220106
1.5220264
1.5220757
1.5216016
1.5213626
1.5212933
1.5217176
1.5220697
1.5220088
1.5218688
1.5218126
1.5217534
1.5211936
1.5216388
1.5210445
1.5186709
1.5184374
1.5188531
1.5188779
1.5184714
1.5180088
1.5179012
1.5179615
1.5188796
1.5182617
1.517862
1.5177844
1.5186505
1.5190084
1.5190999
1.5185028
1.5192183
1.5185111
1.5195702
1.5189628
1.5181118
1.5181752
1.5181107
1.5180066
1.5181538
1.5186921
1.5180253
1.5185878
1.5177299
1.5177155
1.5176996
1.5176756
1.5178655
1.5184998
1.5178161
1.5184745
1.5177857
1.517818
1.5177949
1.5177425
1.5177752
1.5177461
1.518442
1.5184051
1.5167254
1.5167066
1.5167474
1.5167842
1.5169831
1.5168913
1.5175358
1.5172378
1.5166174
1.5166196
1.5166114
1.5166199
1.516617
1.5166192
1.5166272
1.5166514
1.5194851
1.5186435
1.5185721
1.5194677
1.5182599
1.5184062
1.5193203
1.5192756
1.517232
1.5175402
1.5169805
1.5168796
1.5196738
1.5187939
1.5187696
1.5196709
1.5187267
1.5187172
1.519646
1.5196419
1.5167085
1.5167564
1.516673
1.5166786
1.5166058
1.5166286
1.5165901
1.5165872
1.5165945
1.5165911
1.5166009
1.516619
1.5188797
1.5189153
1.5198183
1.5198182
1.5188344
1.5188365
1.5198009
1.5198016
1.5188091
1.518796
1.5197686
1.51977
1.5197499
1.518785
1.5187906
1.5197487
1.5190181
1.5189914
1.5199163
1.5199152
1.5199046
1.518962
1.5189655
1.5199072
1.5189317
1.518952
1.5198801
1.5198814
1.5189239
1.5189142
1.519862
1.519863
1.5214204
1.5213337
1.5213821
1.5213182
1.5212412
1.5209519
1.5212161
1.5211261
1.5190874
1.5191433
1.5200267
1.5200118
1.5190546
1.5190525
1.5199772
1.5199771
1.5196698
1.5200342
1.520459
1.5203765
1.5192646
1.5193786
1.5202021
1.5201776
1.5215106
1.5215014
1.5213981
1.5214051
1.5214979
1.5214825
1.5213917
1.5213876
1.5214638
1.5215793
1.5215812
1.5214609
1.5215728
1.521558
1.5214498
1.521454
1.5192921
1.5191001
1.5193323
1.519166
1.5194675
1.5195114
1.5194534
1.5195026
1.5194515
1.5195347
1.5194385
1.5195268
1.5192733
1.5193575
1.5190924
1.5192023
1.5196464
1.5196318
1.5202199
1.5197318
1.5197131
1.5194637
1.5192787
1.5200141
1.5195487
1.51935
1.5195311
1.5195496
1.5195141
1.5195389
1.5193528
1.5191512
1.5193728
1.5191961
1.5201747
1.5199465
1.5197709
1.5197571
1.5203763
1.5198546
1.5198363
1.5197402
1.519706
1.5203584
1.5198245
1.519785
1.5196524
1.5196761
1.5196365
1.5196672
1.5196204
1.5196454
1.5195842
1.5196156
1.5203255
1.5203054
1.5195789
1.5196671
1.5195691
1.5196633
1.51956
1.5196094
1.5195275
1.519583
1.5195927
1.5196415
1.5195809
1.5196355
1.5195453
1.5196351
1.5195155
1.5196113
1.5200101
1.5202228
1.5202283
1.5200261
1.5203761
1.5203615
1.5203447
1.5203609
1.5198362
1.5198138
1.5199463
1.519931
1.5198651
1.5198645
1.5199744
1.5199765
1.5199278
1.5199099
1.5200834
1.5200728
1.519958
1.5199564
1.5201103
1.5201125
1.5199707
1.5199295
1.5200784
1.5200467
1.5201501
1.5203821
1.5204463
1.5202597
1.521198
1.5213022
1.5213439
1.5212601
1.520063
1.5200259
1.5202136
1.5201869
1.5202411
1.5204428
1.5205405
1.5203849
1.519695
1.5197815
1.5196662
1.5197593
1.5197214
1.5198076
1.519721
1.5198112
1.5197725
1.5197719
1.5198894
1.5198932
1.5197442
1.5197183
1.519863
1.519844
1.5211893
1.5212947
1.5213016
1.5212084
1.5198268
1.5199121
1.5197809
1.5198742
1.5198783
1.5198338
1.5199944
1.5199591
1.5202815
1.5203339
1.5200034
1.5200952
1.5200605
1.5203204
1.5203913
1.5201763
1.5213613
1.5213544
1.5213465
1.5213538
1.5213651
1.5214022
1.5213562
1.5213956
1.5213462
1.5213233
1.5213299
1.5213397
1.5212972
1.5213099
1.5211656
1.5212536
1.5212645
1.521241
1.5211791
1.521176
1.5212905
1.5212748
1.5211981
1.5211399
1.5202468
1.5203032
1.5199563
1.5200494
1.5197979
1.519751
1.5198462
1.519806
1.5202443
1.5202762
1.5199562
1.520015
1.5197859
1.5198735
1.5197392
1.5198344
1.519853
1.5198792
1.5198062
1.5198384
1.5202689
1.5202871
1.5199972
1.5200329
1.5203324
1.5201033
1.5203771
1.5206606
1.5201642
1.5199656
1.5199254
1.5205537
1.519999
1.5200411
1.5206097
1.5205023
1.5196816
1.5196806
1.5197694
1.5197735
1.5196721
1.5196377
1.5197206
1.5196929
1.5196976
1.519745
1.5196957
1.5197479
1.519656
1.5196248
1.5197453
1.5197206
1.5197341
1.5197588
1.5196966
1.5197277
1.5197586
1.519782
1.5197543
1.5197832
1.5198758
1.5198742
1.520493
1.519956
1.5199516
1.5198542
1.5198198
1.5204725
1.5199366
1.5198981
1.5204472
1.5204236
1.5206388
1.5206186
1.5205375
1.5205523
1.520468
1.5204884
1.520498
1.5204788
1.5214088
1.5214501
1.5214559
1.5214126
1.5211391
1.5206487
1.5206269
1.520572
1.5205861
1.5205395
1.5205316
1.5205156
1.5205232
1.5204138
1.5204018
1.5197274
1.5197046
1.5198368
1.5198207
1.5197648
1.5198724
1.5197571
1.5198689
1.5198566
1.5200059
1.5198493
1.5200034
1.5198186
1.5197997
1.519971
1.5199589
1.5194645
1.5193273
1.5191902
1.5193536
1.5194895
1.5194766
1.5195707
1.5195618
1.519141
1.5193119
1.5193891
1.5192427
1.5195377
1.5196464
1.5196368
1.5195238
1.519672
1.5197883
1.5196639
1.5197853
1.5195858
1.5195582
1.5196728
1.519651
1.5196205
1.5197066
1.5196124
1.5197031
1.5196356
1.5196101
1.5197538
1.5197346
1.5197076
1.5198478
1.5196917
1.5198371
1.5194386
1.5192858
1.5195358
1.5194111
1.5196235
1.5197232
1.5196089
1.5197123
1.5195162
1.5193774
1.5196644
1.5195552
1.5172512
1.5172931
1.5173277
1.5172903
1.5176021
1.517501
1.5175346
1.5176201
1.5173791
1.5172929
1.5173462
1.5173302
1.517632
1.5176543
1.5175385
1.5175764
1.5170921
1.5170367
1.5170752
1.5170551
1.5170738
1.5171243
1.5171407
1.5170915
1.5171349
1.517085
1.5171232
1.517098
1.5171228
1.5171716
1.5171353
1.5171827
1.5171742
1.5171226
1.5171587
1.51714
1.5172158
1.5171565
1.5171731
1.5172312
1.5171829
1.5172165
1.5171711
1.5172061
1.5172614
1.517205
1.5172165
1.5172727
1.5173461
1.5173854
1.5174162
1.5173817
1.5174439
1.5173847
1.5174185
1.5174737
1.5175804
1.5176658
1.5176101
1.5176806
1.5176572
1.5176915
1.5177223
1.5176138
1.5169298
1.5169661
1.5169718
1.5169355
1.5169463
1.5169397
1.5169764
1.5169825
1.5169656
1.5170123
1.5170179
1.5169709
1.5169822
1.516976
1.5170231
1.5170288
1.516953
1.5169999
1.5170042
1.5169569
1.516958
1.516917
1.5169532
1.516922
1.5169246
1.5169608
1.5169644
1.5169283
1.5169599
1.5170068
1.5170099
1.516963
1.5169996
1.5170332
1.5170363
1.517003
1.5170056
1.5170389
1.5170415
1.5170083
1.5170915
1.5170326
1.5170889
1.5170349
1.5170373
1.5170926
1.5170962
1.5170397
1.5170115
1.5170448
1.5170497
1.5170167
1.5170281
1.5170223
1.5170558
1.517061
1.5170437
1.5170987
1.5171034
1.5170482
1.5170601
1.5170546
1.5171096
1.517116
1.517088
1.5171264
1.5171639
1.5171277
1.5174682
1.517357
1.5173885
1.5174898
1.5171188
1.5171663
1.5172047
1.5171595
1.5174992
1.5173858
1.5174221
1.5175236
1.51689
1.5169249
1.5169433
1.5169088
1.5169383
1.5169731
1.5169844
1.5169498
1.5169171
1.5169609
1.5169799
1.5169364
1.5169661
1.517009
1.5170211
1.5169783
1.5170074
1.5169547
1.5169889
1.5169744
1.5169849
1.5170374
1.5170555
1.5170041
1.5170496
1.5170034
1.517037
1.5170165
1.5170335
1.517085
1.517047
1.5170973
1.5171604
1.5171984
1.5172366
1.517202
1.5175336
1.5174212
1.5174526
1.5175517
1.5172508
1.5172874
1.5171952
1.5172362
1.5175629
1.5174539
1.5174959
1.5175885
1.5168763
1.5168364
1.5168695
1.5168434
1.5168673
1.5169169
1.5169228
1.516873
1.5168503
1.5168834
1.5168463
1.5168789
1.5168754
1.5169253
1.5168797
1.5169296
1.5167872
1.516821
1.5168287
1.5167944
1.5167985
1.5168318
1.5168377
1.5168041
1.5168639
1.5168143
1.5168561
1.5168215
1.516873
1.5168248
1.5168665
1.516831
1.5168138
1.5167716
1.5168055
1.5167795
1.5167991
1.5168411
1.5168491
1.5168066
1.5168211
1.5167831
1.516817
1.5167866
1.5168098
1.516852
1.5168136
1.5168564
1.5168508
1.5168834
1.5168903
1.5168579
1.5168609
1.5168933
1.5168677
1.5169001
1.5169299
1.5169363
1.5168803
1.5168865
1.516897
1.5168898
1.5169397
1.5169462
1.5169633
1.5169375
1.5170932
1.5170552
1.5167321
1.5167208
1.516595
1.5165857
1.5177087
1.5176737
1.5174131
1.517471
1.5166007
1.516957
1.5171006
1.5172104
1.5171459
1.5170416
1.5167265
1.5168406
1.5168222
1.5167083
1.517226
1.5172166
1.5173101
1.5171324
1.5168085
1.5169375
1.5168335
1.5169148
1.51649
1.5164874
1.5166016
1.5166035
1.5165633
1.5165649
1.5164548
1.5164538
1.5171804
1.5172208
1.5172614
1.5172232
1.5164663
1.5165005
1.5165932
1.5166869
1.5166874
1.516592
1.5165531
1.516644
1.5166452
1.5165533
1.5167632
1.5166772
1.5166741
1.5167624
1.5166318
1.516718
1.5166324
1.5167177
1.5176722
1.5176451
1.5174357
1.5173864
1.5171791
1.5172152
1.517242
1.5172071
1.5164069
1.5164056
1.5165049
1.516509
1.5164924
1.5164949
1.5163898
1.5163894
1.5170686
1.5170735
1.5171058
1.5171033
1.5163992
1.5164161
1.5164973
1.5164997
1.5165845
1.5165792
1.5165701
1.5166454
1.51665
1.5165732
1.5165722
1.5164837
1.5165688
1.5164857
1.5165586
1.5166365
1.516561
1.5166401
1.5164784
1.5164838
1.5165631
1.5165718
1.5165608
1.5166307
1.5166405
1.5165533
1.5164835
1.5164871
1.516574
1.5165686
1.5165589
1.5165637
1.5166367
1.5166425
1.5163847
1.5163847
1.5164874
1.5164933
1.5164924
1.5164961
1.5163891
1.5163895
1.5170609
1.5170955
1.5170935
1.5170584
1.5163977
1.5163938
1.5170597
1.5170624
1.5170821
1.517084
1.5170707
1.5170759
1.5170961
1.5170927
1.5166208
1.5166759
1.5166847
1.5166291
1.5166316
1.5166269
1.5166816
1.5166868
1.5167281
1.5166652
1.5167202
1.5166725
1.516675
1.5167304
1.5166709
1.5167258
1.516693
1.5166363
1.5166901
1.5166384
1.5166803
1.5167344
1.516736
1.5166807
1.516684
1.5166262
1.5166815
1.5166285
1.5166704
1.5167258
1.5166716
1.5167279
1.5167652
1.5167255
1.516765
1.5167248
1.5168058
1.5167561
1.5167542
1.5168059
1.5167164
1.5167571
1.5167156
1.5167555
1.5167957
1.5167451
1.5167456
1.5167975
1.5167103
1.5167498
1.5167569
1.516717
1.5167897
1.5167399
1.516746
1.5167972
1.5167158
1.5167194
1.5167551
1.5167593
1.5167951
1.5167485
1.5167994
1.5167452
1.5168121
1.5167542
1.5168171
1.516749
1.5168078
1.5168707
1.5168624
1.5167984
1.5167063
1.5167042
1.5167671
1.5167656
1.5167551
1.516751
1.5168175
1.5168144
1.5173168
1.5172141
1.5173881
1.5172883
1.517277
1.5173492
1.5173955
1.517461
1.5169789
1.5169309
1.5170068
1.5169017
1.5169999
1.5169653
1.5170768
1.5170452
1.5174696
1.5173399
1.5175209
1.5173985
1.5173894
1.5174547
1.5175302
1.5175845
1.5170331
1.5170926
1.5170711
1.5171274
1.5171217
1.5170805
1.51719
1.5171534
1.5168974
1.5168627
1.5169092
1.5168499
1.516959
1.5169014
1.5168853
1.5169456
1.5168008
1.516847
1.5168065
1.5168516
1.5168988
1.5168407
1.5168338
1.5168938
1.517646
1.5176184
1.5174085
1.5173564
1.5176218
1.5175985
1.5173347
1.5173798
1.5172182
1.5171922
1.5171672
1.5171924
1.5171686
1.517199
1.5172339
1.5172032
1.5170662
1.5170731
1.5170928
1.5170878
1.5170798
1.5170654
1.5170714
1.517097
1.5170932
1.517084
1.5170574
1.5170545
1.5170823
1.5170476
1.5170477
1.5170708
1.5170716
1.5170734
1.5170818
1.5170487
1.5170489
1.5170677
1.5170684
1.5170451
1.5170723
1.5170736
1.5170448
1.5170692
1.5170504
1.5170586
1.5170767
1.5170525
1.5170456
1.5170749
1.5170805
1.5175053
1.5173224
1.5173525
1.5175168
1.517174
1.517152
1.5171743
1.5171955
1.5171823
1.51715
1.517173
1.5172057
1.5175092
1.5173312
1.5173674
1.517528
1.5171765
1.5168706
1.5169072
1.5169034
1.5168659
1.5168553
1.5168915
1.5168563
1.5168935
1.5169543
1.5169051
1.5169592
1.5168989
1.5168885
1.5169439
1.5168869
1.5169419
1.5167987
1.5168362
1.5168347
1.5167964
1.5167868
1.5168244
1.5168259
1.5167876
1.5168732
1.5168294
1.5168756
1.5168257
1.5168641
1.5168157
1.5168624
1.5168165
1.516891
1.5168495
1.5168852
1.5168553
1.5168814
1.5169343
1.51694
1.5168866
1.5168585
1.5168946
1.5168544
1.5168901
1.5168863
1.5169393
1.5168906
1.5169434
1.5167866
1.5167902
1.5168276
1.5168233
1.5167814
1.5168184
1.5168251
1.5167878
1.5168161
1.5168103
1.516856
1.5168628
1.5168609
1.5168152
1.5168189
1.5168655
1.5169808
1.5169532
1.5169971
1.5169353
1.5169918
1.5170448
1.5170266
1.516971
1.5169271
1.5168897
1.516933
1.5168824
1.5169242
1.5169786
1.5169164
1.5169728
1.5175955
1.5174475
1.5176392
1.5175019
1.5174948
1.5175549
1.5176514
1.5176976
1.5171988
1.517186
1.517237
1.5171435
1.5172334
1.5171892
1.5172956
1.5172571
1.517712
1.5176039
1.5177516
1.5175503
1.5177704
1.5176032
1.5178162
1.5176681
1.51725
1.5173044
1.5172942
1.5173431
1.5174132
1.5173454
1.5173012
1.5173756
1.5170632
1.5170417
1.5170842
1.5170189
1.5171458
1.5170846
1.5170587
1.5171236
1.5169642
1.5170085
1.5169718
1.5170143
1.5170751
1.5170105
1.5170033
1.5170695
1.5171494
1.5171949
1.5171711
1.5171224
1.5170677
1.5170751
1.5171223
1.5171165
1.5171984
1.5172555
1.5172312
1.5171696
1.5171143
1.5171219
1.5171836
1.5171779
1.5178366
1.5178717
1.5177236
1.5176693
1.517418
1.5174674
1.51743
1.5173748
1.5178924
1.5179299
1.5177847
1.5177246
1.5174717
1.5175361
1.5174999
1.5174287
1.5179499
1.5179785
1.5178362
1.5177855
1.5175399
1.5175857
1.5175506
1.5174985
1.5179995
1.5180421
1.5179006
1.517837
1.5175895
1.5176579
1.5176251
1.517549
1.5172589
1.5173005
1.5172747
1.5172295
1.5171754
1.5171828
1.5172266
1.5172208
1.5173039
1.5173686
1.517342
1.5172729
1.5172183
1.5172256
1.5172951
1.5172912
1.5170531
1.5170806
1.5170899
1.5170427
1.5171493
1.5170908
1.5170784
1.5171387
1.5170669
1.5170296
1.5170665
1.5170299
1.5171228
1.5170644
1.5170642
1.5171245
1.5169606
1.5170006
1.5169938
1.5169529
1.5170524
1.5170016
1.5169922
1.5170449
1.516941
1.516942
1.5169811
1.5169824
1.5170315
1.5169802
1.5170326
1.5169797
1.5169332
1.5169719
1.5169766
1.516938
1.516941
1.5169378
1.5169762
1.5169792
1.5170249
1.5169706
1.5170206
1.5169745
1.5169767
1.5170271
1.5169743
1.5170246
1.5170191
1.5170226
1.5170547
1.5170583
1.5171109
1.5170558
1.5171146
1.5170529
1.5170225
1.517058
1.5170599
1.5170244
1.5171177
1.5170557
1.5171146
1.5170572
1.5167498
1.5167053
1.5167409
1.5167137
1.5167327
1.5167784
1.5167873
1.5167407
1.5167207
1.5167571
1.5167173
1.516753
1.5167444
1.5167905
1.5167477
1.5167947
1.5166388
1.5166884
1.5166974
1.5166474
1.5166595
1.5166541
1.5167024
1.5167082
1.5167378
1.5166799
1.5167293
1.5166877
1.516699
1.5167479
1.5166937
1.5167422
1.5166837
1.516624
1.5166733
1.5166336
1.5166644
1.5167136
1.5167234
1.5166735
1.5166899
1.5166352
1.5166851
1.5166396
1.5166761
1.5167259
1.5166799
1.5167304
1.5167212
1.5167567
1.5167646
1.5167288
1.516734
1.5167688
1.5167393
1.5167744
1.5167941
1.5168022
1.5167486
1.5167557
1.5167659
1.5167605
1.5168056
1.5168114
1.5165075
1.5165134
1.5165841
1.516593
1.5165849
1.5166467
1.5166567
1.5165769
1.5165251