/*--------------------------------*- C++ -*----------------------------------*\
  =========                 |
  \\      /  F ield         | OpenFOAM: The Open Source CFD Toolbox
   \\    /   O peration     | Website:  https://openfoam.org
    \\  /    A nd           | Version:  7
     \\/     M anipulation  |
\*---------------------------------------------------------------------------*/
FoamFile
{
    version     2.0;
    format      ascii;
    class       volScalarField;
    location    "7000";
    object      nut;
}
// * * * * * * * * * * * * * * * * * * * * * * * * * * * * * * * * * * * * * //

dimensions      [0 2 -1 0 0 0 0];

internalField   nonuniform List<scalar> 
33730
(
8.2716231e-41
3.7281851e-42
2.28318e-40
2.8748279e-41
8.5959009e-42
2.6857487e-41
1.1055439e-40
4.0528554e-42
3.5737199e-42
2.3797302e-42
1.8924308e-42
3.1749256e-42
4.1145097e-42
3.9262879e-42
1.2129176e-40
1.2835882e-40
2.6017133e-40
1.314651e-41
8.917182e-42
1.3053099e-41
9.2760072e-42
1.3186763e-41
1.428682e-41
5.7273311e-42
2.8174126e-41
8.7027014e-42
2.7588367e-41
9.6624753e-42
4.555397e-42
6.9406076e-41
3.4613773e-42
2.2223682e-42
1.2180127e-42
2.3863889e-42
2.3930249e-42
3.1719005e-42
2.5548551e-42
1.6131875e-42
1.2068894e-42
3.3014075e-42
2.9629369e-42
2.6210845e-42
3.0976726e-42
1.9637267e-42
2.1011214e-42
5.9154773e-42
1.4366385e-42
1.5816045e-42
6.6947655e-42
4.3663623e-42
5.8279543e-42
1.2078262e-42
1.5078602e-42
7.1877976e-42
1.5044123e-40
7.5934093e-42
6.7266087e-41
7.6394236e-42
6.7041095e-41
7.5958981e-42
6.6193961e-41
7.4062952e-42
6.2742849e-41
2.410939e-40
4.2184265e-42
1.4491135e-40
5.3233988e-42
5.3325981e-42
4.7058281e-42
4.2262572e-42
5.0889117e-42
4.2114925e-42
5.7680441e-42
4.6712109e-42
4.8998873e-42
1.3603587e-41
4.4485931e-42
5.65335e-42
5.1482998e-42
5.4543759e-42
5.487448e-42
5.2703604e-42
4.9530703e-42
1.5519017e-41
1.4093629e-41
1.8922739e-41
1.4914561e-41
1.3269107e-41
2.5538377e-41
5.534163e-42
1.694995e-41
8.4140976e-42
2.3232e-41
4.278545e-42
1.2228734e-42
2.0602309e-42
1.2560206e-42
2.5657647e-42
2.5478599e-42
2.8638882e-42
2.461578e-42
2.0660253e-42
2.3011119e-42
2.5646966e-42
2.235309e-42
2.4675432e-42
1.1526203e-42
1.1586076e-42
1.5899997e-42
1.4487236e-42
5.8677834e-43
6.0818652e-43
2.1781387e-42
2.2981141e-42
2.4741679e-42
2.6055761e-42
1.594109e-42
1.1857912e-42
1.2001265e-42
1.5450687e-42
9.8797774e-43
1.0656443e-42
8.7940412e-43
8.4205062e-43
7.0696938e-43
1.8933952e-42
1.3300754e-42
1.3711959e-42
2.4601335e-42
2.526696e-42
2.3671622e-42
2.5195793e-42
2.3920037e-42
3.1132707e-42
2.624852e-42
2.5924814e-42
2.7031885e-42
3.3349398e-42
3.2216136e-42
2.7515514e-42
1.8617229e-42
1.7241562e-42
1.5708054e-42
2.1406147e-42
1.2257468e-42
1.558885e-42
2.2696886e-42
7.2115603e-42
1.4484481e-42
1.609447e-42
8.4225318e-42
2.2369938e-42
1.1918973e-42
1.4834063e-42
2.2072682e-42
7.6729341e-42
7.8697257e-42
7.4563955e-41
7.1095943e-41
3.429842e-42
3.3033698e-42
5.0668816e-42
5.5843356e-42
6.9620769e-42
6.8114772e-42
2.7487781e-41
2.599862e-41
3.3890926e-42
3.4028744e-42
5.3601832e-42
5.0305918e-42
6.8149888e-42
6.4033526e-42
2.7062422e-41
2.4837984e-41
3.4507718e-42
3.4433387e-42
5.3099809e-42
4.9939955e-42
6.7229437e-42
6.565344e-42
2.6810161e-41
2.5509942e-41
3.2936978e-42
3.0888579e-42
5.3539403e-42
4.6635355e-42
6.7030766e-42
6.3138661e-42
2.6592458e-41
2.4230513e-41
3.6141115e-42
4.2091981e-42
1.246263e-40
1.4907711e-40
6.4266522e-42
1.2101941e-42
1.579223e-42
9.1656281e-42
7.6541551e-42
7.9896339e-42
7.4753927e-41
8.0094008e-41
2.3199597e-42
2.3409803e-42
2.4676599e-42
2.3583728e-42
2.3633671e-42
2.2800228e-42
2.1986636e-42
2.4119987e-42
2.1816006e-42
2.3910892e-42
2.2478398e-42
2.3085725e-42
2.5124227e-42
2.4482389e-42
2.5422958e-42
2.2949834e-42
5.3444205e-42
2.0681789e-42
2.2439039e-42
2.232464e-42
2.2786564e-42
5.3269876e-42
5.6080679e-42
4.8609778e-42
2.3842125e-42
2.4625325e-42
2.4864134e-42
2.3590302e-42
2.3494855e-42
2.5015066e-42
2.4694002e-42
2.3892843e-42
2.4100475e-42
2.2939161e-42
2.2549993e-42
2.4949407e-42
5.4252444e-42
5.9620294e-42
4.8981973e-42
5.6086909e-42
5.9542495e-42
6.1891383e-42
5.2350112e-42
5.1721262e-42
1.3527885e-41
5.0860926e-42
6.1221965e-42
5.196077e-42
4.1216006e-42
8.7868395e-42
1.3602129e-41
1.6571777e-41
1.4073915e-41
9.6402906e-42
1.6637472e-42
1.2015472e-42
1.2299222e-42
1.4987462e-42
6.0392302e-43
3.0878e-42
2.8522569e-42
2.8214267e-42
2.8430279e-42
2.232177e-42
1.2083604e-42
1.7983549e-42
1.2353654e-42
2.0478568e-42
1.3085823e-42
5.8579514e-43
2.9989183e-42
2.2576851e-42
2.6821281e-42
2.37639e-42
2.0066947e-42
2.1553857e-42
1.9948619e-42
1.903765e-42
2.0191585e-42
2.0310954e-42
1.7955174e-42
1.9594538e-42
1.5747868e-42
1.5718486e-42
1.5122874e-42
1.5388168e-42
1.4607068e-42
1.5633963e-42
1.5178572e-42
1.5293725e-42
8.3251493e-43
8.9285113e-43
9.0032074e-43
9.5646623e-43
7.2214848e-43
8.7391169e-43
8.9730598e-43
9.2603487e-43
8.5298011e-43
6.949079e-43
1.1375426e-42
1.1850772e-42
1.1405014e-42
1.0992638e-42
1.1616423e-42
1.107919e-42
1.0549846e-42
1.1240208e-42
7.1020316e-43
6.9385349e-43
7.0816583e-43
6.9781944e-43
1.5662508e-42
1.6034792e-42
1.5604965e-42
1.5548411e-42
1.5909332e-42
1.4791226e-42
1.4629628e-42
1.6003026e-42
2.1539348e-42
2.11918e-42
2.0680499e-42
2.216193e-42
2.2998174e-42
2.307047e-42
2.0887242e-42
2.1884621e-42
1.0975761e-42
1.2441161e-42
1.2442195e-42
1.1087191e-42
1.0688653e-42
1.0102139e-42
8.6653542e-43
9.1705079e-43
8.8752196e-43
9.5835405e-43
9.1140307e-43
9.9478664e-43
1.2057719e-42
1.212433e-42
1.1293397e-42
1.1438021e-42
1.1163929e-42
8.9008056e-43
1.1144239e-42
8.9270938e-43
1.0336514e-42
9.3730917e-43
1.0448352e-42
9.5389734e-43
7.746255e-43
7.3439099e-43
8.0461625e-43
7.5217618e-43
5.5117213e-43
5.6871997e-43
6.3148111e-43
6.7969258e-43
6.2468747e-43
6.1715389e-43
7.2481114e-43
7.0074205e-43
7.3281826e-43
7.8059345e-43
1.0265656e-42
9.1024777e-43
1.0133652e-42
1.0229107e-42
7.9425051e-43
1.0062686e-42
7.8903855e-43
1.08063e-42
9.0973609e-43
1.0771322e-42
9.2007469e-43
1.3850079e-42
1.4417356e-42
1.4377244e-42
1.4518619e-42
1.4141063e-42
1.4568184e-42
1.5014889e-42
1.4704862e-42
1.3804548e-42
1.414135e-42
2.5383644e-42
2.7563639e-42
1.4777793e-42
1.4710246e-42
1.4816436e-42
1.4068357e-42
1.507549e-42
1.5309995e-42
2.8049462e-42
2.6284346e-42
2.7345303e-42
2.780057e-42
2.8011201e-42
2.48215e-42
3.2064431e-42
2.8793043e-42
3.1910686e-42
1.6390997e-42
1.5976707e-42
2.6717358e-42
2.6600381e-42
3.149916e-42
3.5704011e-42
3.6887024e-42
1.2090053e-42
1.4966237e-42
3.5810704e-42
3.8717888e-42
3.7703494e-42
2.256017e-42
1.2417733e-42
1.4856695e-42
2.3094325e-42
3.4774857e-42
3.9367581e-42
4.0503685e-42
1.2094208e-42
1.3789429e-42
3.3506164e-42
3.8574889e-42
3.9186993e-42
5.0114809e-42
3.1945833e-42
5.7050758e-42
3.4499083e-42
3.4942079e-42
3.5270438e-42
5.2529212e-42
5.6570342e-42
2.7139928e-41
6.963254e-42
6.8798713e-42
2.802168e-41
6.7484742e-42
2.7264774e-41
6.9805509e-42
2.5050795e-41
2.2773126e-42
2.2411352e-42
2.4292886e-42
2.3992958e-42
3.2060273e-42
3.0652174e-42
2.4051408e-42
2.3222137e-42
3.0702772e-42
3.1181008e-42
2.3402491e-42
2.1689584e-42
5.9327402e-42
6.0073066e-42
2.2905493e-42
5.6964132e-42
2.2958427e-42
6.0220632e-42
2.1896746e-42
2.2012894e-42
2.9594765e-42
2.4049565e-42
3.1217195e-42
2.3770406e-42
3.0211386e-42
2.9687434e-42
2.3466492e-42
2.2594064e-42
2.2996626e-42
2.2300162e-42
6.0655364e-42
5.8645743e-42
2.0458637e-42
5.9212136e-42
5.8106951e-42
2.2201741e-42
2.1984183e-42
2.2143277e-42
2.8940405e-42
3.1004961e-42
2.3839347e-42
2.3677686e-42
3.0440974e-42
3.0122767e-42
2.315329e-42
2.2446229e-42
2.2081086e-42
5.8881949e-42
2.0857407e-42
5.9986839e-42
2.224961e-42
5.6956495e-42
2.228996e-42
6.0767669e-42
2.1545867e-42
2.1322952e-42
2.9697309e-42
3.1402309e-42
2.3989014e-42
2.3673955e-42
3.0252173e-42
3.0195082e-42
2.3633076e-42
2.2705392e-42
2.2573446e-42
5.7508524e-42
2.2238311e-42
6.0879508e-42
2.2346335e-42
2.0559521e-42
5.9338208e-42
5.8096396e-42
1.5892141e-42
1.1244774e-42
1.0252773e-41
1.7617231e-42
1.490942e-42
8.8779617e-42
1.0854143e-41
7.1934186e-42
7.3450592e-41
7.758923e-42
7.9411039e-42
7.4903857e-41
7.6216611e-41
2.2601171e-42
1.2080817e-42
1.4824031e-42
2.3365796e-42
3.4623467e-42
3.2301003e-42
5.1273667e-42
5.8383741e-42
3.5770202e-42
5.5297875e-42
3.5656948e-42
5.8651474e-42
7.0768734e-42
2.6845277e-41
7.2194028e-42
2.8835643e-41
7.1477317e-42
2.9252367e-41
7.4896694e-42
2.7590156e-41
2.0471496e-42
1.9386668e-42
7.1013618e-43
7.2211318e-43
7.2411965e-43
2.1212738e-42
2.1488564e-42
6.9167693e-43
2.0893423e-42
1.9793308e-42
6.9945465e-43
7.1587593e-43
2.0078926e-42
2.1179169e-42
7.1659797e-43
6.6836353e-43
1.9518161e-42
1.8578863e-42
6.8330001e-43
7.0976425e-43
2.0681374e-42
2.0493876e-42
7.0352709e-43
7.0863271e-43
2.1553432e-42
2.0048732e-42
7.3062915e-43
7.7155834e-43
2.2813824e-42
2.2529759e-42
7.7181683e-43
7.3558071e-43
2.3345993e-42
2.2499284e-42
2.2544042e-42
2.5225629e-42
1.7929924e-42
1.8084841e-42
6.3742378e-43
6.6086431e-43
1.8868377e-42
1.8260155e-42
6.5212577e-43
6.5689897e-43
2.2672008e-42
2.408781e-42
2.455706e-42
2.3723211e-42
1.9926513e-42
1.8715359e-42
6.8283129e-43
7.2720246e-43
2.0911058e-42
2.1346898e-42
7.3848647e-43
7.1624239e-43
2.075484e-42
1.953281e-42
7.1113765e-43
7.3256324e-43
2.1314054e-42
2.0858505e-42
7.4114426e-43
7.2936005e-43
1.9300987e-42
7.0597618e-43
6.9462884e-43
2.0841834e-42
2.0782413e-42
1.9217249e-42
6.9668209e-43
6.7447278e-43
2.3463467e-42
2.5250584e-42
2.5002773e-42
2.4585949e-42
2.579665e-42
2.6504919e-42
2.593225e-42
2.7551611e-42
2.5791342e-42
2.7290529e-42
2.6162038e-42
2.6673245e-42
2.9021897e-42
2.7451809e-42
2.7564086e-42
2.6811684e-42
5.4682871e-42
5.5842913e-42
5.1603299e-42
5.2151959e-42
2.6723113e-42
2.7613929e-42
2.6662793e-42
2.6649385e-42
2.2987516e-42
2.2297875e-42
2.4874704e-42
2.4786934e-42
4.8468821e-42
5.1607927e-42
5.9860992e-42
5.8155716e-42
5.7244525e-42
5.4629933e-42
5.8028758e-42
5.7901513e-42
1.1947717e-42
1.1977002e-42
1.1023764e-42
1.0996103e-42
8.6882608e-43
9.0266342e-43
8.9287989e-43
9.3118152e-43
6.9103941e-43
8.7477839e-43
9.2432976e-43
9.3800881e-43
9.725107e-43
7.6230566e-43
1.1481195e-42
1.1991085e-42
1.1889014e-42
1.1621815e-42
7.2065818e-43
7.3804386e-43
2.3310706e-42
2.391718e-42
2.3928069e-42
2.386783e-42
2.3361254e-42
2.2433892e-42
2.7531521e-42
2.4216946e-42
2.1800719e-42
1.7306253e-42
1.6736675e-42
1.5973511e-42
1.6838439e-42
2.6647078e-42
1.723572e-42
1.7182072e-42
1.5776604e-42
1.5244635e-42
2.8554877e-42
2.9944893e-42
1.6649375e-42
1.2385636e-42
1.2706638e-42
1.7582729e-42
5.888036e-43
1.1500811e-42
1.3159008e-42
1.2400344e-42
1.2198619e-42
1.0630007e-42
9.9099102e-43
9.112746e-43
9.8447569e-43
7.5512638e-43
1.2410453e-42
1.3385409e-42
1.3148858e-42
1.2444863e-42
1.065955e-42
1.012331e-42
9.5077907e-43
9.8889716e-43
7.3646194e-43
8.0395562e-43
8.096613e-43
3.2635748e-42
3.5467021e-43
3.5947612e-43
2.3186389e-42
2.3907255e-42
2.3720939e-42
2.4717815e-42
1.4610144e-42
1.5035759e-42
1.5041561e-42
1.4335674e-42
1.5933882e-42
1.6295096e-42
1.5968241e-42
1.6548406e-42
2.3757988e-42
2.1043413e-42
2.289649e-42
2.1722543e-42
1.1572318e-42
1.1228064e-42
1.0252975e-42
1.0086214e-42
1.1816346e-42
1.0674943e-42
1.1700204e-42
1.0787163e-42
1.2730487e-42
9.2865567e-43
1.2301047e-42
9.4981024e-43
1.2531004e-42
9.2702412e-43
1.1643872e-42
9.0871328e-43
1.225036e-42
1.2133222e-42
1.0890731e-42
1.0858205e-42
1.0350651e-42
1.1456767e-42
1.140891e-42
1.0324836e-42
1.2171642e-42
1.1917385e-42
8.8587772e-43
9.3791034e-43
1.3117811e-42
1.2439669e-42
9.7442025e-43
9.7332091e-43
1.2239114e-42
1.204828e-42
1.0300745e-42
1.0217918e-42
1.220343e-42
1.2284664e-42
1.0457812e-42
1.0588603e-42
1.1542937e-42
9.0246245e-43
1.1408059e-42
8.9897626e-43
1.1492916e-42
1.1041417e-42
8.8807391e-43
8.6416354e-43
1.1263561e-42
8.6784893e-43
1.1150448e-42
8.6864924e-43
1.2796553e-42
1.2710176e-42
1.076915e-42
1.0726792e-42
1.2058989e-42
1.0191686e-42
1.216142e-42
1.0342415e-42
1.1938626e-42
1.1682236e-42
9.3107594e-43
9.1937546e-43
5.5188377e-43
5.9869479e-43
6.5734605e-43
6.6916303e-43
6.2937891e-43
7.785476e-43
8.5143911e-43
7.5496334e-43
8.1006321e-43
6.1815859e-43
6.6444951e-43
7.1593945e-43
7.5659798e-43
6.9765625e-43
8.7858614e-43
9.4282785e-43
8.4730068e-43
8.9150387e-43
8.050672e-43
7.6120861e-43
6.3089223e-43
6.1336844e-43
6.6882553e-43
6.904064e-43
7.1290794e-43
8.8984692e-43
8.5364804e-43
8.7046763e-43
8.3436612e-43
8.7111759e-43
8.1972696e-43
8.5831955e-43
8.0109022e-43
5.9347132e-43
5.8951546e-43
6.1859651e-43
6.8978905e-43
6.7114539e-43
7.2557536e-43
7.0540935e-43
1.1444727e-42
1.1183397e-42
1.0362506e-42
1.0148386e-42
1.1957166e-42
1.0958011e-42
1.1640108e-42
1.0735894e-42
1.3127735e-42
1.0632956e-42
1.2634115e-42
1.0336322e-42
1.2762046e-42
1.0346158e-42
1.2199561e-42
1.0004461e-42
1.1810869e-42
1.0718892e-42
1.2421712e-42
1.1225725e-42
1.0509492e-42
9.6856352e-43
1.1269033e-42
1.0325592e-42
1.1549082e-42
9.4686958e-43
1.2102553e-42
9.8744176e-43
1.2958182e-42
1.0500927e-42
1.3327365e-42
1.0800362e-42
7.3846184e-43
5.7751092e-43
5.8147071e-43
6.9749803e-43
5.2243238e-43
5.9345717e-43
6.9458793e-43
6.7101377e-43
7.2856052e-43
6.6430446e-43
7.4808377e-43
6.9049772e-43
7.5301196e-43
7.4756562e-43
6.7117766e-43
6.8634967e-43
1.2234824e-42
1.1714325e-42
9.5406713e-43
9.2388319e-43
1.2772655e-42
1.2398245e-42
1.0890279e-42
1.0704248e-42
1.1867654e-42
9.1844288e-43
1.1202844e-42
8.8133128e-43
1.1944037e-42
1.2367431e-42
1.0439841e-42
1.0206791e-42
1.2471217e-42
1.053772e-42
1.2901858e-42
1.0910321e-42
1.1292918e-42
9.7266703e-43
1.1777618e-42
1.0126769e-42
1.0802577e-42
8.4966457e-43
1.0924739e-42
8.6514041e-43
1.1945384e-42
9.3366376e-43
1.1998502e-42
9.4549526e-43
1.1929836e-42
1.2124764e-42
1.0673466e-42
1.0970572e-42
1.0824641e-42
1.1065846e-42
1.0038062e-42
1.0401075e-42
1.2466756e-42
1.2149954e-42
9.283114e-43
9.5836202e-43
1.3389291e-42
1.2834233e-42
9.9701314e-43
1.0102435e-42
1.3789597e-42
9.9882934e-43
1.3146468e-42
1.0196494e-42
1.2264546e-42
1.1029818e-42
1.1870377e-42
1.1057121e-42
1.1711837e-42
1.1133904e-42
1.0448097e-42
1.0210322e-42
1.3340011e-42
9.9035343e-43
1.2172034e-42
9.713098e-43
1.2349854e-42
9.8539514e-43
1.2469235e-42
9.9651811e-43
1.2281017e-42
1.2259085e-42
1.1042249e-42
1.0987334e-42
1.1572485e-42
1.0569379e-42
1.1911234e-42
1.0872643e-42
1.2955184e-42
1.2714679e-42
1.0396662e-42
1.0258673e-42
9.4711078e-43
8.8209378e-43
9.7301369e-43
8.8159696e-43
8.9192848e-43
8.3631325e-43
9.1396972e-43
8.6247886e-43
6.1108512e-43
6.4689067e-43
6.8083472e-43
7.308128e-43
6.4741392e-43
6.643689e-43
7.5569121e-43
7.3193132e-43
5.9927229e-43
6.2075645e-43
6.9600897e-43
6.8299167e-43
8.3425124e-43
8.1264786e-43
8.8524357e-43
8.3812245e-43
5.9286348e-43
6.1075201e-43
6.8282475e-43
6.6124748e-43
8.580798e-43
8.2635546e-43
8.7416145e-43
8.3085281e-43
1.1481113e-42
1.0473824e-42
1.142346e-42
1.0482704e-42
1.1392816e-42
1.0508566e-42
1.1656525e-42
1.0751714e-42
1.2426929e-42
1.0083524e-42
1.2506674e-42
1.0180983e-42
1.2657252e-42
1.0248897e-42
1.2360843e-42
1.0150396e-42
6.0828213e-43
7.019803e-43
6.1299919e-43
6.8995204e-43
6.0663014e-43
4.8994599e-43
4.7645875e-43
5.9809104e-43
6.9578054e-43
6.0588131e-43
7.0496395e-43
6.0469683e-43
6.1237279e-43
4.9001631e-43
6.0599492e-43
4.8580065e-43
8.2259225e-43
9.6659248e-43
8.1606111e-43
9.6863181e-43
7.9302224e-43
6.2456005e-43
6.1533505e-43
7.9121546e-43
8.2055691e-43
9.7806506e-43
8.1121697e-43
9.7379456e-43
8.1089634e-43
6.3477554e-43
8.0846379e-43
6.2805373e-43
1.1473998e-42
1.3880803e-42
1.1453743e-42
1.3849e-42
1.1374235e-42
8.6921106e-43
8.6254319e-43
1.1227573e-42
1.175044e-42
1.3923083e-42
1.1507181e-42
1.4193113e-42
1.1709033e-42
8.8712219e-43
1.2086268e-42
8.8840957e-43
2.2084616e-42
2.1911585e-42
1.5180853e-42
1.5159828e-42
1.6256376e-42
1.6110507e-42
2.3786593e-42
2.3674482e-42
1.3071751e-42
4.2806968e-43
4.868145e-43
4.8462712e-43
4.2748136e-43
1.3849548e-42
2.4769148e-42
2.4941446e-42
1.7159689e-42
1.7323241e-42
4.8449139e-43
5.6264417e-43
5.2946324e-43
4.6401933e-43
1.4831605e-42
4.3724406e-43
4.6504548e-43
4.5179903e-43
4.3126397e-43
4.947984e-43
5.0610819e-43
4.8036728e-43
4.6189928e-43
3.5706685e-43
3.5805219e-43
3.94306e-43
3.0430142e-43
3.2121177e-43
3.0512191e-43
3.1501804e-43
3.1373817e-43
2.838243e-43
2.8007428e-43
3.1384736e-43
2.9531117e-43
3.1603648e-43
2.9372917e-43
3.0974672e-43
3.616575e-43
4.065202e-43
3.6485498e-43
3.9365633e-43
3.573531e-43
2.9714426e-43
2.9131062e-43
3.545213e-43
3.9760334e-43
3.5587175e-43
4.0511166e-43
3.5939178e-43
3.6082755e-43
2.9616938e-43
3.520366e-43
2.912252e-43
4.5212162e-43
5.2578667e-43
4.6586197e-43
5.0847134e-43
4.5819953e-43
3.721536e-43
3.6121059e-43
4.4106878e-43
4.5300727e-43
5.2012562e-43
4.5588579e-43
5.1299844e-43
4.6094649e-43
3.7323947e-43
4.5230206e-43
3.680854e-43
6.3722134e-43
6.0210138e-43
6.2145016e-43
6.1629181e-43
6.2888231e-43
6.2508082e-43
6.2740092e-43
6.1196704e-43
6.1381222e-43
6.2999211e-43
6.3757696e-43
6.0682857e-43
6.3212368e-43
6.6785184e-43
6.5325713e-43
6.6663435e-43
1.3930123e-42
5.7497019e-43
5.9191021e-43
5.8589722e-43
5.6281291e-43
1.4825368e-42
1.4857683e-42
1.5161806e-42
5.9040947e-43
6.2911965e-43
6.3243598e-43
6.2080509e-43
6.1744986e-43
6.0619757e-43
6.0202182e-43
6.0449204e-43
6.3763861e-43
6.4717364e-43
6.3560338e-43
6.4263081e-43
1.5944101e-42
1.5832679e-42
1.5187599e-42
1.5569529e-42
1.6501157e-42
1.6810327e-42
1.7023433e-42
1.6435934e-42
1.6395162e-42
1.6766632e-42
1.4983258e-42
2.7298465e-42
1.5951401e-42
2.7276095e-42
2.8932933e-42
2.6106636e-42
2.9502182e-42
2.9923456e-42
1.6464413e-42
1.6523176e-42
2.7739135e-42
2.9302164e-42
1.3035743e-42
1.6276665e-42
1.5315076e-42
1.2717519e-42
1.4788977e-42
1.4393979e-42
2.6975946e-42
1.753903e-42
1.8146986e-42
1.5031165e-42
1.4891255e-42
3.2423307e-42
1.7958348e-42
1.8333426e-42
3.4541882e-42
3.9636098e-42
3.8285181e-42
1.1851617e-42
1.4285465e-42
3.7762122e-42
4.127138e-42
4.1743854e-42
1.5619082e-42
1.5308683e-42
3.0557462e-42
1.8842949e-42
1.8991214e-42
1.5156439e-42
1.4968634e-42
2.8613645e-42
1.8433858e-42
1.8176079e-42
2.1940196e-42
2.2125951e-42
2.2197544e-42
2.2752289e-42
2.3312143e-42
6.0683611e-42
2.3856619e-42
6.4733422e-42
3.1488386e-42
2.9806901e-42
2.3744843e-42
2.3970727e-42
3.0136576e-42
3.1321193e-42
2.3728456e-42
2.2636067e-42
2.3858964e-42
2.213677e-42
6.1693286e-42
6.2913652e-42
3.1184526e-42
3.0342979e-42
2.2953899e-42
2.371913e-42
2.3102046e-42
6.185829e-42
2.303484e-42
6.0440567e-42
3.1309297e-42
2.9987415e-42
2.3554921e-42
2.3629189e-42
2.322432e-42
2.1652084e-42
5.9655941e-42
5.8809514e-42
2.8684697e-42
2.8319964e-42
2.7234897e-42
2.6488403e-42
1.9054566e-42
1.8557111e-42
2.7986715e-42
2.8455762e-42
2.6428976e-42
2.6407657e-42
1.8616016e-42
1.8922548e-42
2.6588053e-42
2.7454716e-42
1.2469158e-42
1.2170044e-42
1.254896e-42
2.8278886e-42
2.7719703e-42
1.2320891e-42
1.2557494e-42
2.7213814e-42
2.8002192e-42
1.2599843e-42
1.2280534e-42
2.7369628e-42
2.735166e-42
1.2045242e-42
8.7164754e-43
7.8550571e-43
7.6823545e-43
8.5539252e-43
8.4921501e-43
7.4503709e-43
7.1926344e-43
7.9040395e-43
7.7854169e-43
5.8940569e-43
6.0613073e-43
7.9054994e-43
5.7781054e-43
5.8751553e-43
8.0001301e-43
7.7775111e-43
7.6921118e-43
7.7335599e-43
9.3042003e-43
8.7266457e-43
7.3700449e-43
5.8552777e-43
6.0903038e-43
7.5928035e-43
8.7594176e-43
7.6312016e-43
7.3683611e-43
8.5002863e-43
5.938203e-43
6.0439803e-43
7.8467965e-43
7.6576234e-43
2.7076719e-42
2.8314266e-42
2.6033673e-42
2.5781588e-42
1.8632454e-42
1.8002957e-42
2.7572024e-42
2.6819596e-42
2.6007389e-42
2.5135424e-42
1.8224962e-42
1.8637303e-42
1.2253945e-42
2.6132107e-42
2.7332921e-42
1.2370004e-42
2.7549681e-42
2.6896961e-42
1.2327247e-42
1.2108412e-42
1.2070086e-42
2.6220584e-42
2.6837409e-42
1.2090286e-42
1.1999899e-42
2.6255141e-42
1.1795598e-42
2.6440433e-42
8.1990634e-43
7.840721e-43
7.7422266e-43
7.9010542e-43
7.2573233e-43
7.5351007e-43
7.7801861e-43
8.3593092e-43
5.9371321e-43
8.0608554e-43
7.7505421e-43
5.8513749e-43
7.7488398e-43
5.7537486e-43
5.9964292e-43
7.9577747e-43
7.2279658e-43
6.9538052e-43
7.5595796e-43
8.1127367e-43
5.7741572e-43
5.9926918e-43
7.8404975e-43
7.7222358e-43
7.7095673e-43
5.738398e-43
5.5974351e-43
7.3252105e-43
7.3249673e-43
7.4915872e-43
8.1894456e-43
8.4739567e-43
2.5798707e-42
2.7253512e-42
2.5568589e-42
2.4946668e-42
1.9087174e-42
1.8665001e-42
2.6838885e-42
2.6320739e-42
2.4535142e-42
2.5370873e-42
1.8526189e-42
1.9027969e-42
1.7994085e-42
1.8531543e-42
2.6627798e-42
2.5434395e-42
1.1866033e-42
1.2007489e-42
1.2327434e-42
2.7282567e-42
2.6506286e-42
1.1870854e-42
1.8571958e-42
1.8228188e-42
2.6989881e-42
2.6711702e-42
1.2126186e-42
1.2179539e-42
1.210035e-42
2.6465236e-42
2.6250815e-42
1.1686234e-42
7.2985946e-43
7.4753386e-43
8.6108564e-43
8.1688238e-43
7.6550592e-43
5.7168944e-43
5.9652067e-43
7.7853043e-43
8.2027596e-43
7.2357427e-43
6.9431832e-43
7.5911664e-43
5.7025795e-43
5.7483133e-43
7.8450406e-43
7.5764776e-43
7.5406079e-43
7.6033861e-43
8.122575e-43
7.8853572e-43
7.3787942e-43
5.5859942e-43
5.9027566e-43
7.6397549e-43
8.0541298e-43
7.5037229e-43
7.1351782e-43
7.5203902e-43
5.7785728e-43
5.8407618e-43
7.8906535e-43
7.5870121e-43
2.5123708e-42
2.65006e-42
2.5124845e-42
2.4711485e-42
2.5636297e-42
2.4559952e-42
2.4578888e-42
2.3920501e-42
2.7187166e-42
2.6596302e-42
1.2140216e-42
1.2216938e-42
1.2473862e-42
2.7927333e-42
2.7449599e-42
1.2008256e-42
1.239668e-42
2.6823701e-42
2.7453791e-42
1.2376444e-42
2.6848656e-42
2.6689438e-42
1.1958727e-42
1.1793554e-42
7.5784193e-43
7.6758413e-43
8.4314083e-43
8.158807e-43
7.4321451e-43
5.6349088e-43
5.9758418e-43
7.6850541e-43
8.5076155e-43
7.5096367e-43
7.1535696e-43
8.0005902e-43
5.8223947e-43
5.852242e-43
7.8359957e-43
7.6188063e-43
8.9569806e-43
7.5393845e-43
7.3982737e-43
8.5147502e-43
8.5990286e-43
7.2056074e-43
6.9778146e-43
7.9426373e-43
7.4139541e-43
5.6474667e-43
5.9495659e-43
7.5544899e-43
5.603254e-43
5.7048573e-43
7.5461972e-43
7.2062293e-43
1.3826309e-42
1.2099355e-42
2.2036535e-42
1.3817718e-42
1.2615058e-42
2.268795e-42
2.2853992e-42
3.2625887e-42
3.3436869e-42
5.7534002e-42
5.622448e-42
7.0463303e-42
6.6610319e-42
2.6665406e-41
2.5620451e-41
3.2677509e-42
3.5325269e-42
6.0170579e-42
5.2931085e-42
3.4822728e-42
3.4696698e-42
5.7908735e-42
5.8360582e-42
6.8501277e-42
6.9101435e-42
2.5934528e-41
2.7679386e-41
7.2354889e-42
6.8454506e-42
2.7506278e-41
2.6247187e-41
3.462624e-42
4.2438309e-42
4.1438212e-42
1.1744739e-42
1.4823381e-42
3.8250367e-42
4.3080866e-42
4.3068534e-42
2.2470022e-42
2.2718811e-42
2.2854398e-42
2.2912347e-42
3.1465082e-42
3.0422232e-42
2.3795583e-42
2.3877263e-42
2.2750013e-42
2.3339307e-42
5.9571907e-42
6.4931091e-42
3.0882435e-42
3.190971e-42
2.4073754e-42
2.3674619e-42
2.4257718e-42
6.4888208e-42
2.3074203e-42
6.5243825e-42
3.2453553e-42
3.0801643e-42
2.4846441e-42
2.3038622e-42
2.4339978e-42
6.2916635e-42
2.4950443e-42
6.7239103e-42
3.2811749e-42
3.15715e-42
2.4569283e-42
2.4825444e-42
2.4820802e-42
2.2416399e-42
6.451907e-42
6.3863231e-42
9.0582084e-43
8.6853014e-43
9.2292247e-43
9.1108585e-43
8.9496868e-43
8.6211053e-43
8.2381378e-43
8.7148258e-43
8.6007637e-43
8.127866e-43
8.9265003e-43
9.0368636e-43
9.5753285e-43
9.0044462e-43
9.5604093e-43
9.2763258e-43
6.7763025e-43
1.9848689e-42
2.0085065e-42
6.9844292e-43
1.9263139e-42
2.0934633e-42
6.9231536e-43
6.690702e-43
7.8662724e-43
7.5095542e-43
8.1436886e-43
8.2940711e-43
6.9375554e-43
2.1448346e-42
2.2475723e-42
6.9214893e-43
2.1884164e-42
2.1027715e-42
7.0948322e-43
6.9636514e-43
9.0255041e-43
8.4234862e-43
9.0119872e-43
9.1039436e-43
9.3276644e-43
8.8257401e-43
9.4235999e-43
9.3740143e-43
8.6787346e-43
8.8756056e-43
8.5849571e-43
8.2166775e-43
2.4304203e-42
2.3139523e-42
7.2722376e-43
7.409879e-43
2.3119182e-42
2.4784284e-42
7.4309862e-43
7.1657228e-43
2.2052368e-42
2.3250905e-42
7.4495005e-43
7.7340721e-43
7.970639e-43
2.4721841e-42
2.4592475e-42
7.6326982e-43
2.5412534e-42
2.7628393e-42
7.8576154e-43
8.0979249e-43
7.9739947e-43
2.8266636e-42
2.5511101e-42
8.0150545e-43
2.5543617e-42
2.4621095e-42
7.9373205e-43
8.3929513e-43
2.5905164e-42
2.7154326e-42
8.4229841e-43
7.9753456e-43
2.3093951e-42
2.4490676e-42
2.4786195e-42
2.5381312e-42
2.4630254e-42
2.413359e-42
2.6679347e-42
2.4808869e-42
2.8290522e-42
2.5825959e-42
7.7851184e-43
8.1221146e-43
2.6807754e-42
2.881582e-42
8.46734e-43
8.2192353e-43
2.4478695e-42
2.2563143e-42
6.9199493e-43
6.9471719e-43
2.4992771e-42
2.6136004e-42
7.3479101e-43
7.3394425e-43
2.1951976e-42
2.3919211e-42
2.4888698e-42
2.4354183e-42
2.608304e-42
2.691442e-42
2.8848663e-42
2.7415261e-42
2.4844756e-42
2.3906913e-42
2.6045945e-42
2.733767e-42
2.5702438e-42
2.5019497e-42
2.6630221e-42
2.8268737e-42
1.1365056e-42
1.1570591e-42
1.0266092e-42
1.0365145e-42
1.1320645e-42
1.0344241e-42
1.1529157e-42
1.0497951e-42
1.2295587e-42
9.8787595e-43
1.2304751e-42
9.9373499e-43
1.2366939e-42
9.9365938e-43
1.2269316e-42
9.8605067e-43
5.8065778e-43
6.0101187e-43
6.7289052e-43
6.6201449e-43
6.6982438e-43
5.8088426e-43
6.1687547e-43
7.0006144e-43
6.6450427e-43
7.0236935e-43
8.2938732e-43
8.0381845e-43
8.6372406e-43
8.2247508e-43
8.33782e-43
8.7862481e-43
8.0987889e-43
8.276709e-43
6.8048514e-43
7.3875861e-43
5.8943129e-43
6.3009866e-43
6.7319487e-43
6.762618e-43
7.0583342e-43
6.1244596e-43
6.6754825e-43
7.1216285e-43
7.0424686e-43
7.6037838e-43
8.4373872e-43
8.2461444e-43
9.0893688e-43
8.6811761e-43
8.7788983e-43
8.5615886e-43
9.5619914e-43
9.0581429e-43
7.1947624e-43
7.1174397e-43
1.2778141e-42
1.0461063e-42
1.3143495e-42
1.0692279e-42
1.1891085e-42
1.0903458e-42
1.2552866e-42
1.1429914e-42
1.145298e-42
1.0624595e-42
1.2007345e-42
1.1067598e-42
1.3237993e-42
1.0793035e-42
1.3642901e-42
1.1115337e-42
5.7936827e-43
5.9225297e-43
5.5602387e-43
6.3609971e-43
7.3776141e-43
6.1404357e-43
6.0759589e-43
7.0421877e-43
1.3119497e-42
1.3002147e-42
1.2061368e-42
1.1985812e-42
1.2902895e-42
1.2799505e-42
1.1919966e-42
1.2074784e-42
1.5014586e-42
1.4089886e-42
1.1591248e-42
1.1404637e-42
1.4722873e-42
1.4246958e-42
1.1190941e-42
1.1491952e-42
1.3114703e-42
1.3366267e-42
1.1948869e-42
1.2341357e-42
1.2219452e-42
1.1747005e-42
1.0942489e-42
1.1641487e-42
2.384113e-42
2.480183e-42
2.6324482e-42
2.5643578e-42
1.4792988e-42
1.434925e-42
1.1344232e-42
1.1611654e-42
1.3641926e-42
1.3534349e-42
1.0302383e-42
1.096696e-42
1.3678264e-42
1.1661335e-42
1.3765596e-42
1.1725988e-42
1.3155229e-42
1.1185748e-42
1.3145181e-42
1.1265689e-42
1.2426872e-42
1.2323851e-42
9.8246901e-43
9.7920321e-43
1.2958881e-42
1.2742523e-42
1.0162291e-42
1.0004992e-42
1.6931508e-42
1.640774e-42
1.6224632e-42
1.7119286e-42
1.3719689e-42
1.1659622e-42
1.4142829e-42
1.2048297e-42
1.3013269e-42
1.313104e-42
1.0174661e-42
1.0364363e-42
1.1899933e-42
1.0144023e-42
1.2620708e-42
1.0768651e-42
1.1675776e-42
1.1227116e-42
8.8700758e-43
9.2730502e-43
1.5265809e-42
1.5419746e-42
1.6953047e-42
1.6705968e-42
2.2506509e-42
2.3629345e-42
2.3713961e-42
2.670651e-42
1.1369676e-42
1.3111536e-42
1.2064762e-42
1.2180967e-42
9.7696286e-43
1.0294898e-42
9.7229959e-43
9.1097396e-43
9.4445275e-43
7.2473373e-43
1.0010426e-42
1.2665981e-42
1.1983103e-42
1.2396027e-42
1.2291821e-42
7.4462333e-43
1.2226173e-42
9.8511271e-43
1.3101071e-42
1.0496151e-42
1.3113798e-42
1.3555064e-42
1.1844107e-42
1.2206294e-42
1.1098112e-42
1.0190404e-42
1.2213696e-42
1.1088737e-42
1.4158897e-42
1.1424435e-42
1.4399487e-42
1.1716436e-42
1.0000071e-42
9.4932505e-43
1.06688e-42
9.8214346e-43
8.374036e-43
8.0280532e-43
9.5803612e-43
8.8855139e-43
5.8216212e-43
6.5665846e-43
6.7244469e-43
6.9995682e-43
7.4409094e-43
6.9322265e-43
7.3282905e-43
7.483903e-43
8.3979623e-43
8.0599885e-43
7.713146e-43
7.8617584e-43
1.3644427e-42
1.3604789e-42
1.0972565e-42
1.096955e-42
1.2772489e-42
1.2953231e-42
1.1597677e-42
1.1690926e-42
1.2417855e-42
1.1405917e-42
1.251584e-42
1.1498259e-42
1.3978694e-42
1.3913253e-42
1.1379229e-42
1.1376887e-42
9.7148563e-43
9.2890551e-43
1.0211437e-42
9.4372318e-43
9.4116824e-43
9.0125278e-43
9.7433365e-43
9.1242524e-43
6.5649128e-43
6.684022e-43
7.4397895e-43
7.5716085e-43
7.4925894e-43
6.6981636e-43
6.989494e-43
7.7226832e-43
7.6913728e-43
7.9792563e-43
7.3210022e-43
7.9264685e-43
6.940155e-43
5.7610833e-43
5.8008363e-43
7.2555014e-43
6.1657232e-43
6.3241822e-43
6.7761417e-43
7.8042041e-43
1.76238e-42
3.079261e-42
3.0709295e-42
2.569216e-42
3.4517227e-43
3.6802687e-43
4.5423162e-43
4.218841e-43
3.3506646e-43
3.7795136e-43
4.2556992e-43
4.5219067e-43
3.6457154e-43
3.0335151e-43
3.0906107e-43
1.2430767e-42
1.2584497e-42
1.136534e-42
1.1510578e-42
1.1996682e-42
1.1069888e-42
1.2084805e-42
1.1295156e-42
1.3617023e-42
1.035019e-42
1.3286699e-42
1.0626401e-42
1.4171339e-42
1.3619873e-42
1.0825625e-42
1.0865556e-42
8.863248e-43
8.6763645e-43
1.1141837e-42
1.1478187e-42
1.2017698e-42
1.2068164e-42
1.021703e-42
1.0298193e-42
1.1961693e-42
1.1977444e-42
1.0063054e-42
1.0056407e-42
1.1477093e-42
8.9339822e-43
8.8844986e-43
1.1302817e-42
1.1964465e-42
9.4111077e-43
1.1998687e-42
9.4468692e-43
1.272236e-42
1.3160506e-42
1.0878351e-42
1.1223021e-42
1.2380683e-42
1.0677842e-42
1.2645106e-42
1.0943507e-42
1.2349762e-42
1.2418589e-42
9.732556e-43
9.8189494e-43
1.3449066e-42
9.9940892e-43
1.311098e-42
1.02599e-42
1.1222453e-42
1.1022561e-42
1.0056657e-42
9.8861285e-43
1.1573882e-42
1.0597064e-42
1.1491003e-42
1.0799231e-42
1.3137628e-42
1.2056715e-42
9.9219597e-43
9.5785404e-43
3.5576184e-43
3.3174392e-43
3.3323684e-43
3.4804741e-43
3.4360148e-43
3.5358727e-43
3.2842842e-43
3.2458236e-43
3.0604576e-43
3.4323897e-43
3.0718172e-43
3.491799e-43
3.3932901e-43
3.0422665e-43
3.4859946e-43
3.0754513e-43
3.4911374e-43
3.6534956e-43
3.429747e-43
3.6241895e-43
3.5125742e-43
3.1618164e-43
3.1719457e-43
3.5937477e-43
3.3970986e-43
3.6594656e-43
3.3766183e-43
3.6069812e-43
3.5609079e-43
3.1671666e-43
3.5297437e-43
3.137124e-43
3.9204123e-43
3.9173751e-43
3.8739145e-43
3.9463761e-43
3.5954077e-43
4.4244658e-43
4.4092714e-43
3.5857571e-43
3.8649259e-43
3.8172021e-43
3.90359e-43
3.7710652e-43
3.5496491e-43
4.426862e-43
4.3199026e-43
3.5732156e-43
3.8431127e-43
3.7736324e-43
3.7782805e-43
3.8297774e-43
3.5088956e-43
4.3543581e-43
4.3185035e-43
3.4990989e-43
3.8367867e-43
3.7800573e-43
3.7514125e-43
3.7861142e-43
3.5891218e-43