/*--------------------------------*- C++ -*----------------------------------*\
  =========                 |
  \\      /  F ield         | OpenFOAM: The Open Source CFD Toolbox
   \\    /   O peration     | Website:  https://openfoam.org
    \\  /    A nd           | Version:  7
     \\/     M anipulation  |
\*---------------------------------------------------------------------------*/
FoamFile
{
    version     2.0;
    format      ascii;
    class       volVectorField;
    location    "7000";
    object      UMean;
}
// * * * * * * * * * * * * * * * * * * * * * * * * * * * * * * * * * * * * * //

dimensions      [0 1 -1 0 0 0 0];

internalField   nonuniform List<vector> 
33730
(
(-4.9980529e+39 -5.0897085e+38 5.1303728e+38)
(-6.093085e+39 -2.6092887e+38 4.2656297e+38)
(-4.5887234e+39 -5.8429837e+38 2.2524572e+37)
(-4.5500669e+39 -2.1992951e+38 6.6124506e+38)
(-4.9523948e+39 -2.3582489e+38 5.5757375e+38)
(-4.5168611e+39 -3.4427001e+38 6.24916e+38)
(-4.9739496e+39 -6.0278483e+38 5.4048826e+38)
(-4.8977952e+39 -1.6550601e+38 5.1788382e+38)
(-6.2581084e+39 -1.7302477e+38 9.1845097e+37)
(-4.8940029e+39 -1.7900095e+38 3.8096004e+38)
(-4.8432138e+39 -1.1536765e+38 3.4549185e+38)
(-6.0276247e+39 -3.145935e+38 4.3077096e+38)
(-4.3861866e+39 -1.1310443e+38 -5.2502761e+38)
(-4.4240978e+39 -2.6963091e+38 -5.2525558e+38)
(-3.5422886e+39 -4.7006811e+38 6.0860602e+36)
(-3.5169477e+39 -1.8204731e+38 -7.0032122e+36)
(-4.5355839e+39 -7.4263006e+38 9.0687068e+37)
(-3.78211e+39 -1.3402179e+38 4.9182367e+38)
(-4.7069824e+39 -9.1292522e+37 5.7337789e+38)
(-3.8007783e+39 -1.6077801e+38 4.7261658e+38)
(-4.6808052e+39 -1.9525191e+38 5.8536014e+38)
(-3.7540787e+39 -1.885805e+38 4.6118311e+38)
(-3.7674926e+39 -1.5617395e+38 4.6795176e+38)
(-4.6023979e+39 -8.4657822e+37 5.2287075e+38)
(-4.4618298e+39 -2.8514657e+38 6.7162872e+38)
(-4.6096826e+39 -1.8598863e+38 5.2686222e+38)
(-4.5014545e+39 -4.0193099e+38 6.4406826e+38)
(-4.7894136e+39 -2.4912848e+38 5.3716486e+38)
(-4.9033592e+39 -1.8874946e+38 5.535701e+38)
(-4.9253653e+39 -6.3011495e+38 5.5437206e+38)
(-6.2011259e+39 -2.0674883e+38 1.0694597e+38)
(-5.1277986e+39 -1.5842074e+38 1.9502336e+38)
(-4.9226739e+39 -7.3436046e+37 -1.2922091e+38)
(-4.1381469e+39 -1.196445e+38 -4.6086916e+37)
(-4.1342683e+39 -1.2613547e+38 -4.2292287e+37)
(-4.2185669e+39 -9.0260689e+37 -6.9185389e+37)
(-4.2103108e+39 -5.9447233e+37 -5.8391198e+37)
(-5.1085147e+39 -8.326827e+37 1.7548258e+38)
(-4.9372201e+39 -1.0055088e+38 -1.1806853e+38)
(-4.4245269e+39 -1.4499664e+38 3.6776515e+38)
(-4.4483239e+39 -5.8942402e+37 3.5811432e+38)
(-4.3778479e+39 -5.3541777e+37 3.5376447e+38)
(-4.3985064e+39 -1.5070069e+38 3.5528617e+38)
(-4.8138751e+39 -1.7907309e+38 3.8165665e+38)
(-4.8239318e+39 -1.1248374e+38 3.579689e+38)
(-4.0939415e+39 -6.1924117e+37 -4.9635587e+38)
(-4.2961912e+39 -1.5841008e+37 -4.5602195e+38)
(-4.263303e+39 -9.0397076e+37 -4.5046339e+38)
(-4.0675353e+39 -5.6031007e+37 -5.0653552e+38)
(-4.3217562e+39 -1.8349173e+38 -5.0175717e+38)
(-4.0686176e+39 -9.2444185e+37 -4.8824198e+38)
(-4.2700616e+39 -3.5866571e+37 -4.3791306e+38)
(-4.2600885e+39 -9.4631538e+37 -4.387978e+38)
(-4.0594842e+39 -6.7675725e+37 -4.9437714e+38)
(-3.4411491e+39 -2.948545e+38 3.2431126e+36)
(-3.325235e+39 -1.3544622e+38 -6.3699496e+38)
(-2.500304e+39 -3.1272908e+38 -9.0755679e+36)
(-3.3108461e+39 -6.5915074e+37 -6.4007528e+38)
(-2.534203e+39 -1.3195124e+38 6.4226021e+36)
(-3.2967028e+39 -4.9653866e+37 -6.4681595e+38)
(-2.5844942e+39 -2.537121e+38 8.433726e+36)
(-3.3455813e+39 -9.5873754e+37 -6.4813352e+38)
(-2.5212174e+39 -8.8838734e+37 -1.359323e+36)
(-4.4453926e+39 -8.1109557e+38 1.0327952e+38)
(-4.3510266e+39 -3.1362882e+38 -4.962978e+38)
(-3.4801746e+39 -5.5224128e+38 2.9442843e+37)
(-3.1584994e+39 -8.9529567e+37 3.6417257e+38)
(-3.1467033e+39 -7.79461e+37 3.8138128e+38)
(-4.0855472e+39 -6.6575327e+37 4.854717e+38)
(-4.06627e+39 -1.3833845e+38 4.9261144e+38)
(-3.15833e+39 -1.0698949e+38 3.7543305e+38)
(-4.0750059e+39 -5.4707751e+37 4.7750909e+38)
(-3.1384834e+39 -9.0549837e+37 3.6289684e+38)
(-4.0763369e+39 -1.1999172e+38 4.7192315e+38)
(-3.1527511e+39 -1.2014101e+38 3.7176535e+38)
(-3.7798936e+39 -1.685589e+38 5.1526783e+38)
(-4.0398535e+39 -5.8571088e+37 4.6658046e+38)
(-3.1403238e+39 -1.1706543e+38 3.6150299e+38)
(-4.0396651e+39 -1.3312752e+38 4.6209928e+38)
(-3.1603512e+39 -1.1646184e+38 3.591536e+38)
(-3.1536121e+39 -9.6921684e+37 3.773185e+38)
(-4.0743251e+39 -8.2999453e+37 4.6852337e+38)
(-4.0452586e+39 -1.4523962e+38 4.7053388e+38)
(-4.5582138e+39 -2.0533652e+38 5.675336e+38)
(-3.8042337e+39 -1.9421699e+38 4.9591575e+38)
(-4.6143974e+39 -9.2660166e+37 5.7052689e+38)
(-3.7644188e+39 -1.8373577e+38 5.095657e+38)
(-3.7751345e+39 -2.215465e+38 5.0577566e+38)
(-4.3905647e+39 -3.1236684e+38 6.8875558e+38)
(-4.6295666e+39 -1.0308003e+38 5.6400954e+38)
(-4.6301305e+39 -1.9095457e+38 5.6774122e+38)
(-4.791512e+39 -2.6490208e+38 5.7849718e+38)
(-4.4568334e+39 -4.1112348e+38 6.435348e+38)
(-4.7861126e+39 -1.7504545e+38 5.5299522e+38)
(-4.8841946e+39 -1.0647893e+38 -1.0739857e+38)
(-5.0927908e+39 -8.0524149e+37 1.7564049e+38)
(-4.8369563e+39 -6.4016927e+37 -1.4393142e+38)
(-4.1659059e+39 -1.0560554e+38 -1.2810565e+37)
(-4.1281911e+39 -1.1786395e+38 -3.3760097e+37)
(-4.0941696e+39 -1.1206049e+38 -5.8056659e+37)
(-4.1354581e+39 -8.5009984e+37 -4.4240308e+37)
(-5.0558898e+39 -1.6261922e+38 1.9167084e+38)
(-4.6282215e+39 -1.3186587e+38 2.7745991e+38)
(-4.6798472e+39 -6.2276195e+37 2.7872022e+38)
(-4.4540349e+39 -9.4554728e+37 9.006823e+36)
(-4.4689522e+39 -6.3555571e+37 -6.7107963e+36)
(-4.386972e+39 -4.660087e+37 -1.9728676e+38)
(-4.4178877e+39 -7.1844282e+37 -1.9453401e+38)
(-4.5289987e+39 -9.6591434e+37 -8.1177406e+37)
(-4.5180512e+39 -5.0663354e+37 -8.1609298e+37)
(-4.9819193e+39 -3.0400048e+37 -1.0415628e+38)
(-4.9610652e+39 -1.0567088e+38 -1.0898052e+38)
(-4.4619539e+39 -1.1017762e+38 1.1165096e+37)
(-4.4563363e+39 -6.152368e+37 1.0320061e+37)
(-4.5951463e+39 -5.4927173e+37 2.615706e+38)
(-4.6009778e+39 -1.3727495e+38 2.5818814e+38)
(-4.5230933e+39 -5.4127105e+37 -9.5775413e+37)
(-4.3956635e+39 -4.7395436e+37 -2.2009564e+38)
(-4.4034973e+39 -7.399869e+37 -2.0238593e+38)
(-4.4961544e+39 -9.3282466e+37 -8.7640426e+37)
(-3.8734333e+39 -4.0984411e+37 -7.4876625e+37)
(-3.7923391e+39 -4.8696252e+37 -1.4247698e+38)
(-3.8909641e+39 -4.3521714e+37 -1.3811396e+38)
(-3.838804e+39 -4.8077854e+37 -1.7102001e+38)
(-4.4713456e+39 -3.8711277e+37 -2.0459065e+38)
(-3.8956997e+39 -3.8953247e+37 1.4127142e+38)
(-3.9558083e+39 -3.4488956e+37 6.4362184e+37)
(-3.8055588e+39 -4.2817783e+37 -5.4130217e+37)
(-3.8360203e+39 -1.1072036e+38 3.2367674e+38)
(-3.8461854e+39 -3.9683787e+37 3.1175471e+38)
(-3.8418827e+39 -4.1340198e+37 3.1400464e+38)
(-3.8511884e+39 -1.0756744e+38 3.0944459e+38)
(-3.8140743e+39 -4.4167788e+37 3.2157299e+38)
(-4.3726436e+39 -1.4722294e+38 3.9003953e+38)
(-3.8235422e+39 -1.1959164e+38 3.1560404e+38)
(-3.8271617e+39 -1.1497933e+38 3.1720401e+38)
(-3.8354166e+39 -5.3169233e+37 3.0420032e+38)
(-4.3780767e+39 -4.5442755e+37 3.6900364e+38)
(-4.4176447e+39 -1.4380731e+38 3.6929829e+38)
(-4.3941241e+39 -6.0182243e+37 3.7067631e+38)
(-4.8022173e+39 -1.9679415e+38 3.9823324e+38)
(-5.0651627e+39 -1.054931e+38 -4.553235e+38)
(-5.0480098e+39 -1.143255e+38 -4.4719995e+38)
(-4.3435224e+39 -3.8884678e+37 -5.6850629e+38)
(-4.2097767e+39 7.2517381e+36 -3.5441275e+38)
(-4.1888701e+39 -6.2270689e+37 -3.5585211e+38)
(-4.3264249e+39 -5.2311888e+37 -5.7037703e+38)
(-4.0508633e+39 -9.8826761e+37 -4.7490776e+38)
(-4.2641376e+39 -4.4545692e+37 -4.320161e+38)
(-4.2241864e+39 -1.2570973e+38 -4.2215833e+38)
(-4.0208755e+39 -1.0214664e+38 -4.8923859e+38)
(-4.319026e+39 -5.7736677e+37 -5.5884997e+38)
(-4.1900114e+39 -1.0503955e+36 -3.4541239e+38)
(-4.2016171e+39 -7.4804953e+37 -3.4952412e+38)
(-4.3218931e+39 -7.3013633e+37 -5.6724804e+38)
(-3.3137824e+39 -1.4447245e+38 -6.2936116e+38)
(-3.2625606e+39 -1.076145e+38 -6.2944316e+38)
(-2.5574224e+39 -3.2644604e+38 3.5679149e+37)
(-2.4907294e+39 -1.763713e+38 1.5251562e+37)
(-3.463938e+39 -5.1843932e+37 -5.7438585e+38)
(-3.4674541e+39 -1.2189216e+37 -5.7488896e+38)
(-2.9013007e+39 -5.6175083e+37 -6.8360384e+38)
(-2.898583e+39 -5.5647392e+37 -6.7892155e+38)
(-2.0127101e+39 -9.2704001e+37 -6.1977623e+38)
(-2.0143938e+39 -6.7456597e+37 -6.1154135e+38)
(-1.7731815e+39 -9.7483242e+37 1.3454486e+38)
(-1.7419813e+39 -1.9539806e+38 1.0943585e+38)
(-3.4619726e+39 -5.5300198e+37 -5.8552928e+38)
(-3.4812993e+39 -2.9369061e+36 -5.8425883e+38)
(-2.9033326e+39 -5.3597256e+37 -6.9565192e+38)
(-2.9197804e+39 -3.6828334e+37 -6.8483167e+38)
(-2.0399454e+39 -7.2476625e+37 -6.2289183e+38)
(-2.0141496e+39 -5.9733614e+37 -6.292544e+38)
(-1.80655e+39 -1.777149e+38 1.4034563e+38)
(-1.7831819e+39 -6.4330438e+37 1.3765827e+38)
(-3.4870025e+39 1.2090222e+37 -5.8921998e+38)
(-3.4701705e+39 -4.3021357e+37 -5.9165384e+38)
(-2.9130663e+39 -3.7485092e+37 -7.0215669e+38)
(-2.9265816e+39 -1.9065583e+37 -6.8899375e+38)
(-2.0569939e+39 -6.496526e+37 -6.3656951e+38)
(-2.0371635e+39 -3.9547091e+37 -6.2488434e+38)
(-1.7931601e+39 -5.2196513e+37 1.3007212e+38)
(-1.8023605e+39 -1.6361314e+38 1.1726587e+38)
(-3.4813462e+39 -3.6530784e+37 -5.8587991e+38)
(-3.4949356e+39 8.3763296e+36 -5.8851083e+38)
(-2.9195628e+39 -3.5830623e+37 -6.9176203e+38)
(-2.9399646e+39 -3.0927168e+37 -6.9611682e+38)
(-2.04113e+39 -4.5868282e+37 -6.258998e+38)
(-2.0154992e+39 -4.0779652e+37 -6.3456127e+38)
(-1.8094672e+39 -1.3727904e+38 1.4164208e+38)
(-1.7766633e+39 -3.3977985e+37 1.3038679e+38)
(-4.3420409e+39 -3.0131254e+38 -5.0822237e+38)
(-4.2695411e+39 -2.0501332e+38 -4.8413093e+38)
(-3.4757003e+39 -5.7499333e+38 2.9843874e+37)
(-3.3840828e+39 -3.619344e+38 2.4288624e+37)
(-4.0302199e+39 -1.1420135e+38 -4.7443149e+38)
(-4.2464434e+39 -5.0531245e+37 -4.2055427e+38)
(-4.2189004e+39 -1.1099455e+38 -4.1377626e+38)
(-4.0025742e+39 -9.7752827e+37 -4.6788433e+38)
(-3.2981156e+39 -1.6590701e+38 -6.2218722e+38)
(-3.2565211e+39 -1.0841173e+38 -6.1498934e+38)
(-2.5042174e+39 -3.5501801e+38 2.1925663e+37)
(-2.5025154e+39 -1.9863546e+38 4.1649581e+37)
(-2.7385067e+39 -7.9175953e+37 3.56869e+38)
(-3.4833263e+39 -4.3346467e+37 4.3487382e+38)
(-2.7263556e+39 -5.3267707e+37 3.4556023e+38)
(-3.4872592e+39 -7.7294364e+37 4.3004152e+38)
(-2.7380559e+39 -5.7526077e+37 3.5181736e+38)
(-2.7249063e+39 -4.600577e+37 3.5993869e+38)
(-3.4739661e+39 -9.6901022e+37 4.4814426e+38)
(-3.4877474e+39 -5.2048837e+37 4.4520885e+38)
(-2.7281975e+39 -9.1580755e+37 3.5682326e+38)
(-2.7326299e+39 -7.7037093e+37 3.5440038e+38)
(-3.4727407e+39 -4.7395137e+37 4.4183804e+38)
(-3.4821551e+39 -8.9256168e+37 4.3991957e+38)
(-2.7346905e+39 -8.3895696e+37 3.4748609e+38)
(-3.4853257e+39 -6.2467643e+37 4.3265328e+38)
(-2.7184581e+39 -5.935976e+37 3.5495056e+38)
(-3.4726184e+39 -1.0042862e+38 4.3505939e+38)
(-3.1617543e+39 -9.8413212e+37 4.0142166e+38)
(-2.7394209e+39 -9.8280582e+37 3.5713417e+38)
(-2.7408465e+39 -9.3082878e+37 3.5573558e+38)
(-3.4730353e+39 -5.3902831e+37 4.4007753e+38)
(-3.4804663e+39 -9.9104522e+37 4.3918533e+38)
(-3.195231e+39 -1.0213101e+38 3.8914151e+38)
(-4.0659829e+39 -6.6342919e+37 4.9891938e+38)
(-4.0270034e+39 -1.4556861e+38 4.9809208e+38)
(-2.7392208e+39 -9.9092755e+37 3.4427118e+38)
(-3.4793118e+39 -7.7458485e+37 4.2801791e+38)
(-2.7188464e+39 -8.0988094e+37 3.5125325e+38)
(-3.465006e+39 -1.1691523e+38 4.3080002e+38)
(-2.7255451e+39 -9.7345457e+37 3.4487234e+38)
(-2.7254166e+39 -7.8538924e+37 3.4112087e+38)
(-3.4915385e+39 -9.3032158e+37 4.2321143e+38)
(-3.4820817e+39 -6.1651817e+37 4.2362413e+38)
(-2.7422279e+39 -7.8467179e+37 3.4808041e+38)
(-2.7334151e+39 -6.2670643e+37 3.5933856e+38)
(-3.4724436e+39 -1.0776663e+38 4.4064919e+38)
(-3.4862641e+39 -6.530068e+37 4.3781256e+38)
(-3.1916477e+39 -1.2275145e+38 4.0182822e+38)
(-3.1517452e+39 -1.0298793e+38 3.7796447e+38)
(-4.0559431e+39 -5.9479814e+37 4.8524622e+38)
(-4.043406e+39 -1.1872418e+38 4.7174281e+38)
(-3.1765207e+39 -1.3360523e+38 3.9346301e+38)
(-3.1611828e+39 -1.1465525e+38 4.1293776e+38)
(-4.0546323e+39 -8.2427407e+37 4.8898045e+38)
(-4.0387731e+39 -1.5273648e+38 4.961301e+38)
(-3.7352446e+39 -1.9226654e+38 5.4090015e+38)
(-4.0357852e+39 -1.3689939e+38 4.9293192e+38)
(-3.1481563e+39 -1.2838879e+38 3.9826288e+38)
(-3.1680699e+39 -1.3335226e+38 4.0850153e+38)
(-4.0337204e+39 -6.686325e+37 4.9541478e+38)
(-4.5719006e+39 -1.0454867e+38 5.807272e+38)
(-3.7576896e+39 -2.0432823e+38 5.0870973e+38)
(-4.56109e+39 -2.2554953e+38 6.0632984e+38)
(-3.7100079e+39 -1.8728719e+38 5.008421e+38)
(-4.5494891e+39 -1.8977869e+38 5.5293638e+38)
(-4.5039455e+39 -1.0202048e+38 -6.0852485e+37)
(-4.3939835e+39 -7.7477961e+37 -1.7761262e+38)
(-4.3830779e+39 -3.8455865e+37 -1.9749144e+38)
(-4.5013404e+39 -4.452717e+37 -8.2161053e+37)
(-4.9532052e+39 -1.1467047e+38 -9.2884423e+37)
(-4.6358011e+39 -1.2812704e+38 2.6545171e+38)
(-4.6246272e+39 -5.9294033e+37 2.726732e+38)
(-4.4535069e+39 -8.839367e+37 -1.5306428e+37)
(-4.446242e+39 -6.5350483e+37 -3.8373094e+36)
(-5.0442032e+39 -1.814925e+38 1.9889767e+38)
(-4.8002662e+39 -1.1098529e+38 -1.2092192e+38)
(-4.5204191e+39 -5.3673623e+37 -9.2626125e+37)
(-4.3944765e+39 -5.2773681e+37 -2.1107811e+38)
(-4.5217074e+39 -8.319498e+37 -1.0813531e+38)
(-4.4096775e+39 -6.229269e+37 -2.2892413e+38)
(-4.9053619e+39 -3.5940832e+37 -1.230624e+38)
(-4.5779685e+39 -4.8673862e+37 2.6158071e+38)
(-4.4528105e+39 -1.0570066e+38 3.7233528e+37)
(-4.4407996e+39 -4.468218e+37 1.0435418e+37)
(-4.5632373e+39 -1.353464e+38 2.7814553e+38)
(-3.874099e+39 -8.6753984e+37 1.3607738e+38)
(-3.8752199e+39 -4.3466076e+37 1.223305e+38)
(-4.0602302e+39 -4.5082813e+37 3.1792303e+38)
(-4.0456041e+39 -1.1095287e+38 3.2663356e+38)
(-3.8772526e+39 -8.6254792e+37 1.1457106e+38)
(-3.8771455e+39 -5.5211548e+37 1.2004032e+38)
(-4.0682483e+39 -4.2121634e+37 3.1977883e+38)
(-4.0649089e+39 -1.0380788e+38 3.1159193e+38)
(-3.7860102e+39 -6.3592965e+37 -6.3423198e+37)
(-3.7944552e+39 -4.6605642e+37 -7.28937e+37)
(-3.9256488e+39 -4.5564072e+37 4.2751284e+37)
(-3.9162932e+39 -8.256082e+37 5.1447479e+37)
(-3.9459939e+39 -5.3573601e+37 4.3535075e+37)
(-3.7952974e+39 -6.3383763e+37 -8.0665798e+37)
(-3.7878324e+39 -6.147568e+37 -7.9441267e+37)
(-3.9385219e+39 -8.0466221e+37 3.8110945e+37)
(-3.8298534e+39 -4.6993095e+37 -1.6578396e+38)
(-3.8649086e+39 -4.7230266e+37 -1.3770715e+38)
(-3.8200669e+39 -3.8930196e+37 -1.7835409e+38)
(-3.8614857e+39 -5.0792726e+37 -1.4658152e+38)
(-4.4380455e+39 -3.5881987e+37 -2.069804e+38)
(-3.8417816e+39 -5.0946232e+37 -1.8350702e+38)
(-3.8809726e+39 -5.2385055e+37 -1.4957232e+38)
(-3.883345e+39 -6.3345798e+37 -1.3409114e+38)
(-3.8420842e+39 -4.8834509e+37 -1.6782107e+38)
(-4.502427e+39 -6.7578537e+37 -2.0084026e+38)
(-3.790734e+39 -6.6073515e+37 -1.3388165e+38)
(-3.7917245e+39 -5.7433434e+37 -1.5139176e+38)
(-3.8448075e+39 -5.6563779e+37 -9.5575183e+37)
(-3.8403053e+39 -7.6182882e+37 -8.3077631e+37)
(-3.7749521e+39 -5.3088434e+37 -1.4639344e+38)
(-3.7782885e+39 -5.3849635e+37 -1.3837254e+38)
(-3.8335253e+39 -5.1796998e+37 -8.2755368e+37)
(-3.832578e+39 -6.5012226e+37 -8.9986655e+37)
(-4.353049e+39 -2.7445324e+37 -2.8854109e+38)
(-4.3659165e+39 -5.3782334e+37 -2.9499467e+38)
(-4.4259866e+39 -3.5723077e+37 -2.349407e+38)
(-4.4404039e+39 -7.4260015e+37 -2.0884885e+38)
(-3.9254655e+39 -5.9309099e+37 4.3116465e+37)
(-3.7945969e+39 -5.8158888e+37 -7.1212119e+37)
(-3.9143411e+39 -9.8456071e+37 5.349964e+37)
(-3.7909194e+39 -7.985222e+37 -5.7197819e+37)
(-3.7843843e+39 -7.1625201e+37 -6.3489492e+37)
(-3.7833064e+39 -5.5163414e+37 -5.7278335e+37)
(-3.9180545e+39 -5.0246354e+37 5.8109247e+37)
(-3.9137129e+39 -8.7467544e+37 5.0498868e+37)
(-3.8653385e+39 -9.7915768e+37 1.3576978e+38)
(-3.8669809e+39 -5.3694113e+37 1.4278619e+38)
(-4.0311247e+39 -4.4978752e+37 3.2324287e+38)
(-4.0306886e+39 -1.1186012e+38 3.143642e+38)
(-4.0440307e+39 -5.8351659e+37 3.0493767e+38)
(-3.8722489e+39 -5.6879893e+37 1.2391852e+38)
(-3.8721906e+39 -1.0041285e+38 1.3886822e+38)
(-4.0234898e+39 -1.1625185e+38 3.1070817e+38)
(-3.8511622e+39 -5.8472187e+37 -9.6122821e+37)
(-3.7632754e+39 -4.6590604e+37 -1.6666292e+38)
(-3.760579e+39 -6.1703906e+37 -1.6715403e+38)
(-3.8538565e+39 -6.1201747e+37 -9.7231799e+37)
(-3.8522736e+39 -4.588689e+37 -1.6977602e+38)
(-3.8448356e+39 -5.3130627e+37 -1.7002686e+38)
(-3.8201473e+39 -5.1310536e+37 -1.959549e+38)
(-3.8233277e+39 -3.6640181e+37 -1.9438664e+38)
(-3.8418415e+39 -4.2739937e+37 -1.7991279e+38)
(-3.8615959e+39 -4.5303747e+37 -1.5758091e+38)
(-3.8351859e+39 -4.8039208e+37 -1.7312067e+38)
(-3.8514252e+39 -5.561354e+37 -1.5162989e+38)
(-3.7742262e+39 -5.4411796e+37 -1.4268758e+38)
(-3.7769785e+39 -4.4625142e+37 -1.5255985e+38)
(-3.839597e+39 -4.5509332e+37 -9.6246006e+37)
(-3.8258088e+39 -6.2040787e+37 -9.1013726e+37)
(-3.1072095e+39 -4.4037816e+37 -1.0089516e+38)
(-3.184372e+39 -3.987665e+37 -6.6601008e+37)
(-3.1234054e+39 -4.9373837e+37 -1.0046104e+38)
(-3.2022536e+39 -5.3797715e+37 -6.6309674e+37)
(-3.1321727e+39 -4.2898844e+37 -1.1410531e+38)
(-3.1803431e+39 -4.2195576e+37 -9.7457878e+37)
(-3.1507091e+39 -4.4755525e+37 -1.1347686e+38)
(-3.1973802e+39 -4.8253628e+37 -9.7439323e+37)
(-3.1698458e+39 -4.0391863e+37 -1.1732492e+38)
(-3.2090741e+39 -3.9483785e+37 -9.9688637e+37)
(-3.187298e+39 -4.2363662e+37 -1.177663e+38)
(-3.2276293e+39 -4.5643585e+37 -9.9760774e+37)
(-3.280511e+39 -3.7569133e+37 -1.1260954e+38)
(-3.2972029e+39 -4.3692109e+37 -1.1455225e+38)
(-3.309823e+39 -3.5344122e+37 -1.5039938e+38)
(-3.9169883e+39 -4.4523129e+37 -1.4732674e+38)
(-3.3303909e+39 -4.3208481e+37 -1.4885257e+38)
(-3.2912746e+39 -4.1057725e+37 -1.2413157e+38)
(-3.9271055e+39 -4.4835524e+37 -1.6006772e+38)
(-3.3201265e+39 -3.9208572e+37 -1.6268346e+38)
(-3.8821314e+39 -5.1333874e+37 -1.8195333e+38)
(-3.8931035e+39 -4.0782485e+37 -1.9886391e+38)
(-3.2762899e+39 -3.9566717e+37 5.6304024e+37)
(-3.4120842e+39 -3.4027109e+37 1.6545938e+38)
(-3.2934055e+39 -6.6067981e+37 5.5056976e+37)
(-3.1810558e+39 -4.2664307e+37 -4.6179081e+37)
(-3.3086228e+39 -3.7853802e+37 2.7908434e+37)
(-3.1963004e+39 -5.7817716e+37 -4.6230085e+37)
(-3.3254615e+39 -6.2434855e+37 2.7153745e+37)
(-3.1321953e+39 -4.2293305e+37 -8.1290728e+37)
(-3.223308e+39 -4.0273051e+37 -5.1366354e+37)
(-3.1505848e+39 -5.3271787e+37 -8.0864686e+37)
(-3.2400159e+39 -5.5860566e+37 -5.1483449e+37)
(-3.2698957e+39 -8.2341665e+37 3.2216762e+38)
(-3.2770459e+39 -3.2329999e+37 3.1380627e+38)
(-3.2718224e+39 -3.2852177e+37 3.0774064e+38)
(-3.2837832e+39 -7.3228413e+37 3.0367014e+38)
(-3.263058e+39 -4.0029956e+37 3.1591359e+38)
(-3.2794655e+39 -8.8921613e+37 3.1403675e+38)
(-3.2743961e+39 -4.2952714e+37 3.0182649e+38)
(-3.2685013e+39 -8.2703567e+37 3.0757178e+38)
(-3.2693691e+39 -4.3793573e+37 3.197558e+38)
(-3.2832375e+39 -9.3883199e+37 3.1664269e+38)
(-3.820551e+39 -1.1190049e+38 3.4463831e+38)
(-3.8340699e+39 -3.1436147e+37 3.3315544e+38)
(-3.2751533e+39 -5.5025187e+37 3.0142857e+38)
(-3.2673156e+39 -9.7430843e+37 3.0742861e+38)
(-3.2780356e+39 -4.5577192e+37 3.0806087e+38)
(-3.2731692e+39 -9.2529492e+37 3.1828833e+38)
(-3.2716512e+39 -5.1257523e+37 2.9914493e+38)
(-3.2855854e+39 -8.7678415e+37 2.9672887e+38)
(-3.8267959e+39 -9.8725069e+37 3.202052e+38)
(-3.8263219e+39 -3.6281684e+37 3.2919627e+38)
(-3.833637e+39 -4.8588134e+37 3.2168072e+38)
(-3.829819e+39 -1.1384551e+38 3.3278079e+38)
(-3.8285813e+39 -1.2024195e+38 3.3705895e+38)
(-3.816237e+39 -4.6679976e+37 3.4066319e+38)
(-4.3523777e+39 -1.5857607e+38 3.9475026e+38)
(-4.3598524e+39 -5.8011073e+37 3.7302446e+38)
(-4.3595009e+39 -1.4441853e+38 3.6562906e+38)
(-5.036886e+39 -1.5601538e+38 -4.3138087e+38)
(-4.99257e+39 -1.4334709e+38 -4.1648974e+38)
(-5.1075048e+39 -7.7107072e+37 -2.5045009e+38)
(-5.1034063e+39 -7.2163328e+37 -2.4678169e+38)
(-4.4427376e+39 -2.5510013e+37 -4.7717193e+38)
(-3.5127608e+39 2.0543641e+37 -6.0896398e+38)
(-3.5093321e+39 -3.9922696e+37 -6.1036754e+38)
(-4.3910059e+39 -3.6316899e+36 -2.6823259e+38)
(-4.3555943e+39 -5.0726422e+37 -2.6309516e+38)
(-4.4213311e+39 -3.6213178e+37 -4.7748181e+38)
(-3.4979636e+39 2.5944009e+37 -6.0429029e+38)
(-3.4985415e+39 -3.6120493e+37 -6.140969e+38)
(-4.3050749e+39 -7.2904855e+37 -5.4805182e+38)
(-4.1884686e+39 -1.059658e+37 -3.3114941e+38)
(-4.1715399e+39 -8.6571145e+37 -3.3239439e+38)
(-4.2920152e+39 -9.1253915e+37 -5.5646109e+38)
(-4.4178883e+39 -3.6060974e+37 -4.683443e+38)
(-3.484682e+39 4.2389921e+36 -5.9523894e+38)
(-3.4861132e+39 -5.2410252e+37 -5.9836275e+38)
(-4.3697698e+39 -6.6230434e+36 -2.6009216e+38)
(-4.3703913e+39 -5.8425246e+37 -2.5962613e+38)
(-4.4236703e+39 -5.1484248e+37 -4.7468269e+38)
(-3.4972204e+39 1.2607178e+37 -6.0268179e+38)
(-3.4877109e+39 -4.9896763e+37 -6.1102325e+38)
(-2.8936066e+39 -6.0499306e+37 -6.7877181e+38)
(-3.4560905e+39 -1.4217888e+37 -5.7036431e+38)
(-2.8729197e+39 -6.8388332e+37 -6.7703117e+38)
(-3.4410384e+39 -5.91534e+37 -5.6710736e+38)
(-3.4532563e+39 -1.4677447e+37 -5.7566692e+38)
(-3.4337969e+39 -7.2879338e+37 -5.7412323e+38)
(-2.889259e+39 -5.2253056e+37 -6.7866611e+38)
(-2.8691994e+39 -7.7541739e+37 -6.8789527e+38)
(-1.7924469e+39 -1.9867118e+38 1.3714509e+38)
(-2.0133116e+39 -9.627643e+37 -6.1534128e+38)
(-1.9924844e+39 -7.7554531e+37 -6.0856368e+38)
(-1.7766935e+39 -9.4942131e+37 1.4521032e+38)
(-1.9726925e+39 -8.6762833e+37 -6.189809e+38)
(-1.811293e+39 -1.7916292e+38 1.5443897e+38)
(-2.0113257e+39 -8.5524502e+37 -6.1473054e+38)
(-1.745834e+39 -8.5616749e+37 1.3361913e+38)
(-3.0305571e+39 -4.4336497e+37 -7.3510246e+38)
(-3.0342227e+39 -5.2259177e+37 -7.3450938e+38)
(-1.5112858e+39 -5.114898e+37 -6.8262386e+38)
(-1.4980887e+39 -6.2795342e+37 -6.7274019e+38)
(-2.0820878e+39 -3.9413551e+37 -6.2383628e+38)
(-2.0820701e+39 -2.3510105e+37 -6.3099045e+38)
(-1.5063792e+39 -4.4754593e+37 -6.7158127e+38)
(-1.4947151e+39 -6.2536591e+37 -6.8709286e+38)
(-2.0845883e+39 -4.1015469e+37 -6.3132553e+38)
(-2.0858664e+39 -2.001891e+37 -6.2364422e+38)
(-1.1808581e+39 -8.7828747e+37 -2.171262e+38)
(-1.1568207e+39 -8.7151586e+37 -2.3602025e+38)
(-1.7311782e+39 -1.0926821e+38 2.4947869e+38)
(-1.705728e+39 -5.3683393e+37 2.3758365e+38)
(-1.1400887e+39 -8.9845845e+37 -2.6312176e+38)
(-1.6799605e+39 -1.0905122e+38 2.2051849e+38)
(-1.1806164e+39 -1.0361535e+38 -1.9480671e+38)
(-1.7284344e+39 -8.1077417e+37 2.5389649e+38)
(-3.0419364e+39 -4.4393551e+37 -7.4694821e+38)
(-3.0523696e+39 -3.0220896e+37 -7.3724031e+38)
(-2.1062864e+39 -1.2187763e+37 -6.3491073e+38)
(-1.530648e+39 -3.9277085e+37 -6.8767911e+38)
(-2.1005392e+39 -2.8879101e+37 -6.2773649e+38)
(-1.5113108e+39 -4.9158158e+37 -6.7926245e+38)
(-2.1007758e+39 -1.1467693e+37 -6.3430809e+38)
(-2.101754e+39 -3.7192522e+37 -6.4511073e+38)
(-1.5214165e+39 -3.1592774e+37 -6.8001156e+38)
(-1.5147557e+39 -5.6697777e+37 -6.9981136e+38)
(-1.1703092e+39 -7.8415845e+37 -2.6063097e+38)
(-1.1826329e+39 -8.0251651e+37 -2.1525139e+38)
(-1.725569e+39 -6.1667166e+37 2.4556002e+38)
(-1.696621e+39 -1.0522405e+38 2.2652709e+38)
(-1.1625091e+39 -7.0882023e+37 -2.5752926e+38)
(-1.7441027e+39 -8.1507558e+37 2.5708409e+38)
(-1.7054107e+39 -2.7389481e+37 2.3266457e+38)
(-1.1941684e+39 -6.1945843e+37 -2.1959274e+38)
(-3.0452266e+39 -2.7004906e+37 -7.5034117e+38)
(-3.057288e+39 -1.4137016e+37 -7.4040797e+38)
(-2.1298844e+39 -8.368576e+36 -6.4584011e+38)
(-2.1254579e+39 -2.4724971e+37 -6.369837e+38)
(-1.5566304e+39 -3.296341e+37 -6.9659794e+38)
(-1.5399207e+39 -4.2387671e+37 -6.8465682e+38)
(-2.1110921e+39 -5.2077727e+36 -6.3414297e+38)
(-2.1058389e+39 -2.4560837e+37 -6.4066153e+38)
(-1.5323418e+39 -2.4254691e+37 -6.810328e+38)
(-1.5199768e+39 -3.8244768e+37 -6.9438994e+38)
(-1.2063196e+39 -5.8753796e+37 -2.2078214e+38)
(-1.7485593e+39 -9.2854242e+37 2.5488815e+38)
(-1.1789011e+39 -5.5864287e+37 -2.3946004e+38)
(-1.719581e+39 -2.487211e+37 2.4334937e+38)
(-1.179191e+39 -6.6937205e+37 -2.8117276e+38)
(-1.6997254e+39 -1.0016703e+38 2.2449712e+38)
(-1.2109652e+39 -7.4052234e+37 -2.1310073e+38)
(-1.7368009e+39 -6.0433127e+37 2.5291096e+38)
(-3.0571792e+39 -3.5110492e+37 -7.459648e+38)
(-3.0707137e+39 -2.2877016e+37 -7.4650378e+38)
(-2.1104623e+39 2.7649018e+36 -6.3712658e+38)
(-2.1043534e+39 -1.4374602e+37 -6.2906937e+38)
(-1.5349613e+39 -1.7474732e+37 -6.909138e+38)
(-1.516709e+39 -2.8970751e+37 -6.808978e+38)
(-2.111767e+39 1.5981551e+36 -6.3756467e+38)
(-2.1063754e+39 -2.446287e+37 -6.4717049e+38)
(-1.5258678e+39 -1.512789e+37 -6.8478519e+38)
(-1.5165037e+39 -4.1212688e+37 -7.0143342e+38)
(-1.1777528e+39 -5.0387308e+37 -2.5879741e+38)
(-1.719306e+39 -8.6295047e+37 2.3624098e+38)
(-1.1949175e+39 -5.1621813e+37 -2.0837706e+38)
(-1.7365989e+39 -2.4486295e+37 2.5413615e+38)
(-1.2021595e+39 -4.0080006e+37 -2.197292e+38)
(-1.1604794e+39 -5.1309534e+37 -2.5896873e+38)
(-1.7437223e+39 -5.3911556e+37 2.5735038e+38)
(-1.7003784e+39 -8.4232329e+36 2.3302839e+38)
(-4.1798319e+39 -9.5064414e+37 -4.2146229e+38)
(-4.202619e+39 -3.8642856e+37 -4.2828303e+38)
(-3.9858486e+39 -8.8031105e+37 -4.7272628e+38)
(-4.2030091e+39 -1.2421777e+38 -4.1136732e+38)
(-4.2388606e+39 -3.7892039e+37 -4.247099e+38)
(-4.0158681e+39 -9.7519623e+37 -4.6592164e+38)
(-3.9849555e+39 -1.1135281e+38 -4.7881333e+38)
(-3.2579897e+39 -1.0056142e+38 -6.1145517e+38)
(-2.4715391e+39 -2.1779626e+38 3.6283673e+37)
(-3.2913509e+39 -1.4492381e+38 -6.1383207e+38)
(-3.2369613e+39 -1.1985282e+38 -6.1456132e+38)
(-2.5225009e+39 -3.4261923e+38 5.0540674e+37)
(-2.467669e+39 -2.0988826e+38 4.8017373e+37)
(-4.2855341e+39 -8.3451511e+37 -5.4791162e+38)
(-4.1841198e+39 -1.0228702e+37 -3.2947873e+38)
(-4.1686551e+39 -8.3236447e+37 -3.2342297e+38)
(-4.2744043e+39 -1.0242141e+38 -5.4061094e+38)
(-3.4330416e+39 -6.7131242e+37 -5.6457508e+38)
(-3.441615e+39 -2.5369936e+37 -5.6872211e+38)
(-2.8764477e+39 -7.3891652e+37 -6.7296306e+38)
(-2.8626616e+39 -8.0303005e+37 -6.6878775e+38)
(-3.4296163e+39 -2.1956053e+37 -5.619833e+38)
(-2.8645314e+39 -6.5246123e+37 -6.6428773e+38)
(-3.4078855e+39 -7.3040977e+37 -5.6000742e+38)
(-2.8444033e+39 -8.1145008e+37 -6.7481049e+38)
(-1.9992228e+39 -1.1304586e+38 -6.1107597e+38)
(-1.7633956e+39 -2.0910303e+38 1.3985529e+38)
(-1.9857233e+39 -9.6476102e+37 -5.9978905e+38)
(-1.7650958e+39 -1.2178908e+38 1.5305355e+38)
(-1.9597749e+39 -9.1143683e+37 -6.0349149e+38)
(-1.7973821e+39 -2.0832492e+38 1.6020446e+38)
(-1.9950694e+39 -1.0276627e+38 -6.0129549e+38)
(-1.7663868e+39 -1.0431446e+38 1.6030495e+38)
(-2.3398862e+39 -5.6277731e+37 3.3198321e+38)
(-2.3195498e+39 -7.8662219e+37 3.2884224e+38)
(-3.0049088e+39 -3.5881641e+37 3.6794313e+38)
(-3.0073832e+39 -6.4792454e+37 3.6588777e+38)
(-3.0213907e+39 -4.301946e+37 3.6842168e+38)
(-2.3368769e+39 -5.5284659e+37 3.3073224e+38)
(-2.306526e+39 -2.6472836e+37 3.1988703e+38)
(-3.0070326e+39 -6.7924859e+37 3.5268461e+38)
(-2.3328812e+39 -2.8432225e+37 3.2655803e+38)
(-2.3336304e+39 -6.5041471e+37 3.3852942e+38)
(-3.0143806e+39 -3.1271905e+37 3.6975313e+38)
(-3.0123266e+39 -5.277754e+37 3.619604e+38)
(-2.3196749e+39 -2.5111248e+37 3.3372462e+38)
(-2.3402934e+39 -4.2696057e+37 3.3814265e+38)
(-3.0156928e+39 -3.7223583e+37 3.8528353e+38)
(-3.0001898e+39 -7.1829132e+37 3.7158244e+38)
(-2.3402897e+39 -7.0998643e+37 3.379754e+38)
(-2.329993e+39 -8.8866093e+37 3.3658217e+38)
(-2.9931274e+39 -4.5278836e+37 3.7104079e+38)
(-3.0047213e+39 -7.6774454e+37 3.807652e+38)
(-2.3387169e+39 -7.8961849e+37 3.3134631e+38)
(-2.3412621e+39 -4.0303951e+37 3.4117093e+38)
(-3.0096847e+39 -6.0359243e+37 3.6816941e+38)
(-3.0144858e+39 -8.371518e+37 3.7024518e+38)
(-2.3252306e+39 -5.7016917e+37 3.2516604e+38)
(-2.3106004e+39 -8.3990168e+37 3.1863094e+38)
(-2.9992366e+39 -4.6316529e+37 3.5221565e+38)
(-3.0117844e+39 -6.7940791e+37 3.6138869e+38)
(-2.3321572e+39 -6.3638184e+37 3.3076499e+38)
(-2.3133219e+39 -3.2558793e+37 3.3112594e+38)
(-3.0019875e+39 -4.5440483e+37 3.679413e+38)
(-2.9912776e+39 -7.6923638e+37 3.6009929e+38)
(-2.7655731e+39 -6.4748282e+37 3.5981959e+38)
(-2.7422733e+39 -6.5077447e+37 3.6893055e+38)
(-3.4699539e+39 -1.0655157e+38 4.5466287e+38)
(-3.4911153e+39 -5.4791272e+37 4.5436883e+38)
(-2.3503175e+39 -7.8432207e+37 3.3558106e+38)
(-2.3298867e+39 -9.7126309e+37 3.305259e+38)
(-3.0024144e+39 -5.0202478e+37 3.6962071e+38)
(-3.0181586e+39 -8.1786534e+37 3.7924911e+38)
(-2.3379726e+39 -8.4196371e+37 3.2353251e+38)
(-2.3293484e+39 -6.4368131e+37 3.2749838e+38)
(-3.017076e+39 -6.8744952e+37 3.6528959e+38)
(-3.0202138e+39 -9.4546164e+37 3.6595541e+38)
(-2.7666276e+39 -7.824536e+37 3.6989525e+38)
(-2.7509459e+39 -5.5281069e+37 3.5557422e+38)
(-3.5006624e+39 -7.4918519e+37 4.3911073e+38)
(-3.4997085e+39 -4.1451471e+37 4.4418766e+38)
(-2.3264969e+39 -6.7335719e+37 3.1996617e+38)
(-2.3196205e+39 -1.0438425e+38 3.2103125e+38)
(-3.0026281e+39 -6.0885104e+37 3.5177147e+38)
(-3.0160271e+39 -7.9160021e+37 3.5797628e+38)
(-2.3059162e+39 -6.1294384e+37 3.2299316e+38)
(-2.3258169e+39 -7.9071152e+37 3.2337756e+38)
(-3.0012127e+39 -6.1367546e+37 3.6414253e+38)
(-2.9908462e+39 -9.4039034e+37 3.5659675e+38)
(-2.331617e+39 -6.3222908e+37 3.2671397e+38)
(-2.3180938e+39 -1.0428362e+38 3.288896e+38)
(-3.0004524e+39 -5.5478578e+37 3.6151251e+38)
(-3.0045046e+39 -7.9270309e+37 3.5772209e+38)
(-2.3304625e+39 -4.7753556e+37 3.2958128e+38)
(-2.3165922e+39 -7.9047181e+37 3.1315074e+38)
(-3.0176849e+39 -6.1930391e+37 3.5657969e+38)
(-3.0102187e+39 -8.2783723e+37 3.4940707e+38)
(-2.3174115e+39 -8.3646707e+37 3.205602e+38)
(-3.0127415e+39 -4.570675e+37 3.5973677e+38)
(-3.0143885e+39 -6.7229438e+37 3.5847526e+38)
(-2.3298985e+39 -4.985309e+37 3.2367526e+38)
(-2.3364829e+39 -5.8393797e+37 3.2756466e+38)
(-2.3463438e+39 -4.3476998e+37 3.4584665e+38)
(-3.0106128e+39 -5.1444057e+37 3.7254107e+38)
(-3.0123273e+39 -8.4750517e+37 3.7787974e+38)
(-2.7642089e+39 -9.3435565e+37 3.7741909e+38)
(-2.7487652e+39 -7.4438335e+37 3.6501233e+38)
(-3.4829374e+39 -8.6664729e+37 4.4640175e+38)
(-3.4785423e+39 -4.8038975e+37 4.4980231e+38)
(-2.7523451e+39 -8.390139e+37 3.5140249e+38)
(-2.7243947e+39 -6.5173042e+37 3.5757602e+38)
(-3.4656999e+39 -9.8710604e+37 4.3477137e+38)
(-3.4857218e+39 -5.8718756e+37 4.3376005e+38)
(-2.7448088e+39 -1.1047859e+38 3.7027586e+38)
(-2.7423532e+39 -8.2005778e+37 3.6777704e+38)