/*--------------------------------*- C++ -*----------------------------------*\
  =========                 |
  \\      /  F ield         | OpenFOAM: The Open Source CFD Toolbox
   \\    /   O peration     | Website:  https://openfoam.org
    \\  /    A nd           | Version:  7
     \\/     M anipulation  |
\*---------------------------------------------------------------------------*/
FoamFile
{
    version     2.0;
    format      ascii;
    class       volScalarField;
    location    "2000";
    object      k;
}
// * * * * * * * * * * * * * * * * * * * * * * * * * * * * * * * * * * * * * //

dimensions      [0 2 -2 0 0 0 0];

internalField   nonuniform List<scalar> 
34387
(
1.5215132
1.5216942
1.5203668
1.5202312
1.5299446
1.5233175
1.5231256
1.522374
1.5222194
1.5195432
1.5195464
1.5196051
1.5196394
1.5192269
1.5192706
1.5198513
1.5195668
1.5195521
1.5196748
1.5194843
1.5192928
1.5205229
1.5195079
1.5193363
1.5191673
1.5193376
1.5192651
1.5190944
1.5191201
1.5192949
1.5203929
1.5187782
1.5187301
1.5187383
1.5243623
1.5241325
1.5231139
1.5229384
1.5319765
1.5321253
1.5314086
1.531532
1.5217347
1.5214821
1.5214605
1.5217067
1.5214747
1.5216148
1.5212417
1.5213802
1.5215607
1.5214597
1.5214401
1.5225199
1.5215386
1.5223629
1.5214604
1.5213754
1.521245
1.5213293
1.5213113
1.5212295
1.520152
1.5201657
1.519482
1.5200512
1.5200362
1.5201674
1.5194833
1.5200808
1.5200502
1.5193871
1.5193884
1.5200947
1.5195202
1.5201295
1.5196172
1.5194226
1.519521
1.5193321
1.5192859
1.5193302
1.5192827
1.5194
1.5193146
1.5193647
1.5194502
1.5197013
1.5195789
1.5194708
1.5196161
1.5202844
1.5201635
1.5201578
1.5200553
1.5195087
1.5200501
1.5201211
1.520143
1.5194958
1.5200321
1.5200091
1.5194089
1.5193971
1.5195296
1.5195703
1.5194299
1.5193687
1.5192983
1.5193047
1.5193557
1.5193474
1.519027
1.5193478
1.5192303
1.5189643
1.5194873
1.5194324
1.5193303
1.5192534
1.5192045
1.5193614
1.5193956
1.5192341
1.5191179
1.5191502
1.5191436
1.5191123
1.5191856
1.5192568
1.5192506
1.5191802
1.5191612
1.5191649
1.5192333
1.5192305
1.5190777
1.519074
1.5191459
1.5191175
1.5191211
1.5190939
1.5191411
1.5191581
1.519199
1.5191416
1.5192604
1.5191888
1.5192598
1.5193339
1.5188851
1.5188945
1.5189839
1.5189455
1.5212134
1.5227554
1.5212941
1.5223774
1.5221897
1.5220575
1.5218552
1.5220889
1.5220562
1.5217576
1.5217424
1.5221543
1.5220213
1.5218332
1.5219639
1.5232799
1.5218629
1.5217338
1.5217197
1.5218437
1.5231023
1.5216125
1.5215514
1.521215
1.5212344
1.5211572
1.5211377
1.5211533
1.5211712
1.5211879
1.5211702
1.5211386
1.5211406
1.5211567
1.5211543
1.5211239
1.5211259
1.5211988
1.5211959
1.5210678
1.5209876
1.5210083
1.5209183
1.5211396
1.5211427
1.521071
1.521075
1.5210316
1.5210352
1.5209479
1.5209357
1.5210878
1.5210922
1.5211047
1.5211007
1.5211813
1.521199
1.5212138
1.5211964
1.5215228
1.5212567
1.5212459
1.5212439
1.5212299
1.5212265
1.5212293
1.5212182
1.5212147
1.5215024
1.5213036
1.5212953
1.5211844
1.5211733
1.5211812
1.5211706
1.5214314
1.5213167
1.5212159
1.5211355
1.5211152
1.521121
1.5211327
1.5211274
1.5211732
1.5211784
1.5211662
1.5211605
1.5211224
1.5211031
1.5209977
1.5210193
1.5209544
1.5210638
1.5210684
1.5209711
1.5212958
1.5212093
1.5217248
1.5217263
1.5214654
1.5214595
1.5215078
1.5215074
1.5217748
1.5217752
1.5199446
1.5199562
1.519974
1.5199568
1.5217693
1.5217201
1.5217664
1.5217661
1.5215058
1.5214975
1.5199987
1.5199711
1.5199572
1.5199836
1.5217883
1.5217607
1.519944
1.5199201
1.5198955
1.5199193
1.519925
1.5199084
1.5198824
1.5198972
1.5218568
1.519998
1.5200082
1.5200445
1.5200284
1.5219318
1.5201077
1.520115
1.5199304
1.5199522
1.5199875
1.5199609
1.5200329
1.5200467
1.520216
1.5198375
1.5198616
1.5198751
1.5198499
1.5197859
1.519799
1.5198077
1.519795
1.5198466
1.5198696
1.5198887
1.5198662
1.5197903
1.5197993
1.5198156
1.5198069
1.5200542
1.5199135
1.5199043
1.5200412
1.5198657
1.5198323
1.5198173
1.5198508
1.5198759
1.5198941
1.5199332
1.5199078
1.5201376
1.5199842
1.519968
1.520116
1.5200738
1.5200286
1.5200822
1.5200308
1.5199668
1.5199589
1.5199664
1.5199727
1.5199285
1.5199289
1.5199062
1.5199033
1.5199861
1.5200441
1.5200226
1.5199713
1.5214298
1.5214326
1.5212402
1.5212361
1.5216203
1.521621
1.5213904
1.5213822
1.5214067
1.5214053
1.5216452
1.5216453
1.5216124
1.5199657
1.5199711
1.5199748
1.5199597
1.5216369
1.521627
1.5216265
1.5213852
1.5213768
1.5214103
1.5214129
1.5216552
1.5216564
1.5199229
1.519932
1.5199532
1.519942
1.5216472
1.5216178
1.5199022
1.5199217
1.5199185
1.5198968
1.5198631
1.5198835
1.5199055
1.5198816
1.5199479
1.5199652
1.5198858
1.5198811
1.5199406
1.5200077
1.5199872
1.5199292
1.5198678
1.51989
1.519882
1.5198635
1.5198238
1.5198401
1.5198286
1.5198142
1.5197983
1.5197854
1.5197692
1.5197853
1.5198024
1.5197968
1.5197883
1.5197922
1.5198493
1.5198611
1.5198654
1.5198473
1.5198582
1.5198384
1.5198168
1.5198364
1.519234
1.5193351
1.5192309
1.5192879
1.5192346
1.5191199
1.5191261
1.5191409
1.5191366
1.51918
1.5199069
1.5199203
1.5198167
1.519825
1.5198534
1.5198542
1.5197288
1.5197495
1.5197712
1.5197736
1.5197575
1.5197544
1.5196901
1.5196778
1.5196612
1.5196768
1.5194606
1.5194682
1.5195077
1.5194986
1.5195435
1.5196728
1.5197121
1.5195814
1.519792
1.5197867
1.5196445
1.5196681
1.51957
1.519584
1.5196032
1.5195894
1.5194114
1.5194158
1.5194591
1.5194623
1.5195557
1.5195406
1.5195468
1.5195644
1.5195463
1.5195336
1.5195608
1.5195496
1.5194499
1.5194092
1.5194633
1.5194162
1.5196422
1.5196331
1.5196417
1.519651
1.5197297
1.5197229
1.5197241
1.5197291
1.519713
1.5197177
1.5197239
1.5197225
1.5196367
1.5196281
1.5196393
1.5196444
1.5196501
1.5196424
1.5196487
1.5196581
1.5196535
1.5196466
1.5196485
1.5196579
1.5197226
1.5197256
1.5197383
1.519732
1.5197407
1.5197292
1.5197245
1.5197376
1.5190652
1.5194129
1.5194676
1.5194645
1.5194084
1.5190624
1.5193994
1.5194551
1.5194588
1.5194025
1.5190721
1.5190704
1.5195541
1.5195469
1.5195627
1.5195702
1.5195613
1.5195587
1.5195711
1.5195757
1.51908
1.5194286
1.5194854
1.5194956
1.5194348
1.5191118
1.5194749
1.5195391
1.5196314
1.5195527
1.5190905
1.5191112
1.5197542
1.5196383
1.5196551
1.5197703
1.5195967
1.5195774
1.5195912
1.5196124
1.5197548
1.5197602
1.5197882
1.5197837
1.5196768
1.5196697
1.5196945
1.5197013
1.5198661
1.5197377
1.5197458
1.5198701
1.5198318
1.5198298
1.5199663
1.5199602
1.5191244
1.5191487
1.5226777
1.5229575
1.5211633
1.5218582
1.5217145
1.5220115
1.5221802
1.5226124
1.5228539
1.5209743
1.522889
1.5226346
1.52154
1.5217228
1.5216207
1.5216145
1.5215018
1.52153
1.5215236
1.5214147
1.5214219
1.521653
1.5216295
1.5215017
1.5215436
1.5214266
1.5214553
1.5214472
1.5214215
1.5214657
1.5214676
1.5213651
1.5213636
1.5214511
1.5214349
1.5213351
1.5213514
1.5213697
1.5213712
1.5213959
1.5213938
1.5213613
1.5213839
1.5213684
1.5213488
1.5216932
1.5216917
1.5215323
1.5215633
1.5216432
1.5218019
1.5217703
1.5216167
1.5220627
1.5215175
1.5215452
1.521537
1.5215127
1.5219245
1.5214537
1.5214498
1.5214784
1.5214719
1.5217079
1.5216391
1.521396
1.5214187
1.5213937
1.5214161
1.5214667
1.5214697
1.5214539
1.5218198
1.5214508
1.5214477
1.5214589
1.5217995
1.5214437
1.5214314
1.5213773
1.5213894
1.5214102
1.5213968
1.52154
1.5215293
1.5216092
1.5215433
1.5211021
1.5210726
1.5210689
1.5210981
1.521142
1.5211129
1.5210868
1.5211173
1.5211059
1.521092
1.521069
1.5210838
1.5210691
1.5210557
1.5210531
1.5210664
1.5210412
1.5210413
1.5210487
1.5210477
1.5210536
1.521073
1.5210801
1.5210619
1.5210911
1.5210751
1.5210542
1.5210718
1.5210399
1.5210416
1.5210581
1.521056
1.5210306
1.5210295
1.5210366
1.5210367
1.5210334
1.521031
1.5210382
1.5210395
1.521047
1.5210314
1.5210319
1.5210474
1.5210449
1.5210294
1.5210289
1.5210443
1.5210415
1.5210429
1.5210557
1.521054
1.5210447
1.5210453
1.5210584
1.5210573
1.521088
1.5210611
1.521059
1.521086
1.5210555
1.5210579
1.5210843
1.5210821
1.5210093
1.5210068
1.5209903
1.5209875
1.5209196
1.5209558
1.5209005
1.5209411
1.5209848
1.5209782
1.5209829
1.5209766
1.5209336
1.5209344
1.5208972
1.5208929
1.5210464
1.5210478
1.521022
1.5210234
1.5210258
1.5210281
1.5210519
1.5210502
1.5210087
1.5210093
1.5210199
1.5210189
1.5210124
1.5210137
1.5210243
1.5210228
1.5209706
1.5209711
1.5209734
1.5209729
1.5209776
1.5209697
1.5209688
1.520977
1.5209304
1.5209266
1.5208931
1.5208845
1.5209274
1.5209309
1.5208827
1.5208871
1.5209989
1.5209974
1.521003
1.5210037
1.5210027
1.5210026
1.5210076
1.5210076
1.5210014
1.521002
1.5210149
1.5210144
1.5210104
1.5209974
1.5209977
1.5210105
1.5210779
1.5210774
1.5210702
1.5210702
1.5210857
1.5211086
1.5211012
1.5210807
1.5210867
1.5210827
1.5210609
1.521069
1.5210559
1.5210507
1.5210504
1.5210565
1.5213009
1.5212821
1.5212763
1.5212912
1.521176
1.5211924
1.5211715
1.5211531
1.5211441
1.5211346
1.5211128
1.5211232
1.5211436
1.5211683
1.521166
1.5211439
1.5211149
1.5211141
1.5211044
1.5211048
1.5212719
1.521152
1.5211524
1.5211321
1.5211303
1.5212751
1.5211561
1.521156
1.5211348
1.5211347
1.5210952
1.5211067
1.5211067
1.5210972
1.5211025
1.521104
1.5210948
1.5210933
1.5212623
1.5212601
1.5212876
1.5212763
1.5210456
1.5210403
1.5210434
1.5210488
1.5210619
1.5210708
1.5210729
1.5210652
1.5210444
1.5210392
1.5210403
1.5210458
1.521061
1.5210703
1.5210694
1.521062
1.5212208
1.5212161
1.5212005
1.5211974
1.5211549
1.521127
1.5210618
1.5210645
1.5212023
1.5211243
1.5210307
1.5210291
1.521024
1.5210229
1.5210346
1.5210345
1.5210282
1.5210282
1.5210114
1.5210113
1.5210159
1.5210161
1.5210101
1.5210062
1.5210073
1.5210119
1.5211083
1.5211081
1.5210884
1.5210879
1.5211123
1.5211133
1.5210941
1.5210919
1.5210581
1.5210688
1.5210664
1.5210579
1.5210524
1.5210629
1.5210626
1.5210537
1.5210696
1.5210739
1.5210543
1.5210499
1.5210262
1.521031
1.5210208
1.5210165
1.5209714
1.5209884
1.520916
1.5209069
1.5210107
1.5210358
1.5209606
1.520939
1.5208916
1.5209578
1.5209467
1.5208867
1.5209986
1.5210024
1.5209949
1.520992
1.5209815
1.5209811
1.5209788
1.5209812
1.5208793
1.5209382
1.5209371
1.5208875
1.520984
1.5210349
1.5218175
1.5218228
1.5218236
1.5218291
1.5218819
1.52188
1.5218748
1.5218731
1.5217162
1.5217193
1.5217636
1.5217633
1.5218671
1.5218668
1.5219531
1.5219518
1.5218126
1.5217926
1.5218785
1.5218972
1.5218626
1.5218615
1.5218686
1.5218667
1.52178
1.5217561
1.5217555
1.5217812
1.5218909
1.521882
1.5219684
1.521978
1.5218516
1.5218458
1.5219326
1.5219361
1.5217759
1.5217558
1.5217572
1.5217793
1.5217635
1.5217241
1.5217226
1.5217648
1.5218537
1.5219505
1.5219281
1.522014
1.5220358
1.5218562
1.521924
1.5219253
1.5220354
1.5220228
1.5221086
1.5221215
1.5220435
1.522039
1.5218574
1.5218557
1.5219163
1.5219219
1.5220324
1.5220222
1.5224256
1.5217236
1.5217176
1.5217494
1.5217597
1.5217022
1.521672
1.5216959
1.5217295
1.5217516
1.521741
1.5217569
1.5217696
1.5217204
1.521685
1.521699
1.5217346
1.5222176
1.5219064
1.5219518
1.5222829
1.5218204
1.5217781
1.5218139
1.5218616
1.5218496
1.5218364
1.5218889
1.5219062
1.5223371
1.5219841
1.5220066
1.5223837
1.5214522
1.5215655
1.5214556
1.521568
1.5215778
1.5215698
1.5215725
1.5215792
1.5215828
1.5215792
1.5215816
1.5215763
1.5215738
1.5214627
1.5214596
1.5215715
1.5217837
1.5217862
1.5218154
1.5218127
1.5217163
1.5217193
1.5217249
1.521728
1.5217545
1.5217522
1.5217452
1.521743
1.5216047
1.5217148
1.5217003
1.5217856
1.5217985
1.5216267
1.521605
1.5216281
1.5217387
1.5217418
1.5218264
1.5218224
1.5217272
1.5217243
1.5217367
1.5217331
1.5217623
1.5217644
1.5217533
1.5217553
1.5216091
1.5216085
1.5216372
1.5216386
1.5217482
1.5217427
1.521829
1.5218348
1.5217142
1.5217129
1.5218013
1.5217997
1.5216065
1.5216078
1.5216265
1.5216272
1.5216091
1.5216095
1.521637
1.5216376
1.5214539
1.5214349
1.5215296
1.5215559
1.5215693
1.521462
1.5214641
1.5215745
1.5215813
1.5215789
1.5215777
1.521583
1.5215682
1.5215437
1.5215381
1.5215645
1.521586
1.5215637
1.5215888
1.5216134
1.5215697
1.5215604
1.5215873
1.5215997
1.5216072
1.5216016
1.5216163
1.5216243
1.5216282
1.5216023
1.5216084
1.5216353
1.5225684
1.5195601
1.5195167
1.5195993
1.5195976
1.5195537
1.5195144
1.5194267
1.5194817
1.5194771
1.5194247
1.519349
1.5193977
1.5193976
1.5193556
1.519356
1.5194011
1.5193988
1.5193564
1.5194486
1.5194502
1.5226364
1.5214003
1.5213459
1.5214153
1.521483
1.5212701
1.5211724
1.5212023
1.5213196
1.5214994
1.5214292
1.5214915
1.5214195
1.5213306
1.521204
1.5211955
1.5213194
1.5203158
1.5203267
1.5206628
1.5206531
1.5203697
1.5204294
1.5207231
1.5206898
1.5210513
1.5209026
1.5208896
1.5210579
1.520864
1.5208734
1.5210511
1.521042
1.5202981
1.5203027
1.5206574
1.5206535
1.5210633
1.5208763
1.520875
1.5210613
1.5210615
1.5208717
1.5210819
1.5208912
1.5206485
1.5202951
1.5206653
1.5203087
1.5213462
1.5212168
1.5212173
1.5213455
1.5214455
1.521443
1.5215128
1.5215188
1.5215194
1.5214493
1.5214679
1.5215382
1.5213492
1.521218
1.5212383
1.5213658
1.5213267
1.5213152
1.5214476
1.52146
1.521328
1.5213153
1.5214441
1.5214603
1.5216214
1.5215448
1.5215641
1.5216411
1.5215648
1.5215518
1.5216294
1.5216427
1.5193326
1.519365
1.5193631
1.519333
1.5203483
1.5207316
1.5207291
1.5203456
1.5193219
1.5193565
1.5193568
1.519327
1.5203329
1.5207185
1.5207233
1.5203378
1.5194079
1.5194039
1.5209631
1.5209547
1.5211496
1.5211599
1.5209672
1.5209632
1.5211538
1.5211627
1.5193465
1.5193819
1.519383
1.5193532
1.520389
1.5207898
1.5208038
1.5204004
1.5193878
1.5194307
1.5194611
1.5194434
1.5204664
1.5208814
1.5210777
1.5206227
1.519434
1.5194868
1.5213571
1.521132
1.5213349
1.5215784
1.5210523
1.5210309
1.5212277
1.5212547
1.5217214
1.5216395
1.5216745
1.521758
1.5215295
1.5213908
1.5214219
1.5215602
1.521759
1.5215019
1.5216397
1.521907
1.5218405
1.521751
1.5220311
1.5221323
1.5229251
1.5231828
1.5225739
1.5226388
1.5229269
1.5231627
1.5210149
1.5208636
1.5210611
1.5212075
1.5212321
1.5216279
1.5173089
1.5175551
1.5210959
1.5222729
1.5219879
1.5218482
1.5221301
1.5225833
1.5228151
1.5206501
1.522535
1.5226954
1.5228874
1.523
1.5230463
1.5230768
1.5230293
1.5214386
1.5208487
1.5208982
1.5228706
1.522868
1.5230906
1.5230715
1.5225534
1.5226118
1.5226129
1.5225606
1.521454
1.521506
1.5215484
1.5215046
1.5214013
1.5214459
1.5214408
1.5213947
1.5215027
1.5214767
1.5214225
1.5214539
1.5213667
1.5213723
1.5213895
1.5213955
1.5213994
1.52136
1.5213976
1.5213573
1.5213548
1.5213577
1.5213969
1.5213943
1.5213254
1.5213277
1.5213474
1.5213449
1.5213289
1.5213312
1.5213505
1.5213483
1.521479
1.5214488
1.5213921
1.5214289
1.5214599
1.5214444
1.5213825
1.5214065
1.5213349
1.521337
1.521352
1.5213487
1.5213731
1.5213444
1.5213405
1.5213684
1.5213019
1.5213018
1.5213123
1.5213117
1.521306
1.5213074
1.5213291
1.5213276
1.5213248
1.521302
1.521301
1.521323
1.5213077
1.5212989
1.5212974
1.5213071
1.521361
1.5213224
1.5213201
1.5213572
1.5213651
1.521327
1.5213229
1.5213602
1.5213141
1.5212948
1.521293
1.5213112
1.52131
1.5212909
1.5212903
1.5213084
1.5213484
1.5213113
1.5213077
1.5213438
1.521275
1.5212964
1.5213315
1.5213109
1.5212509
1.5212693
1.5212857
1.5212676
1.5212798
1.5212815
1.5212993
1.5212969
1.5212634
1.5212628
1.521271
1.521271
1.5212655
1.521267
1.5212746
1.5212736
1.5212903
1.5212707
1.5212694
1.5212894
1.5212668
1.521267
1.521287
1.5212865
1.5212568
1.521255
1.5212627
1.5212636
1.5212775
1.5212583
1.5212585
1.5212772
1.5212661
1.5212473
1.5212319
1.5212509
1.5212531
1.5212481
1.5212332
1.52124
1.5214673
1.5214564
1.521381
1.5214059
1.5214951
1.5215115
1.5214135
1.5214166
1.5213638
1.5213638
1.5213605
1.521359
1.5213531
1.521337
1.5213353
1.5213517
1.5217346
1.5215133
1.5215145
1.5214705
1.5214678
1.5218477
1.5215855
1.5216972
1.5216506
1.5215389
1.5214735
1.52159
1.5215646
1.5214643
1.5214023
1.5214184
1.5214161
1.5214025
1.5217677
1.5217093
1.5213595
1.5213735
1.521374
1.5213619
1.5216216
1.521417
1.5214554
1.5214521
1.5214172
1.5216128
1.5214463
1.521445
1.5214122
1.521412
1.5213585
1.5213735
1.5213736
1.5213606
1.5216106
1.5216045
1.5213241
1.5213317
1.5213338
1.521327
1.5213325
1.5213307
1.5213248
1.5213243
1.5213069
1.5213048
1.5213158
1.5213166
1.5213041
1.5213137
1.5213117
1.5213043
1.5216776
1.5216171
1.5213023
1.5213025
1.5212939
1.5212937
1.5212748
1.5212811
1.5212793
1.5212743
1.5212883
1.5212988
1.521298
1.5212897
1.5212705
1.5212694
1.5212768
1.5212772
1.5215274
1.5213969
1.5213941
1.5213704
1.5213691
1.5215313
1.5213993
1.5213989
1.5213734
1.5213728
1.5213418
1.5213423
1.5213305
1.5213301
1.5215158
1.5215136
1.5213382
1.5213269
1.5213253
1.5213397
1.5215079
1.521372
1.5213805
1.5213447
1.5213553
1.521519
1.5213895
1.5213867
1.5213632
1.521362
1.5215013
1.5214934
1.5213313
1.5213198
1.5213185
1.5213326
1.5213244
1.5213128
1.5212984
1.5213126
1.5212722
1.5212875
1.5212781
1.5212636
1.5212938
1.5212943
1.5212852
1.5212851
1.5212694
1.5212653
1.5212657
1.5212715
1.5212429
1.5212581
1.5212634
1.5212493
1.5215337
1.52152
1.5213577
1.5214045
1.5210997
1.5210902
1.5210857
1.5210943
1.5211502
1.5211391
1.5211
1.5211091
1.5211287
1.521119
1.5210831
1.5210909
1.5210815
1.5210735
1.5210698
1.5210772
1.5210474
1.5210504
1.5210549
1.5210516
1.5210594
1.521091
1.5210963
1.521064
1.5211104
1.5211027
1.5210694
1.5210757
1.5210567
1.5210602
1.5210663
1.5210627
1.5210425
1.5210411
1.5210458
1.5210472
1.5210409
1.5210419
1.5210467
1.5210454
1.5210587
1.5210522
1.5210506
1.5210564
1.5210578
1.5210513
1.5210527
1.5210586
1.521065
1.5210645
1.5210717
1.521072
1.5210629
1.5210656
1.521073
1.5210699
1.52109
1.5210809
1.5210776
1.5210857
1.5210794
1.5210795
1.5210878
1.5210873
1.5211139
1.5211222
1.5211074
1.5211158
1.5212248
1.5211494
1.5212177
1.5211432
1.5211014
1.5210954
1.5211098
1.5211037
1.521132
1.5211375
1.5212103
1.5212019
1.5211007
1.5210987
1.5210934
1.5210913
1.5210885
1.5210871
1.5210944
1.5210955
1.5210801
1.5210782
1.5210844
1.5210865
1.5210758
1.5210734
1.5210799
1.5210818
1.5210758
1.5210693
1.5210763
1.5210836
1.5210893
1.5210829
1.5210908
1.5210973
1.5211257
1.5211183
1.5211921
1.5211806
1.5211097
1.5210995
1.5211516
1.5211668
1.5210546
1.5210528
1.521059
1.521061
1.5210524
1.5210491
1.5210548
1.5210582
1.5210639
1.5210607
1.5210668
1.5210697
1.5210718
1.5210653
1.5210673
1.5210736
1.5210447
1.521046
1.5210442
1.5210424
1.5210544
1.5210877
1.5210855
1.5210528
1.5210875
1.5210858
1.5210536
1.5210559
1.521047
1.5210448
1.5210425
1.5210443
1.5212378
1.5212433
1.5212257
1.521215
1.5212616
1.5212533
1.5212286
1.521206
1.5212031
1.5212278
1.5211262
1.5211497
1.521119
1.5210909
1.5211029
1.5210936
1.5210603
1.521072
1.5210804
1.5211157
1.521115
1.521081
1.5210624
1.5210625
1.5210521
1.5210514
1.5211873
1.5212097
1.5212083
1.5211872
1.5211013
1.5211015
1.52107
1.5210697
1.5212119
1.521212
1.5211912
1.521191
1.5211041
1.5211044
1.5210722
1.5210717
1.5210434
1.5210547
1.521054
1.5210433
1.5210526
1.5210528
1.5210424
1.5210425
1.5212384
1.5212358
1.5210025
1.5209873
1.5210381
1.5210357
1.5210352
1.5210375
1.5210353
1.5210378
1.5210375
1.5210353
1.5210372
1.5210347
1.521036
1.5210387
1.5210343
1.5210368
1.5210373
1.5210355
1.5211457
1.5211651
1.5211642
1.5211454
1.5211411
1.5211616
1.5211602
1.5211411
1.5211818
1.5211794
1.5211116
1.5211137
1.5211019
1.5210986
1.5211191
1.521067
1.5210196
1.5210631
1.5210549
1.5209904
1.5210214
1.5210903
1.5210357
1.5210337
1.5210381
1.5210362
1.521035
1.5210338
1.5210353
1.5210372
1.5210413
1.5210389
1.5210436
1.5210466
1.5210465
1.5210408
1.5210426
1.5210483
1.5210788
1.5210779
1.521054
1.5210552
1.52108
1.5210798
1.5210557
1.5210556
1.5210359
1.5210429
1.5210428
1.5210367
1.521035
1.5210415
1.5210428
1.5210371
1.5210626
1.5210639
1.5210482
1.5210476
1.5210401
1.5210401
1.521038
1.5210391
1.5210427
1.5210394
1.5210443
1.521059
1.5210427
1.5210495
1.521021
1.5210336
1.5210764
1.5210516
1.5210631
1.5210955
1.5210429
1.5210407
1.5210463
1.5210498
1.5210615
1.5210535
1.5210582
1.521067
1.5211149
1.5210757
1.5210879
1.5211337
1.5209977
1.5209836
1.5210175
1.5210811
1.5219976
1.5220136
1.5223287
1.5223349
1.522392
1.5223816
1.5220696
1.5220658
1.5217558
1.5217536
1.5217757
1.5217753
1.52175
1.5217587
1.5217819
1.5217706
1.521833
1.521831
1.5218209
1.5218223
1.5218283
1.5218276
1.5218292
1.5218294
1.5229684
1.5229744
1.5230322
1.5230241
1.5229523
1.5229329
1.5229974
1.5230085
1.5220508
1.5220503
1.5223769
1.5223644
1.5218556
1.5218453
1.5218358
1.5218447
1.5218011
1.5218112
1.5218194
1.5218086
1.5218079
1.5218062
1.5218141
1.5218145
1.5218437
1.5218425
1.5218521
1.5218524
1.523027
1.5230006
1.5230568
1.5230841
1.522976
1.5229879
1.5230468
1.5230284
1.521883
1.5218729
1.5218548
1.5218638
1.5218523
1.5218422
1.5218237
1.5218322
1.5218097
1.5218241
1.5218332
1.5218177
1.5218421
1.5218567
1.5218671
1.5218518
1.5218626
1.5218614
1.5218422
1.5218433
1.5217732
1.5217912
1.5218174
1.5217965
1.5217586
1.5217716
1.5217966
1.5217804
1.5218281
1.5218435
1.5218452
1.52183
1.5218927
1.5218921
1.5219159
1.5219141
1.5231303
1.5231086
1.5231706
1.5231849
1.5218899
1.5219005
1.5219254
1.5219122
1.5220048
1.5219908
1.5219801
1.5219922
1.5219857
1.5219855
1.5219988
1.5219977
1.523188
1.5231618
1.5232175
1.5232423
1.5220805
1.5220786
1.5221265
1.5221253
1.5220761
1.5220858
1.5221319
1.5221186
1.5219012
1.5219166
1.5219424
1.5219244
1.521918
1.5219373
1.5219635
1.5219417
1.5220365
1.5220231
1.5220031
1.5220151
1.5219885
1.5220047
1.5220187
1.5220014
1.5220851
1.5220994
1.522144
1.522126
1.5221583
1.5221161
1.5220984
1.5221373
1.5226864
1.5224718
1.5224722
1.5226683
1.5217948
1.5218197
1.5218465
1.5218187
1.5218241
1.5218565
1.5218827
1.5218478
1.521919
1.5219214
1.5218885
1.5218869
1.5218618
1.5218884
1.521888
1.5218624
1.5218602
1.5219031
1.521928
1.5218825
1.5219038
1.5219593
1.5219809
1.5219239
1.5220059
1.5220172
1.5219614
1.5219524
1.5219209
1.5219645
1.5219582
1.5219167
1.5218437
1.52187
1.5218791
1.5218525
1.5218715
1.5219046
1.5219119
1.5218788
1.5219351
1.5219286
1.5218971
1.5219034
1.5218725
1.521898
1.5219066
1.521881
1.521904
1.521947
1.5219512
1.521909
1.5219969
1.5219979
1.5219433
1.5219439
1.5220155
1.5220173
1.5219637
1.5219631
1.5219268
1.5219685
1.5219711
1.5219304
1.5226969
1.5225012
1.5224634
1.522638
1.5222663
1.5222412
1.5221878
1.5222124
1.5221586
1.5221985
1.5222297
1.5221876
1.5224549
1.522478
1.5226745
1.5226323
1.5221643
1.5221609
1.5221063
1.5221105
1.5221093
1.522089
1.5220333
1.5220515
1.5219949
1.5220371
1.5220602
1.5220158
1.5220724
1.5221148
1.5221227
1.5220803
1.5219388
1.5219644
1.5219896
1.5219619
1.5219649
1.5219964
1.5220209
1.521987
1.5220884
1.5220773
1.522045
1.5220553
1.5220215
1.522048
1.5220607
1.5220334
1.5226682
1.5224674
1.5224544
1.522638
1.5221345
1.522165
1.5222004
1.5221679
1.5221142
1.5221384
1.5221777
1.5221509
1.5224605
1.5224658
1.5226733
1.5226495
1.5214577
1.5214541
1.5215034
1.5215029
1.5216187
1.5216175
1.5216211
1.5216219
1.521454
1.5214576
1.5215087
1.521499
1.5216238
1.5216201
1.521612
1.5216151
1.5216323
1.5216305
1.5216307
1.5216324
1.5216134
1.5216108
1.5216157
1.5216171
1.5216063
1.521614
1.5216195
1.521611
1.5216329
1.5216328
1.5216248
1.5216247
1.521659
1.5216594
1.5216429
1.5216424
1.52165
1.5216419
1.521626
1.5216325
1.5216304
1.5216431
1.5216431
1.5216306
1.521613
1.5216249
1.5216315
1.5216186
1.5216519
1.5216486
1.5216316
1.5216344
1.5214712
1.521481
1.5215403
1.521522
1.5214604
1.5214669
1.5215212
1.5215075
1.521618
1.5216311
1.5216346
1.5216215
1.522335
1.5223415
1.52243
1.5224258
1.5219014
1.5219113
1.5222189
1.5222193
1.5222456
1.5222398
1.5219388
1.521934
1.5216618
1.5216587
1.5216748
1.5216758
1.5227673
1.5227692
1.522829
1.5228225
1.5216972
1.5216992
1.5216908
1.5216885
1.5216511
1.5216586
1.5216757
1.5216662
1.5217022
1.5217001
1.5216977
1.5216997
1.5227757
1.5227769
1.5228318
1.522831
1.5219207
1.5219152
1.5222459
1.5222299
1.5222599
1.5222681
1.5219439
1.5219501
1.5216726
1.5216692
1.5216724
1.5216749
1.521661
1.5216688
1.5216727
1.5216644
1.5217061
1.5216985
1.5216915
1.5216977
1.5217032
1.5216999
1.5217065
1.5217087
1.5228385
1.5228078
1.5228659
1.5228965
1.5227899
1.5228047
1.5228674
1.5228467
1.5216552
1.5216673
1.5216847
1.5216709
1.5216663
1.5216826
1.5217002
1.5216823
1.5217195
1.5217211
1.5217039
1.521702
1.5216936
1.5217069
1.5217052
1.5216921
1.5216644
1.5216764
1.5216807
1.5216683
1.5216946
1.5216898
1.5216745
1.5216783
1.5217287
1.5217196
1.5217039
1.5217116
1.521694
1.521706
1.5217145
1.5217014
1.5215357
1.5215652
1.5216481
1.5216056
1.5215713
1.521611
1.5217037
1.5216495
1.5218021
1.5218074
1.5217551
1.5217513
1.5217119
1.5217533
1.5217518
1.5217118
1.5217101
1.5217085
1.5216783
1.52168
1.5215081
1.5215291
1.5216026
1.5215706
1.521487
1.5215013
1.5215676
1.5215431
1.5216512
1.5216751
1.5216778
1.5216543
1.5216458
1.5216693
1.5216775
1.5216533
1.5216747
1.5217057
1.5217134
1.5216818
1.5217154
1.5217186
1.521688
1.5216852
1.5216614
1.5216852
1.5216835
1.5216606
1.5217113
1.5217529
1.5217597
1.5217175
1.5218158
1.5218101
1.5217569
1.5217616
1.5218114
1.5218186
1.5217652
1.5217585
1.5217222
1.521764
1.5217587
1.521718
1.5218706
1.5218656
1.5218139
1.5218185
1.5218401
1.5218394
1.5217864
1.5217868
1.5217449
1.5217856
1.521788
1.5217475
1.5217737
1.521814
1.521821
1.5217808
1.5218647
1.5218689
1.521816
1.5218118
1.5218458
1.5218326
1.5217803
1.5217923
1.5217399
1.5217796
1.5217945
1.5217535
1.5217753
1.5218171
1.5218144
1.5217731
1.5216837
1.5217066
1.5217231
1.521699
1.5217088
1.521738
1.5217541
1.5217234
1.5217738
1.5217751
1.5217445
1.5217427
1.5217203
1.5217446
1.5217431
1.5217191
1.5217814
1.5217723
1.5217434
1.5217514
1.5217133
1.521743
1.5217472
1.5217174
1.52169
1.5217123
1.5217173
1.5216945
1.5217198
1.5217425
1.5217518
1.5217284
1.5224781
1.5225346
1.5224753
1.5225312
1.5198463
1.519822
1.5197556
1.5197603
1.5201124
1.5200675
1.5200143
1.5200044
1.5199634
1.5197025
1.5197036
1.5199698
1.519967
1.5197017
1.5196995
1.5199687
1.5226263
1.5226378
1.5226295
1.5226404
1.5216138
1.5216662
1.5217685
1.5217
1.5216624
1.5217281
1.521839
1.5217561
1.5219194
1.5219336
1.5218563
1.5218441
1.5218041
1.5218683
1.5218591
1.5217962
1.5217139
1.521795
1.5219151
1.5218146
1.5217689
1.5218695
1.5219989
1.5218786
1.5220526
1.5220713
1.5219602
1.5219418
1.5219074
1.5219967
1.5219814
1.5218901
1.5218098
1.521878
1.5218809
1.5218121
1.5218678
1.5219479
1.5219483
1.5218668
1.5218152
1.5218817
1.5218725
1.5218061
1.5219358
1.5219473
1.5218684
1.5218568
1.5219221
1.5220175
1.522017
1.5219187
1.5220865
1.5220919
1.5219762
1.5219714
1.522075
1.5220836
1.5219701
1.5219596
1.5219194
1.5220102
1.5220015
1.521906
1.522378
1.5223586
1.522302
1.5223218
1.5223624
1.5223082
1.5223746
1.5223182
1.522248
1.522446
1.5224354
1.5222396
1.5224505
1.5222453
1.522432
1.5222316
1.5223436
1.5222995
1.5223185
1.5222709
1.5221731
1.522117
1.5222443
1.5222812
1.522363
1.5222159
1.522029
1.5221736
1.5223992
1.5222338
1.5224224
1.5222097
1.5220973
1.5219646
1.5218341
1.5219535
1.5219181
1.5220679
1.522217
1.5220458
1.5222554
1.5222816
1.5221079
1.5220819
1.5221369
1.5221604
1.5220216
1.5219989
1.5222799
1.522295
1.5221118
1.5220986
1.522123
1.522299
1.5222871
1.5221089
1.5221689
1.5221815
1.5220374
1.5220277
1.5221592
1.5221704
1.5220276
1.5220163
1.522343
1.5224321
1.5223708
1.522404
1.5223518
1.5224254
1.5223611
1.5224144
1.5224856
1.5224943
1.5222843
1.5222807
1.522296
1.5224998
1.5224783
1.5222795
1.5222136
1.5222213
1.5220693
1.522066
1.5221541
1.5223372
1.5223307
1.522145
1.5223292
1.5223474
1.522163
1.5221495
1.5222129
1.5222238
1.52208
1.5220709
1.5222114
1.5222339
1.52208
1.5220616
1.5221671
1.5223554
1.5223272
1.5221415
1.5222419
1.5222461
1.5220948
1.5220903
1.5223551
1.5223695
1.5221801
1.5221717
1.5224782
1.5222973
1.5225048
1.5222713
1.52243
1.5223702
1.5224143
1.5223428
1.5223114
1.5225134
1.5225006
1.5222979
1.5223631
1.5224404
1.5223807
1.5224278
1.5219437
1.5220434
1.5220472
1.5219456
1.5220024
1.5221207
1.5221217
1.5220009
1.522128
1.5221334
1.5220183
1.5220119
1.5219662
1.5220594
1.522056
1.5219584
1.5219876
1.5219924
1.5219132
1.5219069
1.5218853
1.5219666
1.5219733
1.5218907
1.5218297
1.5218957
1.5219061
1.5218388
1.5218626
1.5219276
1.5219235
1.5218571
1.5218376
1.5219061
1.5219035
1.521835
1.5218958
1.5219788
1.5219721
1.5218892
1.5219959
1.5219969
1.5219158
1.5219141
1.5218617
1.5219274
1.5219294
1.5218632
1.5219546
1.5220525
1.5220437
1.5219436
1.5221176
1.522132
1.5220115
1.5219983
1.5221463
1.5221468
1.5220273
1.522024
1.5219705
1.5220659
1.522066
1.5219656
1.5222837
1.5222955
1.5221702
1.5221569
1.5222661
1.5222868
1.5221595
1.5221405
1.5220986
1.5222012
1.5221869
1.5220828
1.5221122
1.5222129
1.5222036
1.5220988
1.5222785
1.522301
1.5221764
1.5221538
1.5221406
1.5222655
1.5222647
1.5221367
1.5220734
1.5221788
1.5221817
1.5220751
1.5221173
1.5222181
1.522199
1.5220954
1.5219551
1.5220258
1.5220412
1.5219701
1.5220122
1.5220972
1.5221066
1.5220204
1.5221269
1.5221454
1.5220607
1.5220433
1.5220086
1.5220772
1.5220628
1.5219948
1.5221314
1.5221408
1.5220569
1.522048
1.5220422
1.5221264
1.5221153
1.5220314
1.5219892
1.5220584
1.5220521
1.5219841
1.5220072
1.5220741
1.522069
1.5220021
1.5199758
1.5196857
1.5196849
1.5199816
1.5225882
1.5225242
1.5225201
1.5225859
1.5224458
1.5226607
1.5226607
1.5224426
1.5224763
1.5226899
1.522654
1.5224383
1.5226165
1.5225539
1.5225095
1.5225816
1.5199682
1.5196785
1.5196793
1.5199731
1.522588
1.5226081
1.5225416
1.5225179
1.5226577
1.5224609
1.5226802
1.5224355
1.5224716
1.5226885
1.5226636
1.5224425
1.5225164
1.5226143
1.5225487
1.5225917
1.5228784
1.5228922
1.5224983
1.5225262
1.5223281
1.5223042
1.5223206
1.5225135
1.522486
1.5222897
1.5223553
1.5223839
1.5222273
1.5222017
1.5223723
1.5223906
1.5222352
1.522218
1.5224921
1.5225306
1.5223352
1.5223014
1.5223064
1.5224992
1.5224926
1.5222944
1.5223587
1.5223676
1.5222092
1.5222019
1.5223674
1.5223965
1.5222424
1.5222154
1.5200052
1.5197139
1.5197179
1.5200193
1.522732
1.5226637
1.5226551
1.5227262
1.5225746
1.5228062
1.5228023
1.5225671
1.522615
1.522842
1.5228167
1.5225857
1.5226682
1.5227652
1.5227021
1.5227403
1.5200731
1.5197817
1.519835
1.5201794
1.5228825
1.5228772
1.5228172
1.5228066
1.5229536
1.522721
1.5229601
1.5227085
1.5228885
1.5231213
1.5234058
1.5231612
1.5232244
1.5230398
1.522979
1.5232724
1.5231279
1.5233559
1.5232241
1.5229341
1.5227254
1.5229841
1.5225565
1.5227666
1.5227545
1.5225405
1.522606
1.5226176
1.5224509
1.5224417
1.5230571