/*--------------------------------*- C++ -*----------------------------------*\
  =========                 |
  \\      /  F ield         | OpenFOAM: The Open Source CFD Toolbox
   \\    /   O peration     | Website:  https://openfoam.org
    \\  /    A nd           | Version:  7
     \\/     M anipulation  |
\*---------------------------------------------------------------------------*/
FoamFile
{
    version     2.0;
    format      ascii;
    class       volScalarField;
    location    "2000";
    object      nut;
}
// * * * * * * * * * * * * * * * * * * * * * * * * * * * * * * * * * * * * * //

dimensions      [0 2 -1 0 0 0 0];

internalField   nonuniform List<scalar> 
34387
(
1.3120136e-15
1.3037662e-15
1.39626e-15
1.4072472e-15
6.8000712e-15
1.3249798e-15
1.3214864e-15
1.4182633e-15
1.4156488e-15
2.9283293e-15
2.8303047e-15
1.8097314e-15
1.8901335e-15
1.831824e-15
1.9497266e-15
1.8370058e-15
3.1916584e-15
2.9950225e-15
1.8336335e-15
1.9633987e-15
1.8904217e-15
9.7883489e-16
8.9283926e-16
1.4958017e-15
1.5043488e-15
8.8190457e-16
8.8825252e-16
1.4780227e-15
1.3378631e-15
8.9738569e-16
9.7136686e-16
3.0872744e-15
2.8461383e-15
1.8833045e-15
1.3274387e-15
1.317742e-15
1.383732e-15
1.3953289e-15
4.1760838e-15
4.1117202e-15
4.7530553e-15
5.0789118e-15
1.7738081e-15
1.8524192e-15
1.9894243e-15
1.7681622e-15
1.9715568e-15
1.7554513e-15
1.9601196e-15
1.8565925e-15
9.0286255e-16
1.3667588e-15
1.4921544e-15
9.6606695e-16
8.9639221e-16
9.6123739e-16
9.1972397e-16
1.5198478e-15
1.2898474e-15
9.06459e-16
3.1860421e-15
3.0024739e-15
2.2802216e-15
2.416694e-15
1.9769456e-15
2.7418734e-15
2.6561286e-15
2.3171103e-15
1.9554311e-15
2.810486e-15
2.6421386e-15
2.2706648e-15
2.2974924e-15
2.7317254e-15
2.3817925e-15
2.8359223e-15
2.4875138e-15
2.4214541e-15
2.6399044e-15
2.4347681e-15
1.8003898e-15
2.2772926e-15
1.7636009e-15
1.8085006e-15
1.9373928e-15
2.393355e-15
2.3140709e-15
2.2612269e-15
2.0414529e-15
2.2719848e-15
2.2669691e-15
3.5846395e-15
2.5680434e-15
2.6235123e-15
3.0284241e-15
2.4628913e-15
2.9686911e-15
2.3083151e-15
2.3993012e-15
2.2914192e-15
2.7307767e-15
2.6753171e-15
2.7385056e-15
2.2849787e-15
2.1152005e-15
2.1228463e-15
2.2802806e-15
1.9565135e-15
1.8100212e-15
1.9438401e-15
2.459299e-15
2.1602201e-15
8.0069066e-16
5.3810327e-16
5.2573002e-16
8.2507342e-16
1.0612711e-15
1.3206538e-15
9.9935325e-16
1.2407926e-15
8.541787e-16
8.2235517e-16
5.1789842e-16
5.1028997e-16
8.5345697e-16
4.9025649e-16
4.9604131e-16
8.2543075e-16
9.1305714e-16
8.71267e-16
8.9545274e-16
9.1393419e-16
9.9364118e-16
1.0161017e-15
8.6390478e-16
8.4040829e-16
8.7737385e-16
8.9886854e-16
5.1140677e-16
5.0498112e-16
5.065779e-16
9.0490176e-16
8.1875734e-16
5.1051584e-16
5.2254474e-16
5.2320965e-16
9.5532204e-16
9.9925496e-16
9.7707103e-16
9.1915314e-16
8.3233701e-16
8.679018e-16
6.2388036e-16
6.0437156e-16
4.5670774e-15
1.6508626e-15
1.8603947e-15
1.8230311e-15
1.896004e-15
1.879954e-15
1.9370335e-15
1.7538397e-15
1.9415813e-15
1.8727189e-15
1.9603715e-15
9.4632253e-16
1.3650714e-15
1.4640509e-15
9.2245143e-16
9.4610151e-16
9.5091978e-16
1.5271226e-15
1.3978609e-15
9.3857451e-16
9.5335853e-16
3.0770359e-15
2.9644863e-15
2.2916297e-15
2.3171137e-15
2.5438637e-15
2.5144723e-15
2.0440797e-15
2.0526774e-15
2.3446444e-15
2.2960349e-15
2.0356125e-15
2.1116143e-15
2.5896475e-15
2.4917922e-15
2.2839038e-15
2.3463027e-15
2.2931855e-15
2.1862578e-15
2.5380817e-15
2.376991e-15
2.7596762e-15
3.1086427e-15
2.1414641e-15
2.1416393e-15
2.3361582e-15
2.4042965e-15
2.0240846e-15
2.6356541e-15
2.945284e-15
2.0912599e-15
1.8428484e-15
1.9292995e-15
2.2868206e-15
2.1795782e-15
1.1788544e-15
1.1020102e-15
9.0448743e-16
8.921338e-16
5.2770999e-16
7.6527728e-16
5.0071185e-16
8.9962142e-16
5.2733967e-16
8.1744121e-16
8.1068641e-16
4.8741884e-16
4.9177188e-16
5.2849946e-16
7.9593346e-16
8.0154101e-16
9.3454499e-16
9.519764e-16
9.1489557e-16
9.4287083e-16
5.2088873e-16
5.1988023e-16
8.4074214e-16
8.7313427e-16
1.0376051e-15
1.0708821e-15
8.7709459e-16
8.6119266e-16
8.6689184e-16
8.5161385e-16
5.0515284e-16
4.943433e-16
8.0937305e-16
4.8873906e-16
5.2203932e-16
8.3079191e-16
1.0608551e-15
9.8368289e-16
9.4519504e-16
9.8325513e-16
6.1995243e-16
6.02127e-16
1.0328635e-14
1.04459e-14
7.0336026e-15
7.0188434e-15
7.9456354e-15
7.6270324e-15
1.2483574e-14
1.198182e-14
1.6752663e-15
1.7963965e-15
1.911124e-15
1.7236578e-15
5.9770979e-15
5.641985e-15
1.1415926e-14
1.1283279e-14
7.5296849e-15
7.363109e-15
1.9591739e-15
1.8345764e-15
1.658943e-15
1.7608033e-15
5.9653921e-15
5.5376577e-15
1.71901e-15
1.6234918e-15
1.5782865e-15
1.6834895e-15
1.6897694e-15
1.6313003e-15
1.5713462e-15
1.6749835e-15
5.5099936e-15
1.727644e-15
1.9110482e-15
2.0134691e-15
1.8104077e-15
6.1725222e-15
1.8104594e-15
2.0659556e-15
1.6942719e-15
1.6969178e-15
1.7453075e-15
1.7157489e-15
1.7938675e-15
1.7103718e-15
1.8211356e-15
1.2615277e-15
1.4433115e-15
1.5022407e-15
1.3121159e-15
1.3042292e-15
1.2500313e-15
1.1857397e-15
1.2613356e-15
1.259722e-15
1.5038589e-15
1.5586449e-15
1.3330318e-15
1.3019703e-15
1.1429194e-15
1.1300574e-15
1.2158822e-15
1.2223668e-15
1.2961194e-15
1.306854e-15
1.3365319e-15
1.2819978e-15
1.1505483e-15
1.193869e-15
1.3340536e-15
1.2575141e-15
1.3327774e-15
1.473396e-15
1.3264428e-15
1.6262936e-15
1.4390041e-15
1.3478116e-15
1.4435412e-15
1.6347223e-15
1.7622824e-15
1.7879424e-15
1.9407944e-15
1.670632e-15
1.6046462e-15
1.7514544e-15
1.8257614e-15
1.6164135e-15
1.5840907e-15
1.5569094e-15
1.4897464e-15
1.6710864e-15
1.5283325e-15
1.5178941e-15
1.6386364e-15
6.2710678e-15
6.3068019e-15
5.5055237e-15
5.4926663e-15
1.2033792e-14
1.1627722e-14
7.9870105e-15
7.801914e-15
8.5107821e-15
8.1139178e-15
1.3212881e-14
1.2484048e-14
5.8970607e-15
1.9485013e-15
2.1488835e-15
2.1850578e-15
1.9236493e-15
6.3309624e-15
1.1285883e-14
1.0882091e-14
7.4874117e-15
7.3031087e-15
7.7482681e-15
7.5993817e-15
1.1975817e-14
1.1819751e-14
1.7115846e-15
1.9314556e-15
1.97731e-15
1.7582876e-15
5.9226846e-15
5.6475019e-15
1.9078517e-15
1.90514e-15
1.811734e-15
1.8176547e-15
1.648177e-15
1.5929511e-15
1.6448529e-15
1.6348618e-15
1.2268512e-15
1.2013787e-15
1.2681495e-15
1.3056625e-15
1.377024e-15
1.2733994e-15
1.1413717e-15
1.2445028e-15
1.1995299e-15
1.3877051e-15
1.364541e-15
1.2077471e-15
1.2371272e-15
1.1748922e-15
1.230734e-15
1.2039511e-15
1.2002991e-15
1.1222216e-15
1.1288236e-15
1.2326999e-15
1.1868759e-15
1.2293669e-15
1.3497807e-15
1.2890863e-15
1.4621927e-15
1.5539436e-15
1.5390425e-15
1.4047546e-15
1.3922813e-15
1.3092984e-15
1.2002518e-15
1.2555262e-15
4.7362598e-16
2.1324527e-16
2.1360261e-16
3.2961663e-16
3.3508379e-16
2.1055182e-16
2.1138156e-16
3.1527866e-16
3.1604068e-16
5.2100157e-16
9.5731348e-16
1.0519568e-15
1.0909953e-15
9.9196355e-16
1.1380241e-15
9.8254156e-16
9.1082766e-16
1.1176008e-15
9.4169065e-16
1.0888922e-15
1.0013965e-15
1.0374818e-15
1.1981146e-15
8.6278464e-16
7.9369881e-16
9.9655414e-16
6.1933158e-16
5.9227062e-16
5.299678e-16
5.2496236e-16
6.4364e-16
4.9223638e-16
5.0920224e-16
5.3218451e-16
5.5178286e-16
4.900562e-16
5.0542458e-16
5.1649346e-16
5.0122241e-16
4.8643518e-16
5.0562149e-16
4.9587628e-16
7.6190701e-16
4.7648206e-16
5.7819914e-16
5.7366635e-16
4.6988165e-16
4.2363176e-16
4.4377347e-16
4.6128658e-16
4.5616146e-16
4.5121464e-16
4.5589759e-16
4.2037145e-16
5.1590676e-16
5.0118974e-16
4.6486582e-16
6.5063721e-16
1.0361635e-15
8.2820608e-16
8.1096832e-16
1.0024292e-15
1.0385776e-15
1.0330676e-15
9.7283248e-16
9.6549592e-16
9.4148056e-16
1.0374312e-15
9.9749716e-16
9.2299844e-16
8.6406057e-16
6.9260108e-16
6.9888837e-16
8.415071e-16
7.9393443e-16
8.193388e-16
9.7777297e-16
9.7174877e-16
8.3090941e-16
8.3902278e-16
1.0253481e-15
1.0035029e-15
9.5907999e-16
9.9149214e-16
9.7139566e-16
9.1977869e-16
9.627233e-16
9.5079097e-16
8.8981238e-16
8.962735e-16
2.1135212e-16
4.5453235e-16
5.5522238e-16
4.8055648e-16
7.1987498e-16
2.1312597e-16
5.1790707e-16
5.7115206e-16
4.7020434e-16
6.8219553e-16
3.070069e-16
3.1128692e-16
4.2733157e-16
4.0659687e-16
4.512158e-16
4.4914082e-16
4.2843322e-16
4.1038458e-16
4.6549694e-16
4.5572815e-16
2.0752723e-16
4.7384452e-16
5.4777567e-16
4.7703473e-16
6.9427288e-16
2.0603902e-16
5.1757443e-16
5.4620358e-16
4.6084173e-16
5.75978e-16
3.1089324e-16
3.2282988e-16
4.5276893e-16
4.1550623e-16
4.6483433e-16
4.7999674e-16
4.2897999e-16
4.1787924e-16
4.714243e-16
4.6781999e-16
1.0304118e-15
1.1822502e-15
1.0685143e-15
9.9556634e-16
1.0039034e-15
8.0574995e-16
8.006237e-16
9.7646858e-16
8.1955269e-16
8.14263e-16
9.7918393e-16
9.8648812e-16
1.0045374e-15
1.0449777e-15
1.067019e-15
1.0019934e-15
5.1234608e-16
4.7584257e-16
5.9504666e-16
5.7508635e-16
2.2272784e-15
4.2027191e-15
4.0928098e-15
4.0481702e-15
4.4415571e-15
1.2263507e-14
1.2753005e-14
1.6105339e-15
7.0384743e-16
7.2875028e-16
1.8721004e-15
2.2172294e-15
2.3049762e-15
2.5110659e-15
2.5954276e-15
2.4938978e-15
2.1497492e-15
2.9921274e-15
2.8046706e-15
2.4039769e-15
2.2974428e-15
2.0104009e-15
2.3143763e-15
2.1138702e-15
2.6929337e-15
2.9313291e-15
2.055445e-15
2.2590579e-15
2.3497708e-15
2.5524745e-15
2.4751895e-15
2.526076e-15
2.2778199e-15
3.1490847e-15
2.8668095e-15
1.9976034e-15
2.0111749e-15
2.3473079e-15
2.2924172e-15
2.1175101e-15
2.7641398e-15
3.0678772e-15
2.1883283e-15
1.0273426e-15
1.0780664e-15
1.120061e-15
8.8900936e-16
8.5597764e-16
8.0492857e-16
5.2758851e-16
5.0737948e-16
5.2691783e-16
5.0682694e-16
8.3772973e-16
8.2801233e-16
4.9967572e-16
5.3336326e-16
9.7176338e-16
9.727436e-16
9.1023457e-16
9.0941646e-16
8.1031883e-16
8.0079025e-16
1.086119e-15
9.0344304e-16
1.1110497e-15
9.101064e-16
8.7887357e-16
8.6998175e-16
5.1738327e-16
5.2811027e-16
5.0517829e-16
7.9998071e-16
8.8215812e-16
5.2321335e-16
5.2343759e-16
5.2359518e-16
1.0789262e-15
1.0615216e-15
9.5831611e-16
9.8661337e-16
8.615567e-16
8.7619288e-16
6.2460414e-16
6.0656745e-16
1.8016911e-15
2.0999972e-15
2.0160155e-15
1.7367421e-15
1.6655003e-15
1.88502e-15
1.9384065e-15
1.7084305e-15
1.6937274e-15
1.7136538e-15
1.7035272e-15
1.6635467e-15
1.8143657e-15
1.7658753e-15
1.7036001e-15
1.6831615e-15
1.1952079e-15
1.3716783e-15
1.3407798e-15
1.2934027e-15
1.2699981e-15
1.350026e-15
1.3043922e-15
1.331303e-15
1.2964851e-15
1.375994e-15
1.4848046e-15
1.3008334e-15
1.4982954e-15
1.4695302e-15
1.3363084e-15
1.3129052e-15
1.3099525e-15
1.1888104e-15
1.2293786e-15
1.3688972e-15
1.3079469e-15
1.2282109e-15
1.281641e-15
1.3808832e-15
1.3104331e-15
1.4213373e-15
1.5130562e-15
1.349255e-15
1.2608172e-15
1.3840873e-15
1.4976086e-15
1.3104418e-15
1.6773818e-15
1.604117e-15
1.5576983e-15
1.6427405e-15
1.7309657e-15
1.6805598e-15
1.6474436e-15
1.702494e-15
1.8103253e-15
1.923694e-15
1.9869815e-15
1.836288e-15
1.9275224e-15
1.8329056e-15
1.6942706e-15
1.7804918e-15
1.8346993e-15
1.9227596e-15
2.0496356e-15
2.2128069e-15
1.7673335e-15
1.9022407e-15
1.9991273e-15
2.0688092e-15
1.8301558e-15
1.8227256e-15
1.9326844e-15
1.8156185e-15
1.9051902e-15
1.8047651e-15
1.7984599e-15
1.8699778e-15
1.8392581e-15
1.7398928e-15
2.0363278e-15
1.8734372e-15
2.0053211e-15
1.97017e-15
1.7285371e-15
1.7762545e-15
1.7104909e-15
1.6852219e-15
1.6218623e-15
1.7036397e-15
1.7237339e-15
1.6897471e-15
1.68061e-15
1.7040087e-15
1.2614597e-15
1.3416132e-15
1.3421153e-15
1.3640081e-15
1.4047226e-15
1.4597353e-15
1.557689e-15
1.4027763e-15
1.5026245e-15
1.8471201e-15
1.5555479e-15
1.7510256e-15
1.5773754e-15
1.3748908e-15
1.2691449e-15
1.3460858e-15
1.2175064e-15
1.2511846e-15
1.2220805e-15
1.2843866e-15
1.2373083e-15
1.198458e-15
1.2965071e-15
1.293104e-15
1.4840065e-15
1.4448545e-15
1.2887819e-15
1.3201715e-15
1.2633946e-15
1.3473402e-15
1.487388e-15
1.3055543e-15
8.7000235e-16
9.3416393e-16
1.159274e-15
1.0879066e-15
1.0874336e-15
1.0126922e-15
1.1708917e-15
1.0806062e-15
1.049397e-15
1.0970965e-15
9.9588186e-16
9.9300368e-16
1.0414968e-15
1.051536e-15
1.0078048e-15
9.4383723e-16
2.1219355e-16
3.2378019e-16
3.2607682e-16
2.1739456e-16
6.6548812e-16
5.5583495e-16
5.4157132e-16
5.4218602e-16
4.8518395e-16
5.1441068e-16
5.0484165e-16
4.8484381e-16
4.4847979e-16
5.9290785e-16
5.4970473e-16
5.1666786e-16
4.8844317e-16
4.9819572e-16
5.2129633e-16
5.0183385e-16
2.1254141e-16
6.1651734e-16
5.1557323e-16
5.5274704e-16
5.3005438e-16
2.1559307e-16
7.31894e-16
6.5415781e-16
5.6597903e-16
5.4787288e-16
4.9359724e-16
4.7671172e-16
4.6654283e-16
4.6950571e-16
4.6249616e-16
4.1515302e-16
4.4587671e-16
4.73795e-16
3.215954e-16
3.2281308e-16
4.7055656e-16
5.1189877e-16
1.09869e-15
1.2430368e-15
1.1215915e-15
1.0141461e-15
1.1171842e-15
9.0202963e-16
8.7198547e-16
1.0655026e-15
1.069629e-15
1.2336457e-15
1.1223207e-15
1.018206e-15
1.0563953e-15
8.3331879e-16
8.5085856e-16
9.8185506e-16
2.1232221e-16
2.149057e-16
3.1297438e-16
3.1846576e-16
2.1052226e-16
3.2322157e-16
3.3330149e-16
2.1192156e-16
4.8890934e-16
4.53085e-16
8.8416666e-16
9.649006e-16
1.0601349e-15
9.8611879e-16
9.1862965e-16
9.6402728e-16
9.9377018e-16
1.0732849e-15
1.0263199e-15
9.1600797e-16
9.2746309e-16
9.7046034e-16
9.4612038e-16
9.1715353e-16
1.0231124e-15
9.556314e-16
6.464808e-16
4.8997068e-16
5.6644804e-16
5.5417812e-16
6.9816764e-16
4.3662906e-16
5.5401096e-16
5.6305641e-16
4.8725411e-16
4.3534617e-16
4.6025993e-16
4.7471436e-16
4.6671357e-16
4.2056064e-16
4.3903262e-16
4.5903302e-16
6.6668981e-16
6.2694358e-16
5.5658165e-16
5.6675107e-16
4.5930288e-16
4.647345e-16
4.8797736e-16
4.7705609e-16
5.8045282e-16
5.2188551e-16
5.288837e-16
5.2413172e-16
4.5347805e-16
6.3625625e-16
5.3404031e-16
5.0684849e-16
8.4916431e-16
7.846437e-16
1.0082929e-15
1.0523241e-15
8.688329e-16
8.7266585e-16
1.075681e-15
1.0771446e-15
1.0663109e-15
1.1039201e-15
1.1207053e-15
1.0536992e-15
1.1581096e-15
1.1367443e-15
1.1039154e-15
1.0832649e-15
5.7399932e-16
5.548564e-16
9.6305633e-15
9.3695946e-15
8.6403034e-15
8.6476084e-15
9.9523361e-15
9.6539413e-15
1.0263466e-14
9.701412e-15
6.470478e-15
5.9978611e-15
6.5392341e-15
6.8765347e-15
1.6254442e-15
1.6687049e-15
1.9911612e-15
1.9576546e-15
1.4551502e-15
1.4462767e-15
1.7196467e-15
1.7703358e-15
9.3540455e-15
9.1900241e-15
9.474581e-15
9.8697332e-15
6.4524258e-15
6.0015677e-15
6.3742143e-15
6.7904659e-15
1.6322026e-15
1.663772e-15
2.0022976e-15
1.9695549e-15
1.5210189e-15
1.502384e-15
1.8116172e-15
1.8522697e-15
5.5538995e-15
5.2619564e-15
5.1250914e-15
5.5526387e-15
5.6677217e-15
5.3292849e-15
5.2049725e-15
5.7414917e-15
6.2935934e-15
1.4748684e-15
1.4457796e-15
1.7091561e-15
1.7706247e-15
6.0725268e-15
6.6596461e-15
7.0078741e-15
1.6594723e-15
1.701918e-15
2.0221093e-15
1.9938496e-15
6.4509571e-15
6.6837518e-15
5.5664094e-15
5.4726849e-15
5.6558682e-15
5.7606161e-15
5.6962254e-15
5.3839212e-15
5.9812515e-15
4.4592516e-15
4.4671418e-15
4.6386588e-15
4.8249724e-15
3.8279955e-15
3.5630195e-15
3.3010183e-15
3.7016632e-15
4.3421818e-15
4.7211249e-15
4.6426918e-15
4.7172664e-15
3.6624148e-15
3.1603024e-15
3.3003442e-15
3.694641e-15
3.746644e-15
3.6410829e-15
3.8307531e-15
4.1515946e-15
3.60083e-15
3.3981823e-15
3.4688301e-15
3.9397537e-15
4.5086138e-15
4.3132542e-15
4.6784441e-15
4.7837631e-15
4.9208981e-15
4.3690025e-15
4.5343657e-15
5.0940358e-15
5.9549956e-15
6.9347705e-15
5.5671242e-15
6.4990187e-15
6.531961e-15
6.3121764e-15
5.903695e-15
6.1024312e-15
5.2561676e-15
5.2303571e-15
5.312766e-15
5.0997293e-15
5.6162584e-15
4.97934e-15
5.036961e-15
5.8098097e-15
6.3022536e-15
6.0304565e-15
5.4213524e-15
5.5413211e-15
1.027386e-14
9.9504977e-15
8.9715031e-15
9.0195786e-15
1.0095259e-14
9.9240596e-15
1.0755135e-14
1.0027378e-14
6.7615686e-15
1.5840881e-15
1.5804168e-15
1.886394e-15
1.9228627e-15
6.8571107e-15
6.4963632e-15
7.254733e-15
1.7011704e-15
1.7531398e-15
2.0996792e-15
2.0657406e-15
1.0050112e-14
9.4330041e-15
9.3540829e-15
9.3600291e-15
1.0004744e-14
9.9649506e-15
1.0393902e-14
9.6703218e-15
6.293275e-15
6.430341e-15
6.3783954e-15
6.7248415e-15
1.6374809e-15
1.6999319e-15
2.0692495e-15
2.0111002e-15
1.5608751e-15
1.6095549e-15
1.9204016e-15
1.9138748e-15
5.9482171e-15
5.8356457e-15
5.726742e-15
5.9731272e-15
5.4678972e-15
5.1308728e-15
5.405032e-15
5.5918888e-15
3.5254329e-15
3.4402512e-15
3.5450362e-15
3.8038443e-15
4.5585101e-15
4.2318326e-15
4.2268473e-15
4.7909351e-15
4.3735394e-15
4.4030336e-15
4.2457308e-15
4.3891911e-15
3.4953539e-15
3.3224188e-15
3.5488363e-15
3.4077125e-15
3.3595978e-15
3.1997296e-15
3.2735941e-15
3.6717371e-15
3.3016226e-15
3.4742144e-15
3.8365574e-15
3.7716303e-15
4.8199807e-15
4.5373896e-15
4.5824327e-15
4.857236e-15
4.3813554e-15
4.1043986e-15
4.2774104e-15
4.5537126e-15
5.9183855e-16
4.906771e-16
7.0817183e-16
1.8732369e-16
1.7900002e-16
1.7879798e-16
1.8775194e-16
1.9654601e-16
1.7965184e-16
1.808904e-16
1.9711619e-16
1.8829533e-16
1.8179742e-16
1.8793147e-16
2.0269642e-16
1.9082021e-16
1.8090894e-16
1.8160735e-16
2.0484198e-16
6.5594656e-16
6.1145396e-16
6.7154779e-16
2.6383709e-15
2.663234e-15
2.6667818e-15
2.8128997e-15
2.2082974e-15
2.2580429e-15
1.9246345e-15
1.9682842e-15
2.5446874e-15
2.8512056e-15
2.827601e-15
2.5201495e-15
2.044021e-15
1.8847081e-15
1.7900619e-15
1.8353675e-15
1.3643315e-15
1.2497329e-15
7.3817839e-16
7.2821062e-16
1.1506394e-15
1.1950428e-15
7.6872219e-16
7.3415141e-16
1.4637164e-15
1.3944383e-15
1.3804815e-15
1.3342082e-15
1.2464837e-15
1.3218265e-15
1.2986992e-15
1.2365971e-15
1.345547e-15
1.3773125e-15
5.9701545e-16
7.5130214e-16
1.334153e-15
1.2580734e-15
1.432246e-15
1.3106723e-15
1.1424605e-15
1.1450029e-15
1.2135359e-15
1.269682e-15
5.5222223e-16
1.392103e-15
7.4539933e-16
1.5091224e-15
1.9441243e-15
1.8952622e-15
1.7449841e-15
1.8081595e-15
2.3509793e-15
2.5642596e-15
2.6282343e-15
2.5757763e-15
2.5069962e-15
2.4022371e-15
2.365317e-15
2.5648263e-15
1.6470069e-15
1.6221199e-15
1.7941875e-15
1.7314157e-15
1.808489e-15
1.8098633e-15
1.7628633e-15
1.8092366e-15
1.7647418e-15
2.0002347e-15
1.9695201e-15
1.7896295e-15
2.63739e-15
2.4600568e-15
2.3205606e-15
2.5366154e-15
2.3530633e-15
2.2995512e-15
2.427194e-15
2.5207854e-15
1.8788416e-16
1.8226396e-16
1.8249649e-16
1.9903035e-16
1.4717295e-15
5.8185275e-16
7.9956521e-16
1.1158875e-15
1.9040397e-16
1.7759975e-16
1.8473604e-16
2.0466699e-16
1.7670226e-15
5.3693915e-16
7.7541538e-16
1.2905907e-15
5.9780447e-16
6.9715068e-16
1.2138137e-15
1.2538143e-15
1.2553826e-15
1.2251929e-15
1.219047e-15
1.3351998e-15
1.3754287e-15
1.2198677e-15
1.9011927e-16
1.7597228e-16
1.805471e-16
2.0184702e-16
1.515392e-15
5.663783e-16
7.9052541e-16
1.3896175e-15
1.8324917e-16
1.736786e-16
1.7997834e-16
1.9310905e-16
1.8709373e-15
5.5361429e-16
7.6472199e-16
1.2776261e-15
6.2821214e-16
5.4529367e-16
1.2982774e-15
1.2800178e-15
1.3145522e-15
1.3687395e-15
1.2304449e-15
1.3204373e-15
1.3490642e-15
1.2637103e-15
2.8206749e-15
2.6860688e-15
2.5167702e-15
2.7378661e-15
1.9290729e-15
1.9224803e-15
1.8163335e-15
1.889444e-15
2.0555067e-15
1.9336742e-15
1.9137798e-15
2.1142145e-15
2.6796416e-15
2.5405339e-15
2.7289139e-15
2.9486419e-15
6.6938039e-16
6.4209576e-16
5.3219553e-16
5.8562672e-16
5.9186566e-16
5.6387481e-16
3.8032386e-15
5.2447416e-15
4.6802638e-15
3.4909869e-15
4.6633901e-15
1.6621665e-15
1.9492841e-15
2.0180697e-15
1.571713e-15
1.5360037e-15
1.5389209e-15
1.6769263e-15
1.6673107e-15
1.0253827e-14
9.7736763e-15
5.3746706e-15
1.5178058e-15
6.7678173e-15
6.1618429e-15
6.2813315e-15
6.586861e-15
6.4345003e-15
6.8875917e-15
1.6185205e-15
7.1052563e-16
6.8585525e-16
6.6685055e-16
1.9252352e-15
1.9794076e-15
7.1041319e-16
1.525267e-15
1.8166864e-15
6.7732908e-16
6.6469879e-16
1.7560485e-15
1.6088221e-15
1.4163833e-15
1.5654423e-15
1.8663312e-15
1.6707354e-15
1.7853215e-15
2.0016513e-15
1.432297e-15
1.4892662e-15
1.62763e-15
1.5323419e-15
1.6984585e-15
1.7183913e-15
1.6809971e-15
1.6297704e-15
1.9675153e-15
2.170382e-15
1.9336708e-15
2.1270335e-15
1.8323041e-15
1.8240741e-15
1.6374434e-15
1.6253375e-15
1.7167614e-15
1.6972578e-15
1.6119076e-15
1.6402435e-15
1.7503635e-15
1.7975035e-15
1.8080924e-15
1.7668998e-15
1.156137e-15
1.3629167e-15
1.4789781e-15
1.2591715e-15
1.265205e-15
1.2421405e-15
1.3428564e-15
1.3509096e-15
1.2296358e-15
1.3113703e-15
1.2910383e-15
1.318207e-15
1.3089759e-15
1.4126856e-15
1.5053176e-15
1.3036915e-15
1.2486325e-15
1.2482008e-15
1.3454503e-15
1.3374718e-15
1.5175776e-15
1.5490713e-15
1.3975775e-15
1.3541516e-15
1.3509618e-15
1.68785e-15
1.5393834e-15
1.3521483e-15
1.4356878e-15
1.2591735e-15
1.327244e-15
1.3056267e-15
1.7768012e-15
2.0399191e-15
2.0540672e-15
1.7958142e-15
1.7845629e-15
1.9964178e-15
1.9921585e-15
1.7728699e-15
1.778291e-15
1.7836599e-15
1.709703e-15
1.7000592e-15
1.7799378e-15
1.7079344e-15
1.7261679e-15
1.7081464e-15
1.8321773e-15
1.959574e-15
2.1132483e-15
1.8533596e-15
1.8820503e-15
1.9047804e-15
1.7020796e-15
1.6659101e-15
1.7779938e-15
1.7992234e-15
1.693343e-15
1.6944408e-15
1.7683738e-15
1.7710175e-15
1.7101656e-15
1.7840748e-15
1.2498284e-15
1.2224723e-15
1.3204926e-15
1.3090557e-15
1.3399611e-15
1.2503756e-15
1.3340283e-15
1.3173174e-15
1.352493e-15
1.4720554e-15
1.4344397e-15
1.3116482e-15
1.5186189e-15
1.4778448e-15
1.2942261e-15
1.3187456e-15
1.2877532e-15
1.344975e-15
1.3335196e-15
1.3872945e-15
1.3808179e-15
1.4496201e-15
1.5582105e-15
1.38002e-15
1.4347301e-15
1.8251171e-15
1.7420748e-15
1.4321509e-15
1.5633002e-15
1.354617e-15
1.2884552e-15
1.3313931e-15
1.0105377e-15
1.2302627e-15
1.223085e-15
1.063408e-15
1.3578124e-15
1.0284349e-15
1.0409497e-15
1.1557005e-15
9.2385248e-16
1.0643254e-15
1.0609671e-15
1.1201405e-15
1.0037095e-15
9.5596203e-16
1.0567488e-15
9.8283798e-16
2.1374015e-16
6.5412508e-16
4.9286649e-16
5.6068731e-16
5.3476153e-16
2.1266921e-16
7.0626103e-16
4.375942e-16
5.651497e-16
5.4678894e-16
4.94607e-16
4.6821735e-16
5.0750929e-16
5.127414e-16
4.8818006e-16
4.3429617e-16
4.6523141e-16
4.779409e-16
3.223539e-16
3.1379773e-16
5.1314079e-16
4.7321448e-16
4.6091476e-16
4.5014798e-16
2.1693311e-16
4.6784157e-16
6.2708316e-16
7.1984031e-16
5.5546525e-16
2.1370045e-16
6.0658898e-16
4.9860586e-16
5.501615e-16
5.3584486e-16
4.7099729e-16
4.2328636e-16
4.7131173e-16
4.8308067e-16
3.2025355e-16
3.2294284e-16
9.9462836e-16
7.8739947e-16
8.1931434e-16
1.0122379e-15
9.0215555e-16
9.2352495e-16
1.0703321e-15
1.0616759e-15
1.077364e-15
1.0525139e-15
9.8949593e-16
1.0231746e-15
1.1047919e-15
1.0385745e-15
1.0736577e-15
1.135266e-15
4.8494226e-16
5.1737379e-16
9.7289493e-16
9.3497905e-16
1.1156694e-15
1.1267025e-15
1.055785e-15
9.8231946e-16
1.0334852e-15
1.0442773e-15
1.2543382e-15
9.3063672e-16
9.824869e-16
1.0379626e-15
9.6943832e-16
1.0712684e-15
9.2604946e-16
9.8647622e-16
2.1708588e-16
6.2886656e-16
4.8839883e-16
5.4095197e-16
5.635877e-16
2.1511762e-16
7.0429795e-16
4.3616471e-16
5.6141876e-16
5.5666792e-16
4.7433799e-16
4.4975921e-16
4.9141795e-16
4.9297965e-16
3.1463164e-16
3.1985555e-16
4.2929678e-16
4.6348151e-16
4.9233852e-16
4.6551918e-16
2.0789765e-16
5.5960511e-16
4.7332596e-16
5.4403682e-16
5.4193035e-16
2.1161384e-16
6.7312649e-16
4.5519368e-16
5.4364498e-16
5.4682658e-16
3.2905179e-16
3.3415237e-16
4.3840487e-16
4.7831459e-16
5.1822103e-16
4.736127e-16
4.4372564e-16
4.9103691e-16
5.4339198e-16
4.9195398e-16
9.7878653e-16
9.4241545e-16
1.1478e-15
1.1030566e-15
9.360643e-16
8.7539762e-16
1.0594329e-15
1.0723922e-15
1.0761401e-15
1.1075939e-15
1.1226271e-15
1.0710498e-15
1.1862346e-15
1.2037857e-15
1.1198773e-15
1.1089195e-15
4.8662967e-16
4.5070761e-16
5.8089271e-16
5.5387994e-16
6.6142029e-15
6.9951424e-15
6.2906597e-15
6.4846093e-15
5.9013184e-15
5.7884964e-15
6.3746499e-15
6.5984597e-15
5.4375175e-15
5.4939638e-15
5.5583704e-15
5.5744193e-15
5.9495137e-15
5.7033693e-15
5.412743e-15
5.4613601e-15
3.3899128e-15
3.8195625e-15
3.9288894e-15
3.7638952e-15
3.5157346e-15
3.8929979e-15
3.8649062e-15
3.8694801e-15
4.5893382e-15
4.4675369e-15
4.7097204e-15
4.7587785e-15
4.5165627e-15
4.6648953e-15
4.7788433e-15
4.5716576e-15
3.6795118e-15
3.4201948e-15
3.4648201e-15
3.9503789e-15
3.608934e-15
3.5336747e-15
3.5748657e-15
3.9753067e-15
4.5856092e-15
4.4258972e-15
4.6894893e-15
4.7661772e-15
4.4214709e-15
4.2898741e-15
4.6271511e-15
4.6567158e-15
5.4820771e-15
5.2137336e-15
5.2467946e-15
5.5349536e-15
5.6189528e-15
5.3993279e-15
5.404436e-15
5.7349875e-15
6.5617719e-15
6.080036e-15
6.5087511e-15
6.9981053e-15
6.2631885e-15
5.9958183e-15
6.4744672e-15
6.7753751e-15
6.6083743e-15
6.8957934e-15
6.4248372e-15
7.1763944e-15
6.5048632e-15
7.4681487e-15
6.3465754e-15
6.9711749e-15
5.9050739e-15
5.836835e-15
6.290195e-15
5.861499e-15
6.2192862e-15
5.9704054e-15
5.5990453e-15
6.0079129e-15
6.8938501e-15
6.5301824e-15
6.4551892e-15
6.1544537e-15
6.8321493e-15
6.2249079e-15
6.5470365e-15
7.0912581e-15
5.4624776e-15
5.4660183e-15
5.4144643e-15
5.5776357e-15
5.7838553e-15
5.3660253e-15
5.4641017e-15
5.9388872e-15
3.5766982e-15
3.8507231e-15
4.0248993e-15
3.9191084e-15
4.7986676e-15
4.5629847e-15
4.6962376e-15
4.9392308e-15
5.1647504e-15
5.7665202e-15
5.3250553e-15
5.0335989e-15
4.5251779e-15
4.0008901e-15
3.8052234e-15
4.1377641e-15
3.4186923e-15
3.4461847e-15
3.590275e-15
3.7375416e-15
3.5029234e-15
3.4234996e-15
3.7339234e-15
3.8824545e-15
4.7641887e-15
4.4929753e-15
4.5667165e-15
4.8708692e-15
4.4383256e-15
4.2668884e-15
4.5248807e-15
4.5800855e-15
1.9371895e-15
1.9575852e-15
2.0078698e-15
1.9280207e-15
2.3680281e-15
2.5138917e-15
2.2331223e-15
2.0112122e-15
2.9182566e-15
2.8426605e-15
2.4933277e-15
2.6711987e-15
2.7939759e-15
2.6483396e-15
2.4902895e-15
2.6005881e-15
1.7551617e-16
1.7688431e-16
1.952289e-16
1.9327185e-16
4.7466972e-16
6.5451652e-16
1.7771201e-16
1.9812901e-16
1.9369058e-16
1.7951336e-16
9.1888895e-16
9.858111e-16
9.7395843e-16
7.6855554e-16
2.0802651e-15
1.7242741e-15
1.4966751e-15
1.7431776e-15
8.5180629e-16
1.0483363e-15
1.1347704e-15
7.5536916e-16
1.3822849e-15
1.3308003e-15
1.2993063e-15
1.351059e-15
1.8706624e-16
1.8122486e-16
1.8740028e-16
2.0041829e-16
1.3479234e-15
9.7905109e-16
6.2951448e-16
8.0226202e-16
1.8063384e-16
1.8138056e-16
2.0276831e-16
2.0418825e-16
1.1281273e-15
9.6234847e-16
8.8545258e-16
8.1031188e-16
1.4950942e-15
1.6734642e-15
1.5870904e-15
1.3760726e-15
1.6065631e-15
1.2852463e-15
1.2702072e-15
1.4411046e-15
6.1946783e-16
5.9058972e-16
5.7172176e-16
6.4654281e-16
2.8150033e-15
2.8941465e-15
2.5295148e-15
2.709746e-15
2.0729521e-15
2.0943061e-15
1.9484276e-15
1.9200247e-15
2.8237524e-15
2.7291825e-15
2.5952864e-15
2.8073551e-15
1.9178255e-15
1.907534e-15
2.0558186e-15
1.9892077e-15
1.8591969e-16
1.7827188e-16
1.7757727e-16
1.9837629e-16
1.8748477e-16
1.7434523e-16
1.836523e-16
2.0290301e-16
5.8530924e-16
6.85275e-16
1.7811816e-16
1.7663847e-16
1.998176e-16
2.0012987e-16
5.9948654e-16
5.1061349e-16
1.7769512e-16
1.7483587e-16
1.8533147e-16
1.8558775e-16
5.9728145e-16
5.6541627e-16
2.0186368e-15
2.070489e-15
2.0041104e-15
1.850643e-15
1.9789941e-15
2.1847644e-15
1.9411213e-15
1.9495133e-15
2.5403958e-15
2.4048204e-15
2.6025265e-15
2.6930381e-15
2.5143913e-15
2.3319819e-15
2.5541925e-15
2.6349697e-15
1.0429934e-15
1.4853297e-15
5.7400088e-16
8.1973082e-16
1.0386939e-15
1.0759438e-15
6.4576871e-16
8.5180517e-16
1.404339e-15
1.3804725e-15
1.5900149e-15
1.3643944e-15
1.3225866e-15
1.3061345e-15
1.5328044e-15
1.3945222e-15
1.2353637e-15
1.1763137e-15
8.0949875e-16
7.76609e-16
1.5032374e-15
1.6264824e-15
1.5368613e-15
1.4643256e-15
1.3888968e-15
1.4060664e-15
1.5399466e-15
1.5189241e-15
8.1307064e-16
1.3754304e-15
1.137357e-15
7.6979004e-16
2.3474845e-15
2.0560781e-15
2.0634288e-15
2.3687425e-15
1.9970095e-15
2.1484135e-15
2.1126533e-15
2.037681e-15
2.8694337e-15
2.7274719e-15
2.6371909e-15
2.811634e-15
2.9425575e-15
2.8892644e-15
3.0906482e-15
3.0778919e-15
5.4191217e-16
5.9526546e-16
5.688519e-16
5.3296455e-16
1.5403013e-15
1.6128622e-15
3.8829855e-15
4.0126494e-15
4.415501e-15
4.2809363e-15
1.7677093e-15
1.7515176e-15
1.3193793e-15
1.3517173e-15
1.3656966e-15
1.3256899e-15
1.1926646e-15
1.2566734e-15
1.2893922e-15
1.2175401e-15
1.4261816e-15
1.4472118e-15
1.3542962e-15
1.3477306e-15
1.4907019e-15
1.5109575e-15
1.4973082e-15
1.4762322e-15
4.3587897e-15
4.46197e-15
3.6752535e-15
3.6260435e-15
4.2136667e-15
4.2687432e-15
3.5287155e-15
3.561305e-15
1.6324789e-15
1.6954795e-15
4.1362123e-15
4.2284559e-15
1.4075943e-15
1.4081337e-15
1.3308703e-15
1.3382087e-15
1.2106555e-15
1.2874563e-15
1.3056942e-15
1.230383e-15
1.3405739e-15
1.3812776e-15
1.3789394e-15
1.3654825e-15
1.4810208e-15
1.4861496e-15
1.4936561e-15
1.4745676e-15
4.390999e-15
4.4318395e-15
3.6886416e-15
3.6665973e-15
4.2336762e-15
4.2319355e-15
3.5448231e-15
3.5773212e-15
1.2235143e-15
1.2084509e-15
1.1340707e-15
1.1549805e-15
1.1462329e-15
1.1461534e-15
1.0606244e-15
1.0692412e-15
1.1269279e-15
1.1979095e-15
1.2216821e-15
1.1472673e-15
1.2328495e-15
1.2865112e-15
1.3159742e-15
1.2453181e-15
1.2553329e-15
1.2667041e-15
1.1838056e-15
1.1922377e-15
1.0588252e-15
1.1334376e-15
1.1470667e-15
1.0690922e-15
1.1061571e-15
1.1900807e-15
1.2117196e-15
1.1426629e-15
1.272954e-15
1.3388602e-15
1.345955e-15
1.2724191e-15
1.2992973e-15
1.3364595e-15
1.3591407e-15
1.3173863e-15
4.2298244e-15
4.2002694e-15
3.4918439e-15
3.5603874e-15
1.1868451e-15
1.2597262e-15
1.2812778e-15
1.1979876e-15
1.4399228e-15
1.4578781e-15
1.3738347e-15
1.3690111e-15
1.5210654e-15
1.5290427e-15
1.5199745e-15
1.5053882e-15
4.4030951e-15
4.4635042e-15
3.6935068e-15
3.674127e-15
1.3549373e-15
1.3877886e-15
1.4024934e-15
1.3713927e-15
1.2463741e-15
1.3157981e-15
1.3435803e-15
1.2561762e-15
1.1348771e-15
1.2225522e-15
1.2408068e-15
1.1423409e-15
1.0799598e-15
1.147666e-15
1.1711053e-15
1.0816033e-15
1.2594382e-15
1.2651082e-15
1.1782824e-15
1.1912962e-15
1.2755304e-15
1.3317483e-15
1.3490641e-15
1.279119e-15
1.1921673e-15
1.2423714e-15
1.3000215e-15
1.1971454e-15
1.1923031e-15
1.1618697e-15
1.0919079e-15
1.1274248e-15
1.2673597e-15
1.2970958e-15
1.2076697e-15
1.2048689e-15
9.8618906e-16
1.0706478e-15
1.0753366e-15
9.8821958e-16
9.1434054e-16
9.8951278e-16
9.8344471e-16
9.0774301e-16
1.0469533e-15
1.0667557e-15
9.8774659e-16
9.8772053e-16
1.084551e-15
1.1431248e-15
1.1473047e-15
1.0837111e-15
8.4838149e-16
9.2660439e-16
9.180087e-16
8.3602868e-16
7.7098153e-16
8.3683835e-16
8.3051474e-16
7.5985181e-16
8.1566066e-16
8.5097755e-16
7.8334679e-16
7.7023895e-16
8.8847074e-16
9.314116e-16
9.2915929e-16
8.7466854e-16
9.8977671e-16
1.0692838e-15
1.0705543e-15
9.8153852e-16
9.1994672e-16
9.8861102e-16
9.978118e-16