/*--------------------------------*- C++ -*----------------------------------*\
  =========                 |
  \\      /  F ield         | OpenFOAM: The Open Source CFD Toolbox
   \\    /   O peration     | Website:  https://openfoam.org
    \\  /    A nd           | Version:  7
     \\/     M anipulation  |
\*---------------------------------------------------------------------------*/
FoamFile
{
    version     2.0;
    format      ascii;
    class       volScalarField;
    location    "1000";
    object      p;
}
// * * * * * * * * * * * * * * * * * * * * * * * * * * * * * * * * * * * * * //

dimensions      [0 2 -2 0 0 0 0];

internalField   nonuniform List<scalar> 
34377
(
-6.3686862e+18
-6.4387854e+18
-6.197095e+18
-6.2288527e+18
-6.0836744e+18
-6.3020873e+18
-6.1119817e+18
-5.4993462e+18
-5.8889277e+18
-5.8634328e+18
-6.282499e+18
-6.2811943e+18
-6.2495196e+18
-6.3635732e+18
-6.2481685e+18
-6.1684359e+18
-6.0185141e+18
-6.1021076e+18
-6.1170049e+18
-6.0322637e+18
-6.1317747e+18
-6.147002e+18
-6.0608754e+18
-6.0467505e+18
-6.0575818e+18
-6.136043e+18
-6.0305387e+18
-5.4625031e+18
-5.6519202e+18
-5.4393424e+18
-5.4578049e+18
-5.1097235e+18
-5.3971626e+18
-5.3780654e+18
-5.565954e+18
-5.5866919e+18
-5.6738909e+18
-5.92059e+18
-5.9063807e+18
-5.816906e+18
-5.8401209e+18
-5.880724e+18
-5.8933021e+18
-6.1633889e+18
-6.1317663e+18
-6.146346e+18
-6.1784563e+18
-6.19679e+18
-6.1718861e+18
-6.1816388e+18
-6.1873151e+18
-6.2173399e+18
-6.1317356e+18
-6.1003635e+18
-6.1159857e+18
-6.1477497e+18
-6.1805353e+18
-6.1825414e+18
-6.2174865e+18
-6.1499695e+18
-6.1410298e+18
-6.1657949e+18
-6.1566049e+18
-6.0897102e+18
-6.0759903e+18
-5.995009e+18
-6.0070463e+18
-6.046582e+18
-6.0534908e+18
-5.9879744e+18
-5.9941096e+18
-6.0008981e+18
-6.0603105e+18
-6.06757e+18
-6.0080117e+18
-6.0743951e+18
-6.0148375e+18
-6.0825331e+18
-6.0224281e+18
-6.0900056e+18
-6.030024e+18
-6.0973277e+18
-6.037013e+18
-5.9666915e+18
-6.0439821e+18
-6.0610729e+18
-5.9816419e+18
-5.4225525e+18
-5.4060976e+18
-5.6119172e+18
-5.631695e+18
-5.0832421e+18
-5.3450968e+18
-5.3615395e+18
-5.5470243e+18
-5.529332e+18
-5.7545542e+18
-5.7661399e+18
-5.6398723e+18
-5.6299598e+18
-5.5298495e+18
-5.4317373e+18
-5.4390682e+18
-5.5385643e+18
-5.2441195e+18
-5.5487619e+18
-5.4489803e+18
-5.4599398e+18
-5.5597683e+18
-5.2598565e+18
-5.0341456e+18
-5.0465418e+18
-5.0123969e+18
-5.213655e+18
-5.1970926e+18
-5.0258121e+18
-5.7779775e+18
-5.6505026e+18
-5.6625866e+18
-5.7913579e+18
-5.9491538e+18
-5.9417021e+18
-5.9274771e+18
-5.9346066e+18
-5.8477396e+18
-5.8357384e+18
-5.8585948e+18
-5.8700063e+18
-5.9067315e+18
-5.9013279e+18
-5.920658e+18
-5.9129178e+18
-6.0134063e+18
-6.0429378e+18
-6.0538294e+18
-6.0201661e+18
-6.0351934e+18
-6.0690505e+18
-6.1187869e+18
-6.1342277e+18
-6.1416642e+18
-6.12606e+18
-6.1215954e+18
-6.1295926e+18
-6.1058984e+18
-6.1139773e+18
-6.1109826e+18
-6.102829e+18
-6.1264847e+18
-6.1182839e+18
-6.1374575e+18
-6.1289238e+18
-6.121591e+18
-6.1019038e+18
-6.0702797e+18
-6.0857385e+18
-6.1172751e+18
-6.0241818e+18
-5.9912489e+18
-6.0055408e+18
-6.0387164e+18
-6.0530257e+18
-6.0350503e+18
-6.0671097e+18
-6.0854085e+18
-6.0861423e+18
-6.1042159e+18
-6.079113e+18
-6.0969441e+18
-6.1204811e+18
-6.1355704e+18
-6.1126526e+18
-6.1273419e+18
-6.0803836e+18
-6.072628e+18
-6.0881766e+18
-6.095885e+18
-6.0919339e+18
-6.0993742e+18
-6.0771115e+18
-6.0843449e+18
-6.0953323e+18
-6.0880811e+18
-6.1108211e+18
-6.1034446e+18
-6.1069618e+18
-6.1142046e+18
-6.0915474e+18
-6.0988277e+18
-6.0352612e+18
-6.0412717e+18
-5.9831668e+18
-5.9777432e+18
-6.0215581e+18
-6.0289277e+18
-5.965118e+18
-5.9715745e+18
-6.0112255e+18
-6.0143611e+18
-5.9754766e+18
-5.9728988e+18
-6.0173296e+18
-6.0206106e+18
-5.9816992e+18
-5.9784991e+18
-6.0235916e+18
-6.0275515e+18
-5.9884244e+18
-5.9847289e+18
-6.0311185e+18
-6.0347717e+18
-5.9922649e+18
-5.9959358e+18
-5.9990974e+18
-6.0379367e+18
-6.0419593e+18
-6.002676e+18
-6.0457055e+18
-6.0496726e+18
-6.0104176e+18
-6.0064846e+18
-6.0532583e+18
-6.0576068e+18
-6.0140421e+18
-6.0180998e+18
-6.0219542e+18
-6.0612998e+18
-6.0647117e+18
-6.0252381e+18
-5.9995351e+18
-5.9448486e+18
-5.9371948e+18
-5.9908159e+18
-6.0072204e+18
-6.0148439e+18
-5.9590241e+18
-5.952124e+18
-5.5211766e+18
-5.4239019e+18
-5.4165748e+18
-5.512664e+18
-5.2302782e+18
-5.4985604e+18
-5.4038127e+18
-5.4091668e+18
-5.2166385e+18
-5.5049499e+18
-5.7150689e+18
-5.7247505e+18
-5.6023207e+18
-5.594817e+18
-5.6108384e+18
-5.7342922e+18
-5.6198016e+18
-5.7444064e+18
-5.0223831e+18
-4.9882329e+18
-5.1683435e+18
-5.1827159e+18
-4.9998905e+18
-5.7478459e+18
-5.7426072e+18
-5.8213663e+18
-5.82658e+18
-5.7607293e+18
-5.7542063e+18
-5.8328404e+18
-5.8401938e+18
-5.69038e+18
-5.6302353e+18
-5.6360791e+18
-5.6964093e+18
-5.6791266e+18
-5.6246088e+18
-5.6198869e+18
-5.6844427e+18
-5.5693171e+18
-5.5231679e+18
-5.5195579e+18
-5.5734323e+18
-5.4788883e+18
-5.4754985e+18
-5.4313635e+18
-5.4342123e+18
-5.3399551e+18
-5.4420265e+18
-5.4376676e+18
-5.4825058e+18
-5.3467254e+18
-5.4870219e+18
-5.5323043e+18
-5.5273863e+18
-5.5784508e+18
-5.5841064e+18
-5.2481822e+18
-5.2417124e+18
-5.5892719e+18
-5.5428642e+18
-5.5375721e+18
-5.5944859e+18
-5.4525915e+18
-5.4468602e+18
-5.4976157e+18
-5.4920098e+18
-5.356427e+18
-5.4585397e+18
-5.5033889e+18
-5.6004993e+18
-5.5486317e+18
-5.6071693e+18
-5.2570205e+18
-4.8327997e+18
-5.0385656e+18
-5.1473537e+18
-5.1531158e+18
-5.0418632e+18
-5.0465934e+18
-5.1602313e+18
-5.8467308e+18
-5.8536207e+18
-5.7667232e+18
-5.7729967e+18
-5.7018046e+18
-5.707944e+18
-5.6411202e+18
-5.6465927e+18
-5.6595741e+18
-5.6529009e+18
-5.714251e+18
-5.7208433e+18
-5.7864004e+18
-5.7796642e+18
-5.8605092e+18
-5.8677227e+18
-5.9700022e+18
-5.9664271e+18
-5.9589211e+18
-5.9627553e+18
-5.9443173e+18
-5.947568e+18
-5.9511081e+18
-5.9552431e+18
-5.8688291e+18
-5.8756146e+18
-5.8565108e+18
-5.8625372e+18
-5.8810318e+18
-5.8862955e+18
-5.8969393e+18
-5.8914985e+18
-5.9232462e+18
-5.9266155e+18
-5.9184594e+18
-5.9204969e+18
-5.9410181e+18
-5.9369516e+18
-5.9296598e+18
-5.933107e+18
-5.9830466e+18
-5.949642e+18
-5.7994206e+18
-5.9426527e+18
-6.0581181e+18
-6.0499549e+18
-6.0736773e+18
-6.0660098e+18
-6.0866303e+18
-6.0875675e+18
-6.0916226e+18
-6.0905794e+18
-6.0945731e+18
-6.0957108e+18
-6.0995847e+18
-6.0985886e+18
-6.1024125e+18
-6.0827912e+18
-6.0868768e+18
-6.0670821e+18
-6.0629846e+18
-6.0709954e+18
-6.0748667e+18
-6.0908315e+18
-6.0946676e+18
-6.0786801e+18
-6.0706124e+18
-6.103379e+18
-6.1075383e+18
-6.1062427e+18
-6.1103033e+18
-6.106267e+18
-6.086406e+18
-6.0983714e+18
-6.0784241e+18
-6.1025491e+18
-6.0826931e+18
-5.9954893e+18
-5.9620408e+18
-5.9773897e+18
-6.0102612e+18
-5.915004e+18
-6.0205911e+18
-6.0279772e+18
-5.8875057e+18
-5.9008309e+18
-5.9280999e+18
-6.0351863e+18
-6.0426052e+18
-5.9464812e+18
-5.9306514e+18
-5.9642928e+18
-5.9801318e+18
-6.0269616e+18
-6.0114592e+18
-6.0202419e+18
-6.0359082e+18
-6.044169e+18
-6.0285725e+18
-6.0361434e+18
-6.0518828e+18
-6.0311893e+18
-6.0400938e+18
-6.018134e+18
-6.027031e+18
-6.0484626e+18
-6.056172e+18
-6.0351254e+18
-6.0429413e+18
-6.0593238e+18
-6.0437187e+18
-6.0516063e+18
-6.0672858e+18
-6.0745666e+18
-6.0590775e+18
-6.0658569e+18
-6.081417e+18
-6.0636276e+18
-6.0714139e+18
-6.0501033e+18
-6.0577654e+18
-6.0853696e+18
-6.0645751e+18
-6.0787045e+18
-6.0710332e+18
-6.041168e+18
-6.0484631e+18
-6.05845e+18
-6.0621224e+18
-6.0618193e+18
-6.0653665e+18
-6.0658044e+18
-6.0693409e+18
-6.0689654e+18
-6.0724146e+18
-6.0356205e+18
-6.039002e+18
-6.0545944e+18
-6.058149e+18
-6.0422466e+18
-6.0455404e+18
-6.0615929e+18
-6.064984e+18
-6.0631567e+18
-6.0557735e+18
-6.0728824e+18
-6.076753e+18
-6.0759793e+18
-6.0797733e+18
-6.0804562e+18
-6.0839874e+18
-6.0834439e+18
-6.0869722e+18
-6.0683541e+18
-6.0486572e+18
-6.0722456e+18
-6.0526017e+18
-6.0758695e+18
-6.0793831e+18
-6.0562135e+18
-6.0597626e+18
-6.0002669e+18
-6.0034538e+18
-5.9655111e+18
-5.9626848e+18
-6.006284e+18
-5.9683823e+18
-6.0089577e+18
-5.9708536e+18
-5.9873589e+18
-5.9909879e+18
-5.9507661e+18
-5.9538281e+18
-5.9569622e+18
-5.994231e+18
-5.9974572e+18
-5.9599741e+18
-5.984034e+18
-5.9826698e+18
-5.9622702e+18
-5.9633626e+18
-5.9867103e+18
-5.9853583e+18
-5.9646508e+18
-5.96601e+18
-5.9897824e+18
-5.9880483e+18
-5.9673948e+18
-5.9690287e+18
-5.992992e+18
-5.9914353e+18
-5.9707154e+18
-5.9723196e+18
-5.9962889e+18
-5.9944392e+18
-5.9737154e+18
-5.9753819e+18
-5.9999584e+18
-5.9981393e+18
-5.9772567e+18
-5.9791535e+18
-5.9809662e+18
-6.0016755e+18
-6.00373e+18
-5.9829373e+18
-6.0073541e+18
-6.0056312e+18
-5.9849004e+18
-5.986687e+18
-6.0108982e+18
-6.0089432e+18
-5.9881867e+18
-5.9899051e+18
-6.0143938e+18
-6.0127231e+18
-5.9917416e+18
-5.9934865e+18
-6.0161971e+18
-5.9952959e+18
-6.0182784e+18
-5.9972525e+18
-5.9993644e+18
-6.0203174e+18
-6.0222326e+18
-6.0013675e+18
-6.0262453e+18
-6.0240499e+18
-6.0031234e+18
-6.0051153e+18
-6.0072218e+18
-6.0283143e+18
-6.0301321e+18
-6.00918e+18
-6.0340406e+18
-6.0320013e+18
-6.0110134e+18
-6.0129261e+18
-6.0372291e+18
-6.0358306e+18
-6.0146865e+18
-6.0161635e+18
-5.965369e+18
-5.9693336e+18
-5.9297726e+18
-5.933563e+18
-5.9574061e+18
-5.9614679e+18
-5.9225777e+18
-5.9259735e+18
-5.9369907e+18
-5.9727466e+18
-5.9768938e+18
-5.9406894e+18
-5.9805518e+18
-5.9842174e+18
-5.9443528e+18
-5.9478379e+18
-5.5154985e+18
-5.5115296e+18
-5.5650133e+18
-5.5608037e+18
-5.4719584e+18
-5.4682616e+18
-5.4248476e+18
-5.4282168e+18
-5.3331831e+18
-5.4619464e+18
-5.4215508e+18
-5.4188026e+18
-5.4646655e+18
-5.3268407e+18
-5.5076715e+18
-5.5049244e+18
-5.5544041e+18
-5.5572873e+18
-5.2301878e+18
-5.2363829e+18
-5.495146e+18
-5.5433202e+18
-5.452899e+18
-5.4101214e+18
-5.4121257e+18
-5.4551085e+18
-5.3199869e+18
-5.4153524e+18
-5.458633e+18
-5.224046e+18
-5.5017643e+18
-5.5512282e+18
-5.4980171e+18
-5.5469404e+18
-5.781814e+18
-5.7111876e+18
-5.7867021e+18
-5.7216373e+18
-5.7163294e+18
-5.7984742e+18
-5.7922989e+18
-5.6545998e+18
-5.5964483e+18
-5.659454e+18
-5.6010283e+18
-5.5921697e+18
-5.6500326e+18
-5.6046196e+18
-5.6075776e+18
-5.6668864e+18
-5.6633609e+18
-5.7295949e+18
-5.7259057e+18
-5.8032305e+18
-5.8077399e+18
-5.6703678e+18
-5.610907e+18
-5.6150742e+18
-5.6744185e+18
-5.7380748e+18
-5.7337271e+18
-5.8124242e+18
-5.8173912e+18
-5.0267093e+18
-5.1368733e+18
-5.1429197e+18
-5.0330522e+18
-5.7406781e+18
-5.7439892e+18
-5.7797297e+18
-5.7829232e+18
-5.7357516e+18
-5.7748108e+18
-5.7378713e+18
-5.7770242e+18
-5.8164244e+18
-5.8672218e+18
-5.8183493e+18
-5.8690854e+18
-5.8211147e+18
-5.8717923e+18
-5.8243575e+18
-5.8751668e+18
-5.7537586e+18
-5.7571358e+18
-5.7929491e+18
-5.796483e+18
-5.7471787e+18
-5.7860191e+18
-5.7504215e+18
-5.7895088e+18
-5.8274048e+18
-5.8781207e+18
-5.830766e+18
-5.88153e+18
-5.8345265e+18
-5.8383714e+18
-5.8853635e+18
-5.8894684e+18
-5.6808608e+18
-5.7137299e+18
-5.6839625e+18
-5.7169079e+18
-5.6236419e+18
-5.6265802e+18
-5.6518704e+18
-5.6550306e+18
-5.629462e+18
-5.6322969e+18
-5.6578912e+18
-5.6607126e+18
-5.6869406e+18
-5.6899212e+18
-5.7200563e+18
-5.7233241e+18
-5.66953e+18
-5.7023128e+18
-5.6717103e+18
-5.7044602e+18
-5.617684e+18
-5.6206825e+18
-5.6456893e+18
-5.6488156e+18
-5.613005e+18
-5.6407793e+18
-5.6151315e+18
-5.6430898e+18
-5.6744056e+18
-5.6776639e+18
-5.7072124e+18
-5.7105993e+18
-5.5615629e+18
-5.5872989e+18
-5.5634607e+18
-5.5893115e+18
-5.5184781e+18
-5.5206774e+18
-5.5417227e+18
-5.5441118e+18
-5.5148812e+18
-5.5378511e+18
-5.5165601e+18
-5.5397592e+18
-5.5655915e+18
-5.5681931e+18
-5.5916245e+18
-5.5945113e+18
-5.4742027e+18
-5.4964011e+18
-5.4760653e+18
-5.4984794e+18
-5.4709798e+18
-5.493027e+18
-5.4725648e+18
-5.4946403e+18
-5.4498715e+18
-5.4513304e+18
-5.4282949e+18
-5.3892481e+18
-5.4294011e+18
-5.4528534e+18
-5.4545841e+18
-5.3915529e+18
-5.4325276e+18
-5.4309641e+18
-5.3457957e+18
-5.3475306e+18
-5.4599781e+18
-5.4623755e+18
-5.3989617e+18
-5.4400406e+18
-5.4377477e+18
-5.4561034e+18
-5.4579643e+18
-5.3946723e+18
-5.4356521e+18
-5.4340118e+18
-5.4776236e+18
-5.5003483e+18
-5.479447e+18
-5.5023111e+18
-5.3500022e+18
-5.3542079e+18
-5.4815466e+18
-5.5045281e+18
-5.4840813e+18
-5.5072324e+18
-5.5274211e+18
-5.5515999e+18
-5.5301652e+18
-5.5543557e+18
-5.522875e+18
-5.5465601e+18
-5.5250344e+18
-5.5491071e+18
-5.5709083e+18
-5.5973468e+18
-5.5735791e+18
-5.60022e+18
-5.5763247e+18
-5.6030459e+18
-5.5791402e+18
-5.605934e+18
-5.2691314e+18
-5.2650323e+18
-5.3078562e+18
-5.3120961e+18
-5.3043876e+18
-5.26156e+18
-5.262603e+18
-5.305708e+18
-5.5817155e+18
-5.6083187e+18
-5.584131e+18
-5.610678e+18
-5.5380476e+18
-5.5411975e+18
-5.562204e+18
-5.5652749e+18
-5.5328472e+18
-5.5570104e+18
-5.5353502e+18
-5.5596026e+18
-5.5867542e+18
-5.5898905e+18
-5.6133657e+18
-5.6166584e+18
-5.4703687e+18
-5.4736902e+18
-5.4096798e+18
-5.451607e+18
-5.4481795e+18
-5.4647372e+18
-5.467487e+18
-5.4039455e+18
-5.4450317e+18
-5.4423772e+18
-5.4919305e+18
-5.5150064e+18
-5.4952241e+18
-5.5182736e+18
-5.4865304e+18
-5.5097731e+18
-5.4891459e+18
-5.5122941e+18
-5.3596219e+18
-5.3653095e+18
-5.4766127e+18
-5.4800127e+18
-5.4579051e+18
-5.4546365e+18
-5.4981495e+18
-5.5211936e+18
-5.5014263e+18
-5.524353e+18
-5.5746691e+18
-5.5930397e+18
-5.6198135e+18
-5.596287e+18
-5.623091e+18
-5.5441214e+18
-5.5682583e+18
-5.5472323e+18
-5.5715412e+18
-5.5994909e+18
-5.6262787e+18
-5.6026959e+18
-5.6295387e+18
-5.3177824e+18
-5.2747547e+18
-5.27994e+18
-5.3233627e+18
-4.9214362e+18
-4.9193043e+18
-4.7641933e+18
-4.7633153e+18
-4.5608421e+18
-5.0743126e+18
-5.1309411e+18
-5.1319949e+18
-5.0741971e+18
-5.1762369e+18
-5.1754486e+18
-5.2193315e+18
-5.2201059e+18
-5.2230295e+18
-5.179015e+18
-5.1822908e+18
-5.226681e+18
-5.133746e+18
-5.0753236e+18
-5.1365224e+18
-5.0779744e+18
-5.1401372e+18
-5.0798584e+18
-5.1441353e+18
-5.231826e+18
-5.1866326e+18
-5.1914128e+18
-5.2366215e+18
-5.8417263e+18
-5.8927251e+18
-5.8449061e+18
-5.895945e+18
-5.848316e+18
-5.8521028e+18
-5.8994413e+18
-5.9034884e+18
-5.760133e+18
-5.7996466e+18
-5.7629924e+18
-5.8028696e+18
-5.7661402e+18
-5.8060277e+18
-5.7697407e+18
-5.8096387e+18
-5.6926506e+18
-5.6952746e+18
-5.7261372e+18
-5.7288984e+18
-5.6983129e+18
-5.7017283e+18
-5.7319698e+18
-5.7355515e+18
-5.634659e+18
-5.6631949e+18
-5.6370342e+18
-5.6658146e+18
-5.6398796e+18
-5.64321e+18
-5.6686918e+18
-5.6720225e+18
-5.6528419e+18
-5.6560416e+18
-5.6816614e+18
-5.6847631e+18
-5.6463806e+18
-5.6496287e+18
-5.6751543e+18
-5.678521e+18
-5.7048798e+18
-5.7081032e+18
-5.7387528e+18
-5.7420416e+18
-5.7113208e+18
-5.7144387e+18
-5.7452452e+18
-5.7484124e+18
-5.7796639e+18
-5.8200294e+18
-5.7827977e+18
-5.8230898e+18
-5.7730656e+18
-5.8130715e+18
-5.7764084e+18
-5.8167549e+18
-5.8556045e+18
-5.9070712e+18
-5.8592131e+18
-5.9108597e+18
-5.8627685e+18
-5.9145309e+18
-5.8659936e+18
-5.9180213e+18
-5.9801687e+18
-5.9818303e+18
-5.9767078e+18
-5.9784492e+18
-5.969047e+18
-5.9709084e+18
-5.9728421e+18
-5.9749725e+18
-5.9542958e+18
-5.9558305e+18
-5.9574772e+18
-5.959358e+18
-5.9611156e+18
-5.9630062e+18
-5.9649844e+18
-5.9671816e+18
-5.8852434e+18
-5.8884439e+18
-5.8918883e+18
-5.8955695e+18
-5.8721816e+18
-5.8747566e+18
-5.8781185e+18
-5.8819872e+18
-5.8984527e+18
-5.9010146e+18
-5.9036551e+18
-5.9065962e+18
-5.9139056e+18
-5.9164914e+18
-5.9089909e+18
-5.911335e+18
-5.9332267e+18
-5.9347638e+18
-5.9363584e+18
-5.9381756e+18
-5.928584e+18
-5.9293838e+18
-5.9304499e+18
-5.9318682e+18
-5.9506401e+18
-5.9526688e+18
-5.9487e+18
-5.9467704e+18
-5.9396643e+18
-5.9412353e+18
-5.9449595e+18
-5.9429282e+18
-5.7731279e+18
-5.7448481e+18
-5.5794344e+18
-5.7759505e+18
-5.7886043e+18
-6.0034174e+18
-5.9951827e+18
-5.8342344e+18
-5.9359237e+18
-5.9440838e+18
-6.0115593e+18
-6.0454249e+18
-6.0416282e+18
-6.0519494e+18
-6.0559658e+18
-6.0799653e+18
-6.0841178e+18
-6.0640009e+18
-6.0679494e+18
-6.0734303e+18
-6.0722265e+18
-6.0754637e+18
-6.0744129e+18
-6.0764507e+18
-6.078209e+18
-6.0774978e+18
-6.0793726e+18
-6.0719473e+18
-6.0760028e+18
-6.081286e+18
-6.0801049e+18
-6.0834079e+18
-6.0824136e+18
-6.0844199e+18
-6.0861234e+18
-6.0853988e+18
-6.0872224e+18
-6.0640583e+18
-6.0705715e+18
-6.0725402e+18
-6.0660905e+18
-6.0764961e+18
-6.0746178e+18
-6.070039e+18
-6.0680855e+18
-6.0556329e+18
-6.0329086e+18
-6.0346283e+18
-6.0575492e+18
-6.0290264e+18
-6.0516437e+18
-6.0537239e+18
-6.0309422e+18
-6.0593689e+18
-6.0615696e+18
-6.0385876e+18
-6.0364697e+18
-6.0406272e+18
-6.0634523e+18
-6.0652815e+18
-6.0424493e+18
-6.0804478e+18
-6.0784138e+18
-6.0739628e+18
-6.0718821e+18
-6.0842901e+18
-6.0824639e+18
-6.0777665e+18
-6.0758843e+18
-6.0375441e+18
-6.0330254e+18
-6.0434897e+18
-6.047819e+18
-6.0288598e+18
-6.0252625e+18
-6.0355605e+18
-6.0393677e+18
-6.0902726e+18
-6.0879459e+18
-6.0890724e+18
-6.0912517e+18
-6.0933819e+18
-6.0924057e+18
-6.0942177e+18
-6.0953164e+18
-6.0877075e+18
-6.0942991e+18
-6.0962181e+18
-6.089678e+18
-6.0522707e+18
-6.0751823e+18
-6.0772456e+18
-6.0542445e+18
-6.0882645e+18
-6.0861449e+18
-6.0795631e+18
-6.0817633e+18
-6.0442282e+18
-6.0670141e+18
-6.0692994e+18
-6.0463642e+18
-6.0838744e+18
-6.0904523e+18
-6.0924005e+18
-6.0858874e+18
-6.0733383e+18
-6.07138e+18
-6.0485372e+18
-6.0503693e+18
-5.8880712e+18
-5.9998614e+18
-5.9923349e+18
-5.8601165e+18
-5.8745058e+18
-5.9023532e+18
-6.0069706e+18
-6.0139614e+18
-5.9738202e+18
-5.9669332e+18
-5.8082408e+18
-5.9092591e+18
-5.9152098e+18
-5.9880132e+18
-5.9806593e+18
-5.8200611e+18
-5.9217642e+18
-5.9288807e+18
-5.8461435e+18
-5.8317514e+18
-5.8605217e+18
-5.9701497e+18
-5.9621067e+18
-5.8740434e+18
-5.9850144e+18
-5.9776251e+18
-5.9823051e+18
-5.9904219e+18
-5.9981004e+18
-6.0054883e+18
-6.0025489e+18
-6.0069698e+18
-6.0031985e+18
-5.9988211e+18
-6.0074483e+18
-6.0114163e+18
-6.0111708e+18
-6.0151595e+18
-5.9962775e+18
-5.9792611e+18
-6.0007755e+18
-5.9836401e+18
-6.0048987e+18
-6.0088981e+18
-5.9876763e+18
-5.9916591e+18
-6.0190385e+18
-6.0192724e+18
-6.0152331e+18
-6.0230829e+18
-6.0230282e+18
-6.026589e+18
-6.0268374e+18
-6.030428e+18
-6.0126181e+18
-6.0167809e+18
-5.9951912e+18
-5.9994015e+18
-6.0205332e+18
-6.0031582e+18
-6.0241369e+18
-6.0067975e+18
-6.012802e+18
-6.0203306e+18
-6.0274501e+18
-6.0343222e+18
-6.0301317e+18
-6.0340852e+18
-6.0339986e+18
-6.0379064e+18
-6.0379403e+18
-6.0415428e+18
-6.0416976e+18
-6.0452433e+18
-6.0275213e+18
-6.0315075e+18
-6.0100005e+18
-6.0138817e+18
-6.0387224e+18
-6.0351958e+18
-6.0174179e+18
-6.020816e+18
-6.0520731e+18
-6.0552572e+18
-6.0586917e+18
-6.0555905e+18
-6.0419644e+18
-6.0455863e+18
-6.0237708e+18
-6.0272559e+18
-6.048677e+18
-6.0449854e+18
-6.0486881e+18
-6.0522762e+18
-6.0487457e+18
-6.0517455e+18
-6.0302439e+18
-6.0330766e+18
-5.99976e+18
-5.996641e+18
-6.0101407e+18
-6.0068618e+18
-6.0350529e+18
-6.0385857e+18
-6.0072895e+18
-6.0034112e+18
-6.0174372e+18
-6.0137634e+18
-6.0421189e+18
-6.0457315e+18
-6.0455563e+18
-6.0435916e+18
-6.0450174e+18
-6.0468138e+18
-6.0486129e+18
-6.0473739e+18
-6.0489055e+18
-6.0502389e+18
-6.0518986e+18
-6.0505552e+18
-6.0537777e+18
-6.0526289e+18
-6.0544264e+18
-6.0559293e+18
-6.0555443e+18
-6.0571549e+18
-6.0023629e+18
-6.0243407e+18
-6.0260722e+18
-6.0038126e+18
-6.0053311e+18
-6.027632e+18
-6.0291616e+18
-6.0066916e+18
-6.0441549e+18
-6.0424466e+18
-6.037997e+18
-6.0362794e+18
-6.047594e+18
-6.0459869e+18
-6.0413382e+18
-6.0397058e+18
-6.0081189e+18
-6.0306443e+18
-6.0325098e+18
-6.0098132e+18
-6.0115505e+18
-6.0341175e+18
-6.0356739e+18
-6.0130479e+18
-6.0510083e+18
-6.0492285e+18
-6.0446862e+18
-6.0428802e+18
-6.0543841e+18
-6.0527865e+18
-6.0479936e+18
-6.0463625e+18
-6.021737e+18
-6.0179273e+18
-6.0283255e+18
-6.0319657e+18
-6.0567221e+18
-6.0603568e+18
-6.014178e+18
-6.0108211e+18
-6.0246152e+18
-6.0209949e+18
-6.0492869e+18
-6.0530614e+18
-6.0597148e+18
-6.0575798e+18
-6.0588267e+18
-6.0608046e+18
-6.0627495e+18
-6.0616597e+18
-6.0632995e+18
-6.0645037e+18
-6.0662519e+18
-6.0650211e+18
-6.0682208e+18
-6.0671624e+18
-6.0689983e+18
-6.0705312e+18
-6.0700509e+18
-6.071712e+18
-6.0579409e+18
-6.0560309e+18
-6.0495586e+18
-6.0515421e+18
-6.0145203e+18
-6.037154e+18
-6.039197e+18
-6.0163648e+18
-6.0617023e+18
-6.0599432e+18
-6.0534766e+18
-6.0553092e+18
-6.042898e+18
-6.0410721e+18
-6.0183332e+18
-6.0201154e+18
-6.0653559e+18
-6.0634663e+18
-6.0570215e+18
-6.0589639e+18
-6.0688754e+18
-6.0672111e+18
-6.060734e+18
-6.062453e+18
-6.0466778e+18
-6.0446069e+18
-6.0218647e+18
-6.0238804e+18
-6.0500699e+18
-6.0484077e+18
-6.0257836e+18
-6.0274125e+18
-5.9737189e+18
-5.9721753e+18
-5.952238e+18
-5.9535431e+18
-5.9763833e+18
-5.9750886e+18
-5.9548399e+18
-5.9561673e+18
-5.979199e+18
-5.9776809e+18
-5.957477e+18
-5.9588583e+18
-5.9816242e+18
-5.9805245e+18
-5.9601766e+18
-5.96129e+18
-5.9599419e+18
-5.9617452e+18
-5.9404755e+18
-5.9419967e+18
-5.9648364e+18
-5.9633206e+18
-5.9435379e+18
-5.9450528e+18
-5.9679406e+18
-5.9662523e+18
-5.9464851e+18
-5.9480191e+18
-5.9708732e+18
-5.9694611e+18
-5.9495544e+18
-5.950981e+18
-5.9431798e+18
-5.9420958e+18
-5.945624e+18
-5.9442877e+18
-5.9486407e+18
-5.9469849e+18
-5.9518623e+18
-5.9501886e+18
-5.9551718e+18
-5.9534038e+18
-5.9587637e+18
-5.9568801e+18
-5.960542e+18
-5.9625131e+18
-5.9662864e+18
-5.9644054e+18
-5.9697728e+18
-5.9679749e+18
-5.9731631e+18
-5.9714627e+18
-5.9749803e+18
-5.9769716e+18
-5.9789311e+18
-5.9809341e+18
-5.9849327e+18
-5.9828584e+18
-5.9868858e+18
-5.9888186e+18
-5.9924886e+18
-5.9905928e+18
-5.9956821e+18
-5.9941618e+18
-5.9399649e+18
-5.9378223e+18
-5.9187404e+18
-5.9207736e+18
-5.9437771e+18
-5.9419257e+18
-5.9246674e+18
-5.9227592e+18
-5.9324451e+18
-5.9307075e+18
-5.9120465e+18
-5.9135266e+18
-5.9151185e+18
-5.9341975e+18
-5.9359768e+18
-5.9168635e+18
-5.9472181e+18
-5.9454212e+18
-5.9279763e+18
-5.9263114e+18
-5.9510234e+18
-5.9491589e+18
-5.9298104e+18
-5.9316723e+18
-5.9547864e+18
-5.9527545e+18
-5.933437e+18
-5.935334e+18
-5.9583791e+18
-5.9566456e+18
-5.9371881e+18
-5.9389462e+18
-5.5109496e+18
-5.5129124e+18
-5.5337865e+18
-5.5357939e+18
-5.5076179e+18
-5.5304233e+18
-5.5091154e+18
-5.5319931e+18
-5.5572764e+18
-5.5829743e+18
-5.5594065e+18
-5.5852055e+18
-5.5539355e+18
-5.5796662e+18
-5.5553565e+18
-5.5810808e+18
-5.4675149e+18
-5.4892905e+18
-5.4692485e+18
-5.4911986e+18
-5.4642531e+18
-5.4860007e+18
-5.4657904e+18
-5.487526e+18
-5.4436665e+18
-5.445188e+18
-5.4226949e+18
-5.4239853e+18
-5.3829979e+18
-5.4467519e+18
-5.448359e+18
-5.4270169e+18
-5.4254925e+18
-5.3861962e+18
-5.3391011e+18
-5.3422589e+18
-5.4597622e+18
-5.4812829e+18
-5.4605952e+18
-5.4820635e+18
-5.4411103e+18
-5.4423497e+18
-5.4215016e+18
-5.4201657e+18
-5.3799459e+18
-5.4390946e+18
-5.4400749e+18
-5.3773668e+18
-5.418814e+18
-5.4177698e+18
-5.46147e+18
-5.4831068e+18
-5.4627082e+18
-5.4845189e+18
-5.336682e+18
-5.3344718e+18
-5.5047233e+18
-5.5277512e+18
-5.5061539e+18
-5.5291153e+18
-5.5026567e+18
-5.5255095e+18
-5.5034524e+18
-5.5264818e+18
-5.5491401e+18
-5.5748731e+18
-5.5500699e+18
-5.5758896e+18
-5.5514068e+18
-5.5771846e+18
-5.5527201e+18
-5.5785492e+18
-5.2511934e+18
-5.2536938e+18
-5.2959655e+18
-5.2935949e+18
-5.2586691e+18
-5.2560713e+18
-5.2979933e+18
-5.3009387e+18
-5.4930486e+18
-5.494212e+18
-5.5152068e+18
-5.516557e+18
-5.5379859e+18
-5.5395224e+18
-5.5628193e+18
-5.5646673e+18
-5.4509621e+18
-5.4720583e+18
-5.4518013e+18
-5.473115e+18
-5.4315156e+18
-5.4107472e+18
-5.4323607e+18
-5.4337169e+18
-5.3710637e+18
-5.4124047e+18
-5.4114885e+18
-5.4527341e+18
-5.4743674e+18
-5.4542229e+18
-5.4760058e+18
-5.3310916e+18
-5.3284233e+18
-5.3739675e+18
-5.4355488e+18
-5.43758e+18
-5.4161771e+18
-5.4141532e+18
-5.4562267e+18
-5.4780264e+18
-5.4582437e+18
-5.480003e+18
-5.2478529e+18
-5.2877933e+18
-5.2901189e+18
-5.4995923e+18
-5.5224302e+18
-5.5014549e+18
-5.5242496e+18
-5.545886e+18
-5.5713673e+18
-5.5477866e+18
-5.5734614e+18
-5.4957956e+18
-5.5183672e+18
-5.4975684e+18
-5.520424e+18
-5.5415689e+18
-5.5668234e+18
-5.5436902e+18
-5.5691111e+18
-5.7780246e+18
-5.8249833e+18
-5.7802626e+18
-5.8272489e+18
-5.7062222e+18
-5.7087576e+18
-5.7435307e+18
-5.7460938e+18
-5.7414394e+18
-5.7827108e+18
-5.830217e+18
-5.7855988e+18
-5.833734e+18
-5.7166615e+18
-5.7193111e+18
-5.7543233e+18
-5.7571573e+18
-5.7113494e+18
-5.7486802e+18
-5.713958e+18
-5.7515552e+18
-5.7942388e+18
-5.7974145e+18
-5.8429166e+18
-5.846479e+18
-5.8366582e+18
-5.7883097e+18
-5.7911445e+18
-5.8396457e+18
-5.6472057e+18
-5.6791341e+18
-5.6496947e+18
-5.6816935e+18
-5.5919137e+18
-5.5942649e+18
-5.6191383e+18
-5.6216909e+18
-5.6521757e+18
-5.6544619e+18
-5.6842489e+18
-5.6867852e+18
-5.5965916e+18
-5.5987404e+18
-5.6240141e+18
-5.6261985e+18
-5.5876024e+18
-5.5896132e+18
-5.6145925e+18
-5.6167515e+18
-5.6423987e+18
-5.6447134e+18
-5.6741202e+18
-5.6766557e+18
-5.6003445e+18
-5.6279307e+18
-5.6014356e+18
-5.6292618e+18
-5.602753e+18
-5.6305821e+18
-5.6040961e+18
-5.6319336e+18
-5.6591225e+18
-5.6917309e+18
-5.6605961e+18
-5.6934327e+18
-5.6562996e+18
-5.6887062e+18
-5.6576121e+18
-5.690156e+18
-5.7247016e+18
-5.7634005e+18
-5.7264766e+18
-5.7652748e+18
-5.7214245e+18
-5.7595704e+18
-5.7230071e+18
-5.7615906e+18
-5.8000299e+18
-5.8491591e+18
-5.8021011e+18
-5.8514582e+18
-5.8042662e+18
-5.853846e+18
-5.8064166e+18
-5.8564849e+18
-5.6619826e+18
-5.6948435e+18
-5.6634181e+18
-5.6963343e+18
-5.60531e+18
-5.6331859e+18
-5.6067011e+18
-5.6347252e+18
-5.6085916e+18
-5.6365153e+18
-5.6107942e+18
-5.638598e+18
-5.6652652e+18
-5.6981913e+18
-5.6673483e+18
-5.7003125e+18
-5.7316149e+18
-5.7337033e+18
-5.7709271e+18
-5.7728998e+18
-5.7296612e+18
-5.7280798e+18
-5.7670001e+18
-5.7689387e+18
-5.8083633e+18
-5.8103024e+18
-5.8607402e+18
-5.8585593e+18
-5.8125855e+18
-5.8631844e+18
-5.8146996e+18
-5.865603e+18
-4.9140293e+18
-5.1209822e+18
-5.0611327e+18
-5.1215104e+18
-5.1674505e+18
-5.1659579e+18
-5.2093629e+18
-5.2118019e+18
-5.2148235e+18
-5.1707211e+18
-5.1741088e+18
-5.217354e+18
-5.1247903e+18
-5.0643142e+18
-5.1288624e+18
-5.0704965e+18
-5.7355966e+18
-5.7546956e+18
-5.7563087e+18
-5.7371254e+18
-5.7404362e+18
-5.7387374e+18
-5.7578397e+18
-5.7594682e+18
-5.7974707e+18
-5.7738311e+18
-5.7960747e+18
-5.7752925e+18
-5.7785993e+18
-5.8008647e+18
-5.7769087e+18
-5.799113e+18
-5.750869e+18
-5.7307611e+18
-5.7498732e+18
-5.7316458e+18
-5.7691005e+18
-5.7914754e+18
-5.79221e+18
-5.7699386e+18
-5.7532636e+18
-5.7327954e+18
-5.7519515e+18
-5.7341459e+18
-5.7711087e+18
-5.7933521e+18
-5.7724324e+18
-5.7947088e+18
-5.8405912e+18
-5.8137186e+18
-5.8398084e+18
-5.8144175e+18
-5.8976255e+18
-5.8664494e+18
-5.8671138e+18
-5.8982991e+18
-5.8168234e+18
-5.8428398e+18
-5.8155067e+18
-5.8416036e+18
-5.8993195e+18
-5.8681577e+18
-5.8694564e+18
-5.9007291e+18
-5.8182029e+18
-5.8441796e+18
-5.8456804e+18
-5.8195951e+18
-5.9019696e+18
-5.9034325e+18
-5.8721656e+18
-5.8707415e+18
-5.8212339e+18
-5.8472892e+18
-5.8229801e+18
-5.8489851e+18
-5.8756462e+18
-5.9069763e+18
-5.8738536e+18
-5.9051009e+18
-5.7486667e+18
-5.7678099e+18
-5.7696745e+18
-5.7503826e+18
-5.7536337e+18
-5.7520225e+18
-5.7712868e+18
-5.7728772e+18
-5.8110406e+18
-5.7869903e+18
-5.8092834e+18
-5.7887533e+18
-5.7922454e+18
-5.8147633e+18
-5.7905258e+18
-5.8128992e+18
-5.7627323e+18
-5.7420383e+18
-5.7610696e+18
-5.7435859e+18
-5.7801676e+18
-5.8023882e+18
-5.8038606e+18
-5.7817007e+18
-5.7660884e+18
-5.7452221e+18
-5.764326e+18
-5.7469522e+18
-5.7834128e+18
-5.8055902e+18
-5.7852416e+18
-5.8075159e+18
-5.852094e+18
-5.8245348e+18
-5.8505216e+18
-5.8260005e+18
-5.9098861e+18
-5.8771169e+18
-5.9083899e+18
-5.8785926e+18
-5.8296538e+18
-5.8556801e+18
-5.8277182e+18
-5.8537612e+18
-5.8803212e+18
-5.9115944e+18
-5.8823125e+18
-5.9136611e+18
-5.8314784e+18
-5.8574901e+18
-5.8594486e+18
-5.8332756e+18
-5.8351868e+18
-5.8613721e+18
-5.8371061e+18
-5.8632841e+18
-5.9154193e+18
-5.9173371e+18
-5.8841145e+18
-5.8860117e+18
-5.8900756e+18
-5.8880465e+18
-5.919358e+18
-5.9214729e+18
-5.6931651e+18
-5.675662e+18
-5.6914543e+18
-5.6772618e+18
-5.7073039e+18
-5.7248764e+18
-5.7264124e+18
-5.7088889e+18
-5.6963473e+18
-5.6788316e+18
-5.694708e+18
-5.6804721e+18
-5.7105211e+18
-5.7280427e+18
-5.7121685e+18
-5.7297267e+18
-5.6190217e+18
-5.6327601e+18
-5.6343007e+18
-5.6204655e+18
-5.6219449e+18
-5.6357531e+18
-5.6372806e+18
-5.6234519e+18
-5.6463806e+18
-5.6610952e+18
-5.6626596e+18
-5.6478891e+18
-5.6494252e+18
-5.664199e+18
-5.6658623e+18
-5.6509948e+18
-5.6248288e+18
-5.6386543e+18
-5.640084e+18
-5.6261798e+18
-5.6288937e+18
-5.6275703e+18
-5.6414184e+18
-5.6427186e+18
-5.6523887e+18
-5.6672356e+18
-5.6686114e+18
-5.6537538e+18
-5.6564885e+18
-5.6551361e+18
-5.6699811e+18
-5.6714046e+18
-5.6818817e+18
-5.6977853e+18
-5.6992832e+18
-5.6832578e+18
-5.6861451e+18
-5.6846929e+18
-5.7007644e+18
-5.7022389e+18
-5.7313999e+18
-5.7330687e+18
-5.7137398e+18
-5.7152751e+18
-5.7184162e+18
-5.7168733e+18
-5.7346946e+18
-5.7363002e+18
-5.6811812e+18
-5.6643349e+18
-5.6801326e+18
-5.6652904e+18
-5.6959891e+18
-5.7135902e+18
-5.7144546e+18
-5.6969052e+18
-5.667778e+18
-5.6835445e+18
-5.6664576e+18
-5.6822747e+18
-5.6980781e+18
-5.7156224e+18
-5.6993667e+18
-5.7169729e+18
-5.6130193e+18
-5.6266404e+18
-5.6281506e+18
-5.6144209e+18
-5.6159034e+18
-5.6296082e+18
-5.6312209e+18
-5.617501e+18
-5.6561003e+18
-5.6401213e+18
-5.6546772e+18
-5.641559e+18
-5.6595162e+18
-5.6431399e+18
-5.6577262e+18
-5.6448106e+18
-5.6228757e+18
-5.6083059e+18
-5.6218124e+18
-5.6092651e+18
-5.6352575e+18
-5.6498381e+18
-5.6507737e+18
-5.6362281e+18
-5.6252871e+18
-5.6104016e+18
-5.6239803e+18
-5.6116835e+18
-5.6374275e+18
-5.6519614e+18
-5.6387546e+18
-5.6533248e+18
-5.66913e+18
-5.6849058e+18
-5.6864319e+18
-5.6705635e+18
-5.6722229e+18
-5.6880649e+18
-5.6740008e+18
-5.6897741e+18
-5.7184006e+18
-5.7199392e+18
-5.7007867e+18
-5.7022903e+18
-5.7056919e+18
-5.703967e+18
-5.7215857e+18
-5.7233219e+18
-5.5707877e+18
-5.5575075e+18
-5.5697836e+18
-5.558409e+18
-5.5822014e+18
-5.5953816e+18
-5.5962985e+18
-5.5831262e+18
-5.5605422e+18
-5.5728944e+18
-5.5594362e+18
-5.5717802e+18
-5.5842175e+18
-5.5974074e+18
-5.5853786e+18
-5.598667e+18
-5.5159277e+18
-5.5269156e+18
-5.5279998e+18
-5.5168871e+18
-5.5190961e+18
-5.5179337e+18
-5.5290792e+18
-5.5302981e+18
-5.5509628e+18
-5.5380546e+18
-5.54982e+18
-5.5391471e+18
-5.5416359e+18
-5.5535943e+18
-5.5403425e+18
-5.5521886e+18
-5.5239889e+18
-5.5121506e+18
-5.5230553e+18
-5.5130172e+18