/*--------------------------------*- C++ -*----------------------------------*\
  =========                 |
  \\      /  F ield         | OpenFOAM: The Open Source CFD Toolbox
   \\    /   O peration     | Website:  https://openfoam.org
    \\  /    A nd           | Version:  7
     \\/     M anipulation  |
\*---------------------------------------------------------------------------*/
FoamFile
{
    version     2.0;
    format      ascii;
    class       volScalarField;
    location    "7000";
    object      p;
}
// * * * * * * * * * * * * * * * * * * * * * * * * * * * * * * * * * * * * * //

dimensions      [0 2 -2 0 0 0 0];

internalField   nonuniform List<scalar> 
33943
(
-8.8036294e+84
-8.5636281e+84
-8.4383336e+84
-8.1804712e+84
-8.7829186e+84
-8.8893189e+84
-8.6242795e+84
-8.8589715e+84
-8.61397e+84
-8.5834903e+84
-8.4909924e+84
-8.4593705e+84
-8.4558838e+84
-8.3666469e+84
-8.3553113e+84
-8.4443267e+84
-7.6680102e+84
-7.927509e+84
-8.2015251e+84
-8.2302067e+84
-8.3010131e+84
-8.2000159e+84
-8.2126782e+84
-8.8954968e+84
-8.6313284e+84
-8.8812508e+84
-8.8237937e+84
-8.5844619e+84
-8.9441753e+84
-8.6787664e+84
-8.6518352e+84
-8.6760568e+84
-8.6470439e+84
-8.5056837e+84
-8.4692408e+84
-8.5209516e+84
-8.5091261e+84
-8.5037163e+84
-8.4917674e+84
-8.6732912e+84
-8.6328972e+84
-8.5531854e+84
-8.5139985e+84
-8.5057801e+84
-8.4923718e+84
-8.402374e+84
-8.4173143e+84
-8.4800867e+84
-8.4651239e+84
-8.3893641e+84
-8.3751314e+84
-8.3880478e+84
-8.3270882e+84
-8.3936388e+84
-8.3323141e+84
-8.3833677e+84
-8.3778244e+84
-8.3214042e+84
-8.3154748e+84
-7.7840986e+84
-7.7013071e+84
-7.9689149e+84
-7.6819657e+84
-7.9451533e+84
-7.8100963e+84
-7.6950342e+84
-7.8004469e+84
-7.6857555e+84
-8.0689016e+84
-7.9264714e+84
-8.0572772e+84
-7.9159723e+84
-8.2359679e+84
-8.2215052e+84
-8.2637846e+84
-8.2491138e+84
-8.2587574e+84
-8.3774476e+84
-8.2940075e+84
-8.143474e+84
-8.1154417e+84
-8.3571658e+84
-8.3939574e+84
-8.2263875e+84
-8.2211214e+84
-8.2379541e+84
-8.2319286e+84
-8.671759e+84
-8.7059561e+84
-8.9779956e+84
-8.9328851e+84
-8.6213814e+84
-8.8654188e+84
-8.8108649e+84
-8.5773486e+84
-8.7339236e+84
-8.7005692e+84
-8.7365863e+84
-8.6988878e+84
-8.5017837e+84
-8.5142782e+84
-8.5510123e+84
-8.5386692e+84
-8.4911713e+84
-8.5282817e+84
-8.514424e+84
-8.4781112e+84
-8.5673323e+84
-8.5557967e+84
-8.5415611e+84
-8.5531436e+84
-8.5444002e+84
-8.5303414e+84
-8.5138554e+84
-8.5288365e+84
-8.3860349e+84
-8.3434754e+84
-8.4370282e+84
-8.4421554e+84
-8.4567575e+84
-8.4510891e+84
-8.4315728e+84
-8.4460221e+84
-8.4542542e+84
-8.4485952e+84
-8.4303838e+84
-8.4248554e+84
-8.4434305e+84
-8.4198121e+84
-8.4139077e+84
-8.5931639e+84
-8.5442832e+84
-8.5675207e+84
-8.4806975e+84
-8.4593432e+84
-8.5119419e+84
-8.4260469e+84
-8.5269712e+84
-8.4418564e+84
-8.4445787e+84
-8.4396797e+84
-8.3836743e+84
-8.3782403e+84
-8.433617e+84
-8.426209e+84
-8.3716581e+84
-8.3644397e+84
-8.4202937e+84
-8.4123758e+84
-8.3589427e+84
-8.3510601e+84
-8.4054333e+84
-8.3981258e+84
-8.336337e+84
-8.3435105e+84
-8.3496287e+84
-8.3467801e+84
-8.3083673e+84
-8.3054978e+84
-8.3549425e+84
-8.3522024e+84
-8.3139556e+84
-8.3112451e+84
-8.3449118e+84
-8.3424112e+84
-8.3036501e+84
-8.3008968e+84
-8.2982567e+84
-8.3402397e+84
-8.3381194e+84
-8.2962182e+84
-7.838622e+84
-7.9937281e+84
-7.7466768e+84
-7.721158e+84
-7.642631e+84
-7.8977362e+84
-7.8729712e+84
-7.6196602e+84
-8.0230973e+84
-7.7309682e+84
-7.7192389e+84
-7.8391589e+84
-7.8504894e+84
-7.9722912e+84
-8.1180865e+84
-8.1046046e+84
-7.9600175e+84
-7.8174626e+84
-7.70199e+84
-7.7097021e+84
-7.8278981e+84
-8.0776699e+84
-8.0913829e+84
-7.947619e+84
-7.9344323e+84
-7.8687591e+84
-7.8073418e+84
-7.8131534e+84
-7.8627663e+84
-7.7571454e+84
-7.7630078e+84
-7.7132617e+84
-7.7069471e+84
-7.8581695e+84
-7.7987403e+84
-7.8028004e+84
-7.8543935e+84
-7.7485521e+84
-7.752571e+84
-8.1454166e+84
-8.0647809e+84
-8.0585883e+84
-8.1513811e+84
-7.9200071e+84
-7.9928335e+84
-7.9259475e+84
-7.986933e+84
-8.0533663e+84
-8.1398546e+84
-8.1354633e+84
-8.0491347e+84
-7.9778388e+84
-7.9151632e+84
-7.981756e+84
-7.9114807e+84
-8.2567472e+84
-8.2661368e+84
-8.2420433e+84
-8.2490488e+84
-8.2848629e+84
-8.2718867e+84
-8.2910381e+84
-8.2719525e+84
-8.2790669e+84
-8.2852887e+84
-8.3259964e+84
-8.1995255e+84
-8.4574699e+84
-8.4273834e+84
-8.1717373e+84
-8.3006178e+84
-8.3216284e+84
-8.1351819e+84
-8.1103334e+84
-8.3448498e+84
-8.3779896e+84
-8.245008e+84
-8.241644e+84
-8.239353e+84
-8.2378073e+84
-8.2555236e+84
-8.2521576e+84
-8.249443e+84
-8.2467818e+84
-8.6586484e+84
-8.6905591e+84
-8.9527e+84
-8.9113887e+84
-8.6220325e+84
-8.8675794e+84
-8.8133833e+84
-8.5787566e+84
-8.3907728e+84
-8.3669251e+84
-8.0804801e+84
-8.5700926e+84
-8.5531007e+84
-8.5901507e+84
-8.6090691e+84
-8.5400137e+84
-8.525077e+84
-8.5604192e+84
-8.5758096e+84
-8.626899e+84
-8.6056551e+84
-8.615236e+84
-8.5923686e+84
-8.5901545e+84
-8.5752403e+84
-8.5756217e+84
-8.5609353e+84
-8.3748889e+84
-8.3875052e+84
-8.4290048e+84
-8.4170828e+84
-8.3646539e+84
-8.4071062e+84
-8.3951796e+84
-8.3527007e+84
-8.4860633e+84
-8.4812374e+84
-8.4966409e+84
-8.5013796e+84
-8.4917466e+84
-8.4759979e+84
-8.4691193e+84
-8.4846938e+84
-8.4843989e+84
-8.4701835e+84
-8.4627335e+84
-8.4916458e+84
-8.5009597e+84
-8.4967713e+84
-8.4803104e+84
-8.4759821e+84
-8.4643183e+84
-8.4583727e+84
-8.4796517e+84
-8.4731103e+84
-8.4677903e+84
-8.4528483e+84
-8.4463352e+84
-8.4609967e+84
-8.4659673e+84
-8.4588847e+84
-8.4425281e+84
-8.4351094e+84
-8.4787296e+84
-8.4717802e+84
-8.4565275e+84
-8.4490874e+84
-8.2641117e+84
-8.3864797e+84
-8.3810539e+84
-8.2192618e+84
-8.2080596e+84
-8.2523579e+84
-8.3759201e+84
-8.4060509e+84
-8.4004032e+84
-8.3955772e+84
-8.4223351e+84
-8.4198877e+84
-8.4192094e+84
-8.4219403e+84
-8.4167189e+84
-8.4140583e+84
-8.4171067e+84
-8.4135903e+84
-8.3843904e+84
-8.3819317e+84
-8.4100258e+84
-8.407465e+84
-8.4050203e+84
-8.3794046e+84
-8.4019067e+84
-8.3763348e+84
-8.4118181e+84
-8.4091016e+84
-8.4114218e+84
-8.4085642e+84
-8.3997547e+84
-8.3743456e+84
-8.3971314e+84
-8.3718946e+84
-8.3946882e+84
-8.3696165e+84
-8.5886173e+84
-8.4994061e+84
-8.4813109e+84
-8.4213227e+84
-8.4701454e+84
-8.4104191e+84
-8.4917855e+84
-8.4320682e+84
-8.504437e+84
-8.4443591e+84
-8.4492752e+84
-8.4453823e+84
-8.3895277e+84
-8.3850149e+84
-8.462183e+84
-8.4028578e+84
-8.4542869e+84
-8.3954023e+84
-8.406939e+84
-8.4054962e+84
-8.3659445e+84
-8.3647493e+84
-8.4031888e+84
-8.3996115e+84
-8.362136e+84
-8.3585047e+84
-8.356013e+84
-8.3966202e+84
-8.3931575e+84
-8.352763e+84
-8.3899709e+84
-8.3862313e+84
-8.3457425e+84
-8.3494363e+84
-8.3830265e+84
-8.378915e+84
-8.3388874e+84
-8.3430397e+84
-8.3749179e+84
-8.3703652e+84
-8.3297907e+84
-8.3345235e+84
-8.3669394e+84
-8.363261e+84
-8.3226102e+84
-8.3264875e+84
-8.3602179e+84
-8.3570729e+84
-8.3158732e+84
-8.3191754e+84
-8.3145961e+84
-8.315807e+84
-8.2948531e+84
-8.2934544e+84
-8.3136134e+84
-8.3120572e+84
-8.2910084e+84
-8.2921991e+84
-8.3003758e+84
-8.3212567e+84
-8.3199351e+84
-8.2990203e+84
-8.3168515e+84
-8.3186041e+84
-8.2974542e+84
-8.29584e+84
-8.3113284e+84
-8.3101975e+84
-8.2904289e+84
-8.2891886e+84
-8.2876821e+84
-8.3091142e+84
-8.3075208e+84
-8.2860512e+84
-8.3058909e+84
-8.306692e+84
-8.2851584e+84
-8.2841965e+84
-8.3041924e+84
-8.3051928e+84
-8.2833791e+84
-8.2825979e+84
-7.7700545e+84
-7.6885464e+84
-7.6641908e+84
-7.9225087e+84
-7.9481826e+84
-8.0512506e+84
-8.1383789e+84
-8.126818e+84
-7.9804087e+84
-7.9917839e+84
-7.7704008e+84
-7.8806641e+84
-7.7583983e+84
-7.8932937e+84
-7.7473481e+84
-7.8585376e+84
-7.7385064e+84
-7.8687476e+84
-7.6403212e+84
-7.8874334e+84
-7.865295e+84
-7.6187211e+84
-8.0183761e+84
-8.1514927e+84
-8.1699734e+84
-8.0028591e+84
-7.7482414e+84
-7.7534718e+84
-7.8050072e+84
-7.8006576e+84
-7.7439535e+84
-7.738319e+84
-7.7971321e+84
-7.7914035e+84
-7.9083377e+84
-7.8498108e+84
-7.8439216e+84
-7.9024356e+84
-7.8531828e+84
-7.8575403e+84
-7.9167878e+84
-7.9122729e+84
-7.9770546e+84
-7.9723473e+84
-8.0409053e+84
-8.0456615e+84
-8.2049132e+84
-8.1126468e+84
-8.1180084e+84
-8.1990167e+84
-8.1934596e+84
-8.1006003e+84
-8.1076338e+84
-8.1863482e+84
-8.0359068e+84
-7.9616393e+84
-7.9678509e+84
-8.0291757e+84
-7.8167941e+84
-7.8221038e+84
-7.8781126e+84
-7.8723601e+84
-7.7667982e+84
-7.7719191e+84
-7.7225075e+84
-7.7172696e+84
-7.7853373e+84
-7.7269833e+84
-7.7332492e+84
-7.7773245e+84
-7.8956113e+84
-7.8283099e+84
-7.8372286e+84
-7.8856549e+84
-8.0689278e+84
-8.0762619e+84
-8.1623509e+84
-8.1555733e+84
-8.0842944e+84
-8.0943147e+84
-8.1799597e+84
-8.1703339e+84
-8.0227911e+84
-7.9551069e+84
-7.9449403e+84
-8.0128301e+84
-8.0042629e+84
-7.9365367e+84
-7.9298241e+84
-7.996957e+84
-7.8654173e+84
-7.8936165e+84
-7.8623614e+84
-7.8906175e+84
-7.8077652e+84
-7.8052475e+84
-7.8331399e+84
-7.8305207e+84
-7.8135185e+84
-7.8388168e+84
-7.8103954e+84
-7.8357987e+84
-7.859666e+84
-7.8879292e+84
-7.8569756e+84
-7.8850812e+84
-7.7583649e+84
-7.7828689e+84
-7.7559037e+84
-7.7804282e+84
-7.7642154e+84
-7.788704e+84
-7.7610659e+84
-7.7855319e+84
-7.7404269e+84
-7.7371317e+84
-7.7169553e+84
-7.7133508e+84
-7.734321e+84
-7.7318715e+84
-7.7080516e+84
-7.7103263e+84
-7.8552235e+84
-7.8527034e+84
-7.8831834e+84
-7.8807696e+84
-7.7991852e+84
-7.8244808e+84
-7.8229729e+84
-7.8035756e+84
-7.828802e+84
-7.8010071e+84
-7.8263088e+84
-7.8509095e+84
-7.8494584e+84
-7.879097e+84
-7.8777465e+84
-7.7498712e+84
-7.774308e+84
-7.7541574e+84
-7.7786983e+84
-7.7517982e+84
-7.7761675e+84
-8.1428222e+84
-8.1399192e+84
-8.1959444e+84
-8.1933301e+84
-8.0574302e+84
-8.0605525e+84
-8.1031232e+84
-8.1002851e+84
-8.054714e+84
-8.0517742e+84
-8.0976454e+84
-8.0945336e+84
-8.1452501e+84
-8.1483726e+84
-8.2019227e+84
-8.1985817e+84
-7.9168827e+84
-7.947827e+84
-7.9139824e+84
-7.9448327e+84
-7.9830964e+84
-7.9862494e+84
-8.0229643e+84
-8.0198365e+84
-7.9225428e+84
-7.9534968e+84
-7.9194964e+84
-7.9504741e+84
-7.9804644e+84
-7.9774866e+84
-8.017148e+84
-8.0141996e+84
-8.0498708e+84
-8.0470019e+84
-8.0926295e+84
-8.0898305e+84
-8.1378823e+84
-8.1348256e+84
-8.1914264e+84
-8.1881623e+84
-8.1329932e+84
-8.1316059e+84
-8.1860891e+84
-8.1848267e+84
-8.0451816e+84
-8.0437906e+84
-8.087864e+84
-8.0863851e+84
-7.9712693e+84
-7.970019e+84
-8.0076849e+84
-8.0064455e+84
-7.9120195e+84
-7.9428179e+84
-7.9095785e+84
-7.9404027e+84
-7.9754379e+84
-7.9728006e+84
-8.0121665e+84
-8.0093756e+84
-7.9080287e+84
-7.9388583e+84
-7.9067275e+84
-7.9375519e+84
-8.276568e+84
-8.2715394e+84
-8.2858422e+84
-8.2809295e+84
-8.2604645e+84
-8.2572913e+84
-8.2682314e+84
-8.263724e+84
-8.3045756e+84
-8.3011478e+84
-8.2953114e+84
-8.2917054e+84
-8.308655e+84
-8.3069336e+84
-8.2921036e+84
-8.2884172e+84
-8.298878e+84
-8.2951018e+84
-8.3084566e+84
-8.3007267e+84
-8.3372858e+84
-8.187132e+84
-8.4360084e+84
-8.4083925e+84
-8.1614278e+84
-8.325697e+84
-8.3154e+84
-8.3360059e+84
-8.3486433e+84
-8.1331679e+84
-8.1092592e+84
-8.3449205e+84
-8.3768667e+84
-8.2552185e+84
-8.2536585e+84
-8.2506538e+84
-8.2521346e+84
-8.2487387e+84
-8.249826e+84
-8.2481991e+84
-8.2477546e+84
-8.2653049e+84
-8.2635237e+84
-8.261977e+84
-8.2604263e+84
-8.2594816e+84
-8.2579021e+84
-8.2568062e+84
-8.2557594e+84
-8.6597263e+84
-8.6910335e+84
-8.9552521e+84
-8.9137945e+84
-8.6221706e+84
-8.8679562e+84
-8.8137724e+84
-8.5789321e+84
-8.4157663e+84
-8.4420952e+84
-8.1204347e+84
-8.0995949e+84
-8.0733661e+84
-8.0832841e+84
-8.6244892e+84
-8.4399723e+84
-8.4232348e+84
-8.4660805e+84
-8.4833346e+84
-8.4117133e+84
-8.397689e+84
-8.4386719e+84
-8.4526802e+84
-8.6451818e+84
-8.5450247e+84
-8.5617496e+84
-8.5510123e+84
-8.5352612e+84
-8.5267282e+84
-8.5168988e+84
-8.5422048e+84
-8.5318289e+84
-8.5504221e+84
-8.634759e+84
-8.5409456e+84
-8.5620237e+84
-8.5286492e+84
-8.530383e+84
-8.5411473e+84
-8.5187864e+84
-8.5077549e+84
-8.5101479e+84
-8.502624e+84
-8.5165161e+84
-8.5247037e+84
-8.4961685e+84
-8.4898597e+84
-8.5045431e+84
-8.5106237e+84
-8.5226504e+84
-8.4997377e+84
-8.5143844e+84
-8.4915444e+84
-8.5086104e+84
-8.5033716e+84
-8.4819503e+84
-8.4860029e+84
-8.2489542e+84
-8.2608429e+84
-8.3039771e+84
-8.4286231e+84
-8.4232286e+84
-8.2926255e+84
-8.4183984e+84
-8.4118629e+84
-8.2389486e+84
-8.2826308e+84
-8.4073181e+84
-8.4016203e+84
-8.2726787e+84
-8.3967287e+84
-8.3908384e+84
-8.2282889e+84
-8.4435226e+84
-8.448726e+84
-8.4387098e+84
-8.4322789e+84
-8.4512333e+84
-8.4477069e+84
-8.4487265e+84
-8.4525633e+84
-8.4488646e+84
-8.4456389e+84
-8.4253591e+84
-8.4219203e+84
-8.4424568e+84
-8.4187128e+84
-8.4384282e+84
-8.4146246e+84
-8.4545079e+84
-8.457445e+84
-8.4589419e+84
-8.4556247e+84
-8.4667171e+84
-8.465026e+84
-8.4682026e+84
-8.4663722e+84
-8.4626727e+84
-8.459837e+84
-8.4643484e+84
-8.4613248e+84
-8.4584668e+84
-8.4569769e+84
-8.4360769e+84
-8.4346008e+84
-8.4548154e+84
-8.4515844e+84
-8.4321671e+84
-8.4285155e+84
-8.4272317e+84
-8.4213102e+84
-8.4165839e+84
-8.4106917e+84
-8.4336392e+84
-8.4335718e+84
-8.430709e+84
-8.4303298e+84
-8.4274545e+84
-8.4245348e+84
-8.4276729e+84
-8.4241133e+84
-8.4218787e+84
-8.4186028e+84
-8.3927266e+84
-8.3960355e+84
-8.4122633e+84
-8.3897294e+84
-8.386517e+84
-8.4156698e+84
-8.4451136e+84
-8.4460721e+84
-8.4426913e+84
-8.4422359e+84
-8.4392559e+84
-8.4359555e+84
-8.4397958e+84
-8.4361409e+84
-8.4353314e+84
-8.4319381e+84
-8.4112027e+84
-8.4074666e+84
-8.4287625e+84
-8.4247646e+84
-8.403798e+84
-8.39932e+84
-8.3244632e+84
-8.3295976e+84
-8.1394872e+84
-8.2686749e+84
-8.2636485e+84
-8.3193698e+84
-8.128289e+84
-8.2587557e+84
-8.3597748e+84
-8.3626544e+84
-8.3686125e+84
-8.3715925e+84
-8.395298e+84
-8.3980474e+84
-8.3545259e+84
-8.3571928e+84
-8.3661683e+84
-8.3634855e+84
-8.3927065e+84
-8.3899224e+84
-8.3495655e+84
-8.3526576e+84
-8.3614782e+84
-8.3585728e+84
-8.3875765e+84
-8.3848422e+84
-8.4025095e+84
-8.4016256e+84
-8.4006216e+84
-8.399911e+84
-8.4038459e+84
-8.4047734e+84
-8.4041081e+84
-8.4028825e+84
-8.3995581e+84
-8.3985191e+84
-8.3976369e+84
-8.3989301e+84
-8.3962715e+84
-8.397079e+84
-8.3952354e+84
-8.394586e+84
-8.3429425e+84
-8.3715176e+84
-8.3703355e+84
-8.3417083e+84
-8.3404846e+84
-8.3690669e+84
-8.3674539e+84
-8.3387147e+84
-8.3973889e+84
-8.3986703e+84
-8.3875081e+84
-8.3888254e+84
-8.3945794e+84
-8.3961968e+84
-8.3847797e+84
-8.3863051e+84
-8.3936039e+84
-8.3922721e+84
-8.3838113e+84
-8.3825219e+84
-8.3376337e+84
-8.3664698e+84
-8.3653294e+84
-8.3364663e+84
-8.381271e+84
-8.3909417e+84
-8.389337e+84
-8.3797791e+84
-8.3641445e+84
-8.3625352e+84
-8.3338627e+84
-8.3355013e+84
-8.3933613e+84
-8.3942544e+84
-8.3936517e+84
-8.392491e+84
-8.3902094e+84
-8.3920204e+84
-8.3912589e+84
-8.3896513e+84
-8.3871678e+84
-8.3883729e+84
-8.378777e+84
-8.3775689e+84
-8.3329719e+84
-8.3615689e+84
-8.3605259e+84
-8.3318888e+84
-8.3845258e+84
-8.3860163e+84
-8.3764552e+84
-8.3750872e+84
-8.3579662e+84
-8.3594122e+84
-8.3309229e+84
-8.3293759e+84
-8.3823801e+84
-8.3836317e+84
-8.3742027e+84
-8.3730888e+84
-8.3285622e+84
-8.3571058e+84
-8.3562848e+84
-8.3278584e+84
-8.5159067e+84
-8.5280382e+84
-8.4655979e+84
-8.4544628e+84
-8.4021241e+84
-8.4424531e+84
-8.436939e+84
-8.3966961e+84
-8.4323785e+84
-8.4268822e+84
-8.3863756e+84
-8.3916897e+84
-8.4541133e+84
-8.4475121e+84
-8.4134461e+84
-8.40697e+84
-8.4661904e+84
-8.4596426e+84
-8.4259895e+84
-8.4194808e+84
-8.4105831e+84
-8.4090533e+84
-8.3697927e+84
-8.367957e+84
-8.4079809e+84
-8.4069232e+84
-8.3664343e+84
-8.3654371e+84
-8.4228748e+84
-8.4186909e+84
-8.3826979e+84
-8.3785684e+84
-8.4156677e+84
-8.3751054e+84
-8.4123932e+84
-8.3715751e+84
-8.3732438e+84
-8.3733034e+84
-8.3526448e+84
-8.3526911e+84
-8.3709626e+84
-8.3725423e+84
-8.3519147e+84
-8.3506969e+84
-8.3687117e+84
-8.370016e+84
-8.3498785e+84
-8.3484027e+84
-8.365359e+84
-8.3673768e+84
-8.346785e+84
-8.3448914e+84
-8.3623887e+84
-8.3640727e+84
-8.3438345e+84
-8.3421738e+84
-8.3589073e+84
-8.3609295e+84
-8.3403339e+84
-8.3384615e+84
-8.355841e+84
-8.3574331e+84
-8.3372003e+84
-8.3354529e+84
-8.3523252e+84
-8.3544041e+84
-8.3337109e+84
-8.3317538e+84
-8.3488464e+84
-8.3508664e+84
-8.3305827e+84
-8.3286188e+84
-8.3441727e+84
-8.3468387e+84
-8.3262993e+84
-8.3237475e+84
-8.3402187e+84
-8.3423215e+84
-8.3219783e+84
-8.3197497e+84
-8.3358831e+84
-8.3383737e+84
-8.3174509e+84
-8.3149758e+84
-8.3321914e+84
-8.3341748e+84
-8.313497e+84
-8.3115001e+84
-8.3281513e+84
-8.3303488e+84
-8.3094198e+84
-8.3072693e+84
-8.3268021e+84
-8.3059457e+84
-8.3254384e+84
-8.304323e+84
-8.3240901e+84
-8.3223119e+84
-8.3027977e+84
-8.3012188e+84
-8.2715572e+84
-8.2728594e+84
-8.2704661e+84
-8.2692472e+84
-8.2783409e+84
-8.2767642e+84
-8.2738909e+84
-8.2753772e+84
-8.2684991e+84
-8.2672227e+84
-8.2659084e+84
-8.2644996e+84
-8.262686e+84
-8.2636159e+84
-8.2615531e+84
-8.2621858e+84
-7.7800291e+84
-7.9039799e+84
-7.6852269e+84
-7.660388e+84
-7.9105968e+84
-7.9354932e+84
-8.0302363e+84
-8.1838318e+84
-8.1278691e+84
-8.1345007e+84
-8.2211969e+84
-8.2141449e+84
-8.1192917e+84
-8.1226649e+84
-8.2057846e+84
-8.2088169e+84
-8.0509585e+84
-7.982706e+84
-8.0472172e+84
-7.9787568e+84
-8.0625892e+84
-7.9881059e+84
-7.994373e+84
-8.0564621e+84
-7.7881474e+84
-7.8419546e+84
-7.782264e+84
-7.8354887e+84
-7.8782554e+84
-7.8833504e+84
-7.9425889e+84
-7.9374616e+84
-7.8251187e+84
-7.8302703e+84
-7.7774455e+84
-7.7721148e+84
-7.8890029e+84
-7.8962893e+84
-7.9580404e+84
-7.9495523e+84
-7.7636579e+84
-7.7686817e+84
-7.8209734e+84
-7.8154802e+84
-7.8600153e+84
-7.8636973e+84
-7.9187216e+84
-7.9223251e+84
-7.7599522e+84
-7.807766e+84
-7.8113046e+84
-7.7560588e+84
-7.933818e+84
-7.8679909e+84
-7.9273751e+84
-7.8740145e+84
-7.1310363e+84
-7.1452935e+84
-7.3719379e+84
-7.3901703e+84
-7.6398295e+84
-7.8861222e+84
-7.8643475e+84
-7.6182703e+84
-8.0824112e+84
-8.0206303e+84
-8.0114598e+84
-8.0920821e+84
-8.1393499e+84
-8.1478304e+84
-8.2369526e+84
-8.2275731e+84
-8.1674265e+84
-8.1568154e+84
-8.2586288e+84
-8.2467935e+84
-7.9973583e+84
-8.0033524e+84
-8.0735573e+84
-8.0661807e+84
-7.7794805e+84
-7.7785057e+84
-7.7535258e+84
-7.7549075e+84
-7.7837434e+84
-7.7813534e+84
-7.7570335e+84
-7.7595982e+84
-7.8083339e+84
-7.8343558e+84
-7.8059948e+84
-7.8319667e+84
-7.8043185e+84
-7.8304245e+84
-7.8035679e+84
-7.8297788e+84
-7.7780694e+84
-7.7756196e+84
-7.749573e+84
-7.7524762e+84
-7.7729314e+84
-7.7697194e+84
-7.7442471e+84
-7.7469859e+84
-7.8031966e+84
-7.8294542e+84
-7.8010031e+84
-7.8272256e+84
-7.7983703e+84
-7.8245744e+84
-7.7949889e+84
-7.8209362e+84
-7.9104921e+84
-7.9400191e+84
-7.9079179e+84
-7.9372978e+84
-7.855683e+84
-7.8533852e+84
-7.8802637e+84
-7.8826619e+84
-7.8506787e+84
-7.8468007e+84
-7.8774517e+84
-7.8734342e+84
-7.9051382e+84
-7.9011097e+84
-7.9345027e+84
-7.9305732e+84
-7.8568827e+84
-7.8842192e+84
-7.8832627e+84
-7.8560827e+84
-7.8605572e+84
-7.887648e+84
-7.8583474e+84
-7.8856863e+84
-7.9158124e+84
-7.9459886e+84
-7.9441726e+84
-7.9139457e+84
-7.9124848e+84
-7.9425489e+84
-7.911292e+84
-7.941061e+84
-7.97617e+84
-8.008117e+84
-7.9743648e+84
-8.0063554e+84
-7.9726925e+84
-8.004603e+84
-7.9709259e+84
-8.0025997e+84
-8.0376254e+84
-8.074521e+84
-8.0355322e+84
-8.0723038e+84
-8.0411622e+84
-8.0782458e+84
-8.0393157e+84
-8.076362e+84
-8.2029959e+84
-8.2560856e+84
-8.2013832e+84
-8.2543913e+84
-8.1117643e+84
-8.1543804e+84
-8.1093383e+84
-8.1513923e+84
-8.1155481e+84
-8.1581061e+84
-8.1137277e+84
-8.156557e+84
-8.1992181e+84
-8.2520329e+84
-8.1960487e+84
-8.2486148e+84
-8.1938384e+84
-8.2461176e+84
-8.1903811e+84
-8.2426022e+84
-8.1012755e+84
-8.0972923e+84
-8.1432608e+84
-8.1390568e+84
-8.1076655e+84
-8.1494363e+84
-8.1043484e+84
-8.1463412e+84
-8.187371e+84
-8.2396653e+84
-8.183361e+84
-8.2358808e+84
-8.0339978e+84
-8.070614e+84
-8.0308118e+84
-8.067355e+84
-7.964033e+84
-7.995318e+84
-7.960119e+84
-7.991395e+84
-7.9696973e+84
-8.0011777e+84
-7.966852e+84
-7.9982557e+84
-8.0278174e+84
-8.0239123e+84
-8.0642871e+84
-8.0603695e+84
-7.8177147e+84
-7.8152183e+84
-7.8430783e+84
-7.8405025e+84
-7.8245186e+84
-7.8501246e+84
-7.8204768e+84
-7.845938e+84
-7.8770847e+84
-7.906071e+84
-7.8725851e+84
-7.9012747e+84
-7.8696615e+84
-7.898108e+84
-7.8670498e+84
-7.8953681e+84
-7.7685944e+84
-7.7928482e+84
-7.7661327e+84
-7.7904728e+84
-7.7750143e+84
-7.7994627e+84
-7.77132e+84
-7.7955874e+84
-7.7515129e+84
-7.7477769e+84
-7.7284708e+84
-7.72471e+84
-7.7449834e+84
-7.7424139e+84
-7.7190194e+84
-7.7217541e+84
-7.7915015e+84
-7.8170765e+84
-7.7863955e+84
-7.8116633e+84
-7.7578166e+84
-7.7542676e+84
-7.7310438e+84
-7.7339022e+84
-7.7663724e+84
-7.7615951e+84
-7.7370506e+84
-7.7413259e+84
-7.7819686e+84
-7.8071394e+84
-7.7778987e+84
-7.8026568e+84
-7.8972619e+84
-7.9267895e+84
-7.8914769e+84
-7.9210297e+84
-7.8326511e+84
-7.8589821e+84
-7.8279233e+84
-7.8539e+84
-7.8427808e+84
-7.8693876e+84
-7.8371657e+84
-7.8636828e+84
-7.8865822e+84
-7.9159802e+84
-7.8812166e+84
-7.9104383e+84
-8.066186e+84
-8.0625738e+84
-8.1089433e+84
-8.105188e+84
-8.0747973e+84
-8.0698609e+84
-8.1168814e+84
-8.1124552e+84
-8.1615635e+84
-8.2145612e+84
-8.1570259e+84
-8.2101245e+84
-8.1538456e+84
-8.2069592e+84
-8.1504026e+84
-8.2038315e+84
-8.0842028e+84
-8.0787276e+84
-8.1263781e+84
-8.1207551e+84
-8.0941458e+84
-8.1358377e+84
-8.0889388e+84
-8.1310231e+84
-8.1801988e+84
-8.2328704e+84
-8.1751974e+84
-8.2278648e+84
-8.1707927e+84
-8.165413e+84
-8.2234053e+84
-8.2182795e+84
-8.0206278e+84
-8.0571331e+84
-8.0152214e+84
-8.0518956e+84
-7.9564854e+84
-7.9507811e+84
-7.9878759e+84
-7.9823913e+84
-7.9457301e+84
-7.9401058e+84
-7.9773289e+84
-7.9716457e+84
-8.0102993e+84
-8.0046477e+84
-8.0470437e+84
-8.0414743e+84
-8.0004416e+84
-7.995339e+84
-8.0372878e+84
-8.0322593e+84
-7.935805e+84
-7.9308383e+84
-7.9673713e+84
-7.9623919e+84
-7.9244576e+84
-7.9274593e+84
-7.9587978e+84
-7.9555135e+84
-7.9916809e+84
-7.9882482e+84
-8.0285286e+84
-8.0249914e+84
-7.8744439e+84
-7.8623987e+84
-7.8757805e+84
-7.8609623e+84
-7.8895985e+84
-7.9039921e+84
-7.9024944e+84
-7.8882014e+84
-7.8581513e+84
-7.8715902e+84
-7.8596141e+84
-7.8731093e+84
-7.8869437e+84
-7.9011987e+84
-7.8854147e+84
-7.8997243e+84
-7.8069694e+84
-7.8189019e+84
-7.817502e+84
-7.8054363e+84
-7.8031486e+84
-7.8042072e+84
-7.8162732e+84
-7.8151226e+84
-7.8425239e+84
-7.8312675e+84
-7.843957e+84
-7.8298687e+84
-7.8274875e+84
-7.8401339e+84
-7.8287025e+84
-7.8413279e+84
-7.8227863e+84
-7.8122192e+84
-7.8241679e+84
-7.8107879e+84
-7.8365193e+84
-7.8492438e+84
-7.8477582e+84
-7.835099e+84
-7.8198776e+84
-7.8094015e+84
-7.8214071e+84
-7.807951e+84
-7.8337652e+84
-7.8464149e+84
-7.8322822e+84
-7.8449804e+84
-7.8571168e+84
-7.8705483e+84
-7.8690528e+84
-7.8556601e+84
-7.8986981e+84
-7.8828406e+84
-7.884364e+84
-7.8971419e+84
-7.8544547e+84
-7.8532193e+84
-7.8678276e+84
-7.8665228e+84
-7.8958811e+84
-7.8802927e+84
-7.8945566e+84
-7.8816229e+84
-7.7593076e+84
-7.7575903e+84
-7.7708655e+84
-7.7691653e+84
-7.7811853e+84
-7.794703e+84
-7.793082e+84
-7.7828813e+84
-7.7564897e+84
-7.7555477e+84
-7.7670589e+84
-7.7680239e+84
-7.7799962e+84
-7.7790101e+84
-7.791879e+84
-7.7908853e+84
-7.7745813e+84
-7.7646767e+84
-7.7761461e+84
-7.7630199e+84
-7.7880993e+84
-7.7999731e+84
-7.7984869e+84
-7.7866195e+84
-7.7719822e+84
-7.7617424e+84
-7.7732665e+84
-7.7604524e+84
-7.7852828e+84
-7.797116e+84
-7.7839525e+84
-7.7957323e+84
-7.7398391e+84
-7.7384756e+84
-7.7526493e+84
-7.7511224e+84
-7.7497605e+84
-7.7483624e+84
-7.7369523e+84
-7.7354757e+84
-7.7209638e+84
-7.7178277e+84
-7.7342081e+84
-7.7327669e+84
-7.7471626e+84
-7.7455952e+84
-7.7444417e+84
-7.7434554e+84
-7.7315038e+84
-7.7304952e+84
-7.7126343e+84
-7.7150438e+84
-7.8524374e+84
-7.8657152e+84
-7.8645677e+84
-7.851197e+84
-7.8490591e+84
-7.8501303e+84
-7.8635185e+84
-7.8624078e+84
-7.8923928e+84
-7.8794162e+84
-7.8936772e+84
-7.8782096e+84
-7.8761406e+84
-7.89037e+84
-7.8772383e+84
-7.8914012e+84
-7.7985459e+84
-7.8104074e+84
-7.8093914e+84
-7.7974296e+84
-7.8342578e+84
-7.8226921e+84
-7.8352885e+84
-7.8216972e+84
-7.820357e+84
-7.8330354e+84
-7.8209634e+84
-7.833521e+84
-7.8132719e+84
-7.8024834e+84
-7.8144197e+84
-7.8013152e+84
-7.8267192e+84
-7.8393644e+84
-7.8380891e+84
-7.8255125e+84
-7.8110617e+84
-7.8002414e+84
-7.8121892e+84
-7.7991946e+84
-7.824463e+84
-7.8370289e+84
-7.8233716e+84
-7.8359787e+84
-7.8483687e+84
-7.8617289e+84
-7.8607144e+84
-7.8473419e+84
-7.8466082e+84
-7.8600066e+84
-7.8461124e+84
-7.8594876e+84
-7.8888209e+84
-7.8754916e+84
-7.8897662e+84
-7.8745044e+84
-7.8733481e+84
-7.8738682e+84
-7.8882016e+84
-7.887717e+84
-7.7510913e+84
-7.7497955e+84
-7.7626379e+84
-7.7613711e+84
-7.7733496e+84
-7.7863438e+84
-7.7851558e+84
-7.7745857e+84
-7.7652183e+84
-7.7548107e+84
-7.7663845e+84
-7.7536083e+84
-7.7783482e+84
-7.7902388e+84
-7.7890512e+84
-7.7772067e+84
-7.7634556e+84
-7.7528098e+84
-7.7643133e+84
-7.7519658e+84
-7.7762269e+84
-7.7880128e+84
-7.7753159e+84
-7.787036e+84
-8.1663516e+84
-8.1404749e+84
-8.1676763e+84
-8.1389361e+84
-8.1377247e+84
-8.1651656e+84
-8.1640801e+84
-8.136543e+84
-8.1955994e+84
-8.2276308e+84
-8.1941791e+84
-8.2261152e+84
-8.2251024e+84
-8.2240677e+84
-8.1931407e+84
-8.1921111e+84
-8.0726526e+84
-8.0529941e+84
-8.0738917e+84
-8.0516156e+84
-8.054362e+84
-8.0560888e+84
-8.076918e+84
-8.0752481e+84
-8.0962302e+84
-8.0979799e+84
-8.1219116e+84
-8.1201827e+84
-8.1188241e+84
-8.1174529e+84
-8.0949072e+84
-8.09367e+84
-8.0699328e+84
-8.0506136e+84
-8.0716341e+84
-8.0489463e+84
-8.0476608e+84
-8.0686593e+84
-8.0675311e+84
-8.0464726e+84
-8.0927216e+84
-8.1166139e+84
-8.0909951e+84
-8.1149785e+84
-8.1137656e+84
-8.1125037e+84
-8.0897978e+84
-8.0886089e+84
-8.1684768e+84
-8.1426348e+84
-8.1701117e+84
-8.1412362e+84
-8.1440724e+84
-8.1458412e+84
-8.1733147e+84
-8.1716606e+84
-8.2336914e+84
-8.1997416e+84
-8.2015478e+84
-8.2318514e+84
-8.2302432e+84
-8.2286442e+84
-8.1981827e+84
-8.1965709e+84
-7.9265822e+84
-7.9132187e+84
-7.9281102e+84
-7.9116668e+84
-7.9433006e+84
-7.9594628e+84
-7.9578588e+84
-7.941716e+84
-7.923877e+84
-7.9103704e+84
-7.9252609e+84
-7.9090323e+84
-7.9404124e+84
-7.9565295e+84
-7.9551791e+84
-7.9390445e+84
-7.976989e+84
-7.9947722e+84
-7.9784304e+84
-7.9961861e+84
-7.9798338e+84
-7.9815187e+84
-7.9992516e+84
-7.9975683e+84
-8.015505e+84
-8.0172334e+84
-8.0367912e+84
-8.0350808e+84
-8.0337051e+84
-8.0322603e+84
-8.0141527e+84
-8.0127344e+84
-7.9170062e+84
-7.9185384e+84
-7.9334886e+84
-7.9319222e+84
-7.9471033e+84
-7.9487365e+84
-7.9649694e+84
-7.9632959e+84
-7.9291013e+84
-7.915686e+84
-7.9305716e+84
-7.9142175e+84
-7.9619059e+84
-7.9457571e+84
-7.9443161e+84
-7.9604736e+84
-7.9922229e+84
-7.9759815e+84
-7.9937632e+84
-7.9744028e+84
-7.9730698e+84
-7.9908848e+84
-7.9894911e+84
-7.971714e+84
-8.0117151e+84
-8.0312458e+84
-8.0101356e+84
-8.0296291e+84
-8.0283565e+84
-8.0270767e+84
-8.008865e+84
-8.0075221e+84
-8.0457302e+84
-8.0667765e+84
-8.0654304e+84
-8.0442847e+84
-8.0429977e+84
-8.064105e+84
-8.0627735e+84
-8.0417843e+84
-8.0879245e+84
-8.1118534e+84
-8.1103104e+84
-8.0864365e+84
-8.0852232e+84
-8.1090619e+84
-8.1076807e+84
-8.0838628e+84
-8.1358006e+84
-8.1633291e+84
-8.1617458e+84
-8.134198e+84
-8.1328677e+84
-8.1603192e+84
-8.1587891e+84
-8.1315037e+84
-8.1914886e+84
-8.2235469e+84
-8.2218932e+84
-8.189816e+84
-8.188379e+84
-8.2203919e+84
-8.2189232e+84
-8.186895e+84
-8.1308882e+84
-8.1581429e+84
-8.1575022e+84
-8.1299723e+84
-8.1288378e+84
-8.1293965e+84
-8.1569238e+84
-8.1562832e+84
-8.1861225e+84
-8.218105e+84
-8.2171094e+84
-8.1852916e+84
-8.1843776e+84
-8.184878e+84
-8.2167164e+84
-8.2163578e+84
-8.0411502e+84
-8.0620803e+84
-8.0612391e+84
-8.0402593e+84
-8.0390159e+84
-8.039647e+84
-8.0605928e+84
-8.059866e+84
-8.0831518e+84
-8.1069931e+84
-8.1059849e+84
-8.0821598e+84
-8.080953e+84
-8.0816051e+84
-8.105437e+84
-8.1048772e+84
-7.9668037e+84
-7.9844192e+84
-7.9835573e+84
-7.9658912e+84
-7.9648448e+84
-7.9653304e+84
-7.983036e+84
-7.9825431e+84
-8.0022986e+84
-8.0217887e+84
-8.0209347e+84
-8.001426e+84
-8.0004336e+84
-8.0009568e+84
-8.0203785e+84
-8.0198227e+84
-7.9081462e+84
-7.9068356e+84
-7.922995e+84
-7.9216679e+84
-7.9381717e+84
-7.9367821e+84
-7.9543265e+84
-7.9528986e+84
-7.9058281e+84
-7.9206395e+84
-7.9196331e+84
-7.904814e+84
-7.9518209e+84
-7.9508672e+84
-7.9357564e+84
-7.9347881e+84
-7.9708857e+84
-7.9886618e+84
-7.9872297e+84
-7.9694152e+84
-7.9682699e+84
-7.9860413e+84
-7.9849602e+84
-7.967303e+84
-8.0067258e+84
-8.0263237e+84
-8.0248454e+84
-8.005221e+84
-8.004027e+84
-8.023595e+84
-8.0224142e+84
-8.0029115e+84
-7.9042385e+84
-7.9190802e+84
-7.9033443e+84
-7.9182227e+84
-7.9333344e+84
-7.9342363e+84
-7.9503334e+84
-7.9494197e+84
-7.9022464e+84
-7.9171317e+84
-7.9027518e+84
-7.9176477e+84
-7.9488583e+84
-7.9327824e+84
-7.93229e+84
-7.9483882e+84
-8.2871763e+84
-8.2845431e+84
-8.2822621e+84
-8.2799133e+84
-8.2961713e+84
-8.2937446e+84
-8.2914656e+84
-8.2889365e+84
-8.270761e+84
-8.2688911e+84
-8.267494e+84
-8.2660696e+84
-8.2784688e+84
-8.2760733e+84
-8.2740332e+84
-8.2720075e+84
-8.3136986e+84
-8.315456e+84
-8.3121616e+84
-8.3104976e+84
-8.311715e+84
-8.3089774e+84
-8.3078264e+84
-8.3075588e+84
-8.3182239e+84
-8.317916e+84
-8.3172311e+84
-8.3161653e+84
-8.3028411e+84
-8.3008949e+84
-8.2973594e+84
-8.2991931e+84
-8.3094502e+84
-8.3073774e+84
-8.3056755e+84
-8.3039832e+84
-8.3200567e+84
-8.3246503e+84
-8.3167523e+84
-8.3134518e+84
-8.3568011e+84
-8.3659072e+84
-8.1860266e+84
-8.4353399e+84
-8.4083056e+84
-8.1604075e+84
-8.3436136e+84
-8.3374636e+84
-8.332722e+84
-8.327891e+84
-8.3545781e+84
-8.3482096e+84
-8.3673103e+84
-8.3605628e+84
-8.1330433e+84
-8.1091408e+84
-8.3449108e+84
-8.3767895e+84
-8.659931e+84
-8.6912001e+84
-8.9556785e+84
-8.9142276e+84
-8.1424133e+84
-8.1649359e+84
-7.829114e+84
-8.1108354e+84
-8.1220705e+84
-7.8124024e+84
-8.1012762e+84
-8.0917204e+84
-8.4980649e+84
-8.3096337e+84
-8.2952042e+84
-8.3385825e+84
-8.4681659e+84
-8.4587003e+84
-8.3542315e+84
-8.4760263e+84
-8.4855007e+84
-8.28407e+84
-8.270736e+84
-8.3130191e+84
-8.438761e+84
-8.4326853e+84
-8.3260227e+84
-8.4520232e+84
-8.4445734e+84
-8.5636291e+84
-8.5532948e+84
-8.5708796e+84
-8.5818427e+84
-8.5069136e+84
-8.4968677e+84
-8.4883415e+84
-8.4787294e+84
-8.5119893e+84
-8.517373e+84
-8.518676e+84
-8.5128853e+84
-8.5837253e+84
-8.5722921e+84
-8.563884e+84
-8.5520648e+84
-8.5193285e+84
-8.495471e+84
-8.5133286e+84
-8.4890788e+84
-8.5225196e+84
-8.5277296e+84
-8.529575e+84
-8.5237292e+84
-8.5081489e+84
-8.5020586e+84