/*--------------------------------*- C++ -*----------------------------------*\
  =========                 |
  \\      /  F ield         | OpenFOAM: The Open Source CFD Toolbox
   \\    /   O peration     | Website:  https://openfoam.org
    \\  /    A nd           | Version:  7
     \\/     M anipulation  |
\*---------------------------------------------------------------------------*/
FoamFile
{
    version     2.0;
    format      ascii;
    class       surfaceScalarField;
    location    "7000";
    object      phi;
}
// * * * * * * * * * * * * * * * * * * * * * * * * * * * * * * * * * * * * * //

dimensions      [0 3 -1 0 0 0 0];

internalField   nonuniform List<scalar> 
101024
(
6.2069288e+38
-7.2407586e+38
-1.1626305e+39
-1.1674943e+39
-1.3233654e+39
-1.3321036e+39
-2.0148505e+38
1.2625888e+38
-6.6107769e+37
-2.475012e+38
-3.0523117e+38
-3.1474277e+38
-2.5324603e+38
-1.1316133e+39
-1.1330096e+38
9.5311623e+37
1.0842237e+38
-1.4242065e+39
-8.2855414e+37
-2.4050413e+37
-3.246758e+37
6.8593188e+37
-5.1514934e+39
-5.5857942e+37
-2.6627455e+38
2.0817494e+38
3.0488168e+38
-1.9197072e+38
-5.4426856e+38
-1.1741557e+39
-1.1691665e+39
-1.0236313e+39
-1.0068315e+39
-7.9647348e+37
-2.3148627e+38
-2.3268699e+38
-1.8943559e+38
-1.9023355e+38
6.1098229e+38
-9.2262473e+38
-9.0328015e+38
-1.086506e+39
-1.0682028e+39
6.5714302e+37
-1.7788136e+38
1.4439544e+38
-1.448179e+38
-2.3279482e+38
-2.3622617e+38
-2.9521829e+38
-2.8580157e+38
-2.1134105e+38
1.3983203e+38
-2.4777823e+38
-2.3914324e+38
-3.1323669e+38
-2.9622028e+38
1.0253914e+38
-1.0590856e+39
-1.7938902e+38
-1.1018464e+39
-4.0475177e+37
5.8033515e+36
2.8264967e+37
-8.1845971e+36
-5.1422719e+37
-6.7180341e+37
-5.0124971e+37
-6.4181593e+37
1.3435279e+37
-2.4475737e+38
-1.9072541e+37
4.327118e+37
-2.4958561e+38
2.9213841e+37
-5.1923772e+37
-5.0528974e+37
-6.800621e+37
-6.5144776e+37
1.0902831e+39
-4.7477963e+37
5.9936407e+37
-7.3191115e+37
6.7416575e+37
-6.9111212e+37
-6.1112906e+37
7.4714619e+37
-6.1262008e+37
8.5379395e+37
-5.5889766e+37
-7.8654413e+37
9.8067e+37
1.0427203e+38
-1.4006527e+39
-3.4921134e+37
-2.1934223e+37
1.0105548e+38
8.2838732e+37
-1.3631408e+39
-3.5435617e+37
-2.4060082e+37
-1.047231e+38
3.0962305e+38
3.7339801e+38
-5.6194132e+39
-1.3110029e+38
-9.5472279e+37
-2.0110419e+38
-3.0244179e+38
-2.4623962e+38
2.6406901e+38
1.9789562e+38
-1.1130481e+37
2.180179e+37
2.2362142e+37
-3.0895823e+38
-6.2212288e+36
-4.3174979e+36
2.2739641e+37
1.9918422e+37
-3.0218444e+38
-1.7798896e+37
-6.2799902e+36
-4.7500772e+36
-5.573022e+39
-2.475942e+38
-2.8008254e+38
2.3629908e+38
2.8374714e+38
7.9924335e+38
4.9753717e+37
-1.0759876e+39
-3.7634335e+37
-1.6499125e+36
9.2718733e+37
-5.8141096e+37
1.8260594e+37
-7.7801209e+38
4.6170514e+37
-1.0715811e+39
3.0875417e+37
-1.1264882e+39
-1.1228058e+39
-9.5874522e+38
-9.7764124e+38
6.9179155e+37
5.1921729e+37
-1.028156e+38
-2.7898326e+38
-2.7593303e+38
-2.500144e+38
-2.4868153e+38
6.0248661e+37
-2.9173013e+38
-2.6223565e+38
-2.4975885e+38
-2.7925227e+38
8.2473183e+37
-1.2997519e+38
-2.1776487e+38
-2.1458056e+38
-1.6991018e+38
-1.7755638e+38
-2.283843e+38
-2.1904375e+38
-1.7473018e+38
-1.8176662e+38
-3.8613193e+37
3.7222591e+37
-1.8834239e+37
-2.5576321e+38
-2.2517888e+37
-2.3254561e+38
1.2149926e+37
1.2805431e+37
-1.5531745e+37
-5.6997975e+37
-5.6066102e+37
-4.5293839e+37
-4.5329257e+37
1.2861564e+37
-5.8187955e+37
-4.6899042e+37
9.6179089e+36
-1.5497747e+37
-3.8115199e+37
-3.8004008e+37
-3.3294947e+37
-3.307115e+37
-3.9456063e+37
-3.4479061e+37
-3.296813e+37
5.0526546e+37
-1.7960702e+38
1.6846247e+38
-2.1367265e+38
-2.0833798e+38
-2.5983966e+38
-2.71032e+38
-2.1049874e+38
2.0289055e+38
-2.1097271e+38
-2.6858264e+38
-2.2250257e+38
-2.8790559e+38
8.509485e+37
-9.8641284e+38
-5.5171929e+37
-9.9959769e+38
9.4089217e+36
-3.6439521e+37
3.0327431e+37
-1.6090983e+37
-4.7639962e+37
-4.8375822e+37
-6.0935416e+37
-6.3049413e+37
-4.0853618e+37
9.249326e+36
2.9921105e+37
-4.9687727e+37
-4.8044512e+37
-6.5582058e+37
-6.1819712e+37
-1.9456344e+37
2.1815534e+37
-2.3737557e+38
-2.3063831e+38
-2.8220419e+37
2.481748e+36
-3.9325969e+37
2.6471759e+37
-4.9065919e+37
-5.0054736e+37
-6.3605786e+37
-6.5429942e+37
-4.2857147e+37
2.8724483e+37
-5.1063242e+37
-4.9377697e+37
-6.3164393e+37
-6.710806e+37
1.1445092e+37
-2.441252e+38
-2.4243284e+38
-8.697031e+36
-1.0509479e+36
7.7401006e+35
6.8237802e+36
-1.0661914e+37
-1.0372596e+37
-1.444171e+37
-1.3796265e+37
-2.3577812e+36
2.5368097e+36
-5.3316738e+37
-8.2322629e+36
6.6098662e+36
-9.2763442e+35
-1.0302461e+37
-1.0574133e+37
-1.3567627e+37
-1.4181658e+37
-5.1945745e+37
-2.9074652e+36
-3.0308544e+35
-8.4951977e+36
6.7788912e+36
-1.0376763e+37
-1.0627091e+37
-1.3808599e+37
-1.4317887e+37
-9.1024207e+36
7.0114323e+36
-1.4458781e+37
-1.0629075e+37
-1.0275843e+37
-1.3684577e+37
1.2439677e+36
-5.3406756e+37
-5.2926466e+37
-1.2988759e+38
3.5704093e+38
-3.2723614e+38
-2.9274492e+38
-2.8956882e+38
2.3672118e+38
2.9889785e+38
-2.4110575e+38
3.1084766e+38
1.0600114e+39
3.9566698e+37
-5.3181241e+37
-7.2073237e+37
-7.2278624e+37
6.2278572e+37
5.6993623e+37
5.606208e+37
-7.3976988e+37
-6.264158e+37
6.9012092e+37
8.1222097e+37
-5.6199774e+37
1.0770183e+39
6.7271377e+37
-6.565378e+37
-7.431517e+37
6.0410341e+37
8.3554168e+37
7.4861222e+37
-6.4628473e+37
-5.3203891e+37
-2.2746812e+38
5.7053295e+36
2.963722e+38
-8.8807148e+36
1.1609741e+37
-1.4957752e+37
-1.5546701e+37
1.3102554e+37
4.3647539e+36
-6.622831e+36
1.2073429e+37
1.0817709e+37
-1.6070174e+37
-1.5781969e+37
-2.2930463e+38
3.0138045e+38
1.2316806e+37
-1.4552819e+37
-1.5840377e+37
1.2941202e+37
1.1981505e+37
1.1407371e+37
-2.3742318e+38
9.9230794e+36
-1.4844193e+37
1.9360725e+37
-1.1391736e+37
-1.0349427e+37
1.7255014e+37
6.1821316e+36
-1.0307352e+37
-1.3489276e+37
1.3813886e+37
-1.4003603e+37
1.5491289e+37
-2.4075678e+38
-1.1666039e+37
1.8178451e+37
1.9423193e+37
-9.9537882e+36
1.5457809e+37
-1.4285335e+37
1.4577379e+37
-1.2925739e+37
1.3214648e+37
-1.9111864e+37
1.9042551e+37
2.1515146e+37
-3.0156166e+38
-5.24086e+36
-6.9042586e+36
2.1512033e+37
2.1039061e+37
-3.0055259e+38
-4.3912545e+36
-6.5585503e+36
1.5400832e+37
1.8322938e+37
2.0832632e+37
-2.8780504e+38
-4.9413114e+36
-2.143938e+37
-6.4445456e+36
2.0350277e+37
2.1046768e+37
-2.9553863e+38
-4.4912511e+36
-6.5138253e+36
-6.1017075e+37
9.956103e+37
9.357575e+37
-1.3196897e+39
-1.7909561e+37
-2.994133e+37
3.3693436e+38
-5.7256088e+39
-1.7690429e+38
-3.1547136e+38
2.0152622e+38
2.5439108e+38
-2.6362793e+38
7.6567549e+37
9.0838211e+37
-1.304587e+39
-5.0038834e+37
-2.6528297e+37
-3.4785603e+37
5.8011553e+37
8.7350658e+38
-1.1555677e+39
-5.9843443e+37
-1.8548727e+37
8.7949106e+38
-1.1754275e+39
1.1471415e+37
-5.9699439e+37
2.5254425e+37
-6.3210777e+37
-1.0741652e+36
1.689689e+36
-2.3345384e+36
4.3098159e+36
4.702209e+36
-6.5592492e+37
-1.2855622e+36
-1.1170664e+36
4.7186046e+36
4.6369244e+36
-6.5044831e+37
-1.198214e+36
-9.3229692e+35
1.9017703e+36
4.2363356e+36
4.7056055e+36
-6.3856592e+37
-2.9169391e+36
-1.2392809e+36
-1.0566123e+36
4.605651e+36
4.6421989e+36
-6.5483023e+37
-1.2853275e+36
-9.790706e+35
-1.435117e+37
7.6994286e+38
-1.0576069e+39
1.6786384e+37
7.5819364e+38
-1.0473926e+39
-5.0996822e+36
1.6004749e+37
1.6300701e+37
4.8064591e+37
7.4780476e+38
1.2597427e+37
-7.8217583e+38
-7.8325508e+36
2.7956208e+37
1.8987707e+37
1.0769902e+36
2.4977246e+37
-7.8018371e+38
1.4908161e+37
-8.111872e+38
2.4911618e+37
5.1051388e+37
1.8297304e+37
-2.6957831e+38
-2.7539618e+38
-2.4615794e+38
-2.4382334e+38
1.3529464e+37
-2.8653434e+38
-2.7350649e+38
-2.4469146e+38
-2.5787997e+38
8.399601e+37
-2.0595407e+38
-2.087774e+38
-1.6260612e+38
-1.6706651e+38
-2.2577443e+38
-2.1376423e+38
-1.8987837e+38
-1.777834e+38
-1.7628508e+37
3.6658841e+37
2.3435693e+37
-9.421404e+37
-2.2723509e+38
3.2663283e+37
-8.1080988e+37
-1.9617752e+37
-2.2552613e+38
1.653214e+37
3.209876e+37
-1.8081246e+37
-2.4790074e+38
2.0559957e+37
3.3584398e+37
-2.4963479e+38
3.5448522e+37
1.3504461e+37
-8.6526045e+37
-2.3072119e+38
1.1667947e+37
3.4210729e+37
-2.5210574e+38
-3.9031159e+37
3.57058e+37
-2.5359968e+38
-9.5661494e+37
-2.3163529e+38
1.4194376e+37
1.1799686e+37
-1.6497245e+37
-5.3589778e+37
-5.4193625e+37
-4.3570414e+37
-4.3809069e+37
1.257003e+37
1.7404721e+37
-4.5255927e+37
-5.5755443e+37
-5.3101699e+37
-4.2663412e+37
-1.5063059e+37
1.941207e+37
-3.4375699e+37
-3.1283014e+37
-2.9164254e+37
-3.6945033e+37
-1.7283008e+37
-3.6301431e+37
-3.5397709e+37
-3.1493202e+37
-3.001696e+37
9.1987033e+36
1.389944e+37
-5.5061667e+37
-5.5628256e+37
-4.468267e+37
-4.4494337e+37
1.2300763e+37
-4.6250966e+37
-5.7280966e+37
-5.4629294e+37
-4.3810511e+37
-1.1088047e+37
-3.8324641e+37
-3.6199124e+37
-3.2531352e+37
-3.10595e+37
-3.6482667e+37
-3.6181735e+37
-3.0407809e+37
-2.9999182e+37
-3.615145e+37
2.1594251e+37
1.921076e+37
-1.5551015e+37
-2.5437126e+38
-2.9287525e+36
-9.3516873e+35
-2.0295256e+37
-2.9568164e+38
-3.3419764e+36
1.062057e+37
4.0273096e+36
-4.6709601e+37
9.9968946e+36
-4.0413601e+36
-4.6152845e+37
2.6039193e+36
8.9173429e+36
-2.973643e+36
-4.3844549e+37
2.8511021e+36
9.3061112e+36
-4.4261965e+37
1.0071936e+37
-4.6647833e+37
8.9994444e+36
-4.4371576e+37
2.6615953e+36
1.5740547e+36
-3.2441222e+36
-8.7528672e+36
-8.8023364e+36
-6.2631278e+36
-6.3710415e+36
1.6472629e+36
2.8669381e+36
-6.5845621e+36
-8.6616649e+36
-9.1017939e+36
-6.2024605e+36
2.4605469e+36
-3.2871465e+36
-6.377526e+36
-6.2845466e+36
-5.8873167e+36
-5.7350277e+36
2.5455749e+36
-6.1366265e+36
-6.6305853e+36
-5.6926074e+36
-6.2253022e+36
1.6011263e+36
-8.846233e+36
-8.9005878e+36
-6.4250822e+36
-6.3921404e+36
1.1367347e+36
-5.9710129e+36
-6.397252e+36
-5.9078822e+36
-6.4140397e+36
-6.1944067e+36
-6.7012797e+36
-9.7005576e+38
-4.9501332e+36
-3.9968789e+37
7.9802263e+36
3.4139407e+37
-4.6501091e+37
-6.135293e+37
-4.4756947e+37
-5.8262359e+37
-3.4800956e+37
2.7646997e+37
4.3576762e+35
-4.5730889e+37
-5.9405844e+37
-4.4539036e+37
-5.6894086e+37
1.1558092e+37
-2.190243e+38
-1.0606842e+37
1.6234099e+37
-2.2483856e+38
-4.4855451e+37
-4.8790537e+36
3.8449092e+37
-4.7869027e+37
-4.5408636e+37
-6.3403711e+37
-5.909691e+37
-1.3265635e+37
-2.2883184e+38
-4.0574166e+37
3.7012929e+37
-4.6312275e+37
-6.0457805e+37
-4.6922864e+37
-6.2147231e+37
-2.3193554e+38
1.2124878e+36
-7.9519167e+36
7.3412331e+36
-1.615817e+36
-9.8355111e+36
-1.0068562e+37
-1.3086509e+37
-1.3635352e+37
-8.0988659e+36
8.9215372e+35
7.0086105e+36
-1.016199e+37
-9.8678092e+36
-1.3777694e+37
-1.3157726e+37
2.8966432e+36
-4.95798e+37
-3.8812352e+36
3.2692615e+36
-5.068826e+37
-2.295894e+34
-7.9281545e+36
6.4856949e+36
-1.338388e+37
-9.9614754e+36
-1.0165707e+37
-1.3819089e+37
-8.3758959e+36
8.0390401e+35
6.6429062e+36
-1.0247288e+37
-9.9196743e+36
-1.3099797e+37
-1.3871629e+37
1.8536913e+36
-5.1744364e+37
3.2846393e+36
-5.0579784e+37
8.8317352e+35
-7.561003e+36
5.7077039e+36
-9.9828918e+36
-1.0243944e+37
-1.3825436e+37
-1.3239611e+37
-8.0188251e+36
7.2156901e+35
6.1105403e+36
-1.0415895e+37
-1.0110969e+37
-1.3401131e+37
-1.4056868e+37
2.4418294e+36
-5.1281428e+37
2.707698e+36
-5.2199488e+37
-1.0316953e+35
-7.9613073e+36
6.1084245e+36
-1.0232892e+37
-1.0450307e+37
-1.4077632e+37
-1.3624799e+37
-8.6180302e+36
6.6444625e+36
-1.0557122e+37
-1.0220942e+37
-1.3440493e+37
-1.4216379e+37
-1.4599031e+36
-5.1717951e+37
-5.2782512e+37
-6.4685035e+34
-1.8181907e+36
-9.8085972e+34
2.0184596e+36
-2.2048282e+36
-2.157716e+36
-3.1099825e+36
-3.2268828e+36
-1.908197e+36
7.8449609e+34
2.0295587e+36
-2.1979611e+36
-2.1325482e+36
-3.0714719e+36
-3.2351071e+36
1.736576e+35
-3.7532195e+35
-1.1452582e+37
3.7312531e+35
-1.1261728e+37
1.7377302e+35
-1.7861858e+36
1.9621524e+36
-8.3940735e+34
-3.0570689e+36
-2.1359117e+36
-2.1816485e+36
-3.1936286e+36
-1.8492298e+36
2.0161677e+36
-2.1429465e+36
-2.1993499e+36
-3.2258042e+36
-3.0972818e+36
3.6438994e+35
-1.1095021e+37
-3.8684454e+35
-1.1336214e+37
1.0981637e+35
-1.7888855e+36
1.9512326e+36
-2.1289699e+36
-2.1911938e+36
-3.0508796e+36
-3.1994277e+36
-1.8664804e+36
-2.3614711e+34
2.0252984e+36
-3.2195718e+36
-2.1904422e+36
-2.143982e+36
-3.0984727e+36
2.9259118e+35
-1.120713e+37
2.2163362e+35
-1.1411198e+37
1.8837038e+36
6.4786032e+34
-1.1467028e+37
-1.5501482e+35
2.0830367e+36
-2.2064063e+36
-2.151428e+36
-3.108648e+36
-3.2305206e+36
-1.9282239e+36
-2.1232722e+36
-2.1836453e+36
-3.2092991e+36
-3.0547315e+36
-1.1201273e+37
-2.9641135e+38
-2.9260315e+38
-2.451995e+38
2.8576727e+38
2.4045752e+38
3.4128472e+38
-1.0313397e+39
-4.9241455e+37
7.405284e+37
8.302118e+37
-5.0646195e+37
-6.2472174e+37
3.1350897e+37
1.0253203e+39
-3.1436774e+37
-7.0219633e+37
6.3155448e+37
-6.7843648e+37
5.6260546e+37
-7.204362e+37
6.5950044e+37
-6.3417917e+37
5.9668043e+37
9.095095e+38
5.59755e+37
-6.2885488e+37
-1.719623e+37
6.6845461e+37
-6.7197384e+37
-8.9850174e+36
-9.2204729e+38
1.8822888e+37
8.5222937e+35
-4.2604155e+37
-6.1912798e+37
7.6470707e+37
6.5780619e+37
-5.5394767e+37
5.3032524e+36
2.2211461e+38
-7.3661761e+36
-1.5138383e+37
-1.5566771e+37
1.0843204e+37
1.2171625e+37
2.2234243e+38
7.1077551e+36
-1.6945251e+37
-1.562585e+37
1.0399739e+37
1.1093943e+37
-7.62598e+36
2.9037397e+38
8.9284746e+36
1.1253393e+37
-1.5988403e+37
-1.4454197e+37
1.2133786e+37
2.8819395e+38
-1.0222123e+37
-1.4663325e+37
-1.5371595e+37
1.0931143e+37
1.2614254e+37
2.2806772e+38
9.0538472e+36
-1.2206307e+37
-1.4039926e+37
-1.31963e+37
1.4886816e+37
1.2986588e+37
1.3572279e+37
-1.7225208e+37
1.5945514e+37
-1.0029519e+37
-1.1291962e+37
1.8303706e+37
-2.3079836e+38
1.5922784e+37
1.7207595e+37
-9.7552503e+36
-1.1635112e+37
1.8314095e+37
1.1344273e+37
1.3563587e+37
-1.2782481e+37
-1.4419312e+37
1.4723625e+37
-2.252915e+38
-6.507288e+36
2.9498972e+38
-1.4201385e+37
-1.5711111e+37
1.2227352e+37
1.2884888e+37
-5.4140881e+36
1.1949826e+37
1.1454712e+37
-1.6102781e+37
-1.4876899e+37
2.2719581e+38
1.0916127e+37
-1.5444786e+37
-1.5919971e+37
1.2142531e+37
2.9646265e+38
1.1255983e+37
-1.4953828e+37
-1.541506e+37
1.2677606e+37
-1.0791531e+37
-2.3662392e+38
-9.7222003e+36
-1.1632765e+37
1.7978606e+37
1.8949219e+37
-2.3525779e+38
-1.0308689e+37
-1.1540618e+37
1.6779201e+37
1.8758724e+37
7.5866595e+36
1.3198913e+37
-1.4304915e+37
-1.3503535e+37
1.4943556e+37
1.4307378e+37
-1.4422408e+37
-1.2722547e+37
1.5278787e+37
-4.7985722e+37
1.2498448e+36
6.1358756e+37
-1.8341005e+36
-3.1611207e+36
2.3885716e+36
-3.0674678e+36
2.6609968e+36
-9.8708025e+35
4.871224e+37
-6.2577232e+37
1.3543725e+36
-3.3178388e+36
-3.0828552e+36
2.4280229e+36
2.512655e+36
-6.1314125e+37
-1.6253718e+36
-3.2350749e+36
2.2889357e+36
-3.1714069e+36
2.5375499e+36
1.5287895e+36
6.2674883e+37
-3.2448619e+36
2.5014584e+36
-2.9970381e+36
2.6014247e+36
-1.0388655e+36
-4.8892525e+37
1.2607932e+36
-3.4600871e+36
2.4026124e+36
-3.2404507e+36
2.4647414e+36
-4.8079851e+37
-1.5361845e+36
-3.3765827e+36
2.2611947e+36
-3.3102561e+36
2.5064022e+36
8.1180115e+35
-1.3696633e+36
2.0109435e+36
2.2405199e+36
-3.6343263e+36
-3.573202e+36
2.137941e+36
2.2090653e+36
-3.5025133e+36
-3.7339514e+36
-4.8526214e+37
1.0859935e+36
6.2579801e+37
-3.1993594e+36
-3.1007672e+36
2.3773371e+36
2.6288412e+36
-1.0196494e+36
4.8187756e+37
-6.1532766e+37
-3.3052252e+36
2.3991928e+36
2.4821594e+36
-6.2274307e+37
-3.2793285e+36
2.2492844e+36
-3.2099047e+36
2.4824044e+36
6.1664548e+37
-3.2290985e+36
-2.9600691e+36
2.4912255e+36
2.5648879e+36
-8.8954727e+35
-3.4254584e+36
2.3881252e+36
-3.4036088e+36
2.2368863e+36
-3.3336384e+36
2.4646781e+36
-5.0971531e+37
-1.8718479e+36
2.3025447e+36
-2.0904209e+36
-1.7871206e+36
4.0706057e+36
4.225497e+36
1.4237509e+36
5.0102964e+37
-6.2784607e+37
-2.2831515e+36
-2.3932289e+36
-2.5054227e+36
3.367845e+36
3.6801352e+36
-6.4076298e+37
1.9521322e+36
-2.6039269e+36
-2.3071731e+36
3.4933774e+36
3.6447093e+36
-2.6441883e+36
-1.8377982e+36
-1.9892445e+36
3.8649382e+36
4.2358361e+36
-1.1828381e+36
4.930246e+37
1.5499613e+36
-3.0848633e+36
2.648621e+36
-2.8237675e+36
2.776057e+36
-4.8547149e+37
1.56205e+36
-2.2949084e+36
-2.7366844e+36
-2.8595913e+36
2.7945648e+36
3.1110118e+36
-1.8634732e+36
-2.9736113e+36
2.5338034e+36
-2.8863788e+36
2.8148272e+36
1.9102169e+36
-2.9536665e+36
-2.6728461e+36
2.9307749e+36
3.0650354e+36
5.0961592e+37
1.5019699e+36
-6.4095361e+37
-2.5689784e+36
-2.450437e+36
3.3226215e+36
3.6147265e+36
1.7077819e+36
-2.0545896e+36
-1.9022298e+36
3.8847237e+36
4.214422e+36
-5.0703542e+37
-2.0373726e+36
-1.754523e+36
4.1468526e+36
4.235036e+36
-6.3259932e+37
-2.5872825e+36
-2.2982933e+36
3.5175796e+36
3.615063e+36
-1.4927656e+36
-4.874475e+37
-2.9288624e+36
-2.6464049e+36
2.9456626e+36
3.0385259e+36
4.9277338e+37
1.2356419e+36
-3.0245362e+36
2.509818e+36
-2.9265561e+36
2.7727424e+36
-2.905548e+36
-2.7768794e+36
2.7822705e+36
3.076968e+36
-3.0690717e+36
2.6295596e+36
-2.7996469e+36
2.7212578e+36
-2.0819137e+36
2.7056099e+36
4.379343e+36
4.3102232e+36
-6.4272324e+37
-1.4134849e+36
-1.067798e+36
-3.101049e+36
4.4490469e+36
3.9801135e+36
-6.306171e+37
-1.3702592e+36
-1.1637362e+36
-2.0822498e+36
4.4827598e+36
4.487318e+36
-6.3662916e+37
-1.2973128e+36
-9.5374249e+35
4.5462107e+36
4.131456e+36
-6.4871932e+37
-1.372962e+36
-1.1504726e+36
-2.1340527e+36
2.805816e+36
4.3142843e+36
4.3730221e+36
-6.2676245e+37
-1.3098033e+36
-1.0025884e+36
-1.1896959e+37
2.0926798e+37
2.1258788e+37
-2.8926823e+38
-5.6380278e+36
-3.5631352e+36
4.0977332e+36
4.5234839e+36
-6.111957e+37
-3.3967247e+36
-1.2140553e+36
-1.0492584e+36
-2.1118929e+36
4.317463e+36
4.3184936e+36
-6.2339119e+37
-1.3491206e+36
-1.0079054e+36
4.0697522e+36
4.4646623e+36
-6.3558014e+37
-1.3710296e+36
-1.1696338e+36
-1.2719218e+37
1.8803405e+37
2.1149438e+37
-2.9035519e+38
-6.0365873e+36
-4.6155984e+36
8.495469e+37
-1.2992366e+39
-2.6509824e+37
8.5160324e+38
3.7982084e+37
-1.1448514e+39
-2.4373495e+37
4.093679e+37
-4.6165266e+36
-8.4880767e+38
2.3317863e+37
-1.1376746e+39
3.3776365e+36
-7.5569714e+36
1.9355578e+37
1.9943899e+37
-2.852638e+38
-6.1669371e+36
-4.3978078e+36
1.9196759e+37
1.71123e+37
-2.7781177e+38
-8.6377216e+36
-5.1980989e+36
-6.0283065e+36
3.986399e+37
7.9904332e+38
-8.2393132e+38
-3.9510885e+37
5.9861988e+36
8.3028467e+38
-8.4132035e+38
1.5854019e+37
-1.957377e+37
2.4817041e+37
-2.5709961e+37
2.1929496e+37
1.9605165e+35
-3.5527894e+35
9.0154053e+35
9.892861e+35
-1.3557406e+37
-3.4162299e+35
-3.2525843e+35
2.3797354e+35
9.6702323e+35
9.5851615e+35
-1.38298e+37
-3.1208063e+35
-3.5384075e+35
1.9228618e+35
9.3672271e+35
1.002527e+36
-1.3894074e+37
-3.2646492e+35
-3.3826177e+35
9.9501354e+35
9.6021e+35
-1.3588782e+37
-3.2562137e+35
-2.8711733e+35
2.3965559e+35
9.1651641e+35
9.8972265e+35
-1.3444099e+37
-3.872619e+35
-3.329943e+35
-3.1583897e+35
3.2944522e+35
9.7401556e+35
9.6450929e+35
-1.3762185e+37
-3.5299067e+35
-3.0596257e+35
2.5261461e+35
9.1377458e+35
9.8322607e+35
-1.3862007e+37
-3.574058e+35
-3.3866505e+35
9.6056191e+35
9.8961448e+35
-1.3650768e+37
-3.4498133e+35
-2.9788866e+35
2.0516359e+36
7.667015e+38
-7.8334465e+38
2.3545205e+37
7.2270986e+38
-7.5274118e+38
1.7143736e+37
-3.2960487e+37
1.77255e+37
1.9972133e+37
6.4207577e+37
-6.5514643e+35
-5.9238083e+37
9.4910004e+35
2.2692805e+37
-2.1277488e+36
2.7572201e+36
2.2170568e+37
-7.1999683e+37
1.3865524e+37
-6.6908004e+37
1.8178057e+37
6.4837529e+37
-2.2919055e+37
-3.4686766e+37
-6.5976931e+37
-1.2467902e+39
-3.4522507e+37
-2.277603e+37
-1.2615034e+39
7.9200003e+37
9.2047252e+37
-5.4863732e+37
-4.3183012e+37
-5.4412889e+37
1.3127007e+37
2.9103529e+37
-7.7492118e+37
-2.2039735e+38
3.2891881e+37
1.8067791e+37
-8.8278973e+37
-2.2494991e+38
-1.221824e+37
1.600903e+37
2.8547975e+37
-2.4560485e+38
2.7822741e+37
-1.2323158e+37
-2.4243762e+38
1.0471276e+37
3.2626615e+37
-8.3868917e+37
-2.2769557e+38
3.6372705e+37
-9.1620326e+37
-2.2740539e+38
-9.5583747e+36
3.2467196e+37
-2.4930885e+38
3.0382435e+37
-2.4918515e+38
9.0849921e+36
9.0311598e+36
-7.8247894e+36
-5.1452747e+37
-4.2188406e+37
-4.2441866e+37
-5.2339672e+37
6.1808245e+36
1.3345312e+37
-5.3771262e+37
-5.1299137e+37
-4.3943587e+37
-4.1656603e+37
1.5671151e+37
-3.4004226e+37
-1.6597974e+37
-2.8585929e+37
-3.3927249e+37
-2.8483699e+37
1.9496492e+37
-3.3861653e+37
-3.6142355e+37
-3.136335e+37
-2.9204241e+37
7.6430596e+36
5.0405522e+36
-5.3322706e+37
-5.3912591e+37
-4.3762805e+37
-4.3732192e+37
6.1138067e+36
-5.5460622e+37
-5.2668323e+37
-4.2830062e+37
-4.5306018e+37
1.0335012e+37
-3.6667985e+37
-3.2730009e+37
-3.6526191e+37
-3.2739227e+37
-3.8209225e+37
-3.5610364e+37
-3.1757513e+37
-3.4591397e+37
-1.4665734e+37
3.4441358e+37
2.0386692e+37
-2.9031649e+38
3.1077948e+37
-1.7110685e+37
-2.8884591e+38
1.4214939e+37
1.7674477e+37
1.9863152e+37
-1.4282124e+37
-2.4942713e+38
-3.3674938e+36
-1.4986041e+36
1.6405468e+37
1.8188004e+37
1.9605333e+37
-2.5015163e+38
-3.5370277e+36
-1.4886057e+36
3.2989852e+37
1.5374771e+37
-2.9322157e+38
1.4220307e+37
1.8180948e+37
2.0542963e+37
-2.5099938e+38
-3.3827232e+36
-1.2724974e+36
-3.6653445e+37
1.9096748e+37
2.0461007e+37
-2.5335178e+38
-3.284123e+36
-1.1987421e+36
-2.9598522e+38
3.1657323e+36
8.9914092e+36
-3.6318754e+36
-4.4440564e+37
9.5491586e+36
4.0271222e+36
-4.4741012e+37
-2.4833775e+36
2.9904161e+36
8.5430376e+36
-4.3071319e+37
8.2727372e+36
-2.6216887e+36
-4.2952077e+37
-9.0420096e+36
1.8127808e+36
8.2680544e+36
-4.3304325e+37
2.4583142e+36
-4.5040638e+37
9.5634944e+36
4.2812371e+36
-4.4882768e+37
8.4520812e+36
3.2040013e+36
-4.294321e+37
1.489376e+36
-2.2763742e+36
3.851382e+36
-8.6576824e+36
-8.1612906e+36
-5.8467621e+36
-6.3222606e+36
2.2976256e+36
-1.621315e+36
-3.3035539e+36
-5.3838177e+36
-5.2520675e+36
-5.7888545e+36
-5.7453273e+36
3.8391598e+36
-5.6200681e+36
-6.1332563e+36
-5.0987922e+36
-5.7213869e+36
-3.4718607e+36
-8.4286799e+36
-8.4269693e+36
-6.1690695e+36
-6.0780785e+36
2.8053511e+36
1.354094e+36
-3.2697641e+36
-8.3318424e+36
-8.3622002e+36
-6.1670062e+36
-6.057311e+36
1.4218102e+36
-8.5995601e+36
-8.1509399e+36
-6.3139966e+36
-5.8784883e+36
2.5585216e+36
-2.9473685e+36
-5.4693359e+36
-5.2792285e+36
-5.8457638e+36
-5.8146934e+36
-5.5485249e+36
-5.0579946e+36
-6.055785e+36
-5.6692651e+36
3.3811023e+36
9.3311903e+36
-4.5311765e+37
9.979866e+36
4.0651815e+36
-4.5749226e+37
2.6872296e+36
8.449785e+36
-4.3284481e+37
3.0935637e+36
8.7410018e+36
-4.3661799e+37
-9.5676687e+36
1.6602359e+36
8.5438431e+36
-4.3793818e+37
2.295243e+36
-4.5981947e+37
1.0131352e+37
-4.6045754e+37
8.7773305e+36
-4.3769896e+37
1.890681e+36
1.7879493e+36
-3.5084081e+36
-6.315879e+36
-8.6974977e+36
-8.7060881e+36
-6.231554e+36
1.4388236e+36
-6.5529728e+36
-8.5216371e+36
-9.0074544e+36
-6.1319945e+36
2.1704164e+36
-3.8227356e+36
-5.6365009e+36
-5.4838603e+36
-5.8955315e+36
-5.966768e+36
-5.5345293e+36
-6.4660061e+36
-6.1014299e+36
-5.9909804e+36
3.038794e+36
2.0706809e+36
-8.5032812e+36
-6.1755115e+36
-6.0771405e+36
-8.5350344e+36
1.801848e+36
-8.8828924e+36
-8.4114784e+36
-6.4377634e+36
-5.9800581e+36
3.2121721e+36
-5.4053152e+36
-5.23238e+36
-5.7344452e+36
-5.6302932e+36
-5.7137237e+36
-5.1752241e+36
-6.1362941e+36
-5.6721164e+36
-2.5152268e+37
1.1578854e+37
-1.3705487e+37
2.2498936e+37
2.0435627e+37
-2.5850499e+38
-6.683594e+36
-4.8382263e+36
2.5721467e+36
1.0277672e+37
-3.3057472e+36
-5.8625654e+37
3.2186379e+36
1.078753e+37
-5.9078768e+37
1.3988172e+37
-2.363328e+38
-1.9289235e+37
2.7921489e+37
-2.4180411e+38
2.0549647e+37
-2.6042994e+38
-6.7922473e+36
1.026666e+37
-5.8906486e+37
1.6224223e+36
4.201967e+36
4.57656e+36
-1.8387769e+36
-1.2779373e+37
-1.2643774e+37
-9.3711642e+36
-9.4743267e+36
1.1645234e+36
9.7507982e+35
1.7544978e+36
4.556144e+36
4.3537747e+36
-1.2660754e+37
-1.3054428e+37
-9.5860709e+36
-9.4048785e+36
9.852606e+35
1.2044518e+36
4.2425273e+36
4.5762971e+36
-1.2834543e+37
-1.2718012e+37
-9.5119747e+36
-9.41701e+36
9.7821812e+35
1.1438696e+36
5.6329446e+35
2.2889058e+36
-6.9710073e+35
-6.7059965e+36
2.3659663e+36
6.7844187e+35
-6.7068853e+36
-5.0126707e+35
5.7455177e+35
1.6411463e+36
-1.7449628e+36
-1.148813e+36
-1.6504886e+36
-1.0673237e+36
1.6253742e+36
-5.8875741e+35
-1.7127986e+36
-1.6825957e+36
-1.1254767e+36
-1.0991461e+36
-2.3165092e+36
3.3164458e+35
1.629198e+36
-1.6976539e+36
-1.720571e+36
-1.1053323e+36
-1.1307814e+36
-4.1295702e+35
2.3957418e+36
6.6987419e+35
-6.7581752e+36
-6.7990427e+36
1.6739394e+36
5.3565584e+35
-1.1652731e+36
-1.770583e+36
-1.6659667e+36
-1.0828401e+36
4.2394762e+35
5.5188742e+35
-4.589879e+35
-1.6270975e+36
-8.7408365e+35
-7.9635886e+35
-1.63468e+36
5.8629847e+35
4.531747e+35
-1.6682e+36
-8.7626758e+35
-7.5828502e+35
-1.5811518e+36
5.2160378e+35
-6.3470998e+35
-1.0651717e+36
-1.1070773e+36
-6.8155168e+35
-7.431483e+35
5.764675e+35
-1.0346094e+36
-1.1263423e+36
-6.5556825e+35
-7.4592582e+35
-6.0164771e+35
3.253199e+35
-1.1191015e+36
-1.0841579e+36
-7.4744633e+35
-7.0392647e+35
2.2666266e+35
-1.6326443e+36
-8.7433028e+35
-8.2279942e+35
-1.6574876e+36
-5.8625388e+35
5.3455321e+35
-7.6700158e+35
-1.1453755e+36
-1.0540483e+36
-6.752202e+35
4.3948436e+35
-9.2196463e+35
-7.8697798e+35
-1.5885683e+36
-1.6973072e+36
5.0282679e+35
2.3108033e+36
-6.7474571e+36
2.3783493e+36
-6.7588132e+36
4.0640234e+35
1.6408289e+36
-1.717153e+36
-1.6843853e+36
-1.1222928e+36
-1.1020206e+36
1.6251221e+36
-1.6645132e+36
-1.7547468e+36
-1.1530246e+36
-1.0808082e+36
-5.5037932e+35
3.8665391e+35
-1.0813098e+36
-1.1109418e+36
-7.4332523e+35
-6.9632364e+35
3.6798721e+35
-1.6173099e+36
-8.6823105e+35
-8.061903e+35
-1.6331683e+36
-6.3174649e+35
3.6204472e+35
-1.0548966e+36
-1.136002e+36
-7.5730258e+35
-6.7819712e+35
3.2204791e+35
-7.8592321e+35
-8.988733e+35
-1.683537e+36
-1.6062125e+36
-6.9390152e+35
-1.0987423e+36
-1.1210198e+36
-7.5824766e+35
-7.3765482e+35
-1.6626875e+36
-8.939981e+35
-8.5710784e+35
-1.6973927e+36
-3.8748453e+37
2.8312538e+37
-4.3911686e+37
-4.5272181e+37
-5.9250659e+37
-5.6320004e+37
-2.1810502e+38
-7.8527e+36
-1.5213436e+35
-2.7235288e+35
7.1212301e+36
-1.2787886e+37
-9.5821824e+36
-9.7577409e+36
-1.3217291e+37
1.1749312e+36
-1.8806461e+36
-4.9144328e+37
-8.608713e+36
1.1250712e+36
7.7696729e+36
-9.8283062e+36
-9.4596404e+36
-1.2583691e+37
-1.3323465e+37
2.5696581e+36
-4.8321898e+37
-7.8322896e+36
-2.8888881e+35
6.9236986e+36
-9.7147745e+36
-9.4150087e+36
-1.3127702e+37
-1.2548254e+37
-1.6345456e+36
-4.8287475e+37
-7.1807036e+36
6.1273155e+36
7.8368857e+35
-9.409385e+36
-9.7178804e+36
-1.2422587e+37
-1.3008377e+37
-4.7443855e+37
-1.1531797e+36
2.0720448e+33
-8.896633e+36
-7.9614761e+35
8.6304611e+36
-9.9117572e+36
-1.0016012e+37
-1.3265903e+37
-1.3615112e+37
-9.3769578e+36
8.5439734e+36
-1.0023902e+37
-9.6479325e+36
-1.3649868e+37
-1.2867695e+37
1.7001174e+36
-2.4442904e+36
-5.0629377e+37
-4.9396197e+37
-8.0673409e+36
1.1471051e+36
7.6201988e+36
-9.7014473e+36
-9.8999325e+36
-1.2876045e+37
-1.3409742e+37
2.124636e+36
-4.927672e+37
-8.7672309e+36
8.3917413e+36
-1.0011635e+37
-1.3602112e+37
-9.6399856e+36
-1.2942689e+37
-5.0084678e+37
1.3516744e+35
-1.8172452e+36
2.0937962e+36
-1.6761506e+34
-2.0991772e+36
-2.0537192e+36
-2.9715527e+36
-3.1060166e+36
-1.8177211e+36
7.8154633e+34
2.0728895e+36
-2.0533982e+36
-2.1030191e+36
-3.1171936e+36
-2.993104e+36
3.4187703e+35
-1.0738565e+37
-4.0933248e+35
3.6132912e+35
-1.0949041e+37
-9.3822541e+34
-1.7111754e+36
1.9969647e+36
-2.0950005e+36
-2.0572531e+36
-3.0046683e+36
-3.1188783e+36
-1.8078123e+36
4.7758819e+34
2.0015953e+36
-2.039093e+36
-2.0952552e+36
-3.1117856e+36
-2.9570381e+36
1.9724297e+35
-1.1010498e+37
4.2416172e+35
-1.0819435e+37
1.6682239e+36
3.3492265e+35
-1.0893112e+37
1.2542791e+35
1.8100696e+36
-2.0863165e+36
-2.0453418e+36
-2.9632198e+36
-3.0861119e+36
-1.7181259e+36
2.7410416e+34
1.8830848e+36
-2.0394663e+36
-2.1001549e+36
-3.1123319e+36
-2.9806965e+36
3.2976909e+35
-1.1067399e+37
-1.4809005e+35
-1.6667866e+36
1.8985785e+36
-2.1194553e+36
-2.0650761e+36
-3.002188e+36
-3.1168619e+36
-1.760303e+36
-2.7251043e+34
1.9148379e+36
-2.0405964e+36
-2.1007523e+36
-3.1030558e+36
-2.9506426e+36
-1.5074671e+35
4.0665208e+35
-1.0798542e+37
-1.1040899e+37
1.2032944e+35
-1.6209204e+36
1.7059531e+36
-2.1124208e+36
-2.0500009e+36
-2.9603183e+36
-3.0927625e+36
-1.6742053e+36
7.046071e+34
1.7570765e+36
-2.0518756e+36
-2.1110342e+36
-3.1226044e+36
-2.9914314e+36
-3.8044692e+35
4.1233265e+35
-1.1082479e+37
-1.0854212e+37
-9.5960299e+34
-1.6304322e+36
1.7577346e+36
-2.1318186e+36
-2.0830401e+36
-3.0253234e+36
-3.1365948e+36
-1.7534272e+36
3.5870454e+34
1.7990902e+36
-2.0569334e+36
-2.1183828e+36
-3.1336119e+36
-2.9795362e+36
-2.0172316e+35
4.106261e+35
-1.0984119e+37
-1.1166468e+37
1.4031953e+35
-1.6437437e+36
1.6637016e+36
-2.138298e+36
-2.0795912e+36
-3.0037867e+36
-3.1356257e+36
-1.7269043e+36
7.8298315e+34
1.7859205e+36
-2.0960097e+36
-2.146858e+36
-3.1698334e+36
-3.0346036e+36
-3.4102494e+35
3.3288804e+35
-1.125019e+37
-1.1067486e+37
-8.0602756e+34
-1.73572e+36
1.8832149e+36
-2.1229008e+36
-3.0730668e+36
-2.1718493e+36
-3.1779013e+36
-1.8492477e+36
1.9677257e+36
-2.1734823e+36
-2.105881e+36
-3.193247e+36
-3.0313532e+36
-1.4495877e+35
-1.1048867e+37
-1.1276852e+37
-3.934947e+34
-3.3719222e+35
1.6256881e+34
7.7191186e+35
-2.6164553e+36
-3.2554472e+35
-3.1165647e+34
7.5782596e+35
-2.598181e+36
4.2792716e+34
-4.337808e+34
-2.5211672e+36
2.0685185e+34
-2.5587413e+36
-2.7673205e+34
-3.4021425e+35
7.9411578e+35
-2.6079328e+36
-3.4392803e+35
2.112425e+34
7.5376854e+35
-2.591186e+36
7.2904497e+33
4.0627781e+34
-2.5027559e+36
-2.5577312e+36
3.3806785e+35
5.131497e+34
-2.4917181e+36
-3.8216828e+34
4.8158827e+34
7.7490914e+35
-2.779717e+34
-2.5931147e+36
-3.4301156e+35
3.1930749e+34
7.7726922e+35
-2.5996776e+36
4.3830333e+34
-2.5394326e+36
7.8347806e+33
-3.4482165e+35
7.5751142e+35
-2.5946365e+36
-3.3526987e+35
7.7575098e+35
-2.6000653e+36
8.015353e+33
-2.5512434e+36
-2.5129568e+36
3.8222743e+34
-3.2616997e+35
7.6032838e+35
-2.5802265e+36
-3.4187219e+35
2.0280406e+34
7.6895724e+35
-2.6003359e+36
4.8159225e+34
-2.4830402e+36
3.0319274e+34
-2.5341736e+36
3.2864395e+35
-5.6626756e+33
-2.5452102e+36
-2.3534079e+34
7.7561259e+35
-2.5935963e+36
-3.4532776e+35
6.3481971e+33
7.6245494e+35
-2.5909911e+36
1.5774382e+34
-2.506721e+36
-1.8115873e+34
-3.528328e+35
-1.5203065e+34
8.015583e+35
-2.6218124e+36
-3.3922125e+35
7.8019539e+35
-2.6041695e+36
2.208021e+34
-2.517452e+36
-3.1897312e+33
-2.5555561e+36
3.8951787e+34
-3.5484084e+35
-2.5893396e+36
-3.4710848e+35
-2.6065294e+36
-1.8526539e+34