/*--------------------------------*- C++ -*----------------------------------*\
  =========                 |
  \\      /  F ield         | OpenFOAM: The Open Source CFD Toolbox
   \\    /   O peration     | Website:  https://openfoam.org
    \\  /    A nd           | Version:  7
     \\/     M anipulation  |
\*---------------------------------------------------------------------------*/
FoamFile
{
    version     2.0;
    format      ascii;
    class       volScalarField;
    location    "7000";
    object      pMean;
}
// * * * * * * * * * * * * * * * * * * * * * * * * * * * * * * * * * * * * * //

dimensions      [0 2 -2 0 0 0 0];

internalField   nonuniform List<scalar> 
33943
(
-3.1174677e+81
-3.1558452e+81
-3.1362176e+81
-3.1191794e+81
-3.136311e+81
-3.1498082e+81
-3.1548266e+81
-3.1303604e+81
-3.1447207e+81
-3.1530535e+81
-3.1251393e+81
-3.1317747e+81
-3.1928772e+81
-3.1967649e+81
-3.2009549e+81
-3.1972794e+81
-2.9833843e+81
-3.0446651e+81
-3.1215659e+81
-3.11755e+81
-3.069277e+81
-3.1859166e+81
-3.1841085e+81
-3.157313e+81
-3.1278297e+81
-3.1768689e+81
-3.1866296e+81
-3.1290848e+81
-3.140276e+81
-3.1471505e+81
-3.1561105e+81
-3.1531608e+81
-3.158272e+81
-3.1753428e+81
-3.1625055e+81
-3.16636e+81
-3.1706157e+81
-3.1829977e+81
-3.1864003e+81
-3.1378017e+81
-3.1372293e+81
-3.1177149e+81
-3.1165524e+81
-3.1842097e+81
-3.1871468e+81
-3.1946125e+81
-3.1904653e+81
-3.190047e+81
-3.1939687e+81
-3.1966206e+81
-3.1974472e+81
-3.2133315e+81
-3.2191114e+81
-3.2116152e+81
-3.2155454e+81
-3.2150615e+81
-3.2166277e+81
-3.2208987e+81
-3.2199421e+81
-2.9872532e+81
-2.9831983e+81
-3.0423561e+81
-2.9854613e+81
-3.0450812e+81
-3.0288781e+81
-2.9854457e+81
-3.0303525e+81
-2.9881284e+81
-3.1244885e+81
-3.0746078e+81
-3.1269566e+81
-3.0768847e+81
-3.1840684e+81
-3.1835683e+81
-3.1809186e+81
-3.1839148e+81
-3.1189133e+81
-3.0847909e+81
-3.1192679e+81
-3.0499038e+81
-3.0479745e+81
-3.0722008e+81
-3.0767622e+81
-3.2194048e+81
-3.2186101e+81
-3.2172341e+81
-3.2194427e+81
-3.1421019e+81
-3.1511602e+81
-3.2047355e+81
-3.190132e+81
-3.1325878e+81
-3.1912622e+81
-3.1908114e+81
-3.1292725e+81
-3.1339985e+81
-3.1368573e+81
-3.141708e+81
-3.1439341e+81
-3.1569489e+81
-3.1545654e+81
-3.167809e+81
-3.1693874e+81
-3.1613951e+81
-3.174011e+81
-3.1773377e+81
-3.1641088e+81
-3.1593549e+81
-3.1620257e+81
-3.179322e+81
-3.1775297e+81
-3.1642744e+81
-3.1693677e+81
-3.1853865e+81
-3.1819123e+81
-3.1743576e+81
-3.1511198e+81
-3.180677e+81
-3.1790064e+81
-3.194041e+81
-3.1949545e+81
-3.1826517e+81
-3.1967537e+81
-3.1872294e+81
-3.1890005e+81
-3.1964608e+81
-3.197994e+81
-3.1902791e+81
-3.1991165e+81
-3.200715e+81
-3.1317002e+81
-3.1800625e+81
-3.180543e+81
-3.1864914e+81
-3.1868288e+81
-3.1828265e+81
-3.1866885e+81
-3.1807171e+81
-3.18669e+81
-3.2014526e+81
-3.203375e+81
-3.2074914e+81
-3.2111257e+81
-3.2047158e+81
-3.2063027e+81
-3.2130967e+81
-3.2121904e+81
-3.2064566e+81
-3.2087662e+81
-3.2123463e+81
-3.2155645e+81
-3.2101144e+81
-3.2117474e+81
-3.2154756e+81
-3.2164981e+81
-3.2253665e+81
-3.2256654e+81
-3.228448e+81
-3.227518e+81
-3.2232271e+81
-3.2249914e+81
-3.2252413e+81
-3.2276845e+81
-3.2258135e+81
-3.2276415e+81
-3.2276386e+81
-3.229692e+81
-3.2302058e+81
-3.2280474e+81
-3.2278995e+81
-3.2286787e+81
-2.9949745e+81
-3.0432512e+81
-2.9855371e+81
-2.9861034e+81
-2.9490512e+81
-2.982568e+81
-2.9804725e+81
-2.9474359e+81
-3.0438352e+81
-2.9862607e+81
-2.9870119e+81
-3.0300333e+81
-3.0293102e+81
-3.0743537e+81
-3.1222764e+81
-3.1254466e+81
-3.0778079e+81
-3.0296329e+81
-2.9878913e+81
-2.9861659e+81
-3.0296503e+81
-3.1239653e+81
-3.1250087e+81
-3.0761913e+81
-3.0754804e+81
-3.0523916e+81
-3.0307971e+81
-3.0303942e+81
-3.0530358e+81
-3.0028809e+81
-3.0027914e+81
-2.9819399e+81
-2.9817959e+81
-3.0528752e+81
-3.0305666e+81
-3.0306192e+81
-3.0528874e+81
-3.002828e+81
-3.0028401e+81
-3.1818077e+81
-3.1518947e+81
-3.1534287e+81
-3.1795078e+81
-3.0874916e+81
-3.1154586e+81
-3.0869744e+81
-3.1163786e+81
-3.1535058e+81
-3.1818307e+81
-3.1810959e+81
-3.1537245e+81
-3.1165861e+81
-3.0876312e+81
-3.1166789e+81
-3.0878998e+81
-3.2168292e+81
-3.2154696e+81
-3.2164867e+81
-3.2169889e+81
-3.2143587e+81
-3.1780933e+81
-3.21277e+81
-3.2146503e+81
-3.2153862e+81
-3.179338e+81
-3.1266411e+81
-3.0608617e+81
-3.0904664e+81
-3.0866275e+81
-3.0582105e+81
-3.180066e+81
-3.1808387e+81
-3.0386515e+81
-3.037015e+81
-3.0773093e+81
-3.0809915e+81
-3.2314714e+81
-3.2322412e+81
-3.232078e+81
-3.2312269e+81
-3.2296296e+81
-3.2310401e+81
-3.2313554e+81
-3.2309124e+81
-3.1422996e+81
-3.1505929e+81
-3.2035218e+81
-3.1956346e+81
-3.1337193e+81
-3.1943816e+81
-3.1937538e+81
-3.1318887e+81
-3.1056697e+81
-3.1078311e+81
-3.0694609e+81
-3.1522341e+81
-3.1506557e+81
-3.1626549e+81
-3.1638876e+81
-3.1523348e+81
-3.1544611e+81
-3.1671944e+81
-3.1638847e+81
-3.1558575e+81
-3.1553282e+81
-3.1751084e+81
-3.1741883e+81
-3.1548571e+81
-3.1599144e+81
-3.1742981e+81
-3.1783769e+81
-3.1487999e+81
-3.1464692e+81
-3.1677621e+81
-3.1695566e+81
-3.1497996e+81
-3.1719302e+81
-3.1736094e+81
-3.1513561e+81
-3.1706669e+81
-3.1717171e+81
-3.1862809e+81
-3.1858125e+81
-3.1878649e+81
-3.1737841e+81
-3.1747874e+81
-3.1895925e+81
-3.1838532e+81
-3.1899005e+81
-3.1920154e+81
-3.1815016e+81
-3.179712e+81
-3.1807412e+81
-3.1886315e+81
-3.1892883e+81
-3.1755912e+81
-3.1774267e+81
-3.1902333e+81
-3.1912161e+81
-3.193056e+81
-3.1792264e+81
-3.1799522e+81
-3.1945748e+81
-3.1858586e+81
-3.1878958e+81
-3.1947104e+81
-3.1966005e+81
-3.1836857e+81
-3.1851753e+81
-3.1921854e+81
-3.1938255e+81
-3.1701573e+81
-3.1937653e+81
-3.1955643e+81
-3.1241122e+81
-3.1259181e+81
-3.1701728e+81
-3.1961931e+81
-3.2101651e+81
-3.2112117e+81
-3.2122073e+81
-3.2013885e+81
-3.2023727e+81
-3.204813e+81
-3.2042095e+81
-3.2054923e+81
-3.2036227e+81
-3.2029729e+81
-3.2066817e+81
-3.2181823e+81
-3.2203912e+81
-3.211504e+81
-3.212637e+81
-3.2132862e+81
-3.2207578e+81
-3.2140555e+81
-3.2206896e+81
-3.2037371e+81
-3.2044998e+81
-3.2065388e+81
-3.2071971e+81
-3.2140679e+81
-3.2210703e+81
-3.2149142e+81
-3.2226624e+81
-3.2151374e+81
-3.2226906e+81
-3.1838023e+81
-3.1884319e+81
-3.1990184e+81
-3.2062427e+81
-3.1985101e+81
-3.203382e+81
-3.1984801e+81
-3.2062022e+81
-3.1985609e+81
-3.2042367e+81
-3.2003273e+81
-3.2004253e+81
-3.2054941e+81
-3.2041772e+81
-3.1989888e+81
-3.2034762e+81
-3.2003244e+81
-3.2056799e+81
-3.2131568e+81
-3.214911e+81
-3.2162768e+81
-3.2189481e+81
-3.2159191e+81
-3.2160327e+81
-3.2197544e+81
-3.2186943e+81
-3.219308e+81
-3.2161861e+81
-3.2177124e+81
-3.221448e+81
-3.2181897e+81
-3.2180944e+81
-3.2208754e+81
-3.2221833e+81
-3.217551e+81
-3.2192494e+81
-3.2232258e+81
-3.2209215e+81
-3.2201887e+81
-3.220667e+81
-3.2234436e+81
-3.224354e+81
-3.2208363e+81
-3.2228824e+81
-3.2260644e+81
-3.2237781e+81
-3.2234999e+81
-3.2235186e+81
-3.2251927e+81
-3.2266651e+81
-3.2249386e+81
-3.2247897e+81
-3.2316406e+81
-3.2327707e+81
-3.2262682e+81
-3.2249647e+81
-3.2320284e+81
-3.2332182e+81
-3.2300381e+81
-3.2239174e+81
-3.2237788e+81
-3.2316578e+81
-3.2240534e+81
-3.2246874e+81
-3.2324706e+81
-3.2315933e+81
-3.2256843e+81
-3.2256867e+81
-3.2322929e+81
-3.2338971e+81
-3.2344622e+81
-3.226895e+81
-3.2264447e+81
-3.2335898e+81
-3.2276654e+81
-3.2270425e+81
-3.2332983e+81
-3.2345358e+81
-3.227464e+81
-3.22776e+81
-3.2343786e+81
-3.2330333e+81
-2.9922275e+81
-2.9534986e+81
-2.952894e+81
-2.9872308e+81
-2.989581e+81
-3.0500107e+81
-3.1227346e+81
-3.1215264e+81
-3.0760732e+81
-3.0764136e+81
-2.988349e+81
-3.0317217e+81
-2.9903315e+81
-3.0317106e+81
-2.9872048e+81
-3.0304804e+81
-2.9888891e+81
-3.0304722e+81
-2.9331622e+81
-2.984922e+81
-2.9827919e+81
-2.9308131e+81
-3.0761559e+81
-3.1234987e+81
-3.1232625e+81
-3.0767124e+81
-2.9836258e+81
-2.9835248e+81
-3.0040185e+81
-3.0047488e+81
-2.9833431e+81
-2.9830629e+81
-3.0048161e+81
-3.0040649e+81
-3.055077e+81
-3.0328967e+81
-3.0324621e+81
-3.0546414e+81
-3.0320726e+81
-3.0310364e+81
-3.0533303e+81
-3.0544219e+81
-3.0875633e+81
-3.0883342e+81
-3.1162754e+81
-3.1149511e+81
-3.1764188e+81
-3.1521908e+81
-3.1504866e+81
-3.1786034e+81
-3.1794369e+81
-3.1525489e+81
-3.1532126e+81
-3.1781808e+81
-3.1171946e+81
-3.0889413e+81
-3.0890725e+81
-3.1165069e+81
-3.0306237e+81
-3.0308909e+81
-3.0527511e+81
-3.0523961e+81
-3.0028657e+81
-3.0033317e+81
-2.9829921e+81
-2.9820769e+81
-3.0036813e+81
-2.9829248e+81
-2.983143e+81
-3.003369e+81
-3.0540642e+81
-3.0310618e+81
-3.0315059e+81
-3.0535084e+81
-3.1518663e+81
-3.1526528e+81
-3.179979e+81
-3.1788191e+81
-3.1531567e+81
-3.152831e+81
-3.178829e+81
-3.1801769e+81
-3.1165613e+81
-3.0886438e+81
-3.088194e+81
-3.1164213e+81
-3.1158507e+81
-3.0873068e+81
-3.0871064e+81
-3.1151954e+81
-3.0541882e+81
-3.0647398e+81
-3.0543152e+81
-3.064912e+81
-3.0276508e+81
-3.0276692e+81
-3.036982e+81
-3.0368919e+81
-3.0277416e+81
-3.0369825e+81
-3.0276649e+81
-3.0369551e+81
-3.0542898e+81
-3.0649609e+81
-3.05428e+81
-3.0647949e+81
-2.9999613e+81
-3.009068e+81
-3.0000192e+81
-3.0090077e+81
-3.0000909e+81
-3.0091788e+81
-3.0000101e+81
-3.0090805e+81
-2.9844226e+81
-2.9841441e+81
-2.9760961e+81
-2.9757291e+81
-2.9840489e+81
-2.9840938e+81
-2.9756906e+81
-2.9755739e+81
-3.054365e+81
-3.0542978e+81
-3.0648756e+81
-3.0649224e+81
-3.0275735e+81
-3.0369831e+81
-3.0370311e+81
-3.0277647e+81
-3.0370644e+81
-3.0274982e+81
-3.0368819e+81
-3.0543725e+81
-3.0543993e+81
-3.0651644e+81
-3.0652861e+81
-2.9999323e+81
-3.0090042e+81
-3.0001687e+81
-3.0091697e+81
-2.9999587e+81
-3.0089196e+81
-3.2004022e+81
-3.2001067e+81
-3.2098487e+81
-3.2089763e+81
-3.1619695e+81
-3.1613947e+81
-3.1777999e+81
-3.1787904e+81
-3.1622052e+81
-3.1621114e+81
-3.1792092e+81
-3.178683e+81
-3.1999623e+81
-3.1987311e+81
-3.2077912e+81
-3.2095094e+81
-3.0858869e+81
-3.0986228e+81
-3.085858e+81
-3.0983908e+81
-3.1198002e+81
-3.1193022e+81
-3.1358735e+81
-3.1366102e+81
-3.0857058e+81
-3.0981948e+81
-3.085863e+81
-3.0985497e+81
-3.1198803e+81
-3.119809e+81
-3.1367652e+81
-3.13644e+81
-3.1622809e+81
-3.1624507e+81
-3.1789512e+81
-3.1794232e+81
-3.2002434e+81
-3.200782e+81
-3.2094182e+81
-3.21042e+81
-3.2007311e+81
-3.2002088e+81
-3.2103879e+81
-3.2092457e+81
-3.1625545e+81
-3.1624873e+81
-3.1795666e+81
-3.1790601e+81
-3.120384e+81
-3.1203707e+81
-3.1371562e+81
-3.1369276e+81
-3.0859642e+81
-3.0986104e+81
-3.0860104e+81
-3.0988222e+81
-3.1199489e+81
-3.1202251e+81
-3.1366507e+81
-3.1370039e+81
-3.0862035e+81
-3.0990523e+81
-3.0863691e+81
-3.099033e+81
-3.2287173e+81
-3.2279102e+81
-3.2269033e+81
-3.22813e+81
-3.2298248e+81
-3.229019e+81
-3.2284505e+81
-3.2294971e+81
-3.2256331e+81
-3.2249123e+81
-3.2100251e+81
-3.2098064e+81
-3.2236607e+81
-3.225209e+81
-3.2270822e+81
-3.2262971e+81
-3.2256041e+81
-3.2265804e+81
-3.2091576e+81
-3.2101884e+81
-3.182621e+81
-3.047729e+81
-3.0940537e+81
-3.0911549e+81
-3.0455906e+81
-3.2112028e+81
-3.2092449e+81
-3.2118115e+81
-3.2114769e+81
-3.0394384e+81
-3.0372552e+81
-3.0788844e+81
-3.0821645e+81
-3.2363703e+81
-3.2375141e+81
-3.2370285e+81
-3.2375825e+81
-3.2377046e+81
-3.2369103e+81
-3.2375603e+81
-3.2367519e+81
-3.2343646e+81
-3.2355151e+81
-3.2360256e+81
-3.2354857e+81
-3.2357767e+81
-3.236583e+81
-3.2367341e+81
-3.2358838e+81
-3.1435981e+81
-3.1520834e+81
-3.2078784e+81
-3.2006472e+81
-3.133927e+81
-3.1946394e+81
-3.1940582e+81
-3.1320916e+81
-3.1059262e+81
-3.1062192e+81
-3.0675157e+81
-3.0683484e+81
-3.1038735e+81
-3.1010306e+81
-3.1663912e+81
-3.1457191e+81
-3.1438254e+81
-3.1646863e+81
-3.1658558e+81
-3.1457411e+81
-3.1466443e+81
-3.1671144e+81
-3.1659289e+81
-3.1600249e+81
-3.1688805e+81
-3.1841179e+81
-3.1831898e+81
-3.1685926e+81
-3.168927e+81
-3.1686166e+81
-3.1830938e+81
-3.183553e+81
-3.1773864e+81
-3.1784109e+81
-3.1868007e+81
-3.1776297e+81
-3.1863874e+81
-3.1777427e+81
-3.1766921e+81
-3.1861661e+81
-3.1865237e+81
-3.1685903e+81
-3.1698711e+81
-3.183708e+81
-3.1833762e+81
-3.170642e+81
-3.1710638e+81
-3.1859891e+81
-3.1845981e+81
-3.176977e+81
-3.1864371e+81
-3.178049e+81
-3.1875971e+81
-3.1779752e+81
-3.1802088e+81
-3.1890036e+81
-3.1872189e+81
-3.122624e+81
-3.1206302e+81
-3.1647663e+81
-3.1866008e+81
-3.1877155e+81
-3.1656132e+81
-3.1889078e+81
-3.1894503e+81
-3.1225638e+81
-3.1670263e+81
-3.1904045e+81
-3.1923292e+81
-3.1687444e+81
-3.1931201e+81
-3.1937536e+81
-3.1241617e+81
-3.2027787e+81
-3.2020838e+81
-3.2038109e+81
-3.2049099e+81
-3.1959794e+81
-3.1966615e+81
-3.1998192e+81
-3.1985771e+81
-3.2036785e+81
-3.2045611e+81
-3.2108233e+81
-3.2119879e+81
-3.2051947e+81
-3.2125127e+81
-3.2059433e+81
-3.2121443e+81
-3.1954987e+81
-3.1946664e+81
-3.1973879e+81
-3.1979784e+81
-3.1928918e+81
-3.1935708e+81
-3.1960925e+81
-3.1963687e+81
-3.194036e+81
-3.1945476e+81
-3.1966154e+81
-3.1976507e+81
-3.2021579e+81
-3.2029072e+81
-3.208585e+81
-3.2104998e+81
-3.2033396e+81
-3.2039283e+81
-3.2110346e+81
-3.2110272e+81
-3.2057773e+81
-3.2070029e+81
-3.2084431e+81
-3.2095591e+81
-3.2021781e+81
-3.1995476e+81
-3.2005263e+81
-3.2029772e+81
-3.2033311e+81
-3.2016078e+81
-3.2009157e+81
-3.2046868e+81
-3.2089002e+81
-3.2102726e+81
-3.2178814e+81
-3.2153351e+81
-3.2116268e+81
-3.2180708e+81
-3.2183357e+81
-3.2106975e+81
-3.1966862e+81
-3.1996435e+81
-3.2001361e+81
-3.1976188e+81
-3.1984373e+81
-3.1992537e+81
-3.2007953e+81
-3.2022023e+81
-3.2057826e+81
-3.2068704e+81
-3.2119152e+81
-3.2138233e+81
-3.2076199e+81
-3.2087156e+81
-3.2145194e+81
-3.2149456e+81
-3.1944804e+81
-3.1926761e+81
-3.148261e+81
-3.199269e+81
-3.2007066e+81
-3.1948558e+81
-3.1494148e+81
-3.2012274e+81
-3.2181135e+81
-3.2162261e+81
-3.2292839e+81
-3.228678e+81
-3.2192619e+81
-3.2185072e+81
-3.2175886e+81
-3.2185096e+81
-3.2298132e+81
-3.2300082e+81
-3.2197079e+81
-3.2201978e+81
-3.2198143e+81
-3.2181076e+81
-3.230371e+81
-3.23098e+81
-3.2204148e+81
-3.2209229e+81
-3.2157157e+81
-3.2182237e+81
-3.215536e+81
-3.2184403e+81
-3.2151324e+81
-3.2145185e+81
-3.2174064e+81
-3.2177318e+81
-3.2157885e+81
-3.2164108e+81
-3.2190756e+81
-3.2187066e+81
-3.2194102e+81
-3.216803e+81
-3.2167045e+81
-3.2196807e+81
-3.2064413e+81
-3.2110722e+81
-3.2111918e+81
-3.2060541e+81
-3.2073616e+81
-3.212101e+81
-3.2119068e+81
-3.2067828e+81
-3.2153652e+81
-3.2147793e+81
-3.2131264e+81
-3.2125387e+81
-3.2163293e+81
-3.2158131e+81
-3.2140739e+81
-3.2135773e+81
-3.2164023e+81
-3.216876e+81
-3.2142999e+81
-3.2151568e+81
-3.2077638e+81
-3.2128712e+81
-3.2135513e+81
-3.2077021e+81
-3.2151538e+81
-3.2167612e+81
-3.2173635e+81
-3.2154984e+81
-3.2143181e+81
-3.2135305e+81
-3.2079033e+81
-3.2090365e+81
-3.2173421e+81
-3.2167264e+81
-3.2197289e+81
-3.2200858e+81
-3.2176849e+81
-3.2178691e+81
-3.2205548e+81
-3.2207497e+81
-3.2179259e+81
-3.2174157e+81
-3.2154097e+81
-3.2160948e+81
-3.2086996e+81
-3.2139206e+81
-3.2143558e+81
-3.2085061e+81
-3.2186886e+81
-3.2182106e+81
-3.216566e+81
-3.2170707e+81
-3.2151719e+81
-3.2152174e+81
-3.2099515e+81
-3.2096052e+81
-3.2190598e+81
-3.2187269e+81
-3.2171387e+81
-3.2179814e+81
-3.2104155e+81
-3.2157374e+81
-3.2168431e+81
-3.2109961e+81
-3.1990819e+81
-3.2009158e+81
-3.2072418e+81
-3.2034437e+81
-3.2146008e+81
-3.2111276e+81
-3.2120347e+81
-3.215808e+81
-3.2118841e+81
-3.2110259e+81
-3.2136832e+81
-3.2156333e+81
-3.2113241e+81
-3.2107227e+81
-3.2159836e+81
-3.2141519e+81
-3.2113942e+81
-3.2110102e+81
-3.2143187e+81
-3.2160847e+81
-3.2133572e+81
-3.2153103e+81
-3.2154277e+81
-3.2171768e+81
-3.2145213e+81
-3.2133515e+81
-3.2168482e+81
-3.2149616e+81
-3.211448e+81
-3.2126441e+81
-3.2142234e+81
-3.2159517e+81
-3.2131884e+81
-3.2161516e+81
-3.2132295e+81
-3.2148316e+81
-3.213899e+81
-3.2142156e+81
-3.2217299e+81
-3.2232575e+81
-3.2136409e+81
-3.2150144e+81
-3.2239228e+81
-3.2229889e+81
-3.2159911e+81
-3.2154764e+81
-3.2236488e+81
-3.2250262e+81
-3.2153388e+81
-3.2167516e+81
-3.2252464e+81
-3.2239603e+81
-3.2171382e+81
-3.2169871e+81
-3.2245606e+81
-3.2260337e+81
-3.217878e+81
-3.2186192e+81
-3.2266126e+81
-3.2257514e+81
-3.2186169e+81
-3.2180974e+81
-3.2258554e+81
-3.2272346e+81
-3.2182843e+81
-3.2194839e+81
-3.2272023e+81
-3.2258001e+81
-3.2184675e+81
-3.2190999e+81
-3.2260047e+81
-3.2275042e+81
-3.2191468e+81
-3.2200082e+81
-3.2282863e+81
-3.2273855e+81
-3.2205072e+81
-3.2205145e+81
-3.2279685e+81
-3.2292744e+81
-3.2206003e+81
-3.2215279e+81
-3.2294257e+81
-3.2282267e+81
-3.2211969e+81
-3.2215399e+81
-3.2285018e+81
-3.2300013e+81
-3.221645e+81
-3.2218289e+81
-3.2305338e+81
-3.2297843e+81
-3.2226644e+81
-3.2299425e+81
-3.2232522e+81
-3.2312443e+81
-3.2234525e+81
-3.2226403e+81
-3.2311672e+81
-3.2297459e+81
-3.2359886e+81
-3.2354677e+81
-3.2362567e+81
-3.2356829e+81
-3.2341242e+81
-3.2346861e+81
-3.2351772e+81
-3.2352602e+81
-3.2361094e+81
-3.2367266e+81
-3.2369877e+81
-3.2368945e+81
-3.2374259e+81
-3.2369564e+81
-3.2371718e+81
-3.2374253e+81
-2.9909209e+81
-3.0338596e+81
-2.9358436e+81
-2.9356997e+81
-2.9887835e+81
-2.9901796e+81
-3.0787699e+81
-3.1254333e+81
-3.1505557e+81
-3.149842e+81
-3.1736214e+81
-3.1750777e+81
-3.1498284e+81
-3.1499915e+81
-3.1742028e+81
-3.1748147e+81
-3.114625e+81
-3.0876132e+81
-3.1144336e+81
-3.0875328e+81
-3.1149045e+81
-3.0879986e+81
-3.0885467e+81
-3.1149611e+81
-2.9853532e+81
-3.0063071e+81
-2.9856893e+81
-3.0059946e+81
-3.0320276e+81
-3.0326409e+81
-3.0541327e+81
-3.0535335e+81
-3.0047353e+81
-3.0055575e+81
-2.9854359e+81
-2.984289e+81
-3.0332076e+81
-3.0333675e+81
-3.0553632e+81
-3.0550284e+81
-2.9840333e+81
-2.9841216e+81
-3.0044441e+81
-3.0043684e+81
-3.0315112e+81
-3.0315063e+81
-3.0530488e+81
-3.053089e+81
-2.9840262e+81
-3.0040351e+81
-3.0043662e+81
-2.9834417e+81
-3.0537577e+81
-3.0316368e+81
-3.0535889e+81
-3.0315941e+81
-2.8127219e+81
-2.8089385e+81
-2.8655705e+81
-2.8652132e+81
-2.9325892e+81
-2.9854641e+81
-2.9834972e+81
-2.9305648e+81
-3.1162466e+81
-3.0895188e+81
-3.0890652e+81
-3.1164038e+81
-3.1497726e+81
-3.1509979e+81
-3.1759279e+81
-3.1737183e+81
-3.1515287e+81
-3.1518491e+81
-3.1759521e+81
-3.1767826e+81
-3.087729e+81
-3.088169e+81
-3.1157181e+81
-3.1145832e+81
-2.9859763e+81
-2.9863395e+81
-2.9784304e+81
-2.9779723e+81
-2.9857592e+81
-2.9857204e+81
-2.9778847e+81
-2.9778709e+81
-3.0015576e+81
-3.0106114e+81
-3.0017481e+81
-3.0107609e+81
-3.0019465e+81
-3.0110144e+81
-3.0023795e+81
-3.0113918e+81
-2.986774e+81
-2.9864934e+81
-2.9782962e+81
-2.9787781e+81
-2.9862853e+81
-2.9861483e+81
-2.9781478e+81
-2.978132e+81
-3.0028354e+81
-3.0120858e+81
-3.0028921e+81
-3.0120379e+81
-3.0026676e+81
-3.0119511e+81
-3.0024579e+81
-3.0116645e+81
-3.0565897e+81
-3.0672062e+81
-3.0565897e+81
-3.0672755e+81
-3.030242e+81
-3.030138e+81
-3.0393798e+81
-3.0394311e+81
-3.0300666e+81
-3.0299722e+81
-3.0393807e+81
-3.0391759e+81
-3.0565285e+81
-3.0563594e+81
-3.0673438e+81
-3.0671445e+81
-3.029431e+81
-3.0387302e+81
-3.0388929e+81
-3.0297336e+81
-3.0290159e+81
-3.0382418e+81
-3.0291241e+81
-3.0384456e+81
-3.0554329e+81
-3.0660906e+81
-3.0664849e+81
-3.0557995e+81
-3.0560126e+81
-3.0666459e+81
-3.0562045e+81
-3.0667613e+81
-3.0867468e+81
-3.0988262e+81
-3.087113e+81
-3.099438e+81
-3.0872801e+81
-3.0996346e+81
-3.0874269e+81
-3.0995708e+81
-3.1203917e+81
-3.1367732e+81
-3.1204581e+81
-3.136597e+81
-3.1193889e+81
-3.1354835e+81
-3.1201234e+81
-3.1365054e+81
-3.1953158e+81
-3.2026341e+81
-3.1967415e+81
-3.2045741e+81
-3.1614097e+81
-3.1771748e+81
-3.1614384e+81
-3.1766201e+81
-3.1601442e+81
-3.175466e+81
-3.1610287e+81
-3.1768082e+81
-3.1969864e+81
-3.204843e+81
-3.196666e+81
-3.2038774e+81
-3.1970942e+81
-3.2043408e+81
-3.1978326e+81
-3.2055848e+81
-3.162207e+81
-3.1620572e+81
-3.1780097e+81
-3.1774842e+81
-3.1620173e+81
-3.1772235e+81
-3.1622875e+81
-3.1779624e+81
-3.1978697e+81
-3.2060395e+81
-3.1974292e+81
-3.2050179e+81
-3.1208734e+81
-3.1370951e+81
-3.1211482e+81
-3.1375124e+81
-3.08795e+81
-3.1003779e+81
-3.087923e+81
-3.100179e+81
-3.0878617e+81
-3.1000775e+81
-3.0879244e+81
-3.1003154e+81
-3.1211154e+81
-3.1209756e+81
-3.1375426e+81
-3.1371642e+81
-3.027749e+81
-3.0277935e+81
-3.0369363e+81
-3.0369549e+81
-3.0281714e+81
-3.0373124e+81
-3.0278554e+81
-3.0369898e+81
-3.05461e+81
-3.0650988e+81
-3.0543878e+81
-3.0648382e+81
-3.0542743e+81
-3.0647742e+81
-3.0542259e+81
-3.0647096e+81
-3.00032e+81
-3.0091449e+81
-3.0002947e+81
-3.009183e+81
-3.0007681e+81
-3.0095736e+81
-3.0005167e+81
-3.0092329e+81
-2.9851224e+81
-2.9846925e+81
-2.9769068e+81
-2.9765349e+81
-2.9844341e+81
-2.9844893e+81
-2.9761866e+81
-2.9762547e+81
-3.0018481e+81
-3.010968e+81
-3.0013968e+81
-3.010457e+81
-2.9852771e+81
-2.9852331e+81
-2.9770988e+81
-2.9771598e+81
-2.9858559e+81
-2.9854264e+81
-2.9774961e+81
-2.9780126e+81
-3.0010133e+81
-3.0101698e+81
-3.0008863e+81
-3.0097415e+81
-3.0560933e+81
-3.0668842e+81
-3.0558067e+81
-3.0665543e+81
-3.0287182e+81
-3.0380776e+81
-3.0283608e+81
-3.0375348e+81
-3.0295278e+81
-3.0388381e+81
-3.0290768e+81
-3.0384286e+81
-3.0554231e+81
-3.0661542e+81
-3.0549632e+81
-3.0655183e+81
-3.1614997e+81
-3.1612806e+81
-3.1782441e+81
-3.1776511e+81
-3.1617257e+81
-3.1617922e+81
-3.1777203e+81
-3.1783034e+81
-3.1984175e+81
-3.2068206e+81
-3.1991647e+81
-3.2080989e+81
-3.1991122e+81
-3.2083237e+81
-3.1985923e+81
-3.2072075e+81
-3.1623162e+81
-3.1619046e+81
-3.178494e+81
-3.1777756e+81
-3.1621805e+81
-3.1776308e+81
-3.1624241e+81
-3.1784107e+81
-3.1975632e+81
-3.2055568e+81
-3.1985954e+81
-3.2070898e+81
-3.1987771e+81
-3.1983758e+81
-3.2074667e+81
-3.2064518e+81
-3.1208874e+81
-3.1371653e+81
-3.1209872e+81
-3.1375071e+81
-3.0877595e+81
-3.0874784e+81
-3.100066e+81
-3.0999936e+81
-3.087061e+81
-3.0866104e+81
-3.0996098e+81
-3.0989703e+81
-3.1206255e+81
-3.1201681e+81
-3.1372817e+81
-3.1365892e+81
-3.119897e+81
-3.1198668e+81
-3.1363042e+81
-3.1364374e+81
-3.0862095e+81
-3.0859507e+81
-3.0986733e+81
-3.0985015e+81
-3.0857556e+81
-3.0857695e+81
-3.0983613e+81
-3.0981584e+81
-3.119578e+81
-3.1193719e+81
-3.1362524e+81
-3.1358019e+81
-3.0555147e+81
-3.0506417e+81
-3.0555238e+81
-3.0507041e+81
-3.0648097e+81
-3.0699319e+81
-3.070062e+81
-3.0648994e+81
-3.0506782e+81
-3.055523e+81
-3.0506744e+81
-3.0555466e+81
-3.0649049e+81
-3.0700597e+81
-3.0648956e+81
-3.069967e+81
-3.0242455e+81
-3.0281011e+81
-3.0280259e+81
-3.0241915e+81
-3.0242283e+81
-3.0242162e+81
-3.0281172e+81
-3.0281378e+81
-3.040934e+81
-3.0370368e+81
-3.0409674e+81
-3.037038e+81
-3.0370358e+81
-3.0409893e+81
-3.0370357e+81
-3.0410007e+81
-3.0280984e+81
-3.0242719e+81
-3.028159e+81
-3.0242627e+81
-3.0369968e+81
-3.040955e+81
-3.041008e+81
-3.0370394e+81
-3.0280452e+81
-3.0242443e+81
-3.0280944e+81
-3.02425e+81
-3.0370091e+81
-3.040951e+81
-3.0370071e+81
-3.0409305e+81
-3.0507349e+81
-3.0556337e+81
-3.0556235e+81
-3.0506959e+81
-3.0700775e+81
-3.0649993e+81
-3.0649816e+81
-3.0701094e+81
-3.0507437e+81
-3.0507553e+81
-3.0556907e+81
-3.0556549e+81
-3.0701386e+81
-3.0649679e+81
-3.0700575e+81
-3.0650027e+81
-2.9998853e+81
-2.9997793e+81
-3.0022231e+81
-3.0021294e+81
-3.0111482e+81
-3.014331e+81
-3.0142469e+81
-3.0112233e+81
-2.9997074e+81
-2.9996509e+81
-3.0022073e+81
-3.0021976e+81
-3.0111297e+81
-3.0111256e+81
-3.014292e+81
-3.0143046e+81
-3.0022703e+81
-2.9999547e+81
-3.0023399e+81
-2.9999734e+81
-3.0112544e+81
-3.0144061e+81
-3.0143744e+81
-3.0112755e+81
-3.0021175e+81
-2.9998708e+81
-3.0022421e+81
-2.9998031e+81
-3.0112214e+81
-3.0143492e+81
-3.0111645e+81
-3.0143452e+81
-2.9905216e+81
-2.9909024e+81
-2.9909975e+81
-2.9910912e+81
-2.9909424e+81
-2.9907623e+81
-2.9908131e+81
-2.9905657e+81
-2.9749673e+81
-2.974761e+81
-2.9905849e+81
-2.9905713e+81
-2.9908801e+81
-2.9908077e+81
-2.9907121e+81
-2.9905724e+81
-2.9904107e+81
-2.9900764e+81
-2.9745004e+81
-2.9746513e+81
-3.0508514e+81
-3.0557888e+81
-3.0557215e+81
-3.0508411e+81
-3.0508768e+81
-3.0508217e+81
-3.0557671e+81
-3.0557982e+81
-3.0703208e+81
-3.0650585e+81
-3.0702371e+81
-3.0650861e+81
-3.0651533e+81
-3.0703079e+81
-3.0651095e+81
-3.0703421e+81
-3.0242447e+81
-3.0281907e+81
-3.0281368e+81
-3.0242392e+81
-3.0411242e+81
-3.0370966e+81
-3.0411175e+81
-3.0371297e+81
-3.0371832e+81
-3.0412315e+81
-3.037084e+81
-3.0411285e+81
-3.0281757e+81
-3.0243097e+81
-3.0283138e+81
-3.0242092e+81
-3.0371111e+81
-3.0411692e+81
-3.0411585e+81
-3.0370711e+81
-3.0282139e+81
-3.0242187e+81
-3.0282002e+81
-3.0242903e+81
-3.0370661e+81
-3.0411256e+81
-3.0371183e+81
-3.0411566e+81
-3.0508675e+81
-3.0558333e+81
-3.0558877e+81
-3.0508852e+81
-3.0508988e+81
-3.0559458e+81
-3.0510222e+81
-3.0560427e+81
-3.0704718e+81
-3.0651962e+81
-3.0703736e+81
-3.0652885e+81
-3.0653662e+81
-3.0653007e+81
-3.0705359e+81
-3.0705626e+81
-2.9997062e+81
-2.9996683e+81
-3.0022436e+81
-3.0021641e+81
-3.0111143e+81
-3.014381e+81
-3.0143286e+81
-3.0111621e+81
-3.0022148e+81
-2.9997214e+81
-3.002388e+81
-2.9996156e+81
-3.0111766e+81
-3.0144942e+81
-3.0143766e+81
-3.0110803e+81
-3.0022162e+81
-2.9995661e+81
-3.0022295e+81
-2.9996186e+81
-3.0110547e+81
-3.0143839e+81
-3.0110865e+81
-3.0144502e+81
-3.2161551e+81
-3.2081368e+81
-3.2155878e+81
-3.2084653e+81
-3.2084617e+81
-3.216162e+81
-3.2155775e+81
-3.2082176e+81
-3.2240439e+81
-3.2250009e+81
-3.224583e+81
-3.2257866e+81
-3.2259423e+81
-3.2250425e+81
-3.224501e+81
-3.2240372e+81
-3.1719099e+81
-3.1616345e+81
-3.1721102e+81
-3.1616897e+81
-3.1615562e+81
-3.1612401e+81
-3.171471e+81
-3.1720002e+81
-3.1844487e+81
-3.1838791e+81
-3.1937095e+81
-3.1944993e+81
-3.1947382e+81
-3.1944833e+81
-3.1845888e+81
-3.1844878e+81
-3.1725336e+81
-3.1618549e+81
-3.1721819e+81
-3.1620627e+81
-3.1620734e+81
-3.1725601e+81
-3.1722417e+81
-3.1620138e+81
-3.184799e+81
-3.1948478e+81
-3.1851337e+81
-3.1952575e+81
-3.1952688e+81
-3.194816e+81
-3.185094e+81
-3.184833e+81
-3.2152453e+81
-3.2078328e+81
-3.215671e+81
-3.2077451e+81
-3.2075288e+81
-3.2068876e+81
-3.2143897e+81
-3.215315e+81
-3.2238429e+81
-3.2237419e+81
-3.2228804e+81
-3.2249575e+81
-3.2252414e+81
-3.2246583e+81
-3.2239931e+81
-3.2237838e+81
-3.0868438e+81
-3.0809461e+81
-3.0868191e+81
-3.0809743e+81
-3.0969125e+81
-3.1033836e+81
-3.1034649e+81
-3.0969811e+81
-3.0868531e+81
-3.0809864e+81
-3.0869018e+81
-3.0809711e+81
-3.096978e+81
-3.1035024e+81
-3.1034275e+81
-3.0969695e+81
-3.1156969e+81
-3.1250982e+81
-3.115681e+81
-3.1251272e+81
-3.1156395e+81
-3.1154613e+81
-3.1248269e+81
-3.1250388e+81
-3.1373879e+81
-3.1370639e+81
-3.1468966e+81
-3.1473198e+81
-3.1474078e+81
-3.1473985e+81
-3.1374889e+81
-3.1375729e+81
-3.0808798e+81
-3.080768e+81
-3.0866459e+81
-3.086762e+81
-3.096812e+81
-3.0966327e+81
-3.1030973e+81
-3.1032819e+81
-3.0867044e+81
-3.0808771e+81
-3.0867621e+81
-3.0808501e+81
-3.1032925e+81
-3.0968019e+81
-3.0968084e+81
-3.1032468e+81
-3.1253667e+81
-3.1158258e+81
-3.1252439e+81
-3.1159093e+81
-3.1159276e+81
-3.1254296e+81
-3.1253533e+81
-3.1159457e+81
-3.1376986e+81
-3.1475466e+81
-3.1378865e+81
-3.1478326e+81
-3.1478287e+81
-3.1476674e+81
-3.1378869e+81
-3.1378392e+81
-3.1621173e+81
-3.1724079e+81
-3.172739e+81
-3.1623703e+81
-3.1622794e+81
-3.1727629e+81
-3.1725121e+81
-3.1622582e+81
-3.1849483e+81
-3.1950096e+81
-3.1955045e+81
-3.1852701e+81
-3.1853429e+81
-3.1956202e+81
-3.1951964e+81
-3.1851373e+81
-3.2082847e+81
-3.2157184e+81
-3.2164054e+81
-3.2086494e+81
-3.208767e+81
-3.2165539e+81
-3.2160389e+81
-3.2085171e+81
-3.2242414e+81
-3.225485e+81
-3.226458e+81
-3.2249541e+81
-3.224986e+81
-3.2265262e+81
-3.2258995e+81
-3.2246815e+81
-3.20852e+81
-3.2160479e+81
-3.2166861e+81
-3.2089197e+81
-3.2084116e+81
-3.2087055e+81
-3.2165589e+81
-3.2159837e+81
-3.224692e+81
-3.226025e+81
-3.2268091e+81
-3.2252081e+81
-3.224653e+81
-3.2250971e+81
-3.2268767e+81
-3.2260312e+81
-3.162198e+81
-3.1725261e+81
-3.1728952e+81
-3.162448e+81
-3.1623823e+81
-3.1624086e+81
-3.1729198e+81
-3.1727052e+81
-3.1851968e+81
-3.1952565e+81
-3.1957129e+81
-3.1855306e+81
-3.1852737e+81
-3.1854792e+81
-3.1956361e+81
-3.1951821e+81
-3.1163169e+81
-3.1257369e+81
-3.1258935e+81
-3.1164454e+81
-3.1164539e+81
-3.1164305e+81
-3.1259238e+81
-3.1258874e+81
-3.1382053e+81
-3.1479604e+81
-3.148288e+81
-3.1384466e+81
-3.1383176e+81
-3.1383565e+81
-3.1482639e+81
-3.1481343e+81
-3.0811107e+81
-3.081174e+81
-3.0870449e+81
-3.0871209e+81
-3.0971056e+81
-3.0972356e+81
-3.1036311e+81
-3.103778e+81
-3.0811903e+81
-3.0871381e+81
-3.087139e+81
-3.0812203e+81
-3.1037906e+81
-3.1037782e+81
-3.0972357e+81
-3.0972864e+81
-3.116105e+81
-3.125543e+81
-3.1256933e+81
-3.1162286e+81
-3.1162331e+81
-3.1257246e+81
-3.1256968e+81
-3.116292e+81
-3.1379705e+81
-3.1478348e+81
-3.1481793e+81
-3.1382168e+81
-3.1382099e+81
-3.1481183e+81
-3.1480089e+81
-3.138228e+81
-3.0812663e+81
-3.087203e+81
-3.0813641e+81
-3.0873229e+81
-3.097471e+81
-3.0973348e+81
-3.1038524e+81
-3.1040011e+81
-3.0814479e+81
-3.087414e+81
-3.0813908e+81
-3.0873893e+81
-3.1040385e+81
-3.0974734e+81
-3.0975015e+81
-3.1040162e+81
-3.2329464e+81
-3.2337392e+81
-3.2335812e+81
-3.2327372e+81
-3.2313546e+81
-3.2324664e+81
-3.23293e+81
-3.2323008e+81
-3.2342112e+81
-3.2350011e+81
-3.2348688e+81
-3.2338857e+81
-3.2331332e+81
-3.2341706e+81
-3.2344386e+81
-3.233939e+81
-3.2303954e+81
-3.2295294e+81
-3.2302868e+81
-3.2294771e+81
-3.2220994e+81
-3.2226437e+81
-3.2229455e+81
-3.2221661e+81
-3.2275267e+81
-3.2288335e+81
-3.2293049e+81
-3.2288625e+81
-3.2311507e+81
-3.2320927e+81
-3.2309197e+81
-3.2318373e+81
-3.2300538e+81
-3.2310638e+81
-3.2313745e+81
-3.2308664e+81
-3.2221916e+81
-3.2213502e+81
-3.2222361e+81
-3.2214791e+81
-3.2116927e+81
-3.2142346e+81
-3.0482489e+81
-3.0953888e+81
-3.091576e+81
-3.0461385e+81
-3.2224683e+81
-3.2225989e+81
-3.2222648e+81
-3.2210342e+81
-3.2233429e+81
-3.2221446e+81
-3.2224652e+81
-3.22353e+81
-3.039446e+81
-3.0372629e+81
-3.0789851e+81
-3.0822996e+81
-3.1437905e+81
-3.1522493e+81
-3.2081804e+81
-3.2009724e+81
-3.0656883e+81
-3.0657721e+81
-2.9947768e+81
-3.0998068e+81
-3.0977858e+81
-2.9976219e+81
-3.0974124e+81
-3.1012305e+81
-3.1674876e+81
-3.120301e+81
-3.1201029e+81
-3.1621203e+81
-3.1853611e+81
-3.184649e+81
-3.1638655e+81
-3.1855156e+81
-3.1857316e+81
-3.1204954e+81
-3.1200039e+81
-3.163569e+81
-3.1865335e+81
-3.1866328e+81
-3.163379e+81
-3.1845654e+81
-3.1861696e+81
-3.1717854e+81
-3.1704809e+81
-3.1859232e+81
-3.1864714e+81
-3.201034e+81
-3.200362e+81
-3.2001894e+81
-3.2002034e+81
-3.1912148e+81
-3.1914692e+81
-3.1936698e+81
-3.19411e+81
-3.1794683e+81
-3.1795326e+81
-3.1891752e+81
-3.1885372e+81
-3.1993255e+81
-3.2057394e+81
-3.1995472e+81
-3.2060717e+81
-3.1916394e+81
-3.1917573e+81
-3.19466e+81
-3.1940194e+81
-3.199509e+81
-3.1996541e+81