/*--------------------------------*- C++ -*----------------------------------*\
  =========                 |
  \\      /  F ield         | OpenFOAM: The Open Source CFD Toolbox
   \\    /   O peration     | Website:  https://openfoam.org
    \\  /    A nd           | Version:  7
     \\/     M anipulation  |
\*---------------------------------------------------------------------------*/
FoamFile
{
    version     2.0;
    format      ascii;
    class       volVectorField;
    location    "7000";
    object      U;
}
// * * * * * * * * * * * * * * * * * * * * * * * * * * * * * * * * * * * * * //

dimensions      [0 1 -1 0 0 0 0];

internalField   nonuniform List<vector> 
33943
(
(-5.4586965e+41 -5.3382375e+40 7.5345336e+40)
(-4.6557287e+41 -2.616821e+40 7.3728589e+40)
(-4.827289e+41 -3.2939817e+40 9.658559e+40)
(-5.1944021e+41 -2.6391069e+40 3.0444451e+40)
(-5.0492977e+41 -5.6974757e+40 -1.217415e+40)
(-5.1380221e+41 -5.3362743e+40 2.428431e+40)
(-3.8018772e+41 -3.7872732e+40 1.3489976e+40)
(-3.628775e+41 -8.3286068e+40 3.7257684e+40)
(-4.2925811e+41 -5.3604128e+40 7.3826636e+40)
(-4.5978101e+41 -1.1498172e+40 7.2992608e+40)
(-4.5153847e+41 -6.3843338e+40 8.1319159e+40)
(-4.7616261e+41 -4.526389e+40 1.0097446e+41)
(-3.8535949e+41 -1.5966259e+40 6.1657419e+40)
(-4.307939e+41 -2.1060302e+40 8.6480405e+40)
(-4.3261277e+41 -2.3653932e+40 9.0993636e+40)
(-3.9118467e+41 3.5490191e+39 6.1966089e+40)
(-5.0357718e+41 -1.8608411e+40 -4.1834788e+40)
(-5.2539519e+41 -6.7008043e+39 4.5064365e+40)
(-5.1073063e+41 -2.6924993e+40 3.2067379e+40)
(-4.8712744e+41 -4.2234206e+40 2.185052e+40)
(-6.0871639e+41 -3.1848921e+40 3.6662969e+40)
(-4.4171407e+41 -2.0520583e+40 5.1593804e+40)
(-4.3748526e+41 -1.9929975e+40 4.5879985e+40)
(-5.8432128e+41 -7.3666028e+39 -2.6196401e+40)
(-3.9084018e+41 -3.0782154e+40 3.4471954e+40)
(-3.7416896e+41 -2.4252356e+40 -5.175472e+40)
(-3.4385913e+41 -6.12767e+40 -5.8028648e+40)
(-3.987393e+41 -2.0439252e+40 2.0623188e+40)
(-4.5455177e+41 -6.2832586e+40 5.3818384e+40)
(-4.37982e+41 -5.0506285e+40 -4.7527697e+40)
(-4.6237034e+41 -1.3545737e+40 -5.5748645e+40)
(-3.4244544e+41 -6.6268906e+40 2.0570039e+40)
(-3.682532e+41 -1.4493424e+40 1.9708251e+40)
(-3.9528769e+41 -3.1199262e+40 -4.4543432e+40)
(-4.0131824e+41 -2.7183678e+40 -7.0852336e+40)
(-3.4329233e+41 -2.6227185e+40 -5.7901374e+40)
(-3.4785876e+41 -8.2962914e+39 -5.8815236e+40)
(-2.7220212e+41 -3.1538621e+40 1.38549e+40)
(-2.7824092e+41 2.5115129e+39 1.5660191e+40)
(-3.8313926e+41 -2.7399944e+40 7.3231646e+40)
(-4.0470162e+41 -2.6165209e+40 8.4837854e+40)
(-4.1903205e+41 -3.2111762e+40 8.2650907e+40)
(-4.2906841e+41 -5.6882873e+40 8.8804035e+40)
(-3.6214955e+41 -2.4469976e+40 5.8879305e+40)
(-3.7096112e+41 -4.0880406e+39 5.7432408e+40)
(-4.1348818e+41 -3.4949663e+40 8.4401686e+40)
(-4.0496482e+41 -3.6818584e+40 7.4558236e+40)
(-3.7351235e+41 -1.8826687e+40 5.7447822e+40)
(-3.8402684e+41 -2.0647696e+39 6.0363264e+40)
(-4.2517255e+41 -2.5886658e+40 8.4220189e+40)
(-4.2942375e+41 -2.9992893e+40 9.1858359e+40)
(-3.1997382e+41 1.5979745e+39 5.42413e+40)
(-3.7661321e+41 -1.5665135e+40 7.3362558e+40)
(-3.1713281e+41 -8.4742111e+39 5.4496942e+40)
(-3.7206392e+41 -1.2605983e+40 6.9210784e+40)
(-3.1879563e+41 -7.1594404e+39 5.481048e+40)
(-3.2233257e+41 4.2042121e+39 5.7495284e+40)
(-3.7477934e+41 -1.1719869e+40 7.0433732e+40)
(-3.7714684e+41 -1.4705963e+40 7.4462738e+40)
(-6.3283761e+41 -2.3202123e+40 2.1221139e+40)
(-4.9107266e+41 -2.3450363e+40 -4.3188137e+40)
(-5.1025911e+41 -1.6254073e+40 4.3683397e+40)
(-5.0089452e+41 -1.3501227e+40 -3.7872999e+40)
(-5.1578061e+41 -3.4734657e+40 4.7098169e+40)
(-4.3754033e+41 -4.8033573e+39 7.3904723e+39)
(-4.1359693e+41 -1.1495276e+40 -3.7312445e+40)
(-4.3667914e+41 -1.5871429e+40 1.0643338e+40)
(-4.1129178e+41 -5.1996817e+39 -3.2721458e+40)
(-4.4524459e+41 -1.1955145e+40 4.004437e+40)
(-4.3487277e+41 -1.5249653e+40 -1.1942468e+40)
(-4.4623592e+41 -2.5425777e+40 4.3952751e+40)
(-4.3560743e+41 -8.9236807e+39 -7.9447055e+39)
(-4.269263e+41 -2.3383479e+40 3.911375e+40)
(-4.3506454e+41 -2.4706496e+40 4.8131345e+40)
(-4.1315609e+41 -2.8284714e+40 3.7330321e+40)
(-4.2106241e+41 -2.7953487e+40 4.375682e+40)
(-4.7109077e+41 -2.7769871e+40 3.0607842e+40)
(-6.2976456e+41 -8.3508882e+39 4.2424686e+40)
(-4.541275e+41 -2.6475351e+40 1.2391135e+40)
(-4.1404927e+41 -3.6023847e+40 4.3345602e+40)
(-4.2955444e+41 -1.4655633e+40 3.4052129e+40)
(-3.9473455e+41 -3.6656144e+40 -4.4331102e+40)
(-4.0388592e+41 -1.8562757e+40 -3.7155853e+40)
(-3.7472664e+41 -1.0462684e+40 4.3427335e+40)
(-3.7863897e+41 -1.3294861e+40 4.9845243e+40)
(-3.7221526e+41 -1.2182794e+40 4.3821986e+40)
(-3.7568159e+41 -1.5044499e+40 4.7965093e+40)
(-4.0840845e+41 6.2320033e+39 3.0499246e+40)
(-3.9315466e+41 -1.1785448e+40 3.3710362e+40)
(-3.3284053e+41 3.6129293e+39 -6.1885701e+40)
(-3.3317057e+41 -1.7142451e+40 -7.5787348e+40)
(-3.8209052e+41 -9.3930233e+39 -1.0807422e+40)
(-3.6647776e+41 -9.0592446e+39 -7.1876576e+39)
(-3.8235522e+41 -2.3729036e+40 -4.4558503e+39)
(-3.9401643e+41 -1.3637867e+40 -1.0836424e+40)
(-4.3906126e+41 -3.8906907e+40 -3.8883575e+40)
(-4.5822674e+41 -1.2050874e+40 -4.8368085e+40)
(-3.2245377e+41 -6.6190907e+40 3.978124e+40)
(-3.633434e+41 -2.0053981e+40 5.2238291e+40)
(-3.9199628e+41 -3.1655582e+40 -6.8802652e+40)
(-3.8887245e+41 -2.6321921e+40 -6.1744379e+40)
(-3.7798909e+41 -3.2662058e+40 -3.5040231e+40)
(-3.8284086e+41 -2.1782839e+40 -3.6015774e+40)
(-3.9690286e+41 -3.0243312e+40 -6.4675673e+40)
(-3.8577536e+41 -3.5395377e+40 -3.8997329e+40)
(-3.9381563e+41 -2.0075598e+40 -4.1290758e+40)
(-4.0154113e+41 -3.1565823e+40 -7.2700857e+40)
(-3.2771874e+41 -2.8732024e+40 -5.1942321e+40)
(-3.3132431e+41 -1.4227113e+40 -5.2591679e+40)
(-2.5687076e+41 -1.1638229e+40 1.7213831e+40)
(-2.5657971e+41 -3.9207813e+40 1.9144378e+40)
(-3.319095e+41 -3.0773901e+40 -5.3305016e+40)
(-3.4336035e+41 -1.1698805e+40 -5.5761467e+40)
(-2.6816356e+41 -7.6773452e+39 1.5610968e+40)
(-2.5111158e+41 -4.2666942e+40 9.6675496e+39)
(-4.2661811e+41 -2.096998e+40 -6.3804542e+40)
(-4.099329e+41 -2.6124756e+40 -2.7021587e+40)
(-3.2408635e+41 -2.1946012e+40 -7.3527363e+40)
(-3.2191433e+41 -2.0088483e+40 -6.969055e+40)
(-2.7455155e+41 -1.9528996e+40 -5.6493188e+40)
(-2.7675653e+41 -1.2265835e+40 -5.7593808e+40)
(-3.237414e+41 -2.0490617e+40 -6.9238097e+40)
(-2.7642132e+41 -1.8323547e+40 -5.6020446e+40)
(-2.0927656e+41 -2.0378511e+40 -4.7772998e+40)
(-2.1168602e+41 -1.0969119e+40 -4.8788977e+40)
(-1.8857396e+41 -2.6822921e+40 2.2189895e+40)
(-1.919707e+41 -4.4886149e+39 2.310609e+40)
(-2.114056e+41 -1.7481174e+40 -4.742972e+40)
(-1.9142571e+41 -2.2730994e+40 2.2622628e+40)
(-1.9539563e+41 1.1377863e+39 2.470853e+40)
(-3.9777167e+41 -1.1407266e+40 8.083255e+40)
(-3.409391e+41 -1.2503771e+39 5.9291725e+40)
(-3.3006206e+41 -1.0730512e+40 5.5184844e+40)
(-3.7501689e+41 -1.6755014e+40 7.2078782e+40)
(-3.8209489e+41 -2.2098104e+40 7.9687648e+40)
(-3.4947887e+41 -9.3837977e+39 6.9876977e+40)
(-3.9721567e+41 -3.7932069e+40 8.9627214e+40)
(-3.4335366e+41 -1.7798258e+40 6.5280345e+40)
(-3.9627785e+41 -2.3271978e+40 8.4985066e+40)
(-3.0331049e+41 -1.0902929e+40 5.4125976e+40)
(-3.0306534e+41 3.2258271e+38 5.0982447e+40)
(-3.5509748e+41 -1.8099526e+40 6.4160658e+40)
(-3.5655867e+41 -2.0686086e+40 6.5273225e+40)
(-3.0447839e+41 -8.4906265e+39 5.0556686e+40)
(-3.0810684e+41 2.3290019e+39 5.2313193e+40)
(-3.647336e+41 -1.5257676e+40 6.6185835e+40)
(-3.621493e+41 -2.0477428e+40 6.8936859e+40)
(-3.0678647e+41 -8.7379358e+39 4.9116674e+40)
(-3.1085794e+41 7.7845565e+38 4.8679025e+40)
(-3.6661726e+41 -1.5108908e+40 6.3819493e+40)
(-3.6830298e+41 -1.8409599e+40 6.7557226e+40)
(-3.1268196e+41 -9.3622798e+39 5.0687047e+40)
(-3.1803775e+41 9.0724713e+38 5.4474889e+40)
(-3.7188732e+41 -1.8791414e+40 7.2234306e+40)
(-3.7208984e+41 -1.4468954e+40 6.7750209e+40)
(-2.6997749e+41 -4.1425561e+39 4.7468664e+40)
(-2.7231757e+41 2.7854573e+39 4.9350428e+40)
(-3.2144042e+41 -6.9084329e+39 5.834451e+40)
(-3.2084912e+41 -8.8569781e+39 6.0623908e+40)
(-2.6993493e+41 -4.4143674e+39 4.8155035e+40)
(-2.7070354e+41 1.9451319e+39 4.7411989e+40)
(-3.1710183e+41 -6.7525387e+39 5.7097641e+40)
(-3.186564e+41 -8.3458909e+39 5.9381403e+40)
(-2.6951425e+41 -4.2312255e+39 4.8018185e+40)
(-2.7055346e+41 2.8837259e+39 4.7890078e+40)
(-3.1835371e+41 -6.2466746e+39 5.6531561e+40)
(-3.1961878e+41 -6.7523884e+39 5.8751134e+40)
(-3.2129234e+41 -4.6130604e+39 5.9574244e+40)
(-2.7037123e+41 -2.5117982e+39 4.8810343e+40)
(-2.7008261e+41 3.7995647e+39 4.9610416e+40)
(-3.2004329e+41 -7.0732277e+39 6.1397604e+40)
(-6.3518667e+41 -1.4353313e+40 2.4679237e+40)
(-4.9072564e+41 -3.7303827e+40 4.8022781e+40)
(-4.7741464e+41 -1.7012513e+40 -4.4036298e+40)
(-4.8391969e+41 -1.3556158e+40 -3.7366959e+40)
(-4.2946252e+41 -3.4839104e+40 4.0709567e+40)
(-4.2633104e+41 -2.0720003e+40 -3.3180517e+40)
(-4.2364395e+41 -3.7262094e+40 -4.1248479e+40)
(-4.4082725e+41 -1.6567012e+40 3.2581891e+40)
(-4.9422975e+41 -7.1437145e+39 4.4507923e+40)
(-4.0516216e+41 -1.2902527e+40 -3.5574164e+40)
(-4.0213871e+41 -8.3780872e+39 -4.1589318e+40)
(-4.2063572e+41 -2.0164995e+40 7.2245736e+39)
(-4.2785594e+41 -7.1560503e+39 9.2717149e+39)
(-4.1905336e+41 -1.9910357e+40 -1.6447324e+40)
(-4.2717252e+41 -1.7763495e+40 3.7100752e+40)
(-4.2734491e+41 -3.2542899e+40 3.8967694e+40)
(-4.1875404e+41 -1.407964e+40 -1.4801679e+40)
(-4.34892e+41 -1.832338e+40 1.122987e+40)
(-4.0892392e+41 -6.460182e+39 -3.361508e+40)
(-4.0862588e+41 -1.2254121e+40 -3.6716826e+40)
(-4.3213963e+41 -6.0684114e+39 8.0736967e+39)
(-4.4304321e+41 -2.7535564e+40 4.3727881e+40)
(-4.383051e+41 -1.3370811e+40 3.7879773e+40)
(-4.2445013e+41 -1.828829e+40 -1.7833711e+40)
(-4.3359316e+41 -1.0730711e+40 -8.8818759e+39)
(-3.6245189e+41 -6.9936031e+39 -2.0575777e+39)
(-3.5465616e+41 -5.3477921e+39 -2.0159122e+40)
(-3.538674e+41 -1.0537399e+40 -2.2128849e+40)
(-3.6280132e+41 -1.2229259e+40 -5.4643198e+38)
(-3.6395563e+41 -9.9268707e+39 -5.0756274e+39)
(-3.6393066e+41 -5.464682e+39 -6.2643576e+39)
(-3.5245752e+41 -9.6251878e+39 -2.5968134e+40)
(-3.5429059e+41 -4.2254642e+39 -2.4490239e+40)
(-3.6203925e+41 -5.3331003e+39 -1.9853684e+39)
(-3.533394e+41 -4.7343188e+39 -2.0524301e+40)
(-3.5155544e+41 -9.8437661e+39 -2.3153916e+40)
(-3.6248063e+41 -1.1089924e+40 1.1565323e+38)
(-3.6281292e+41 -9.3831497e+39 -4.0027939e+39)
(-3.6210082e+41 -4.165163e+39 -6.0021154e+39)
(-3.8206158e+41 -2.0751725e+40 4.5246184e+40)
(-3.7283852e+41 -1.160576e+40 6.7973442e+39)
(-3.7373009e+41 -1.1435801e+40 8.607411e+39)
(-3.8083741e+41 -7.5981548e+39 4.4033642e+40)
(-3.5906666e+41 -8.5838391e+39 -1.2532683e+40)
(-3.7170561e+41 -7.3269787e+39 1.3530793e+40)
(-3.5840154e+41 -1.0568979e+40 -1.3242042e+40)
(-3.7200386e+41 -1.5993596e+40 1.4795963e+40)
(-3.7214502e+41 -1.1329316e+40 5.360357e+39)
(-3.8276426e+41 -6.6493763e+39 4.361392e+40)
(-3.8444886e+41 -1.8065593e+40 4.791452e+40)
(-3.7379886e+41 -9.8141726e+39 8.9373124e+39)
(-3.7227067e+41 -1.5453995e+40 1.5741027e+40)
(-3.5762284e+41 -9.6842499e+39 -1.4062001e+40)
(-3.7220436e+41 -6.5030143e+39 1.3660468e+40)
(-3.5748871e+41 -8.0437137e+39 -1.2660388e+40)
(-3.6697447e+41 -1.7729362e+40 4.160712e+40)
(-3.6359373e+41 -1.354496e+40 3.8218373e+40)
(-3.7138785e+41 -1.7596035e+40 4.601977e+40)
(-3.7003378e+41 -1.2146442e+40 4.0681367e+40)
(-3.5886338e+41 -1.7913482e+40 4.1860496e+40)
(-4.1812852e+41 -2.476751e+40 4.8532338e+40)
(-3.5548567e+41 -1.4911818e+40 3.9543694e+40)
(-3.6094609e+41 -1.8151275e+40 4.1649639e+40)
(-3.6182705e+41 -1.1836314e+40 3.8716076e+40)
(-4.0976085e+41 -1.6978438e+40 3.9870469e+40)
(-4.6295063e+41 -4.7525706e+39 1.34841e+40)
(-4.153835e+41 -2.586282e+40 4.8592924e+40)
(-3.8491558e+41 -5.9100821e+39 -4.2725497e+40)
(-3.7640096e+41 -2.6366669e+40 -5.4553183e+40)
(-4.2064627e+41 -5.4368427e+39 3.8360136e+40)
(-4.0547766e+41 -1.6081209e+40 3.7868192e+40)
(-3.9691167e+41 -1.3548286e+40 3.0951222e+40)
(-3.9796257e+41 -2.2592909e+40 1.98953e+38)
(-4.1179138e+41 -1.7270573e+40 -6.2172862e+39)
(-4.1295574e+41 -1.1070207e+40 -4.6214565e+39)
(-3.9414969e+41 -1.3886977e+40 -9.9196597e+38)
(-3.1560281e+41 -5.4418306e+39 3.9279472e+40)
(-3.1755142e+41 -7.1324592e+39 4.134853e+40)
(-3.1902379e+41 -3.3351369e+39 4.143517e+40)
(-3.1770463e+41 -7.3533995e+39 4.4126413e+40)
(-3.1519926e+41 -5.9050622e+39 4.011294e+40)
(-3.1665924e+41 -8.490203e+39 4.1896821e+40)
(-3.1782482e+41 -5.4578498e+39 3.9150935e+40)
(-3.1762569e+41 -8.5526031e+39 4.25599e+40)
(-3.8714192e+41 2.7952677e+39 -7.8969057e+39)
(-3.6544641e+41 2.9400397e+39 -5.2554473e+39)
(-3.6397498e+41 1.764904e+40 1.2175497e+39)
(-3.8614453e+41 1.2802065e+40 -1.8008529e+39)
(-3.777529e+41 -7.3677164e+38 -1.0675508e+40)
(-4.0370125e+41 1.0154744e+40 -9.0607889e+39)
(-4.4528236e+41 2.2738967e+39 -5.0666768e+39)
(-4.2689224e+41 1.1464148e+39 -8.9126006e+39)
(-5.1074933e+41 -2.5995274e+40 -5.2703951e+40)
(-5.1815966e+41 -2.5771222e+40 -5.402235e+40)
(-5.2466468e+41 -1.9279452e+40 -3.4003072e+40)
(-3.7884449e+41 -1.9960026e+40 -5.7246716e+40)
(-3.835339e+41 -2.2390501e+40 -6.3248297e+40)
(-3.7259074e+41 -1.4015402e+40 -2.8032917e+40)
(-3.6432298e+41 -2.5919966e+40 -2.7696992e+40)
(-3.8991318e+41 -2.4231997e+40 -6.2133713e+40)
(-3.9208715e+41 -2.5064791e+40 -6.9236903e+40)
(-3.8272385e+41 -1.6386286e+40 -3.565972e+40)
(-3.7716442e+41 -2.9927978e+40 -3.2243498e+40)
(-3.1280652e+41 -2.1517199e+40 -4.7537875e+40)
(-3.243892e+41 -5.8256311e+39 -4.9097524e+40)
(-2.2411023e+41 -4.2981581e+40 1.724354e+40)
(-2.489432e+41 -1.3050906e+40 2.9997602e+40)
(-3.2781859e+41 -2.641304e+40 -5.1079273e+40)
(-3.3452261e+41 -9.6417402e+39 -5.3788803e+40)
(-2.571907e+41 -3.885439e+40 3.2630619e+40)
(-2.6465797e+41 -5.753795e+39 3.371202e+40)
(-4.0216461e+41 -2.5856991e+40 -2.6711418e+40)
(-3.9866429e+41 -2.435447e+40 -1.8947698e+40)
(-4.1567912e+41 -2.0765184e+40 -5.6819963e+40)
(-4.1664516e+41 -2.5498435e+40 -5.6824315e+40)
(-4.0430356e+41 -2.8104719e+40 -2.2381068e+40)
(-4.1861013e+41 -2.4119076e+40 -5.8731177e+40)
(-4.2379918e+41 -2.506623e+40 -6.0780412e+40)
(-4.1041257e+41 -2.6931909e+40 -3.0240267e+40)
(-3.0915275e+41 -1.8646989e+40 -6.3053336e+40)
(-3.0914123e+41 -2.1103156e+40 -6.655484e+40)
(-2.6565701e+41 -1.178659e+40 -5.1102366e+40)
(-2.657575e+41 -1.8263765e+40 -5.0569164e+40)
(-2.6598141e+41 -2.0485834e+40 -4.9885053e+40)
(-3.1196606e+41 -2.123288e+40 -6.2616684e+40)
(-3.1213906e+41 -2.3650307e+40 -6.6859393e+40)
(-2.6711591e+41 -1.3472028e+40 -5.1652746e+40)
(-2.0102996e+41 -1.4413268e+40 -4.44198e+40)
(-1.7124522e+41 -3.0524682e+40 2.1125688e+40)
(-1.7644302e+41 -7.9508549e+39 2.3142485e+40)
(-1.996818e+41 -2.2464538e+40 -4.3090022e+40)
(-2.020234e+41 -2.062625e+40 -4.4790605e+40)
(-2.0088448e+41 -1.2698261e+40 -4.4254267e+40)
(-1.7945441e+41 -2.7855121e+40 2.8582539e+40)
(-1.7513288e+41 -6.4350515e+39 2.6253155e+40)
(-3.1536603e+41 -2.2074846e+40 -6.4840763e+40)
(-3.1764183e+41 -2.3725407e+40 -6.9086393e+40)
(-2.686386e+41 -2.1558145e+40 -5.2318526e+40)
(-2.7205878e+41 -1.4208036e+40 -5.3319588e+40)
(-2.7196624e+41 -2.1347632e+40 -5.287835e+40)
(-3.1956378e+41 -2.2008214e+40 -6.6037507e+40)
(-3.2170391e+41 -2.313441e+40 -7.0841323e+40)
(-2.7540206e+41 -1.2753893e+40 -5.5506261e+40)
(-2.0640683e+41 -2.1968761e+40 -4.4737041e+40)
(-2.1092019e+41 -1.1667422e+40 -4.6283335e+40)
(-1.7873024e+41 -3.1915086e+40 1.7993715e+40)
(-1.8828815e+41 -7.561533e+39 2.2881157e+40)
(-2.0049495e+41 -2.4395676e+40 -4.4956293e+40)
(-2.0628682e+41 -1.4520564e+40 -4.5561901e+40)
(-1.6988697e+41 -3.4079162e+40 1.5832413e+40)
(-1.7893229e+41 -1.0997849e+40 1.9912919e+40)
(-4.3071009e+41 -2.0361301e+40 -5.0100727e+40)
(-3.3359794e+41 -1.8271913e+40 -5.1710443e+40)
(-3.3778981e+41 -1.9222025e+40 -5.5936183e+40)
(-4.1771855e+41 -1.786316e+40 -4.4555917e+40)
(-4.280629e+41 -3.052332e+40 -5.2783761e+40)
(-4.3385953e+41 -2.1053711e+40 -4.9864871e+40)
(-3.3505363e+41 -1.8155344e+40 -5.1586426e+40)
(-3.025954e+41 -9.6524033e+39 -7.4228964e+40)
(-3.0493957e+41 -1.0580752e+40 -7.5394058e+40)
(-3.0416902e+41 -8.9562871e+39 -7.4088479e+40)
(-1.9343481e+41 -1.5093207e+40 -6.5777119e+40)
(-1.9329526e+41 -1.5470318e+40 -6.7090167e+40)
(-1.5779327e+41 -8.8898503e+39 -4.9984603e+40)
(-1.576586e+41 -1.4588421e+40 -5.0109147e+40)
(-1.5826395e+41 -1.3978921e+40 -4.9890559e+40)
(-1.9559064e+41 -1.5623262e+40 -6.8355859e+40)
(-1.9515501e+41 -1.4813501e+40 -6.5781448e+40)
(-1.6052955e+41 -8.0519975e+39 -5.1242524e+40)
(-1.7105773e+41 -1.6011196e+40 3.5935244e+40)
(-1.7156571e+41 -4.6914691e+39 3.6715013e+40)
(-1.2295578e+41 -1.5392449e+40 -1.6535472e+40)
(-1.2362422e+41 -1.2010416e+40 -1.5546564e+40)
(-1.26091e+41 -1.2870036e+40 -1.4608134e+40)
(-1.7336008e+41 -1.5260113e+40 3.6398366e+40)
(-1.2562401e+41 -1.0071948e+40 -1.660095e+40)
(-1.7312787e+41 -2.5847971e+39 3.7324012e+40)
(-1.9391977e+41 -1.4159472e+40 -6.5879337e+40)
(-1.9431809e+41 -1.408836e+40 -6.7174437e+40)
(-1.5798098e+41 -1.3050146e+40 -5.0555825e+40)
(-1.596717e+41 -6.5816668e+39 -5.0079518e+40)
(-1.2486831e+41 -1.2459736e+40 -1.5750378e+40)
(-1.7051835e+41 -1.6064733e+40 3.4846938e+40)
(-1.2673301e+41 -8.1019811e+39 -1.3841863e+40)
(-1.7320841e+41 -3.1819829e+39 3.6983402e+40)
(-1.291377e+41 -8.2858359e+39 -1.1971811e+40)
(-1.7584468e+41 -1.2315213e+40 3.8708375e+40)
(-3.3580033e+41 1.4403037e+40 5.3165712e+40)
(-3.7171819e+41 -1.21943e+40 7.4606981e+40)
(-2.8794657e+41 -5.1020086e+39 5.1911017e+40)
(-3.422627e+41 -9.0965274e+39 6.545189e+40)
(-2.9109619e+41 1.0654256e+39 5.534483e+40)
(-3.4236566e+41 -1.5253739e+40 6.9350126e+40)
(-2.8808753e+41 6.017019e+39 4.9268226e+40)
(-3.3759251e+41 -1.0229288e+40 6.2681223e+40)
(-2.8527816e+41 -2.6664358e+39 4.8938079e+40)
(-3.35442e+41 -7.6967186e+39 5.9904655e+40)
(-3.0037614e+41 -7.9255314e+39 6.1308352e+40)
(-2.9866795e+41 -9.7533753e+38 6.27541e+40)
(-3.5396447e+41 -1.389086e+40 7.1161897e+40)
(-3.5187628e+41 -2.2443058e+40 7.4058155e+40)
(-2.9354888e+41 -1.0785487e+40 5.5661564e+40)
(-3.4943159e+41 -1.268704e+40 6.684391e+40)
(-2.9566948e+41 -7.8094344e+38 5.7222583e+40)
(-3.5079827e+41 -1.5374436e+40 7.0861455e+40)
(-2.6007663e+41 -2.8935403e+39 4.89374e+40)
(-2.5896577e+41 2.0897536e+39 4.6171092e+40)
(-3.0700642e+41 -6.9638162e+39 5.6869501e+40)
(-3.0745182e+41 -7.1116928e+39 5.7982066e+40)
(-2.5896141e+41 -3.5018227e+39 4.4821229e+40)
(-2.6030729e+41 3.4370876e+39 4.65477e+40)
(-3.0845993e+41 -7.6655511e+39 5.4120829e+40)
(-3.0798985e+41 -1.0135348e+40 5.6632328e+40)
(-3.1085517e+41 -7.3828744e+39 5.3299994e+40)
(-2.5800307e+41 -4.2242542e+39 4.4053979e+40)
(-2.5860731e+41 2.2532598e+39 4.3313766e+40)
(-3.1138253e+41 -8.0237806e+39 5.4971202e+40)
(-2.5975196e+41 -3.5971918e+39 4.3884239e+40)
(-2.6149524e+41 4.841751e+39 4.5637221e+40)
(-3.0896545e+41 -9.5724233e+39 5.5881906e+40)
(-3.099083e+41 -7.7536573e+39 5.3429299e+40)
(-2.6013228e+41 -2.6860186e+39 4.3304702e+40)
(-2.6059716e+41 2.5020459e+39 4.1675175e+40)
(-3.1213483e+41 -9.078465e+39 5.426646e+40)
(-3.1045312e+41 -7.6359863e+39 5.19992e+40)
(-2.6217127e+41 -4.081824e+39 4.2460678e+40)
(-2.6416708e+41 3.677673e+39 4.4849783e+40)
(-3.1314084e+41 -1.021016e+40 5.5769495e+40)
(-3.134337e+41 -8.6321344e+39 5.2982763e+40)
(-2.6365336e+41 -4.6393122e+39 4.3604568e+40)
(-2.6509092e+41 1.0432486e+39 4.3420495e+40)
(-3.1652658e+41 -9.025067e+39 5.5934254e+40)
(-3.1527509e+41 -7.9948019e+39 5.3315302e+40)
(-2.668541e+41 -5.3379156e+39 4.5367814e+40)
(-2.6975072e+41 2.1393324e+39 4.8170451e+40)
(-3.1632481e+41 -9.7241884e+39 5.9144727e+40)
(-3.168258e+41 -7.8735952e+39 5.6170857e+40)
(-2.194595e+41 2.1428277e+39 4.4899206e+40)
(-2.1917302e+41 -6.1574944e+39 4.6112268e+40)
(-2.77134e+41 -2.7351945e+39 4.5511765e+40)
(-2.7753884e+41 -2.2595078e+39 4.7197572e+40)
(-2.1794273e+41 -4.1946472e+39 4.4829546e+40)
(-2.1865246e+41 3.5379836e+39 4.5623571e+40)
(-2.7623073e+41 -2.9373619e+39 4.9274201e+40)
(-2.7732275e+41 -1.786157e+39 4.8283523e+40)
(-2.7534986e+41 -2.0021887e+39 4.7855109e+40)
(-2.1856069e+41 -5.9820531e+39 4.6557222e+40)
(-2.1768188e+41 1.7182078e+39 4.5209825e+40)
(-2.7545851e+41 -3.1147142e+39 4.8357627e+40)
(-2.1912883e+41 2.7058613e+39 4.5847196e+40)
(-2.1742184e+41 -5.0256111e+39 4.4966213e+40)
(-2.7660111e+41 -2.57818e+39 4.7499326e+40)
(-2.7643107e+41 -3.0399919e+39 4.8785701e+40)
(-2.1762571e+41 -5.482228e+39 4.6243894e+40)
(-2.1859101e+41 2.6127016e+39 4.5111483e+40)
(-2.741206e+41 -2.7475321e+39 4.5694979e+40)
(-2.7526776e+41 -1.9908495e+39 4.8254137e+40)
(-2.7563523e+41 -2.1427336e+39 4.6023378e+40)
(-2.1674242e+41 -4.3208943e+39 4.4660271e+40)
(-2.187556e+41 4.0720296e+39 4.561966e+40)
(-2.7582094e+41 -1.5213678e+39 4.8571611e+40)
(-2.1955677e+41 4.1690697e+39 4.5635364e+40)
(-2.1949913e+41 -4.5455514e+39 4.6728067e+40)
(-2.7664721e+41 -9.2262992e+38 4.6932023e+40)
(-2.7708916e+41 -2.9030698e+38 4.9396216e+40)
(-2.1857107e+41 4.0504198e+39 4.6769329e+40)
(-2.1806378e+41 -2.3866866e+39 4.5592624e+40)
(-2.7603909e+41 -6.3213251e+38 4.8413413e+40)
(-2.7529399e+41 -1.9738205e+39 4.9754583e+40)
(-4.7214383e+41 -4.7486649e+39 -4.3788351e+40)
(-4.3461223e+41 -2.7949255e+40 4.3183753e+40)
(-4.3316787e+41 -7.6957907e+39 3.537135e+40)
(-4.0863563e+41 -2.6991321e+40 -4.5928897e+40)
(-4.1843146e+41 -1.2106331e+40 -3.8895593e+40)
(-4.8453465e+41 -2.3053614e+40 4.6921592e+40)
(-4.2384061e+41 -1.0479216e+40 4.1425364e+40)
(-4.275808e+41 -2.8549138e+40 4.802252e+40)
(-4.2172257e+41 -1.149042e+40 -9.1346423e+39)
(-4.1276436e+41 -1.7139333e+40 -1.9930887e+40)
(-4.0142326e+41 -7.0513453e+39 -3.7151491e+40)
(-4.1911572e+41 -1.426084e+40 1.0533152e+40)
(-3.9928608e+41 -1.9704027e+39 -3.5145279e+40)
(-4.2055133e+41 -1.733913e+38 9.4330126e+39)
(-4.0207092e+41 -9.8130419e+39 -3.7849228e+40)
(-4.2363853e+41 -1.983027e+40 1.3149083e+40)
(-4.0170818e+41 -6.1571905e+39 -3.3276854e+40)
(-4.2297787e+41 -4.3494762e+39 9.1204888e+39)
(-4.1808334e+41 -2.0686235e+40 2.0651265e+39)
(-4.0973234e+41 -2.171817e+40 7.4111835e+39)
(-4.1109268e+41 -2.4455914e+40 1.0795332e+39)
(-4.1506365e+41 -2.4976902e+40 7.0727156e+38)
(-4.120589e+41 -1.1620991e+40 -1.9325907e+40)
(-4.1353464e+41 -2.4989065e+40 3.8274022e+40)
(-4.1361626e+41 -6.8079496e+39 3.599707e+40)
(-4.1573079e+41 -5.8431085e+39 -1.2442712e+40)
(-3.4802097e+41 -5.9067841e+39 -2.3288807e+40)
(-3.4627314e+41 -1.0225134e+40 -2.4927542e+40)
(-3.5885868e+41 -6.0445207e+39 -4.0852054e+39)
(-3.5896036e+41 -1.189603e+40 -3.0510076e+39)
(-3.4513191e+41 -1.1649922e+40 -3.1453825e+40)
(-3.4493703e+41 -5.2673805e+39 -2.9679608e+40)
(-3.5462132e+41 -7.0266685e+39 -8.5882495e+39)
(-3.5341524e+41 -1.1006265e+40 -6.9434064e+39)
(-3.5294315e+41 -8.3433114e+39 -5.5832312e+39)
(-3.4370489e+41 -1.2597105e+40 -2.6387145e+40)
(-3.4461824e+41 -6.6577254e+39 -2.3743832e+40)
(-3.520242e+41 -1.3526463e+40 -3.6314451e+39)
(-3.4764761e+41 -7.5235827e+39 -2.1385862e+40)
(-3.4708973e+41 -1.2457453e+40 -2.3111002e+40)
(-3.5328588e+41 -1.010904e+40 -4.3275884e+39)
(-3.5346482e+41 -1.5610421e+40 -2.8124617e+39)
(-3.4727957e+41 -1.3533408e+40 -1.6295851e+40)
(-3.4899402e+41 -1.0324137e+40 -1.4002015e+40)
(-3.6015159e+41 -1.8121426e+40 1.3680967e+40)
(-3.5983943e+41 -9.5873256e+39 1.1956522e+40)
(-3.652691e+41 -1.1730905e+40 3.9565758e+40)
(-3.6063769e+41 -1.2767676e+40 6.7804088e+39)
(-3.5920716e+41 -1.3827094e+40 4.2945132e+39)
(-3.6625573e+41 -2.3519912e+40 4.1303127e+40)
(-3.7181459e+41 -8.468432e+39 4.1199536e+40)
(-3.6073566e+41 -1.2627821e+40 5.5183833e+39)
(-3.5963216e+41 -1.2998001e+40 2.8264915e+39)
(-3.6940975e+41 -2.2052454e+40 4.2623112e+40)
(-3.6169338e+41 -8.9564739e+39 1.1171266e+40)
(-3.4743897e+41 -9.7496709e+39 -1.5349821e+40)
(-3.4686707e+41 -1.2243897e+40 -1.7143206e+40)
(-3.6063179e+41 -1.7915032e+40 1.3427218e+40)
(-3.5261331e+41 -6.1599232e+39 -1.9982691e+40)
(-3.5108889e+41 -9.9411608e+39 -2.2494654e+40)
(-3.6165038e+41 -4.9531264e+39 -1.5099773e+39)
(-3.6120993e+41 -1.2066577e+40 3.4501605e+38)
(-3.6252129e+41 -1.046578e+40 -4.0830545e+39)
(-3.6218081e+41 -4.1980411e+39 -5.479479e+39)
(-3.4874497e+41 -8.590893e+39 -2.6119685e+40)
(-3.5178327e+41 -4.8043262e+39 -2.416459e+40)
(-3.6071057e+41 -4.0958596e+39 -4.7771962e+39)
(-3.4827762e+41 -4.1017276e+39 -2.456337e+40)
(-3.4726153e+41 -8.8455038e+39 -2.5577466e+40)
(-3.602015e+41 -9.7138321e+39 -4.5007392e+39)
(-3.5732678e+41 -7.6923362e+39 -4.0887984e+39)
(-3.4986852e+41 -5.9107121e+39 -2.2522272e+40)
(-3.4945463e+41 -9.7175336e+39 -2.1415786e+40)
(-3.5684568e+41 -1.3421935e+40 -3.7937129e+39)
(-3.7032705e+41 -1.2121403e+40 8.2503162e+39)
(-3.6837507e+41 -1.1824722e+40 4.8818939e+39)
(-3.7984394e+41 -6.5838079e+39 4.3487029e+40)
(-3.7935052e+41 -2.1146867e+40 4.5888914e+40)
(-3.6589567e+41 -1.2185854e+40 6.0804603e+39)
(-3.6377443e+41 -1.2356839e+40 4.2476547e+39)
(-3.7482019e+41 -8.3110349e+39 4.1044619e+40)
(-3.7486632e+41 -2.1883245e+40 4.1701921e+40)
(-3.6539993e+41 -8.3711105e+39 1.1339547e+40)
(-3.5132828e+41 -1.1797292e+40 -1.5541098e+40)
(-3.5332948e+41 -9.0372287e+39 -1.4548569e+40)
(-3.6566981e+41 -1.6715508e+40 1.2665082e+40)
(-3.6978412e+41 -6.8318114e+39 1.3188496e+40)
(-3.5517461e+41 -1.0528237e+40 -1.5266425e+40)
(-3.5625361e+41 -8.729853e+39 -1.2483931e+40)
(-3.7000934e+41 -1.6700386e+40 1.5710308e+40)
(-2.8908641e+41 -6.202517e+39 -1.5826643e+40)
(-2.9579096e+41 -3.9138441e+39 -3.6356495e+39)
(-2.8955926e+41 -3.6749086e+39 -1.4125184e+40)
(-2.9596799e+41 -7.3984228e+39 -2.2406357e+39)
(-2.9145917e+41 -5.6486801e+39 -1.6926272e+40)
(-2.9053562e+41 -3.5688751e+39 -1.5707635e+40)
(-2.9807251e+41 -3.091886e+39 -5.5574886e+39)
(-2.9685326e+41 -6.3125061e+39 -4.415224e+39)
(-2.9031823e+41 -5.952698e+39 -1.6913626e+40)
(-2.9680476e+41 -3.5321068e+39 -5.9158718e+39)
(-2.9090251e+41 -3.658592e+39 -1.5466896e+40)
(-2.9676713e+41 -6.3552526e+39 -4.6679564e+39)
(-2.9016461e+41 -5.9978004e+39 -1.5910238e+40)
(-2.969544e+41 -3.9873875e+39 -4.3622203e+39)
(-2.8928403e+41 -3.7237048e+39 -1.4453642e+40)
(-2.9575295e+41 -7.47179e+39 -2.974477e+39)
(-2.9513093e+41 -5.6715966e+39 -1.680662e+40)
(-3.002298e+41 -2.9685711e+39 -7.6045309e+39)
(-2.9461687e+41 -3.2313574e+39 -1.5867147e+40)
(-2.9907391e+41 -5.799299e+39 -6.8057661e+39)
(-2.9457537e+41 -5.5741617e+39 -1.6555492e+40)
(-2.9904543e+41 -3.7514494e+39 -7.926646e+39)
(-2.9493644e+41 -3.1528279e+39 -1.533852e+40)
(-2.9907102e+41 -6.2942754e+39 -6.8974154e+39)
(-3.0724486e+41 -3.3030262e+39 -7.4897193e+39)
(-3.0703401e+41 -6.3257787e+39 -6.5821289e+39)
(-3.0352515e+41 -6.2215382e+39 -2.0664368e+40)
(-3.0357099e+41 -4.7004112e+39 -1.9430288e+40)
(-3.0793983e+41 -2.9340519e+39 -7.356915e+39)
(-3.0697504e+41 -6.1086251e+39 -6.6673779e+39)
(-3.0316062e+41 -4.1259164e+39 -2.010322e+40)
(-3.0385312e+41 -6.0444157e+39 -2.101251e+40)
(-2.8596965e+41 -6.312957e+39 -1.7163358e+40)
(-2.8711519e+41 -3.3519356e+39 -1.5312329e+40)
(-2.9354147e+41 -3.8420477e+39 -4.6813739e+39)
(-2.943733e+41 -7.096808e+39 -3.0696831e+39)
(-2.8862192e+41 -5.1687867e+39 -1.7464958e+40)
(-2.9553799e+41 -2.6470007e+39 -5.9896279e+39)
(-2.9560955e+41 -5.5236419e+39 -4.0320467e+39)
(-2.8684185e+41 -6.0420013e+39 -1.831398e+40)
(-2.9386731e+41 -3.5837536e+39 -7.1153818e+39)
(-2.8819534e+41 -3.1573457e+39 -1.6779983e+40)
(-2.946071e+41 -6.0544519e+39 -5.6926366e+39)
(-2.8779258e+41 -5.6221129e+39 -1.6415379e+40)
(-2.877896e+41 -2.7982553e+39 -1.4013711e+40)
(-2.9487083e+41 -3.4627192e+39 -4.5974485e+39)
(-2.9403974e+41 -6.8970927e+39 -2.8934147e+39)
(-2.9163171e+41 -5.238951e+39 -1.7162623e+40)
(-2.9730538e+41 -2.4892274e+39 -7.8753324e+39)
(-2.9003241e+41 -5.840665e+39 -1.8049967e+40)
(-2.9555437e+41 -3.7596083e+39 -9.0295648e+39)
(-2.9124594e+41 -2.5306594e+39 -1.6738293e+40)
(-2.9655425e+41 -5.8510385e+39 -7.8400227e+39)
(-3.1839483e+41 -6.5060006e+39 1.7511333e+40)
(-3.1854559e+41 -7.0498854e+39 2.0356038e+40)
(-3.2543501e+41 -2.7716917e+39 4.4508093e+40)
(-3.2503021e+41 -1.2219547e+40 4.6988406e+40)
(-3.0790549e+41 -5.9583531e+39 1.1040591e+39)
(-3.0687267e+41 -6.5436921e+39 -7.0364618e+38)
(-3.1790455e+41 -2.6710131e+39 2.2902669e+40)
(-3.1853298e+41 -9.8102083e+39 2.4110118e+40)
(-3.0846051e+41 -6.4892341e+39 -1.2744263e+39)
(-3.0785048e+41 -6.2392409e+39 1.1193057e+39)
(-3.1963783e+41 -4.104387e+39 2.2071737e+40)
(-3.1911203e+41 -1.1306768e+40 2.4229205e+40)
(-3.1786188e+41 -6.6232184e+39 2.0499811e+40)
(-3.1747719e+41 -5.7062846e+39 1.9022499e+40)
(-3.2206935e+41 -3.5908552e+39 4.3894734e+40)
(-3.2314364e+41 -1.2686322e+40 4.5272758e+40)
(-2.9219885e+41 -6.2849805e+39 -1.4031299e+40)
(-3.0153973e+41 -4.2715066e+39 -1.0301833e+39)
(-2.9141797e+41 -4.5999192e+39 -1.2329717e+40)
(-3.0059291e+41 -8.5140557e+39 5.4429746e+38)
(-2.9788765e+41 -4.783176e+39 -9.4673743e+39)
(-2.9732575e+41 -6.8828634e+39 -1.1250105e+40)
(-3.067401e+41 -4.564175e+39 5.6659478e+39)
(-3.0743359e+41 -9.4929269e+39 7.158819e+39)
(-2.9105574e+41 -6.1507487e+39 -1.3387654e+40)
(-3.0021937e+41 -4.2138465e+39 -9.2943994e+38)
(-2.9162323e+41 -4.5706152e+39 -1.167976e+40)
(-3.0036813e+41 -8.2998205e+39 4.1900539e+38)
(-2.9849095e+41 -6.8395853e+39 -1.1691866e+40)
(-2.9796822e+41 -4.9803588e+39 -9.6857703e+39)
(-3.0853878e+41 -4.5484724e+39 5.4361424e+39)
(-3.0765566e+41 -9.7181341e+39 7.3175349e+39)
(-3.0561223e+41 -6.6492685e+39 -1.7940201e+39)
(-3.0697032e+41 -5.4941621e+39 1.1642217e+38)
(-3.1722666e+41 -3.2326023e+39 2.0949042e+40)
(-3.1803604e+41 -9.7132511e+39 2.247956e+40)
(-3.1659613e+41 -5.6784332e+39 1.737803e+40)
(-3.1737614e+41 -5.8547904e+39 1.9143409e+40)
(-3.2267732e+41 -3.1226977e+39 4.2725321e+40)
(-3.237312e+41 -1.1550899e+40 4.4270889e+40)
(-3.1829933e+41 -4.7292238e+39 1.8128902e+40)
(-3.1785427e+41 -5.6928302e+39 2.0726992e+40)
(-3.2614094e+41 -9.7893942e+38 4.5235368e+40)
(-3.2534114e+41 -1.1079539e+40 4.762571e+40)
(-3.0773845e+41 -5.3923824e+39 -1.2042624e+39)
(-3.0695297e+41 -5.0288266e+39 1.0015753e+39)
(-3.1941649e+41 -2.067649e+39 2.2556054e+40)
(-3.18954e+41 -9.5438909e+39 2.4554319e+40)
(-2.96834e+41 -6.2633304e+39 -1.187471e+40)
(-2.9609802e+41 -4.1664757e+39 -9.9472151e+39)
(-3.0758395e+41 -3.314146e+39 5.5581056e+39)
(-3.0685275e+41 -8.4497694e+39 7.3715467e+39)
(-2.886636e+41 -6.2880134e+39 -1.4607324e+40)