/*--------------------------------*- C++ -*----------------------------------*\
  =========                 |
  \\      /  F ield         | OpenFOAM: The Open Source CFD Toolbox
   \\    /   O peration     | Website:  https://openfoam.org
    \\  /    A nd           | Version:  7
     \\/     M anipulation  |
\*---------------------------------------------------------------------------*/
FoamFile
{
    version     2.0;
    format      ascii;
    class       surfaceScalarField;
    location    "0";
    object      phi;
}
// * * * * * * * * * * * * * * * * * * * * * * * * * * * * * * * * * * * * * //

dimensions      [0 3 -1 0 0 0 0];

internalField   nonuniform List<scalar> 
102259
(
-2.6152815e-07
0.00022856161
0.00022831138
0.00024308968
2.5153755e-06
0.00024289478
0.00022973737
0.00023015794
0.00022998839
2.4201472e-06
0.00023041291
-4.8704182e-07
3.0865443e-06
-5.7848104e-06
7.4921964e-07
5.9683474e-05
5.3632884e-05
5.5126854e-05
6.2554467e-05
3.0981925e-06
-5.7849287e-06
5.5187003e-05
5.3568572e-05
5.9630728e-05
6.2601749e-05
-4.0924134e-07
0.00019899555
7.1598113e-07
-2.5283668e-07
0.00022830762
0.00024290646
0.00022868077
0.00024319611
0.00019897676
2.3419246e-06
-5.3030328e-05
5.3466585e-05
5.3220773e-05
0.00080491258
5.1462983e-05
5.1704591e-05
-5.1520185e-05
-5.1766894e-05
-5.3282886e-05
4.9404325e-07
-1.2556754e-05
-1.3182071e-05
0.00025027291
1.108936e-05
1.1573777e-05
-1.2507061e-05
-1.3231454e-05
0.00025027299
7.6411396e-07
1.1152524e-05
1.1511045e-05
-2.890569e-06
4.8727022e-07
5.6260787e-05
6.0763017e-05
5.863864e-05
5.473462e-05
4.6746304e-07
5.5294485e-05
5.5437856e-05
5.6846016e-05
5.3895549e-05
-2.89123e-06
7.4776143e-07
5.4800213e-05
5.8687716e-05
6.071839e-05
5.6200194e-05
0.00022973289
0.00023010753
0.00023053314
0.00023015256
7.2139939e-07
5.536143e-05
5.3960822e-05
5.6784363e-05
5.5376315e-05
3.0987055e-06
7.2818218e-07
-5.7838826e-06
5.3560442e-05
5.5207655e-05
6.2619952e-05
5.9625693e-05
-1.7486927e-06
-7.2427334e-07
4.9461995e-05
1.8740948e-07
-8.0068864e-07
-3.2558641e-06
1.8970956e-07
1.2759903e-05
1.3128344e-05
1.4546746e-05
1.5316031e-05
1.6355848e-06
-1.5467245e-07
-3.286757e-06
1.5388117e-05
1.3196295e-05
1.2827521e-05
1.4720064e-05
-1.5205967e-07
5.0386358e-05
5.5472797e-07
1.6328157e-06
-3.2868782e-06
1.2842885e-05
1.4732478e-05
1.3180646e-05
1.5375665e-05
1.7516685e-06
-3.2559537e-06
1.3143543e-05
1.5327969e-05
1.2743879e-05
1.4533684e-05
-5.1189275e-07
4.9457602e-05
5.0388578e-05
6.1161487e-07
0.00019899503
3.0809675e-06
-5.7831842e-06
5.9702152e-05
5.3654437e-05
5.5116872e-05
6.2548164e-05
0.00019901683
5.3158407e-05
5.3515235e-05
-5.2965266e-05
-5.3335629e-05
0.00080475769
5.1753232e-05
5.1402554e-05
-5.1818329e-05
-5.1456937e-05
0.000199997
-4.7158779e-07
7.3010831e-07
-1.4375497e-05
-1.4978972e-05
1.3270697e-05
1.3070983e-05
-4.5901967e-07
7.0807155e-07
-1.3049535e-05
1.4076517e-05
1.452096e-05
-1.3392457e-05
0.00025105896
-0.00020000524
-1.3329819e-05
1.4583014e-05
1.4016252e-05
-1.3114433e-05
0.0002510758
2.1794301e-06
-5.0518985e-05
-5.0756996e-05
5.3620107e-05
5.3388863e-05
5.1208338e-05
-5.2082554e-05
-5.1848634e-05
5.0982038e-05
4.6956416e-07
-0.00020008836
0.00025146022
-0.00020008062
7.1812767e-07
0.00025144385
-4.7981843e-07
7.3643476e-07
-1.4915311e-05
1.3335055e-05
1.3006436e-05
-1.4439235e-05
-1.5190996e-09
-3.8241872e-06
-3.608162e-06
6.3566389e-05
2.2134434e-06
2.3247087e-06
1.5659593e-07
-3.653982e-06
-3.8245747e-06
6.4702443e-05
2.2558255e-06
2.3245164e-06
-7.3194235e-07
-1.2494364e-05
-1.3244099e-05
0.00025026336
1.1495681e-05
1.116886e-05
-1.3171344e-05
-1.2568723e-05
0.00025027168
1.1588755e-05
1.1075669e-05
-2.5002333e-07
-3.5956595e-06
-3.8366375e-06
6.3566473e-05
1.9215255e-07
2.3090387e-06
2.2291466e-06
-3.8123683e-06
-3.6665577e-06
6.4702578e-05
2.2402386e-06
2.3400694e-06
4.1121027e-06
4.9971409e-07
-1.7839144e-06
1.468392e-07
5.3286024e-05
5.7444351e-07
1.5830375e-07
1.3326909e-05
5.0815476e-05
-4.1189754e-06
1.292492e-05
5.0531428e-05
-1.7993885e-06
5.3030288e-05
-5.2417087e-07
2.0961825e-07
1.4269939e-05
1.3148792e-05
1.277639e-05
1.3737679e-05
-2.1180323e-07
5.0610242e-07
1.4931479e-07
1.2810634e-05
1.3125618e-05
1.2726292e-05
1.3044805e-05
1.5647863e-07
1.4293625e-05
1.3836332e-05
1.3178184e-05
1.2861508e-05
1.3095441e-05
1.2639126e-05
1.3013179e-05
7.2907838e-07
-2.8914031e-06
5.6281451e-05
6.0780364e-05
5.8634258e-05
5.472609e-05
4.1183862e-06
-7.328906e-07
-1.7976384e-06
1.8053695e-07
5.3031793e-05
-7.9914736e-07
1.2877107e-05
1.9413068e-07
5.0534008e-05
-4.1133511e-06
1.3376173e-05
5.0814676e-05
-1.7857918e-06
5.3286548e-05
-2.8924859e-06
6.0712521e-05
5.8705364e-05
5.4821996e-05
5.6189916e-05
-6.9934239e-07
5.5383945e-05
5.6774199e-05
5.3982619e-05
5.5365901e-05
5.686729e-05
5.5285982e-05
5.5458823e-05
5.3887161e-05
2.0967067e-07
-7.7304887e-07
1.9242185e-07
1.4258662e-05
1.3749907e-05
1.2792802e-05
1.3133353e-05
-7.4293866e-07
1.8321889e-07
1.2741613e-05
1.3079725e-05
1.2655401e-05
1.2997591e-05
2.1177207e-07
1.3824933e-05
1.4305425e-05
1.2845768e-05
1.319408e-05
1.3141753e-05
1.2794486e-05
1.3060801e-05
1.2710637e-05
-4.9809333e-07
1.751989e-06
-3.2557883e-06
1.3147761e-05
1.2741121e-05
1.453163e-05
1.5331515e-05
1.6317377e-06
2.3006407e-07
-3.2866256e-06
1.2847163e-05
1.3177676e-05
1.473607e-05
1.5373484e-05
4.6305358e-07
2.2601528e-07
5.0391309e-05
4.9459387e-05
-2.2438566e-07
1.1118561e-06
-1.7576388e-06
4.7663771e-08
3.0300033e-06
3.1149963e-06
3.814275e-06
3.6231203e-06
1.0971407e-06
-9.2395164e-08
-1.7826385e-06
3.1336168e-06
3.0442452e-06
3.6697025e-06
3.8342748e-06
-1.9719199e-07
1.2213246e-05
4.6892373e-08
-8.6091752e-08
1.2465426e-05
-1.0942972e-06
8.7598391e-08
1.2496364e-05
9.5378133e-08
-1.7849063e-06
3.0535764e-06
3.1300021e-06
3.837974e-06
3.6775755e-06
1.1140501e-06
-3.8945518e-08
-1.7673243e-06
3.124297e-06
3.0290587e-06
3.8296688e-06
3.6320893e-06
-3.8382725e-08
1.2293529e-05
1.1133465e-06
-1.5716228e-07
-1.7673312e-06
3.6352045e-06
3.0329449e-06
3.1203668e-06
3.8265688e-06
-1.4072007e-07
1.2294191e-05
1.0949962e-06
1.447194e-08
-1.7848945e-06
3.1338643e-06
3.049641e-06
3.6744018e-06
3.8410025e-06
9.7820203e-09
1.2495581e-05
1.0964501e-06
1.6250672e-07
-1.7826758e-06
3.048109e-06
3.12967e-06
3.6727977e-06
3.8311578e-06
1.4406724e-07
1.2465956e-05
1.112582e-06
-1.7576593e-06
3.8172984e-06
3.1188633e-06
3.0260141e-06
3.6199027e-06
1.2212305e-05
-1.7473404e-06
-7.785911e-07
4.9463443e-05
-8.6363775e-07
-3.255311e-06
1.3124633e-05
1.5313113e-05
1.455025e-05
1.2764258e-05
1.6357431e-06
-3.2863184e-06
1.320061e-05
1.2824188e-05
1.4717442e-05
1.5391618e-05
5.0387195e-05
6.6568554e-07
-0.00019998718
-1.3126862e-05
1.4001053e-05
1.4593978e-05
-1.3314467e-05
0.00025103417
-0.00019996715
-1.3031958e-05
1.4087724e-05
1.45037e-05
0.00025100073
-1.3405017e-05
-6.9219931e-07
-1.4358518e-05
-1.4993425e-05
1.3253684e-05
1.3085235e-05
1.3348462e-05
-1.4900251e-05
1.299133e-05
-1.4452794e-05
-5.0796071e-05
-5.0454803e-05
5.3325674e-05
5.1243321e-05
-5.1783694e-05
-5.2119289e-05
5.0921861e-05
-6.8089142e-07
-0.00020005234
0.00025138676
-0.00020007121
0.00025141909
7.0356334e-07
-1.0326425e-07
5.1589004e-05
1.8380365e-07
2.9904403e-06
2.9351522e-06
-4.1139511e-06
-4.2901929e-06
5.2253295e-05
-1.4999123e-07
2.94503e-06
3.0152638e-06
-4.2783717e-06
-4.1648965e-06
1.1346732e-07
6.5830056e-05
-1.5014883e-07
-3.6783311e-06
3.5870503e-06
3.452378e-06
-3.6305163e-06
6.4812259e-05
1.8390316e-07
-3.5716437e-06
3.5750757e-06
3.4502857e-06
-3.6764481e-06
5.0886176e-05
-1.516247e-07
1.8185795e-07
-3.1917047e-06
3.7270303e-06
3.6568207e-06
-3.3458127e-06
-1.5513524e-07
1.7605428e-07
-3.1524559e-06
-3.0563643e-06
3.6985277e-06
3.8235161e-06
6.3628516e-05
-5.1542847e-05
-1.4475853e-07
3.7131681e-06
3.8479151e-06
-3.141936e-06
6.4735944e-05
-3.1017049e-06
-1.4882892e-07
3.67953e-06
3.7638387e-06
-3.3234789e-06
-3.2279599e-06
-4.4652274e-07
0.00019643967
6.8281346e-07
-1.2266787e-05
-1.2801311e-05
1.4583423e-05
1.4348683e-05
5.1543957e-05
-8.3447394e-08
-6.5831172e-05
-3.2125859e-06
3.7481625e-06
3.6955196e-06
-3.3390925e-06
-7.3795888e-08
3.8329625e-06
3.728388e-06
-3.1575825e-06
-3.0859323e-06
6.4738147e-05
-5.0890319e-05
3.8391385e-06
-3.1369723e-06
-6.4815882e-05
-3.3303224e-06
3.7432248e-06
-3.2074316e-06
0.00019645965
-1.2741819e-05
1.4645498e-05
-4.2977291e-07
6.5731885e-07
0.00024598752
1.38934e-05
-1.2041513e-05
-1.2352798e-05
1.4345528e-05
1.4404365e-05
-1.2295111e-05
-0.00019962248
-4.374906e-07
6.6363725e-07
4.5681989e-07
0.00019964227
6.926242e-07
5.2253634e-05
-1.3389407e-07
-4.1491551e-06
-4.294112e-06
2.9612389e-06
2.9994292e-06
-1.2340484e-07
-3.6144521e-06
-3.6942799e-06
3.467939e-06
3.5715395e-06
-5.1590674e-05
3.4348606e-06
3.590979e-06
-3.660482e-06
-3.5879376e-06
2.91901e-06
3.0065932e-06
-4.2742903e-06
-4.1297733e-06
-1.4234627e-09
-1.2024402e-06
-1.1359566e-06
1.6044295e-05
3.6470266e-07
3.8733511e-07
2.0439961e-08
-1.1537709e-06
-1.2022673e-06
1.6362931e-05
3.7477791e-07
3.871218e-07
-4.2132643e-08
3.9036977e-08
-1.1385401e-06
-1.2083527e-06
1.6143479e-05
3.706313e-07
3.858834e-07
-1.1548068e-06
-1.2041899e-06
1.6393351e-05
3.9211641e-07
3.7192428e-07
3.1246321e-07
-2.3161515e-07
-3.6695785e-06
-3.8092879e-06
6.4700475e-05
2.343917e-06
2.2364695e-06
-3.8396806e-06
-3.592247e-06
6.3563038e-05
2.2331935e-06
2.3050259e-06
-5.5048561e-08
-3.6510245e-06
-3.8274336e-06
6.4701428e-05
2.2595391e-06
2.3209703e-06
-3.6109987e-06
-3.821479e-06
6.3566267e-05
2.2100643e-06
2.3282814e-06
6.3354614e-08
-5.76472e-08
-1.1569159e-06
-1.1992199e-06
1.6362985e-05
3.9100087e-07
3.708927e-07
-1.2055411e-06
-1.1328283e-06
1.6044309e-05
4.7749627e-08
3.6861289e-07
3.8343128e-07
1.9693287e-08
-1.2052765e-06
-1.1416616e-06
1.6143507e-05
3.6675546e-07
3.8977871e-07
-1.2072445e-06
-1.151674e-06
1.6393322e-05
3.7581436e-07
3.882537e-07
-5.5532901e-07
1.1235921e-05
1.1137052e-05
6.8183885e-07
0.00022098436
1.1199739e-05
1.1172973e-05
3.5318072e-06
-7.0018923e-09
-3.6367451e-06
-3.5277572e-06
1.3656704e-07
5.3183421e-05
1.7928931e-06
1.8127988e-06
-3.3770387e-09
1.5733554e-07
-3.5270469e-06
-3.6370826e-06
-3.514825e-06
1.7991388e-06
1.8005839e-06
-1.3240798e-06
1.6099967e-07
-9.3332223e-09
1.1805273e-05
1.4048887e-07
-6.047339e-09
-4.9190094e-07
1.2182164e-05
1.3196922e-06
1.1734426e-05
-1.4838353e-07
3.856286e-07
4.9446944e-07
3.9886255e-08
3.1003824e-06
3.216181e-06
2.8232819e-06
2.8991784e-06
3.8851381e-07
4.9184705e-07
6.5904484e-09
3.225643e-06
3.1176121e-06
2.9108706e-06
2.8361478e-06
-1.4103646e-07
3.7412301e-08
2.7276975e-06
2.8007353e-06
3.0000785e-06
2.9196996e-06
8.6837273e-09
3.0123889e-06
2.9334104e-06
2.8129764e-06
2.7399222e-06
1.6018062e-07
-1.3265642e-06
1.1813923e-05
-1.3252964e-06
3.9227567e-08
1.1754832e-05
1.4455113e-07
1.2192859e-05
3.7140247e-08
1.2138085e-05
3.8712374e-07
3.1167354e-06
3.2210279e-06
2.8356572e-06
2.9065677e-06
-1.3852393e-07
2.7995655e-06
2.9987994e-06
2.7392275e-06
2.9322695e-06
2.8085416e-06
3.0077494e-06
4.1122331e-06
4.4594658e-07
2.185576e-07
-1.7836145e-06
5.3288303e-05
5.226537e-07
2.355156e-07
1.331666e-05
5.0817779e-05
-4.1195545e-06
1.2937003e-05
5.0533565e-05
-1.7998714e-06
5.3032863e-05
3.5271157e-06
-2.6640276e-07
-3.6492578e-06
-3.5030513e-06
1.6743832e-07
5.3156149e-05
1.8144515e-06
1.7853107e-06
-2.4839696e-07
1.9291554e-07
6.5352503e-05
-3.5320699e-06
6.5392703e-05
-3.539717e-06
-3.6247366e-06
5.3183423e-05
1.8081072e-06
1.7975537e-06
8.5677728e-07
-4.1139982e-06
1.3389452e-05
5.0815766e-05
-4.1185448e-06
1.2865529e-05
5.0534893e-05
-7.9269342e-07
-1.7973208e-06
5.3032653e-05
-1.7863982e-06
5.328815e-05
-8.3688388e-07
2.0945034e-07
1.279728e-05
1.3753266e-05
1.4255975e-05
1.312958e-05
2.1156636e-07
-2.329069e-07
1.3198471e-05
1.4308816e-05
1.3822597e-05
1.284234e-05
-8.0365177e-07
1.2746251e-05
1.3075944e-05
1.2659829e-05
1.299377e-05
-2.2222131e-07
1.3146257e-05
1.2791008e-05
1.3065202e-05
1.2707218e-05
4.6676585e-07
2.1164372e-07
1.2865889e-05
1.3839713e-05
1.4291601e-05
1.3175153e-05
2.0946568e-07
1.3153068e-05
1.4273336e-05
1.3735871e-05
1.2773541e-05
4.5149949e-07
1.2815159e-05
1.312258e-05
1.2730638e-05
1.3041742e-05
1.2721938e-05
1.3017479e-05
1.3099823e-05
1.2636295e-05
2.1665032e-07
-1.324467e-06
-8.7938921e-08
1.1805133e-05
-1.3194762e-06
1.1734895e-05
4.808799e-08
-1.9924714e-07
-4.9414522e-07
4.5498577e-08
1.2121197e-05
-4.9241315e-07
-8.0273882e-08
1.2182307e-05
-2.0623574e-07
3.8172976e-07
4.8840875e-08
3.0967701e-06
3.2116127e-06
2.8207483e-06
2.8939911e-06
3.8717791e-07
-8.6239932e-08
3.2240196e-06
3.1138571e-06
2.9106104e-06
2.8316384e-06
-1.9778112e-07
4.5818714e-08
2.9161667e-06
2.9949036e-06
2.7248001e-06
2.7955791e-06
-8.3542897e-08
3.0117037e-06
2.9283987e-06
2.8125912e-06
2.7351904e-06
-1.0466461e-07
-1.3255725e-06
1.1754665e-05
-1.3262384e-06
1.1814329e-05
-8.5914207e-08
-4.9492488e-07
1.2138162e-05
-4.9136361e-07
1.219301e-05
8.527655e-08
3.8842328e-07
3.1205694e-06
3.2227411e-06
2.8402314e-06
2.9069046e-06
3.8566604e-07
3.2191515e-06
3.0974554e-06
2.9032062e-06
2.8192408e-06
8.1886478e-08
2.7440294e-06
2.9373431e-06
2.8090081e-06
3.0085074e-06
2.8047811e-06
2.7236501e-06
3.0040258e-06
2.9158159e-06
1.4871508e-07
1.0962247e-06
3.3724381e-09
-1.7826238e-06
3.049066e-06
3.1288732e-06
3.8305506e-06
3.6735805e-06
1.1126887e-06
-1.7576301e-06
3.1198164e-06
3.8180733e-06
3.0252396e-06
3.6193042e-06
-1.3224112e-07
1.2212446e-05
7.6693706e-09
1.2466358e-05
-1.7166931e-07
1.1130857e-06
5.7740059e-08
-1.7672312e-06
3.0339076e-06
3.1194822e-06
3.6359733e-06
3.8258728e-06
1.0950724e-06
-1.7848107e-06
3.8417627e-06
3.1348212e-06
3.0487992e-06
3.673732e-06
-1.5318552e-07
5.6878776e-08
1.2294447e-05
1.2495601e-05
-5.6172727e-08
5.7800519e-07
-9.624323e-07
1.2205037e-08
7.4866308e-07
7.2936568e-07
9.6508019e-07
1.0152828e-06
5.7977559e-07
-2.6290181e-08
-9.7765972e-07
7.3236535e-07
7.5309507e-07
1.0201959e-06
9.7733729e-07
4.6505285e-08
-2.4008576e-08
3.1660101e-06
3.1029688e-06
1.183529e-08
1.9037074e-08
5.7969311e-07
-9.7913766e-07
7.5206499e-07
7.3484871e-07
9.7944907e-07
1.0213706e-06
5.807032e-07
-1.6543319e-08
-9.6777778e-07
7.2874164e-07
7.5109181e-07
1.0195226e-06
9.6754182e-07
-1.6264372e-08
-1.5582709e-08
3.1253334e-06
3.1744772e-06
-4.2597831e-08
5.8027143e-07
-9.6813453e-07
7.498902e-07
7.3031693e-07
9.6864564e-07
1.0186408e-06
5.8043863e-07
-1.9452619e-09
-9.7994542e-07
7.3377385e-07
7.5341646e-07
1.0227202e-06
9.7894541e-07
3.6326105e-08
-2.9163782e-09
3.1777571e-06
3.1269194e-06
3.6169249e-08
5.8008858e-07
-9.7892945e-07
9.7890339e-07
7.3389602e-07
7.5210969e-07
1.0201162e-06
5.7897825e-07
-9.9584724e-09
-9.6403676e-07
7.2842051e-07
7.5011826e-07
1.0169094e-06
9.6479703e-07
2.9825811e-08
3.1717397e-06
-9.6707764e-09
3.1089001e-06
-5.7883379e-07
-4.320207e-08
3.1090305e-06
-5.203859e-08
-9.6404495e-07
7.4910537e-07
7.2942239e-07
9.6558857e-07
1.0161221e-06
5.8023717e-07
-1.7988937e-08
-9.7891358e-07
7.3288852e-07
7.5311107e-07
1.0208912e-06
9.7810487e-07
-1.6344435e-08
3.1715945e-06
2.6679078e-08
5.8029935e-07
-9.7995631e-07
7.347761e-07
9.797376e-07
7.5240777e-07
1.0219363e-06
5.8042365e-07
-3.453977e-09
-9.6812277e-07
1.0194231e-06
7.5089953e-07
7.2930722e-07
9.6784555e-07
-2.2895084e-08
-3.8520017e-09
3.1267643e-06
3.1778748e-06
-3.4981705e-08
5.8055813e-07
-9.6778959e-07
7.5007124e-07
7.2974242e-07
9.6833103e-07
1.0187272e-06
5.7983921e-07
6.29017e-09
-9.7912248e-07
1.0221441e-06
7.5306628e-07
7.338334e-07
9.7864243e-07
-2.9713165e-08
3.125449e-06
4.6984798e-09
3.1743176e-06
-5.7963018e-07
3.3075959e-08
3.1661147e-06
4.0221224e-08
-9.7766798e-07
7.5207841e-07
7.3336787e-07
9.7812749e-07
1.0194042e-06
5.7815457e-07
7.283466e-07
7.4967287e-07
1.0160624e-06
9.642704e-07
3.1027937e-06
1.0971609e-06
2.4042265e-07
-1.1213999e-07
-1.7824331e-06
3.1345738e-06
3.0432173e-06
3.8349837e-06
3.6688384e-06
2.109482e-07
-1.0539248e-07
1.2465028e-05
-1.1114956e-06
1.2213085e-05
-1.7574069e-06
3.0309651e-06
3.1139102e-06
3.6238392e-06
3.8133669e-06
8.0134503e-08
1.0939905e-06
-1.7847449e-06
3.6783264e-06
3.0545427e-06
3.1290316e-06
3.8371871e-06
1.1141101e-06
-1.7671914e-06
3.125263e-06
3.0281301e-06
3.8304144e-06
3.631332e-06
-7.4509813e-08
1.2293354e-05
1.2496429e-05
5.0884288e-05
1.3474965e-07
-6.4810497e-05
3.6373302e-06
3.7462017e-06
-3.2104484e-06
-3.3266512e-06
1.2291175e-07
-3.0754463e-06
-3.1332476e-06
3.8417688e-06
3.6800565e-06
6.3625331e-05
-5.1536326e-05
2.0935236e-07
-3.0819888e-06
3.8289882e-06
3.730998e-06
-3.160525e-06
6.4726395e-05
2.1646864e-07
-6.5824165e-05
3.7441298e-06
3.6985154e-06
-3.20878e-06
-3.3421996e-06
6.4088301e-07
0.00019641654
-1.2338145e-05
-1.2726679e-05
1.4655155e-05
1.4273073e-05
5.087528e-05
-2.0730243e-07
-6.4801551e-05
3.7224138e-06
-3.3490632e-06
-2.0808023e-07
-3.1555273e-06
3.8189541e-06
-5.1533823e-05
3.8504663e-06
-3.1378409e-06
6.4721986e-05
3.7089366e-06
-3.1047812e-06
-1.2811887e-05
1.4565637e-05
-6.5821242e-05
3.6752259e-06
-3.2311083e-06
3.766827e-06
-3.3193947e-06
-1.6182172e-07
5.1583041e-05
-4.1096079e-06
2.9861015e-06
-4.2938991e-06
5.224887e-05
-2.206764e-07
2.9409373e-06
3.0188635e-06
-4.1684755e-06
-4.2743141e-06
1.7065054e-07
-2.1969911e-07
-3.6742031e-06
3.5902482e-06
-3.6339972e-06
3.4482815e-06
3.5706513e-06
-3.6799715e-06
-5.2250241e-05
-1.758168e-07
3.4710928e-06
3.5676778e-06
-3.6976151e-06
-3.6105158e-06
-1.8722418e-07
2.9956391e-06
2.9648069e-06
-4.1453582e-06
-4.2975944e-06
-5.1588454e-05
-3.6567816e-06
3.5941045e-06
3.4312526e-06
-3.5912356e-06
2.9153935e-06
3.0100322e-06
-4.2706834e-06
-4.1331491e-06
1.4412138e-05
-1.2280186e-05
-1.2112549e-05
1.3822316e-05
-0.00019956308
-6.2078611e-07
-6.5602145e-07
0.00019959889
2.4849258e-08
-1.3373666e-05
-4.149098e-08
1.6962295e-05
8.0053418e-07
7.6875742e-07
-1.0825615e-06
-1.0682948e-06
-1.3181551e-05
1.6663618e-05
4.5606824e-08
7.6764553e-07
-1.051492e-06
7.9758769e-07
-1.081429e-06
-1.8929405e-08
4.5368476e-08
5.8263602e-07
-1.2018483e-06
5.9247021e-07
-1.2508923e-06
-4.0230927e-08
5.9888713e-07
-1.248007e-06
5.8578585e-07
-1.2162439e-06
3.9667604e-08
-1.3249782e-05
1.6762837e-05
-3.7352952e-08
8.0337102e-07
7.653805e-07
-1.0799669e-06
-1.0591452e-06
-1.3396205e-05
1.6991871e-05
7.7302092e-07
-1.0645263e-06
7.9777666e-07
-1.0885081e-06
-4.240211e-08
5.9063463e-07
-1.212115e-06
5.9637437e-07
-1.2539748e-06
-3.7108306e-08
5.9924179e-07
5.8114512e-07
-1.2483156e-06
-1.2085417e-06
1.3324772e-05
-2.6396743e-08
3.5525507e-08
8.973123e-07
-8.9557412e-07
9.0930983e-07
-9.3141035e-07
-2.4925108e-08
3.9975111e-08
1.6701442e-05
9.2393676e-07
9.5007068e-07
-8.2944723e-07
-8.4924079e-07
-1.3175239e-05
1.6445424e-05
-3.6718633e-08
9.5245946e-07
9.1289052e-07
-8.4395052e-07
-8.2742934e-07
-3.7342894e-08
9.08945e-07
8.8388533e-07
-9.2910955e-07
-8.9569767e-07
1.311113e-05
-3.5504153e-08
4.5557892e-08
8.8657111e-07
-8.8830229e-07
9.0292607e-07
-9.3040897e-07
3.9574183e-08
-1.3303593e-05
1.6681163e-05
9.5364027e-07
9.2002e-07
-8.4294306e-07
-8.3282788e-07
1.6357959e-05
4.4759521e-08
9.1576913e-07
-8.1969212e-07
9.4712724e-07
-8.449424e-07
9.1297145e-07
8.9329795e-07
-9.2515045e-07
-8.9884567e-07
1.2826731e-05
-3.3114772e-08
4.4630426e-08
9.4494233e-07
-7.7208243e-07
9.6404858e-07
-8.0890608e-07
3.5660356e-08
-1.3015264e-05
1.6393857e-05
-4.7484784e-08
9.7376885e-07
9.3845628e-07
-7.8003238e-07
-7.7194706e-07
1.6103292e-05
4.5122973e-08
9.3707148e-07
-7.5659903e-07
9.6978011e-07
-7.7946261e-07
-4.2374036e-08
9.7135583e-07
9.4907191e-07
-8.0626123e-07
-7.8482894e-07
4.2401344e-08
1.2845314e-05
-4.0975704e-08
9.7982656e-07
-7.824414e-07
9.5803142e-07
-7.607689e-07
1.2661913e-05
4.4883268e-08
9.517188e-07
-7.50932e-07
9.6986096e-07
-7.8811789e-07
-4.3296969e-08
4.3445095e-08
-6.66794e-07
-6.8860601e-07
9.8066064e-07
1.5721314e-05
1.0137076e-06
-4.2870149e-08
-6.8626325e-07
-6.7897051e-07
1.6027981e-05
9.8524782e-07
1.0203936e-06
-1.1979338e-07
4.9864455e-05
1.7270248e-07
-2.947433e-06
-3.0875823e-06
3.701776e-06
3.7775904e-06
2.2040184e-08
-1.2726412e-05
-3.5881797e-08
-6.8669874e-07
-6.7368375e-07
1.5814967e-05
9.7887179e-07
1.0199529e-06
-1.2867831e-05
-6.7497503e-07
-6.9187825e-07
1.6054417e-05
1.0175955e-06
9.8975038e-07
-2.3547901e-08
-1.6422563e-05
9.6322762e-07
-7.5667572e-07
9.7683213e-07
-7.8801811e-07
5.0510007e-05
-1.4248744e-07
-2.9924426e-06
-3.077493e-06
3.8024289e-06
3.7147881e-06
-1.6199633e-05
-3.702341e-08
9.7711481e-07
-7.8525455e-07
9.5017206e-07
-7.5704959e-07
3.3053693e-08
-1.2889422e-05
-3.7144598e-08
9.7695031e-07
-7.7654475e-07
9.3578868e-07
-7.6280095e-07
-1.3036009e-05
9.4382629e-07
-7.6722537e-07
9.7119941e-07
-7.8495269e-07
-3.2354352e-08
9.5467082e-07
-7.8022157e-07
9.6873615e-07
-8.1125275e-07
-3.6661283e-08
9.7166135e-07
-8.056364e-07
9.4397704e-07
-7.7766106e-07
1.2300151e-07
-1.4236824e-07
6.366513e-05
3.6573341e-06
3.7946987e-06
-3.0196803e-06
-2.9847484e-06
6.2676681e-05
1.7237824e-07
-2.9307382e-06
3.6534626e-06
3.7827478e-06
-3.0184266e-06
1.2889509e-05
-2.5523941e-08
-1.6445548e-05
9.479414e-07
-7.7386575e-07
9.6772325e-07
-8.0949509e-07
2.5324789e-08
-1.3036452e-05
1.642317e-05
-2.6732618e-08
9.7508583e-07
9.4002518e-07
-7.8105639e-07
-7.7122442e-07
1.6199833e-05
9.3963139e-07
-7.5884834e-07
9.7308816e-07
-7.8050502e-07
-3.1025345e-08
-1.6701931e-05
9.7267386e-07
9.5072062e-07
-8.0745893e-07
-7.8406427e-07
3.4566859e-08
-1.2868419e-05
-2.8858648e-08
-6.8803654e-07
-6.789711e-07
1.6055235e-05
9.8609807e-07
1.0213326e-06
-1.2726628e-05
-6.697507e-07
-6.9062394e-07
1.5815243e-05
1.0162492e-06
9.8257536e-07
3.4698241e-08
-3.2915551e-08
9.808196e-07
-7.8419863e-07
9.5928944e-07
-7.6053312e-07
9.5415856e-07
-7.5323306e-07
9.7315773e-07
-7.8913525e-07
5.0511954e-05
-3.0925602e-06
-2.9775907e-06
3.7303861e-06
3.7873744e-06
-1.2846278e-05
-6.7505909e-07
-6.9019879e-07
1.0167826e-06
9.8903115e-07
-1.6394951e-05
9.6208461e-07
-7.5698917e-07
9.7597861e-07
-7.863768e-07
1.3015966e-05
-2.4894649e-08
-1.6681883e-05
9.531094e-07
-7.8103729e-07
9.6749682e-07
-8.1012048e-07
9.4235892e-07
-7.6801209e-07
9.6997413e-07
-7.8400422e-07
-1.635903e-05
9.680887e-07
-8.0508851e-07
9.4103286e-07
-7.7596233e-07
6.3668375e-05
-2.9695418e-06
3.6721889e-06
3.7801473e-06
-3.0349154e-06
-1.2355738e-05
-1.1849702e-05
1.1532651e-05
1.2116112e-05
-4.9185108e-05
-1.4051946e-07
1.6288215e-07
6.1537804e-05
3.59694e-06
-2.8564864e-06
-2.9449907e-06
3.7228332e-06
-1.4803337e-07
1.6852676e-07
3.7326535e-06
3.6616333e-06
-2.9103696e-06
-3.0543617e-06
4.9825728e-05
-1.3939156e-07
-3.0325912e-06
3.7684823e-06
3.6855698e-06
-2.9435293e-06
-1.3539309e-07
6.2645079e-05
-2.9363499e-06
3.7441662e-06
-2.8995718e-06
3.6127738e-06
-4.9828167e-05
-2.8849909e-06
3.6271115e-06
-2.9509541e-06
-2.9291912e-06
3.7005868e-06
3.7538857e-06
-3.0473807e-06
-1.6072447e-08
1.324976e-05
5.8510059e-07
-1.2046679e-06
5.9532105e-07
-1.2522288e-06
1.3396323e-05
-3.3992705e-08
6.0026552e-07
5.8666624e-07
-1.2500965e-06
-1.2160055e-06
-1.8895487e-08
1.6762889e-05
7.6920558e-07
-1.0551966e-06
7.9952377e-07
-1.0838947e-06
1.6992172e-05
-3.3085984e-08
8.0162744e-07
-1.0846094e-06
7.6921738e-07
-1.068487e-06
-3.2220465e-08
1.3175305e-05
8.8784607e-07
9.0501492e-07
-8.9188122e-07
-9.3297571e-07
1.3325112e-05
-3.9077499e-08
9.1324257e-07
8.9336938e-07
-9.2757978e-07
-8.9940695e-07
-3.2976405e-08
9.1670167e-07
-8.234846e-07
9.4862228e-07
-8.4789356e-07
-3.3525029e-08
9.5390845e-07
9.201415e-07
-8.453588e-07
-8.334371e-07
1.8464509e-08
-1.311179e-05
9.5105163e-07
9.1199528e-07
-8.4102622e-07
-8.2371125e-07
-1.3303978e-05
9.2388833e-07
9.4986451e-07
-8.2887383e-07
-8.4687503e-07
-2.3244678e-08
-1.696264e-05
8.9730247e-07
9.0909432e-07
-8.9503451e-07
-9.2902125e-07
-1.6664193e-05
9.0691972e-07
8.8263053e-07
-9.2655061e-07
-8.9217733e-07
3.383924e-08
-1.3181809e-05
8.0148975e-07
-1.0774997e-06
7.6382536e-07
-1.0554871e-06
-1.33738e-05
7.7260537e-07
-1.064342e-06
7.967155e-07
-1.0864815e-06
-3.9672584e-08
5.8977239e-07
-1.2123538e-06
5.9500202e-07
-1.2518981e-06
5.9641992e-07
-1.2469666e-06
5.7866179e-07
-1.2057553e-06
2.0005264e-09
-3.8476891e-07
-3.6404997e-07
4.0875284e-06
6.9675878e-08
6.4838472e-08
4.7726199e-09
-3.6968141e-07
-3.8492059e-07
4.1686408e-06
6.7164189e-08
6.9472221e-08
-7.3551302e-09
8.0674856e-09
-3.6521425e-07
-3.8638186e-07
4.1154402e-06
6.6291315e-08
6.9374239e-08
-3.8578005e-07
-3.6989562e-07
4.1773271e-06
7.0695998e-08
6.6507228e-08
-1.1694752e-08
9.7898074e-09
-3.6359164e-07
-3.8571626e-07
4.0960769e-06
6.5849572e-08
6.894391e-08
-1.1633842e-08
-3.8467912e-07
-3.7045217e-07
4.1755905e-06
7.0502781e-08
6.6451357e-08
-5.3033126e-09
-3.6945418e-07
-3.8647262e-07
4.1821702e-06
6.7451579e-08
6.9963251e-08
-3.8587711e-07
-3.65671e-07
4.1172968e-06
7.0254984e-08
6.5446598e-08
-3.4811965e-08
7.7211736e-08
-1.1508458e-06
-1.2079519e-06
1.6392647e-05
3.7678308e-07
3.8730408e-07
-5.7686675e-08
-1.2044947e-06
-1.1423827e-06
1.6143012e-05
3.9072696e-07
3.658281e-07
-7.9238017e-08
-1.1319325e-06
-1.2062646e-06
1.6043286e-05
3.6962918e-07
3.8242051e-07
-1.1983785e-06
-1.1576514e-06
1.636215e-05
3.9198641e-07
3.6991237e-07
-5.6534609e-08
-1.1377768e-06
-1.2090552e-06
1.6143122e-05
3.7155705e-07
3.8497698e-07
-3.8182661e-08
-1.2034719e-06
-1.1555147e-06
1.6393134e-05
3.9301805e-07
3.7104449e-07
1.2296002e-08
-1.2017649e-06
-1.1366469e-06
1.6044294e-05
3.8820703e-07
3.6386502e-07
-1.2029473e-06
-1.1530579e-06
1.6362817e-05
3.7566599e-07
3.8626929e-07
-8.2616868e-09
1.4887656e-08
-3.6910271e-07
-3.8655341e-07
4.1772918e-06
6.7476503e-08
6.9735691e-08
-1.1589317e-08
-3.856028e-07
-3.6600492e-07
4.1154841e-06
7.0344809e-08
6.5328187e-08
-1.3623337e-08
-3.6325887e-07
-3.8555343e-07
4.0875042e-06
1.1991338e-08
6.58101e-08
6.8705744e-08
-3.8414951e-07
-3.7047734e-07
4.168694e-06
7.0437581e-08
6.6197904e-08
3.846717e-09
-3.8493925e-07
-3.6437895e-07
4.0961147e-06
6.9910202e-08
6.4888034e-08
7.9593621e-09
-3.6966138e-07
-3.8544775e-07
4.1755491e-06
6.9545977e-08
6.7416087e-08
-1.0285608e-08
-3.6488127e-07
-3.8665563e-07
4.117261e-06
6.6412466e-08
6.9289173e-08
-3.8570177e-07
-3.7024502e-07
4.1822151e-06
6.6488799e-08
7.0923947e-08
8.2404316e-07
1.1214305e-05
1.1158838e-05
0.00022098229
1.1121102e-05
1.1251691e-05
0.00022097462
-1.5157042e-05
-1.52337e-05
6.4475563e-07
0.00022495807
1.1821179e-05
1.1751e-05
1.3004554e-07
-4.930805e-06
-4.9158426e-06
5.6147872e-05
1.5859166e-06
1.5712801e-06
4.3951473e-08
-1.9237165e-08
-1.3524371e-06
1.4934521e-05
-1.3517331e-06
3.6184727e-08
1.4927118e-05
-7.1661372e-09
-1.3520028e-06
1.4931451e-05
1.9547463e-08
-1.0375049e-06
-1.0649351e-06
3.5919175e-06
3.5235651e-06
2.8981552e-06
2.9038164e-06
-2.496875e-09
-6.2384787e-09
-4.4564493e-08
-3.4479487e-07
1.0313119e-06
9.4586214e-09
2.4489689e-06
-3.4471108e-07
-1.628055e-08
1.0685412e-06
2.4640626e-06
-4.4725598e-08
-9.6532192e-08
9.9462724e-09
5.7825012e-07
7.0273149e-07
5.9384466e-07
7.3496537e-07
-1.623172e-08
-9.7045347e-08
7.3804498e-07
7.0718799e-07
5.9742274e-07
5.8035653e-07
2.428407e-08
-3.4494098e-07
1.0641411e-06
2.4658785e-06
-3.4599177e-07
1.0393408e-06
-4.4110076e-09
2.4529541e-06
2.1743726e-08
-9.715705e-08
5.8212667e-07
7.0864642e-07
5.9663491e-07
7.3769978e-07
-9.6609279e-08
-4.7547218e-09
7.3659644e-07
7.0311192e-07
5.9549224e-07
5.7805795e-07
-3.9707298e-08
4.7452187e-07
9.3167645e-09
5.3538895e-07
5.4321185e-07
5.5807327e-07
5.5035936e-07
4.8012064e-07
-1.4901014e-08
5.4539132e-07
5.6149616e-07
5.3793391e-07
5.5394168e-07
4.1705965e-08
-1.5305688e-08
5.360226e-07
7.1913556e-07
6.9954644e-07
5.201781e-07
9.0626047e-09
6.964299e-07
5.1801718e-07
5.3250785e-07
7.1586438e-07
2.0535491e-08
-4.8078864e-07
5.2196465e-07
5.3541098e-07
7.1862421e-07
7.0137708e-07
-4.7636584e-07
-3.8817341e-09
7.1753523e-07
5.3410999e-07
5.179585e-07
6.9646327e-07
1.8955289e-08
5.6082124e-07
5.4721831e-07
5.5334984e-07
5.3978699e-07
-4.4565022e-09
5.4304006e-07
5.5979814e-07
5.353643e-07
5.5215655e-07
5.3071774e-08
-3.7706198e-09
-4.6513808e-09
3.521448e-06
3.5950705e-06
2.9066187e-06
2.8956574e-06
3.5132154e-08
-1.7124686e-09
-7.2705138e-09
3.5909272e-06
3.5221209e-06
2.8973152e-06
2.9027522e-06
-3.178408e-08
-3.4575167e-07
2.4523568e-06
-3.4488027e-07
2.4650271e-06
-3.0963243e-08
-9.653349e-08
7.3590095e-07
7.0349062e-07
5.7848596e-07
5.9476509e-07
-9.7109728e-08
5.971948e-07
7.3804663e-07
7.0782323e-07
5.8118794e-07
4.7958476e-07
-2.9775433e-09
5.3836672e-07
5.4586719e-07
5.6052023e-07
5.5297735e-07
-4.0357537e-09
7.0011902e-07
5.2058409e-07
5.3507821e-07
7.1819966e-07
4.7619807e-07
-2.7626377e-08
5.589432e-07
5.4354752e-07
5.3592967e-07
5.5124758e-07
-2.8572655e-08
6.9694991e-07
5.1837308e-07
5.3332576e-07
7.1671976e-07
4.8049876e-07
5.5393155e-07
5.6145801e-07
5.4617897e-07
5.387618e-07
5.2097569e-07
5.3596194e-07
7.1923938e-07
7.0033491e-07
3.5320144e-06
-6.946803e-08
2.0225436e-07
-3.5250615e-06
-3.6396861e-06
5.318253e-05
1.7893206e-06
1.8163525e-06
-6.0829133e-08
2.3293763e-07
6.5391973e-05
-3.5273571e-06
6.5351815e-05
-3.6345333e-06
-3.5176711e-06
5.315594e-05
1.8039874e-06
1.795741e-06
3.6987234e-06
-1.5672904e-07
1.5931127e-07
-4.9334822e-06
-4.9114928e-06
5.6143658e-05
1.5873341e-06
1.5687749e-06
-6.4799189e-08
-1.3505219e-06
4.4374788e-08
1.4920273e-05
-5.3327994e-08
-1.3520738e-06
1.4931025e-05
-1.547951e-07
5.385577e-05
1.9319986e-07
-3.6988826e-06
5.3860813e-05
-4.9313589e-06
-4.9152773e-06
5.6147322e-05
1.5867628e-06
1.5703848e-06
-1.3467401e-08
-1.3524111e-06
1.4934976e-05
-1.3517679e-06
1.4926691e-05
3.1184959e-07
-3.5323702e-06
6.5390307e-05
-3.5272792e-06
6.5348909e-05
-3.3542652e-07
-3.4999754e-06
-3.65241e-06
5.3153227e-05
1.7812863e-06
1.8183135e-06
-3.6218339e-06
-3.5427333e-06
5.3181607e-05
1.7937583e-06
1.8117974e-06
1.319439e-06
-2.145147e-07
-4.9408625e-07
1.2120974e-05
-2.3110808e-07
1.1734689e-05
-1.3245908e-06
-1.0788328e-07
1.1804906e-05
-9.9125044e-08
-4.9259802e-07
1.2182182e-05
1.3261966e-06
7.1413438e-08
-4.9129745e-07
1.2193017e-05
9.0943121e-08
1.1814359e-05
-1.325688e-06
-5.8183144e-08
1.1754656e-05
-4.950907e-07
-5.5103435e-08
1.2138247e-05
-2.226623e-07
3.8159089e-07
2.8217766e-06
2.8928987e-06
3.2107984e-06
3.0975051e-06
3.8708615e-07
-1.0646953e-07
3.2247552e-06
3.1130976e-06
2.9116163e-06
2.8305877e-06
-2.1316503e-07
2.7258462e-06