/*--------------------------------*- C++ -*----------------------------------*\
  =========                 |
  \\      /  F ield         | OpenFOAM: The Open Source CFD Toolbox
   \\    /   O peration     | Website:  https://openfoam.org
    \\  /    A nd           | Version:  7
     \\/     M anipulation  |
\*---------------------------------------------------------------------------*/
FoamFile
{
    version     2.0;
    format      ascii;
    class       volVectorField;
    location    "0";
    object      U;
}
// * * * * * * * * * * * * * * * * * * * * * * * * * * * * * * * * * * * * * //

dimensions      [0 1 -1 0 0 0 0];

internalField   nonuniform List<vector> 
34377
(
(0.088945169 0.0001996453 -0.00066446077)
(0.088726607 0.00020018788 0.00021591772)
(0.087819508 0.00030697624 -0.0020003905)
(0.087817019 0.00011730881 -0.0020013002)
(0.088858317 0.00024206591 -0.0023789806)
(0.088979101 0.00030263064 -0.0006633809)
(0.088851846 0.00018236171 -0.0023833165)
(0.091357676 0.00021647028 -0.00016192955)
(0.090846319 7.5010451e-05 -0.0019594308)
(0.090848706 0.00035792967 -0.001959504)
(0.087984115 0.00016722025 0.0016779697)
(0.086659604 7.1401269e-05 -0.00022341117)
(0.087986781 0.000257632 0.0016777827)
(0.0887608 0.00030379988 0.00021646837)
(0.086662415 0.00035300637 -0.00022303184)
(0.087831953 0.00021571664 -0.0020003847)
(0.08782349 0.00031143239 -0.0044914538)
(0.085852734 0.00037693279 -0.0045242957)
(0.085978915 0.00018769411 -0.0044260066)
(0.088244943 0.00027432195 -0.0043977445)
(0.085976848 0.00024220798 -0.0044255487)
(0.085849293 5.4854379e-05 -0.0045255769)
(0.08781553 0.000121654 -0.0044959063)
(0.088246372 0.0001558391 -0.0043944783)
(0.088866256 0.00028046754 -0.0023844999)
(0.087834102 0.00041967076 -0.0019987528)
(0.088874239 0.00035475828 -0.0023783347)
(0.091348222 0.00031581714 -0.00016196794)
(0.092318901 0.00031010849 -0.0011828245)
(0.092438727 0.00018916424 0.00052726939)
(0.092443835 0.00023695729 0.00052623772)
(0.091000976 0.00020345227 0.00060563446)
(0.091024529 0.00018276831 -0.00011058953)
(0.09101969 0.00024384716 -0.00011129066)
(0.0910053 0.00024237061 -2.141855e-05)
(0.091006785 0.0001907911 -2.1603315e-05)
(0.092320373 0.00012306887 -0.0011829756)
(0.091330226 -8.0973638e-05 -0.0050376436)
(0.09147129 0.00032642302 -0.0049218599)
(0.090850704 0.00046822182 -0.001958985)
(0.090850084 0.00017359911 -0.0019593656)
(0.091332649 0.00051514458 -0.005037417)
(0.091471166 0.00010536654 -0.0049216603)
(0.087741884 0.00019718624 0.0039168465)
(0.088165599 0.00013090868 0.0036724716)
(0.087731 0.00010051452 0.0037164286)
(0.087659915 0.00013395072 0.0039865843)
(0.084166131 4.7996165e-05 0.002899486)
(0.082420406 0.00040710548 -0.0017438147)
(0.084289388 0.0002834628 0.0028933213)
(0.082255901 -9.0508574e-05 -0.0017528117)
(0.087998926 0.00026594498 0.0016789007)
(0.087663692 0.00029815564 0.003986599)
(0.087735873 0.00033238775 0.0037146767)
(0.088166065 0.00030042403 0.0036754775)
(0.087744342 0.00023272851 0.0039172315)
(0.088001351 0.00037082648 0.0016787323)
(0.086677302 0.00046602382 -0.00022294815)
(0.086674559 0.0001699768 -0.0002235446)
(0.084170141 0.0003840198 0.0028993752)
(0.082259428 0.00052207507 -0.0017528658)
(0.084291799 0.00014633435 0.0028938802)
(0.082422025 2.2794627e-05 -0.0017436076)
(0.085855932 0.00015137958 -0.0045252237)
(0.085983253 0.00034471478 -0.0044246353)
(0.088253874 0.00025835387 -0.0043938575)
(0.087821384 0.00021826424 -0.0044969701)
(0.084040331 0.00036285655 -0.0099514436)
(0.08414369 0.00025125371 -0.0098449018)
(0.086716359 0.00030827071 -0.0087866117)
(0.087116578 0.00030210362 -0.0087172991)
(0.087180229 0.00020181825 -0.0086698488)
(0.084213766 0.00029069523 -0.0098207768)
(0.084087878 0.00012518678 -0.0099233909)
(0.086770567 0.00016653001 -0.0087764737)
(0.084087491 0.00030627994 -0.0099223497)
(0.086774584 0.00026648138 -0.0087719313)
(0.084212837 0.0001410055 -0.0098215809)
(0.087175819 0.00023027818 -0.0086731669)
(0.084141528 0.00018115033 -0.0098444678)
(0.08711784 0.00013074395 -0.0087141302)
(0.084037601 7.1497296e-05 -0.0099527955)
(0.086709226 0.00012772207 -0.0087912434)
(0.087829619 0.00042595547 -0.0044901704)
(0.085857564 0.00049114137 -0.0045227704)
(0.085984489 0.00029448357 -0.0044251424)
(0.088249938 0.00038092451 -0.0043982421)
(0.092431576 0.00032887362 0.00052542739)
(0.092420709 0.00028938199 0.0005273672)
(0.092310838 0.00041634447 -0.0011830677)
(0.092316328 0.00021928306 -0.0011828556)
(0.090978405 0.00029021869 0.00060521412)
(0.091002505 0.00034408975 -0.00011164297)
(0.091012753 0.00027481099 -0.00011023134)
(0.091003307 0.00028679412 -2.1870217e-05)
(0.090997985 0.00034821963 -2.1096612e-05)
(0.094046039 0.0003568884 -0.0034611278)
(0.094097505 4.2574521e-05 -0.0035401223)
(0.09492262 0.00031680449 -0.00096703676)
(0.094982079 0.00021306729 -0.00085383039)
(0.09427792 0.00020469793 0.0011358994)
(0.093157679 0.00022242172 0.0016128442)
(0.093202288 0.00033045782 0.0016995282)
(0.094222688 0.00021663176 0.0012372477)
(0.09176267 0.00019961455 0.0011538643)
(0.094224713 0.0002096942 0.0012365863)
(0.093205051 9.1109541e-05 0.0017001364)
(0.093166213 0.000200981 0.0016122687)
(0.094284101 0.00022420494 0.0011354899)
(0.091770126 0.00021378861 0.0011545825)
(0.090660592 0.00016320586 0.0016204015)
(0.090670351 0.00023222357 0.0016187016)
(0.090648462 0.00021277216 0.00017099682)
(0.090936269 0.00019616388 0.00027567258)
(0.090929086 0.00021804732 0.00027654899)
(0.090657667 0.00018380697 0.00017242253)
(0.094097629 0.00038922017 -0.0035399407)
(0.094923509 0.00011295248 -0.00096711244)
(0.094986587 0.00021935068 -0.00085476979)
(0.094047349 7.7175007e-05 -0.003461398)
(0.092205096 -0.00019087166 -0.0099180895)
(0.092339447 0.00036207178 -0.0097871219)
(0.092239134 0.00055123681 -0.0098905214)
(0.092362939 -5.5721326e-05 -0.0097746003)
(0.091470517 0.00021104828 -0.0049212762)
(0.091330731 0.00062722197 -0.005036668)
(0.091472285 0.00042757506 -0.0049215986)
(0.091331825 1.5182366e-05 -0.0050376165)
(0.092339443 7.0892296e-05 -0.0097868286)
(0.092207173 0.00062590126 -0.0099176024)
(0.092238185 -0.00011924967 -0.0098907486)
(0.092364019 0.00048783588 -0.0097745808)
(0.090797569 0.00024341793 0.0021756871)
(0.090795722 0.00019058099 0.0021753737)
(0.088678412 0.0001936722 0.0061668666)
(0.089937049 0.00032102836 0.003893487)
(0.089853816 2.8625652e-05 0.0038811271)
(0.088637272 0.00016593673 0.0061800919)
(0.083341089 8.8465773e-05 0.0074949603)
(0.081476936 0.00030461797 0.0058776949)
(0.08140336 -9.0849412e-06 0.0059530108)
(0.082916816 9.6289654e-05 0.0075342332)
(0.076217122 0.00052101955 0.0023478965)
(0.0763648 -8.833221e-05 0.0023491703)
(0.075489818 0.00061169461 -0.006554098)
(0.075671908 -0.00016724703 -0.0065388107)
(0.083387785 0.00024104255 0.0074881395)
(0.082974429 0.00028005562 0.0075176443)
(0.081534384 4.295213e-05 0.0058706502)
(0.081431441 0.00039230521 0.0059354661)
(0.076300232 0.00043107979 0.0023465058)
(0.075426725 -0.00023452285 -0.0065677875)
(0.075599083 0.00049594261 -0.0065447221)
(0.087748111 0.00029993436 0.0039169043)
(0.088172359 0.00023395496 0.0036727348)
(0.087737279 0.00019725724 0.0037176698)
(0.087666403 0.00023064808 0.0039867815)
(0.088638914 0.00026855766 0.0061803304)
(0.089855356 0.00040607902 0.0038813694)
(0.089937247 0.00011155664 0.0038936186)
(0.088679019 0.00023890396 0.0061670587)
(0.088171258 0.00040763987 0.0036769316)
(0.087740913 0.00044721786 0.0037151846)
(0.087668505 0.00041284436 0.0039866474)
(0.087749929 0.00033974242 0.0039174384)
(0.084175457 0.00049859232 0.0029000679)
(0.084297723 0.00025332587 0.0028946635)
(0.082264684 0.00063643995 -0.0017524801)
(0.082427745 0.00012976224 -0.0017432172)
(0.084295903 0.00038613952 0.0028938803)
(0.084172769 0.00014470865 0.0029001632)
(0.082427094 0.00050976372 -0.0017436618)
(0.0822626 6.0768611e-06 -0.0017526556)
(0.083341432 0.00034516208 0.0074985796)
(0.082921337 0.00033888413 0.0075319587)
(0.081406311 0.00044358328 0.0059527838)
(0.081479472 0.00012777838 0.0058785208)
(0.076173659 0.00057412303 0.0023498886)
(0.076302595 1.1166959e-06 0.0023472274)
(0.075429391 0.00066855856 -0.0065677343)
(0.07560074 -6.3603121e-05 -0.0065444985)
(0.082973362 0.00015204227 0.0075204591)
(0.08339079 0.00019187486 0.0074849992)
(0.081431705 3.9248928e-05 0.0059359127)
(0.081535037 0.00038874924 0.0058699902)
(0.076365365 0.00051984609 0.0023488193)
(0.076216844 -8.9424824e-05 0.0023483227)
(0.075673162 0.00059891123 -0.0065388189)
(0.075490064 -0.00018046596 -0.0065539572)
(0.084144474 0.00027915094 -0.0098438428)
(0.084040677 0.00016696178 -0.0099527183)
(0.086711436 0.00022338544 -0.0087922242)
(0.087121687 0.00022878007 -0.0087133894)
(0.084089695 0.00040927577 -0.0099213339)
(0.084215339 0.00024082982 -0.0098211257)
(0.086777902 0.00036980005 -0.0087706516)
(0.087177644 0.00033005071 -0.0086736799)
(0.084125301 0.00022707577 -0.019471593)
(0.084185872 0.00038162402 -0.019357294)
(0.086646343 0.00030973947 -0.015420272)
(0.086277649 0.00030469009 -0.015491753)
(0.084255925 0.00019308832 -0.019327804)
(0.084159776 0.00030590344 -0.01943456)
(0.086326077 0.00020830145 -0.0154832)
(0.08670596 0.00021835834 -0.015363582)
(0.084194259 0.00021833778 -0.019424445)
(0.084276207 0.00030710091 -0.019323184)
(0.086730967 0.00026263872 -0.01537227)
(0.086362799 0.00030038918 -0.015460182)
(0.084218277 0.00011202938 -0.019343753)
(0.084152803 0.00025564631 -0.019460925)
(0.08668333 0.00017015626 -0.015401929)
(0.086306098 0.00017670142 -0.015490554)
(0.086309958 0.00025700664 -0.015486558)
(0.084153053 0.00017623015 -0.019459921)
(0.084218219 0.00031942977 -0.019344227)
(0.086680487 0.00026197731 -0.01540443)
(0.08427563 0.00012450019 -0.019322627)
(0.084193372 0.00021409962 -0.019425462)
(0.086358139 0.00013380159 -0.015464193)
(0.086733116 0.00016955687 -0.015369651)
(0.084159091 0.00012688695 -0.019433709)
(0.084254904 0.00023999174 -0.019328468)
(0.086329073 0.00022625829 -0.015479349)
(0.086702104 0.00021538298 -0.015366356)
(0.086647509 0.00012464745 -0.015417801)
(0.084184319 5.204e-05 -0.019356844)
(0.084123433 0.00020813707 -0.019472597)
(0.086272025 0.00013243411 -0.015495845)
(0.084143845 0.00036178573 -0.0098437457)
(0.087115891 0.00041255063 -0.0087173313)
(0.086717156 0.00042305944 -0.0087846895)
(0.084040019 0.00047730166 -0.0099496223)
(0.084214778 0.00039894206 -0.0098194811)
(0.084089178 0.00023020087 -0.009922739)
(0.086770845 0.00027173903 -0.0087771278)
(0.087182168 0.00031005451 -0.0086685985)
(0.094274753 0.00031562581 0.001135097)
(0.093153385 0.0002899875 0.0016115009)
(0.093189543 0.00018358057 0.0016997176)
(0.094213018 0.00030485877 0.0012358098)
(0.091752694 0.0003004123 0.0011544326)
(0.094260341 0.00030843613 0.0011352578)
(0.093135721 0.00032246185 0.0016123949)
(0.093183829 0.00042603027 0.0016985067)
(0.091738547 0.0002926671 0.001152807)
(0.094208286 0.00031530802 0.0012370052)
(0.094038354 0.00046661663 -0.0034610729)
(0.094092243 0.00014648079 -0.0035399696)
(0.094912027 0.00041820138 -0.00096739946)
(0.094968448 0.00031996996 -0.00085365786)
(0.094915099 0.00021054434 -0.00096717649)
(0.094094071 0.00048888765 -0.0035399732)
(0.09498042 0.00031271592 -0.00085519269)
(0.09404542 0.0001721836 -0.0034613619)
(0.090647966 0.00031242972 0.0016174038)
(0.090619247 0.00029833327 0.00017025877)
(0.090905638 0.00031143104 0.00027670492)
(0.090919181 0.00028309054 0.00027500626)
(0.090635426 0.00026452276 0.0001727215)
(0.098809805 0.00033716674 -0.0042072552)
(0.098876443 0.00025340732 -0.0041055291)
(0.096434174 0.00045388349 -0.0076769646)
(0.096477344 -4.7545327e-05 -0.0077342014)
(0.098890321 0.00023997326 -0.0041150807)
(0.098819903 0.0001779861 -0.0042108119)
(0.096486332 0.00050173276 -0.0077216934)
(0.096449186 1.4739378e-05 -0.00766436)
(0.098308309 0.0002064504 -9.4577205e-05)
(0.09672815 8.2105569e-05 0.00095295595)
(0.096682154 0.00029016486 0.00086520654)
(0.098370427 0.00025804054 -0.00020621234)
(0.098363975 0.00020302815 -0.00016364095)
(0.096751459 0.00040620505 0.00099835462)
(0.096714192 0.00019946507 0.00091096351)
(0.098300685 0.00020299221 -5.5528876e-05)
(0.095635355 0.00016900525 0.0019624991)
(0.094434977 0.00036430861 0.0021075162)
(0.094487874 0.00022082242 0.0022256092)
(0.09567661 0.00022609145 0.0018561966)
(0.093810061 0.00021390216 0.0024898892)
(0.093859394 0.00020473495 0.0023975899)
(0.093141658 0.00026015756 0.0025445083)
(0.093184327 0.00033759447 0.0026285386)
(0.09246379 0.00017381962 0.0019336033)
(0.093156433 0.00021855841 0.002543247)
(0.09318952 0.00016216349 0.0026245926)
(0.0938209 0.00022807612 0.0024934095)
(0.092511654 0.00019871443 0.001834794)
(0.093877167 0.00025336806 0.0024051634)
(0.094498048 0.00026745921 0.0022607294)
(0.094442797 0.00017344034 0.0021432358)
(0.095653919 0.00023732388 0.0018977223)
(0.095605823 0.00029248628 0.0020005598)
(0.091579825 0.00028719026 0.00199466)
(0.091629403 0.00021104574 0.0021066174)
(0.095606432 0.00013467676 0.0020005897)
(0.094446372 0.0002519174 0.0021431341)
(0.094498811 0.00015782592 0.0022614943)
(0.095656999 0.00019040604 0.0018974344)
(0.093193907 0.00025793557 0.002624172)
(0.093158208 0.0002013784 0.0025438919)
(0.093824462 0.00019470787 0.0024939395)
(0.093878707 0.00016965257 0.0024058229)
(0.092514954 0.00021673553 0.0018347309)
(0.093192095 8.3127856e-05 0.0026291173)
(0.093816973 0.0002095779 0.0024895172)
(0.095681107 0.00020247325 0.0018563809)
(0.094440518 6.1803552e-05 0.0021076056)
(0.095642429 0.00026114742 0.0019623865)
(0.091583861 0.00012029905 0.0019952469)
(0.089693767 0.00013883862 0.0010072718)
(0.090296025 0.00020928323 0.0025891804)
(0.091154507 0.0001962648 0.0022084072)
(0.091107896 0.00019299995 0.0023121899)
(0.090362605 0.00029682832 0.0026767993)
(0.090367647 9.2330871e-05 0.0026776267)
(0.091112808 0.0002057546 0.0023110712)
(0.096449049 0.00041703291 -0.0076639786)
(0.096486776 -6.9668563e-05 -0.007721999)
(0.098890157 0.00019153196 -0.0041140911)
(0.098821609 0.00025337325 -0.0042105738)
(0.098370917 0.00017242443 -0.00020560909)
(0.098310239 0.0002240453 -9.4326569e-05)
(0.09668282 0.00013872976 0.00086556647)
(0.096730768 0.0003473089 0.00095247032)
(0.096719813 0.00023250664 0.00091047494)
(0.096755073 2.4063542e-05 0.00099875386)
(0.098303242 0.00022838043 -5.5809818e-05)
(0.098367961 0.00023056474 -0.0001643572)
(0.098879459 0.00018114227 -0.0041065569)
(0.098810996 9.5066937e-05 -0.0042074777)
(0.096477575 0.000480486 -0.0077340506)
(0.096434941 -1.9075743e-05 -0.0076775306)
(0.093787281 -0.00026532563 -0.016557167)
(0.093913138 0.00041236312 -0.016413802)
(0.093821079 0.00057291993 -0.016525221)
(0.09393615 -0.00015643372 -0.016405256)
(0.093812165 0.00064573094 -0.0165521)
(0.093935855 -5.0485281e-05 -0.016411876)
(0.093953903 0.00050579097 -0.016398503)
(0.093833055 -0.00024044452 -0.016523881)
(0.092361733 0.00059494362 -0.0097738707)
(0.09223627 -1.4963361e-05 -0.009890301)
(0.092203033 0.00073893921 -0.0099164201)
(0.092335865 0.00018052491 -0.0097859584)
(0.092238541 0.00065328876 -0.0098900037)
(0.092362602 4.3564505e-05 -0.0097742917)
(0.092205778 -9.5786466e-05 -0.009918067)
(0.092340022 0.00045935706 -0.0097869204)
(0.093936975 0.00058968024 -0.016405087)
(0.093820703 -0.0001399234 -0.016525458)
(0.09378881 0.00070080292 -0.016556552)
(0.09391346 2.1564494e-05 -0.016413539)
(0.093811417 -0.0002136514 -0.016552614)
(0.093936231 0.00048208056 -0.016411994)
(0.093834082 0.00067301494 -0.01652343)
(0.093953767 -7.4045932e-05 -0.01639847)
(0.090799874 0.00029033868 0.0021757834)
(0.090799725 0.00035392452 0.0021761811)
(0.092358467 0.00024040226 0.0021056036)
(0.092253082 0.00020115673 0.0082791245)
(0.085449255 -8.8772818e-06 0.0091128032)
(0.085374573 0.00043180632 0.0090989766)
(0.08535015 -5.4880557e-05 0.0091074823)
(0.085432104 0.00036032189 0.0091184818)
(0.080329236 0.00016328478 0.011235511)
(0.072283041 0.00029182736 0.010258514)
(0.072701928 0.00029524087 0.010217605)
(0.068294219 0.00062685655 0.0043938088)
(0.068411524 -0.00014149868 0.0043067226)
(0.072748869 0.00015452885 0.010206037)
(0.072339509 0.00010608394 0.010243239)
(0.068463844 0.00057056103 0.004300015)
(0.06833853 -0.00023539153 0.0043756609)
(0.063005675 0.00095664603 -0.0044009779)
(0.063198137 -0.00047349884 -0.0043836232)
(0.068744496 -5.8921474e-05 -0.018304735)
(0.068586565 0.00057626824 -0.018359099)
(0.068804603 0.00050569333 -0.018295546)
(0.068642778 -0.00018518239 -0.018333083)
(0.063262566 0.0009029507 -0.0043791426)
(0.063071557 -0.00056685413 -0.0043941771)
(0.080349356 0.00019821487 0.011232777)
(0.080307896 0.00021859069 0.011247844)
(0.072316499 0.00024005253 0.010241545)
(0.072724879 0.00021421781 0.010207786)
(0.068307408 0.00058105114 0.004375926)
(0.068446018 -0.00020348158 0.0043015594)
(0.063157912 0.00084473329 -0.0043909553)
(0.068707374 0.00042588064 -0.018313894)
(0.063035516 0.00090877969 -0.004397738)
(0.068608933 0.00051960652 -0.018334845)
(0.063241259 -0.00053736093 -0.0043834106)
(0.068782268 -0.00014636723 -0.018301613)
(0.088679543 0.00029510434 0.0061671961)
(0.089937754 0.00042264201 0.0038938648)
(0.089855336 0.00012510071 0.0038816526)
(0.088639245 0.00026272636 0.0061805052)
(0.092240823 0.00025610198 0.008282206)
(0.085351672 0.00049002837 0.0091074028)
(0.085432323 7.3136596e-05 0.0091189576)
(0.091889766 0.00040078933 0.0048129326)
(0.091909935 8.9025324e-05 0.0048108029)
(0.092252645 0.0002313455 0.0082792722)
(0.085450203 0.00044148765 0.009112674)
(0.085374238 3.5793416e-07 0.0090994252)
(0.089936484 0.00021776686 0.0038941732)
(0.089853071 0.00051869535 0.0038816648)
(0.088637287 0.00038097651 0.0061805685)
(0.088678898 0.00034552277 0.0061674145)
(0.081406577 0.00055841392 0.0059528187)
(0.082921844 0.00045384925 0.0075317641)
(0.083341507 0.0004561757 0.0074997913)
(0.081480187 0.00023858906 0.0058788756)
(0.081536361 0.00049726967 0.0058700043)
(0.083392627 0.00030065449 0.007484703)
(0.082974582 0.00025734398 0.0075215756)
(0.081433305 0.00014453212 0.0059362491)
(0.076174364 0.00068885768 0.0023505796)
(0.076303574 0.00011188695 0.0023480399)
(0.075429898 0.00078309589 -0.0065666983)
(0.075601449 4.7116017e-05 -0.006543537)
(0.076366888 0.00062828436 0.0023493818)
(0.076218463 1.5886731e-05 0.0023490365)
(0.075674803 0.00070731878 -0.0065380688)
(0.07549173 -7.5326515e-05 -0.0065532877)
(0.081433935 0.00049557265 0.0059356211)
(0.082977174 0.00038342167 0.00751757)
(0.083390016 0.00034126578 0.0074893937)
(0.081537157 0.00014297668 0.0058710912)
(0.08147992 0.00040281365 0.0058778158)
(0.083344591 0.00018691792 0.0074948074)
(0.082919589 0.00019196148 0.0075353562)
(0.081406482 8.6518471e-05 0.0059534145)
(0.076219836 0.00062426875 0.0023484363)
(0.076367665 1.1647289e-05 0.0023498347)
(0.075492343 0.00071478119 -0.0065536486)
(0.075674534 -6.7312092e-05 -0.006538407)
(0.076173462 -4.411971e-05 0.0023504669)
(0.075602265 0.00059406561 -0.0065444716)
(0.076303285 0.00052921012 0.0023469208)
(0.075429783 -0.00013900042 -0.0065675872)
(0.080288601 0.00027449182 0.011252461)
(0.080330102 0.00027043428 0.011235922)
(0.072256294 0.00034326957 0.010258952)
(0.072676267 0.0003557355 0.010219535)
(0.068268242 0.00067762985 0.0043964662)
(0.068380839 -8.0905165e-05 0.0043082124)
(0.072727188 0.00022056066 0.010205453)
(0.072316623 0.00019389721 0.010244099)
(0.068446745 0.00063648218 0.0043018574)
(0.068307634 -0.00014814106 0.0043759729)
(0.068553689 0.00062814447 -0.018369879)
(0.06870815 7.6637593e-06 -0.01831413)
(0.062971601 0.0010073906 -0.0044070034)
(0.063159427 -0.00041137378 -0.0043905776)
(0.068783505 0.00057936737 -0.018301276)
(0.068609369 -8.7036155e-05 -0.018334965)
(0.063241895 0.0009701551 -0.004383195)
(0.063035543 -0.0004759154 -0.0043974528)
(0.080307955 0.00021379306 0.011248037)
(0.080349817 0.00023456777 0.01123273)
(0.072341021 0.00032754355 0.010241215)
(0.072748219 0.00027876777 0.010208911)
(0.068339832 0.00066797481 0.0043760179)
(0.068464646 -0.00013896128 0.0043001473)
(0.072703079 0.00013795657 0.01021504)
(0.072281984 0.00014133681 0.010260757)
(0.068411276 0.00057295648 0.0043069371)
(0.068293481 -0.00019481423 0.0043937563)
(0.063073034 0.00099940138 -0.0043940209)
(0.068643697 0.00061745169 -0.018332841)
(0.063263376 -0.00047153495 -0.004378888)
(0.068804658 -7.4102201e-05 -0.018295814)
(0.06319799 0.0009047539 -0.0043835276)
(0.063004915 -0.00052480444 -0.0044008578)
(0.068744924 0.00049035013 -0.01830451)
(0.068586197 -0.00014470856 -0.018359341)
(0.084160169 0.00022506698 -0.019432984)
(0.084256108 0.00033676317 -0.019328241)
(0.086702758 0.00031217657 -0.01536672)
(0.086331044 0.00032479827 -0.015478225)
(0.084185699 0.00014803528 -0.019356529)
(0.086649622 0.00022069249 -0.015417165)
(0.084124882 0.00030303345 -0.019472795)
(0.086272767 0.00022761305 -0.015496686)
(0.084153019 0.00027932566 -0.019458753)
(0.084218357 0.00042080847 -0.019343554)
(0.086310834 0.00036046428 -0.015485075)
(0.086680036 0.00036340242 -0.015404489)
(0.086734287 0.00027002195 -0.015368676)
(0.08427609 0.000224883 -0.019321814)
(0.084193943 0.00031313709 -0.01942509)
(0.086357906 0.00023315723 -0.015464736)
(0.090288745 0.00065264551 -0.03246257)
(0.090336544 -8.8790809e-05 -0.032550848)
(0.088269556 0.00028892863 -0.023912267)
(0.088595298 0.00031337087 -0.023843042)
(0.090343237 0.00063510737 -0.032515705)
(0.090340667 -7.9425125e-05 -0.032428503)
(0.088640305 0.00023075277 -0.023792427)
(0.08830821 0.0002440696 -0.02389957)
(0.090358585 0.00061638837 -0.032426615)
(0.090377937 -7.6203806e-05 -0.032502859)
(0.088342764 0.00030174739 -0.023878725)
(0.088668262 0.00028857893 -0.023801323)
(0.090363221 0.00061551181 -0.032543801)
(0.09031932 -0.00012075168 -0.032449783)
(0.088628387 0.00020469034 -0.023825914)
(0.088301433 0.00023439332 -0.023910661)
(0.090332181 0.00062739043 -0.032451673)
(0.09037683 -9.8080065e-05 -0.032540255)
(0.088316627 0.00028181137 -0.023904978)
(0.088643371 0.00029671581 -0.023829523)
(0.090392561 0.00057554826 -0.032506443)
(0.090375972 -0.00011426753 -0.032424791)
(0.088685711 0.00020990933 -0.023796686)
(0.088357181 0.00019569083 -0.023883609)
(0.088334978 0.00024970484 -0.023895973)
(0.0903678 -0.00013886852 -0.032514223)
(0.090363487 0.00056829845 -0.032431172)
(0.088664514 0.00025476085 -0.02379527)
(0.090360291 0.00057135467 -0.032554241)
(0.090311297 -0.00016680225 -0.032463064)
(0.088619794 0.00017172762 -0.023842112)
(0.088292241 0.00019462184 -0.023915771)
(0.09031179 0.00059816842 -0.032463878)
(0.090360188 -0.00013945121 -0.032552862)
(0.088293845 0.0002387612 -0.023913649)
(0.088619506 0.0002601408 -0.023842613)
(0.090367833 0.0005705952 -0.032515227)
(0.090362916 -0.00013694969 -0.032429896)
(0.088664794 0.0001770212 -0.023794433)
(0.088333351 0.00018333339 -0.02389782)
(0.090391996 -0.00014375762 -0.032504877)
(0.088358384 0.00023740975 -0.023881605)
(0.090376069 0.00054590913 -0.032425563)
(0.088685018 0.0002221467 -0.023797356)
(0.088643199 0.00013555256 -0.023828948)
(0.090331198 -0.00019554303 -0.032450424)
(0.090376507 0.0005307116 -0.03254141)
(0.088314612 0.00015221748 -0.023907031)
(0.090319317 0.00055330708 -0.032450651)
(0.090362609 -0.00018269005 -0.032542367)
(0.088302523 0.00019982435 -0.023908616)
(0.088627616 0.00022835126 -0.02382649)
(0.088667997 0.00014457481 -0.023800604)
(0.09035748 -0.00018367794 -0.032425373)
(0.090377439 0.00050960463 -0.032503809)
(0.088340558 0.0001330275 -0.02388068)
(0.090340134 0.00051333669 -0.032428976)
(0.090342147 -0.00020137048 -0.032514019)
(0.088308855 0.00019102174 -0.023897599)
(0.08863899 0.00020366032 -0.023793137)
(0.090335558 0.00052423987 -0.032551346)
(0.090287142 -0.00021830315 -0.032460884)
(0.088594549 0.00012148883 -0.023842349)
(0.088266883 0.00014804201 -0.023914214)
(0.084253498 0.00030421281 -0.019325735)
(0.084157525 0.00041536711 -0.019433064)
(0.08670426 0.00032952839 -0.015361703)
(0.086322897 0.00031806079 -0.015483017)
(0.084122114 0.00034148408 -0.019469098)
(0.084182944 0.00049392226 -0.019355343)
(0.086275392 0.00041950129 -0.015489264)
(0.086642683 0.00042208421 -0.015419483)
(0.086362251 0.00040909899 -0.015458248)
(0.08419274 0.00032671389 -0.019422624)
(0.084274896 0.00041363208 -0.019321927)
(0.086729024 0.00036918262 -0.015371989)
(0.084217367 0.00021752589 -0.019342402)
(0.084152058 0.00035972187 -0.019460098)
(0.086683149 0.00027570971 -0.015400607)
(0.08630451 0.00028108624 -0.015490813)
(0.094486439 0.00029709984 0.0022242589)
(0.094429271 0.00015337552 0.0021072546)
(0.095634247 0.00035213005 0.001962095)
(0.095671691 0.00029528694 0.0018559913)
(0.09385707 0.00030946193 0.0023965998)
(0.093804434 0.000299889 0.0024888167)
(0.093177887 0.00017219856 0.0026286211)
(0.093139128 0.00024946688 0.0025433426)
(0.092459216 0.00032960008 0.0019336523)
(0.09386344 0.00026356302 0.0024051349)
(0.093178299 0.00034836128 0.0026231984)
(0.093141218 0.0002937159 0.0025431836)
(0.093810487 0.00028650786 0.0024933848)
(0.092496828 0.00030630947 0.0018339377)
(0.094433962 0.00034501294 0.0021424102)
(0.094484945 0.00025309749 0.0022610242)
(0.095594585 0.00023127078 0.0019999151)
(0.095646551 0.00028484546 0.0018968622)
(0.091562925 0.00020660897 0.0019947564)
(0.091624196 0.00028186139 0.0021047404)
(0.09441665 0.00046535636 0.0021065585)
(0.095660573 0.00032891305 0.0018555089)
(0.0937899 0.00031325951 0.0024890397)
(0.093162279 0.00043515936 0.0026271468)
(0.09316926 0.00025807122 0.0026236147)
(0.093802594 0.00032562439 0.002492229)
(0.092490376 0.00029108918 0.001834019)
(0.093137774 0.00031243185 0.0025419657)
(0.093860329 0.0003488964 0.002404165)
(0.09155542 0.00037583038 0.0019933214)
(0.094482949 0.00036443157 0.0022597502)
(0.095592793 0.00039088158 0.001999971)
(0.094426032 0.00027263993 0.0021426107)
(0.095639283 0.00033814165 0.0018970751)
(0.096426626 0.00056559919 -0.0076763483)
(0.098800491 0.00044430683 -0.0042071126)
(0.096471165 6.1008268e-05 -0.0077336941)
(0.098883459 0.00034224547 -0.0041153067)
(0.098811576 0.00028287096 -0.0042106595)
(0.096445106 0.00011807433 -0.0076640801)
(0.096481137 0.00060783686 -0.0077213202)
(0.098297939 0.00031004449 -9.5043654e-05)
(0.096715316 0.0001843564 0.00095267294)
(0.098361425 0.0003591416 -0.00020661496)
(0.096670827 0.00038989948 0.00086459229)
(0.09673731 0.00051050192 0.00099773135)
(0.098289061 0.0003087627 -5.5612148e-05)
(0.096672711 0.00023657958 0.00086530619)
(0.096721933 0.000442849 0.00095194059)
(0.098303541 0.00032063481 -9.4463858e-05)
(0.098363025 0.00027154862 -0.00020581333)
(0.098816823 0.00035094539 -0.0042105705)
(0.098884093 0.00029175226 -0.0041137858)
(0.096445775 0.00051819668 -0.0076637345)
(0.096484457 2.8892598e-05 -0.0077218456)
(0.09829743 0.00032321313 -5.6098597e-05)
(0.096747172 0.00011794637 0.00099862207)
(0.096713033 0.00032447831 0.00091013673)
(0.098363139 0.00032352023 -0.00016457485)
(0.098876384 0.00027489656 -0.0041067468)
(0.098806845 0.00019081749 -0.0042074087)
(0.096475908 0.00057710082 -0.0077338949)
(0.09643404 7.5386185e-05 -0.0076774501)
(0.09034253 0.00017172355 0.002676916)
(0.091089954 0.00028860869 0.0023098923)
(0.09114818 0.00028519612 0.0022077188)
(0.090289056 0.00025863275 0.002587277)
(0.10252358 8.564491e-05 -0.0022899599)
(0.10247744 0.00032858926 -0.0023867191)
(0.10344946 0.00028350429 -0.0044469964)
(0.10352495 0.00020328015 -0.0045813935)
(0.10251392 0.00019928603 -0.0023391483)
(0.10351772 0.00027073927 -0.0045406174)
(0.10255071 0.00044683062 -0.002239016)
(0.10344075 0.00013256347 -0.0044075671)
(0.10304074 0.00031647568 -0.009822453)
(0.099097913 0.00051663769 -0.01349958)
(0.10296393 0.00031226811 -0.0099213242)
(0.099137781 -0.00010435065 -0.013555013)
(0.10297588 0.00025711607 -0.0099223305)
(0.099145948 0.0005830264 -0.013535585)
(0.10305818 0.00022236803 -0.0098243357)
(0.099113908 -2.3940376e-05 -0.013478826)
(0.10255832 3.8727341e-05 -0.0022529147)
(0.10252482 0.00028280298 -0.0023518753)
(0.1034562 0.00033285647 -0.004415547)
(0.10353484 0.00020659612 -0.0045485313)
(0.10248049 0.00016291697 -0.0023914536)
(0.10352885 0.00025619146 -0.0045816033)
(0.10253255 0.00040380854 -0.0022939864)
(0.10345981 0.00017763792 -0.0044490648)
(0.10306184 0.00028923646 -0.0098231639)
(0.099118744 0.00050467396 -0.013474154)
(0.10298783 0.00024762778 -0.0099195444)
(0.099157832 -0.00010399135 -0.013532421)
(0.10298018 0.00018519059 -0.0099185061)
(0.10305986 0.0001682019 -0.0098213669)
(0.099151957 0.00058396077 -0.013543615)
(0.099114259 -3.7188064e-05 -0.013491618)
(0.099484194 0.00013727609 0.0016139338)
(0.10126635 0.00013919523 0.000678108)
(0.099422264 0.00034180308 0.0014774296)
(0.10132026 0.00020834252 0.0005600142)
(0.096882758 0.00020647576 0.0025523462)
(0.096917303 0.00033024783 0.0026335277)
(0.098261455 0.00015639596 0.0023549036)
(0.098199051 0.00023919765 0.0024463579)
(0.09691066 9.134487e-05 0.0026347297)
(0.096867452 0.00023618249 0.002551434)
(0.098189005 0.0002203292 0.0024405292)
(0.098246613 0.00028983685 0.002342158)
(0.099414743 4.2346088e-05 0.0014389104)
(0.099480826 0.00029980385 0.0015736066)
(0.10134502 0.00023862159 0.00051690235)
(0.10130729 0.0003115846 0.00063401871)
(0.099477559 0.00018026984 0.0015894866)
(0.10129855 0.00016359341 0.00064555725)
(0.099413655 0.0004421561 0.0014532933)
(0.10133941 0.00022521594 0.00052528813)
(0.096929087 0.00015547726 0.0026431479)
(0.096889942 0.00027814262 0.0025621135)
(0.098201324 0.00021320458 0.0024591118)
(0.098263045 0.00028733896 0.0023621016)
(0.096884502 0.00024261003 0.0025679361)
(0.098248769 0.00018419968 0.0023595594)
(0.096928825 0.00039018099 0.0026529238)
(0.098191788 0.00023884647 0.002457892)
(0.099420802 0.00014535468 0.0014892731)
(0.099485595 0.00034497421 0.0016244907)
(0.10131298 0.00024906733 0.00057221979)
(0.10126398 0.00030786776 0.00068528281)
(0.095396084 0.00024011309 0.0028906799)
(0.096205574 0.00018308319 0.0026939781)
(0.095343316 0.00034999179 0.0027814161)
(0.096251071 0.00020717413 0.0025960459)
(0.094432571 0.00017817145 0.0030652435)
(0.094384303 0.00024877923 0.0029712901)