/*--------------------------------*- C++ -*----------------------------------*\
  =========                 |
  \\      /  F ield         | OpenFOAM: The Open Source CFD Toolbox
   \\    /   O peration     | Website:  https://openfoam.org
    \\  /    A nd           | Version:  7
     \\/     M anipulation  |
\*---------------------------------------------------------------------------*/
FoamFile
{
    version     2.0;
    format      ascii;
    class       volScalarField;
    location    "6000";
    object      nut;
}
// * * * * * * * * * * * * * * * * * * * * * * * * * * * * * * * * * * * * * //

dimensions      [0 2 -1 0 0 0 0];

internalField   nonuniform List<scalar> 
34378
(
2.585458e-35
1.8317359e-34
1.3371495e-35
2.509583e-35
2.1134506e-36
1.3842001e-35
1.0158504e-36
3.918075e-36
7.8867736e-35
4.1103769e-36
7.9125271e-35
3.1110569e-34
6.7996512e-36
7.2615147e-36
2.2537836e-36
2.0688413e-36
1.2811744e-35
1.2511704e-35
2.1264952e-36
2.3465604e-36
8.0121458e-36
2.2355871e-36
9.0900562e-37
6.1876877e-37
2.4061679e-36
1.2499804e-36
1.2230011e-36
1.1277842e-36
1.0181534e-36
9.8114707e-37
5.318106e-36
1.4013951e-36
1.0914843e-36
4.1550529e-35
5.6512138e-36
3.7387035e-36
1.4647009e-36
1.4394142e-36
5.6447156e-36
5.0785687e-36
5.7262567e-36
5.5646241e-36
3.9326651e-35
7.8147899e-35
3.9466113e-35
3.9125243e-36
8.0784296e-35
2.7735639e-36
2.9683627e-36
6.1624165e-36
1.7705083e-36
1.5914093e-36
3.2004811e-36
3.0539063e-36
1.7788489e-36
1.7919176e-36
2.2112587e-36
2.2355707e-36
7.6192297e-36
6.8392208e-36
2.1969759e-36
6.626534e-36
2.2301178e-36
3.235297e-36
3.3749265e-36
1.8845748e-36
2.0087003e-36
6.1012575e-37
8.7169313e-37
8.3441783e-37
8.8261063e-37
9.9239945e-37
9.2225165e-37
8.5386634e-37
6.0886183e-37
5.1466895e-37
5.4012514e-37
6.1375736e-37
3.775154e-37
6.9815603e-37
5.4514733e-37
3.8763292e-37
4.3553396e-37
4.5279971e-37
1.4387161e-36
1.471609e-36
2.0171581e-36
2.2699144e-36
9.1324406e-37
9.4782069e-37
1.235817e-36
1.2201135e-36
1.1517312e-36
1.1475406e-36
1.091676e-36
1.032312e-36
1.1037192e-36
1.2371412e-36
1.1581131e-36
1.1445066e-36
1.0313783e-36
1.0292531e-36
2.1983837e-36
1.6951916e-36
1.1383571e-36
4.4691144e-36
4.4050806e-36
1.5568149e-35
1.5695691e-35
2.2416087e-36
2.1429412e-36
3.0661169e-36
2.9410463e-36
5.1164016e-36
1.3864318e-36
1.1164703e-36
4.6849687e-36
1.1668822e-36
1.506022e-36
2.1778705e-36
2.047816e-36
5.3841777e-36
2.2574152e-36
2.181912e-36
2.9679506e-36
3.0615365e-36
2.2217778e-36
2.1884409e-36
2.9901125e-36
2.9560433e-36
4.4396863e-36
4.3512315e-36
1.4674073e-35
3.768711e-35
1.5053829e-35
4.0742795e-35
5.299764e-36
4.4885884e-36
4.2533111e-36
1.4354248e-35
1.5717837e-35
5.4337342e-36
1.3794394e-36
1.3255038e-36
4.8381215e-36
5.5307924e-36
5.3692495e-36
3.8915177e-35
3.9995613e-35
2.5647605e-36
1.1580023e-36
1.2297098e-36
9.5932106e-37
9.1054492e-37
1.2765668e-36
1.214013e-36
9.7697725e-37
9.578044e-37
2.7716793e-36
1.5341158e-36
1.5365994e-36
1.3691391e-36
1.3884638e-36
1.0226522e-36
1.0496806e-36
1.3456505e-36
1.2666737e-36
1.0075269e-36
1.0164518e-36
3.2802372e-36
3.2191195e-36
1.8490841e-36
1.9328384e-36
2.8034768e-36
2.9372881e-36
1.8246566e-36
1.6703129e-36
1.5805146e-36
2.8434617e-36
2.804489e-36
1.5782937e-36
1.3133087e-36
1.3777371e-36
1.1056091e-36
1.0502726e-36
1.438662e-36
1.3568408e-36
1.1015953e-36
1.0859672e-36
4.5479421e-37
5.4064897e-37
6.9366957e-37
5.2408361e-37
8.6401234e-37
8.5200873e-37
8.7474351e-37
8.7527078e-37
9.3848488e-37
9.4599916e-37
8.8068652e-37
7.8531535e-37
8.0174662e-37
9.8643099e-37
9.1608964e-37
8.4862639e-37
1.0761981e-36
1.0467999e-36
9.0591735e-37
8.8297577e-37
8.6255886e-37
8.6652708e-37
8.6396112e-37
8.4808008e-37
7.4270845e-37
8.0955624e-37
7.8721425e-37
7.7381505e-37
5.4965013e-37
6.1206262e-37
5.9223023e-37
5.6263092e-37
5.0849564e-37
4.9564227e-37
4.6572571e-37
4.6737225e-37
3.007401e-37
4.8001127e-37
4.8045351e-37
5.1323091e-37
3.2458166e-37
5.1943069e-37
6.3518939e-37
6.2662786e-37
6.0236452e-37
6.105796e-37
2.95598e-37
2.7196523e-37
6.2054896e-37
6.719037e-37
6.5119079e-37
6.3571057e-37
4.8891174e-37
4.7480763e-37
5.3298206e-37
5.2048783e-37
3.3626284e-37
3.3426689e-37
3.2333448e-37
3.0120083e-37
2.7391723e-37
2.1691425e-37
2.3507698e-37
2.8497024e-37
2.340875e-37
7.5610242e-37
7.8946219e-37
2.4592508e-37
2.5174237e-37
3.3548809e-37
3.0360808e-37
2.3533203e-37
8.1909358e-37
8.9307876e-37
8.633755e-37
8.559078e-37
9.3188019e-37
1.1152381e-36
1.0349287e-36
9.6050173e-37
7.8691199e-37
7.7268249e-37
7.711914e-37
7.4857862e-37
7.4976428e-37
7.3891107e-37
7.4025213e-37
7.1535524e-37
6.9023715e-37
6.789227e-37
6.4683828e-37
6.6681654e-37
9.7944129e-37
9.9289125e-37
1.2034239e-36
1.1943428e-36
1.1185002e-36
1.0589748e-36
1.0318328e-36
1.0504272e-36
9.9939743e-37
9.5674034e-37
1.2029414e-36
1.1406202e-36
4.0074605e-36
2.3588474e-36
2.3573833e-36
1.7214253e-36
1.1678578e-36
1.8896104e-36
1.9959596e-36
1.4940814e-36
1.5555296e-36
1.9787629e-36
1.9840311e-36
1.5444914e-36
1.5366499e-36
1.69905e-36
1.765454e-36
3.4387095e-36
3.3529907e-36
3.5699866e-36
3.4002463e-36
1.7939023e-36
1.7003409e-36
1.4809638e-36
1.4771745e-36
1.9158212e-36
1.302808e-36
1.085351e-36
2.0628963e-36
1.2385814e-36
1.5895611e-36
4.3765702e-36
2.3965093e-36
2.4356039e-36
3.4510587e-36
2.3786003e-36
2.3627002e-36
2.155682e-36
2.2045874e-36
2.9655651e-36
2.9137109e-36
1.5031345e-36
1.4799637e-36
1.4668446e-36
1.4842116e-36
4.2399338e-36
1.8729256e-36
1.9963191e-36
1.4916001e-36
1.5565503e-36
1.9227342e-36
1.9616522e-36
1.5202294e-36
1.51521e-36
1.6420491e-36
1.7059396e-36
3.1768863e-36
3.2986917e-36
1.3532466e-35
4.4535086e-36
1.5197496e-35
1.7376996e-36
3.4218521e-36
3.2765373e-36
1.6394176e-36
4.3297518e-36
4.2886393e-36
1.5437757e-35
1.5230282e-35
2.100619e-36
1.9760577e-36
2.9666275e-36
2.789667e-36
1.8939319e-36
1.9995351e-36
1.5126426e-36
1.5626924e-36
1.9288279e-36
1.9388379e-36
1.5199463e-36
1.5034667e-36
1.7714623e-36
1.6686523e-36
3.5520928e-36
3.3263636e-36
1.7273173e-36
3.4069108e-36
1.7698721e-36
3.4997723e-36
2.0470239e-36
1.430872e-36
1.2761172e-36
1.9430116e-36
2.1807522e-36
2.1133744e-36
3.0322634e-36
2.9278226e-36
2.1286342e-36
2.0904428e-36
2.9321461e-36
2.8789646e-36
4.3510614e-36
1.5058656e-35
4.1088833e-36
1.3790716e-35
4.3674697e-36
1.4628236e-35
4.2639291e-36
1.4826922e-35
1.1324842e-36
1.0592552e-36
8.4286483e-37
8.3099026e-37
9.5953178e-37
8.9247064e-37
2.9911356e-37
3.1865989e-37
9.4963171e-37
1.0049656e-36
3.1259363e-37
3.1822495e-37
1.071549e-36
1.0381614e-36
3.1627156e-37
3.3250314e-37
9.5824406e-37
1.0469002e-36
3.1558883e-37
3.1648834e-37
1.1840725e-36
1.1921498e-36
8.7934943e-37
8.5671944e-37
1.0739688e-36
1.0394094e-36
3.5698303e-37
3.6536162e-37
1.1453231e-36
1.0791496e-36
3.4643128e-37
3.4858317e-37
1.1255125e-36
1.1042217e-36
3.3570249e-37
3.5406047e-37
9.6665142e-37
1.0942148e-36
3.3179311e-37
3.3225817e-37
1.3172763e-36
1.3539081e-36
1.058542e-36
1.0951247e-36
1.3745918e-36
1.2816904e-36
1.0135146e-36
1.025259e-36
2.6377112e-36
1.1086442e-36
1.1950244e-36
9.5996627e-37
8.9875572e-37
1.2252731e-36
1.1846864e-36
9.5192604e-37
9.2151659e-37
1.1812779e-36
8.8440705e-37
1.221812e-36
9.1302709e-37
1.2054904e-36
1.15557e-36
8.903247e-37
8.9483638e-37
1.0099822e-36
1.0076798e-36
3.4619322e-37
3.3499432e-37
1.0331478e-36
1.0863394e-36
3.4458388e-37
3.5435281e-37
1.141172e-36
3.5653401e-37
3.734539e-37
1.160598e-36
1.1357198e-36
1.0213695e-36
3.5458045e-37
3.5926109e-37
8.3036377e-37
5.7978251e-37
2.7634613e-37
2.6088907e-37
4.0518044e-37
4.0777915e-37
4.4624659e-37
4.4997634e-37
5.4451068e-37
5.423524e-37
5.1308519e-37
5.1664817e-37
6.4336774e-37
6.692683e-37
6.3616882e-37
6.837424e-37
4.8915211e-37
5.55426e-37
7.38103e-37
7.6477281e-37
7.5367503e-37
7.8972414e-37
8.3489388e-37
7.7908877e-37
8.1533408e-37
1.0091247e-36
9.5135556e-37
8.348079e-37
8.9504783e-37
8.9691559e-37
7.8920532e-37
9.4394256e-37
8.1462489e-37
8.8888676e-37
8.4724387e-37
8.7103624e-37
8.8158917e-37
1.0831469e-36
9.569193e-37
1.099603e-36
9.521138e-37
9.1497657e-37
9.2633638e-37
7.988668e-37
7.9673239e-37
7.3352114e-37
7.2520397e-37
7.4020527e-37
7.188374e-37
2.3076745e-37
2.9418063e-37
6.4085131e-37
4.6715153e-37
6.7352013e-37
4.9166693e-37
6.6883301e-37
6.6117191e-37
5.9876505e-37
5.9319806e-37
6.2869689e-37
5.5084914e-37
6.4637242e-37
5.6870315e-37
6.7754398e-37
5.0111216e-37
6.8370036e-37
5.0600755e-37
7.14844e-37
7.0724464e-37
6.4042125e-37
6.2952449e-37
7.1408744e-37
6.2188317e-37
7.2724013e-37
6.3368731e-37
7.2301452e-37
7.2521321e-37
5.3301048e-37
5.3034306e-37
5.2486286e-37
7.0317812e-37
7.313969e-37
5.357157e-37
6.8227354e-37
5.3821423e-37
7.0116319e-37
5.5591188e-37
7.0872467e-37
7.192036e-37
6.0410742e-37
6.1798741e-37
6.9491144e-37
6.9123758e-37
5.9447189e-37
5.9737227e-37
6.6510593e-37
6.7037258e-37
5.3486544e-37
5.4029162e-37
5.9488006e-37
4.6708983e-37
6.1940738e-37
4.8842708e-37
6.5926175e-37
6.4910414e-37
5.6182519e-37
5.5979403e-37
6.3338382e-37
5.3241122e-37
6.5050323e-37
5.5315425e-37
6.2484063e-37
6.2574999e-37
5.0206048e-37
5.0371259e-37
6.362426e-37
5.0802745e-37
6.5874944e-37
5.3005821e-37
6.2262565e-37
6.0856978e-37
5.5409086e-37
5.5017469e-37
6.0780991e-37
5.4050093e-37
6.2155757e-37
5.6074707e-37
6.4877013e-37
6.4378525e-37
5.2623155e-37
5.2490322e-37
4.9169765e-37
4.512239e-37
4.9360251e-37
4.4929935e-37
4.8517944e-37
4.3893514e-37
5.0479982e-37
4.5833973e-37
3.7558042e-37
3.8640963e-37
3.3308392e-37
4.1955565e-37
4.194224e-37
3.7111089e-37
3.7296151e-37
3.3610531e-37
4.0116742e-37
4.1559098e-37
3.5233177e-37
3.5870578e-37
3.8456408e-37
3.9371022e-37
3.5558353e-37
4.2667419e-37
4.2849628e-37
4.0265961e-37
4.1791349e-37
3.4790058e-37
4.5236468e-37
4.528841e-37
5.2068435e-37
4.841326e-37
5.4153503e-37
4.9977126e-37
3.563831e-37
3.6276039e-37
5.065073e-37
4.7298322e-37
5.1802207e-37
4.8032525e-37
6.5093835e-37
5.8645791e-37
6.4838079e-37
5.9004182e-37
6.6936733e-37
6.0189894e-37
6.7732386e-37
6.1311184e-37
7.0437319e-37
5.7257158e-37
7.1959335e-37
5.8806503e-37
6.9335731e-37
5.6455127e-37
6.9498994e-37
5.7084258e-37
2.4516384e-37
2.3865499e-37
2.7979741e-37
2.9006672e-37
2.4423643e-37
2.5292897e-37
2.697774e-37
2.6623943e-37
7.0275084e-37
5.6454248e-37
7.3675242e-37
5.9660777e-37
6.9749678e-37
6.97451e-37
6.2793198e-37
6.3640753e-37
6.6396943e-37
5.9825708e-37
6.8880417e-37
6.2525003e-37
7.327901e-37
7.4419923e-37
5.9563731e-37
6.0724818e-37
4.1849093e-37
4.2969307e-37
3.4473431e-37
4.6170138e-37
4.640329e-37
3.9271681e-37
4.1921606e-37
3.2130815e-37
4.5232131e-37
4.3740175e-37
5.4821789e-37
5.0936725e-37
5.6109191e-37
5.1882202e-37
5.159172e-37
4.8235771e-37
5.5120994e-37
5.107538e-37
3.5587557e-37
3.4266142e-37
3.5709069e-37
3.9268711e-37
3.4446129e-37
4.3357347e-37
3.3896581e-37
3.65412e-37
3.0439594e-37
2.4404617e-37
2.4826258e-37
2.8466303e-37
2.5093829e-37
2.4678488e-37
2.8536722e-37
3.0111584e-37
1.3474655e-37
1.3346697e-37
1.2041125e-37
1.6767637e-37
1.0609099e-37
1.4495979e-37
1.3812274e-37
1.4152611e-37
1.3367405e-37
1.6876183e-37
1.7196055e-37
1.1175527e-37
1.3744942e-37
1.3643202e-37
1.7796011e-37
1.6882722e-37
1.4584141e-37
1.4055225e-37
1.4482246e-37
1.4629777e-37
2.0805088e-37
2.0333016e-37
1.6980581e-37
1.1131098e-37
1.1274971e-37
1.7788051e-37
1.5861354e-37
1.5589077e-37
1.4921849e-37
1.4793647e-37
1.4155477e-37
1.7875122e-37
1.8101381e-37
1.3146525e-37
1.392312e-37
1.7347495e-37
1.534639e-37
1.3388448e-37
1.4639071e-37
1.4525453e-37
1.4681569e-37
1.5286915e-37
6.6499781e-37
7.0031493e-37
5.3286733e-37
5.5948258e-37
7.3465802e-37
7.4156195e-37
6.3043617e-37
6.3958937e-37
6.9046879e-37
5.8785824e-37
7.2145056e-37
6.1712132e-37
7.0483869e-37
7.2017687e-37
5.6916618e-37
5.8054475e-37
7.2750786e-37
5.419663e-37
7.7366816e-37
5.7008119e-37
7.4658849e-37
6.7219059e-37
7.529163e-37
6.7159526e-37
6.985538e-37
6.2556118e-37
7.2733567e-37
6.4818952e-37
7.7156468e-37
7.8585759e-37
5.690614e-37
5.7478048e-37
3.2205793e-37
3.2072044e-37
3.2405597e-37
3.0851195e-37
3.0789776e-37
3.1561789e-37
3.0446329e-37
2.9924954e-37
3.0871228e-37
3.2932411e-37
3.0630189e-37
3.1087395e-37
3.0533124e-37
3.1114009e-37
2.9133189e-37
2.9797557e-37
2.8918528e-37
2.9034957e-37
2.8742537e-37
2.7809474e-37
5.9258499e-37
2.7223092e-37
2.8631406e-37
2.8067367e-37
2.7781079e-37
6.0435279e-37
6.251847e-37
6.2800252e-37
7.5509653e-37
7.5938303e-37
7.625388e-37
7.1956202e-37
6.6930987e-37
6.7572107e-37
1.0536146e-36
6.3659129e-37
6.6663015e-37
6.538642e-37
6.4383316e-37
6.6369601e-37
6.4630662e-37
1.1762313e-36
1.1536501e-36
9.1928793e-37
1.2205268e-36
1.4476084e-36
9.2037211e-37
1.0320439e-36
1.9130952e-36
1.1300777e-36
1.1276086e-36
3.4523129e-36
1.3171868e-36
1.3681638e-36
1.4238053e-36
7.1276313e-37
1.4089832e-36
7.2949632e-37
1.4354772e-36
1.4893613e-36
1.5103836e-36
7.3500355e-37
7.3439164e-37
1.4180467e-36
1.4042365e-36
7.3396485e-37
1.4614454e-36
7.5030879e-37
1.5004795e-36
1.486619e-36
1.4764998e-36
7.3153776e-37
7.2242632e-37
3.6290818e-37
5.2150781e-37
5.4721734e-37
3.5853953e-37
5.6787937e-37
5.6562215e-37
3.5786699e-37
3.7610659e-37
4.3264609e-37
5.5376222e-37
5.3773742e-37
4.2065152e-37
5.0691814e-37
4.0015993e-37
4.1993559e-37
5.3483654e-37
4.2608729e-37
4.3829132e-37
5.6908218e-37
5.5352514e-37
5.6334143e-37
4.3675425e-37
4.1871379e-37
5.4207843e-37
5.630383e-37
5.4304528e-37
3.6654171e-37
3.6794409e-37
5.5953145e-37
5.6461034e-37
3.4747952e-37
3.7265515e-37
1.296135e-36
1.3031117e-36
1.3756514e-36
1.3143842e-36
1.3533044e-36
1.3009018e-36
1.3685145e-36
1.3541565e-36
3.3577338e-36
2.2087522e-36
2.2912232e-36
1.3690078e-36
1.030386e-36
3.9562788e-36
2.3429912e-36
2.3352073e-36
1.1454948e-36
1.142134e-36
3.7828171e-36
1.3374202e-36
1.3257203e-36
1.122283e-36
1.1324029e-36
3.2776323e-36
1.3212878e-36
1.3004994e-36
1.4580717e-36
1.4680526e-36
1.3875268e-36
1.3396636e-36
1.3919115e-36
1.3816004e-36
1.3723188e-36
1.4335455e-36
1.3317571e-36
1.336083e-36
1.3791427e-36
1.3243374e-36
1.3893133e-36
1.3869596e-36
1.3108005e-36
1.3197988e-36
1.3696273e-36
1.3063985e-36
1.3932541e-36
1.3752845e-36
1.3548307e-36
1.316497e-36
1.3838483e-36
1.3590521e-36
1.3825286e-36
1.426173e-36
1.9067456e-36
1.9267168e-36
1.5210208e-36
1.5014674e-36
1.4398308e-36
1.4143623e-36
7.1624447e-37
7.282148e-37
7.4415528e-37
1.4967841e-36
1.5201788e-36
7.3767403e-37
7.3595122e-37
1.4423275e-36
7.4579779e-37
1.4792561e-36
1.4643925e-36
1.4697476e-36
7.2676376e-37
7.1890202e-37
1.5999637e-36
5.1955936e-37
5.3640296e-37
3.5765532e-37
3.4484034e-37
5.6018453e-37
5.584952e-37
3.5446789e-37
3.7114875e-37
3.1098605e-36
4.6545573e-37
3.8462253e-37
4.0184389e-37
4.8858427e-37
5.0641461e-37
4.136527e-37
4.0438045e-37
4.998771e-37
1.7061272e-36
3.3814566e-36
1.8814839e-36
1.9862309e-36
1.5145356e-36
1.5631171e-36
1.7019374e-36
1.6873866e-36
3.3766757e-36
3.3923997e-36
5.377914e-37
5.5135569e-37
3.6573614e-37
3.6578694e-37
5.0740463e-37
4.0665145e-37
4.1450554e-37
5.2097409e-37
5.2274551e-37
4.1576719e-37
4.0015503e-37
5.0648073e-37
5.4578417e-37
5.5171909e-37
3.409291e-37
3.6691448e-37
1.8130309e-36
1.9238565e-36
1.4648726e-36
1.521028e-36
1.9147664e-36
1.9201369e-36
1.5128466e-36
1.4903117e-36
1.6046559e-36
3.4366992e-36
1.6595793e-36
3.5160289e-36
1.7047589e-36
1.6096651e-36
3.5830776e-36
3.4186013e-36
1.4289566e-36
1.3937689e-36
1.4594159e-36
1.4253114e-36
7.1909256e-37
7.3550682e-37
7.4166616e-37
1.4981341e-36
1.5203051e-36
7.3797762e-37
7.2944394e-37
1.4391924e-36
7.4138006e-37
1.4727697e-36
1.4582009e-36
1.4617577e-36
7.2217628e-37
7.1518438e-37
5.4992288e-37
5.3314541e-37
3.7359717e-37
3.7429767e-37
5.46238e-37
5.5095035e-37
3.7946329e-37
3.4657616e-37
5.312587e-37
4.1522863e-37
4.2363553e-37
5.4306205e-37
4.0081079e-37
4.2042303e-37
5.4018576e-37
5.1406396e-37
5.485269e-37
5.281797e-37
3.5858245e-37
3.645941e-37
5.0480427e-37
4.0302214e-37
4.1878915e-37
5.3233059e-37
5.6597221e-37
5.6595777e-37
3.7952575e-37
3.5931068e-37
4.1654061e-37
4.2917055e-37
5.5555983e-37
5.4013121e-37
4.2853596e-36
2.3701725e-36
2.4093203e-36
1.5322497e-36
1.4077095e-36
3.4955973e-36
2.3015866e-36
2.2646617e-36
1.4441695e-36
1.4616491e-36
1.4148296e-36
1.4318793e-36
1.8530345e-36
1.4956091e-36
1.9600794e-36
1.5415942e-36
1.6310193e-36
3.3149547e-36
1.6521776e-36
3.4130494e-36
1.8809708e-36
1.9092857e-36
1.4966164e-36
1.4794011e-36
3.4650715e-36
3.2718366e-36
1.6479702e-36
1.5449647e-36
1.3123824e-35
1.8621975e-36
1.9794657e-36
1.5407109e-36
1.49358e-36
1.5746836e-36
1.6218586e-36
3.1897705e-36
3.3141693e-36
1.5225464e-36
1.4893965e-36
1.9156165e-36
1.9441865e-36
1.6602842e-36
3.4172415e-36
1.5607328e-36
3.29379e-36
8.5305365e-37
9.4851417e-37
9.3588488e-37
2.7798406e-37
2.9068072e-37
8.2190094e-37
9.2290305e-37
2.775912e-37
2.7837993e-37
5.067857e-37
4.7625645e-37
5.310365e-37
5.3597055e-37
5.6790748e-37
5.5101672e-37
5.228022e-37
5.4132104e-37
9.7080184e-37
9.5428844e-37
2.8848355e-37
3.0537317e-37
9.2672592e-37
1.0075203e-36
2.9482042e-37
2.9401507e-37
6.1254615e-37
5.7916716e-37
6.1948975e-37
6.0127199e-37
6.0128939e-37
5.8825025e-37
5.4042127e-37
5.7325506e-37
1.1132883e-36
1.0538033e-36
3.4012834e-37
3.599877e-37
1.1325184e-36
1.074112e-36
3.4677704e-37
3.4744477e-37
1.113463e-36
1.0970766e-36
3.5698209e-37
3.5908997e-37
1.0019834e-36
1.1234396e-36
3.3342265e-37
3.334982e-37
1.1487138e-36
1.0520265e-36
8.6362846e-37
8.2858164e-37
9.2880882e-37
8.6982944e-37
2.8149592e-37
3.0042774e-37
9.3973042e-37
1.0072932e-36
2.9928672e-37
3.0249929e-37
1.0398512e-36
1.0049495e-36
3.017361e-37
3.1761543e-37
9.4846727e-37
1.055299e-36
3.0958083e-37
3.1001913e-37
9.559744e-37
9.9933235e-37
3.1125064e-37
2.9511221e-37
1.0570665e-36
9.8169476e-37
3.0196377e-37
3.0538013e-37
1.0268483e-36
1.0088925e-36
2.9473865e-37
3.1123405e-37
9.2918767e-37
1.0161875e-36
2.9789972e-37
3.0110126e-37
5.6930489e-37
5.4097758e-37
5.9652706e-37
6.0668238e-37
6.2136973e-37
6.3768806e-37
6.2357267e-37
5.8293479e-37
6.4667297e-37
6.527411e-37
5.1193119e-37
5.2263015e-37
2.950733e-37
3.0728269e-37
2.5853595e-37
2.7143453e-37
2.1885966e-37
2.525955e-37
2.3166587e-37
3.5318303e-37
3.6523254e-37
3.9789781e-37
3.9568731e-37
3.4097561e-37
3.472385e-37
3.7356257e-37
3.7029146e-37
4.4769099e-37
4.1462113e-37
4.7528552e-37
4.3309008e-37
4.4231256e-37
4.0413693e-37
4.5180523e-37
4.1166096e-37
5.5742209e-37
5.5548508e-37
5.0023254e-37
5.0490536e-37
5.7863572e-37
5.1762401e-37
5.9127459e-37
5.3286917e-37
6.0539113e-37
4.8907292e-37
6.2327676e-37
5.050455e-37
5.8818659e-37
4.7473489e-37
5.8963669e-37
4.802154e-37
7.2853736e-37
5.8839423e-37
7.2506939e-37
5.9270941e-37
6.7794183e-37
6.1395073e-37
6.7135351e-37
6.1252458e-37
7.1117669e-37
5.7888522e-37
7.0868429e-37
5.7898774e-37
6.9540213e-37
6.2505317e-37
6.9557595e-37
6.2534365e-37
4.1702558e-37
4.5069587e-37
5.2084377e-37
5.3958204e-37
4.9354022e-37
5.3607233e-37
4.9819451e-37
5.913295e-37
6.0902884e-37
4.6149264e-37
4.7749583e-37
6.2556706e-37
6.3768475e-37
5.2632168e-37
5.4248415e-37
6.009017e-37
4.7566256e-37
6.106001e-37
4.8201655e-37
6.2273064e-37
6.3056513e-37
5.2560705e-37
5.3750994e-37
5.5333506e-37
6.6427856e-37
5.7264736e-37
5.6015201e-37
5.8822921e-37
4.7281881e-37
6.2331466e-37
5.001128e-37
6.2104822e-37
4.9610782e-37
6.4043259e-37
5.1783887e-37
6.4745168e-37
5.7801226e-37
6.6615344e-37
5.9824469e-37
6.1707654e-37
5.5369172e-37
6.4630246e-37
5.8050509e-37
6.4438619e-37
4.7519769e-37
6.8319109e-37
5.0784412e-37
6.7695292e-37
5.0008278e-37
6.9989155e-37
5.1768054e-37
6.1133885e-37
5.3707202e-37
6.2465227e-37
5.4992609e-37
6.332569e-37
6.5675167e-37
4.8789205e-37
4.7002868e-37
6.272932e-37
5.5706407e-37
6.2962901e-37
5.5644542e-37
6.5643915e-37
4.8485873e-37
6.5648825e-37
4.8365166e-37
7.176957e-37
7.2083621e-37
6.1170367e-37
6.2013791e-37
6.8712517e-37
6.9770636e-37
5.5736955e-37
5.6567686e-37
6.8906533e-37
6.8605134e-37
5.5388947e-37
5.5289989e-37
7.1389161e-37
6.1106798e-37
7.0725294e-37
6.0924953e-37
7.3063868e-37
7.3428028e-37
6.5654417e-37
6.6054254e-37
7.5629882e-37
5.6029777e-37
7.721441e-37
5.7319527e-37
7.2114332e-37
6.4138786e-37
7.1624002e-37
6.3783958e-37
5.5188243e-37
7.4545513e-37
7.4480743e-37
5.4554024e-37
5.8641003e-37
5.2207601e-37
5.7751324e-37
5.1494816e-37
6.1948291e-37
5.3648834e-37
6.2379734e-37
5.4458717e-37
6.0570401e-37
4.4729197e-37
6.2727695e-37
4.6094862e-37
6.0058073e-37
4.4372344e-37
5.9815664e-37
4.4707513e-37
5.8379254e-37
4.9646648e-37
5.8020406e-37
4.9887007e-37
5.7783813e-37
5.9482209e-37
4.6186827e-37
4.7260042e-37
6.0549191e-37
5.1224025e-37
6.1728387e-37
5.2530421e-37
5.5714376e-37
4.4504458e-37
5.5855146e-37
4.4902499e-37
1.1026706e-37
1.2678261e-37
1.2211628e-37
1.2306635e-37
1.5338298e-37
1.0953969e-37
1.1886237e-37
2.2461422e-37
2.27951e-37
2.1841404e-37
2.3313761e-37
2.3341025e-37
1.8879088e-37
1.9163009e-37
2.4928136e-37
2.3045486e-37
2.2171675e-37
2.3129125e-37
2.2027573e-37
2.3860955e-37
1.9013613e-37
2.4179183e-37
1.913058e-37
2.1833739e-37
2.0315216e-37
2.0628872e-37
2.1986241e-37
2.1804567e-37
2.169924e-37
2.0289925e-37
2.0419287e-37
1.8913468e-37
2.0878086e-37
1.870017e-37
2.1733597e-37
2.1188984e-37
1.8968517e-37
2.0860494e-37
1.8699704e-37
1.9931293e-37
2.0582103e-37
1.9448355e-37
2.107686e-37
2.0000019e-37
1.803261e-37
1.8372768e-37
2.0983129e-37
2.0148194e-37
2.1225443e-37
1.9951006e-37
2.133179e-37
2.0617235e-37
1.8568343e-37
2.0983854e-37
1.8621178e-37
2.3211084e-37
2.2089298e-37
2.1898746e-37
2.3475825e-37
1.9281604e-37
2.3975236e-37
2.4328102e-37
1.9200283e-37
2.3033418e-37
2.319021e-37
2.2087183e-37
2.2134877e-37
1.9247489e-37
2.4393125e-37
1.9339507e-37
2.409316e-37
2.3774313e-37
2.211237e-37
2.2343313e-37
2.3862039e-37
2.333324e-37
2.3548356e-37
2.1970857e-37
2.1872553e-37
2.0310344e-37
2.2594333e-37
2.0183704e-37
2.3456858e-37
2.2619338e-37
2.01693e-37
2.2472889e-37
2.008963e-37
2.3135232e-37
2.4096061e-37
2.2395676e-37
2.4878217e-37
2.2742215e-37
2.0266895e-37
2.0772606e-37
2.4054544e-37
2.3080046e-37
2.4681818e-37
2.2902298e-37
2.4665857e-37
2.3364979e-37
2.0812304e-37
2.3662516e-37
2.0719117e-37
2.495863e-37
2.3619549e-37
2.3291425e-37
2.5165064e-37
2.4787025e-37
2.3716158e-37
2.4717182e-37
2.3512436e-37
2.0380532e-37
2.0322738e-37
2.5419821e-37
2.5721725e-37
2.5627948e-37
2.5566006e-37
2.0452684e-37
2.0420342e-37
2.6105906e-37
2.0779966e-37
2.183176e-37
2.7219545e-37
2.4182129e-37
2.5225435e-37
2.3966568e-37
2.5921049e-37
2.5454955e-37
2.5691845e-37
2.4295337e-37
2.3956402e-37
2.6363624e-37
2.6469683e-37
2.0821985e-37
2.0764355e-37
2.8367284e-37
3.0552639e-37
2.7516388e-37
3.1420147e-37
2.6870743e-37
2.2069631e-37
2.2771133e-37
2.8253287e-37
2.85888e-37
3.1118664e-37
2.8074911e-37
3.1585682e-37
2.7556737e-37
2.2687195e-37
2.8458085e-37
2.2942388e-37
3.7117499e-37
3.3014858e-37
3.3667091e-37
3.7264367e-37
3.764219e-37
3.3597767e-37
3.405606e-37
3.7628819e-37
3.2897591e-37
2.7172981e-37
2.7760445e-37
3.3870314e-37
3.3550887e-37
2.7792642e-37
2.8089899e-37
3.4176871e-37
3.6300363e-37
3.2107863e-37
3.2399653e-37
3.5989288e-37
3.5674121e-37
3.618884e-37
3.2230239e-37
3.1965001e-37
3.2058804e-37
2.6389514e-37
2.6615982e-37
3.2546254e-37
3.1989964e-37
3.2029858e-37
2.6463144e-37
2.6466805e-37
2.96583e-37
2.6489657e-37
2.6801144e-37
3.0001994e-37
2.9183694e-37
2.9512953e-37
2.6622514e-37
2.6378863e-37
2.1637719e-37
2.1896755e-37
2.6153914e-37
2.6678844e-37
2.6055276e-37
2.6241459e-37
2.1730297e-37
2.1672834e-37
2.3602997e-37
2.5584268e-37
2.2918592e-37
2.6115801e-37
2.2234975e-37
1.8548193e-37
1.9070196e-37
2.3306209e-37
2.6916334e-37
2.4388268e-37
2.6654875e-37
2.3902428e-37
2.3330707e-37
1.9372439e-37
2.3902155e-37
1.9736186e-37
3.4048321e-37
3.002775e-37
3.0448011e-37
3.4116381e-37
3.3372038e-37
2.966749e-37
3.0321438e-37
3.3603166e-37
2.4878041e-37
2.985873e-37
2.4542342e-37
3.0663218e-37
2.4794847e-37
2.9697993e-37
2.4505216e-37
3.031455e-37
2.8721968e-37
3.183673e-37
2.822056e-37
3.2118767e-37
2.7761943e-37
2.2772933e-37
2.3239013e-37
2.8592786e-37
2.9850899e-37
3.2830608e-37
2.9120254e-37
3.322778e-37
2.8904646e-37
2.38642e-37
2.9673552e-37
2.4278623e-37
2.7508933e-37
2.4566206e-37
2.4822184e-37
2.7835289e-37
2.7307511e-37
2.4662491e-37
2.7747461e-37
2.4864617e-37
1.996157e-37
2.0228485e-37
2.4202395e-37
2.4670747e-37
2.4627457e-37
2.431968e-37
2.0081e-37
2.034246e-37
3.7246102e-37
4.2456553e-37
3.6705241e-37
4.266916e-37
3.6122194e-37
2.9172021e-37
2.9466734e-37
3.6814461e-37
4.3898218e-37
3.8473817e-37
4.3797101e-37
3.7809552e-37
3.74401e-37
3.0261417e-37
3.820258e-37
3.0915456e-37
6.2714116e-37
5.107929e-37
5.1948255e-37
6.2243704e-37
6.0020725e-37
5.9791968e-37
4.9400829e-37
5.0033958e-37
3.9588045e-37
4.9995107e-37
3.9127883e-37
5.0988227e-37
4.963349e-37
3.9094792e-37
4.9114176e-37
3.8519678e-37
4.9959061e-37
5.9093972e-37
4.8766362e-37
6.0178921e-37
4.7727163e-37
3.7380368e-37
3.774108e-37
4.8526862e-37
5.1665401e-37
6.0983089e-37
5.0309893e-37
6.1275157e-37
4.9687302e-37
3.9030064e-37
5.0710465e-37
3.9439552e-37
4.4455111e-37
3.829774e-37
3.8673394e-37
4.4895611e-37
4.3444741e-37
3.7742085e-37
4.370054e-37
3.8158381e-37
3.1027257e-37
3.131471e-37
3.8448614e-37
3.8878927e-37
3.8398034e-37
3.7959993e-37
3.0724501e-37
3.1174423e-37
9.6031298e-37
9.7998084e-37
7.5043023e-37
7.695622e-37
7.6027858e-37
5.5433282e-37
5.6279976e-37
7.4724192e-37
9.0069435e-37
9.1256634e-37
7.2347123e-37
7.1070859e-37
7.2575548e-37
7.341333e-37
5.3733185e-37
5.4632069e-37
7.5065581e-37
9.1844751e-37
7.2450866e-37
9.3379493e-37
7.1333764e-37
5.2958377e-37
5.3988823e-37
7.2834328e-37
7.6798297e-37
9.4830061e-37
7.4550582e-37
9.6392167e-37
7.5229524e-37
5.5378967e-37
7.7758319e-37
5.6481093e-37
1.4596746e-36
1.4383377e-36
1.0018578e-36
1.0282086e-36
1.0704367e-36
1.1028641e-36
1.5353374e-36
1.5299941e-36
3.3658758e-37
3.352423e-37
2.8299287e-37
2.8914913e-37
8.2075501e-37
8.6688137e-37
1.428676e-36
1.4570236e-36
9.9641074e-37
1.0391656e-36
1.0047145e-36
1.0254449e-36
1.4400825e-36
1.4248643e-36
2.8571799e-37
3.1648926e-37
3.1696058e-37
2.7518676e-37
8.1848077e-37
8.7608878e-37
2.8723253e-37
3.1968691e-37
2.8665827e-37
2.783852e-37
3.1375713e-37
3.2025303e-37
3.0035857e-37
2.9868855e-37
1.4857071e-36
1.4826412e-36
1.0285255e-36
1.0558867e-36
1.0656613e-36
1.0721176e-36
1.5311504e-36
1.4893302e-36
2.949519e-37
3.2528798e-37
3.3711347e-37
2.9475716e-37
8.7117874e-37
9.0490721e-37
1.4828225e-36
1.4924182e-36
1.042486e-36
1.0735348e-36
1.1297746e-36
1.1487589e-36
1.6115764e-36
1.5858856e-36
3.0245251e-37
3.4668107e-37
3.5452436e-37
3.0937699e-37
9.133873e-37
8.7684122e-37
9.7983309e-37
9.9975748e-37
7.9890075e-37
7.8267184e-37
7.9206414e-37
8.0407022e-37
5.9706992e-37
6.0569925e-37
8.091542e-37
1.0046479e-36
7.9194835e-37
1.0122099e-36
6.0969716e-37
8.1702666e-37
8.2790873e-37
6.1820267e-37
3.1722944e-37
3.3712663e-37
3.2203217e-37
3.1088213e-37
3.0403648e-37
3.1918573e-37
2.9192166e-37
2.95339e-37
7.8373912e-37
9.8307417e-37
7.7033597e-37
9.946603e-37
5.8291409e-37
7.8675895e-37
7.8998916e-37
5.8554185e-37
7.6589485e-37
9.5904093e-37
7.561018e-37
9.5950506e-37
5.8349001e-37
7.8182566e-37
7.8510206e-37
5.8573988e-37
5.3159691e-37
6.4460669e-37
5.3020018e-37
6.3978067e-37
5.3121064e-37
4.1634628e-37
4.1993466e-37
5.3081769e-37
6.3489376e-37
5.3175186e-37
6.3934421e-37
5.3039181e-37
5.3055702e-37
4.1807758e-37
5.301424e-37
4.2006624e-37
5.4910253e-37
6.5431784e-37
5.440636e-37
6.5569058e-37
5.407877e-37
5.4505625e-37
4.2685421e-37
4.3184724e-37
5.5734359e-37
6.6304045e-37
5.4946573e-37
6.6445164e-37
4.3542307e-37
5.5063166e-37
5.5757402e-37
4.4095082e-37
4.201525e-37
4.7817458e-37
4.1566417e-37
4.7992648e-37
3.3960957e-37
4.1695387e-37
4.222257e-37
3.4417477e-37
4.8635072e-37
4.2695227e-37
4.8464147e-37
4.22117e-37
3.4592349e-37
4.2443263e-37
4.2951725e-37
3.5040904e-37
4.0684948e-37
4.6978064e-37
4.0665402e-37
4.6846064e-37
3.3055387e-37
4.0823028e-37
4.1019042e-37
3.3169504e-37
4.6436764e-37
4.0754269e-37
4.6746058e-37
4.0792123e-37
3.3282799e-37
4.0941716e-37
4.0832181e-37
3.3290971e-37
2.0406024e-37
2.2704229e-37
2.1532811e-37
2.0915634e-37
2.1108348e-37
2.0598429e-37
2.0942879e-37
2.1610767e-37
2.3749853e-37
2.5535942e-37
2.5676634e-37
2.3607308e-37
2.3014323e-37
2.419856e-37
2.4492706e-37
2.2556866e-37
2.1316921e-37
2.1298772e-37
2.1336986e-37
2.0227355e-37
2.4667192e-37
2.2792432e-37
2.2948776e-37
2.3056698e-37
2.5161545e-37
2.664638e-37
2.3284343e-37
2.3394792e-37
2.2736085e-37
2.4939718e-37
2.2358707e-37
2.0886725e-37
4.0976399e-37
4.6363005e-37
4.0315899e-37
4.6765598e-37
3.9746045e-37
3.2235041e-37
3.270386e-37
4.07225e-37
4.9322076e-37
4.3486904e-37
4.9032164e-37
4.2688644e-37
4.2336569e-37
3.4352914e-37
4.3226223e-37
3.5079795e-37
6.9381373e-37
5.6984864e-37
5.7996937e-37
6.8816595e-37
6.9130293e-37
6.9424482e-37
5.7894575e-37
5.8183342e-37
4.486108e-37
5.6159842e-37
4.4354159e-37
5.7174847e-37
5.7884535e-37
4.5888277e-37
5.7677575e-37
4.5514182e-37
5.4550221e-37
6.3941381e-37
5.3196134e-37
6.4553722e-37
5.2304895e-37
4.1296701e-37
4.1769996e-37
5.3396634e-37
5.7795665e-37
6.7212295e-37
5.5922995e-37
6.8104416e-37
5.5514727e-37
4.3934238e-37
5.7049708e-37
4.4562276e-37
5.0067582e-37
4.3523131e-37
4.3917328e-37
5.0579064e-37
5.1097327e-37
4.4746983e-37
5.0973708e-37
4.4794789e-37
3.537547e-37
3.5752317e-37
4.359257e-37
4.4150072e-37
4.4921645e-37
4.4817865e-37
3.6416484e-37
3.6576318e-37
1.5804918e-36
1.5982339e-36
1.1042498e-36
1.1385289e-36
1.1622988e-36
1.1689274e-36
1.6521799e-36
1.6282423e-36
3.2083313e-37
3.5317927e-37
3.6078341e-37
3.19221e-37
9.3377401e-37
9.6327095e-37
1.505466e-36
1.5108917e-36
1.0516592e-36
1.0792055e-36
1.1604923e-36
1.1935615e-36
1.6491027e-36
1.6684697e-36
2.9311854e-37
3.3386314e-37
3.4726972e-37
3.0769664e-37
9.4681422e-37
8.9847988e-37
1.0508999e-36
1.064433e-36
8.2805442e-37
8.4166668e-37
8.4761228e-37
6.2473726e-37
6.3293397e-37
8.4154375e-37
1.0467887e-36
1.0379037e-36
8.3153e-37
8.2811896e-37
8.5104097e-37
8.5046397e-37
6.337284e-37
6.3946173e-37
7.957112e-37
9.7892049e-37
7.7663092e-37
9.9674892e-37
7.8349479e-37
5.8673208e-37
5.9767658e-37
7.9571912e-37
8.377908e-37
1.032142e-36
8.1454037e-37
1.0464072e-36
8.3396702e-37
6.2004571e-37
8.5245089e-37
6.3560845e-37
3.0296987e-37
3.2001926e-37
3.243443e-37
3.1090562e-37
3.2283567e-37
3.3582999e-37
3.1256989e-37
3.154013e-37
2.9934581e-37
3.3396854e-37
3.4627135e-37
3.0067871e-37