/*--------------------------------*- C++ -*----------------------------------*\
  =========                 |
  \\      /  F ield         | OpenFOAM: The Open Source CFD Toolbox
   \\    /   O peration     | Website:  https://openfoam.org
    \\  /    A nd           | Version:  7
     \\/     M anipulation  |
\*---------------------------------------------------------------------------*/
FoamFile
{
    version     2.0;
    format      ascii;
    class       volScalarField;
    location    "5000";
    object      k;
}
// * * * * * * * * * * * * * * * * * * * * * * * * * * * * * * * * * * * * * //

dimensions      [0 2 -2 0 0 0 0];

internalField   nonuniform List<scalar> 
34387
(
1.5210872
1.5212412
1.5201523
1.5200457
1.5290585
1.5227495
1.5225587
1.5219169
1.5217694
1.5196998
1.5197053
1.5196437
1.5196888
1.5193572
1.5194028
1.5198141
1.519704
1.5196928
1.5196967
1.5195236
1.5194016
1.5203204
1.5195331
1.5194066
1.5193022
1.5194288
1.5193749
1.5192613
1.5192926
1.5194107
1.5202265
1.5188503
1.5188109
1.5187517
1.5235992
1.5233702
1.5224294
1.5222573
1.5311947
1.5314373
1.5306074
1.5308089
1.5213868
1.5211634
1.5211537
1.521373
1.5211889
1.5213038
1.5209901
1.5211025
1.5212192
1.5211348
1.5211278
1.5220699
1.5212115
1.5219458
1.521151
1.5210769
1.5209797
1.5210517
1.5209982
1.5209377
1.5202308
1.5202463
1.519639
1.5201471
1.5201314
1.5202454
1.5196432
1.5201749
1.5201467
1.5195725
1.5195701
1.5201875
1.5196828
1.5202223
1.5197961
1.5196101
1.5197217
1.5195174
1.5194902
1.5195174
1.5194877
1.5196065
1.5195195
1.5195543
1.5196454
1.5197922
1.5196992
1.5196185
1.519723
1.5203433
1.520235
1.5202321
1.5201402
1.5196437
1.5201352
1.5201951
1.5202179
1.5196353
1.5201185
1.5200975
1.5195683
1.5195608
1.5196506
1.5196748
1.5195761
1.5195434
1.5194844
1.5194936
1.5195209
1.5195133
1.5191363
1.5193975
1.5193208
1.519083
1.5196231
1.5196113
1.5195229
1.5195043
1.5194815
1.5195681
1.519591
1.5194972
1.5194345
1.5194407
1.5194317
1.5194311
1.5194534
1.5194705
1.5194592
1.5194442
1.5194293
1.5194355
1.5194574
1.519453
1.5194099
1.5194053
1.5192821
1.5194124
1.519419
1.519428
1.5194775
1.5193067
1.5194915
1.5194362
1.5194823
1.5194584
1.5195268
1.5195563
1.519047
1.5190639
1.5190213
1.5189881
1.5216754
1.5228435
1.5209711
1.5218656
1.5217122
1.5215397
1.5213804
1.5216105
1.5215854
1.5212947
1.5212792
1.5215801
1.5214402
1.521297
1.5214388
1.5226044
1.5213451
1.521219
1.5212095
1.521332
1.5224571
1.5210582
1.5209922
1.5210218
1.5210364
1.5209576
1.5209447
1.5209228
1.5209313
1.5209587
1.5209489
1.5209153
1.5209183
1.5209434
1.5209403
1.5209353
1.5209391
1.5210115
1.5210069
1.5209059
1.5208218
1.5208493
1.5207657
1.5209615
1.5209671
1.5208941
1.5208994
1.5208457
1.5208553
1.5207834
1.5207744
1.5208811
1.5208853
1.5209057
1.5209016
1.5209333
1.5209388
1.520953
1.5209471
1.5211796
1.5209887
1.5209764
1.520986
1.5209724
1.5209785
1.5209805
1.5209671
1.5209653
1.5211748
1.5209983
1.5209961
1.5209419
1.5209319
1.5209396
1.5209296
1.5211145
1.5210402
1.5209481
1.520899
1.5208979
1.5209013
1.5209095
1.5209066
1.5209462
1.5209491
1.5209374
1.520935
1.520911
1.5208972
1.5208332
1.5208485
1.5207984
1.5208684
1.5208685
1.5208032
1.5209945
1.5209354
1.5216668
1.5216682
1.5214413
1.521439
1.5214776
1.5214805
1.5217079
1.5217085
1.520059
1.5200766
1.5200947
1.5200744
1.5216858
1.5216452
1.5217031
1.5217029
1.5214747
1.5214713
1.5201179
1.5200929
1.5200727
1.5200981
1.5217053
1.5216805
1.5200799
1.5200598
1.5200325
1.5200551
1.5200628
1.5200452
1.5200189
1.5200361
1.5217609
1.5201129
1.5201314
1.5201666
1.5201455
1.5218254
1.5202256
1.5202406
1.5200716
1.520097
1.5201317
1.5201042
1.5201753
1.520193
1.5203876
1.5199881
1.5200153
1.5200325
1.5200044
1.5199566
1.519983
1.5199988
1.519973
1.5200002
1.5200283
1.5200428
1.5200174
1.5199662
1.5199908
1.5200019
1.5199793
1.5202484
1.5201015
1.5200818
1.5202301
1.520059
1.5200266
1.5200014
1.5200339
1.5200375
1.5200629
1.520099
1.5200705
1.5203196
1.5201487
1.5201284
1.5202982
1.5201406
1.5201082
1.5201498
1.5201136
1.5200639
1.5200523
1.520064
1.5200733
1.5200371
1.5200341
1.5200172
1.5200098
1.5200791
1.5201163
1.520097
1.5200643
1.521412
1.5214155
1.5212356
1.5212318
1.5215745
1.5215753
1.5213711
1.5213681
1.5213838
1.5213864
1.5215935
1.5215936
1.5215509
1.5200644
1.5200732
1.5200765
1.5200604
1.5215696
1.5215831
1.521583
1.5213647
1.5213615
1.5213871
1.5213916
1.5216066
1.5216078
1.5200249
1.5200391
1.5200586
1.5200437
1.5215834
1.5215592
1.5200143
1.5200325
1.5200311
1.5200119
1.5199801
1.5200014
1.5200201
1.5199982
1.5200455
1.5200738
1.520027
1.5200063
1.5200516
1.5200923
1.5200675
1.5200332
1.5199817
1.5200062
1.5200037
1.5199832
1.5199532
1.5199794
1.5199727
1.5199503
1.5199486
1.5199345
1.5199108
1.519926
1.5199615
1.5199534
1.5199333
1.5199388
1.5199727
1.5199904
1.5199947
1.5199736
1.5199844
1.5199683
1.5199444
1.5199617
1.5193338
1.5195133
1.5194472
1.5194493
1.5194047
1.519401
1.5194037
1.519365
1.5193641
1.5192861
1.5200347
1.5200738
1.5200194
1.5199909
1.5200428
1.520086
1.5200231
1.5199908
1.5199357
1.5199692
1.5199293
1.5199599
1.5199328
1.5199724
1.5199608
1.5199264
1.5198921
1.5198958
1.5199293
1.5199227
1.5199352
1.5199943
1.5200391
1.5199755
1.520062
1.5200991
1.5200317
1.5200019
1.5199743
1.5199825
1.5199495
1.5199394
1.5198634
1.5198669
1.5198944
1.5198952
1.5199061
1.5199474
1.5199535
1.519917
1.519883
1.519927
1.5198999
1.5199454
1.5198789
1.5198582
1.519892
1.5198668
1.5198964
1.5199359
1.5199483
1.5199105
1.5199494
1.5199366
1.519909
1.5199185
1.5198859
1.5199171
1.5199335
1.5199022
1.5198771
1.5199157
1.519934
1.5198967
1.5199623
1.5199549
1.5199227
1.5199302
1.5199706
1.5199647
1.5199283
1.5199359
1.5199354
1.5199707
1.5199835
1.5199503
1.5199802
1.5199713
1.5199403
1.51995
1.519382
1.5198666
1.5199008
1.5198935
1.5198633
1.5193792
1.5198509
1.5198827
1.5198853
1.5198576
1.5193524
1.5193516
1.5199522
1.5199459
1.5199173
1.5199231
1.5199621
1.5199634
1.5199314
1.5199316
1.5194082
1.5198816
1.519913
1.5199164
1.519886
1.5194435
1.5199174
1.5199511
1.520039
1.5199968
1.519383
1.5194061
1.5201289
1.5200208
1.5199982
1.5201045
1.5199904
1.5199781
1.5199507
1.5199645
1.5199732
1.5200062
1.5200339
1.5200032
1.5199595
1.5199939
1.520014
1.5199834
1.520166
1.5200461
1.5200192
1.5201354
1.5200444
1.5200715
1.5202021
1.5201737
1.5192645
1.5192977
1.5227453
1.5229977
1.5216671
1.5221019
1.5219766
1.5223298
1.522458
1.522637
1.5229333
1.520941
1.5229595
1.5227222
1.5209447
1.5214292
1.5213409
1.5213144
1.5212173
1.52126
1.5212539
1.5211384
1.5211449
1.521305
1.5212606
1.5211612
1.5212139
1.5210893
1.5211339
1.5211272
1.5210825
1.5212015
1.5212045
1.5210952
1.5210924
1.5211901
1.5211735
1.5210703
1.5210846
1.5210329
1.5210357
1.5210799
1.5210776
1.5210286
1.5210706
1.5210595
1.5210192
1.5212763
1.5212509
1.521151
1.5211859
1.5211866
1.5212807
1.5212825
1.5211922
1.5214583
1.5211124
1.5211191
1.5211123
1.5211076
1.5213478
1.5210784
1.5210731
1.5211064
1.5211006
1.5211687
1.5210961
1.5210198
1.5210471
1.5210159
1.5210447
1.5210553
1.5210589
1.5210528
1.5212683
1.5210496
1.521047
1.5210509
1.5212622
1.5210446
1.5210403
1.5210089
1.5210145
1.5210405
1.5210338
1.5210189
1.5210161
1.521079
1.5210069
1.5210028
1.5209785
1.5209734
1.5209969
1.5210364
1.5210115
1.5209871
1.5210121
1.5209892
1.5209715
1.5209513
1.520968
1.5209602
1.5209439
1.5209402
1.5209555
1.520884
1.520887
1.5208991
1.5208958
1.5208913
1.5209043
1.5209173
1.5209041
1.5209514
1.5209308
1.5209151
1.5209346
1.5209062
1.5209099
1.520928
1.5209245
1.5208776
1.5208793
1.5208908
1.5208883
1.5208802
1.5208815
1.5208934
1.5208914
1.5209223
1.5209036
1.520901
1.5209186
1.520919
1.5209006
1.5208975
1.5209146
1.5209276
1.5209326
1.5209464
1.5209418
1.520932
1.5209364
1.5209506
1.5209465
1.5209893
1.520966
1.5209616
1.5209844
1.5209566
1.5209615
1.5209833
1.520979
1.5209126
1.5209055
1.5208959
1.5208885
1.5208004
1.5208502
1.5207879
1.5208411
1.5208801
1.5208702
1.520874
1.5208643
1.5208279
1.5208276
1.5207807
1.5207789
1.5209458
1.5209493
1.5209244
1.5209284
1.5209293
1.5209331
1.5209535
1.5209501
1.5208963
1.5209005
1.5209122
1.5209084
1.5209006
1.5209037
1.5209163
1.5209131
1.5208299
1.5208321
1.520838
1.5208353
1.5208571
1.5208459
1.5208423
1.5208526
1.5208165
1.5208132
1.5207734
1.5207685
1.5208051
1.5208064
1.5207678
1.5207665
1.520852
1.5208534
1.5208624
1.5208604
1.5208554
1.5208567
1.5208657
1.520864
1.5208723
1.5208746
1.5208897
1.5208872
1.5208866
1.5208712
1.5208686
1.5208831
1.5208845
1.5208859
1.5208813
1.5208796
1.5208889
1.5208998
1.5208948
1.5208849
1.5208987
1.5208898
1.5208788
1.5208883
1.5208837
1.5208753
1.5208731
1.5208816
1.5210181
1.5209992
1.5209976
1.5210164
1.5209604
1.5209664
1.5209495
1.5209426
1.5209291
1.5209171
1.5209071
1.5209209
1.5209368
1.5209572
1.5209548
1.5209367
1.5209148
1.5209154
1.5209037
1.5209029
1.5210101
1.5209485
1.5209477
1.5209297
1.5209308
1.5210111
1.5209502
1.5209506
1.5209327
1.5209323
1.520898
1.5209115
1.5209108
1.5208995
1.5209096
1.5209084
1.5208973
1.5208983
1.5209939
1.5209929
1.5209966
1.5209928
1.5208783
1.5208695
1.5208701
1.5208783
1.5208766
1.5208825
1.5208835
1.5208783
1.5208765
1.5208679
1.5208684
1.520876
1.5208753
1.5208816
1.5208823
1.5208769
1.5209716
1.5209695
1.520951
1.5209488
1.5209259
1.5209112
1.5208788
1.5208776
1.5209489
1.5209066
1.5208609
1.5208584
1.520854
1.5208527
1.5208636
1.5208616
1.5208559
1.5208569
1.5208495
1.5208492
1.5208554
1.5208549
1.5208517
1.5208461
1.5208465
1.5208516
1.5209271
1.5209264
1.5209105
1.5209117
1.5209289
1.5209285
1.520913
1.5209136
1.5208792
1.5208936
1.5208943
1.5208819
1.5208763
1.5208909
1.5208922
1.5208794
1.5209078
1.5209091
1.5208964
1.5208953
1.5208783
1.5208796
1.5208647
1.5208634
1.5208416
1.520863
1.5208295
1.5208151
1.5208773
1.5208912
1.5208552
1.5208442
1.5208012
1.5208287
1.5208144
1.5207877
1.5208473
1.5208489
1.5208392
1.5208376
1.5208317
1.520831
1.5208293
1.5208307
1.520778
1.520809
1.5208054
1.5207733
1.5209468
1.5209868
1.5217652
1.5217711
1.5217772
1.5217844
1.5218279
1.5218283
1.5218145
1.5218147
1.5216193
1.521603
1.5216405
1.5216581
1.5218262
1.5218266
1.521924
1.5219235
1.5217742
1.5217622
1.5218579
1.521871
1.5218074
1.5218077
1.5218199
1.5218202
1.5216584
1.521636
1.5216532
1.5216768
1.5218494
1.521844
1.5219435
1.5219504
1.5218118
1.5218119
1.5219103
1.5219103
1.5216299
1.5216097
1.5216216
1.5216429
1.521614
1.5215801
1.5215902
1.521626
1.5217359
1.5218952
1.5218814
1.5219814
1.5219966
1.5217209
1.521781
1.5217978
1.5219746
1.5219635
1.5220654
1.5220785
1.521912
1.5218927
1.5217094
1.5217007
1.5217563
1.5217675
1.5218773
1.5218649
1.5223287
1.5215729
1.5215683
1.5215985
1.5216053
1.5215667
1.5215678
1.521593
1.5215955
1.5216005
1.5215938
1.521611
1.5216196
1.5215898
1.5215881
1.5216004
1.5216056
1.5221672
1.5218256
1.5218358
1.5222095
1.5217258
1.5216812
1.5216856
1.5217328
1.5216943
1.5216899
1.5217398
1.5217476
1.5222498
1.5218453
1.5218549
1.5222898
1.5213399
1.521465
1.5213277
1.5214469
1.5214945
1.5214847
1.5214665
1.5214754
1.5214466
1.5214394
1.5214594
1.5214514
1.521422
1.5213152
1.5213197
1.5214325
1.5217421
1.5217463
1.5217663
1.5217611
1.5216722
1.521676
1.521685
1.5216895
1.5217109
1.5217092
1.5216967
1.5216951
1.5215216
1.5216877
1.5216774
1.5217694
1.5217799
1.5215187
1.521501
1.5215393
1.5217078
1.5217136
1.5218066
1.5218008
1.5216844
1.5216835
1.5216972
1.5216963
1.5217226
1.5217264
1.5217089
1.521712
1.5215292
1.5215082
1.5215336
1.5215537
1.5217206
1.5217178
1.5218125
1.5218169
1.5216901
1.521693
1.5217874
1.521784
1.5214835
1.5214691
1.5214858
1.5215007
1.52149
1.5214745
1.5215005
1.5215157
1.5213254
1.5213379
1.5214223
1.5214164
1.5214141
1.5213186
1.5213154
1.5214162
1.5214306
1.5214253
1.5214305
1.5214371
1.5214239
1.5214262
1.5214278
1.5214283
1.5214656
1.5214389
1.5214441
1.5214703
1.5214599
1.5214468
1.5214476
1.5214615
1.5214583
1.5214515
1.5214662
1.5214745
1.5214777
1.5214517
1.5214619
1.5214879
1.5226437
1.5197202
1.51968
1.5198838
1.5198309
1.5197984
1.5198337
1.5198016
1.5197643
1.5197631
1.5197966
1.5197709
1.5197444
1.5197452
1.5197712
1.5197764
1.5197463
1.5197439
1.5197699
1.5196491
1.5196505
1.5227164
1.5213531
1.5213684
1.5214393
1.5214329
1.5213799
1.5213806
1.5214322
1.5214443
1.521431
1.5214355
1.5214312
1.5214343
1.521436
1.5214259
1.5214168
1.5214332
1.5208124
1.5208163
1.5211588
1.521152
1.5208273
1.5208305
1.5211502
1.5211661
1.5213588
1.5212925
1.5213204
1.5214008
1.521304
1.5213135
1.5213938
1.5213836
1.5208191
1.5208279
1.5211733
1.5211677
1.5213999
1.5213258
1.521323
1.5214039
1.5213799
1.5213083
1.5213988
1.5213242
1.5211631
1.5208187
1.5211756
1.5208255
1.5214471
1.5214366
1.5214427
1.521459
1.5214636
1.5214515
1.5214507
1.5214633
1.5214376
1.5214362
1.521462
1.5214653
1.5214316
1.5214179
1.5214391
1.5214581
1.5215421
1.521539
1.5215671
1.5215726
1.5215473
1.5215413
1.5215636
1.5215747
1.5215705
1.5215721
1.5215878
1.5215932
1.5215889
1.5215811
1.5215873
1.5215974
1.5197727
1.5197509
1.5197488
1.5197665
1.520878
1.5212427
1.5212427
1.5208733
1.5197634
1.5197442
1.5197451
1.5197635
1.5208619
1.5212269
1.5212306
1.5208659
1.519659
1.5196526
1.5213964
1.5213958
1.5214912
1.5214923
1.521408
1.5214082
1.5214988
1.5215009
1.5197947
1.5197846
1.5197852
1.519794
1.520923
1.5212914
1.5212992
1.5209201
1.5198365
1.5198309
1.5198563
1.519882
1.5209725
1.5213541
1.5215126
1.5210948
1.5196959
1.5197395
1.5217219
1.5215414
1.5216561
1.5218569
1.5214777
1.5214658
1.5215679
1.5215849
1.5216774
1.52167
1.5217057
1.5217192
1.5216551
1.5216262
1.5216484
1.5216864
1.5219463
1.5217262
1.52177
1.5220126
1.5218143
1.521798
1.5220706
1.5221233
1.5229526
1.5231227
1.5226472
1.522719
1.522955
1.5231156
1.5216565
1.5215646
1.5217914
1.5218698
1.5218793
1.5221469
1.5173013
1.5175902
1.5216448
1.5224765
1.5222008
1.5221141
1.5224068
1.5226505
1.5229248
1.5212999
1.5227121
1.5224876
1.5227199
1.5228449
1.5228451
1.5228753
1.5228787
1.5213885
1.5208394
1.5208806
1.5229197
1.5229176
1.5230588
1.5230565
1.5226279
1.522697
1.5226984
1.5226355
1.5213028
1.5213459
1.5213873
1.5213503
1.5212581
1.5213005
1.5212959
1.5212504
1.5213158
1.5212831
1.5212384
1.5212746
1.5211875
1.5211955
1.5212186
1.5212259
1.5212618
1.5212235
1.5212583
1.5212192
1.521216
1.5212215
1.5212563
1.5212514
1.5211559
1.5211621
1.5211872
1.5211819
1.521158
1.5211625
1.5211889
1.5211849
1.5212581
1.521224
1.5211755
1.5212147
1.5212077
1.5211843
1.5211312
1.5211604
1.5210806
1.5210854
1.5211104
1.5211054
1.5211668
1.5211292
1.5211238
1.5211593
1.5210511
1.5210548
1.5210772
1.5210732
1.5210958
1.5211003
1.5211306
1.5211265
1.5211298
1.5210974
1.521094
1.5211242
1.5210721
1.5210491
1.5210477
1.5210693
1.5212259
1.5211929
1.5211886
1.5212199
1.5212305
1.5211969
1.5211905
1.5212225
1.5211618
1.5211356
1.5211325
1.5211561
1.5211583
1.5211326
1.5211309
1.5211543
1.5212133
1.5211809
1.5211748
1.5212057
1.5211376
1.5211647
1.5211927
1.5211671
1.5210888
1.5211134
1.5211331
1.5211096
1.5211189
1.521125
1.5211474
1.5211418
1.5210246
1.5210264
1.5210469
1.5210452
1.5210272
1.5210268
1.5210471
1.5210474
1.5211021
1.521072
1.5210724
1.5210998
1.5210704
1.5210723
1.5210997
1.521098
1.5210173
1.5210187
1.5210389
1.5210369
1.5210927
1.5210634
1.5210607
1.5210876
1.5210828
1.5210558
1.5210372
1.521062
1.5210306
1.5210111
1.5209982
1.5210157
1.5211785
1.5211602
1.5211053
1.5211284
1.5211668
1.5211668
1.5211152
1.5211181
1.5210663
1.5210671
1.5210651
1.5210632
1.5210772
1.5210576
1.521055
1.5210736
1.5212113
1.5211436
1.5211458
1.5211293
1.5211273
1.5212894
1.5211784
1.5212231
1.5212117
1.5211695
1.5211446
1.5211913
1.5211856
1.5211405
1.5210906
1.5211045
1.5211022
1.5210905
1.5212299
1.521175
1.5210452
1.5210608
1.5210607
1.5210473
1.5211429
1.5210855
1.5211046
1.5211023
1.5210855
1.5211385
1.5210988
1.5210988
1.5210814
1.5210815
1.5210435
1.5210596
1.5210597
1.5210457
1.5211099
1.5211068
1.5210254
1.5210293
1.5210305
1.5210266
1.5210288
1.5210274
1.5210241
1.5210239
1.5210235
1.5210242
1.5210415
1.5210394
1.5210213
1.5210372
1.5210356
1.5210206
1.5211678
1.521106
1.5210001
1.5209994
1.5209957
1.5209962
1.5209969
1.5210115
1.5210116
1.520997
1.5209918
1.5209959
1.5209946
1.5209919
1.5209938
1.5209944
1.5210103
1.5210089
1.5210804
1.5210614
1.5210596
1.5210447
1.5210428
1.5210826
1.5210638
1.5210637
1.5210472
1.5210478
1.5210295
1.5210284
1.5210144
1.5210153
1.521051
1.5210491
1.5210242
1.5210105
1.5210093
1.521026
1.5210732
1.5210501
1.5210521
1.521033
1.5210354
1.5210756
1.5210574
1.5210552
1.521041
1.5210383
1.5210446
1.5210433
1.5210194
1.5210054
1.5210057
1.5210224
1.5210169
1.5210027
1.5209965
1.5210137
1.5209824
1.5209897
1.520985
1.5209774
1.5209928
1.5209924
1.5209885
1.5209889
1.5210034
1.5209889
1.5209893
1.5210032
1.5209755
1.5209849
1.5209979
1.5209876
1.5210386
1.5210345
1.5212897
1.5213573
1.5210172
1.5210112
1.5210052
1.5210107
1.5210769
1.5210672
1.5210235
1.5210302
1.5210551
1.5210409
1.5210044
1.5210144
1.5210036
1.5209942
1.5209891
1.5209976
1.5209548
1.5209576
1.5209649
1.5209614
1.5209636
1.5209851
1.5209962
1.5209716
1.5210254
1.5210097
1.5209817
1.5209928
1.5209698
1.520974
1.5209839
1.5209792
1.5209521
1.5209506
1.5209567
1.5209573
1.5209511
1.5209519
1.5209583
1.5209568
1.5209756
1.5209663
1.5209642
1.5209724
1.5209735
1.5209645
1.5209643
1.5209722
1.5209802
1.5209818
1.5209892
1.5209876
1.5209807
1.5209843
1.520992
1.5209884
1.5210043
1.5209986
1.520995
1.5210003
1.5209941
1.5209956
1.5210008
1.5209994
1.5210137
1.5210206
1.5210079
1.5210142
1.5211177
1.5210424
1.521107
1.5210352
1.5210015
1.5209947
1.5210073
1.5210001
1.5210208
1.5210278
1.5210969
1.5210873
1.5210052
1.5210036
1.5209994
1.5209981
1.5209963
1.520996
1.5210012
1.5210017
1.5209857
1.5209849
1.5209916
1.5209926
1.5209829
1.5209827
1.5209895
1.5209898
1.5209808
1.5209755
1.5209779
1.5209832
1.5209881
1.5209822
1.5209876
1.5209933
1.5210139
1.5210079
1.5210787
1.5210712
1.5210034
1.5210009
1.5210608
1.5210654
1.5209628
1.5209609
1.5209648
1.5209663
1.520961
1.5209587
1.5209626
1.5209642
1.5209693
1.5209683
1.5209751
1.5209757
1.5209776
1.5209705
1.5209717
1.5209783
1.5209595
1.5209608
1.5209553
1.5209539
1.5209666
1.5209822
1.5209767
1.5209607
1.5209775
1.5209749
1.5209579
1.5209588
1.5209532
1.5209527
1.5209509
1.5209512
1.5209935
1.5209959
1.5209861
1.5209822
1.520999
1.5209952
1.5209901
1.5209791
1.5209777
1.5209898
1.52099
1.5210021
1.5210057
1.520991
1.5210004
1.5209919
1.520976
1.5209855
1.5209815
1.5209819
1.5209807
1.5209807
1.5209754
1.5209764
1.5209693
1.5209681
1.5209707
1.5209837
1.5209832
1.5209713
1.5209723
1.5209715
1.5209724
1.5209741
1.5209846
1.5209846
1.5209729
1.5209729
1.520973
1.5209739
1.520975
1.520974
1.5209638
1.5209711
1.5209701
1.5209642
1.5209708
1.5209685
1.5209625
1.5209654
1.5209904
1.5209896
1.5209612
1.5209462
1.5209481
1.5209479
1.5209485
1.5209484
1.5209512
1.5209574
1.5209578
1.5209524
1.520947
1.5209467
1.52095
1.5209497
1.52095
1.5209561
1.5209592
1.5209539
1.5209458
1.520953
1.5209522
1.5209457
1.5209437
1.5209508
1.5209503
1.5209438
1.5209535
1.5209517
1.5209201
1.5209213
1.5209187
1.5209173
1.5209216
1.520899
1.5208823
1.5208995
1.5208942
1.5208668
1.5209768
1.521024
1.5209708
1.5209678
1.5209664
1.5209636
1.5209705
1.5209666
1.5209618
1.5209658
1.5209621
1.5209585
1.5209574
1.5209604
1.5209595
1.5209607
1.5209632
1.5209619
1.5209653
1.5209646
1.5209753
1.5209766
1.5209656
1.5209655
1.5209755
1.5209765
1.5209727
1.5209768
1.5209785
1.5209762
1.5209734
1.5209771
1.5209786
1.5209764
1.5209644
1.5209636
1.5209838
1.5209855
1.5209925
1.5209903
1.5209903
1.5209929
1.5210082
1.5210062
1.5210328
1.5210453
1.520995
1.5209652
1.5209665
1.52101
1.5210511
1.5210067
1.521004
1.521054
1.5209899
1.5209867
1.5209822
1.520986
1.5209757
1.5209784
1.5209827
1.520981
1.521056
1.5210017
1.5210007
1.5210584
1.5209576
1.5209431
1.520974
1.5210192
1.5219713
1.521986
1.5222553
1.5222771
1.522324
1.5223248
1.5220375
1.5220371
1.5217093
1.5216999
1.5217127
1.52172
1.5216795
1.5216804
1.5216935
1.5216907
1.5217434
1.5217439
1.521741
1.5217408
1.5217718
1.5217636
1.5217637
1.521771
1.5231263
1.5231267
1.5231541
1.5231553
1.5231052
1.5230779
1.5231039
1.5231326
1.522026
1.5220263
1.5223166
1.5223197
1.521763
1.5217575
1.5217556
1.5217606
1.5217264
1.5217281
1.5217291
1.521727
1.5217568
1.5217475
1.5217485
1.5217566
1.521788
1.5217785
1.5217842
1.5217921
1.5231842
1.5231589
1.5231883
1.5232155
1.5231376
1.5231428
1.5231706
1.5231667
1.5217389
1.5217327
1.5217247
1.5217305
1.5217103
1.5217074
1.5216986
1.5217013
1.521709
1.5217138
1.5217162
1.5217102
1.5217368
1.5217413
1.5217478
1.5217419
1.5217216
1.5217222
1.5217132
1.521713
1.521655
1.521663
1.5216793
1.5216688
1.5216634
1.5216677
1.5216826
1.5216755
1.5217236
1.5217295
1.5217295
1.5217231
1.5218269
1.5218174
1.5218321
1.5218394
1.5232842
1.5232568
1.5232849
1.5233137
1.5217968
1.521798
1.5218141
1.5218104
1.5218886
1.5218777
1.5218754
1.5218854
1.5219072
1.5218977
1.5219089
1.5219166
1.5233444
1.5233157
1.523346
1.5233776
1.5219958
1.5219831
1.522026
1.5220351
1.5219615
1.5219602
1.5220025
1.5219998
1.5217816
1.5217867
1.5218049
1.5217969
1.5217738
1.5217821
1.5218019
1.521791
1.5218695
1.5218585
1.5218492
1.5218593
1.5218583
1.5218641
1.5218756
1.5218683
1.5219433
1.5219463
1.5219876
1.521981
1.5219789
1.5219398
1.5219329
1.5219695
1.5225966
1.5223399
1.5223523
1.5225847
1.5216524
1.5216656
1.5216835
1.5216678
1.5216579
1.521676
1.521696
1.5216752
1.521729
1.5217303
1.5217114
1.5217105
1.521708
1.5217219
1.5217212
1.5217076
1.5216716
1.5216991
1.521722
1.5216914
1.5217008
1.5217434
1.5217682
1.5217235
1.5217933
1.5217974
1.5217532
1.5217504
1.5217237
1.5217536
1.5217512
1.5217227
1.5216945
1.5217081
1.521712
1.5216977
1.5216983
1.521717
1.5217218
1.5217025
1.5217445
1.5217376
1.5217198
1.5217261
1.5217181
1.5217306
1.5217376
1.521724
1.5217111
1.5217404
1.5217451
1.5217162
1.5217891
1.5217846
1.5217413
1.5217457
1.5218058
1.5218011
1.521758
1.5217633
1.5217304
1.5217589
1.5217654
1.521737
1.5225755
1.5223219
1.5222935
1.522525
1.5220664
1.5220316
1.5219846
1.5220178
1.5219514
1.5219828
1.5220193
1.5219858
1.5222879
1.5223003
1.5225569
1.5225204
1.5219514
1.5219427
1.521896
1.5219052
1.5219007
1.5218754
1.5218305
1.5218523
1.5217975
1.5218284
1.521851
1.5218178
1.5218644
1.5218961
1.5219069
1.5218753
1.5217728
1.521787
1.5218069
1.5217909
1.5217808
1.5218003
1.5218216
1.5217996
1.5218821
1.5218703
1.5218504
1.5218611
1.5218455
1.5218598
1.5218715
1.5218559
1.5225563
1.5222995
1.5222994
1.5225316
1.5219354
1.5219545
1.5219922
1.5219704
1.5219297
1.5219421
1.5219807
1.5219652
1.5223213
1.5223141
1.522571
1.5225522
1.5213805
1.5213705
1.5214272
1.5214324
1.52156
1.5215513
1.5215572
1.521565
1.5213573
1.5213539
1.5214105
1.5214073
1.5215346
1.5215298
1.521529
1.5215338
1.5215929
1.5215839
1.5215811
1.5215894
1.5215718
1.5215622
1.5215631
1.5215714
1.5215416
1.5215415
1.5215427
1.521542
1.5215589
1.5215623
1.5215613
1.5215585
1.5215345
1.5215372
1.5215304
1.5215282
1.5215225
1.5215194
1.5215127
1.5215153
1.5215428
1.5215459
1.5215435
1.5215397
1.521524
1.5215264
1.5215289
1.521525
1.5215094
1.5215054
1.5214992
1.5215034
1.5213367
1.5213389
1.5213984
1.5213892
1.5213439
1.5213427
1.521401
1.5213946
1.521511
1.521514
1.5215189
1.5215149
1.5222191
1.522235
1.5222561
1.5222384
1.5218766
1.521887
1.522146
1.522158
1.5221814
1.5221786
1.5219131
1.521908
1.5216251
1.5216157
1.5216267
1.5216342
1.5229198
1.5229143
1.5229383
1.5229457
1.5216226
1.5216286
1.5216268
1.5216216
1.5215922
1.5215921
1.5216035
1.5216018
1.5216598
1.5216512
1.5216457
1.5216539
1.5229312
1.5229305
1.5229565
1.5229584
1.5218973
1.5218944
1.5221686
1.5221694
1.5221971
1.5222116
1.521923
1.5219299
1.5216386
1.5216293
1.5216271
1.5216356
1.5216048
1.5216054
1.5216037
1.5216026
1.5216342
1.5216303
1.5216294
1.5216326
1.5216631
1.521653
1.5216563
1.5216647
1.522993
1.5229612
1.5229889
1.5230226
1.5229448
1.5229511
1.5229765
1.5229721
1.5215718
1.521575
1.5215871
1.521582
1.5215574
1.5215629
1.5215754
1.5215683
1.521593
1.5215986
1.5215914
1.5215865
1.5216059
1.5216101
1.5216048
1.5216005
1.5215841
1.5215876
1.5215869
1.5215826
1.5215747
1.5215752
1.5215688
1.5215684
1.5216067
1.5216001
1.5215939
1.5215996
1.5216086
1.5216115
1.5216175
1.5216124
1.521359
1.5213792
1.5214487
1.521419
1.5213901
1.5214231
1.5214993
1.5214558
1.5215807
1.5215817
1.5215405
1.5215408
1.5215087
1.5215362
1.5215374
1.5215112
1.5215144
1.5215115
1.5214952
1.5214983
1.5213428
1.5213548
1.5214194
1.5213994
1.521336
1.5213423
1.5214039
1.5213898
1.5214928
1.521503
1.5215068
1.5214963
1.5215077
1.5215181
1.5215225
1.5215108
1.5215094
1.5215249
1.5215309
1.5215141
1.5215392
1.5215411
1.5215248
1.521523
1.5215237
1.5215345
1.5215323
1.5215213
1.5215204
1.5215458
1.5215528
1.5215267
1.5215955
1.5215867
1.521548
1.5215554
1.5216001
1.5216004
1.5215608
1.5215602
1.521535
1.5215609
1.5215598
1.5215339
1.5216538
1.5216433
1.521606
1.521616
1.5216239
1.5216192
1.521582
1.521586
1.521562
1.5215859
1.5215893
1.5215648
1.5215858
1.5216093
1.52162
1.5215951
1.5216481
1.5216489
1.5216094
1.5216084
1.5216308
1.5216153
1.5215774
1.5215912
1.5215539
1.521578
1.5215927
1.5215671
1.5215859
1.5216118
1.5216102
1.5215842
1.5215484
1.5215584
1.5215708
1.5215595
1.5215469
1.5215611
1.5215749
1.5215586
1.5215923
1.5215951
1.5215792
1.521576
1.5215814
1.5215923
1.5215882
1.5215769
1.5216047
1.5215951
1.5215807
1.5215889
1.5215567
1.5215712
1.5215735
1.5215581
1.5215592
1.5215692
1.5215702
1.5215593
1.5215838
1.5215934
1.5216019
1.5215904
1.5225535
1.5226183
1.522555
1.5226183
1.5200762
1.520055
1.5200271
1.5200287
1.5204401
1.5204245
1.5204108
1.5204084
1.5204137
1.5200172
1.5200151
1.5204081
1.5204186
1.5200209
1.5200124
1.5204064
1.5226937
1.5227011
1.5226936
1.5227011
1.5214417
1.5214935
1.521579
1.5215152
1.5215208
1.5215975
1.5216944
1.5216048
1.521762
1.5217725
1.5216833
1.5216762
1.5215965
1.5216616
1.5216554
1.5215949
1.5216335
1.5217432
1.5218531
1.5217297
1.5217862
1.5219325
1.522055
1.5218949
1.5221035
1.5221287
1.5219688
1.5219481
1.5218064
1.5219339
1.5219142
1.5217951
1.5215971
1.5216585
1.521668
1.521607
1.5216794
1.5217695
1.5217767
1.5216895
1.5216099
1.521673
1.5216708
1.5216104
1.5217767
1.5217816
1.5216933
1.5216907
1.5218003
1.5219276
1.521929
1.5218075
1.5221247
1.5221278
1.5219659
1.5219663
1.522114
1.5221316
1.5219694
1.5219567
1.521811
1.5219381
1.5219261
1.521806
1.5226621
1.5226641
1.5226755
1.5226826
1.5226572
1.5226716
1.5226573
1.5226803
1.5226175
1.5227963
1.5227911
1.5226089
1.5227993
1.5226148
1.5227948
1.5226054
1.5225997
1.5226314
1.5225948
1.5226148
1.5224408
1.522447
1.5225695
1.5225402
1.5226864
1.5225378
1.5223811
1.5225223
1.5227369
1.5225875
1.5227485
1.5225645
1.5222898
1.5221521
1.521976
1.5220958
1.522184
1.5223805
1.5225311
1.5223166
1.522572
1.5225947
1.5223791
1.5223548
1.5223328
1.5223589
1.5221659
1.5221415
1.5226064
1.5226193
1.5223897
1.5223747
1.5223901
1.5226193
1.5226123
1.5223852
1.5223602
1.522366
1.5221663
1.5221631
1.5223491
1.5223678
1.5221674
1.5221508
1.5227437
1.522745
1.5227613
1.5227331
1.5227554
1.5227398
1.5227539
1.522743
1.5228666
1.5228626
1.5226653
1.5226669
1.522679
1.5228716
1.5228578
1.5226611
1.5223871
1.5223932
1.5221857
1.5221833
1.5224229
1.5226632
1.5226618
1.5224206
1.5226575
1.5226768
1.5224375
1.5224197
1.5223913
1.522412
1.5222072
1.52219
1.5223641
1.5223844
1.5221732
1.522159
1.5224167
1.5226683
1.5226463
1.5223991
1.5223882
1.522405
1.5221964
1.5221831
1.5226638
1.5226784
1.5224349
1.5224202
1.5228666
1.5226751
1.5228772
1.5226564
1.5227465
1.5227608
1.5227505
1.5227474
1.5226833
1.5228788
1.5228774
1.5226704
1.5227587
1.5227488
1.522762
1.5227517
1.5218186
1.5219468
1.5219524
1.5218307
1.5219837
1.5221525
1.5221495
1.5219887
1.522157
1.5221749
1.5220107
1.5219979
1.5218507
1.5219793
1.5219673
1.5218461
1.5218214
1.5218258
1.5217368
1.521734
1.5217022
1.5217926
1.5218056
1.521718
1.5216243
1.521685
1.5217011
1.5216402
1.5216567
1.5217203
1.5217179
1.5216568
1.5216241
1.5216837
1.5216878
1.5216298
1.5216994
1.5217881
1.5217874
1.5217038
1.5218146
1.5218114
1.521725
1.5217305
1.5216495
1.52171
1.5217175
1.5216592
1.5218144
1.52194
1.5219317
1.5218134
1.5221253
1.5221398
1.5219754
1.5219666
1.5221511
1.5221636
1.5219984
1.5219909
1.5218391
1.5219665
1.5219609
1.5218408
1.5223103
1.5223343
1.5221649
1.5221471
1.5223073
1.5223237
1.5221542
1.5221432
1.5219945
1.5221275
1.5221178
1.5219924
1.5220064
1.5221392
1.5221235
1.5219995
1.522308
1.5223405
1.5221703
1.522145
1.5221249
1.522298
1.5223022
1.5221356
1.5219612
1.522094
1.5221071
1.5219797
1.5220084
1.522143
1.5221194
1.5219946
1.5217542
1.5218197
1.5218434
1.5217779
1.5218403
1.5219352
1.5219557
1.5218628
1.5219728
1.5219855
1.5218908
1.521882
1.5218061
1.5218749
1.5218669
1.5218024
1.52198
1.5219849
1.5218914
1.52189
1.521876
1.5219721
1.5219707
1.5218793
1.5217935
1.5218608
1.521864
1.5217988
1.521809
1.5218765
1.5218769
1.521813
1.5204502
1.5200433
1.5200356
1.5204419
1.522901
1.5229109
1.5229127
1.5229059
1.5228189
1.5230208
1.5230308
1.5228201
1.5228528
1.5230587
1.5230376
1.5228208
1.522921
1.5229381
1.5229104
1.5229071
1.5204426
1.5200333
1.5200322
1.5204385
1.5229109
1.5229152
1.5229267
1.5229063
1.5230316
1.5228416
1.5230473
1.5228164
1.52284
1.5230484
1.5230393
1.5228178
1.5229116
1.5229149
1.5229227
1.5229164
1.5229243
1.5229373
1.5228178
1.5228428
1.5225937
1.5225686
1.5225889
1.5228423
1.5228179
1.5225676
1.5225464
1.5225679
1.5223548
1.5223379
1.5225477
1.5225755
1.5223639
1.5223399
1.5228182
1.5228512
1.5226024
1.5225691
1.5225683
1.5228169
1.5228198
1.52257
1.5225465
1.5225448
1.5223334
1.5223362
1.522546
1.5225823
1.5223713
1.5223391
1.5204918
1.5200861
1.5200809
1.5204882
1.5230359
1.5230418
1.5230185
1.5230221
1.5229327
1.5231539
1.5231513
1.5229341
1.5229727
1.523181
1.5231684
1.5229488
1.5230284
1.5230362
1.5230481
1.523028
1.520551
1.5201386
1.5201725
1.5206199
1.523125
1.5231124
1.5231198
1.5231177
1.5232636
1.5230532
1.5232564
1.5230492
1.5231794
1.5233641
1.5235538
1.5233495
1.5233858
1.523213
1.5232163
1.5233707
1.5231012
1.5232328
1.5233955
1.5232022
1.5229648
1.5231436
1.5228114
1.5230666
1.5230642
1.5228077
1.5227956
1.5227992