/*--------------------------------*- C++ -*----------------------------------*\
  =========                 |
  \\      /  F ield         | OpenFOAM: The Open Source CFD Toolbox
   \\    /   O peration     | Website:  https://openfoam.org
    \\  /    A nd           | Version:  7
     \\/     M anipulation  |
\*---------------------------------------------------------------------------*/
FoamFile
{
    version     2.0;
    format      ascii;
    class       volScalarField;
    location    "5000";
    object      nut;
}
// * * * * * * * * * * * * * * * * * * * * * * * * * * * * * * * * * * * * * //

dimensions      [0 2 -1 0 0 0 0];

internalField   nonuniform List<scalar> 
34387
(
1.5535022e-31
1.5891628e-31
1.7000725e-31
1.7186397e-31
9.4924307e-31
1.6037529e-31
1.5593954e-31
1.7822923e-31
1.7910727e-31
2.4449403e-31
2.4565573e-31
1.9874345e-31
2.0537062e-31
1.9934871e-31
2.2051814e-31
2.014349e-31
2.663125e-31
2.6185412e-31
2.0161141e-31
2.1238872e-31
2.1519231e-31
1.1541204e-31
9.2093466e-32
1.4322352e-31
1.5164721e-31
9.0117794e-32
9.2329907e-32
1.417727e-31
1.3050931e-31
9.2316341e-32
1.114612e-31
4.4525115e-31
3.4822766e-31
2.9457759e-31
1.6202012e-31
1.5878579e-31
1.7966933e-31
1.8074251e-31
6.243599e-31
6.3124103e-31
7.6465308e-31
7.8713255e-31
1.914396e-31
1.953462e-31
2.1928293e-31
1.9097702e-31
2.0868808e-31
1.8772619e-31
2.11339e-31
1.9694934e-31
9.5013791e-32
1.3820783e-31
1.5701134e-31
1.1386964e-31
9.4074049e-32
1.117291e-31
9.6720299e-32
1.5143688e-31
1.3392616e-31
9.5122655e-32
4.2676781e-31
3.6937313e-31
1.6409287e-31
1.7066126e-31
1.8188288e-31
1.9011281e-31
1.8677986e-31
1.648761e-31
1.8240898e-31
1.9436947e-31
1.8343052e-31
2.1034139e-31
2.1354226e-31
1.8616673e-31
2.0753084e-31
1.943644e-31
2.2238429e-31
2.0376556e-31
2.3960748e-31
2.2016008e-31
1.6930434e-31
2.1957229e-31
1.7055436e-31
1.7164935e-31
1.7833694e-31
2.1529178e-31
2.2657292e-31
2.0694922e-31
1.9133232e-31
2.1126575e-31
2.0773004e-31
2.4636075e-31
1.7890292e-31
1.8161417e-31
2.0378401e-31
2.1666693e-31
2.0059996e-31
1.5951592e-31
1.679409e-31
2.1109771e-31
1.8495704e-31
1.7847917e-31
2.3288132e-31
2.1222802e-31
2.0802597e-31
1.9300547e-31
2.0021424e-31
1.8591864e-31
1.7651597e-31
1.8067915e-31
2.2331195e-31
2.1361247e-31
7.6244762e-32
5.0421455e-32
4.8769464e-32
7.4521613e-32
1.0381335e-31
1.2908353e-31
1.0026326e-31
1.2397761e-31
7.6931355e-32
7.293406e-32
5.1978549e-32
4.9661179e-32
7.3624372e-32
4.6184461e-32
4.9432701e-32
7.7814424e-32
8.9354474e-32
8.4848162e-32
8.6744933e-32
9.3065845e-32
1.0384055e-31
1.0387747e-31
8.4563555e-32
8.2272995e-32
7.8544237e-32
8.2499057e-32
4.7358068e-32
4.9491742e-32
4.9844125e-32
7.8623856e-32
7.3479255e-32
4.7382953e-32
5.1240472e-32
5.0245083e-32
9.304589e-32
1.0048581e-31
1.0177071e-31
9.0036834e-32
8.3603506e-32
8.4366427e-32
7.6031868e-32
7.0321778e-32
6.0720009e-31
2.8029436e-31
2.9379782e-31
1.9260995e-31
2.0463387e-31
1.9415889e-31
2.0679132e-31
1.8591745e-31
2.0548919e-31
1.9834014e-31
2.0924088e-31
9.8879209e-32
1.4991207e-31
1.6242321e-31
9.7942403e-32
1.1185414e-31
1.0009215e-31
1.5753465e-31
1.4460102e-31
9.7745159e-32
1.1143173e-31
4.1228464e-31
3.746779e-31
2.0798618e-31
2.0546033e-31
2.2207399e-31
2.3185552e-31
1.8926079e-31
1.8850344e-31
2.0345575e-31
2.0815172e-31
1.8833566e-31
1.9101744e-31
2.3305635e-31
2.3129239e-31
2.0177286e-31
2.0202343e-31
1.9953337e-31
1.988541e-31
2.2186717e-31
2.0830097e-31
2.3887002e-31
2.6808095e-31
1.9798669e-31
1.9720636e-31
2.1315681e-31
2.1525582e-31
1.7786744e-31
2.2642466e-31
2.7942604e-31
1.902364e-31
1.7138252e-31
1.7850405e-31
2.024106e-31
1.9541537e-31
1.1859293e-31
1.0495956e-31
8.52074e-32
8.5330358e-32
4.8636325e-32
7.4792062e-32
5.1579361e-32
8.644593e-32
5.4751834e-32
8.2176593e-32
7.3371379e-32
4.8361516e-32
4.9651146e-32
4.8507721e-32
7.3910463e-32
7.1975522e-32
8.9150508e-32
9.4486234e-32
8.7280217e-32
9.2493418e-32
4.7589813e-32
4.7675875e-32
8.2237264e-32
8.2804658e-32
1.0370202e-31
1.0457068e-31
8.4714559e-32
8.3174583e-32
8.7417072e-32
8.2920386e-32
5.1052648e-32
5.0195019e-32
7.7200319e-32
4.8757201e-32
5.4536201e-32
8.111581e-32
1.0598097e-31
9.325964e-32
8.8831517e-32
9.1956097e-32
7.6020762e-32
7.020261e-32
6.453876e-31
6.4584216e-31
4.4918034e-31
4.5475225e-31
4.8126586e-31
4.8749774e-31
6.9907352e-31
7.0057456e-31
1.2641725e-31
1.3764894e-31
1.4347294e-31
1.2819254e-31
4.0947429e-31
3.9708656e-31
6.5471393e-31
6.6637806e-31
4.544296e-31
4.6473869e-31
1.4497594e-31
1.3662163e-31
1.2312159e-31
1.2981216e-31
4.1294168e-31
3.8840847e-31
1.3170615e-31
1.273782e-31
1.2023639e-31
1.2692466e-31
1.3213139e-31
1.3008731e-31
1.2113836e-31
1.2615068e-31
3.9051875e-31
1.2628008e-31
1.4052001e-31
1.4859599e-31
1.3253624e-31
4.2233939e-31
1.2808832e-31
1.4620641e-31
1.2432589e-31
1.2944032e-31
1.3409874e-31
1.2734985e-31
1.3025607e-31
1.2982248e-31
1.3583033e-31
1.0508676e-31
1.2055592e-31
1.2373866e-31
1.066185e-31
1.0732263e-31
1.0875397e-31
1.0407908e-31
1.0485464e-31
1.0195806e-31
1.2281491e-31
1.215442e-31
1.0395382e-31
1.1026005e-31
1.0103252e-31
1.0080782e-31
1.0396888e-31
1.0380605e-31
1.0655754e-31
1.0264905e-31
1.0845932e-31
1.0582305e-31
9.6302403e-32
9.672502e-32
1.0717549e-31
1.0024206e-31
1.0916188e-31
1.1827352e-31
1.0535621e-31
1.2385622e-31
1.1110954e-31
1.0380276e-31
1.0997e-31
1.186038e-31
1.2831382e-31
1.3185526e-31
1.4415158e-31
1.2315654e-31
1.1915396e-31
1.3173469e-31
1.3648136e-31
1.2579746e-31
1.2616427e-31
1.190011e-31
1.1575118e-31
1.3220173e-31
1.1964938e-31
1.1419035e-31
1.2423463e-31
4.0514426e-31
4.0869308e-31
3.4214148e-31
3.4155031e-31
7.0451505e-31
6.9442098e-31
4.8803162e-31
4.8774453e-31
5.0130857e-31
5.0598268e-31
7.1979574e-31
7.1703627e-31
4.0973648e-31
1.3945061e-31
1.5516158e-31
1.5700464e-31
1.3817235e-31
4.2987391e-31
6.395053e-31
6.3945137e-31
4.4045181e-31
4.4573475e-31
4.6064751e-31
4.6599786e-31
6.6728688e-31
6.7205259e-31
1.2188641e-31
1.3785465e-31
1.4275043e-31
1.2646165e-31
4.0796349e-31
3.8744862e-31
1.3698256e-31
1.4310217e-31
1.3862322e-31
1.3307902e-31
1.2210234e-31
1.2268134e-31
1.2877233e-31
1.235353e-31
1.0358655e-31
1.0497138e-31
1.106717e-31
1.0979607e-31
1.1558998e-31
1.0699976e-31
9.2936635e-32
1.0305759e-31
1.0008704e-31
1.1583602e-31
1.0860797e-31
9.640513e-32
1.0608042e-31
1.0356552e-31
1.0191109e-31
9.7475523e-32
1.0029577e-31
9.423356e-32
9.3647002e-32
1.0211395e-31
1.0483942e-31
1.0028149e-31
1.0465555e-31
1.0903e-31
1.1352566e-31
1.2392666e-31
1.2520038e-31
1.1130557e-31
1.1224405e-31
1.0550332e-31
9.5940749e-32
1.0098558e-31
5.7953446e-32
1.991156e-32
2.0057547e-32
2.7661962e-32
2.7935395e-32
1.9086163e-32
1.9114778e-32
2.7231299e-32
2.6979639e-32
6.1003243e-32
8.5838382e-32
9.5068856e-32
9.9718924e-32
8.862407e-32
1.0311592e-31
9.6020849e-32
8.6184644e-32
9.7770179e-32
8.347809e-32
9.8388108e-32
8.4449983e-32
9.0129071e-32
1.0833734e-31
8.0182214e-32
7.7504406e-32
9.0531865e-32
5.5401405e-32
5.2801375e-32
4.7051503e-32
4.5669311e-32
6.1820689e-32
4.7692834e-32
5.0652489e-32
5.070133e-32
5.7677813e-32
5.2361818e-32
5.1662216e-32
5.2927934e-32
4.9176971e-32
4.7927933e-32
4.9574768e-32
5.0009293e-32
6.3273916e-32
4.1823618e-32
5.0383137e-32
4.8689472e-32
4.5477712e-32
4.120062e-32
4.2016891e-32
4.41607e-32
4.5425831e-32
4.5358751e-32
4.6862009e-32
4.2586525e-32
4.7214834e-32
4.1972043e-32
4.2128468e-32
5.2499528e-32
8.9770449e-32
7.85654e-32
7.8679067e-32
9.0736244e-32
9.3134372e-32
9.2324846e-32
8.284181e-32
8.754221e-32
8.1631608e-32
9.1213464e-32
8.4968546e-32
7.7338807e-32
7.8595949e-32
6.6628863e-32
6.5676788e-32
7.5542467e-32
7.7056649e-32
7.8940832e-32
9.1491555e-32
8.9479054e-32
8.0550903e-32
8.0026253e-32
9.2296217e-32
9.2588723e-32
8.6053874e-32
9.1106642e-32
8.8636768e-32
8.2395112e-32
8.3882155e-32
8.6346925e-32
7.9951975e-32
7.9321383e-32
1.9060486e-32
3.9968606e-32
5.0307289e-32
4.3942984e-32
6.0199934e-32
1.9288486e-32
4.2396695e-32
5.0635447e-32
4.2487912e-32
5.4816955e-32
2.5763435e-32
2.5800218e-32
4.2697343e-32
4.1193886e-32
4.5748949e-32
4.4589724e-32
4.3374022e-32
4.2035024e-32
4.7305724e-32
4.6155142e-32
1.877724e-32
4.0105918e-32
5.0090285e-32
4.3112642e-32
5.5668677e-32
1.8677011e-32
4.0630989e-32
5.0200139e-32
4.1330164e-32
4.4628849e-32
2.7029366e-32
2.7589007e-32
4.6882597e-32
4.2356573e-32
4.6975515e-32
4.8584133e-32
4.2956304e-32
4.1575903e-32
4.6467889e-32
4.6256212e-32
8.9817737e-32
1.0465072e-31
9.4122983e-32
8.3644651e-32
8.9751879e-32
7.7592721e-32
7.746762e-32
8.9676273e-32
7.8634732e-32
7.7748536e-32
8.910836e-32
9.0982374e-32
8.3933575e-32
9.0365917e-32
9.3126182e-32
8.6545489e-32
5.7765006e-32
5.1307496e-32
8.4666724e-32
7.9326507e-32
3.1238694e-31
7.1095596e-31
5.2656346e-31
6.4740925e-31
1.2457393e-30
1.6061342e-30
1.416686e-30
2.6959995e-31
9.5633924e-32
1.009001e-31
2.9281255e-31
1.8801519e-31
2.0406987e-31
2.1259216e-31
2.2158506e-31
2.1602884e-31
1.9143888e-31
2.5491675e-31
2.3643418e-31
1.9760583e-31
2.0743705e-31
1.741645e-31
1.9108549e-31
1.7853842e-31
2.1787624e-31
2.602166e-31
1.7926428e-31
2.0218065e-31
2.0320045e-31
2.1479396e-31
2.1729061e-31
2.1565671e-31
1.9917828e-31
2.6256674e-31
2.3689118e-31
1.7667817e-31
1.7818017e-31
1.9816057e-31
1.9487396e-31
1.7765529e-31
2.209496e-31
2.7036905e-31
1.8844804e-31
9.64454e-32
9.7316531e-32
1.0308224e-31
8.2655781e-32
9.1490083e-32
8.0213915e-32
5.3635791e-32
5.2438209e-32
4.7764186e-32
5.3353966e-32
8.2977469e-32
8.7208419e-32
5.2481898e-32
4.8519449e-32
9.1871804e-32
9.3290416e-32
8.4681423e-32
8.6105086e-32
7.0878273e-32
6.8888426e-32
1.0288735e-31
8.520263e-32
1.0625368e-31
8.5822167e-32
9.2442977e-32
8.8676975e-32
5.3662609e-32
4.8018717e-32
5.2649231e-32
8.4475464e-32
8.8251409e-32
4.7839949e-32
5.3114416e-32
5.360197e-32
9.9739806e-32
9.8530315e-32
8.8748264e-32
9.1271782e-32
7.6867138e-32
7.7719431e-32
7.8170696e-32
7.368646e-32
1.2811047e-31
1.4947839e-31
1.4503672e-31
1.2606721e-31
1.1817614e-31
1.3463656e-31
1.3846489e-31
1.211996e-31
1.2257323e-31
1.3076098e-31
1.305355e-31
1.2143153e-31
1.346777e-31
1.3749633e-31
1.3323583e-31
1.2635159e-31
1.0495213e-31
1.1871181e-31
1.1172662e-31
1.0817695e-31
1.1054294e-31
1.1606109e-31
1.0626966e-31
1.1033174e-31
1.014841e-31
1.1128779e-31
1.202346e-31
1.0319893e-31
1.1836644e-31
1.1834267e-31
1.0700847e-31
1.0358261e-31
1.0704588e-31
9.8184151e-32
9.8553033e-32
1.0770672e-31
1.1020348e-31
1.0235454e-31
1.0343058e-31
1.1096942e-31
1.0560057e-31
1.1622098e-31
1.2000362e-31
1.0631492e-31
9.9227338e-32
1.0858098e-31
1.1401669e-31
1.0086013e-31
1.2753261e-31
1.2364985e-31
1.1653975e-31
1.2156959e-31
1.3330415e-31
1.3114212e-31
1.2338604e-31
1.2647682e-31
1.3097762e-31
1.4234329e-31
1.4582977e-31
1.3208715e-31
1.3763519e-31
1.3245434e-31
1.2058056e-31
1.249886e-31
1.3520507e-31
1.382749e-31
1.5219826e-31
1.5823242e-31
1.2535436e-31
1.3315817e-31
1.4229872e-31
1.4565859e-31
1.3522767e-31
1.4054274e-31
1.4018198e-31
1.3960645e-31
1.4140782e-31
1.3092381e-31
1.2986718e-31
1.3819107e-31
1.3467969e-31
1.2714325e-31
1.5018391e-31
1.3823162e-31
1.4871172e-31
1.456582e-31
1.2771556e-31
1.305391e-31
1.3425453e-31
1.3241738e-31
1.2312341e-31
1.2936412e-31
1.3589401e-31
1.3290367e-31
1.2635831e-31
1.2875807e-31
1.045088e-31
1.106405e-31
1.0653831e-31
1.068704e-31
1.1111628e-31
1.1710501e-31
1.2412197e-31
1.11245e-31
1.1364962e-31
1.3707916e-31
1.163788e-31
1.331127e-31
1.2094208e-31
1.0991307e-31
1.0727284e-31
1.1056363e-31
1.0269487e-31
1.0750614e-31
1.0228097e-31
1.0552644e-31
1.0878689e-31
1.0459189e-31
1.0637448e-31
1.1015876e-31
1.2262081e-31
1.1955649e-31
1.0490306e-31
1.0705349e-31
1.0176877e-31
1.0966507e-31
1.1704934e-31
1.0301837e-31
8.2311927e-32
8.6998369e-32
9.9599049e-32
9.5073417e-32
1.075542e-31
9.7348558e-32
1.0441808e-31
9.8367654e-32
9.077257e-32
9.8094936e-32
8.9184018e-32
8.6301408e-32
9.0447964e-32
9.3013945e-32
8.6076249e-32
8.1506411e-32
1.9476309e-32
2.685748e-32
2.6957854e-32
2.0081323e-32
6.6958967e-32
5.5708466e-32
6.0650833e-32
6.0579508e-32
5.2251691e-32
5.2654849e-32
5.4363694e-32
5.2586749e-32
4.9078981e-32
5.8278276e-32
5.5643284e-32
5.288442e-32
4.9418259e-32
5.364842e-32
5.4345267e-32
5.2033353e-32
1.9142154e-32
5.4900408e-32
4.6765006e-32
5.5464079e-32
5.177037e-32
1.9296686e-32
6.3250995e-32
6.2095005e-32
5.6307258e-32
5.0238964e-32
4.9636358e-32
4.7780608e-32
4.5654202e-32
4.6844258e-32
4.6551107e-32
4.2540416e-32
4.4960918e-32
4.7316835e-32
2.7002685e-32
2.7006253e-32
5.3808243e-32
5.6459504e-32
9.2693498e-32
1.0579337e-31
9.3310459e-32
8.5693135e-32
9.3460425e-32
8.3541232e-32
8.0003084e-32
8.991124e-32
8.8714783e-32
1.0307915e-31
9.3725482e-32
8.2564585e-32
9.1000593e-32
7.7571131e-32
7.9673738e-32
8.9080292e-32
1.9098527e-32
1.928538e-32
2.5578911e-32
2.5657213e-32
1.8952843e-32
2.7116022e-32
2.7825663e-32
1.9293055e-32
5.3978088e-32
4.7967252e-32
8.1740545e-32
9.054593e-32
9.1254692e-32
8.8866115e-32
8.6943733e-32
9.414727e-32
8.9859772e-32
9.6867242e-32
9.2791036e-32
8.3330999e-32
8.2303801e-32
8.5467097e-32
8.1615232e-32
8.0510328e-32
8.5276426e-32
7.8858125e-32
5.8234578e-32
4.3555072e-32
5.582147e-32
5.5166762e-32
6.2999808e-32
4.2226775e-32
5.7021251e-32
5.3692675e-32
5.0138823e-32
4.5971311e-32
4.653754e-32
4.8083047e-32
4.7444431e-32
4.3048581e-32
4.3930714e-32
4.5406254e-32
5.7587645e-32
5.6396994e-32
5.49357e-32
5.5882565e-32
4.5168769e-32
4.5986315e-32
4.7322178e-32
4.5724581e-32
5.8758544e-32
5.4710274e-32
5.7390992e-32
5.5705593e-32
4.794485e-32
5.4603138e-32
4.8683367e-32
5.1588417e-32
8.0143925e-32
7.2595692e-32
8.6124928e-32
9.4614742e-32
8.3444062e-32
8.2657078e-32
9.2333189e-32
9.5301099e-32
8.939428e-32
9.6117619e-32
9.5817975e-32
8.6941733e-32
9.7918748e-32
9.3230156e-32
8.814087e-32
9.0759553e-32
8.1652437e-32
7.6427393e-32
6.0716675e-31
6.2705313e-31
3.5849738e-31
3.6749873e-31
3.9066291e-31
3.9372149e-31
6.5213564e-31
6.7056956e-31
4.4113741e-31
4.1137688e-31
4.2997284e-31
4.5081052e-31
8.0134364e-32
8.0398591e-32
9.6039145e-32
9.6063899e-32
7.1961486e-32
7.3863714e-32
8.8624733e-32
8.7524335e-32
6.0766245e-31
6.4266659e-31
3.710398e-31
3.8237419e-31
4.337189e-31
4.0685265e-31
4.2850088e-31
4.5216002e-31
8.2324609e-32
8.3048232e-32
9.8661436e-32
9.8201705e-32
7.6813376e-32
7.6270674e-32
9.1519409e-32
9.2445678e-32
3.7481338e-31
3.5457581e-31
3.5430949e-31
3.815473e-31
3.7238238e-31
3.6583579e-31
3.6170276e-31
3.8057175e-31
4.3034998e-31
7.4732158e-32
7.6046551e-32
9.0797383e-32
9.0158173e-32
4.1553189e-31
4.4422748e-31
4.6341223e-31
8.4254425e-32
8.4296004e-32
1.0003304e-31
1.0033921e-31
4.3050979e-31
4.3600979e-31
3.8086598e-31
3.690067e-31
3.7788613e-31
3.9026693e-31
3.8401862e-31
3.612288e-31
3.7287205e-31
3.1605163e-31
3.1477966e-31
3.1404054e-31
3.235874e-31
2.7631993e-31
2.6134133e-31
2.4019872e-31
2.5981394e-31
3.0173684e-31
3.1687065e-31
3.109866e-31
3.2164446e-31
2.6090077e-31
2.3145241e-31
2.3826769e-31
2.5761456e-31
2.50578e-31
2.4427248e-31
2.6152397e-31
2.7022954e-31
2.5024976e-31
2.367632e-31
2.4475549e-31
2.7224218e-31
3.0856264e-31
2.9259863e-31
3.1527218e-31
3.237561e-31
3.1522056e-31
2.9383543e-31
3.0906023e-31
3.2428203e-31
3.9883975e-31
4.5298905e-31
3.7916508e-31
4.2866229e-31
4.3746299e-31
4.2784857e-31
4.059731e-31
4.1641401e-31
3.6849197e-31
3.6522917e-31
3.7145013e-31
3.5943237e-31
3.7564687e-31
3.395666e-31
3.446908e-31
3.8476314e-31
2.9213577e-31
2.9488085e-31
2.7764574e-31
2.723218e-31
6.227955e-31
6.3751069e-31
3.7190536e-31
3.7722502e-31
3.925467e-31
3.9816014e-31
6.5971728e-31
6.7516154e-31
4.5181828e-31
7.6134624e-32
7.6755529e-32
9.2114313e-32
9.2116894e-32
4.4974471e-31
4.3431389e-31
4.7166701e-31
8.2240791e-32
8.2665922e-32
9.842728e-32
9.8189816e-32
6.2080211e-31
6.3449614e-31
3.7022012e-31
3.7692846e-31
3.8669876e-31
3.9006396e-31
6.6155621e-31
6.7546221e-31
4.2075766e-31
4.2499325e-31
4.2651111e-31
4.4818754e-31
7.9558863e-32
8.164918e-32
9.7340575e-32
9.5374778e-32
7.7191255e-32
7.9926984e-32
9.4914735e-32
9.3035055e-32
3.9801443e-31
3.8859277e-31
3.7801041e-31
3.9549274e-31
3.7267272e-31
3.5192455e-31
3.6817035e-31
3.7832736e-31
2.5537499e-31
2.5272168e-31
2.663482e-31
2.7597629e-31
3.1876031e-31
2.928494e-31
2.9348551e-31
3.2906163e-31
3.167683e-31
3.1632303e-31
3.0459119e-31
3.1507612e-31
2.6228322e-31
2.5259211e-31
2.5991641e-31
2.5219018e-31
2.4509596e-31
2.3043623e-31
2.3865703e-31
2.6646771e-31
2.4390975e-31
2.4831383e-31
2.6970677e-31
2.6489056e-31
3.2756786e-31
3.1132925e-31
3.1089448e-31
3.2437699e-31
3.0980928e-31
2.8753918e-31
3.0064855e-31
3.1918441e-31
7.8798249e-32
5.3227541e-32
7.7751484e-32
1.7403442e-32
1.5266219e-32
1.5603211e-32
1.7953948e-32
1.7780734e-32
1.5955072e-32
1.6121377e-32
1.8710347e-32
1.6327407e-32
1.5570458e-32
1.6260435e-32
1.8299334e-32
1.6919859e-32
1.5587467e-32
1.5787954e-32
1.883263e-32
6.2244446e-32
5.9787765e-32
9.1395547e-32
2.058653e-31
2.0801986e-31
2.1631111e-31
2.2243984e-31
1.8094476e-31
1.9547992e-31
1.7058948e-31
1.6346275e-31
1.999904e-31
2.2050825e-31
2.1376783e-31
1.9621216e-31
1.663621e-31
1.5519992e-31
1.553888e-31
1.514646e-31
8.1867006e-32
1.3111121e-31
7.2020616e-32
7.4361e-32
7.7806225e-32
1.4448693e-31
9.5874967e-32
8.2380239e-32
1.5240668e-31
1.7230247e-31
1.4719325e-31
1.3249615e-31
1.2698002e-31
1.2636877e-31
1.2054277e-31
1.1864683e-31
8.1362484e-32
1.7239676e-31
5.9380026e-32
7.5279143e-32
1.2111053e-31
1.1741014e-31
1.3546871e-31
1.2329921e-31
1.0235068e-31
1.0696742e-31
1.0639601e-31
1.2832835e-31
5.6627972e-32
1.2744999e-31
8.1113003e-32
8.204084e-32
1.5771175e-31
1.5732554e-31
1.5721377e-31
1.5134474e-31
1.8614593e-31
1.9734047e-31
1.9715986e-31
1.9853739e-31
1.8875844e-31
1.7889762e-31
1.7929852e-31
1.9180318e-31
1.3219838e-31
1.3385581e-31
1.3487361e-31
1.3343939e-31
1.4562206e-31
1.4721772e-31
1.4552732e-31
1.4185259e-31
1.5178889e-31
1.5664959e-31
1.5784215e-31
1.486184e-31
2.0329072e-31
1.9312109e-31
1.8522138e-31
1.9322719e-31
1.7898597e-31
1.7949975e-31
1.8684431e-31
1.8932017e-31
1.6534281e-32
1.5361139e-32
1.5458101e-32
1.8072085e-32
1.70095e-31
5.8438114e-32
8.2018359e-32
7.8757163e-32
1.6199759e-32
1.5152256e-32
1.5893007e-32
1.8236136e-32
1.5537948e-31
5.3957441e-32
7.8422149e-32
7.911855e-32
6.5535897e-32
7.972929e-32
1.1732234e-31
1.1537556e-31
1.1375339e-31
1.074463e-31
1.2541075e-31
1.2904587e-31
1.2363141e-31
1.133672e-31
1.6211211e-32
1.5121931e-32
1.5463135e-32
1.7936333e-32
1.5511223e-31
5.7257914e-32
8.1862276e-32
7.4814512e-32
1.5373547e-32
1.4882168e-32
1.5426742e-32
1.7294878e-32
1.1992715e-31
5.8252402e-32
8.4718572e-32
6.2841724e-32
5.9608941e-32
5.189996e-32
1.399473e-31
1.2229157e-31
1.1555076e-31
1.228583e-31
1.2510374e-31
1.1947148e-31
1.1805476e-31
1.1208978e-31
2.033084e-31
1.9515456e-31
1.8742228e-31
1.9564304e-31
1.5005838e-31
1.534203e-31
1.4856218e-31
1.4810668e-31
1.5910677e-31
1.4651072e-31
1.4426845e-31
1.5759046e-31
1.880577e-31
1.7875143e-31
1.9665844e-31
2.0518133e-31
7.8963675e-32
7.3467271e-32
6.836257e-32
7.2338064e-32
6.790236e-32
6.092455e-32
5.1985023e-31
7.0260262e-31
7.0222363e-31
4.8149206e-31
8.1551812e-31
2.8170662e-31
3.0370614e-31
3.112333e-31
2.810854e-31
1.7753188e-31
1.7075874e-31
1.9086513e-31
1.9188073e-31
8.7252145e-31
8.6295884e-31
8.4367331e-31
1.6731259e-31
5.0962014e-31
4.769032e-31
4.7157652e-31
4.8312676e-31
4.7434805e-31
5.1767572e-31
2.6869849e-31
9.8288439e-32
9.3046347e-32
7.7464255e-32
2.3839112e-31
2.4236238e-31
8.1021576e-32
1.6721758e-31
2.2239636e-31
7.4024114e-32
7.2635192e-32
1.3268406e-31
1.1992888e-31
1.0409447e-31
1.1643952e-31
1.3889149e-31
1.2384038e-31
1.2926324e-31
1.4430178e-31
1.0888843e-31
1.1822805e-31
1.2849907e-31
1.1801685e-31
1.3146561e-31
1.3575114e-31
1.2578321e-31
1.2500176e-31
1.4103955e-31
1.5723435e-31
1.3822179e-31
1.5446936e-31
1.3380267e-31
1.3248526e-31
1.182445e-31
1.1827016e-31
1.2947241e-31
1.3042557e-31
1.2036414e-31
1.2220763e-31
1.3760977e-31
1.3963208e-31
1.3450526e-31
1.3263616e-31
9.3708448e-32
1.1159655e-31
1.1911534e-31
1.0044474e-31
1.0497163e-31
1.066727e-31
1.1446437e-31
1.1126813e-31
1.0390693e-31
1.1200006e-31
1.0581209e-31
1.0485053e-31
1.0386406e-31
1.1274027e-31
1.1475552e-31
1.0074588e-31
1.0405314e-31
1.0439546e-31
1.0619354e-31
1.0541181e-31
1.2122756e-31
1.2198933e-31
1.0958525e-31
1.0830595e-31
1.0501522e-31
1.2873034e-31
1.1355812e-31
1.0177338e-31
1.1356113e-31
1.0290686e-31
1.0719697e-31
1.0267573e-31
1.2895934e-31
1.4848914e-31
1.4844643e-31
1.3075651e-31
1.2969998e-31
1.4624352e-31
1.4400479e-31
1.2741106e-31
1.3135287e-31
1.3880687e-31
1.3242939e-31
1.2557966e-31
1.3419986e-31
1.3520896e-31
1.3488249e-31
1.2944867e-31
1.3308224e-31
1.4399261e-31
1.5292964e-31
1.3418304e-31
1.3553259e-31
1.3713535e-31
1.2224277e-31
1.1940771e-31
1.3253533e-31
1.3629127e-31
1.2541427e-31
1.2484794e-31
1.370068e-31
1.3593025e-31
1.2702616e-31
1.319523e-31
1.0373139e-31
1.0440309e-31
1.0683411e-31
1.0609284e-31
1.1594195e-31
1.0734194e-31
1.0767065e-31
1.0708195e-31
1.0692954e-31
1.1977181e-31
1.1444851e-31
1.0333378e-31
1.1716055e-31
1.1775228e-31
1.0398718e-31
1.0297196e-31
1.0487919e-31
1.0888884e-31
1.0380235e-31
1.0586666e-31
1.06977e-31
1.1310854e-31
1.2188138e-31
1.0886562e-31
1.1015132e-31
1.3588941e-31
1.2782242e-31
1.0705061e-31
1.1997621e-31
1.0870701e-31
1.0426245e-31
1.0670996e-31
8.5993681e-32
1.0885417e-31
1.0684052e-31
8.9377623e-32
1.1525344e-31
9.327264e-32
9.8165017e-32
1.0358772e-31
8.7317918e-32
9.7160967e-32
9.0864158e-32
9.5494049e-32
8.2652631e-32
8.16892e-32
8.8549624e-32
8.0308237e-32
1.9772427e-32
6.6195658e-32
4.961459e-32
6.1176393e-32
6.2268927e-32
1.9548645e-32
7.2417632e-32
4.7765674e-32
6.5308246e-32
6.1691608e-32
5.3033562e-32
4.9349251e-32
5.1200058e-32
5.3185802e-32
4.995788e-32
4.5453368e-32
4.825344e-32
4.8512973e-32
2.6581828e-32
2.6014833e-32
5.181846e-32
5.0021355e-32
4.6904639e-32
4.6483505e-32
1.9431174e-32
5.4422689e-32
6.3596537e-32
6.5922501e-32
5.5917779e-32
1.9293361e-32
5.9116258e-32
4.7900491e-32
6.0867061e-32
5.7070854e-32
4.8759369e-32
4.3931484e-32
4.7636773e-32
4.8647473e-32
2.6387447e-32
2.6724341e-32
8.3444988e-32
7.2668743e-32
7.5172995e-32
8.5469234e-32
7.9588935e-32
8.2283577e-32
8.9749021e-32
8.7647507e-32
9.0445079e-32
9.0308833e-32
8.1734605e-32
8.2780665e-32
9.071383e-32
8.32295e-32
8.3660939e-32
9.023237e-32
5.4986861e-32
5.7068356e-32
9.1729603e-32
8.7646327e-32
9.6104287e-32
9.7772013e-32
9.3290696e-32
8.4478608e-32
8.904455e-32
9.4061125e-32
1.132926e-31
8.6971054e-32
9.1697989e-32
8.7941291e-32
7.8018599e-32
9.3841954e-32
7.8141896e-32
7.814487e-32
1.9570657e-32
6.0729288e-32
4.810944e-32
5.6381696e-32
6.0711718e-32
1.9321412e-32
6.9468139e-32
4.5212965e-32
6.2403193e-32
5.9473175e-32
5.0415358e-32
4.7684692e-32
5.0426079e-32
5.1885288e-32
2.569636e-32
2.586511e-32
4.5011441e-32
4.7890295e-32
5.0509026e-32
4.7966831e-32
1.9022101e-32
5.5236169e-32
4.6171472e-32
6.116624e-32
6.0559154e-32
1.9053624e-32
6.5602288e-32
4.5483546e-32
5.7765425e-32
6.0084243e-32
2.7016929e-32
2.7608725e-32
4.5851906e-32
4.8066397e-32
5.1663536e-32
4.857745e-32
4.6295124e-32
4.9293157e-32
5.3483648e-32
5.0812518e-32
8.5890846e-32
8.6148646e-32
9.7244709e-32
9.2335093e-32
8.6269169e-32
8.1773106e-32
8.8105369e-32
9.051858e-32
8.6492473e-32
9.3479731e-32
9.177907e-32
8.4906279e-32
9.3686352e-32
9.7323613e-32
8.8465409e-32
8.6555023e-32
5.3037193e-32
4.7712944e-32
8.0615918e-32
7.5481729e-32
4.42328e-31
4.5756457e-31
4.3637553e-31
4.4936188e-31
4.0200683e-31
3.9415931e-31
4.1281949e-31
4.2566707e-31
3.6941794e-31
3.6734333e-31
3.6040077e-31
3.6643975e-31
4.0410114e-31
3.8668669e-31
3.7839558e-31
3.8407912e-31
2.5375403e-31
2.7961279e-31
2.8315023e-31
2.7212895e-31
2.6420013e-31
2.7358565e-31
2.6824633e-31
2.74281e-31
3.1113183e-31
3.0151074e-31
3.1630569e-31
3.1472838e-31
3.195125e-31
3.2351234e-31
3.3187941e-31
3.2473292e-31
2.5612831e-31
2.3981768e-31
2.4931708e-31
2.7415061e-31
2.5986419e-31
2.573991e-31
2.6210125e-31
2.789544e-31
3.2453968e-31
3.1269089e-31
3.2228004e-31
3.2956587e-31
3.1594537e-31
3.0166866e-31
3.1529052e-31
3.1993975e-31
3.7110092e-31
3.6643131e-31
3.7205526e-31
3.7741211e-31
3.8354993e-31
3.7488076e-31
3.7931852e-31
3.936848e-31
4.485544e-31
4.2281876e-31
4.421934e-31
4.6546707e-31
4.2056728e-31
4.1602825e-31
4.3742095e-31
4.4235975e-31
4.5086559e-31
4.6247372e-31
4.3713539e-31
4.6814912e-31
4.2590773e-31
4.7791651e-31
4.1662195e-31
4.4856589e-31
4.0417193e-31
3.9376074e-31
4.1092845e-31
3.8531219e-31
3.95262e-31
3.9036075e-31
3.7329906e-31
3.8602901e-31
4.6511842e-31
4.4025592e-31
4.4221645e-31
4.1945236e-31
4.5066461e-31
4.2061516e-31
4.3590319e-31
4.6570317e-31
3.7868618e-31
3.7586207e-31
3.761835e-31
3.895159e-31
3.8903064e-31
3.6745736e-31
3.7401016e-31
3.9750401e-31
2.4712782e-31
2.6391076e-31
2.7800834e-31
2.6747966e-31
3.2971454e-31
3.1156502e-31
3.1822371e-31
3.3063068e-31
3.3845584e-31
3.5799142e-31
3.4519406e-31
3.2779771e-31
2.9246474e-31
2.5905618e-31
2.6317922e-31
2.7864485e-31
2.4603216e-31
2.4830158e-31
2.5942756e-31
2.6517133e-31
2.5732898e-31
2.5250307e-31
2.6941767e-31
2.7493393e-31
3.2458779e-31
3.1368709e-31
3.1814535e-31
3.323091e-31
3.1369071e-31
2.9946326e-31
3.1516974e-31
3.2210335e-31
1.6065946e-31
1.6728493e-31
1.6311441e-31
1.531534e-31
2.319212e-31
2.0325184e-31
1.828564e-31
1.8360511e-31
2.1524015e-31
2.1687829e-31
2.119866e-31
2.1432907e-31
2.1562406e-31
2.0545913e-31
1.9480015e-31
2.0150297e-31
1.4979514e-32
1.4783354e-32
1.7890588e-32
1.8418132e-32
5.1795446e-32
7.2353284e-32
1.5375519e-32
1.8088927e-32
1.8394444e-32
1.5586698e-32
7.4407673e-32
1.2484957e-31
1.2190042e-31
1.1190689e-31
2.1571471e-31
1.676902e-31
1.7435668e-31
2.1763614e-31
1.0440836e-31
1.0394741e-31
8.1540298e-32
8.3186499e-32
1.399355e-31
1.4728955e-31
1.3030772e-31
1.2520491e-31
1.6510517e-32
1.5122964e-32
1.5807217e-32
1.8501633e-32
8.0394767e-32
8.7751794e-32
7.0567009e-32
9.783281e-32
1.5347385e-32
1.5255557e-32
1.8225105e-32
1.9013081e-32
7.8201791e-32
1.1838881e-31
9.9290644e-32
8.9091137e-32
1.4512642e-31
1.7002089e-31
1.5848749e-31
1.3016971e-31
1.6915214e-31
1.2657386e-31
1.1676729e-31
1.3418181e-31
5.8495289e-32
5.8568143e-32
7.6923218e-32
8.7805599e-32
2.1281739e-31
2.181704e-31
1.9302817e-31
2.0246118e-31
1.6640508e-31
1.7695013e-31
1.6125589e-31
1.5231382e-31
2.0408572e-31
1.9500132e-31
1.9547819e-31
2.0139752e-31
1.4673243e-31
1.4908864e-31
1.6700948e-31
1.5910449e-31
1.6689065e-32
1.4952777e-32
1.5033193e-32
1.8284787e-32
1.6284004e-32
1.4622206e-32
1.5435402e-32
1.8335576e-32
6.2925427e-32
7.9406389e-32
1.49952e-32
1.4755968e-32
1.7465017e-32
1.8015931e-32
6.0531004e-32
5.2729939e-32
1.505492e-32
1.4754368e-32
1.6548741e-32
1.7323401e-32
7.7043135e-32
7.1145499e-32
1.5687058e-31
1.6227175e-31
1.486714e-31
1.4757287e-31
1.7090736e-31
1.8318373e-31
1.6274691e-31
1.6290283e-31
2.02175e-31
1.9043843e-31
2.0177716e-31
2.0625883e-31
1.8978052e-31
1.7612403e-31
1.8844184e-31
1.9401718e-31
7.1937916e-32
1.3271709e-31
6.4542145e-32
9.0766603e-32
7.6973176e-32
1.2152017e-31
7.8361305e-32
9.6520037e-32
1.3648595e-31
1.4893057e-31
1.6340486e-31
1.3254859e-31
1.2029274e-31
1.2622841e-31
1.4331243e-31
1.2217425e-31
7.4276318e-32
1.1730196e-31
9.1375956e-32
8.8122006e-32
1.5287091e-31
1.5731215e-31
1.372404e-31
1.327812e-31
1.1925077e-31
1.5131269e-31
1.8362644e-31
1.4260977e-31
1.0123843e-31
1.2199384e-31
7.5036506e-32
1.0105247e-31
1.7468235e-31
1.4961468e-31
1.4494222e-31
1.7344931e-31
1.6975031e-31
1.7042231e-31
1.6288831e-31
1.5884924e-31
2.0492193e-31
1.985832e-31
1.9330969e-31
1.9901822e-31
2.1371838e-31
1.9200221e-31
2.0687918e-31
2.1871796e-31
6.8795446e-32
7.2347098e-32
6.7872376e-32
6.1139712e-32
8.5930231e-32
8.6594449e-32
2.2135217e-31
2.2359113e-31
2.3662556e-31
2.3541813e-31
9.2877399e-32
9.3672492e-32
6.384177e-32
6.4410871e-32
6.3098708e-32
6.2210158e-32
5.6579455e-32
5.9020155e-32
5.8730235e-32
5.6063615e-32
6.4113851e-32
6.5222468e-32
6.1937259e-32
6.1269317e-32
6.877467e-32
6.9477018e-32
6.93954e-32
6.8758863e-32
2.2805385e-31
2.2802342e-31
2.0345726e-31
2.0372159e-31
2.1059647e-31
2.1406732e-31
1.93673e-31
1.9232577e-31
8.8977256e-32
9.1099409e-32
2.2766565e-31
2.3160706e-31
6.5874533e-32
6.6895958e-32
6.3610658e-32
6.2843867e-32
5.7715469e-32
6.025723e-32
6.1735684e-32
5.87911e-32
6.4974373e-32
6.6070815e-32
6.6278548e-32
6.5667881e-32
7.0957581e-32
7.1395835e-32
7.115626e-32
7.0465874e-32
2.2603326e-31
2.2674607e-31
2.0277412e-31
2.0178663e-31
2.1709834e-31
2.1955348e-31
1.9788463e-31
1.9634602e-31
5.7356654e-32
5.8653991e-32
5.5233023e-32
5.4224266e-32
5.4517029e-32
5.2431775e-32
4.9264024e-32
5.1192349e-32
5.2852383e-32
5.5608555e-32
5.7833416e-32
5.4505819e-32
5.9062334e-32
6.2075033e-32
6.1453604e-32
5.8153816e-32
5.5607486e-32
5.7485946e-32
5.4062267e-32
5.2724677e-32
4.9663592e-32
5.3032635e-32
5.2814107e-32
4.9464025e-32
5.2139426e-32
5.5621312e-32
5.5398367e-32
5.2203643e-32
5.7551575e-32
6.0816292e-32
5.9790224e-32
5.6603423e-32
6.5139342e-32
6.5619387e-32
6.4864229e-32
6.3984732e-32
2.2020586e-31
2.1975719e-31
1.978476e-31
1.9935822e-31
5.7893207e-32
6.0379793e-32
6.0160502e-32
5.7354921e-32
6.8271877e-32
6.822696e-32
6.4917743e-32
6.5012814e-32
7.2247129e-32
7.2721444e-32
7.3338628e-32
7.2501171e-32
2.3578833e-31
2.3603911e-31
2.0994855e-31
2.0990918e-31
6.8010095e-32
6.8770456e-32
6.7764807e-32
6.6882515e-32
6.1155658e-32
6.3842326e-32
6.3585116e-32
6.0311633e-32
5.3962512e-32
5.7040393e-32
5.7477802e-32
5.3888333e-32
5.0542423e-32
5.3280487e-32
5.4329084e-32
5.0984744e-32
6.0483733e-32
6.0376358e-32
5.6648283e-32
5.6938512e-32
6.0377921e-32
6.3592426e-32
6.4325891e-32
6.056476e-32
5.7553999e-32
6.0244918e-32
6.0757004e-32
5.6873792e-32
5.6469718e-32
5.655505e-32
5.3438011e-32
5.3450103e-32
5.5724994e-32
5.8439333e-32
5.5058865e-32
5.2669425e-32
4.7147834e-32
5.1104463e-32
5.085668e-32
4.6823192e-32
4.504994e-32
4.8914528e-32
4.8504541e-32
4.4670842e-32
4.8922858e-32
5.103024e-32
4.7228879e-32
4.5584435e-32
5.0273566e-32
5.3741043e-32
5.2133359e-32
4.8740554e-32
4.3042934e-32
4.7348438e-32
4.6960611e-32
4.2559406e-32
4.1233727e-32
4.5692429e-32
4.5690892e-32
4.1015504e-32
4.4461415e-32
4.6131254e-32
4.1535602e-32
4.0317085e-32
4.4003793e-32
4.7566733e-32
4.6375623e-32
4.2531145e-32
4.605692e-32
4.9636105e-32
5.1960121e-32
4.79246e-32
4.3506483e-32
4.7137254e-32