/*--------------------------------*- C++ -*----------------------------------*\
  =========                 |
  \\      /  F ield         | OpenFOAM: The Open Source CFD Toolbox
   \\    /   O peration     | Website:  https://openfoam.org
    \\  /    A nd           | Version:  7
     \\/     M anipulation  |
\*---------------------------------------------------------------------------*/
FoamFile
{
    version     2.0;
    format      ascii;
    class       volScalarField;
    location    "10000";
    object      omega;
}
// * * * * * * * * * * * * * * * * * * * * * * * * * * * * * * * * * * * * * //

dimensions      [0 0 -1 0 0 0 0];

internalField   nonuniform List<scalar> 
34251
(
2265.9963
4470.8606
4091.1763
867.36829
4037.6334
857.07047
725.36762
885.44447
879.7789
1298.6356
9164.5516
1307.6037
9304.0817
7601.9745
7779.7422
1956.9369
1944.585
7576.5235
7664.7811
1916.6477
1925.1105
789.85634
726.39204
726.87716
789.88947
1452.9359
1599.4986
1439.9532
1614.1691
617.74858
617.00341
542.43433
543.23553
2102.8693
2120.3097
2100.8363
2092.2132
590.69752
590.60701
2090.4925
704.19627
707.58451
2097.2488
4643.2949
4625.2191
18324.786
17972.626
706.92859
706.4192
2108.9871
2112.815
4669.4481
4668.2227
18328.76
18356.579
4396.0975
13210.985
4448.8575
13322.907
4534.2981
13379.333
4527.3754
4338.158
13452.964
4511.6478
13195.63
13158.26
4418.6138
4475.3888
1922.4146
1904.1352
1928.521
1906.0675
1440.3336
1462.3295
1598.1056
1622.1051
618.53874
1620.8879
1457.1051
1464.7716
1616.1787
617.16888
1932.2505
1915.4688
1922.2399
1932.3316
543.20198
542.68354
3152.5528
3126.7006
3438.5729
1218.1476
3480.2077
4122.5453
4040.7339
4207.9746
3181.7594
3113.8432
3496.4979
3430.8355
1205.3105
4106.0535
4038.8571
4205.6066
4276.2932
1076.8463
1062.4572
1081.5549
1236.1928
3294.1769
3649.8433
4751.5086
479.1685
773.21811
910.18248
895.43992
765.19769
479.08051
765.26685
910.99572
421.25575
421.32631
4934.2089
5049.705
4993.5837
5028.827
4905.5987
4974.0877
583.77016
583.64833
2237.7008
729.73229
732.53063
2244.0517
3685.4483
3677.617
6877.3673
6833.7951
3685.618
3648.2925
6791.8538
6861.8612
12837.411
31818.154
31941.078
12758.446
12871.106
12821.186
31641.148
732.39661
730.19529
2256.0705
2262.035
3713.1389
3696.7008
6871.3813
6900.5847
6914.9313
3703.6395
3705.6698
6848.2112
12819.154
12870.328
31961.339
12777.645
12909.706
31934.585
31586.247
21515.192
21912.928
8198.9445
8080.6094
21715.167
22033.222
8246.6103
8310.581
8179.718
21930.996
21886.911
8293.4219
22169.556
21977.718
8278.2003
8345.0093
21734.382
21921.428
8118.1243
8145.2299
21653.932
21531.742
8082.2321
8204.5752
392.35033
5277.1563
4769.5712
5199.1871
5114.3789
4714.2489
4647.3683
4826.6814
4932.1144
4853.3156
4763.005
4675.8926
4754.7425
3176.541
3114.8212
3426.3914
3491.139
1205.1268
3155.3411
3201.3237
3536.2679
1223.8357
4114.4017
4034.9766
4202.0274
4280.52
4175.458
4347.4393
1062.786
1082.9206
4389.1231
4109.6962
4218.7376
4275.9535
3232.6692
3486.0684
3574.2859
3160.8418
1215.8239
3178.4769
3202.6831
3513.9635
1225.8786
3464.0558
4060.9222
4203.9318
4132.8957
4285.158
1071.7117
1084.3748
5198.9603
5298.802
4725.5695
4797.6482
4679.5132
5066.0002
5164.7261
4600.4184
4733.1836
4848.7311
4753.8148
4642.251
4858.2241
4849.4673
4972.0188
4754.0469
479.18792
776.61245
915.02363
896.76239
765.71835
478.23466
767.66522
904.36088
911.3348
777.98895
421.15644
421.15688
7311.6367
7458.5841
2720.2215
6327.0431
6184.5365
6997.3613
7294.7056
2717.0895
6171.4052
5923.899
8114.9595
8243.3992
8480.5002
8586.6802
2560.9448
2574.1243
8495.9525
8621.4871
8655.8692
8779.6357
9463.6078
9536.9236
9263.3708
9350.8145
9323.7203
9142.6656
9429.211
9233.4406
9820.1476
9414.2452
9933.2821
9508.8383
7347.2013
7384.3982
2751.4536
6273.8944
6223.0974
7220.8092
7296.7253
2694.4134
6182.1952
6118.8703
8529.5973
8635.5987
8568.8782
8690.426
8382.8038
8506.913
8478.6068
8591.3823
2539.9563
2597.1324
9457.0762
9267.8556
9629.5805
9434.262
9028.2133
8859.0062
9423.5619
9211.2856
9502.4941
9122.3608
9899.1829
9463.7131
9956.8131
9542.8518
10141.127
9719.2084
2048.9807
2087.0042
2243.1065
2219.5553
2075.1645
2029.1185
2199.9224
2247.949
2072.6632
2106.7942
2300.3191
2266.2338
2839.3769
2656.2964
2804.7356
2620.4509
1982.9084
7704.5496
6537.2228
7665.2379
7717.8032
6549.6913
6524.099
8868.6886
9013.8306
8947.2614
10150.116
9684.4407
9266.0374
10067.614
673.16778
676.42103
560.05052
558.4173
1156.5163
1183.9966
1340.5333
1376.6661
1804.6
1612.2097
1569.656
1767.7079
1749.0709
1555.2176
1580.2238
1786.2076
1157.0171
1144.9518
1343.5035
1329.5031
558.82954
674.36965
559.90168
1134.3841
1145.2167
1330.7803
1351.1707
1586.3633
1559.1438
1810.7173
1779.8421
1510.8822
1706.1575
486.29173
487.94239
8880.0667
9005.6951
9078.5256
9141.5011
8957.116
9089.0338
9107.6391
9179.2015
8922.7366
8912.7109
8869.6472
9012.9768
568.43272
567.65212
2322.8636
4253.1944
4191.6992
714.85784
716.89108
2330.433
4244.9738
4236.1824
7585.3184
7522.3369
7479.6414
7559.3049
12549.385
12533.823
18344.494
18169.928
28123.324
27513.026
47378.278
47142.119
27722.431
28097.051
47295.712
47632.531
18083.933
12546.532
12374.941
18308.206
12520.331
12675.814
18252.804
18453.859
12522.949
12505.859
18371.712
27838.109
27879.79
46970.949
46852.767
717.87836
715.36943
2340.4268
4251.2384
4281.841
2345.5875
4259.2444
4271.2732
7572.6398
7606.2546
7621.6644
7538.6408
12632.357
12453.783
18362.119
18380.336
18198.851
12579.209
12597.489
28180.213
27606.854
47642.371
47285.137
18282.416
18061.661
12472.493
12497.592
18278.249
18431.018
12701.47
12572.519
27850.034
27867.132
47182.543
47434.101
27904.546
27313.921
47322.892
46939.022
387.07841
40428.375
38899.467
11829.782
12166.872
39758.168
41375.696
12441.173
12152.554
40003.044
38912.667
11951.148
12070.874
40062.155
40417.031
12173.954
12249.802
40771.891
39937.04
12071.141
12262.364
39358.783
40430.799
12243.099
12150.468
40772.628
40632.04
12309.449
12271.608
39433.787
40461.864
12289.178
12183.614
40105.578
39643.435
12025.75
12083.641
39638.921
40668.759
12198.891
12038.809
39795.075
39587.747
11957.662
11968.845
38704.501
39452.743
12003.374
11945.517
392.23426
10248.324
9442.0121
10344.635
9529.8985
9776.4054
8792.9166
9865.5536
8871.3706
9900.4381
10106.386
9146.137
9324.3422
9982.2957
9915.876
9210.6919
9165.5863
9477.3018
8554.4111
9659.9475
8703.2389
9544.3146
9506.2395
8607.0251
8585.2442
10514.241
10605.803
9806.4926
9900.6524
10413.372
10487.65
9938.5065
10023.577
10228.303
10026.367
9579.7823
9779.7098
10080.144
9993.0132
9637.8002
9558.7232
10209.059
10126.802
9542.7719
9472.8262
10136.055
10349.629
9470.0119
9669.0292
7268.7965
7403.1285
2745.4596
6293.4557
6156.6874
7255.2277
7197.9169
2695.1724
6108.0761
6167.4874
8418.4035
8535.6117
8353.5655
8463.7832
8437.5844
8545.9419
8581.5837
8695.0563
2541.307
2590.2933
7298.2683
2740.8759
6070.829
6180.295
7524.3586
7572.2367
2758.0947
6368.1801
6430.0912
8742.8669
8780.287
8862.5728
8901.5115
2592.921
2597.9535
9368.3421
9528.5854
9167.6332
9331.0701
9364.3836
9178.9565
9284.4559
9097.7832
9869.7466
9467.3099
9782.7225
9383.5254
9845.7916
9429.4681
10023.979
9613.7025
9755.9071
9562.0324
10275.848
9791.0579
9856.1568
1063.4121
2072.7111
2034.3919
2202.6545
2243.077
2104.7847
2065.5488
2262.5955
2243.1319
894.76492
767.87464
10310.654
9858.87
10299.677
9851.773
9364.291
9622.1149
9180.5756
9425.738
9810.8168
9607.5596
9789.242
9586.9121
9872.1772
10128.302
9459.6385
9697.9655
7595.2859
7584.8497
2784.1467
6422.6484
6428.2161
8407.0949
8532.5786
8658.0919
8777.4504
8824.7986
8950.4299
8806.3768
8926.3898
7236.9558
7470.1708
2729.5381
6125.8809
6351.6289
2570.0457
2613.3616
7202.2515
7140.9149
2766.0373
6085.4628
6117.0067
7349.765
7543.5898
2769.8687
6421.0254
6233.4886
8530.0007
8640.4801
8741.8542
8832.563
2615.1684
2635.0085
8353.5439
8436.7357
8263.7177
8359.3206
9240.5104
9019.2219
9152.5792
8951.8356
9680.0091
9251.0433
9610.2591
9205.1429
9467.2879
9261.4118
9678.065
9451.4361
9937.0547
9509.942
10148.217
9696.5495
2056.2719
2081.1018
2259.6305
2226.9381
2086.0802
2262.5238
2292.768
2129.7108
9963.7534
10166.035
9207.72
9376.6712
10248.921
9434.4771
10285.403
9474.3537
9547.247
8630.1143
9716.0247
8768.7002
9756.6513
8778.0065
9807.6958
8827.0304
9492.9375
8568.8129
9643.0727
8683.2273
9658.0063
9633.3392
8909.4011
8894.325
9936.8874
9169.9303
10114.41
9312.4684
9232.3068
9216.5948
10187.663
9510.7403
10387.391
9676.1459
10104.337
10312.335
9641.8332
9823.4632
9833.9014
9787.1456
9373.2824
9342.1233
9909.3153
9874.0993
9239.5847
9215.762
10541.844
9820.8355
10561.975
9844.5762
10069.419
10315.82
9621.7086
9844.7656
10472.793
9982.8655
10477.249
9991.2338
10187.521
10414.926
9523.6679
9725.3768
676.81589
673.26353
559.21333
558.98823
1382.503
1181.8207
1160.6059
1348.8337
1811.7186
1618.9228
1579.0861
1778.6749
1752.6058
1554.7149
1581.4446
1786.1364
1326.006
1147.8687
1160.3839
1350.1173
679.77245
675.59457
560.79676
563.76451
1147.5838
1159.6697
1353.34
1337.3747
1588.4304
1794.0934
1768.2681
1567.8742
1635.8521
1587.5957
1792.2633
1839.2343
1200.4306
1169.3533
1358.4557
1395.4494
486.47025
488.81701
20856.522
20861.302
19057.141
19044.037
19121.12
19154.17
20872.095
20866.176
5519.5349
5466.1426
5540.212
5622.6113
19992.296
20003.262
19613.766
19674.523
17890.057
17961.222
19112.02
19169.734
21014.202
21028.756
5473.7387
5259.3411
5305.8956
5510.485
20201.294
18850.75
18146.17
18259.149
16637.218
16525.137
16853.865
17019.264
15533.785
15693.426
17721.924
19394.694
17616.288
19474.343
16520.015
17985.201
18119.052
16675.728
4938.3913
4921.481
4977.8909
5029.0761
4956.855
4776.2184
4818.2065
4994.6047
17636.718
19352.137
17643.601
19356.244
16603.346
18019.26
18039.139
16623.482
17816.13
19430.69
17748.973
19472.613
16741.666
18141.787
18221.118
16846.449
17023.336
16001.921
16045.567
17072.558
17043.951
16860.151
15889.054
16077.031
15555.551
16461.003
15516.253
16520.089
16566.986
15653.241
16358.146
15450.711
15702.189
16641.093
15682.276
16687.102
16136.386
15239.941
15250.92
16171.434
16093.537
16904.933
15904.09
17100.739
16373.61
15440.349
16581.408
15637.691
15046.241
15687.945
15039.755
15712.438
14797.145
15545.386
15564.632
14808.473
16116.179
15424.1
15901.17
15226.561
14971.063
15746.395
15956.79
15167.181
21095.002
21097.861
19221.454
19210.801
18819.972
18875.743
20576.752
20585.3
5564.463
5528.2608
5530.9665
5592.2567
19728.05
20276.276
20412.057
20417.173
18655.9
18640.261
18996.958
19070.295
20831.291
20857.567
5462.1497
5414.666
5451.0422
5508.2007
19994.318
19584.897
19496.514
19501.648
17734.688
17733.67
18117.545
16644.485
16669.523
18096.161
19126.7
19200.73
17561.238
17457.246
17845.845
17975.747
16466.478
16619.926
17271.157
18940.831
17275.869
18946.957
17638.91
16267.878
16283.26
17664.208
17682.095
19293.754
17563.04
19389.376
17943.37
16517.468
18090.546
16681.207
4942.4176
4891.9688
4897.764
4960.2803
4967.8786
4997.6262
5043.0669
5038.4115
16032.528
16993.913
15994.446
17042.147
16454.265
15527.195
15568.951
16515.835
17266.262
16287.427
17148.218
16163.805
16641.246
15717.898
16772.11
15846.699
15145.435
15879.361
14952.089
16090.539
15365.216
15603.849
14512.942
14721.486
16047.546
16900.229
15867.799
17084.412
15354.259
16316.685
16520.46
15557.639
14507.408
14920.481
14299.755
15164.084
14755.049
14996.476
14057.659
14263.528
16018.037
15304.866
15794.573
15101.208
14810.929
15595.135
15815.671
15016.906
15345.032
15983.332
15308.447
16040.671
15049.871
15820.052
15870.535
15092.183
16323.548
15642.35
16189.652
15519.35
15274.701
16048.2
16171.759
15394.175
3744.9368
3798.1218
3901.3275
3933.0334
3843.5341
3787.1714
3884.4933
3980.3627
4432.7261
4297.4014
4362.7028
4507.2252
4469.2233
4373.6637
4344.6063
4469.0645
3822.0228
3867.2793
3965.7973
4003.4737
3770.4948
3776.8639
3904.0843
3904.4306
4443.075
4347.4044
4351.3331
4442.8123
4542.3594
4457.6876
4410.0044
4510.9846
3890.1646
3912.6539
4070.4292
4043.8217
3981.6861
3936.4744
4092.2913
4126.4935
4669.5509
4549.348
4591.928
4690.36
4499.9543
4539.4168
4653.5931
4612.9424
5818.6241
5733.2423
5736.1825
5833.3593
5226.6389
5144.488
5161.4304
5229.403
5818.173
5741.5056
5667.9274
5783.2868
5216.7239
5136.3492
5079.8856
5165.5946
3712.9765
3640.9087
3780.39
3860.0613
21821.334
21810.007
19962.78
19942.9
20946.248
21080.726
21113.232
19344.534
19370.945
19825.784
19903.242
21682.911
21707.525
20826.172
20239.456
18032.095
19635.24
17979.736
19694.059
18360.974
18453.319
17005.356
17088.483
18507.939
20132.824
18376.631
20233.049
14998.693
15538.224
14953.701
15598.366
14159.279
14487.43
13953.56
14727.046
14416.093
14660.165
13775.327
13988.908
14879.252
15278.727
14687.455
15501.014
1022.379
1028.5052
804.15765
800.82605
1046.4943
1030.4896
806.93718
814.31653
650.21456
644.54572
1544.1572
1511.3144
1760.9825
1757.5117
1604.7564
1610.328
1876.0507
1825.3065
2067.4839
2079.3971
2305.1288
2284.3275
2152.1642
2202.3031
2405.64
2365.0897
3400.9547
3274.0008
3276.3249
3432.7822
2905.1468
2732.5566
2701.8811
2888.1817
2609.5208
2639.5767
2834.5556
2797.5826
3391.861
3216.7424
3169.0564
3343.0541
3371.6861
3224.4467
3190.7294
3362.4459
2821.2061
2624.5531
2605.5082
2803.5355
2683.6201
2675.1703
2875.0933
2872.0243
3444.9812
3270.8724
3253.5855
3417.1987
1562.9374
1522.0103
1775.802
1794.8071
1517.6343
1496.1252
1745.4516
1732.6915
2117.9261
2097.226
2329.6762
2342.8995
2043.2931
2058.269
2290.0945
2272.0453
642.18511
800.75321
1023.6642
1017.3043
797.32931
1499.8846
1488.5309
1730.1507
1737.1961
1519.4501
1523.1122
1799.7659
1765.5816
2057.6503
2053.8339
2309.6219
2308.9766
2100.5595
2130.0725
2379.702
2361.5626
2726.8991
2720.2301
2949.1996
2942.9199
2653.8678
2662.4799
2877.5647
2887.6867
3334.0309
3520.3422
3551.4266
3356.7092
3291.5671
3483.4372
3467.0884
3269.8096
2710.4846
2512.3322
2549.7701
2753.3936
3134.2321
3089.7633
3243.6148
3305.2419
1965.745
2189.1998
487.57421
484.19772
12639.372
12854.281
13079.33
12947.458
12819.829
12981.663
13084.888
13074.579
12859.05
13015.36
13029.63
12954.074
13085.309
13167.043
13123.09
13060.31
12812.669
12906.321
12893.955
12858
12725.208
12813.441
12803.755
12797.383
547.66318
758.56715
751.51811
546.31113
751.37036
753.0604
511.12513
4202.4929
4140.0751
2310.4386
4833.0141
4911.4284
4182.7012
4197.1431
2319.8835
4912.1738
4884.3714
2143.1787
6420.5354
6403.637
10560.161
10650.48
15696.072
15952.455
6391.5599
6327.7398
10523.86
15788.033
10483.706
6333.0605
6299.3565
10397.791
10524.974
15517.779
15816.83
6417.0184
6367.3944
10581.344
10516.338
15804.578
15678.883
23174.314
19003.754
23306.588
19103.459
18795.811
18863.753
22942.008
22989.599
42031.235
27012.671
27144.511
42205.238
26854.98
26770.781
41785.633
41709.157
55655.045
64856.325
65222.466
56062.902
55919.81
64811.513
65129.311
55425.347
26594.995
26901.159
41017.227
41669.466
42107.107
27055.585
26974.964
41871.239
54934.088
64009.165
64695.351
55372.813
64927.936
65214.953
55530.058
55580.392
18658.51
18823.274
23045.963
22779.184
23199.467
18989.168
19062
23167.612
22980.977
18832.838
23235.598
18991.537
19127.925
19195.888
23359.55
23322.331
23241.169
19020.443
19124.756
23388.257
42298.179
26859.802
27138.292
42738.729
27160.701
27257.498
42079.508
42870.615
65876.692
56540.855
55517.067
65034.835
55372.259
65209
65817.57
56209.43
4229.2987
4200.4568
2326.4961
4907.3201
4935.9388
4208.2846
4220.5336
2328.8467
4926.8549
4906.314
6423.811
6392.327
10641.997
10509.022
15912.713
6456.2904
6416.2265
10658.666
10579.763
15738.961
15867.509
6436.1945
6444.2017
10664.744
10629.485
15977.88
15757.229
6407.3431
6357.6009
10551.437
10483.146
15600.83
15751.356
19081.3
19132.428
23187.862
23259.639
19071.342
19163.599
23329.174
23216.064
18865.085
18914.477
22934.346
23024.595
27014.926
27118.378
41875.938
42007.223
26835.97
26684.731
41680.175
41428.224
55959.48
64614.442
65002.394
55646.363
64533.337
64720.26
55519.257
54993.471
18965.871
19052.951
23239.35
23143.462
18708.056
18760.276
22787.534
22876.979
18897.617
19041.935
23209.851
22992.234
19141.181
19200.5
23264.437
23323.357
26777.534
27016.072
41545.455
42118.446
27140.197
27028.564
42307.445
41854.033
55332.737
64340.401
65078.033
55488.556
64888.645
65221.733
56041.46
55402.05
26970.474
27054.154
41653.601
41887.368
26716.648
26553.74
41569.845
41149.409
55579.1
64455.731
64961.683
55486.683
64305.192
64667.415
55377.988
54930.618
463.59647
387.43779
41160.214
40115.175
40887.992
41906.505
41586.901
40525.732
41271.609
42137.835
41794.9
41156.317
40520.014
41633.966
42314.02
41727.393
40852.806
41827.055
41406.93
40789.05
40918.669
41487.647
41167.153
40677.564
40002.845
40666.651
13883.764
14586.982
13822.173
14659.964
14058.832
13169.02
13227.21
14127.491
13922.214
14607.977
13847.129
14687.755
14087.226
13199.527
14158.485
13276.918
12706.594
13359.587
12652.459
13423.526
12293.444
12867.739
12938.539
12377.302
13468.076
12758.517
13393.628
12689.864
12338.454
12911.962
12951.858
12344.982
14010.062
13307.025
13393.277
14115.884
14316.756
14108.279
13413.255
13595.26
13557.412
12726.16
12800.553
13645.549
13844.311
13661.682
12833.77
12997.317
14241.1
13504.495
13496.098
14231.181
14039.998
13333.397
13454.764
14175.311
12882.689
13748.877
12882.663
13742.045
12869.355
13588.412
12756.188
13708.097
12327.843
12929.056
12262.67
13006.134
11945.847
12486.132
12562.82
12033.533
13199.308
12509.785
13035.384
12371.553
12039.473
12589.536
12708.74
12098.146
13081.183
12393.006
12400.483
13084.226
12963.904
12301.629
13074.554
12398.416
12043.792
12106.61
12609.992
12638.187
12624.731
12558.546
12061.443
12091.392
15057.682
15698.403
15014.167
15737.014
15697.036
15028.913
15122.197
15812.784
15391.853
14378.579
15453.493
14441.383
14398.218
14492.043
15415.933
15491.263
15420.757
16022.785
15406.626
16044.01
15970.292
15379.668
15521.706
16122.341
15956.183
15213.661
15974.528
15236.223
15205.043
15330.276
15936.51
16068.108
15346.522
15648.233
15069.912
14791.859
15281.045
14694.766
14779.531
15367.305
15310.679
15217.61
14519.365
14612.428
14632.332
15320.379
15603.538
14899.755
15507.932
14927.988
14887.646
15465.098
15177.308
14618.524
14829.579
15411.467
15476.74
14765.663
14723.356
15430.159
15159.444
14479.835
14665.909
15366.678
15258.419
14601.001
14570.686
15215.431
14968.601
14346.874
14503.117
15151.778
14979.645
14020.52
14003.619
14960.732
14738.835
13807.602
13946.418
14885.004
14991.866
14345.45
14447.997
15097.729
15373.359
15101.762
14470.1
14705.458
14706.574
13780.504
13882.596
14826.436
15051.743
14829.32
13894.188
14103.018
20669.965
20679.063
18859.087
18883.753
18734.882
18855.954
20494.975
20531.832
5545.8309
5450.3261
5499.9217
5612.0993
19667.522
19846.712
20329.747
20328.084
18618.505
18614.773
18551.785
18658.131
20357.701
20391.407
5436.6847
5498.5554
5454.0859
5403.0692
19540.412
19472.251
18926.646
18928.191
17289.371
17289.481
17682.08
16327.998
16334.781
17691.914
17297.202
18839.737
17142.116
18960.86
17514.91
16122.011
17691.186
16322.597
19141.328
19176.335
17424.704
17466.409
17848.178
16374.081
16440.463
17791.711
19026.052
19169.375
17540.466
17351.81
17720.755
17937.962
16337.951
16585.475
4864.5784
4889.834
4952.2603
4922.6357
4973.103
4916.5531
4979.8127
5047.6854
2535.4464
18996.782
19106.437
20884.736
20922.841
5478.5206
5402.0855
5519.7456
5439.1409
20059.888
21436.748
21440.691
19598.103
19605.918
19342.438
19390.796
21125.13
21115.896
5598.9767
5668.5125
5719.2075
5637.7726
20565.126
20245.94
19903.284
18157.202
18169.005
19919.599
19649.769
17939.89
18016.867
19693.069
18552.434
17105.006
17127.538
18578.629
18409.937
18331.371
16914.167
17024.743
5024.9336
5020.1712
5117.7371
5087.4264
4966.4122
4917.2032
4949.4827
5001.831
16758.621
15756.85
15832.867
16839.73
16994.67
16717.447
15742.245
16028.373
15361.339
16211.834
15285.301
16298.846
16501.491
15593.494
16192.233
15290.124
15794.121
16739.096
15786.301
16755.505
16271.606
15379.367
15369.799
16278.807
15757.772
16509.465
15530.837
16733.452
15992.095
15089.709
16236.902
15331.959
15183.094
15862.076
15213.157
15845.263
14998.729
15752.453
15713.536
14961.856
15804.083
15140.421
15549.832
14902.219
14683.086
15422.73
15666.121
14914.419
15738.137
15062.381
15132.126
15819.559
14801.843
15569.423
15643.931
14878.019
15740.469
16061.89
15092.802
15395.197
14862.339
15914.208
15157.271
15601.324
17439.927
17322.658
16327.112
16460.58
16949.299
15879.794
16030.412
16813.514
16364.438
16516.09
15843.748
15693.435
16321.906
15520.89
16344.614
15534.036
15458.901
16236.484
16384.686
15612.687
2028.3225
2193.773
2204.5938
2050.1375
3808.4652
3811.3849
3958.5401
3942.8048
3767.7529
3795.9533
3912.9716
3892.4823
4330.8617
4352.2065
4441.9088
4418.4497
4383.9942
4470.6647
4516.7498
4405.7057
4005.6724
3905.0231
3904.2153
4017.413
3795.5273
3832.5134
3984.9405
3963.3509
4457.9214
4430.8158
4488.7186
4524.4189
4549.0295
4437.2848
4417.0563
4547.1545
673.89088
560.2353
1582.464
1552.5012
1744.0051
1772.3405
1172.7058
1154.9232
1326.2658
1353.8563
15795.891
16385.853
15699.408
16514.622
16214.064
15409.932
15494.921
16317.519
16570.619
15859.339
16485.904
15778.883
16314.545
15492.405
16383.759
15563.812
16761.955
15776.856
15879.236
16866.28
17185.811
17001.369
16021.778
16210.532
15424.412
16248.093
15329.613
16361.643
16684.876
15759.596
16495.026
15573.173
16528.838
17398.563
16398.544
17554.506
16869.814
15927.749
16045.023
17015.268
16594.445
17533.9
16497.849
17626.095
16986.741
16013.802
17074.831
16105.229
15793.59
15127.412
15212.926
15895.466
16037.995
15370.862
16220.7
15539.795
14876.086
14960.819
15645.812
15738.398
16050.106
15890.532
15120.093
15270.881
21288.111
21333.837
19473.23
19544.353
19654.545
19693.641
21525.861
21514.517
5715.7109
5635.0992
5650.1208
5718.6319
20660.062
20430.761
19046.074
19083.962
17369.536
17417.283
17827.744
16364.168
16444.03
17758.827
19265.843
19362.43
17734.579
17595.68
17991.442
18141.43
16601.685
16776.176
18143.89
19766.613
18042.163
19865.075
18423.457
17003.466
17130.581
18557.357
18255.472
19966.205
18189.85
20000.255
18591.747
17124.923
18655.564
17213.937
20495.769
20504.391
18738.626
18760.035
18952.967
19039.238
20700.388
20714.526
5586.3875
5398.8219
5462.636
5655.9283
19640.665
19842.231
5015.912
4857.1202
4917.2031
5084.2763
5066.5421
5026.592
5115.1813
5133.9577
20681.468
20679.747
18775.521
18775.516
18114.381
18141.486
19898.487
19880.396
5495.2197
5488.5285
5434.9722
5461.1096
19119.625
19904.682
20668.628
20713.491
18857.791
18928.088
19447.844
19500.575
21319.851
21317.772
5567.3276
5522.2098
5687.5739
5732.8779
20466.475
19847.747
19134.374
19235.431
17535.31
17428.239
17784.334
17930.725
16379.833
16527.673
18060.127
19746.231
17977.16
19798.397
16899.594
18367.074
18451.395
17010.602
5039.3925
4986.6517
5121.1409
5181.2278
4953.7664
5016.3058
5027.5352
4981.9511
17267.718
19032.406
17266.668
19036.409
16165.625
17613.195
17624.249
16183.266
16776.586
18383.391
16719.221
18411.994
15706.182
17072.166
17134.549
15796.102
15535.302
16530.768
15509.386
16560.331
15945.013
15006.943
15028.778
15978.437
16169.183
15217.284
16071.341
15111.1
15544.113
14657.007
15651.839
14765.551
14770.96
15441.201
14757.477
15464.485
14477.95
15245.935
15258.536
14490.545
15192.674
14540.272
15084.737
14440.738
14192.005
14919.499
15012.338
14282.616
15935.043
16751.114
15759.378
16937.113
16198.885
16406.537
15278.58
15466.528
16380.641
17303.039
16265.675
17416.311
15765.096
16739.792
16851.297
15885.782
15234.373
15714.081
15045.742
15926.898
14776.89
15536.163
15748.273
14971.047
16347.572
15635.801
16232.587
15527.615
15249.604
16053.438
16150.193
15347.408
3845.674
3772.2572
3895.0748
3999.0672
3862.7858
3835.5
3984.9715
4015.4639
4433.8208
4550.7213
4587.3343
4473.4493
4455.2708
4332.1935
4414.3788
4553.5981
3944.4
3835.5555
3977.3863
4089.4147
4527.644
4429.2405
4553.7346
4647.6947
4576.5055
4535.7744
4457.8139
4521.1849
4079.1988
3947.9268
3894.6057
4022.4459
14112.623
13408.197
13513.468
14241.907
14392.67
14316.313
13590.715
13665.401
12919.054
13663.093
12828.136
13771.381
13908.208
13060.259
13838.527
12986.404
13777.16
14424.434
13689.833
14532.324
13923.551
13046.435
13124.198
14016.368
13844.697
14545.316
13790.911
14591.657
14033.151
13146.327
14087.451
13212.132
13034.865
12367.602
12449.207
13130.575
12069.278
12700.505
12599.789
12190.106
13191.521
13261.594
12514.263
12580.366
12219.749
12788.839
12219.574
12753.768
12608.213
13233.393
12537.653
13317.339
12111.399
12731.083
12818.108
12231.591
13405.325
12701.889
13340.935
12639.221
12303.798
12866.815
12907.841
12328.226
12338.007
12895.996
12241.327
13020.926
12458.463
11907.912
12044
12576.105
13204.333
12515.674
13170.767
12483.464
12741.886
12228.893
12734.121
12183.343
13656.316
12980.426
13002.727
13683.443
13485.816
13426.895
12787.802
12846.61
12444.168
13236.025
12424.778
13260.692
13104.139
12322.555
13043.025
12261.781
13430.782
13978.343
13287.481
14158.883
13529.982
12702.786
12821.255
13679.094
13637.516
14367.21
13614.164
14380.544
13853.347
12978.102
13874.744
13014.364
12630.317
11976.753
11990.771
12651.596
12465.358
11830.809
12528.399
11886.46
14486.606
14938.218
14299.047
15158.831
14644.666
13746.882
13919.236
14856.315
14762.296
15423.635
14753.113
15458.312
15137.36
14152.748
15119.115
14169.723
15245.181
14670.396
14866.459
15463.849
15749.607
15138.095
15210.442
15836.036
15178.734
14486.193
14682.287
15400.477
15679.199
14941.47
14994.84
15736.685
14941.249
14353.45
14367.286
14958.016
14729.993
14645.478
14092.575
14166.374
14853.602
14154.948
14169.29
14870.38
14641.586
14578.691
13908.856
13966.58
14603.105
13957.599
13975.642
14621.112
14385.397
14337.054
13713.873
13752.753
13413.495
13434.407
14297.168
14319.774
14059.03
14033.327
13187.208
13237.437
14923.761
15511.672
14827.075
15626.208
15164.585
14204.777
14302.034
15283.459
15675.796
14989.542
15628.101
14947.423
15327.928
14327.479
15350.966
14371.985
15366.605
14780.188
14869.031
15461.963
15613.11
15027.203
15151.429
15755.42
14707.276
15310.695
14610.29
15413.171
14957.285
15562.043
14851.836
15674.939
15367.131
15892.038
15277.493
15991.376
15797.796
15056.847
15152.584
15905.306
15418.101
15991.512
15361.74
16053.832
15901.829
15149.323
15948.364
15205.398
15090.049
14442.858
14556.168
15204.211
15334.858
14682.023
15428.399
14765.736
13878.476
14001.241
14811.713
14947.974
15121.412
15057.889
14097.045
14182.721
806.86506
1042.868
1031.4363
804.66646
1024.4048
1031.52
806.1069
803.01281
645.55414
644.38145
2464.1882
2259.8515
2397.8065
2174.5773
1907.0407
1625.4225
1591.3513
1841.0191
1777.4023
1525.9604
1526.6085
1771.7167
2082.1921
2109.0057
2327.613
2302.8946
3507.2857
3370.5334
3494.4894
3344.2583
2983.0024
2811.0144
2950.3336
2761.5215
2625.7007
2664.2337
2861.081
2820.1869
3195.5205
3244.7742
3421.337
3382.1344
3391.9242
3238.2372
3206.6432
3367.6896
2839.9395
2642.0339
2620.1196
2820.2388
2664.2573
2652.5618
2858.0517
2853.6897
3407.3177
3243.8949
3231.5431
3402.6359
2299.2103
2083.3722
2072.9115
2295.7559
1762.0191
1538.5646
1526.453
1755.2919
1563.8608
1527.15
1774.5396
1792.7104
2315.5227
2090.0248
2108.2955
2330.0706
1045.3675
1063.0252
831.64511
821.31041
1028.9514
1023.8124
802.2835
804.2166
642.95452
663.56045
1508.2244
1527.4343
1756.5117
1742.0295
1522.2469
1525.725
1794.6455
1779.3355
2099.3074
2119.4147
2346.1262
2331.3298
2055.3011
2285.1194
2317.3169
2078.7177
2670.3779
2680.6065
2872.8705
2872.4893
3263.7714
3253.7751
3427.6532
3444.6234
3366.7481
3208.62
3248.4809
3429.2156
2824.0884
2618.8319
2656.7225
2856.5263
2801.431
2788.2752
2979.1589
2976.9284
2713.7245
2661.4036
2851.4869
2935.5311
3412.7515
3237.4414
3343.9138
3514.4447
3355.7996
3376.9714
3530.5335
3498.7923
1669.322
1611.9635
1876.6167
1916.309
1533.0173
1534.7128
1773.9149
1787.1169
2092.0213
2322.9501
2357.7405
2115.7796
2247.7954
2211.4016
2433.4988
2457.9543
487.14529
491.55404
27791.348
27946.955
28053.566
28221.148
28416.081
28244.059
28174.012
27992.495
18512.921
17483.667
17347.373
18425.347
29462.265
29855.461
36278.791
35809.502
29355.057
28940.011
35179.164
35622.035
25802.719
26432.847
26055.793
26708.983
28303.434
28312.958
28086.009
28064.943
17735.171
16642.079
17529.861
18734.376
29445.966
29596.698
35851.787
35707.866
31795.396
26041.449
27386.077
33473.205
26516.601
27226.005
27827.46
27058.564
27634.244
28461.823
28205.436
29082.404
29506.457
28844.065
29469.913
28862.593
30759.658
30130.944
30177.683
30816.303
15275.051
15483.08
16484.81
16306.921
15787.447
14923.695
15781.95
16766.391
29398.084
28593.189
29215.161
28762.731
30518.861
29877.571
30071.31
30729.433
29491.835
29004.492
29677.669
28826.42
31081.203
30391.758
30185.331
30850.491
31265.317
31914.682
32113.299
31472.033
31071.172
31145.687
31827.719
31737.458
33395.713
32589.411
33227.816
32776.79
32418.041
33058.438
32525.802
33184.485
31291.992
30409.54
31062.631
30657.774
31737.004
32376.897
32578.431
31952.484
32142.878
31364.944
32046.858
31490.662
32748.101
33406.706
32819.366
33461.086
33852.61
33022.867
33657.685
33222.615
34931.812
34317.172
34523.04
35167.652
34102.818
34731.064
34064.634
34707.073
36001.754
35376.868
35390.566
36019.053
28027.106
28165.463
28256.422
28402.187
27860.913
27798.88
27617.645
27533.941
18811.985
17803.314
17237.775
18248.34
28690.176
28951.994
35224.998
34943.028
29710.819
29302.655
35512.192
35941.676
27137.346
27280.892
27391.962
27556.029
28111.998
28230.356
27872.038
27976.137
18161.914
17185.078
17423.959
18474.691
29567.139
29373.179
35618.566
35862.104
28486.961
28062.742
34183.257
34617.13
28775.335
28930.668
29366.87
29538.561
30188.475
30621.279
30825.462
30001.938
28419.942
28355.866
29018.454
29075.511
29775.666
29719.138
30459.163
30395.721
28716.092
27908.135
28506.947
28091.851
29144.237
29770.007
30012.611
29374.934
29465.176
28678.288
29326.887
28805.191
30015.155
30687.138
30157.07
30823.451
16241.959
15283.561
15388.054
16406.953
15288.544
15820.056
16818.121
16261.435
32066.547
31183.086
31843.902
31403.78
32524.544
33171.31
33393.939
32752.164
31523.682
32184.511
31790.889
32490.878
33205.367
33878.21
32858.946
33493.981
30350.43
28799.379
29401.715
29719.151