/*--------------------------------*- C++ -*----------------------------------*\
  =========                 |
  \\      /  F ield         | OpenFOAM: The Open Source CFD Toolbox
   \\    /   O peration     | Website:  https://openfoam.org
    \\  /    A nd           | Version:  7
     \\/     M anipulation  |
\*---------------------------------------------------------------------------*/
FoamFile
{
    version     2.0;
    format      ascii;
    class       surfaceScalarField;
    location    "10000";
    object      phi;
}
// * * * * * * * * * * * * * * * * * * * * * * * * * * * * * * * * * * * * * //

dimensions      [0 3 -1 0 0 0 0];

internalField   nonuniform List<scalar> 
101838
(
2.1361056e+54
-3.1762839e+55
-3.2627353e+55
-3.2098408e+55
-3.3811868e+55
-3.0236323e+55
-2.8688702e+55
-3.0124263e+55
-2.8173679e+55
-5.53147e+54
-1.4202415e+53
2.2238743e+54
-6.2052613e+54
-6.4054958e+54
-7.9465444e+54
-7.5053968e+54
-1.0592654e+54
-2.7684774e+55
-5.4588086e+54
2.212131e+54
-6.3161515e+54
-6.4839256e+54
-7.7633959e+54
-8.043593e+54
-2.8291597e+55
-9.0524092e+53
-1.8465614e+54
1.6570907e+54
-1.8479504e+54
1.5448352e+54
-3.5175682e+55
-8.9187336e+53
2.5397744e+54
2.4628114e+54
-3.5314395e+55
-6.6952879e+53
-7.8663073e+53
2.4487983e+54
2.6252868e+54
-3.5885548e+55
-7.4077226e+53
-6.8446377e+53
2.835802e+54
8.1058441e+52
-6.3600587e+54
-6.5195492e+54
-6.8569305e+54
-6.6225249e+54
-6.3255067e+54
4.2233951e+53
-6.1932529e+54
-6.3335065e+54
-5.2846279e+54
-5.2056683e+54
2.8607181e+54
-6.4985067e+54
-6.8213784e+54
-6.6361652e+54
-6.3073982e+54
-6.4844778e+54
-6.1271688e+54
-6.3318219e+54
-5.092272e+54
-5.3400293e+54
1.348871e+53
-1.1131752e+54
6.6309784e+53
-1.5980135e+54
-1.2636957e+54
-1.7048033e+54
-1.1046778e+54
4.6891222e+52
6.6699936e+53
-1.2596416e+54
-1.6405181e+54
-1.2819662e+54
-1.6976929e+54
4.590671e+52
-1.4176263e+53
-6.4155908e+54
-6.2344437e+54
6.4644817e+52
-1.0954971e+54
6.4036109e+53
-1.6474169e+54
-1.2932578e+54
-1.7180981e+54
-1.1239819e+54
6.8540213e+53
-1.2962144e+54
-1.2588893e+54
-1.7273633e+54
-1.6513404e+54
1.7299393e+53
-6.3986646e+54
-6.5110563e+54
-2.7491132e+55
9.0047908e+53
1.9882752e+54
2.1165838e+54
-1.5929975e+54
-1.5490308e+54
8.1604093e+53
-1.8225586e+54
-1.8214162e+54
1.6602532e+54
1.5620465e+54
-3.5050142e+55
2.7219907e+55
1.6427886e+54
-1.8618942e+54
-1.7245179e+54
1.6665767e+54
-3.485694e+55
1.9906387e+54
1.9668218e+54
-1.4644816e+54
-1.5499965e+54
9.0482874e+52
5.849662e+54
-1.5866939e+53
-4.1881281e+53
-4.1791145e+53
2.9259072e+53
-7.3948281e+54
3.1092638e+53
-5.9558082e+54
-1.1136639e+53
-4.0428758e+53
-4.2525433e+53
3.179845e+53
-4.053368e+53
-4.2870796e+53
3.1248791e+53
3.0994955e+53
-7.6167663e+54
-1.6268596e+53
-4.1638796e+53
-4.1597453e+53
2.9366516e+53
3.1331729e+53
5.2893847e+53
-2.6728871e+55
-8.8245384e+53
1.3335946e+54
1.5035372e+54
-2.0791127e+54
-1.9988914e+54
-2.6481667e+55
-2.126802e+54
1.3155655e+54
4.4828711e+53
-7.6134271e+53
-3.4105457e+55
-1.6221753e+54
1.362733e+54
1.4962504e+54
-1.6174735e+54
-3.3854869e+55
-1.6066181e+54
1.3282649e+54
-1.0450058e+53
5.1016377e+53
5.4424384e+53
-7.6692831e+54
-1.5184601e+53
-1.183397e+53
5.1028735e+53
5.2928051e+53
-7.9032963e+54
-1.618133e+53
-1.6283933e+53
1.0774027e+53
5.1496054e+53
5.4342125e+53
-7.8392166e+54
-1.5513419e+53
5.4418858e+53
5.2865614e+53
-7.9652517e+54
-1.6540474e+53
-1.4830741e+53
1.4896866e+53
-3.0031064e+55
-3.0211114e+55
-1.1606995e+54
-9.4071026e+52
1.3342664e+54
2.1178289e+52
-6.6202217e+54
-3.9248166e+52
-4.8956563e+52
-2.5942015e+54
-5.335222e+54
1.1400443e+54
-2.5225768e+54
-5.2772402e+54
1.318225e+54
-6.5362147e+54
1.5563244e+53
5.1894282e+53
-1.4539707e+54
-1.4977176e+54
-1.2436511e+54
-1.2203176e+54
5.1641503e+53
9.3613041e+52
-1.5093881e+54
-1.4654577e+54
-1.2199537e+54
-1.2588345e+54
-2.0348268e+53
1.4394626e+53
-1.0977735e+54
-9.6030959e+53
-9.2507334e+53
-1.0585172e+54
-1.0791466e+54
-1.0676342e+54
-9.2905258e+53
-8.1891661e+52
1.1519074e+54
-2.5862974e+54
-5.3540532e+54
1.1405045e+54
-2.5312146e+54
-5.2701833e+54
5.7476087e+52
1.304378e+54
-6.5234917e+54
1.3214606e+54
-6.5753758e+54
5.7397644e+51
5.1476799e+53
-1.4982195e+54
-1.4505381e+54
-1.2089135e+54
-1.2480309e+54
5.0937412e+53
-1.2443972e+54
-1.4987894e+54
-1.4581461e+54
-1.2190486e+54
-3.1069485e+52
-1.0518292e+54
-1.0908357e+54
-9.4879597e+53
-1.0649256e+54
-1.0857104e+54
-9.4600486e+53
-9.3573473e+53
7.7421088e+51
-2.3535494e+53
3.3440733e+52
1.9906826e+53
-2.5375201e+53
-2.5937424e+53
-3.6299947e+53
-3.4970355e+53
1.8448227e+51
-1.3900169e+54
-2.3597187e+53
-3.7514404e+51
1.3975308e+52
2.0728613e+53
-2.5927532e+53
-2.6677643e+53
-3.4871888e+53
-3.6640825e+53
1.3130256e+52
-1.0875602e+52
-1.368457e+54
-2.2816971e+53
2.0349004e+53
-3.6354292e+53
-2.6106389e+53
-2.5418374e+53
-3.4880631e+53
-1.381607e+54
2.6494217e+52
-2.3396658e+53
-5.5180365e+51
2.0165822e+53
-2.6613834e+53
-2.5783763e+53
-3.6781555e+53
-3.5249883e+53
1.8023221e+52
-1.4001721e+54
-2.1437637e+52
-2.3588859e+53
2.0079307e+53
-2.6065714e+53
-2.6314839e+53
-3.5382882e+53
-3.6756424e+53
-2.4044272e+53
2.0617506e+53
-2.6332354e+53
-2.5499942e+53
-3.6637148e+53
-3.4738906e+53
-4.6937516e+50
-1.4005706e+54
-1.3744718e+54
1.3447263e+53
-6.1590068e+54
-2.8555836e+53
4.8452164e+53
-6.2055385e+54
1.4656415e+53
-2.8485756e+53
-3.0394976e+53
4.6516237e+53
4.6842439e+53
9.2768186e+52
-7.6762375e+54
3.8278602e+53
-3.7668698e+53
-7.7671969e+54
9.9775674e+52
-3.643128e+53
-3.8376318e+53
3.7769301e+53
3.7600358e+53
-9.4420681e+52
5.9348912e+54
1.3893249e+53
-4.0609742e+53
-4.27221e+53
3.1031573e+53
3.1097734e+53
-7.5899375e+54
5.8440039e+54
-4.1701774e+53
-4.1837153e+53
3.1019887e+53
-7.3697569e+54
-1.1590381e+53
1.523312e+53
-4.030732e+53
-4.231176e+53
3.1056716e+53
3.0714436e+53
-4.1509275e+53
3.1618219e+53
8.2150073e+53
-2.6596504e+55
1.5273253e+54
1.3567992e+54
-1.9622783e+54
-2.0360034e+54
-5.9070613e+54
1.0049314e+53
7.7890684e+54
3.082042e+53
-4.0988083e+53
-4.1735615e+53
3.3165266e+53
8.6260019e+52
-4.1862851e+53
3.1367219e+53
2.9503783e+53
-4.2293703e+53
-7.4834276e+54
5.8281308e+54
-3.9814978e+53
-4.2097378e+53
3.153387e+53
-7.4352062e+54
3.1393308e+53
7.609066e+54
-3.8981906e+53
3.1327395e+53
-4.1510699e+53
3.1510099e+53
-2.639834e+55
1.3828271e+54
1.4830411e+54
-2.0769103e+54
-1.9077217e+54
1.2228918e+53
-6.2108864e+54
-2.9796245e+53
-2.9745388e+53
4.6564012e+53
4.5228048e+53
-6.0694058e+54
4.6860104e+53
-2.7442015e+53
-2.9450474e+53
4.5193919e+53
-1.0475931e+53
3.7852953e+53
-3.7701223e+53
-3.5015926e+53
3.7771384e+53
3.7242832e+53
-3.7227551e+53
-3.6278793e+53
3.8583718e+53
7.1479988e+53
-3.3925064e+55
-1.5638245e+54
1.3938228e+54
1.5300302e+54
-1.5369455e+54
-3.3720344e+55
-1.607503e+54
1.4460366e+54
1.5166722e+54
-1.4928812e+54
-1.2422278e+52
1.2961827e+54
1.4264084e+52
5.9476154e+52
5.7328503e+52
-1.6367876e+54
-9.75867e+52
-9.9267336e+52
1.2865129e+54
-2.0049349e+52
5.7141266e+52
6.0786737e+52
-1.6180092e+54
-9.8833719e+52
-9.7882051e+52
1.4374139e+52
1.6370584e+54
-2.1194928e+52
-8.8852453e+52
6.1633108e+52
-8.9467095e+52
6.5552685e+52
1.0857812e+53
-5.7055063e+54
-1.6268063e+53
3.0176966e+53
2.8250444e+53
-4.4517226e+53
-4.40725e+53
1.6514371e+52
1.6600194e+54
-9.196207e+52
6.3326153e+52
-8.8499301e+52
6.2084919e+52
-1.3253564e+52
-1.6398285e+54
-8.826007e+52
-8.4729843e+52
6.5021613e+52
6.3517951e+52
1.2962499e+54
-1.6713747e+54
-1.6150208e+52
-8.7271231e+52
6.2597434e+52
-8.8279289e+52
6.5720544e+52
-1.5295787e+52
-8.5215565e+52
6.3596042e+52
-8.6022865e+52
6.6558522e+52
-1.4634006e+52
1.28371e+54
2.1016115e+52
6.0302337e+52
5.7865219e+52
-1.6193257e+54
-9.6264582e+52
-9.8005961e+52
1.304552e+54
5.7468786e+52
5.9940515e+52
-1.6529991e+54
-1.0020701e+53
-9.7832837e+52
-1.3918123e+52
2.140683e+52
-9.0686151e+52
6.4080486e+52
-8.6900678e+52
6.2387363e+52
-9.02299e+52
6.1515932e+52
-9.0502442e+52
6.4939607e+52
-5.8482239e+54
1.2740098e+53
3.0109557e+53
3.0038631e+53
-4.5378134e+53
-4.3152701e+53
-1.0508604e+52
1.2857556e+54
-8.903512e+52
6.3937658e+52
-8.5636024e+52
6.2968048e+52
1.2757116e+54
-1.9249324e+52
-8.6276726e+52
6.2054921e+52
-8.7323546e+52
6.5658588e+52
1.5732593e+52
1.6175741e+54
-2.1073735e+52
-8.521222e+52
6.207778e+52
-8.5762709e+52
6.6041219e+52
-8.7517894e+52
6.4198247e+52
-8.4279854e+52
6.3179366e+52
1.0070174e+53
-7.4196696e+54
-1.4900125e+53
-4.6047043e+53
-4.4723363e+53
3.0261471e+53
2.8844136e+53
1.1191093e+53
-7.5994917e+54
-4.4050199e+53
-4.4142449e+53
3.1834146e+53
3.0475379e+53
5.6701771e+54
-7.3300738e+54
-4.8517881e+53
-4.8397404e+53
2.595397e+53
2.7349459e+53
2.5362774e+53
-4.6534407e+53
2.6595658e+53
-4.6818944e+53
1.2767011e+54
-1.617991e+54
5.4011604e+52
5.7013678e+52
-1.0336082e+53
-9.9100664e+52
-9.0573989e+52
5.8761918e+52
-9.1259004e+52
-1.981896e+52
-7.9884881e+52
6.6568295e+52
-8.0765741e+52
4.1950901e+53
-2.6727506e+55
-7.1671173e+53
1.6968029e+54
1.6301488e+54
-1.544567e+54
-1.6414641e+54
5.6744683e+54
4.4823956e+52
-1.2402026e+53
-7.1145333e+54
-3.8292527e+53
-3.8313417e+53
3.4132579e+53
3.2182154e+53
8.6871944e+52
-1.313042e+53
2.8372363e+53
-4.5970831e+53
-4.5935707e+53
2.9730628e+53
-5.7875934e+54
7.7323885e+52
3.1364418e+53
-4.745886e+53
-4.4993939e+53
3.0478591e+53
1.6761488e+52
-7.260022e+54
-3.8495619e+53
-4.008258e+53
3.348673e+53
3.33935e+53
-2.6528335e+55
-1.642525e+54
1.6502158e+54
-1.4986007e+54
5.5924255e+54
-7.1178788e+54
-3.9052876e+53
-3.8865546e+53
3.1259912e+53
2.960212e+53
-4.8945691e+53
-4.8456364e+53
2.6404082e+53
2.8105552e+53
3.0588763e+53
-2.9675074e+55
-6.3402717e+53
-5.0110558e+54
-2.9777293e+55
-4.9696279e+54
-6.3424676e+51
1.1645685e+53
1.1326811e+53
-1.7090782e+54
-3.2279946e+52
-3.3859826e+52
4.2094968e+51
-7.8753445e+51
1.103433e+53
1.1599359e+53
-1.6879177e+54
-3.1540952e+52
-3.3482384e+52
1.1573642e+53
1.0992524e+53
-1.7047746e+54
-3.416201e+52
-3.3304217e+52
1.276371e+52
1.1797176e+53
1.1330069e+53
-1.7267419e+54
-3.3335932e+52
-3.1328026e+52
9.689438e+51
1.1103236e+53
1.1476247e+53
-1.7200946e+54
-3.3517338e+52
-3.5083798e+52
1.1787102e+53
1.1149958e+53
-1.687326e+54
-3.274128e+52
-3.0268332e+52
1.831365e+53
-2.9337772e+53
-2.7250983e+53
-3.0900806e+55
-2.8725658e+53
-2.8218346e+53
-3.1063714e+55
-1.1191049e+54
-6.4913451e+52
5.7516674e+53
5.6516124e+53
2.693127e+52
-6.5819074e+54
-1.1404051e+52
-1.0149477e+52
-9.5822115e+51
-3.0614028e+52
-6.7013864e+54
1.11368e+54
-6.6635343e+54
5.5952263e+53
5.7865632e+53
-6.5499786e+54
-3.8021491e+51
-8.3473012e+51
2.2417365e+52
2.9283745e+53
-1.1987458e+54
2.9400781e+53
1.5192392e+52
-1.2058438e+54
-3.4198702e+52
2.7643413e+52
2.9861728e+53
-1.2417044e+54
2.975527e+53
-1.2355953e+54
-4.7155677e+51
2.9458096e+53
-1.2088942e+54
2.9441909e+53
9.4198846e+51
-1.2088507e+54
-6.8939007e+51
2.9637791e+53
2.2390993e+52
-1.2374093e+54
2.9863515e+53
-1.2421389e+54
6.879855e+52
1.6704631e+52
-3.9050009e+52
-2.4244794e+53
-2.3708845e+53
-1.843599e+53
-1.8169443e+53
1.7761657e+52
-4.7586047e+52
-1.6576405e+53
-1.6261721e+53
-1.6719905e+53
-1.6261537e+53
-6.7835136e+52
3.8277203e+52
-1.6284792e+53
-1.7012607e+53
-1.6481015e+53
-1.7268291e+53
3.432983e+52
-1.7948009e+53
-2.4477791e+53
-2.3590957e+53
-1.8743178e+53
-4.4261466e+52
7.1407485e+52
-2.3580842e+53
-2.4426585e+53
-1.7965593e+53
-1.8699441e+53
-2.4282555e+53
-2.3698168e+53
-1.8426842e+53
-1.5931419e+53
-1.6632041e+53
-1.6707461e+53
-1.6118493e+53
-1.6246573e+52
1.1136587e+54
-6.7754571e+54
1.1046444e+54
-6.6187918e+54
-8.1082016e+51
5.7073168e+53
5.5871979e+53
-6.5172131e+54
-8.9089857e+51
-1.3100228e+52
5.7421734e+53
5.5856468e+53
-6.5527048e+54
-1.306701e+52
-9.9039228e+51
-8.8472991e+51
2.931774e+53
-4.7498555e+51
-1.2070674e+54
2.9072525e+53
-1.1990298e+54
7.0781984e+50
2.9201886e+53
-1.2301654e+54
-1.6602655e+52
2.9559459e+53
-1.233137e+54
-2.9267085e+53
-2.8253605e+52
2.9677327e+53
-1.2368482e+54
-1.7374255e+52
-1.2046184e+54
2.9309483e+53
-1.2006305e+54
2.97766e+53
-1.2295822e+54
-5.9233434e+51
-2.4464716e+53
-2.3644497e+53
-1.8673839e+53
6.6836316e+52
-2.3971266e+52
-1.8403975e+53
-1.8102192e+53
-2.3675292e+53
-2.4221436e+53
-2.042296e+52
-1.6706704e+53
-1.6373449e+53
-1.701472e+53
-1.6432981e+53
3.5882131e+52
6.9925234e+52
-1.8257179e+53
-1.7953023e+53
-2.3499502e+53
-2.4153964e+53
6.8966633e+52
-1.7949051e+53
-1.8602158e+53
-2.4433576e+53
-2.3614481e+53
-3.5481847e+52
-1.618529e+53
-1.6740191e+53
-1.6461021e+53
-1.673209e+53
-1.6539916e+53
-1.6281766e+53
-1.6595205e+53
-1.6267013e+53
-1.8861391e+51
-5.3931251e+52
6.1169194e+51
6.1266127e+52
-5.1687721e+52
-5.0744368e+52
-7.960179e+52
-8.3283601e+52
-5.2048159e+52
5.7869801e+52
-5.0608531e+52
-4.9150427e+52
-8.1481029e+52
-7.9383031e+52
-8.2996238e+50
-2.9668857e+53
2.575146e+51
-2.9377176e+53
7.1377447e+50
-5.1997624e+52
2.2805512e+51
5.9479907e+52
-5.4084818e+52
-5.1899136e+52
-7.9910268e+52
-8.3857579e+52
-5.1701755e+52
-5.7443907e+51
6.0171464e+52
-5.1322581e+52
-5.3132684e+52
-8.3829952e+52
-8.0502672e+52
2.302977e+51
-7.2705113e+50
-2.9194907e+53
-2.1455964e+51
-2.9766781e+53
5.1715015e+52
-4.2002232e+51
-2.9746685e+53
-7.8624147e+51
5.9366593e+52
-5.2609679e+52
-5.052505e+52
-8.0202912e+52
-8.3259742e+52
-5.0834415e+52
5.6736385e+52
-5.0440999e+52
-5.0783785e+52
-8.2002092e+52
-7.8604258e+52
-2.9134055e+53
-6.2198153e+51
-5.2997433e+52
6.058485e+52
-5.4626977e+52
-5.0452616e+52
-8.0659733e+52
-8.4466898e+52
-5.1981157e+52
-3.1437712e+51
5.7191411e+52
-5.1644818e+52
-5.1895012e+52
-8.3012227e+52
-7.9571762e+52
-1.881059e+51
-2.998292e+53
9.5162898e+50
-2.9401197e+53
-1.4105735e+51
-5.1668792e+52
5.8288771e+52
-5.3971954e+52
-5.0663678e+52
-7.9981861e+52
-8.4392746e+52
-4.8791865e+52
-5.1958117e+51
5.3527077e+52
-5.1536357e+52
-5.0356788e+52
-8.2204851e+52
-8.0000273e+52
1.6426476e+51
-2.9515624e+53
-1.2374953e+51
-2.9871344e+53
-6.4147816e+51
-5.1418767e+52
5.7106343e+52
-5.3765372e+52
-5.0335373e+52
-8.0121727e+52
-8.356958e+52
-5.1256237e+52
5.5672255e+52
-5.1018856e+52
-5.1353221e+52
-8.2377109e+52
-7.8800421e+52
-2.9978816e+51
-2.9815882e+53
-2.9087064e+53
2.5219437e+55
2.5364243e+55
-8.888139e+54
-2.4829533e+54
1.3450514e+54
1.2649002e+52
-1.68129e+54
-6.8614266e+52
9.1711636e+52
-6.5416099e+52
9.0508072e+52
1.8259652e+52
-5.5245527e+52
1.0402013e+53
-5.2686689e+52
1.0209829e+53
-1.1043577e+52
1.3234155e+54
-1.6547192e+54
1.0257661e+52
-6.8258288e+52
-6.4922858e+52
9.1319355e+52
8.9094074e+52
1.340711e+54
-1.6850335e+54
-6.7660444e+52
-6.9009143e+52
8.8012799e+52
9.0635183e+52
-1.2951573e+52
1.4280703e+52
-5.4013756e+52
1.0397967e+53
-5.1198905e+52
1.0115574e+53
-5.4308769e+52
-5.5198956e+52
1.0047639e+53
1.0338014e+53
-1.2958635e+54
1.5248546e+52
-7.8501431e+52
-7.5540755e+52
7.7038111e+52
7.565737e+52
1.3184869e+52
-1.6496919e+54
-8.2363758e+52
-7.9451203e+52
7.037906e+52
6.8726782e+52
-9.6910429e+51
1.2791339e+54
-1.6202372e+54
6.4734587e+51
-7.8252327e+52
-8.1413119e+52
7.0869814e+52
6.880428e+52
1.3004926e+54
-1.6574488e+54
-8.0631044e+52
-8.1884394e+52
6.8289879e+52
7.091271e+52
1.1591939e+52
-7.6771121e+52
-7.7632725e+52
7.408345e+52
7.7129145e+52
1.1399626e+52
-7.7149727e+52
-7.3974044e+52
7.7058222e+52
7.4676181e+52
-1.3329864e+52
1.2820669e+54
1.6984391e+52
5.9138524e+52
5.7361626e+52
-1.6121163e+54
-9.6553718e+52
-9.9649136e+52
1.3050706e+54
-1.3686937e+52
5.6968591e+52
6.1141659e+52
-1.6531215e+54
-9.8073799e+52
-9.8849568e+52
1.3188431e+52
-1.5838716e+52
1.671306e+54
-8.9827332e+52
6.1971505e+52
-9.066286e+52
6.5249482e+52
1.6383384e+54
1.8228863e+52
-9.034125e+52
6.4576333e+52
-8.7042799e+52
6.2473104e+52
-1.1437742e+53
-5.8177628e+54
1.5609107e+53
2.9782891e+53
2.9888072e+53
-4.5200087e+53
-4.3127261e+53
1.2495139e+52
6.1214775e+52
-1.6241171e+54
-9.8183204e+52
-9.9211743e+52
1.2945728e+54
5.7942619e+52
5.7852529e+52
-1.6331104e+54
-1.0108732e+53
-9.5733555e+52
1.658746e+54
-9.1647411e+52
-8.8873506e+52
6.3267273e+52
6.1782411e+52
-5.6706904e+54
2.8225976e+53
2.9848553e+53
-4.4452285e+53
-4.4119797e+53
-1.2310817e+52
1.2756131e+54
1.5127903e+52
-8.7781084e+52
-8.4383018e+52
6.5422257e+52
6.357735e+52
1.2965121e+54
-1.4110569e+52
-8.6910089e+52
6.2801103e+52
-8.8044535e+52
6.5629681e+52
9.5695127e+51
-1.6940258e+52
-8.5739378e+52
6.3286193e+52
-8.6660348e+52
6.6115216e+52
1.3022186e+52
-8.6391538e+52
6.5608279e+52
-8.3385209e+52
6.3236275e+52
1.2882141e+54
-8.5741361e+52
6.3032969e+52
-8.4487812e+52
6.46708e+52
6.3495257e+52
-9.8585145e+52
1.0783216e+53
-7.5241093e+54
-4.4154271e+53
-4.4192581e+53
3.1729156e+53
3.009962e+53
-7.3590448e+54
-1.2734324e+53
-4.4596766e+53
-4.6090541e+53
3.0321387e+53
2.8476909e+53
-1.2807215e+54
9.7368189e+51
1.6311697e+54
-8.4575195e+52
6.43621e+52
-8.61981e+52
6.7452778e+52
-6.0002761e+51
1.3033941e+54
-1.673447e+54
8.1977401e+51
-8.8285307e+52
-8.573757e+52
6.6880554e+52
6.5117253e+52
-1.6409629e+54
-8.6540416e+52
6.2157429e+52
-8.8593266e+52
6.498931e+52
1.6385197e+52
1.6670727e+54
-8.6775187e+52
-8.4005553e+52
6.6842936e+52
6.5263634e+52
1.2840832e+54
7.3941305e+51
5.6694274e+52
5.8930678e+52
-1.6121703e+54
-1.0018179e+53
-9.6394249e+52
-1.1624484e+52
-1.3053269e+54
8.1720192e+51
-9.1379918e+52
6.5837871e+52
-8.9138319e+52
6.3685172e+52
-8.9624346e+52
6.0798798e+52
-9.0557774e+52
6.4145917e+52
7.7939514e+51
5.953791e+52
5.7463057e+52
-1.6459883e+54
-1.010805e+53
-9.8595952e+52
1.0599725e+53
-5.7363363e+54
2.8214079e+53
2.9878827e+53
-4.4660217e+53
-4.4849772e+53
-9.3147439e+51
1.284458e+54
6.2095638e+52
5.9532091e+52
-1.6225401e+54
-9.5395091e+52
-9.7034987e+52
1.3026392e+54
5.8619284e+52
5.9808221e+52
-1.6461425e+54
-1.0038792e+53
-9.7030856e+52
1.0613758e+52
1.6674638e+54
-8.9381164e+52
6.2674185e+52
-9.0394635e+52
6.5174196e+52
-5.7800392e+54
3.13395e+53
3.0363928e+53
-4.4795484e+53
-3.9788873e+53
1.6325661e+54
-8.9305415e+52
6.5884683e+52
-8.551496e+52
6.4179628e+52
1.2731074e+54
-1.260189e+52
-8.6613397e+52
6.6804751e+52
-8.2779799e+52
6.558063e+52
-1.3133574e+52
1.6132354e+54
-8.5240111e+52
6.6701006e+52
-8.1477225e+52
6.5222304e+52
1.2930361e+54
-8.6508265e+52
6.3425578e+52
-8.7794095e+52
6.5793373e+52
1.6526376e+54
-8.5318217e+52
6.3731753e+52
-8.6050002e+52
6.6387687e+52
1.1549127e+53
-7.4871439e+54
-4.5638605e+53
-4.6217801e+53
2.7093411e+53
3.1386782e+53
-7.4588172e+54
-4.5797688e+53
3.1128498e+53
3.1706785e+53
-4.3282954e+53
-4.6917512e+51
1.3373255e+54
1.237829e+52
-1.6866618e+54
-6.8928949e+52
-6.6421557e+52
9.0598314e+52
8.8439794e+52
1.3293573e+54
-1.6663294e+54
-6.6497905e+52
8.8733682e+52
-6.8527493e+52
9.137603e+52
-1.1601341e+52
1.7089913e+52
-5.5349818e+52
1.0218674e+53
-5.3374741e+52
9.9240455e+52
-5.2921209e+52
1.0037645e+53
-5.4471267e+52
1.0341546e+53
-1.3354861e+54
1.2617226e+52
-5.2857859e+52
1.018704e+53
-5.3835577e+52
1.0430494e+53
-1.2859293e+52
1.3070935e+54
-1.6370585e+54
-6.6362125e+52
-6.2485199e+52
9.2043632e+52
9.0396351e+52
-1.6782011e+54
-6.6168663e+52
8.9715527e+52
-6.7696963e+52
9.1879534e+52
-5.2746455e+52
-4.9365807e+52
-1.2971442e+54
1.4860035e+52
-1.6920799e+52
-7.5915682e+52
7.480764e+52
-7.6786696e+52
7.7428395e+52
1.4242467e+52
-1.5009388e+52
-7.9884818e+52
-8.0996985e+52
6.8929982e+52
7.1200048e+52
1.2710345e+54
-7.9990935e+52
-7.6039767e+52
7.1853161e+52
7.064287e+52
-7.5693137e+52
-7.196016e+52
7.7513808e+52
7.5788383e+52
-1.2891936e+54
8.9002056e+51
-7.607687e+52
7.4174017e+52
-7.7568211e+52
7.726306e+52
-5.3847595e+51
1.3060129e+54
-8.2166433e+52
-7.9205208e+52
7.1006006e+52
6.9525405e+52
-7.8842079e+52
6.8583902e+52
-8.074825e+52
7.1283337e+52
-7.8295753e+52
-7.5700713e+52
7.6625964e+52
7.4538207e+52
7.7344056e+53
-2.65985e+55
1.6401043e+54
1.7610163e+54
-1.4877091e+54
-1.5437164e+54
5.6205282e+54
9.3232274e+52
-1.569118e+53
-7.0474937e+54
3.17602e+53
-3.7017273e+53
-3.6682841e+53
3.4621963e+53
1.0601994e+53
-1.4361571e+53
2.964355e+53
-4.4670749e+53
-4.5268816e+53
2.9586167e+53
-5.7128952e+54
9.9083086e+52
3.2841808e+53
-4.5654814e+53
-4.4530071e+53
2.991829e+53
1.1505699e+53
-7.2002286e+54
3.4785517e+53
-3.8537432e+53
-3.6853407e+53
3.3461459e+53
-2.6451519e+55
1.7120502e+54
1.6980977e+54
-1.5742123e+54
-1.4219841e+54
5.7288799e+54
1.3023771e+53
-7.2507358e+54
-3.8453399e+53
-3.8300365e+53
3.2639652e+53
3.4031174e+53
1.3826132e+53
-4.6272782e+53
2.7757294e+53
2.9924108e+53
-4.6549186e+53
-5.6522619e+54
-4.3981305e+53
-4.6132486e+53
3.1082421e+53
3.0738731e+53
-7.0560473e+54
-3.6774825e+53
-3.9060608e+53
3.4029923e+53
3.3517614e+53
5.2449914e+53
-2.944814e+55
-4.8573639e+54
-2.9662275e+55
-4.8410678e+54
1.4929605e+51
-2.8562804e+53
-2.3367629e+51
3.5931286e+53
-1.9616942e+52
-1.9880075e+52
1.2752653e+52
1.3379653e+52
-2.7985644e+53
3.5106998e+53
2.0873205e+51
1.2904682e+52
1.2606547e+52
-2.0359979e+52
-1.9630596e+52
-1.7652699e+52
-1.2685712e+54
1.6786238e+52
6.196659e+52
-9.5175261e+52
-9.2688695e+52
6.0317322e+52
-1.6726859e+51
1.9962999e+51
-3.5593949e+53
-2.1827146e+52
-2.4752221e+51
-3.6543048e+53
-1.8662347e+52
2.1534245e+51
-2.8251482e+53
3.5326621e+53
-2.7201024e+51
-1.9488221e+52
-1.9918013e+52
1.2841639e+52
1.3521262e+52
-2.8559879e+53
3.5923254e+53
1.336818e+52
1.3169536e+52
-2.0074896e+52
-1.9493119e+52
-1.2667422e+54
-2.3668544e+52
-9.3829453e+52
-9.362527e+52
6.0258986e+52
6.4449081e+52
-1.6572669e+51
-3.6540594e+53
-1.9844433e+52
-2.4755269e+51
-3.5940927e+53
-2.0169316e+52
2.7245997e+53
1.1915296e+51
-2.0857566e+51
-1.7542067e+52
-1.7950219e+52
1.4483638e+52
1.3856726e+52
2.2342202e+51
3.4263411e+53
-2.3403447e+51
-1.7843217e+52
-1.8172653e+52
1.3440628e+52
1.4140399e+52
2.755401e+53
1.8573449e+51
1.4270342e+52
-1.7872377e+52
1.4420577e+52
-1.7258947e+52
2.3010433e+51
3.4906457e+53
1.398939e+52
-1.8275141e+52
-1.7602347e+52
1.3849552e+52
-1.3576601e+52
1.1595201e+52
-1.6447518e+54
-9.497251e+52
-9.7260146e+52
6.4927602e+52
6.0295064e+52
-1.6365502e+54
-2.0806658e+52
-9.5331169e+52
-9.4509625e+52
6.1192455e+52
6.496152e+52
2.7526149e+53
1.960253e+51
1.4308933e+52
-1.7891627e+52
1.3687846e+52
-1.8118697e+52
1.3128417e+51
3.4842041e+53
1.3383967e+52
-1.8057226e+52
-1.8205351e+52
1.4034121e+52
2.706532e+53
1.751559e+51
1.3706784e+52
-1.8141456e+52
1.3956295e+52
-1.7395372e+52
2.2099389e+51
3.4111346e+53
1.360088e+52
-1.8458919e+52
-1.7709656e+52
1.3295344e+52
1.6873544e+51
2.6771463e+53
-1.7375727e+51
-3.4775739e+53
-1.7577129e+52
1.3504683e+52
1.3830698e+52
-1.7925164e+52
2.6282963e+53
-3.3954952e+53
-1.7273341e+52
-1.7946081e+52
1.3637781e+52
1.3289021e+52
1.3192219e+51
-2.0300964e+51
1.3994379e+52
-1.741657e+52
1.3392584e+52
-1.7515888e+52
-1.7086834e+52
1.3329313e+52
-1.7762504e+52
1.3711692e+52
2.656152e+53
1.2068536e+51
-3.4345176e+53
-2.1883463e+51
1.3973077e+52
-1.7633112e+52
1.3092268e+52
-1.7885243e+52
1.682955e+51
3.3674114e+53
-2.041778e+51
-1.7499376e+52
1.3112275e+52
1.3885213e+52
-1.7667631e+52
2.6886853e+53
-3.4928893e+53
1.3494455e+52
-1.8090135e+52
1.3719822e+52
-1.7513647e+52
3.4208346e+53
-1.795113e+52
1.3748012e+52
-1.7163829e+52
1.3525518e+52
2.6046602e+53
9.799876e+50
-1.5202912e+51
1.3586821e+52
-1.7294939e+52
1.2913449e+52
-1.7605315e+52
1.6299212e+51
-1.6730856e+51
1.3070252e+52
-1.724697e+52
-1.7464875e+52
1.3811312e+52
2.6320824e+53
-1.7128463e+52
1.3310465e+52
-1.7771629e+52
1.3535435e+52
1.3717941e+52
-1.7662118e+52
-1.7057601e+52
1.3460472e+52
2.117699e+51
-2.847761e+53
-2.2993221e+51
3.5834529e+53
-1.9428904e+52
-1.9790936e+52
1.2816214e+52
1.3318517e+52
-2.7855673e+53
3.4916865e+53
3.1211272e+51
1.3070782e+52
1.2684579e+52
-2.007046e+52
-1.9435013e+52
-1.4642399e+52
-1.2643309e+54
2.2253832e+52
6.2961804e+52
-9.3839363e+52
-9.1499132e+52
6.0866224e+52
-1.8860001e+51
2.6101973e+51
-3.5417741e+53
-2.1367992e+52
-2.0118793e+51
-3.6439192e+53
-1.8264256e+52
2.2694794e+51
-2.8346989e+53
3.544845e+53
-1.9525369e+52
-1.9934249e+52
1.2522534e+52
1.3209209e+52
-2.8545814e+53
3.5919074e+53
1.314898e+52
1.2877337e+52
-2.0202432e+52
-1.9645769e+52
-1.2884286e+54
6.1254921e+52
-9.1616965e+52
-9.517379e+52
6.3495567e+52
-1.4371783e+51
-3.6522781e+53
-2.1011963e+52
-3.6117737e+53
-1.9566199e+52
2.7452876e+53
2.3930159e+51
-1.6463711e+51
-1.7664114e+52
-1.7980962e+52
1.3778115e+52
1.4250781e+52
1.3451402e+51
-1.901435e+51
-1.8162108e+52
1.3472621e+52
1.3952173e+52
-1.7854463e+52
2.6950229e+53
2.2637881e+51
-1.7852439e+52
-1.7174062e+52
1.3790064e+52
1.4131394e+52
2.3976233e+51
-1.8215624e+52
-1.7578777e+52
1.374442e+52
1.3337707e+52
2.7279319e+53
1.3184803e+51
1.4191696e+52
-1.7728989e+52
1.3539273e+52
-1.8107409e+52
2.0828922e+51
-1.7943711e+52
1.3207826e+52
1.3939156e+52
-1.8218822e+52
2.7551851e+53
1.3987884e+52
-1.7968072e+52
1.4226384e+52
-1.7404253e+52
-1.8335506e+52
1.3841891e+52
-1.7749911e+52
1.3594181e+52
1.6424009e+52
-1.6824091e+54
6.3821848e+52
-9.5466106e+52
-9.6931306e+52
6.3946013e+52
-1.6352032e+54
1.6638213e+52
-9.3219942e+52
-9.5311156e+52
6.6357202e+52
6.1305132e+52
2.6837179e+53
1.6466142e+51
-1.9676462e+51
1.3837607e+52
-1.7749333e+52
1.3225131e+52
-1.797878e+52
1.2421723e+51
-2.1217341e+51
3.4162193e+53
-1.7681007e+52
1.3200662e+52
1.3878006e+52
-1.7830443e+52
2.6383605e+53
-1.7393904e+52
1.3157556e+52
-1.811921e+52
1.3455254e+52
3.346346e+53
-1.7992007e+52
1.3495353e+52
-1.7282442e+52
1.3149047e+52
2.6541132e+53
1.3123845e+51
-2.1625502e+51
1.3964257e+52
-1.7552009e+52
1.3294529e+52
-1.7910498e+52
2.0053818e+51
3.3608772e+53
-2.565044e+51
-1.7494231e+52
-1.7782325e+52
1.3240741e+52
1.3974081e+52
2.6887873e+53
1.3708927e+52
-1.7998205e+52
1.3856345e+52
-1.7360002e+52
3.4211153e+53
1.3829792e+52
-1.7919446e+52
-1.7250336e+52
1.3649472e+52
2.6001388e+53
1.2406334e+51
-2.3626439e+51
1.3771127e+52
-1.7270621e+52
1.3094806e+52
-1.7611611e+52
2.3263009e+51
3.3005647e+53
-2.6805214e+51
-1.7232156e+52
-1.7465052e+52
1.316222e+52
1.392448e+52
2.6315142e+53
1.9313698e+51
-1.7017941e+52
1.3549546e+52
-1.7692672e+52
1.3667816e+52
2.3677061e+51
3.3632502e+53
1.3756171e+52
-1.7622272e+52
-1.6935e+52
1.362738e+52
2.6288453e+53
1.4459868e+51
1.369989e+52
-1.7440322e+52
1.3030019e+52
-1.7584617e+52
1.1533116e+51
3.3618042e+53
1.3148677e+52
-1.7380825e+52
-1.7484712e+52
1.3833673e+52
2.5870528e+53
-1.702348e+52
1.3056161e+52
-1.7774819e+52
1.3317335e+52
1.3458399e+52
-1.7676415e+52
-1.6934336e+52
1.315774e+52
-6.6580742e+51
1.282637e+54
1.355775e+52
-1.6780253e+54
-9.8935251e+52
-1.0228619e+53
6.0966593e+52
6.8273341e+52
1.2764351e+54
-1.6570536e+54
-2.45577e+52
-9.7908997e+52
-9.1515174e+52
7.0175319e+52
7.0533522e+52
1.2483621e+52
-1.8227672e+52
-9.2383644e+52
-9.1043801e+52
6.4180014e+52
6.7491124e+52
9.8927189e+51
6.2056535e+52
-9.7133689e+52
-9.5346459e+52
5.9341081e+52
-1.4930203e+52
1.2791834e+54
2.3405402e+52
-1.6663903e+54
-9.6548647e+52
-9.8945152e+52
6.3531438e+52
7.0192376e+52
1.3093133e+54
-1.700996e+54
-9.7521741e+52
-9.3506852e+52
7.0670458e+52
6.9244027e+52
1.5913689e+52
6.2879178e+52
-9.4659308e+52
-9.5150352e+52
6.6155354e+52
2.4317177e+52
6.4916617e+52
-9.4342061e+52
-9.2166705e+52
6.1922866e+52
-8.07798e+51
1.3055207e+54
-3.9473814e+50
-1.7015141e+54
-1.0282996e+53
-1.0589637e+53
6.2440178e+52
6.5573725e+52
1.2995081e+54
-1.6887483e+54
-1.0388724e+53
-1.0405747e+53
5.9267665e+52
6.927094e+52
8.0724878e+51
1.6489821e+54
5.8519754e+52
-9.8839486e+52
-9.7423877e+52
6.4054223e+52
1.6637785e+54
-9.6619738e+52
-1.0075333e+53
6.1554489e+52
5.9659862e+52
-1.272193e+54
8.0625595e+51
5.7013015e+52
-9.5250585e+52
-9.7953626e+52
5.8212402e+52
2.8558456e+51
5.7859052e+52
-9.6017277e+52
-9.8210216e+52
6.1595887e+52
-1.2786962e+54
6.0703692e+52
-9.8535467e+52
-9.7081757e+52
5.4782314e+52
6.0065792e+52
-9.9755514e+52
-9.7414149e+52
5.7627452e+52
-1.6958574e+54
-1.0109518e+53
-9.8018404e+52
6.5282241e+52
6.6302214e+52
-2.846391e+53
-2.2545073e+50
-1.9660847e+52
-2.0049826e+52
1.2586098e+52
1.3019313e+52
-7.1219603e+50
-3.6482631e+53
-1.9498141e+52
1.8108657e+51
-2.8015393e+53
3.5005089e+53
-1.963566e+52
-2.0127878e+52
1.2282024e+52
1.2906477e+52
-2.8381589e+53
3.5666558e+53
1.3050113e+52
1.2739795e+52
-2.0270853e+52
-1.9769607e+52
-8.138823e+50
-3.6446385e+53
-2.261111e+52
-3.570524e+53
-2.040583e+52
2.6989748e+53
9.1003806e+50
1.3841209e+52
-1.7848678e+52
1.3253466e+52
-1.8312749e+52
-1.8074664e+52
-1.8415697e+52
1.2877334e+52
1.3544282e+52
1.3768262e+52
-1.8031898e+52
1.4033934e+52
-1.7536896e+52
-1.9650296e+51
1.3953437e+52
-1.6830862e+52
1.3318009e+52
-1.7011229e+52
2.5732292e+53
1.4598353e+51
-2.4667833e+51
1.4068897e+52
-1.664274e+52
1.3371481e+52
-1.6941979e+52
-2.7923371e+51
-1.6444828e+52
-1.6660519e+52
1.3569064e+52
1.4335173e+52
1.383575e+52
-1.7080808e+52
1.3935965e+52
-1.6395266e+52
-3.6059384e+52
-5.66027e+54
3.0143596e+52
3.7409901e+53
3.6680846e+53
-3.0737103e+53
-3.3056585e+53
-5.5526817e+54
-1.1702058e+53
3.6635429e+53
3.8979024e+53
-3.1201383e+53
-2.9487084e+53
7.3090572e+52
-6.1559636e+54
-1.0190528e+53
-9.1246809e+53
6.6602423e+52
-6.3756138e+54
-9.1962839e+53
-4.6204201e+51
1.3166686e+54
1.2245372e+52
-1.6467973e+54
-9.9405539e+52
-1.0421264e+53
6.8306845e+52
7.4890177e+52
1.2948448e+54
-2.2413859e+52
-1.6044758e+54
-9.8123362e+52
-1.014395e+53
6.5741423e+52
7.8111901e+52
-4.2177958e+51
1.714378e+54
1.0895617e+52
-1.0019629e+53
-1.0574681e+53
7.1435781e+52
7.1446157e+52
1.6864651e+54
-2.0099864e+52
-9.8753894e+52
-1.0110995e+53
7.0241253e+52
7.5705924e+52
-1.3020191e+54
9.9784348e+51
-2.5535687e+52
7.2327445e+52
-9.7927672e+52
-9.9139528e+52
6.8986251e+52
7.258338e+51
-1.7917553e+52
6.6321296e+52
-1.0095376e+53
-1.0033881e+53
7.0368193e+52
1.3137217e+54
1.9161741e+52
-9.9851795e+52
-1.0538326e+53
6.7352154e+52
6.7278855e+52
2.0153223e+52
6.3472857e+52
-1.0411635e+53
-9.9195938e+52
6.2667365e+52
-1.3291862e+54
1.2053936e+52
7.2609781e+52
-9.4661963e+52
-1.0034319e+53
7.2329153e+52
1.7157214e+52
-1.7287329e+54
6.6597518e+52
-1.0472723e+53
-1.0434802e+53
6.9440566e+52
1.3111151e+54
-1.7078564e+54
2.923562e+52
-9.9560566e+52
-1.0518043e+53
7.0277687e+52
6.918726e+52
2.7889894e+52
6.64124e+52
-1.0118859e+53
-9.6359582e+52
6.4810641e+52
-1.3879172e+52
1.3170285e+54
7.5501365e+51
-1.6328582e+54
-1.0013655e+53
-1.0539786e+53
6.853545e+52
7.4202055e+52
1.3314456e+54
-1.6667418e+54
-1.0365533e+53
-1.0431167e+53
6.5101606e+52
7.5702357e+52
-1.6318457e+52
2.4601341e+52
-1.0021824e+53
-1.0677702e+53
7.1536106e+52
7.1215878e+52
-1.0399638e+53
-1.0558392e+53
6.8034374e+52
7.2770839e+52