/*--------------------------------*- C++ -*----------------------------------*\
  =========                 |
  \\      /  F ield         | OpenFOAM: The Open Source CFD Toolbox
   \\    /   O peration     | Website:  https://openfoam.org
    \\  /    A nd           | Version:  7
     \\/     M anipulation  |
\*---------------------------------------------------------------------------*/
FoamFile
{
    version     2.0;
    format      ascii;
    class       surfaceScalarField;
    location    "0";
    object      phi;
}
// * * * * * * * * * * * * * * * * * * * * * * * * * * * * * * * * * * * * * //

dimensions      [0 3 -1 0 0 0 0];

internalField   nonuniform List<scalar> 
100394
(
-2.3536076e-07
0.00022829692
0.00024291443
0.00022882603
5.3046916e-06
0.0002433232
-4.7175044e-05
-4.6774013e-05
0.00080588303
4.8098683e-05
4.8618629e-05
4.9638684e-06
0.00022972066
0.00023025252
0.0002306793
0.00023013907
5.1234548e-06
3.0976346e-06
1.0359763e-06
-5.7809256e-06
5.3547719e-05
6.2639177e-05
5.5230547e-05
5.9616382e-05
8.6948007e-07
0.00019900743
3.0715821e-06
-5.7788087e-06
5.3677493e-05
5.509983e-05
5.9720722e-05
1.5362726e-06
6.2535012e-05
-2.0011389e-07
0.00022825887
0.00022899408
0.00024289823
0.0002434625
7.5473549e-06
0.00019902685
1.4634708e-06
4.4684215e-06
-5.3392717e-05
5.3566552e-05
5.1804273e-05
-5.1374589e-05
-5.1874944e-05
5.1324512e-05
-5.2878999e-05
5.3078118e-05
1.0287497e-06
-1.3156886e-05
-1.2582487e-05
0.00025024921
1.1058371e-05
1.1606713e-05
-1.2476508e-05
-1.3258343e-05
0.00025022219
1.1188751e-05
1.1475701e-05
1.5223924e-06
-4.7244849e-05
-4.6686614e-05
0.00080562813
4.8003379e-05
4.8718693e-05
1.0384597e-06
-2.8928596e-06
5.6304169e-05
6.0798659e-05
5.8625786e-05
5.4712631e-05
-2.894657e-06
1.5375691e-06
5.484511e-05
5.8722776e-05
6.0700056e-05
5.6172191e-05
-9.9583314e-07
1.482797e-06
5.5408154e-05
5.4005862e-05
5.6756765e-05
5.5348117e-05
5.5272672e-05
5.5482012e-05
5.6890889e-05
5.3873976e-05
0.00022967908
0.00023009527
7.3161651e-06
0.00023041943
0.00023084723
-4.2761251e-07
1.751975e-06
-3.2550286e-06
1.3152142e-05
1.2736971e-05
1.5334883e-05
1.4528198e-05
-1.6299166e-06
4.0233866e-07
3.1908071e-07
5.039081e-05
3.2513904e-07
-3.2856554e-06
1.2851533e-05
1.4739385e-05
1.3173028e-05
1.5369607e-05
4.9458482e-05
-9.436473e-07
1.7449227e-06
-3.2536971e-06
1.2768402e-05
3.8227675e-07
1.4553032e-05
1.3118523e-05
1.5307703e-05
1.6353412e-06
-3.2849843e-06
1.3204821e-05
1.2818843e-05
1.5394529e-05
1.4712763e-05
-8.475506e-07
4.9459695e-05
3.7700788e-07
1.4457986e-06
3.0928317e-06
-5.7735409e-06
5.3524564e-05
5.959663e-05
5.5253188e-05
6.2655665e-05
5.0383514e-05
3.0542855e-06
-5.7681214e-06
5.5067962e-05
5.3698619e-05
2.1463262e-06
5.9734267e-05
6.2506635e-05
1.2116018e-06
0.000198998
0.00019900453
2.0373118e-06
-1.2522553e-07
0.00022815837
0.00024282128
0.00022917712
0.00024359817
5.2970741e-05
-5.2758267e-05
5.3617755e-05
5.1854548e-05
-5.1263026e-05
-5.1935833e-05
5.1219349e-05
-5.3451376e-05
9.6115866e-07
0.00019994448
-1.4467888e-05
-1.4880491e-05
1.2971987e-05
1.3363372e-05
-0.00019990249
-9.099226e-07
1.333193e-06
1.4098921e-05
1.4481206e-05
-1.341789e-05
-1.3008707e-05
0.00025089217
-0.00019999116
-9.302994e-07
1.351419e-06
-9.7526745e-07
1.4224005e-06
0.00020003067
1.4144064e-06
1.3231285e-05
1.3101067e-05
-1.4335533e-05
-1.5009327e-05
0.00025095368
-1.3294748e-05
1.4605008e-05
1.3981558e-05
-1.3140106e-05
1.246213e-07
-3.8178267e-06
-3.614167e-06
6.3561264e-05
2.2058238e-06
2.3325274e-06
3.2489822e-07
-3.6469599e-06
-3.8305742e-06
6.469431e-05
2.2640017e-06
2.3164558e-06
-3.9083718e-07
-3.5873598e-06
-3.8429395e-06
6.3550677e-05
2.2381258e-06
3.8095232e-07
2.299798e-06
-3.8049307e-06
-3.6728927e-06
6.4690889e-05
2.2316203e-06
2.3485637e-06
1.4126386e-06
-1.2597839e-05
-1.313563e-05
0.00025018131
1.1034935e-05
1.1628296e-05
-1.244943e-05
-1.3273391e-05
0.00025011627
1.1448223e-05
1.1213206e-05
2.0809741e-06
4.1122062e-06
3.7892884e-07
3.0918827e-07
-1.7832379e-06
5.3287097e-05
4.5810855e-07
3.3297967e-07
1.3303111e-05
5.0816697e-05
-4.1201047e-06
1.2951258e-05
5.0533023e-05
-1.8005456e-06
5.3032798e-05
-2.895426e-06
1.4517082e-06
5.6326178e-05
6.0814233e-05
5.860719e-05
5.4688022e-05
4.1184198e-06
-8.6885544e-07
-1.7969608e-06
3.6460551e-07
5.3027893e-05
-9.3014408e-07
1.2849553e-05
3.9155208e-07
5.0530259e-05
-4.1145294e-06
1.3405071e-05
5.0812329e-05
-1.7871768e-06
5.3285162e-05
1.3917251e-06
5.691423e-05
5.5248428e-05
5.5504787e-05
5.3849889e-05
2.0886323e-07
-9.1819771e-07
3.8856195e-07
1.4251035e-05
1.3755988e-05
1.2801584e-05
1.312337e-05
-8.8093311e-07
3.6979713e-07
1.2750816e-05
1.3069783e-05
1.2987498e-05
1.2664062e-05
2.11051e-07
-3.2946955e-07
1.3818408e-05
1.4311766e-05
1.2836855e-05
1.3202777e-05
-3.1429159e-07
1.3150754e-05
1.2785508e-05
1.3069516e-05
1.2701748e-05
-3.9522291e-07
2.0909573e-07
1.4276643e-05
1.3732768e-05
1.2769273e-05
1.3157528e-05
-2.1123142e-07
3.8347569e-07
1.2819884e-05
1.311788e-05
1.3036966e-05
1.2735095e-05
1.4288044e-05
1.3842893e-05
1.317042e-05
1.2870391e-05
1.310445e-05
1.2717652e-05
1.3021961e-05
1.2632051e-05
0.00023060135
0.0002295705
0.00023102825
0.00022998303
-2.89831e-06
2.1533867e-06
5.4865801e-05
5.8735015e-05
6.0672821e-05
5.6138785e-05
2.0764298e-06
5.5430508e-05
5.6723941e-05
5.4026876e-05
5.5314795e-05
1.3176547e-07
1.0957879e-06
2.5448589e-08
-1.7823141e-06
3.0500185e-06
3.67426e-06
3.1276667e-06
3.8295143e-06
1.1126689e-06
-1.7573625e-06
3.1207711e-06
3.0240951e-06
3.6183223e-06
3.8187496e-06
1.1771563e-07
2.9227918e-08
1.2465909e-05
1.2211778e-05
1.1125645e-06
-1.8968736e-07
8.1261926e-08
-1.7668177e-06
3.0348404e-06
3.1181145e-06
3.6365948e-06
3.8246618e-06
-1.6865352e-07
7.9996303e-08
1.2293651e-05
1.0949864e-06
-1.7844387e-06
3.1357521e-06
3.8423771e-06
3.0475156e-06
3.6725971e-06
1.249459e-05
1.1107594e-06
-2.6074493e-07
-1.7567155e-06
9.5136696e-08
3.0318077e-06
3.1121508e-06
3.6242758e-06
3.8117249e-06
1.7511324e-06
-3.3616259e-07
-3.2529573e-06
1.2729977e-05
1.3155993e-05
1.5337045e-05
1.4521812e-05
-2.2836201e-07
1.2211313e-05
9.3485903e-08
1.0969282e-06
-1.3708436e-07
-1.7818041e-06
3.1354206e-06
3.8354153e-06
3.0415751e-06
3.6673131e-06
-1.2973765e-07
1.246306e-05
6.0982116e-08
1.0933726e-06
-1.7842034e-06
3.055437e-06
3.1274912e-06
3.8357851e-06
3.6788646e-06
1.113969e-06
-1.7667147e-06
3.1261678e-06
3.0266805e-06
3.6300222e-06
3.8309566e-06
5.8080235e-08
1.2495159e-05
1.2291913e-05
-3.2367687e-07
4.945059e-05
1.6266087e-06
4.4987908e-07
-3.2831055e-06
1.2855189e-05
1.3165017e-05
1.4741276e-05
1.5362168e-05
4.4083389e-07
5.0382142e-05
1.0491941e-06
1.6336487e-06
-3.2817116e-06
1.3207874e-05
1.2809552e-05
1.5395364e-05
1.4703904e-05
1.7403568e-06
-3.2498296e-06
5.2759866e-07
1.5297296e-05
1.3107759e-05
1.2771162e-05
1.4553489e-05
3.0783842e-06
2.0143328e-06
-5.7562472e-06
5.3480711e-05
6.2661824e-05
5.5270351e-05
5.9555368e-05
-9.3833884e-07
4.944411e-05
5.19442e-07
5.0369361e-05
1.6815934e-06
0.00019893731
3.016809e-06
-5.7420754e-06
5.5007577e-05
6.2447773e-05
1.2029065e-06
-0.00019985568
-1.3153395e-05
1.3955704e-05
1.4615276e-05
-1.3268098e-05
0.00025080716
0.0001997729
-1.2985872e-06
-1.5025452e-05
-1.4302155e-05
1.3200553e-05
1.3118213e-05
1.8925696e-06
1.7434173e-06
-1.2976656e-05
1.4108673e-05
-1.3429756e-05
1.4450801e-05
0.00025069705
-0.00019987086
-1.2295127e-06
-1.3133696e-06
0.00019994705
-1.4852317e-05
1.2946166e-05
1.3379883e-05
-1.4483686e-05
2.5211242e-07
5.1581118e-05
2.910777e-06
3.0139294e-06
-4.265923e-06
-4.1368845e-06
5.224057e-05
3.0743883e-07
2.9907212e-06
2.9688771e-06
-4.140255e-06
-4.3014179e-06
2.3872662e-07
6.4797495e-05
3.4265852e-06
3.5974527e-06
-3.6520164e-06
-3.5948694e-06
3.0394246e-07
6.5808161e-05
-3.6053384e-06
3.5626288e-06
3.4745062e-06
-3.7012443e-06
-2.7059581e-07
-5.0853975e-05
3.2907221e-07
3.7036527e-06
-3.0461296e-06
3.8130084e-06
-3.1585839e-06
6.3582445e-05
-5.1515788e-05
-2.8536121e-07
3.8529499e-06
-3.1324893e-06
-3.107936e-06
3.7034554e-06
6.4695749e-05
2.7420797e-07
-6.5801839e-05
-2.9718294e-07
3.6696135e-06
3.7699155e-06
-3.3139944e-06
-3.2344256e-06
-6.4778682e-05
3.4496158e-07
3.7163279e-06
3.6630142e-06
-3.1816587e-06
-3.3524364e-06
-8.6433535e-07
1.2469171e-06
-1.222858e-05
-1.2821997e-05
1.4366133e-05
1.4542736e-05
-1.2707533e-05
-1.2348421e-05
2.4036499e-07
-5.2237119e-05
-3.6686823e-06
3.5936796e-06
-3.6377696e-06
3.4428893e-06
-5.1568336e-05
3.5407358e-07
3.5647588e-06
3.4570975e-06
-3.5611273e-06
-3.6837338e-06
-2.3440116e-07
3.5905813e-07
2.9803434e-06
2.9432675e-06
-4.1035678e-06
-4.297895e-06
-4.2687333e-06
3.0229821e-06
2.9355953e-06
-4.1723752e-06
5.152075e-05
-1.9562902e-07
-3.2038477e-06
3.7388705e-06
3.7016215e-06
-3.3455255e-06
-1.8038344e-07
6.4703856e-05
-3.1635767e-06
-3.0769196e-06
3.7335814e-06
3.8238317e-06
-5.087152e-05
6.3606295e-05
3.8443401e-06
-3.1285634e-06
3.6752849e-06
-3.078586e-06
3.632435e-06
3.749273e-06
-3.321977e-06
-3.2137197e-06
1.2824148e-05
-1.6355098e-05
6.286637e-08
9.457183e-07
-7.710136e-07
9.6287992e-07
-8.0972162e-07
1.6099686e-05
6.3368971e-08
9.3781417e-07
-7.5551582e-07
9.6861674e-07
-7.8027547e-07
1.265878e-05
6.2839435e-08
9.524233e-07
-7.4984752e-07
9.6868599e-07
-7.8891354e-07
6.0641469e-08
-6.6567833e-07
-6.8935374e-07
9.8122078e-07
1.5717155e-05
1.012504e-06
2.3979236e-07
-2.9432476e-06
-3.0903442e-06
3.7041983e-06
3.7729168e-06
1.6661571e-05
6.4866113e-08
7.6852643e-07
-1.0503725e-06
7.9651237e-07
1.3109158e-05
6.4582978e-08
8.8743146e-07
-8.8722572e-07
9.0179366e-07
-9.3126609e-07
6.3252206e-08
9.1655128e-07
-8.1858322e-07
9.460042e-07
-8.4579886e-07
2.9052333e-08
-1.1373897e-06
-1.2008372e-06
1.6043055e-05
3.6283018e-07
3.8925113e-07
5.9977681e-08
-1.152073e-06
-1.2036682e-06
1.6361304e-05
3.7673623e-07
3.8520663e-07
-7.4319096e-08
8.0839837e-08
-1.1366973e-06
-1.2097877e-06
1.6141087e-05
3.7268606e-07
3.8383651e-07
-1.202459e-06
-1.1562678e-06
1.6391371e-05
3.941101e-07
3.6994347e-07
-9.9225894e-08
-1.1306136e-06
-1.2069832e-06
1.6039797e-05
3.7088739e-07
3.8112102e-07
9.4448449e-08
2.1349335e-07
-3.8124612e-06
-3.6175577e-06
6.3545041e-05
2.2002332e-06
2.3377087e-06
-1.0172944e-07
-1.1971393e-06
-1.1584039e-06
1.6359031e-05
3.9320084e-07
3.6866159e-07
5.3665628e-08
-1.1431376e-06
-1.2033667e-06
1.6140658e-05
3.9188796e-07
3.6465647e-07
-1.2086708e-06
-1.1496481e-06
1.6389898e-05
3.7797591e-07
3.8609836e-07
4.4508832e-07
-3.6409295e-06
-3.8337939e-06
6.4673627e-05
2.3104376e-06
2.2694896e-06
4.9258238e-07
-3.7983059e-06
-3.6762752e-06
6.4665267e-05
2.3542911e-06
2.225097e-06
-3.8460754e-06
-3.5798702e-06
6.3519617e-05
2.2926988e-06
2.2442798e-06
5.1923174e-07
-1.310178e-05
-1.2613371e-05
0.00025002103
1.1002762e-05
1.1655592e-05
1.160985e-06
1.1231402e-05
1.1140515e-05
0.0002209609
1.1270339e-05
1.1099767e-05
1.3641084e-06
0.00022093584
3.5320546e-06
-1.4656564e-07
2.8425553e-07
-3.6430791e-06
-3.5214499e-06
5.317658e-05
1.8205839e-06
1.784722e-06
-1.3165909e-07
3.2722702e-07
6.5384605e-05
-3.5275884e-06
6.5346288e-05
-3.6311824e-06
-3.5209032e-06
5.3151641e-05
1.8080109e-06
1.791433e-06
4.1116347e-06
2.9177854e-07
-1.7827087e-06
4.284045e-07
5.3277084e-05
3.7420232e-07
4.609807e-07
1.3283632e-05
5.0807085e-05
-4.1203375e-06
1.2967893e-05
5.0525378e-05
-1.8014568e-06
5.3025515e-05
3.5271183e-06
-4.224313e-07
-3.6560192e-06
-3.4956361e-06
3.3317723e-07
5.3142735e-05
1.8229683e-06
1.775964e-06
-3.917113e-07
3.8353349e-07
6.5335896e-05
-3.5324814e-06
6.5380085e-05
-3.5462133e-06
-3.6178602e-06
5.3173559e-05
1.8162146e-06
1.7887989e-06
3.0218503e-07
2.1025916e-07
4.5649012e-07
1.2874213e-05
1.384485e-05
1.3162271e-05
1.4281262e-05
2.0824852e-07
1.4278968e-05
1.3726926e-05
1.316148e-05
1.2762097e-05
2.9507358e-07
4.3533546e-07
1.2738845e-05
1.2824071e-05
1.3109855e-05
1.3028759e-05
1.2710519e-05
1.302593e-05
1.310868e-05
1.2624906e-05
2.494712e-07
-1.3246366e-06
-1.331159e-07
1.1803291e-05
-1.3192768e-06
1.1732991e-05
9.6110994e-08
-2.3390955e-07
-4.9403632e-07
9.1010672e-08
1.2119239e-05
-4.9285971e-07
-1.2299866e-07
1.2180673e-05
-2.4352997e-07
3.8124651e-07
9.7674168e-08
2.8227477e-06
2.8911683e-06
3.2093926e-06
3.0980782e-06
3.8681711e-07
-1.320794e-07
2.9125647e-06
2.8289467e-06
3.1118028e-06
3.2253363e-06
2.3268937e-07
-1.2658177e-07
2.814601e-06
2.7325412e-06
3.0135271e-06
2.9257252e-06
9.1571493e-08
2.7268635e-06
2.9179846e-06
2.7928106e-06
2.9920489e-06
-7.3667182e-08
-1.3257391e-06
-8.1931408e-08
1.1753532e-05
-1.3260522e-06
1.1813177e-05
-5.3161183e-08
-4.9531737e-07
-7.7627727e-08
1.2137217e-05
-4.912331e-07
1.2191795e-05
5.0027705e-08
3.8801446e-07
3.1219393e-06
2.8422541e-06
3.2208136e-06
2.9043934e-06
3.8537051e-07
-8.3366342e-08
3.2205516e-06
3.095642e-06
2.9051967e-06
2.8168231e-06
4.8886271e-08
2.7461124e-06
2.8065468e-06
3.005985e-06
2.9392129e-06
-7.8154477e-08
2.721272e-06
3.0059122e-06
2.9134345e-06
2.8068241e-06
1.3329893e-07
-1.32399e-06
3.1000211e-08
1.1805162e-05
-1.3199172e-06
1.1734232e-05
-1.1123064e-07
-4.9491341e-07
1.2120951e-05
3.208142e-08
-4.9178037e-07
1.2182007e-05
-1.8170005e-07
3.8532573e-07
4.9436724e-07
3.1018184e-06
3.2144803e-06
2.8253163e-06
2.896915e-06
3.8830698e-07
4.9224147e-07
-3.4318927e-08
3.227085e-06
3.1160297e-06
2.912861e-06
2.8339779e-06
1.7223229e-07
-2.9736581e-08
2.8149992e-06
3.0142861e-06
2.7377734e-06
2.9312785e-06
2.7297721e-06
2.9215978e-06
2.7985019e-06
2.9978113e-06
1.8948339e-07
-1.3268051e-06
1.1813283e-05
-1.3252089e-06
1.1754211e-05
1.7550899e-07
1.2192425e-05
1.2137429e-05
1.1153516e-07
3.8686663e-07
3.1181934e-06
3.2195395e-06
2.8376829e-06
2.9045392e-06
3.8164458e-07
3.2159875e-06
3.0923144e-06
2.8999499e-06
2.8146341e-06
1.0903321e-07
2.7412926e-06
2.9341811e-06
2.8065411e-06
3.0057305e-06
2.8015843e-06
2.7186952e-06
3.0007133e-06
2.9102626e-06
-2.0273428e-06
-2.9034178e-06
6.0617142e-05
5.8733889e-05
5.6075168e-05
-2.8995847e-06
5.8567549e-05
6.0819675e-05
5.6341719e-05
5.4641228e-05
-1.944033e-06
5.6661171e-05
5.5251243e-05
5.6931782e-05
5.520228e-05
5.552153e-05
5.3803969e-05
4.1174619e-06
-9.6958722e-07
-1.7963066e-06
5.0417724e-07
5.3010071e-05
-1.0271054e-06
1.2825792e-05
5.4078722e-07
5.0513039e-05
-4.1145171e-06
1.3422971e-05
5.0798237e-05
-1.7881512e-06
5.3271226e-05
-1.0257572e-06
2.0750849e-07
5.3729497e-07
1.4241541e-05
1.3756701e-05
1.2804517e-05
1.3112408e-05
2.0987103e-07
1.4312955e-05
1.3205935e-05
1.3810424e-05
1.2827332e-05
-9.8307733e-07
5.1112574e-07
1.2754188e-05
1.2666888e-05
1.3058983e-05
1.297645e-05
1.2776046e-05
1.3072667e-05
1.3154241e-05
1.269224e-05
5.8037919e-07
-4.2976442e-08
1.3636265e-08
-9.6763829e-07
7.4951111e-07
7.3020072e-07
9.6865619e-07
1.0182527e-06
-3.6449935e-08
1.3733804e-08
3.1252849e-06
5.7981342e-07
-3.606098e-09
-9.7897782e-07
1.0224633e-06
7.5352416e-07
7.3329105e-07
9.7818103e-07
-4.8405711e-09
3.1740504e-06
3.2442766e-08
5.794723e-07
-9.7755387e-07
7.515486e-07
7.3382729e-07
9.7846293e-07
1.0189646e-06
5.7815104e-07
-9.6230765e-07
7.2782973e-07
7.5013442e-07
1.0163954e-06
9.6383958e-07
-2.6536602e-08
3.1025892e-06
3.166011e-06
-6.0457538e-08
5.7860963e-07
2.0694755e-08
-9.6382566e-07
7.4848183e-07
7.2987358e-07
9.6588712e-07
1.0155754e-06
5.8017664e-07
-2.842706e-08
-9.7869727e-07
7.5356104e-07
7.3228629e-07
1.021182e-06
9.7757581e-07
-5.0291132e-08
2.0079859e-08
3.1087191e-06
-2.6413983e-08
3.1711754e-06
5.8010062e-07
1.8467441e-08
-9.797717e-07
7.518202e-07
7.3523103e-07
9.8005011e-07
1.0214304e-06
1.5975215e-08
3.1776329e-06
5.8038539e-07
-9.6794461e-07
7.5135762e-07
7.2873685e-07
1.0197327e-06
9.6735326e-07
3.1264244e-06
-1.1004854e-07
1.1123442e-06
-1.7565851e-06
3.1215568e-06
3.0222253e-06
3.6165564e-06
3.8190587e-06
-6.5588563e-08
5.7765459e-07
-9.6201939e-07
2.4239619e-08
7.4787946e-07
7.2978739e-07
9.6529802e-07
1.0145492e-06
5.7960978e-07
-3.7963369e-08
-9.7725364e-07
7.5351543e-07
7.3161124e-07
1.0204023e-06
9.7663247e-07
-5.4422715e-08
3.1022554e-06
2.3484674e-08
-3.5255633e-08
3.1651838e-06
1.0949066e-06
5.3860449e-08
-1.7814392e-06
3.0507847e-06
3.1256669e-06
3.8276043e-06
3.6745587e-06
9.9125486e-08
5.6929079e-08
1.2463442e-05
1.2209208e-05
5.7937571e-07
9.857504e-09
-9.7877211e-07
7.5132988e-07
7.3527974e-07
9.796889e-07
1.0206922e-06
8.534902e-09
3.173863e-06
5.8056925e-07
-2.7918361e-08
-9.674306e-07
7.2803109e-07
7.5152704e-07
1.0197586e-06
9.6688907e-07
-2.6616403e-08
3.1246295e-06
-5.151256e-08
5.79985e-07
-9.6782491e-07
7.491927e-07
7.3075705e-07
9.6890919e-07
1.0180079e-06
5.8032624e-07
-1.2976742e-08
-9.7964398e-07
7.3310146e-07
7.5385521e-07
1.0229746e-06
9.7833576e-07
4.3837979e-08
-1.355468e-08
3.1771559e-06
3.1264262e-06
2.7507953e-08
5.7983287e-07
-9.7866602e-07
7.343416e-07
9.7918435e-07
1.019532e-06
7.5145405e-07
5.7889667e-07
-9.6378682e-07
7.5056691e-07
7.2778494e-07
1.017187e-06
9.642318e-07
-2.2537256e-08
3.1083991e-06
3.1713333e-06
-2.1291522e-07
1.1115196e-06
1.118128e-07
-1.7657409e-06
3.03552e-06
3.1158212e-06
3.8224238e-06
3.6367418e-06
1.0945255e-06
-1.783445e-06
3.1364426e-06
3.0453826e-06
3.6705319e-06
3.8425201e-06
-1.8857485e-07
1.0998238e-07
1.2290461e-05
1.249125e-05
3.6034597e-08
1.0921479e-06
1.697435e-07
-1.7828717e-06
3.0559837e-06
3.1248646e-06
3.6787962e-06
3.8331713e-06
1.1133903e-06
-1.7655126e-06
3.8309063e-06
3.1267474e-06
3.0242387e-06
3.6276248e-06
3.6703283e-08
1.6155621e-07
1.2490952e-05
1.2287701e-05
-2.1281946e-07
1.7483142e-06
-3.2480816e-06
1.3157817e-05
1.2717549e-05
1.450963e-05
1.5335913e-05
-1.0961671e-06
2.5118074e-07
1.2457753e-05
2.8740948e-07
-1.780313e-06
3.1358432e-06
3.0387733e-06
3.8351146e-06
3.6645048e-06
1.1093023e-06
-1.7551067e-06
1.3039464e-07
3.6239785e-06
3.032211e-06
3.109127e-06
3.8086669e-06
1.2206111e-05
1.2799406e-07
-1.6200856e-06
2.1794149e-07
6.0621471e-07
5.0356007e-05
6.203043e-07
-3.277104e-06
1.4739441e-05
1.2856469e-05
1.3150609e-05
1.5347745e-05
4.9427676e-05
1.6286459e-06
-3.2740602e-06
1.3207723e-05
1.53912e-05
1.2792835e-05
1.4686945e-05
5.0333589e-05
5.0846847e-05
2.6943664e-07
-6.4770307e-05
3.62594e-06
3.752351e-06
-3.3156381e-06
-3.2170651e-06
2.484865e-07
3.8466858e-06
3.6689812e-06
-3.1223448e-06
-3.081698e-06
6.3571496e-05
-5.1490971e-05
3.7563798e-07
3.7358463e-06
3.8169543e-06
-3.0701567e-06
-3.1664778e-06
6.4662925e-05
3.9522811e-07
-6.5775293e-05
-3.1971156e-06
3.7317758e-06
3.7046336e-06
-3.3488402e-06
1.1213363e-06
-1.2357787e-05
-1.2682481e-05
1.4227191e-05
1.4670828e-05
3.2708141e-07
5.2210934e-05
-4.1731813e-07
2.9283161e-06
3.0276881e-06
-4.1763524e-06
-4.2605476e-06
5.153651e-05
2.9723977e-06
2.9482186e-06
4.8385978e-07
-4.301837e-06
-4.0946014e-06
3.2731185e-07
6.5762538e-05
-4.0859834e-07
3.435489e-06
3.5971838e-06
-3.6608545e-06
-3.6415958e-06
6.473294e-05
4.7163372e-07
3.5565829e-06
-3.6873804e-06
3.4606852e-06
-3.5524392e-06
0.00019968093
-1.4498815e-05
1.291044e-05
1.339768e-05
-1.481038e-05
-1.3230717e-05
1.4622321e-05
1.3920169e-05
-1.3164841e-05
0.00025054624
5.0813737e-05
-3.558773e-07
4.5390555e-07
-3.1736546e-06
3.7079385e-06
3.6658388e-06
-3.3555981e-06
-3.4478943e-07
4.2771795e-07
-3.1612845e-06
-3.0382491e-06
3.7055296e-06
3.8048857e-06
6.352858e-05
5.1481496e-05
-3.3065146e-06
3.6619888e-06
3.7728072e-06
-3.2376489e-06
-3.1109017e-06
-3.1252854e-06
3.8549129e-06
3.6960628e-06
6.4648336e-05
1.5905433e-06
-1.2200505e-05
-1.2830285e-05
1.4370865e-05
1.4512406e-05
5.221849e-05
-3.337907e-07
2.9840617e-06
2.9735407e-06
-4.1329157e-06
-4.3053906e-06
3.1635914e-07
-5.1563619e-05
-3.5987146e-06
3.6010066e-06
3.4203239e-06
-3.6454434e-06
-3.5980985e-06
3.5557806e-06
3.478107e-06
-3.7049507e-06
-4.2591603e-06
2.9046136e-06
3.0184045e-06
-4.1408582e-06
6.2139048e-08
-1.3180115e-05
1.6661225e-05
8.031938e-07
7.6187263e-07
-1.0754561e-06
-1.0572254e-06
-1.3371698e-05
7.0043495e-08
1.6959137e-05
7.7431846e-07
-1.0622141e-06
7.9468551e-07
-1.0882095e-06
-6.8254229e-08
7.1179025e-08
5.9166513e-07
-1.210257e-06
5.9300931e-07
-1.2536569e-06
5.9826054e-07
-1.2449256e-06
5.7670213e-07
-1.2074962e-06
4.868126e-08
-1.3393916e-05
1.6988213e-05
8.0335936e-07
7.6712451e-07
-1.0824337e-06
-1.0702721e-06
-1.3246925e-05
1.6758424e-05
7.6350506e-08
-1.0529126e-06
7.7096853e-07
7.9733089e-07
-1.0856815e-06
-4.6206007e-08
7.6342903e-08
5.8705678e-07
5.9316845e-07
-1.2024093e-06
-1.2540458e-06
6.0214878e-07
5.8456646e-07
-1.2479152e-06
-1.2177909e-06
4.5877574e-08
-1.3108845e-05
1.63546e-05
9.5259276e-07
9.0996964e-07
-8.3898305e-07
-8.2537886e-07
-1.3300542e-05
6.9132418e-08
1.6676835e-05
9.2543298e-07
9.4775507e-07
-8.2675369e-07
-8.4852975e-07
-5.1306434e-08
7.5615495e-08
8.9898766e-07
-8.9299328e-07
9.0697219e-07
-9.3069513e-07
9.0858268e-07
8.8056882e-07
-9.2454293e-07
-8.938248e-07
1.3171071e-05
-6.1704395e-08
7.5831806e-08
8.8956649e-07
-8.8969411e-07
9.0271958e-07
-9.3470529e-07
6.1711629e-08
-1.3321357e-05
1.6696363e-05
9.5544624e-07
9.1795952e-07
-8.4320718e-07
-8.3515867e-07
7.4074698e-08
1.6439451e-05
9.1826484e-07
-8.2123098e-07
9.4633887e-07
-8.4961127e-07
9.1491663e-07
8.9115204e-07
-9.2545047e-07
-9.0109853e-07
-1.2652917e-05
-7.2191251e-08
8.0902562e-08
-6.6425165e-07
-6.9012624e-07
1.5709465e-05
1.010984e-06
9.8177902e-07
-7.2671817e-08
-1.6092702e-05
8.4196916e-08
9.5311782e-07
9.6711237e-07
-7.4841997e-07
-7.8968228e-07
-1.2836933e-05
-7.8812279e-08
-6.8386358e-07
-6.8055593e-07
1.6016773e-05
9.8267848e-07
1.0215217e-06
-7.8559349e-08
-1.638392e-05
9.8123125e-07
9.5536046e-07
-7.800144e-07
-7.6229231e-07
-2.3038844e-07
4.9823902e-05
3.1777147e-07
-2.9377718e-06
-3.0929595e-06
3.7064064e-06
3.7668961e-06
-1.2860043e-05
-4.9859127e-08
-6.7260931e-07
-6.9340799e-07
1.6044029e-05
1.0150974e-06
9.9092533e-07
-5.2623185e-08
-1.6413474e-05
9.6463097e-07
-7.5433154e-07
9.7424699e-07
-7.895404e-07
1.2719337e-05
-1.6191385e-05
-7.3201071e-08
9.7851665e-07
-7.8294476e-07
9.4768156e-07
-7.5856769e-07
-7.0488628e-08
-6.8442692e-07
-6.7525375e-07
1.5805488e-05
9.76479e-07
1.0211284e-06
5.0474854e-05
-2.7723269e-07
-3.0683214e-06
-2.9978274e-06
3.7048211e-06
3.8070514e-06
6.2573233e-08
-1.288353e-05
-7.3934316e-08
9.7837925e-07
9.3339438e-07
-7.7421188e-07
-7.6444706e-07
-1.3029404e-05
8.5838012e-08
9.4525565e-07
-7.648014e-07
9.6869664e-07
-7.865731e-07
-6.2081504e-08
8.0874677e-08
-1.6693892e-05
9.5624415e-07
-7.7788414e-07
9.6621993e-07
-8.128818e-07
-1.64387e-05
-7.3456701e-08
9.7321009e-07
-8.0334891e-07
9.4153933e-07
-7.7928395e-07
6.6463674e-08
-1.3008115e-05
9.7517333e-07
-7.7755488e-07
9.3588499e-07
-7.7361447e-07
-1.2818955e-05
8.5284986e-08
9.3852501e-07
-7.540439e-07
9.6707495e-07
-7.8111679e-07
-6.4213409e-08
-1.6349052e-05
8.4976603e-08
9.4651404e-07
-7.6958727e-07
9.6132048e-07
-8.1057839e-07
-1.667291e-05
9.7288651e-07
-8.0383146e-07
9.4644157e-07
-7.8648057e-07
-2.2915309e-07
3.1238256e-07
-2.920908e-06
3.6572464e-06
3.7722985e-06
-3.0233837e-06
3.7985428e-06
-3.0105124e-06
-2.9899118e-06
-2.0856521e-07
3.7352642e-06
-2.9690256e-06
3.7780642e-06
-3.0979151e-06
3.6780434e-06
3.798349e-06
-3.0645767e-06
-2.9680849e-06
1.3319447e-05
-5.7366614e-08
7.5827947e-08
-1.6986135e-05
8.9906478e-07
9.0686019e-07
-8.9322377e-07
-9.331606e-07
-5.5048458e-08
7.9103879e-08
9.255227e-07
9.4763938e-07
-8.2701882e-07
-8.509654e-07
1.3170582e-05
-1.6757837e-05
9.1066951e-07
-9.2680783e-07
8.8151384e-07
-8.9742873e-07
9.1056118e-07
9.5403634e-07
-8.4162349e-07
-8.2917926e-07
7.1136354e-08
-1.3297825e-05
9.5521011e-07
-8.4046868e-07
9.1750858e-07
-8.346162e-07
-1.3104744e-05
8.5877124e-08
9.1736834e-07
-8.1709745e-07
9.4449172e-07
-8.4671812e-07
-6.8013007e-08
-1.6656585e-05
8.8060866e-08
8.883559e-07
-8.8576796e-07
9.0027003e-07
-9.3219636e-07
-1.6955915e-05
9.1471669e-07
-9.2269117e-07
8.9074704e-07
-9.006062e-07
5.780473e-08
-1.3369495e-05
-8.2410991e-08
8.023565e-07
7.6635022e-07
-1.0800294e-06
-1.0701545e-06
-1.3176804e-05
8.8831646e-08
7.6950463e-07
7.9505959e-07
-1.0488267e-06
-1.0832797e-06
-5.2416693e-08
8.9041399e-08
5.8474495e-07
5.9000373e-07
-1.1991811e-06
-1.2527653e-06
-8.1549159e-08
6.0091379e-07
5.8338881e-07
-1.245438e-06
-1.2180931e-06
1.3392464e-05
-7.4158427e-08
5.9267352e-07
-1.2096578e-06
5.9409693e-07
-1.255802e-06
-7.0999179e-08
7.7482945e-07
-1.0620585e-06
7.9543954e-07
-1.090312e-06
-1.324662e-05
8.0516334e-07
7.6313881e-07
-1.0776077e-06
-1.0609702e-06
6.0122023e-07
-1.245932e-06
5.7891518e-07
-1.2103574e-06
1.2884055e-05
-5.3932502e-08
9.4949205e-07
-7.7169446e-07
9.6535203e-07
-8.1112433e-07
5.359543e-08
-1.3031492e-05
1.6416117e-05
-6.1901612e-08
9.7649752e-07
9.3778296e-07
-7.7888567e-07
-7.7284768e-07
1.619226e-05
9.4105746e-07
-7.5658919e-07
9.7073455e-07
-7.8212643e-07
-6.6194096e-08
9.7418449e-07
9.4842769e-07
-8.0534214e-07
-7.8566765e-07
6.2584783e-08
1.2862366e-05
-6.7517454e-08
9.8221616e-07
-7.8204003e-07
9.5695648e-07
-7.6202893e-07
1.2720096e-05
9.5557715e-07
-7.5103233e-07
9.7073556e-07
-7.9065349e-07
-6.1301984e-08
1.5806499e-05
-6.6753224e-07
-6.921565e-07
9.8377349e-07
1.0139032e-06
-6.2078632e-08
1.6047029e-05
-6.8591036e-07
-6.8052263e-07
9.8385578e-07
1.0225156e-06
-1.2840692e-05
-3.9071057e-08
1.6021814e-05
-6.7295417e-07
-6.9169072e-07
1.0146071e-06
9.9024784e-07
-4.2660619e-08
-1.6388553e-05
9.6350302e-07
-7.5491874e-07
9.7372459e-07
-7.8786667e-07
-1.2658212e-05
1.5716402e-05
-6.8269933e-07
-6.7232594e-07
9.7494449e-07
1.0187417e-06
-1.6099037e-05
9.7538829e-07
-7.8229173e-07
9.4564295e-07
-7.5632547e-07
4.9876054e-08
-1.2823782e-05
9.7518392e-07
-7.7349489e-07
9.3124122e-07
-7.6226146e-07
-1.3011426e-05
9.4378271e-07
-7.6587973e-07
9.6779498e-07
-7.8557684e-07
-5.2038007e-08
9.5465585e-07
-7.7899131e-07
9.6530901e-07
-8.1169578e-07
9.6961479e-07
-8.0307732e-07
9.3890727e-07
-7.7752173e-07
-3.1770703e-06
-1.2556718e-08
4.0253135e-06
1.5737366e-08
-1.9134053e-07
2.3146046e-07
-1.8531353e-07
2.394846e-07
-1.1691076e-08
-4.0375655e-06
1.5430185e-08
2.3237774e-07
-1.8673555e-07
-1.9657194e-07
2.3667066e-07
-3.2233978e-06
4.0983191e-06
2.3141566e-07
-1.8966922e-07
2.4098718e-07
-1.9100531e-07
-4.1163845e-06
2.3897305e-07
-1.9546014e-07
2.3303716e-07
-1.9041268e-07
-3.1830281e-06
-1.4475107e-08
4.0298208e-06
1.548512e-08
-1.948168e-07
2.3278668e-07
-1.882773e-07
2.4031547e-07
-1.3729547e-08
1.5748786e-08
2.3250085e-07
-1.8718152e-07
-1.9720498e-07
2.3663487e-07
-3.2301636e-06
4.1088751e-06
-1.9199957e-07
2.4247902e-07
-1.9373588e-07
2.3350023e-07
2.3967015e-07
-1.9538391e-07
2.3379728e-07
-1.9010778e-07
-3.1857174e-06
-1.3136944e-08
4.0342433e-06
1.5759379e-08
-1.953833e-07
2.388365e-07
-1.890205e-07
2.468408e-07
-1.1957164e-08
1.5443058e-08
2.3602799e-07
-1.8807404e-07
-1.9761662e-07
2.4043075e-07
-3.2328956e-06
4.1067456e-06
-1.9332897e-07
2.4832784e-07
-1.9504324e-07
2.3882709e-07
2.4283354e-07
-1.9646048e-07
2.3659628e-07
-1.9177477e-07
-1.4634177e-08
3.1875725e-06
1.6427273e-08
2.6115851e-07
2.6854768e-07
-1.7071318e-07
-1.7979293e-07
3.2347415e-06
-1.512218e-08
-1.7784814e-07
-1.7365022e-07
2.7086348e-07
2.6377073e-07
-1.2846238e-08
1.4640506e-08
1.5499119e-07
4.0120061e-06
-4.5451083e-08
1.2365266e-05
5.9441672e-08
-7.1104447e-07
9.180327e-07
9.3565595e-07
-7.4799551e-07
-1.4618977e-08
4.094835e-06
1.5418175e-07
3.2414261e-06
2.6493296e-07
2.7035546e-07
-1.7206293e-07
-1.7974251e-07
1.2545986e-05
-7.4381795e-07
9.4433905e-07
9.2074438e-07
-7.2486037e-07
4.1032413e-06
1.5448625e-07
-4.6682552e-08
6.0026437e-08
-7.13662e-07
9.0966322e-07
9.4144921e-07
-7.3717746e-07
-7.3590783e-07
9.4667547e-07
9.0997192e-07
-7.3013031e-07
-3.3278259e-06
-1.2378358e-08
4.1616497e-06
1.539737e-08
-2.4165642e-07
2.0000538e-07
-2.3421069e-07
2.075404e-07
1.5648724e-08
1.8069857e-07
-2.5863782e-07
-2.7140232e-07
1.8305281e-07
4.2440296e-06
-2.3817771e-07
2.0953373e-07
-2.4084046e-07
2.006907e-07
-3.2566654e-06
-1.2293971e-08
4.085907e-06
1.5676417e-08
-2.0350351e-07
2.2365867e-07
-1.9729792e-07
2.319464e-07
-1.027628e-08
1.5403508e-08
2.1891746e-07
-2.0900174e-07
-2.1998421e-07
2.2269736e-07
-3.3050484e-06
4.1598836e-06
2.235821e-07
-2.0185342e-07
2.332204e-07
-2.0337056e-07
2.2490129e-07
-2.1901451e-07
2.1952919e-07
-2.1283653e-07
-3.199733e-06
-1.4190046e-08
1.5422219e-08
-1.9615863e-07
2.2784476e-07
-1.8982251e-07
2.3562112e-07
-1.3388196e-08
1.5682343e-08
2.2745997e-07
-1.9134929e-07
-2.0197376e-07
2.3115796e-07
-3.246495e-06
-1.9351106e-07
2.3773619e-07
-1.9522029e-07
2.2854523e-07
2.3426776e-07
-2.0011449e-07
2.2869531e-07
-1.9435682e-07
9.5744267e-09
-3.8435918e-07
-3.6440196e-07
4.0872406e-06
7.0148215e-08
6.4376468e-08
1.44391e-08
-3.6925635e-07
-3.8526112e-07
4.1682649e-06
6.7641153e-08
6.9006331e-08
-1.5140559e-08
1.8007342e-08
-3.6477055e-07
-3.8672573e-07
4.114977e-06
6.6779629e-08
6.8891836e-08
-3.8535375e-07
-3.7024829e-07
4.1769453e-06
7.1176429e-08
6.60328e-08
-1.9887914e-08
2.0255974e-08
-3.6310525e-07
-3.860591e-07
4.0954026e-06
6.6362593e-08
6.8433587e-08
-2.1820838e-08
-3.8421148e-07
-3.7080522e-07
4.1750031e-06
6.5949676e-08
7.1006541e-08
-1.3294132e-08
-3.6898829e-07
-3.8681269e-07
4.1815934e-06
6.7952109e-08
6.9470605e-08
-3.854268e-07
-3.6602352e-07
4.1168199e-06
6.4959227e-08
7.0750373e-08
-2.2773737e-08
-3.6266294e-07
-3.8588247e-07
4.0862529e-06
2.369582e-08
6.638044e-08
6.813109e-08
-2.6256396e-08
-3.8357432e-07
-3.7082148e-07
4.1675498e-06
6.5633945e-08
7.0996478e-08
5.0330271e-08
-1.1381337e-06
-1.1994462e-06
1.6039097e-05
3.6149214e-07
3.9054466e-07
8.7771101e-08
-1.2043585e-06
-1.1505957e-06
1.6356764e-05
3.7806955e-07
3.8382485e-07
-1.7172941e-08
-3.685336e-07
-3.8688226e-07
4.1761796e-06
6.8032008e-08
6.9182718e-08
-2.2667223e-08
-3.8505182e-07
-3.6635219e-07
4.1145096e-06
7.0894094e-08
6.4782071e-08
-1.2263042e-08
1.8712719e-08
-3.6914749e-07
-3.857834e-07
4.1747301e-06
6.7943225e-08
6.9025316e-08
-3.8444284e-07
-3.6473035e-07
4.0954154e-06
7.0431182e-08
6.4372923e-08
-1.8954441e-08
-3.6434272e-07
-3.8699288e-07
4.1163193e-06
6.6953744e-08
6.8748678e-08
-3.8518296e-07
-3.7059488e-07
4.1813739e-06
7.145511e-08
6.5958146e-08
9.707952e-08
-1.156995e-06
-1.2009141e-06
1.63863e-05
3.9547309e-07
3.6850807e-07
1.1060453e-07
-1.2104623e-06
-1.1350568e-06
1.6135493e-05
3.7410292e-07
3.8234221e-07
-7.7994405e-08
1.335061e-07
-1.1478014e-06
-1.209298e-06
1.6382843e-05
3.7948131e-07
3.8450002e-07
-1.2016256e-06
-1.1438424e-06