/*--------------------------------*- C++ -*----------------------------------*\
  =========                 |
  \\      /  F ield         | OpenFOAM: The Open Source CFD Toolbox
   \\    /   O peration     | Website:  https://openfoam.org
    \\  /    A nd           | Version:  7
     \\/     M anipulation  |
\*---------------------------------------------------------------------------*/
FoamFile
{
    version     2.0;
    format      ascii;
    class       volVectorField;
    location    "0";
    object      U;
}
// * * * * * * * * * * * * * * * * * * * * * * * * * * * * * * * * * * * * * //

dimensions      [0 1 -1 0 0 0 0];

internalField   nonuniform List<vector> 
33730
(
(0.08902347 0.00043816614 -0.00066121736)
(0.090963947 0.00045485057 -0.00085582656)
(0.088805603 0.00044066879 0.00021758768)
(0.087847213 0.00033980993 -0.0019984043)
(0.088880932 0.00040390552 -0.0023852854)
(0.087847369 0.00056600823 -0.0019955149)
(0.08907678 0.00062477388 -0.00065683364)
(0.088889191 0.00050076329 -0.0023770285)
(0.091326464 0.00043480462 -0.00016183301)
(0.090848469 0.00029525801 -0.0019588846)
(0.090843999 0.00060749183 -0.0019573741)
(0.090960479 0.00062877877 -0.00085314741)
(0.088013945 0.00039074332 0.0016802792)
(0.088014518 0.00051823966 0.0016802536)
(0.086691149 0.00061311077 -0.00022246333)
(0.086689931 0.0002945116 -0.00022340571)
(0.088859641 0.00063018242 0.00021982877)
(0.085859237 0.00027078996 -0.0045239201)
(0.088257447 0.00038676872 -0.0043924628)
(0.085985588 0.00047328058 -0.0044224645)
(0.087823651 0.00033764277 -0.0044975675)
(0.085855174 0.00063764428 -0.004519366)
(0.085983975 0.00042960485 -0.0044228389)
(0.087828682 0.00057268836 -0.00448749)
(0.087856829 0.0005036103 -0.0019942642)
(0.088248545 0.00051556517 -0.0043977106)
(0.087851801 0.00076394335 -0.001988979)
(0.088889775 0.00056622544 -0.0023846075)
(0.088895833 0.00069719394 -0.0023737842)
(0.089135006 0.00089038981 -0.00064765342)
(0.091281988 0.00058031234 -0.00016121904)
(0.092302867 0.00033527631 -0.0011822151)
(0.092385259 0.00040863565 0.00052783102)
(0.090968917 0.0004632566 -0.0001121345)
(0.090978079 0.00047769507 -2.0362724e-05)
(0.090991086 0.00040215945 -2.2233253e-05)
(0.09098862 0.00038272061 -0.00010945236)
(0.092289236 0.00054685312 -0.0011831701)
(0.092406281 0.00043675386 0.00052421412)
(0.091327261 0.00013278088 -0.0050369541)
(0.09146568 0.00055274901 -0.0049203744)
(0.091317225 0.00076867653 -0.0050343293)
(0.091460315 0.00034304992 -0.0049197679)
(0.090833247 0.00045136035 -0.0019571461)
(0.090817467 0.00078939582 -0.0019531554)
(0.087750068 0.000429076 0.0039168025)
(0.088174913 0.00036340065 0.003673131)
(0.087740024 0.00031710484 0.0037191123)
(0.087669395 0.00035051652 0.0039869008)
(0.088023036 0.00055600481 0.0016822556)
(0.087665879 0.00056035414 0.0039864271)
(0.087738471 0.00059477707 0.0037157884)
(0.088170032 0.00054346364 0.0036785337)
(0.087749242 0.00047544442 0.0039175006)
(0.086699801 0.00045935872 -0.00022252009)
(0.08417408 0.00064590343 0.002901152)
(0.082263471 0.00078335884 -0.001751178)
(0.084297967 0.0003889834 0.0028957801)
(0.082427905 0.00026531815 -0.0017420104)
(0.084176299 0.00026455762 0.0029011187)
(0.082430226 0.00063865822 -0.0017429059)
(0.084298634 0.00051512884 0.0028947353)
(0.082266343 0.00012571427 -0.0017519521)
(0.088919319 0.00090242469 0.00022417033)
(0.088018631 0.00071842913 0.0016824879)
(0.08669663 0.00081279847 -0.00022096524)
(0.08414223 0.00040002857 -0.0098416838)
(0.084038926 0.00028389093 -0.009951304)
(0.087120367 0.00034959466 -0.0087114939)
(0.086708471 0.00034049611 -0.0087923971)
(0.084085401 0.00053781371 -0.0099183914)
(0.086774764 0.00049861936 -0.0087678078)
(0.084211779 0.00036452845 -0.0098190434)
(0.087173026 0.00045352688 -0.0086730541)
(0.084029495 0.00062307962 -0.0099449681)
(0.085852147 0.00042510574 -0.0045205695)
(0.086707715 0.00056913303 -0.0087804095)
(0.084134452 0.00050165198 -0.0098401703)
(0.087105102 0.00055211601 -0.0087155012)
(0.084207522 0.00053536999 -0.0098159113)
(0.084082713 0.00036179154 -0.0099201287)
(0.087175758 0.00044632448 -0.0086655158)
(0.086762831 0.00040342454 -0.0087763981)
(0.087815004 0.00049164294 -0.0044966709)
(0.085976072 0.00064114439 -0.0044176781)
(0.088249229 0.00055412971 -0.0043891443)
(0.085967742 0.0006073295 -0.0044175153)
(0.085834932 0.00083279093 -0.0045121078)
(0.087849694 0.00072877812 -0.0019853303)
(0.087810048 0.00076767541 -0.0044816184)
(0.088230858 0.00069220536 -0.0043945539)
(0.088881411 0.00078741673 -0.0023794828)
(0.087833553 0.0010433257 -0.0019746701)
(0.088880805 0.00097027766 -0.0023645308)
(0.092357951 0.00056594424 0.00052260955)
(0.092241027 0.00071127817 -0.0011826429)
(0.092318797 0.0005521395 0.00052912658)
(0.090907125 0.00060657869 -0.00011294979)
(0.090934053 0.00063921672 -1.8926085e-05)
(0.090961423 0.00054480919 -2.2811048e-05)
(0.090942987 0.00051193634 -0.00010800074)
(0.09227046 0.00047961494 -0.0011802164)
(0.094035206 0.00028703037 -0.0034608437)
(0.094080454 0.00061074311 -0.0035396059)
(0.094963872 0.00042417354 -0.0008557516)
(0.094894416 0.00032832723 -0.00096697431)
(0.093094136 0.00044080631 0.0016120337)
(0.093148288 0.00053867386 0.0016971966)
(0.094178121 0.0004334199 0.0012369099)
(0.09422439 0.00043338088 0.0011344531)
(0.091695286 0.00039973837 0.001151151)
(0.09172037 0.00039936199 0.0011541154)
(0.094887038 0.000541377 -0.00096769685)
(0.094937776 0.00045083928 -0.0008529777)
(0.094016145 0.00060312218 -0.0034603681)
(0.094074956 0.00027459881 -0.0035389688)
(0.094187741 0.00041813805 0.0012345746)
(0.093159028 0.00029215149 0.0016991055)
(0.09312747 0.00039366979 0.0016101955)
(0.094253681 0.00042348293 0.0011344069)
(0.095617494 0.00027444753 0.0019616764)
(0.094467651 0.00032451244 0.0022250004)
(0.093837497 0.00030665461 0.002396609)
(0.093117783 0.00036007763 0.0025435637)
(0.092438668 0.00027003023 0.0019323645)
(0.0988654 0.00036372035 -0.0041049612)
(0.098350707 0.00031183225 -0.00016382619)
(0.096698346 0.00030657016 0.00091070344)
(0.092199815 2.0008103e-05 -0.0099170145)
(0.092333307 0.00057854202 -0.0097855201)
(0.092229024 0.00077965906 -0.009887903)
(0.092354092 0.00016584219 -0.0097726448)
(0.09218551 0.00088156646 -0.009912829)
(0.09130824 0.00028241163 -0.0050346221)
(0.092320027 0.0003182086 -0.0097829965)
(0.092224274 0.00011480761 -0.0098881722)
(0.092348447 0.00072885324 -0.0097712175)
(0.091441845 0.00071341728 -0.004916875)
(0.091429251 0.00051375337 -0.0049156354)
(0.09127902 0.00095326076 -0.0050284432)
(0.0907892 0.00065822919 -0.0019516112)
(0.090798658 0.00041411651 0.0021762386)
(0.090793075 0.00049400702 0.002176628)
(0.088673558 0.00042102192 0.0061672304)
(0.089930907 0.00054873294 0.0038940818)
(0.089850795 0.00024337923 0.0038822527)
(0.088635531 0.00038153744 0.006180742)
(0.087739678 0.00059815751 0.0039162427)
(0.088165138 0.00053272028 0.0036734219)
(0.087731842 0.00047220148 0.0037205001)
(0.08766156 0.00050583269 0.003986732)
(0.088624638 0.00052342613 0.0061802493)
(0.089839163 0.0006612794 0.0038815724)
(0.089926215 0.0003508124 0.0038946975)
(0.088669786 0.00047929207 0.0061674012)
(0.084290073 0.00068394581 0.0028960329)
(0.084169874 0.00041982706 0.0029024621)
(0.082422528 0.00080721745 -0.0017407523)
(0.082260464 0.00028062335 -0.0017499922)
(0.083332436 0.00059690496 0.0075006696)
(0.082912848 0.00060060183 0.0075309495)
(0.08139758 0.00070504352 0.0059525192)
(0.081472217 0.00037918538 0.0058790256)
(0.076166677 0.000835305 0.0023519016)
(0.076296612 0.00025240794 0.0023494424)
(0.075594057 0.00018745269 -0.0065406849)
(0.075421903 0.00092916617 -0.0065635968)
(0.082968405 0.00038949584 0.0075224573)
(0.083386768 0.000438014 0.0074838966)
(0.081427799 0.00027674395 0.005936405)
(0.081530125 0.00063433392 0.0058697472)
(0.076361506 0.00076518463 0.0023504378)
(0.07621357 0.00014810861 0.0023502185)
(0.075669541 0.00084407069 -0.006535643)
(0.075486858 5.6594505e-05 -0.0065510638)
(0.083343354 0.00030848544 0.0074943552)
(0.082917826 0.00030932663 0.0075364118)
(0.081405288 0.00020385849 0.0059537197)
(0.081478257 0.00052409562 0.0058777706)
(0.076217311 0.00075328101 0.0023493943)
(0.076365601 0.00013574405 0.0023509242)
(0.075672111 5.6691779e-05 -0.0065367242)
(0.075489567 0.00084352404 -0.0065518189)
(0.083386468 0.0004655707 0.007490537)
(0.082973903 0.00051259643 0.0075171327)
(0.081534479 0.00026712436 0.0058714159)
(0.08143057 0.00062466 0.0059355544)
(0.076302139 0.00065037467 0.0023477142)
(0.076172579 7.3189608e-05 0.0023513957)
(0.075601207 0.00071516055 -0.0065430775)
(0.075428913 -2.1910302e-05 -0.0065663089)
(0.087999932 0.0010024358 0.0016845228)
(0.08801476 0.00078415539 0.0016847088)
(0.086680468 0.001096806 -0.00021710215)
(0.086693151 0.00068711255 -0.00021990409)
(0.087644776 0.00075755645 0.0039854548)
(0.087717451 0.00079174614 0.0037161272)
(0.088152301 0.00072235724 0.0036798593)
(0.087732314 0.00065443467 0.003917073)
(0.084155683 0.00084276116 0.0029028071)
(0.084283183 0.00056789768 0.0028973643)
(0.082245722 0.00097948912 -0.0017478775)
(0.082413333 0.00044399521 -0.001738999)
(0.084154719 0.00034595345 -0.019429745)
(0.086326585 0.00044601504 -0.015475149)
(0.084250993 0.00045537982 -0.019325672)
(0.086696833 0.00043077213 -0.015365483)
(0.084181222 0.00026539084 -0.019353863)
(0.084120672 0.00041863846 -0.019470707)
(0.086267537 0.00034355634 -0.015496096)
(0.086645867 0.00033809259 -0.015414824)
(0.084144947 0.00040764358 -0.019454438)
(0.084210712 0.00054652159 -0.019339956)
(0.086303748 0.00048913713 -0.015481125)
(0.086671492 0.00048908253 -0.01540246)
(0.084269264 0.00034916475 -0.01931818)
(0.086728185 0.00039427604 -0.015365561)
(0.084187442 0.00043535165 -0.019422161)
(0.086350268 0.00035564268 -0.015463524)
(0.08402506 0.00043334508 -0.009946988)
(0.084106676 0.00048668146 -0.019462009)
(0.084168162 0.0006359208 -0.019349198)
(0.086260971 0.00056504996 -0.015483133)
(0.086626754 0.00056400788 -0.015415534)
(0.084127157 0.00055522694 -0.0098362077)
(0.087106059 0.00050452749 -0.0087069248)
(0.086692698 0.00049001252 -0.008790427)
(0.084239995 0.00044450413 -0.019319605)
(0.086691458 0.00046973037 -0.015356631)
(0.084144563 0.00055313885 -0.01942781)
(0.086308553 0.00045611703 -0.01548007)
(0.084181328 0.00046290818 -0.019417098)
(0.084263987 0.00054704433 -0.019317247)
(0.086717095 0.00050250259 -0.015369133)
(0.086351866 0.00054558996 -0.015453304)
(0.08420743 0.00034945775 -0.019337703)
(0.084142526 0.00048947999 -0.019456145)
(0.086293769 0.0004111532 -0.015488845)
(0.086673931 0.0004075916 -0.01539666)
(0.084065715 0.00070431362 -0.0099114585)
(0.084193674 0.00052384627 -0.0098134649)
(0.08675614 0.00066532844 -0.0087616089)
(0.087153126 0.00061234705 -0.0086696647)
(0.08418144 0.0007135725 -0.0098077323)
(0.084058396 0.00053282279 -0.0099134306)
(0.087150257 0.00062410301 -0.0086585904)
(0.086736057 0.00057438137 -0.0087724595)
(0.085821328 0.00063228384 -0.0045128295)
(0.087072111 0.00073482137 -0.0087095813)
(0.084103851 0.00068505435 -0.0098317235)
(0.083996585 0.00081550171 -0.0099347611)
(0.086675677 0.00076165285 -0.0087713087)
(0.088214436 0.00078051604 -0.0043810813)
(0.085940005 0.00086916636 -0.0044072306)
(0.0877817 0.00069767542 -0.0044917957)
(0.085917936 0.00085108096 -0.0044052722)
(0.088178392 0.00093305956 -0.0043844718)
(0.094211316 0.00055387914 0.0011338574)
(0.093079011 0.00051653674 0.0016084303)
(0.093102407 0.00042100702 0.0016984581)
(0.094137555 0.00055559984 0.0012329258)
(0.091663564 0.00051323352 0.0011536774)
(0.094033228 0.00043747844 -0.0035359037)
(0.093964804 0.00077783521 -0.0034578798)
(0.094834448 0.00069466166 -0.00096748355)
(0.094874492 0.00061456815 -0.00085091077)
(0.092201455 0.00066330848 -0.0011749424)
(0.092268487 0.00072129396 0.00052059268)
(0.094154387 0.00058596027 0.0011333603)
(0.093017684 0.00058144205 0.0016116578)
(0.094118871 0.00057718516 0.0012371937)
(0.093082713 0.00067240282 0.001695251)
(0.091620111 0.0005221021 0.0011481956)
(0.09404614 0.00076463383 -0.0035380239)
(0.094927468 0.00056133179 -0.00085598361)
(0.094850222 0.0004742815 -0.00096576275)
(0.094007691 0.00043092332 -0.0034589194)
(0.09886413 0.00038766239 -0.0041067529)
(0.098792581 0.00030675924 -0.0042069601)
(0.096465477 0.00069478919 -0.0077330386)
(0.09642523 0.00018974577 -0.0076766749)
(0.09880106 0.00046961372 -0.0042102006)
(0.098865988 0.00041426739 -0.004112871)
(0.096431917 0.00064268121 -0.0076625616)
(0.09647254 0.00014957396 -0.0077207479)
(0.096695565 0.00043380572 0.00090931722)
(0.09672773 0.00023023963 0.00099815246)
(0.098280796 0.00043731537 -5.6750855e-05)
(0.098348368 0.00043465641 -0.00016503761)
(0.098342373 0.00039193734 -0.00020608997)
(0.096700698 0.00055755904 0.00095107996)
(0.096649146 0.00035460275 0.00086495269)
(0.098285123 0.000437376 -9.463024e-05)
(0.093073372 0.00047776344 0.0025426541)
(0.093795639 0.00042786075 0.0023954024)
(0.093121027 0.00055003542 0.0026256053)
(0.093751145 0.0004312526 0.0024881561)
(0.092393133 0.00038188042 0.0019307333)
(0.093131038 0.00037092241 0.0026225884)
(0.09376699 0.00044131328 0.0024907115)
(0.093827312 0.00046197122 0.0024029635)
(0.093102296 0.00042276565 0.0025404253)
(0.092451147 0.00039837262 0.0018331312)
(0.094452189 0.00048001247 0.0022583945)
(0.094392407 0.00039123353 0.0021418376)
(0.095608352 0.00045959752 0.00189615)
(0.095564711 0.00050902478 0.0019992129)
(0.09438021 0.00058636641 0.00210526)
(0.094427852 0.0004489601 0.0022242468)
(0.095580642 0.00040219132 0.001960524)
(0.09562701 0.00045308486 0.0018546749)
(0.091551385 0.00040820986 0.0021049183)
(0.091512235 0.00047710054 0.0019914358)
(0.092462791 0.00041001593 0.0018326092)
(0.092430046 0.0004290257 0.0019327994)
(0.098272527 0.00043673241 -9.5615643e-05)
(0.096686708 0.0003084724 0.00095234168)
(0.098338611 0.00048230287 -0.00020695115)
(0.096644966 0.00051051445 0.00086375848)
(0.096706167 0.00063740693 0.00099686375)
(0.096664063 0.00043743236 0.00091043592)
(0.09831967 0.00044593191 -0.00016403933)
(0.098261108 0.00043851549 -5.5578638e-05)
(0.098775614 0.00057676046 -0.004206339)
(0.098837305 0.00050075595 -0.0041035165)
(0.096403645 0.00070548331 -0.0076743385)
(0.096450975 0.00019634941 -0.0077316915)
(0.096463152 0.00073957363 -0.0077196917)
(0.098788927 0.00041212716 -0.0042096986)
(0.09886356 0.00046769726 -0.0041149998)
(0.096429422 0.00024579563 -0.0076625499)
(0.09556875 0.00034697318 0.0019988101)
(0.094407935 0.00045541858 0.0021411787)
(0.094456421 0.00036641891 0.0022602477)
(0.095623162 0.00039755482 0.0018959238)
(0.093782342 0.0003946457 0.0024925269)
(0.093833028 0.00037451912 0.0024040724)
(0.093108449 0.00040207406 0.0025422443)
(0.093147873 0.00045419095 0.0026217369)
(0.093149782 0.00027619652 0.0026275407)
(0.093778677 0.00040600497 0.0024874021)
(0.093113111 0.00035119517 0.0025418695)
(0.093833192 0.00041329116 0.0023954025)
(0.094464574 0.00040280706 0.002222957)
(0.094405299 0.00026167687 0.0021063802)
(0.095650182 0.00040564976 0.00185502)
(0.095614805 0.00045968495 0.0019612548)
(0.095376842 0.00034558151 0.0028900246)
(0.096187572 0.00028938826 0.0026931515)
(0.095325264 0.00045398247 0.0027804723)
(0.096234174 0.0003121073 0.0025951964)
(0.094392808 0.00037639672 0.0030141551)
(0.094936417 0.00032035417 0.0028412694)
(0.094435454 0.00044136441 0.0031103014)
(0.094884198 0.00029580764 0.0029479542)
(0.093610305 0.00035585745 0.0030177326)
(0.094066107 0.00029715134 0.0028862405)
(0.093560104 0.00044151259 0.0029033628)
(0.094110177 0.00030735056 0.0027837633)
(0.093373041 0.00031011826 0.0029841541)
(0.093322568 0.00030480671 0.0030728787)
(0.092960938 0.00038655918 0.0029902808)
(0.092704296 0.00028252074 0.0024615243)
(0.09300726 0.00042083967 0.0030793529)
(0.093336396 0.00033906844 0.0030748826)
(0.092750748 0.00028436349 0.0023704044)
(0.093012635 0.00030087592 0.0030754077)
(0.092148822 0.00033401306 0.0025988795)
(0.092102569 0.00040265301 0.0024953538)
(0.1025015 0.00030976316 -0.0023387889)
(0.10350681 0.00038210597 -0.0045400371)
(0.10253925 0.00055573247 -0.0022390191)
(0.099462622 0.00028917413 0.0015893376)
(0.10128494 0.00027322797 0.00064535408)
(0.099399966 0.00054958193 0.0014528043)
(0.10132686 0.00033323547 0.00052509755)
(0.096867535 0.00034976037 0.002567398)
(0.098232997 0.00029226128 0.0023590913)
(0.096912854 0.0004958862 0.0026520794)
(0.098176992 0.00034532385 0.0024574127)
(0.093781091 -5.5768664e-05 -0.01655563)
(0.09390653 0.00062436857 -0.016411812)
(0.093812686 0.00079046077 -0.016522453)
(0.093928243 5.7934476e-05 -0.016402992)
(0.093799098 0.0008752235 -0.016548109)
(0.093923488 0.00017534812 -0.01640847)
(0.093943053 0.0007288281 -0.016395395)
(0.093822747 -2.0320586e-05 -0.016521286)
(0.093762922 0.00095761967 -0.016549474)
(0.093888791 0.00027400336 -0.016407245)
(0.092178833 0.00016679101 -0.0099134977)
(0.092310298 0.00073021258 -0.0097813136)
(0.093914478 0.0008386647 -0.01639918)
(0.093799265 0.00010556177 -0.016520238)
(0.093920049 0.00071750759 -0.016407743)
(0.09379604 1.8735144e-05 -0.016548954)
(0.093815213 0.00091527161 -0.016518107)
(0.09393579 0.0001643675 -0.016393839)
(0.092327636 0.00032206881 -0.0097679586)
(0.092200093 0.0009417431 -0.0098823393)
(0.092311881 0.00090204058 -0.0097644994)
(0.092190741 0.00028198194 -0.0098824344)
(0.092278642 0.00049704928 -0.0097756128)
(0.092140374 0.0010676004 -0.009904166)
(0.091259229 0.00047920429 -0.0050281953)
(0.091382654 0.00092667108 -0.0049079824)
(0.091355896 0.00074236883 -0.0049047916)
(0.0907835 0.00057398233 0.0021764731)
(0.090766006 0.00067815035 0.0021765253)
(0.092340064 0.00040824327 0.0021063491)
(0.0923257 0.00047778519 0.002106556)
(0.092235208 0.00042378468 0.0082789387)
(0.085365956 0.0006615576 0.0090985772)
(0.08544201 0.00021403284 0.0091130996)
(0.091892836 0.00056661963 0.0048114665)
(0.091878448 0.00024498339 0.0048130243)
(0.092229009 0.00039005712 0.0082821048)
(0.085427146 0.00057804367 0.0091185208)
(0.085346145 0.0001569236 0.0091081108)
(0.088651034 0.00058333432 0.0061663282)
(0.089906765 0.00071111004 0.0038936401)
(0.08983184 0.00039433394 0.0038826731)
(0.088618041 0.00053342809 0.0061802925)
(0.092210318 0.00050392547 0.0082811054)
(0.085332942 0.00074758733 0.0091060665)
(0.085415881 0.00032236875 0.009118542)
(0.091859767 0.00064894594 0.0048135179)
(0.091886971 0.00032271454 0.0048107054)
(0.092229014 0.00046597879 0.008278651)
(0.08543705 0.00068430737 0.0091119701)
(0.08536279 0.00023587818 0.0090995232)
(0.081413051 0.00079225651 0.0059349887)
(0.082956076 0.00068026952 0.0075156962)
(0.081518439 0.0004274389 0.0058714179)
(0.083368912 0.00062593733 0.0074910248)
(0.08333005 0.00046487615 0.0074930359)
(0.082904482 0.00045961849 0.0075369403)
(0.081464809 0.00068016275 0.0058773244)
(0.08139297 0.00035426233 0.0059537464)
(0.075473759 0.0010104559 -0.0065470124)
(0.076201922 0.00092069496 0.0023512428)
(0.076351329 0.00029598209 0.0023528459)
(0.075657254 0.00021667388 -0.0065322477)
(0.076161505 0.00022353111 0.0023530066)
(0.07558938 0.00087078527 -0.0065391637)
(0.076290243 0.00080621836 0.0023492405)
(0.075417788 0.00012803335 -0.0065626793)
(0.080272286 0.00053206889 0.011250999)
(0.080316256 0.00052042955 0.011234974)
(0.068257225 0.00093839057 0.0043982185)
(0.068370205 0.00017475155 0.0043097717)
(0.072663741 0.00061219781 0.010220882)
(0.072244307 0.00060494014 0.010257627)
(0.068437022 0.00088891138 0.0043034206)
(0.068298143 0.00010048727 0.0043773753)
(0.072306156 0.00044285667 0.010245356)
(0.072717331 0.00047413169 0.010203981)
(0.063233017 0.0012222704 -0.0043785558)
(0.0630268 -0.00022732116 -0.0043930495)
(0.068772571 0.00083130403 -0.018293356)
(0.068598453 0.00016075991 -0.01832785)
(0.062961623 0.0012678127 -0.0044017565)
(0.068540673 0.00088809931 -0.018360907)
(0.063149714 -0.00015585879 -0.0043856499)
(0.068695297 0.00026262749 -0.018305965)
(0.080298498 0.00044997867 0.011247636)
(0.080338439 0.00047745392 0.011231849)
(0.072333054 0.00057384608 0.010240246)
(0.068332616 0.0009136081 0.0043775883)
(0.072739647 0.00052061432 0.010210596)
(0.068457632 0.00010217391 0.0043015835)
(0.072696748 0.00037731484 0.010214046)
(0.072275002 0.00037675347 0.0102623)
(0.068404858 0.00081126457 0.0043084006)
(0.068287238 4.0179971e-05 0.0043950604)
(0.063066687 0.0012448377 -0.0043898497)
(0.063257168 -0.00023053514 -0.0043749789)
(0.068795923 0.00016643888 -0.018289802)
(0.068634932 0.00086241941 -0.01832606)
(0.062999302 -0.00028992837 -0.0043974102)
(0.068737734 0.00072823633 -0.018298688)
(0.068578981 8.9509554e-05 -0.018354198)
(0.063192319 0.0011427948 -0.0043798746)
(0.080284589 0.00037303296 0.011252581)
(0.080325293 0.00038101686 0.011235506)
(0.072278768 0.00052483235 0.010257971)
(0.072697072 0.00052396911 0.010219499)
(0.068290311 0.00085915842 0.0043951429)
(0.068407843 8.6467245e-05 0.0043079143)
(0.072746059 0.00038086308 0.010205322)
(0.072336 0.00032863339 0.010244974)
(0.068460688 0.00079591073 0.0043012439)
(0.068335472 -1.3223383e-05 0.0043767333)
(0.063259755 0.0011280948 -0.0043763305)
(0.068800767 0.0007307223 -0.018291343)
(0.063068797 -0.00034475847 -0.0043915354)
(0.068638903 3.6358016e-05 -0.018329449)
(0.063002341 0.0011887223 -0.0043977851)
(0.06858138 0.00080794461 -0.018354167)
(0.063194879 -0.00024563666 -0.0043806207)
(0.068739305 0.00016861298 -0.018300426)
(0.080343822 0.00042173748 0.011232782)
(0.080300734 0.000448328 0.011247485)
(0.072314814 0.00046046418 0.010241192)
(0.07272255 0.0004310346 0.010209837)
(0.068305993 0.00080088775 0.0043771279)
(0.068444707 1.266243e-05 0.0043026634)
(0.072675176 0.00029443659 0.010215929)
(0.072252149 0.00030486339 0.010262491)
(0.068377989 0.00072842702 0.004309142)
(0.068264936 -3.1051305e-05 0.0043970205)
(0.063034614 0.0011284913 -0.0043953)
(0.068606629 0.00073894817 -0.018331362)
(0.063240289 -0.00032129052 -0.0043810862)
(0.068779834 6.94549e-05 -0.018298744)
(0.063157029 0.0010585459 -0.0043887668)
(0.062968485 -0.00036109865 -0.0044052628)
(0.068705838 0.00063961448 -0.018311125)
(0.068550402 1.7442392e-05 -0.018367855)
(0.088099377 0.0009678638 0.0036790191)
(0.087657567 0.001066789 0.0037140462)
(0.087680796 0.00090107774 0.0039149522)
(0.087698746 0.00068076261 0.0037209781)
(0.088127718 0.00076307601 0.003672711)
(0.087701629 0.00082880738 0.0039143861)
(0.087628963 0.00071515006 0.0039856936)
(0.084236012 0.00081467554 0.0028995497)
(0.082367025 0.00069016098 -0.0017319024)
(0.084255789 0.00091431395 0.0028979865)
(0.084140284 0.00062910606 0.0029043467)
(0.082390034 0.0010369382 -0.0017355053)
(0.082232095 0.00048924326 -0.0017453516)
(0.08858797 0.00071040316 0.0061785442)
(0.089800271 0.00084817707 0.0038803762)
(0.089894965 0.00052348459 0.0038947798)
(0.088640528 0.00065321246 0.006166322)
(0.083302728 0.00078176274 0.0075005354)
(0.082882381 0.00079477889 0.0075287409)
(0.081367629 0.00089912622 0.0059515229)
(0.081444442 0.00056404847 0.0058787023)
(0.083362973 0.00061781568 0.0074818545)
(0.081506359 0.00081376752 0.0058688987)
(0.082945042 0.00056158142 0.0075224602)
(0.081405705 0.00044904348 0.0059361324)
(0.076139785 0.0010290313 0.0023544356)
(0.075394565 0.0011222236 -0.0065563754)
(0.076271399 0.00043714149 0.0023519663)
(0.075568161 0.00037180426 -0.0065339635)
(0.076193376 0.00032039082 0.0023523377)
(0.075648118 0.0010228623 -0.0065297007)
(0.07634 0.00094430023 0.0023524963)
(0.075466573 0.00022835838 -0.006545519)
(0.090311868 0.00077021094 -0.032446602)
(0.090354378 3.6288941e-05 -0.032536825)
(0.088295697 0.00041930038 -0.023904174)
(0.088620195 0.0004452796 -0.023823413)
(0.088661538 0.00036044083 -0.023797224)
(0.090350164 3.223606e-05 -0.032420634)
(0.090370809 0.00072404857 -0.032500664)
(0.088333432 0.00034787176 -0.023878718)
(0.090334604 0.00072500533 -0.032426429)
(0.090335855 1.210544e-05 -0.032509916)
(0.088303831 0.0004048943 -0.023894059)
(0.088633332 0.00041531428 -0.023790975)
(0.090330758 0.00073368333 -0.032549444)
(0.090281655 -7.5684546e-06 -0.032457586)
(0.088589803 0.00033223979 -0.023839856)
(0.088261493 0.00035800292 -0.023913049)
(0.090299731 0.00082697281 -0.032457779)
(0.090347244 9.1770996e-05 -0.032545166)
(0.088282591 0.0004704704 -0.023907581)
(0.088607656 0.00048899009 -0.023837999)
(0.090351095 9.0679805e-05 -0.032422987)
(0.090356772 0.0007963788 -0.032509867)
(0.088654106 0.00040460466 -0.023789514)
(0.088322015 0.00040961864 -0.023894342)
(0.09036629 0.00076844409 -0.032420641)
(0.090381462 8.0966186e-05 -0.032498475)
(0.088349406 0.00046253748 -0.023876472)
(0.088675384 0.00044471114 -0.023793676)
(0.090321579 2.5941049e-05 -0.032444681)
(0.090367588 0.00075068256 -0.032537042)
(0.088634574 0.00035705979 -0.023824934)
(0.088305367 0.00037275411 -0.023904378)
(0.084163057 0.00041491136 -0.019346193)
(0.084103132 0.00056554568 -0.019463962)
(0.08624851 0.00049079792 -0.015492149)
(0.086628377 0.00048750572 -0.015408645)
(0.090263902 0.00090873223 -0.032450364)
(0.090310588 0.00017039908 -0.032536753)
(0.088246143 0.00054856075 -0.023901738)
(0.088571305 0.00056954033 -0.023834162)
(0.090316382 0.00017542327 -0.032415482)
(0.090319912 0.00088756572 -0.032504542)
(0.088617889 0.00048541253 -0.023783312)
(0.088285226 0.00049709721 -0.023892089)
(0.084134378 0.00050060295 -0.019421053)
(0.084231364 0.00060665147 -0.019317984)
(0.086675913 0.0005819091 -0.015360461)
(0.086307292 0.00060094837 -0.015467759)
(0.090337226 0.00086495009 -0.032416201)
(0.0903555 0.00017510423 -0.032490554)
(0.088322735 0.00055337641 -0.02386949)
(0.088647611 0.00053714729 -0.023793728)
(0.090343311 0.00086098441 -0.032534364)
(0.090298412 0.0001267235 -0.032438595)
(0.088609158 0.00045199193 -0.023818106)
(0.088281662 0.00048044145 -0.023904401)
(0.090314361 0.00086906482 -0.032442826)
(0.090357981 0.00014630914 -0.032529657)
(0.088299872 0.00052658281 -0.023896878)
(0.088626024 0.00053839845 -0.023822985)
(0.090375989 0.00081400494 -0.032498573)
(0.090358516 0.00012621282 -0.032415177)
(0.088669675 0.00045024005 -0.023789927)
(0.088340526 0.0004346407 -0.023878399)
(0.090351912 9.8523859e-05 -0.032505294)
(0.088320944 0.00048746481 -0.023889079)
(0.088649838 0.00048983581 -0.023789913)
(0.090348487 0.00080335013 -0.032423907)
(0.090296608 6.7204622e-05 -0.032454993)
(0.090346423 0.00080364552 -0.032547737)
(0.088606343 0.00040567531 -0.023836456)
(0.088278201 0.00042749268 -0.02391158)
(0.084119109 0.00057314126 -0.019443712)
(0.084185784 0.00070813806 -0.019330391)
(0.086645067 0.00065053794 -0.01539589)
(0.08627889 0.00065496078 -0.01547208)
(0.084246087 0.00050875197 -0.019308714)
(0.084164984 0.00059187223 -0.019413739)
(0.08632611 0.00051243063 -0.015458271)
(0.086705631 0.00055367908 -0.015357886)
(0.084148632 0.00064007429 -0.019404172)
(0.084232295 0.00072001675 -0.019305604)
(0.086320155 0.0007229987 -0.015442436)
(0.086683695 0.00067523135 -0.015360977)
(0.086644865 0.00057816931 -0.015387395)
(0.084177815 0.00052024262 -0.019326179)
(0.084113819 0.00065703686 -0.01944573)
(0.086263191 0.00057903795 -0.015482091)
(0.084084788 0.00076186169 -0.0098241383)
(0.083985295 0.00063136774 -0.009936889)
(0.086649788 0.00068771064 -0.0087836044)
(0.08706398 0.00071036501 -0.0086966929)
(0.084203231 0.00062783864 -0.019305577)
(0.084108864 0.00073265817 -0.019415096)
(0.086655136 0.00065275336 -0.015345245)
(0.086270667 0.00063586188 -0.015471451)
(0.086221214 0.00075602977 -0.015469904)
(0.084066035 0.00067743146 -0.019446246)
(0.084128844 0.00082181076 -0.019334921)
(0.086585404 0.00074959506 -0.015405187)
(0.08670489 0.00088917913 -0.0087481828)
(0.084013782 0.00092847608 -0.0098962956)
(0.084144985 0.00073682869 -0.009800762)
(0.087101238 0.0008240811 -0.0086600496)
(0.084116541 0.00095623146 -0.009789409)
(0.087085208 0.00086539442 -0.0086428939)
(0.083997277 0.00076416089 -0.0098979142)
(0.086670734 0.00080487193 -0.0087608686)
(0.094421637 0.00052982017 0.0022212478)
(0.094358471 0.00039205741 0.0021053968)
(0.09560638 0.00053991435 0.0018537965)
(0.095574881 0.00059023092 0.001960317)
(0.09309803 0.00039874074 0.0026262791)
(0.093065083 0.00047104625 0.0025400219)
(0.09372973 0.00053238022 0.0024854207)
(0.093787821 0.00053682975 0.0023939424)
(0.092377693 0.00054455933 0.0019318514)
(0.093048385 0.00052981011 0.0025409902)
(0.093092083 0.00057889958 0.002619734)
(0.093775608 0.00050697098 0.0024023884)
(0.093729154 0.00052355463 0.0024913199)
(0.092402131 0.00053035786 0.0018306817)
(0.095516791 0.00048823552 0.0019972678)
(0.094357222 0.00058846097 0.0021394173)
(0.09440118 0.00050320584 0.0022591939)
(0.09557571 0.00053488273 0.0018948523)
(0.091535321 0.00048456053 0.0021005513)
(0.091460851 0.00041655164 0.0019927221)
(0.098817697 0.00062621664 -0.0041132653)
(0.098737888 0.00057619109 -0.0042067608)
(0.096389839 0.00040887271 -0.007658228)
(0.096419056 0.00090845869 -0.0077152894)
(0.098719941 0.000745329 -0.004203609)
(0.098775513 0.00067571124 -0.0040994841)
(0.093945756 0.00061627855 -0.0034535631)
(0.096402459 0.00037059145 -0.007726177)
(0.096349708 0.00088611972 -0.0076688114)
(0.096591417 0.00065967064 0.00086283762)
(0.096627963 0.00046244647 0.00095226629)
(0.098217766 0.00059574155 -9.5980856e-05)
(0.098288853 0.00063634609 -0.00020677362)
(0.09485309 0.00073357166 -0.000855054)
(0.09664246 0.00079508022 0.00099602149)
(0.098201291 0.0006017898 -5.464051e-05)
(0.096594401 0.0006004606 0.00091068423)
(0.098253911 0.00061514614 -0.00016359044)
(0.094761205 0.00065871551 -0.000962138)
(0.093970896 0.00096441615 -0.0035334084)
(0.094041085 0.00072381757 0.0012306142)
(0.092998889 0.00057350871 0.0016976729)
(0.092990323 0.0006624056 0.0016056723)
(0.094129469 0.00071329822 0.0011336052)
(0.091565508 0.0006417284 0.0011519574)
(0.095507944 0.00055932719 0.0019588241)
(0.094310261 0.00073300737 0.0021032295)
(0.094351786 0.00059995289 0.0022231398)
(0.095560392 0.00060558283 0.001853656)
(0.093678541 0.00057237027 0.0024867192)
(0.09371725 0.00057293603 0.0023932829)
(0.092992343 0.00061647317 0.0025409512)
(0.09304578 0.00068540518 0.0026229355)
(0.092312542 0.00051102063 0.0019277968)