/*--------------------------------*- C++ -*----------------------------------*\
  =========                 |
  \\      /  F ield         | OpenFOAM: The Open Source CFD Toolbox
   \\    /   O peration     | Website:  https://openfoam.org
    \\  /    A nd           | Version:  7
     \\/     M anipulation  |
\*---------------------------------------------------------------------------*/
FoamFile
{
    version     2.0;
    format      ascii;
    class       volScalarField;
    location    "2000";
    object      k;
}
// * * * * * * * * * * * * * * * * * * * * * * * * * * * * * * * * * * * * * //

dimensions      [0 2 -2 0 0 0 0];

internalField   nonuniform List<scalar> 
33730
(
1.5306596
1.522724
1.5231248
1.5211216
1.5215468
1.5223214
1.5413209
1.5225529
1.5418095
1.5251151
1.5248696
1.5206241
1.5208334
1.5251994
1.5210595
1.52118
1.5250947
1.52113
1.5228369
1.5212434
1.5207794
1.5215886
1.5225816
1.5206475
1.5204287
1.5209712
1.5208185
1.5230796
1.5220069
1.5218051
1.5226744
1.5246973
1.5252326
1.5655243
1.5665526
1.5229848
1.5221875
1.5221849
1.5231653
1.5251579
1.5252827
1.5676064
1.5663139
1.5294736
1.5211188
1.5295086
1.5211333
1.5294536
1.5295318
1.5209776
1.5208433
1.5212692
1.5298112
1.5212388
1.5294427
1.5291059
1.5294319
1.5213482
1.5213287
1.5206689
1.520533
1.5217953
1.5217832
1.52216
1.5205234
1.5203691
1.521167
1.5221091
1.5204413
1.5203867
1.5201963
1.5206223
1.5208856
1.5203304
1.5206139
1.5202098
1.5200885
1.5202437
1.520367
1.5205345
1.5206897
1.5208023
1.5209388
1.5226468
1.5221817
1.5221836
1.5210594
1.5210835
1.5209477
1.5208095
1.5212412
1.5212837
1.5211936
1.5211649
1.5217884
1.5214635
1.5232072
1.5221964
1.5219417
1.5227907
1.5233083
1.5268848
1.5230826
1.5265049
1.5236478
1.5236629
1.5272592
1.5273381
1.5497264
1.5492182
1.5970943
1.5962315
1.5502739
1.5505213
1.5970888
1.5980609
1.5231073
1.522316
1.522337
1.523285
1.5236365
1.5235174
1.5273249
1.5275132
1.5237141
1.5237329
1.5272434
1.5274319
1.5512122
1.5513121
1.5989978
1.5988627
1.5506368
1.5499228
1.5972825
1.596217
1.5226861
1.5374009
1.5370139
1.522614
1.5372519
1.5373923
1.5226998
1.5226548
1.5373155
1.5382419
1.5224178
1.5225258
1.5377671
1.5371942
1.5225679
1.5225508
1.5378857
1.5374868
1.5227861
1.5227564
1.5366712
1.5373177
1.5226702
1.5226867
1.5368681
1.5226869
1.5226153
1.535922
1.5369484
1.5369817
1.5227415
1.5226884
1.5207754
1.5207008
1.5208156
1.5207534
1.5216353
1.5216648
1.5207142
1.5206395
1.5205881
1.5206793
1.5205155
1.521615
1.5216366
1.5216313
1.5216481
1.5216314
1.5216555
1.5216386
1.5218227
1.5216786
1.5219171
1.5218024
1.5206465
1.5206304
1.5206747
1.5206884
1.5205763
1.5205374
1.5205213
1.5205616
1.5203632
1.5201769
1.520343
1.5218545
1.521969
1.5218455
1.5219531
1.5206573
1.5207102
1.5205674
1.5207736
1.5206865
1.5206747
1.5206507
1.5207065
1.5204537
1.520564
1.5204228
1.5205779
1.5208086
1.5208326
1.5209116
1.5208913
1.5205729
1.5203759
1.5196962
1.5198646
1.5200628
1.5199262
1.5200937
1.5202282
1.5199289
1.5198574
1.5199786
1.5200505
1.5201742
1.5200901
1.5202466
1.5203276
1.5203266
1.5203577
1.5204827
1.5204612
1.52027
1.5203625
1.52024
1.5203867
1.5204289
1.5204861
1.5204677
1.5204473
1.5205381
1.5205593
1.5205744
1.5205942
1.5208048
1.5207479
1.5207893
1.5207635
1.5208196
1.5208716
1.520925
1.5208834
1.5209069
1.5210035
1.5209278
1.5210243
1.5210355
1.5209815
1.521087
1.5211297
1.5222208
1.5221814
1.5219026
1.5219163
1.5220381
1.5220139
1.5220079
1.5219694
1.5221308
1.5220899
1.5227556
1.5226746
1.5227886
1.5227182
1.5226489
1.5226481
1.5225301
1.5226465
1.5227301
1.5227853
1.5227334
1.5226615
1.5228167
1.5228356
1.5227446
1.5227201
1.5217427
1.5214628
1.5232973
1.5237403
1.5237522
1.5221844
1.5219464
1.5228764
1.5231462
1.5234253
1.5270725
1.5266886
1.5274235
1.527526
1.542065
1.542814
1.5707279
1.5690092
1.5415752
1.5424634
1.5705469
1.5683882
1.6116248
1.6121221
1.6038611
1.6062042
1.6063056
1.6124191
1.6034438
1.609956
1.5428149
1.5430791
1.5707209
1.5699626
1.5432466
1.5432171
1.5711442
1.5707161
1.6107051
1.6123763
1.6043269
1.6057007
1.6139743
1.6129307
1.6064517
1.6057441
1.5232087
1.5236158
1.5237535
1.5223062
1.5223327
1.5233748
1.5238262
1.5237994
1.5275348
1.5277123
1.5274188
1.5276167
1.5434388
1.544037
1.5726129
1.5710918
1.5440799
1.5435592
1.5726412
1.5712769
1.6057848
1.6121311
1.6155791
1.6083434
1.6147241
1.6120659
1.6082571
1.6063492
1.5430372
1.543561
1.5702959
1.5714625
1.542723
1.5426682
1.5701837
1.5696089
1.6048559
1.6114595
1.610428
1.6061998
1.6107447
1.6107113
1.6047924
1.6038656
1.5542024
1.5520384
1.5252767
1.525387
1.5517872
1.5527081
1.5251832
1.5250845
1.5539142
1.5517969
1.5252202
1.5252795
1.5524597
1.5534818
1.5254276
1.5252979
1.5556381
1.5514346
1.524957
1.5253364
1.5549249
1.5556691
1.5253535
1.5252581
1.5546335
1.55374
1.5252023
1.5252548
1.5523703
1.5534035
1.5251701
1.5250884
1.5549632
1.5532768
1.5253487
1.5254293
1.5525474
1.5538475
1.5253944
1.5252422
1.5523315
1.5507243
1.5250649
1.5251264
1.5529428
1.5531384
1.5252085
1.5251576
1.5524385
1.5515873
1.5251126
1.5250684
1.5488561
1.5513601
1.5249099
1.5247136
1.5525264
1.5513774
1.5252265
1.5251657
1.5522324
1.5520892
1.5251509
1.5250852
1.5197652
1.5212159
1.5211938
1.5211997
1.5211766
1.5212087
1.5211874
1.5212074
1.521184
1.5212717
1.5212641
1.5212442
1.521238
1.5212643
1.5212535
1.5212612
1.521248
1.521766
1.5216152
1.5215995
1.5216322
1.5215764
1.521668
1.5217072
1.5216499
1.5215156
1.5215668
1.5211516
1.5211465
1.5211421
1.5211305
1.5211421
1.5211341
1.5211433
1.5211324
1.5210395
1.5210411
1.5209534
1.5209598
1.5205356
1.5210575
1.521059
1.5209975
1.5209748
1.520626
1.5204791
1.5205847
1.5215003
1.5214856
1.5215232
1.5214582
1.5215396
1.521575
1.5215542
1.5215133
1.5214143
1.5213579
1.521421
1.5213502
1.5214347
1.5214923
1.5214263
1.5214846
1.5214198
1.5214018
1.5214708
1.5214486
1.5213473
1.5213417
1.5212707
1.5212662
1.5213976
1.5216551
1.5216811
1.5216385
1.5216951
1.521259
1.5217272
1.5217275
1.5217428
1.5217415
1.5216882
1.5216453
1.5216549
1.521695
1.5212018
1.5212111
1.5211746
1.5211822
1.5211873
1.5211603
1.5211905
1.5211618
1.5212401
1.5212218
1.5212439
1.5212244
1.5212559
1.521238
1.5212639
1.5212445
1.5211385
1.5211226
1.5211488
1.5211312
1.5210309
1.5210406
1.5209581
1.5209458
1.5204754
1.5210152
1.5210174
1.5209326
1.5209281
1.5204614
1.5211228
1.5211088
1.5211262
1.52111
1.5204137
1.5204281
1.5203398
1.5203259
1.5203562
1.5203688
1.5203913
1.5204298
1.5205325
1.5205086
1.5216732
1.5216671
1.5217149
1.5217176
1.5217509
1.5217482
1.5217572
1.521759
1.5216958
1.5216506
1.5216636
1.5217053
1.5217479
1.5217326
1.5217334
1.5217487
1.5183844
1.5185995
1.5182304
1.5183446
1.5188534
1.5189041
1.5189958
1.5220322
1.5221497
1.5220289
1.5221206
1.5217416
1.5217821
1.5217876
1.5218143
1.5216052
1.5216528
1.521726
1.5217534
1.5221435
1.5221401
1.5221686
1.5221486
1.5215022
1.5215567
1.5214778
1.5215242
1.5212806
1.5213156
1.5213027
1.5213374
1.5212773
1.5213005
1.5212655
1.5212831
1.5214913
1.5215432
1.5215339
1.5215833
1.521255
1.5213737
1.5213086
1.5214122
1.5211893
1.5212092
1.5212313
1.5212466
1.5210288
1.521053
1.5211443
1.5211556
1.5214022
1.5214474
1.5214454
1.5214829
1.5218388
1.521797
1.5218899
1.5218411
1.5218169
1.5218674
1.5218666
1.5219105
1.522214
1.5222211
1.5222805
1.5222652
1.5222451
1.522184
1.5222492
1.522183
1.5200848
1.520214
1.5199771
1.5200857
1.5198586
1.5199572
1.5198458
1.5197821
1.5198441
1.5200384
1.5202532
1.5202382
1.5202672
1.5202808
1.5201036
1.5200812
1.5202056
1.520188
1.5202669
1.5201515
1.5201875
1.5202967
1.5203406
1.5203248
1.5203667
1.5203821
1.5201003
1.5199892
1.5200283
1.5201303
1.5199437
1.5199116
1.520018
1.5200505
1.5200738
1.5200621
1.5200997
1.5201125
1.5201461
1.5201849
1.5201607
1.5201986
1.5202489
1.5202359
1.5202754
1.520288
1.5201605
1.5201945
1.5201697
1.5202051
1.5203523
1.5202385
1.5202735
1.5203873
1.5204313
1.5203072
1.5203499
1.5204621
1.5208834
1.5208529
1.5209987
1.5209568
1.5209297
1.5209087
1.521046
1.5210117
1.5211341
1.5210942
1.5210675
1.5211035
1.521082
1.5210422
1.5210115
1.5210472
1.5208267
1.5208086
1.5209393
1.5209113
1.5208158
1.5207787
1.5208678
1.5209041
1.5207239
1.5208215
1.5207351
1.5206367
1.5209788
1.5209613
1.5210187
1.5209977
1.5208572
1.5208676
1.5209559
1.5209479
1.5210683
1.5210974
1.5210537
1.5210799
1.5210662
1.5210505
1.5210602
1.5210443
1.520956
1.5209839
1.5208917
1.5208612
1.5211295
1.5210999
1.5211247
1.5210937
1.5211332
1.5211044
1.5211615
1.5211307
1.521174
1.5211799
1.5211574
1.5211484
1.5211842
1.5211622
1.5212142
1.5211911
1.5215849
1.5215904
1.5216411
1.5216427
1.5213367
1.5213598
1.5213419
1.5213648
1.5215553
1.5215435
1.5215913
1.5216038
1.5213565
1.5213827
1.5213635
1.5213883
1.5213649
1.5213929
1.5213589
1.5213852
1.521573
1.5216292
1.5215662
1.5216195
1.5215781
1.5216316
1.5215388
1.5215898
1.5213694
1.5213385
1.521369
1.5213997
1.5218522
1.5218757
1.5219195
1.5218998
1.5222316
1.5222446
1.5222581
1.5222604
1.52192
1.5219712
1.5219216
1.5219684
1.5223215
1.5223333
1.5223156
1.5223202
1.521878
1.521929
1.5218876
1.52194
1.5218757
1.5219227
1.5223078
1.5222675
1.5222467
1.5222611
1.5222771
1.52224
1.5222264
1.5220828
1.5221548
1.5220416
1.5221162
1.5220416
1.5216925
1.5216836
1.5217412
1.5217394
1.5217132
1.5217179
1.5217726
1.5217848
1.5218123
1.5218058
1.5218019
1.5218086
1.5217739
1.5217683
1.521777
1.5217815
1.5218428
1.5218019
1.5218883
1.5219329
1.521749
1.5217579
1.5218394
1.5218216
1.5219603
1.5219143
1.5219197
1.5219621
1.5218457
1.5218604
1.5218656
1.5218541
1.521875
1.5219332
1.5219825
1.5252502
1.5253985
1.5251529
1.5250417
1.5252655
1.5254227
1.5252708
1.5251966
1.5252575
1.5251739
1.5251533
1.525054
1.5249409
1.5253842
1.5253496
1.5252395
1.5250412
1.5251181
1.5251356
1.525195
1.5250842
1.5250438
1.5248773
1.5246447
1.5251937
1.5253736
1.5254128
1.52531
1.5251224
1.5251823
1.5251193
1.5250271
1.5227617
1.5216518
1.5225275
1.5224769
1.5214058
1.5221155
1.5224049
1.5233774
1.5236604
1.5236692
1.5237121
1.5237041
1.5229581
1.5230893
1.5233382
1.5231062
1.5234206
1.5246191
1.524606
1.5304062
1.5307536
1.5498658
1.5486113
1.52418
1.5243363
1.5496908
1.5304913
1.5298852
1.5480952
1.5249036
1.5249251
1.5309815
1.5309491
1.5500191
1.5495562
1.5249776
1.5249473
1.5312009
1.5312076
1.550331
1.5501419
1.5679185
1.5908133
1.5903791
1.5678121
1.5661079
1.5657479
1.5875134
1.5884036
1.5677763
1.5678522
1.5909117
1.5904018
1.5885838
1.565769
1.5866686
1.5650521
1.6103867
1.6452776
1.6476786
1.6123391
1.6112236
1.6482391
1.6486211
1.611818
1.6080933
1.6068552
1.6316396
1.6297883
1.6100611
1.610657
1.6338328
1.6343715
1.6102224
1.6109657
1.6338789
1.6350093
1.6118418
1.6476272
1.6496701
1.6135332
1.632955
1.6084319
1.6057979
1.6290059
1.6435715
1.6475199
1.6116426
1.6078873
1.5679426
1.5906783
1.5896852
1.5676146
1.5672791
1.5667129
1.5883147
1.5897106
1.5687125
1.5679317
1.5900602
1.5916771
1.5676935
1.5681944
1.5911117
1.5896948
1.6084023
1.6442539
1.6476112
1.6113474
1.6122472
1.6482716
1.6476987
1.6121425
1.6093332
1.6073963
1.6322028
1.6295353
1.608974
1.6103538
1.6319415
1.6334126
1.6128228
1.6477831
1.6512619
1.615967
1.6138665
1.6494832
1.6476084
1.611948
1.6115422
1.6094456
1.6351271
1.632376
1.6090811
1.6109374
1.6321765
1.6345183
1.5222776
1.5223913
1.5218583
1.5232981
1.5236652
1.5235555
1.5236049
1.5237355
1.5234534
1.5237205
1.5237438
1.5237863
1.5237605
1.5249391
1.5248713
1.5315596
1.5312588
1.5504595
1.5514806
1.5250507
1.5250385
1.5316705
1.5314468
1.5515772
1.5505974
1.5249563
1.5249252
1.5309307
1.5309426
1.5496663
1.5493958
1.5250447
1.5250374
1.5311672
1.531419
1.5498542
1.5507483
1.5699854
1.5930981
1.5696035
1.5920859
1.5683928
1.567943
1.5896915
1.5911377
1.5699117
1.5698318
1.5924153
1.5929682
1.5920932
1.5688955
1.5680332
1.5898307
1.6087526
1.6108923
1.6334518
1.6305004
1.6502617
1.6450054
1.6085877
1.6160693
1.6516393
1.6525221
1.6168822
1.6163759
1.6117432
1.6129293
1.6344959
1.6356476
1.6520069
1.6507679
1.6145861
1.6157092
1.6467915
1.6499358
1.61289
1.6106511
1.6128711
1.6119708
1.6357677
1.6344194
1.6090415
1.6118532
1.6314134
1.6347215
1.5674954
1.5671739
1.5888129
1.589805
1.591888
1.5689449
1.5685428
1.5906723
1.5892036
1.5671783
1.5900704
1.5674711
1.5671002
1.5666327
1.5895942
1.5881242
1.6092955
1.6078365
1.6299401
1.6318603
1.6472641
1.6447009
1.609476
1.6127305
1.609973
1.647482
1.6462522
1.6084101
1.6100171
1.6114029
1.6325511
1.6339947
1.6083123
1.6446327
1.6476599
1.6121808
1.611283
1.6465483
1.6449639
1.6100553
1.6095337
1.608289
1.6322195
1.6305243
1.6071303
1.6090896
1.6293597
1.6317073
1.5234871
1.5529247
1.5507455
1.5504404
1.5512647
1.5525895
1.5505029
1.5512006
1.5521509
1.5545254
1.5503647
1.5536569
1.5543597
1.5533316
1.5524166
1.5511069
1.5520609
1.5535622
1.5519163
1.5512409
1.5524431
1.551079
1.549453
1.5516274
1.5517865
1.551137
1.550279
1.5500997
1.5511952
1.5500836
1.550899
1.5506816
1.521775
1.5217045
1.5216882
1.5217575
1.5216363
1.5216588
1.5216022
1.5215818
1.5216812
1.5217536
1.5216978
1.5217348
1.5216234
1.5215805
1.521647
1.5216024
1.5217239
1.5218095
1.5217342
1.5217997
1.5217839
1.5217235
1.5217131
1.5217722
1.5217297
1.5218004
1.5217249
1.5218031
1.5217741
1.5217128
1.5217788
1.5217174
1.5217659
1.5217452
1.5217314
1.5217473
1.521838
1.5218289
1.5218439
1.5218153
1.5216654
1.52164
1.5216527
1.5216286
1.5217455
1.5217157
1.5217107
1.5217446
1.5217635
1.521793
1.5217704
1.5217819
1.5218645
1.5218718
1.5218651
1.5218491
1.5217873
1.5217644
1.5217818
1.5217585
1.5218507
1.5218589
1.5218659
1.5218501
1.5222089
1.5216968
1.5217111
1.5217946
1.5216117
1.5219003
1.5220305
1.5217993
1.5215045
1.5215885
1.5216971
1.5219696
1.5219587
1.521829
1.5218165
1.521838
1.5217398
1.5217241
1.521851
1.5218159
1.5217926
1.5216797
1.5217005
1.5217207
1.5216977
1.521627
1.5216066
1.5218662
1.5220232
1.5218732
1.5220175
1.5218946
1.5217744
1.5217656
1.5218877
1.521867
1.5220141
1.5218647
1.5220141
1.521886
1.5217654
1.5218888
1.5217681
1.5221967
1.5221954
1.522012
1.5220052
1.5220025
1.5220018
1.5221873
1.5221861
1.5221881
1.5208865
1.5221786
1.5208926
1.5208999
1.520906
1.5221306
1.5221265
1.5219567
1.5219465
1.5218019
1.5217831
1.5219448
1.5219301
1.521932
1.5209433
1.5221206
1.5209164
1.5209261
1.5209609
1.520845
1.5208594
1.5208637
1.520849
1.5209162
1.5208925
1.5208792
1.5209363
1.5214627
1.5215115
1.5215453
1.5214341
1.5215877
1.5216398
1.5215466
1.5214977
1.5213181
1.5213471
1.5212978
1.5213852
1.5214343
1.5214602
1.5214005
1.5214827
1.5214135
1.5212943
1.5212775
1.5212759
1.5212625
1.5214795
1.5214483
1.5213825
1.5213571
1.5213604
1.5212432
1.5213689
1.5212508
1.5212394
1.5212554
1.5212552
1.5212327
1.5212184
1.5212123
1.5211906
1.5212008
1.5212062
1.5212283
1.521344
1.5213557
1.5212353
1.5217546
1.5218464
1.5217645
1.5218366
1.5218402
1.5218366
1.5217567
1.52176
1.5218186
1.5217523
1.5218059
1.5217373
1.521811
1.5217464
1.5217451
1.5218086
1.5218253
1.5217431
1.5218237
1.5217391
1.5217892
1.5217206
1.5217934
1.5217265
1.5217572
1.5218313
1.5217477
1.5218392
1.5217993
1.5217311
1.5217438
1.521809
1.5217967
1.5217695
1.5217679
1.5217909
1.5218721
1.5218524
1.5218589
1.5218717
1.5218036
1.5218182
1.5217762
1.5217911
1.5218818
1.5218999
1.5218618
1.5218801
1.521788
1.5218278
1.5218021
1.5218097
1.5219023
1.5219123
1.5218952
1.5218757
1.5217974
1.5218201
1.5217949
1.5218173
1.5218927
1.5219025
1.5219042
1.5218862
1.5220735
1.5220704
1.521913
1.5219085
1.5219323
1.5218079
1.5217999
1.5219365
1.5220609
1.5220623
1.5219075
1.5219039
1.5219268
1.5219307
1.5217993
1.5218034
1.5222592
1.5222585
1.5220611
1.5220563
1.5220482
1.5220486
1.5222423
1.5222413
1.5222336
1.5208854
1.5222505
1.5208758
1.5208974
1.5209039
1.5222481
1.5222484
1.5220492
1.522046
1.5220564
1.5220586
1.5222599
1.52226
1.5222516
1.5208607
1.5222404
1.5208566
1.5208775
1.520881
1.5218969
1.5220595
1.5218984
1.5220585
1.5219196
1.5217901
1.5217883
1.5219194
1.5219109
1.522068
1.521904
1.522072
1.5219265
1.5217945
1.5219344
1.5218022
1.520819
1.5208385
1.5208401
1.5208198
1.5208386
1.520857
1.5208595
1.5208423
1.520762
1.5207696
1.5207571
1.5207523
1.5207506
1.5207406
1.5207311
1.520737
1.5207766
1.5207935
1.5207995
1.520778
1.5208146
1.5208182
1.5207967
1.5207966
1.5207721
1.5207673
1.5207585
1.5207623
1.5208026
1.5208146
1.5208197
1.5208059
1.5208451
1.5208568
1.5208895
1.5209092
1.5208048
1.5208053
1.5208705
1.5208587
1.5213183
1.521314
1.5212207
1.5212179
1.5211891
1.5211961
1.5211926
1.5211851
1.5212186
1.5213249
1.5213335
1.5212222
1.5211958
1.5211927
1.5211845
1.5211865
1.5181921
1.5180768
1.5179887
1.5180835
1.518584
1.5184077
1.5184571
1.5186294
1.5183345
1.5185803
1.51851
1.5187713
1.5187086
1.5182228
1.5182775
1.5181241
1.5181714
1.5183185
1.5182052
1.5182522
1.5183741
1.518356
1.5182969
1.5185052
1.5184431
1.5190943
1.5189975
1.519221
1.5194856
1.5193802
1.5191081
1.5193313
1.5193433
1.5196244
1.5196092
1.5194242
1.5194203
1.5197154
1.5196803
1.5197821
1.5197466
1.5198719
1.5198658
1.5237431
1.5237314
1.524028
1.5240522
1.5240163
1.5240267
1.5239892
1.5239749
1.5245009
1.524222
1.5241629
1.5245601
1.5244839
1.5244
1.5245053
1.5244482
1.5231393
1.5231465
1.5231367
1.5231064
1.523185
1.5231608
1.5231607
1.5231788
1.523474
1.5235278
1.5234697
1.5235077
1.5235469
1.5234756
1.5235322
1.5234654
1.5231963
1.522931
1.5229466
1.5231836
1.5233186
1.5232736
1.523544
1.5236005
1.5232275
1.5232179
1.5232152
1.5232035
1.523611
1.5235345
1.5236141
1.5235303
1.5238985
1.5238768
1.5239026
1.5238975
1.5243706
1.5243267
1.5243837
1.5243944
1.5238851
1.5238941
1.5238581
1.5238633
1.5243441
1.5243463
1.5242991
1.5242705
1.5226071
1.5225159
1.5225714
1.5225354
1.522882
1.5228628
1.522922
1.5229254
1.5224742
1.5225238
1.5224439
1.5224982
1.522803
1.5227863
1.5228269
1.522813
1.5219596
1.5219795
1.5219935
1.5219621
1.5220101
1.5220082
1.5220328
1.5220355
1.5222373
1.5221784
1.5222054
1.5221963
1.5222425
1.5222733
1.5222416
1.5222724
1.521995
1.5219679
1.521993
1.5219623
1.5221984
1.5222302
1.5222443
1.5222001
1.5219719
1.5219256
1.5219458
1.5219412
1.5221406
1.5221687
1.5221692
1.5221954
1.5224615
1.522512
1.5225702
1.5225015
1.5228205
1.5228818
1.522811
1.5228589
1.5225418
1.5225394
1.522596
1.5225907
1.5229219
1.5228982
1.5228911
1.5229112
1.5222439
1.5224294
1.5224744
1.5222983
1.5224796
1.5225256
1.5224842
1.5225313
1.5226019
1.5225806
1.5227977
1.5228154
1.5228647
1.5228518
1.522834
1.5228252
1.5219031
1.5219002
1.5219194
1.5218735
1.5221285
1.5221522
1.5221435
1.5221066
1.5219292
1.5219623
1.521949
1.5219823
1.5221565
1.5221959
1.5221795
1.5222176
1.5218315
1.5216967
1.5217232
1.5218527
1.5220852
1.5219278
1.5219602
1.5221107
1.5219298
1.5218883
1.52191
1.5218971
1.5221743
1.5221313
1.5221501
1.5221732
1.5224712
1.5224178
1.5224632
1.522406
1.5227758
1.5227693
1.5227787
1.5227519
1.5224888
1.5225307
1.5224435
1.5224892
1.5228009
1.5227953
1.5228393
1.5228216
1.523185
1.5231987
1.5232781
1.5232507
1.5231046
1.5231299
1.5231173
1.5231343
1.5236156
1.5235704
1.5235219
1.523654
1.5234915
1.5234342
1.5234801
1.5234288
1.5231367
1.5231483
1.523208
1.5231783
1.5235414
1.5235129
1.5234649
1.5235747
1.5232524
1.5232532
1.5232561
1.5232151
1.5236306
1.5235674
1.5235927
1.5236214
1.5238771
1.5238627
1.5239601
1.5239587
1.5243544
1.5244448
1.5243388
1.5243985
1.5245045
1.5244992
1.5245232
1.5244482
1.5239891
1.5240165
1.5239613
1.5239841
1.5239413
1.5239284
1.5240392
1.5240416
1.5238376
1.5238205
1.5238379
1.523816
1.5244184
1.5245187
1.5244121
1.5245325
1.5242825
1.5242967
1.5242821
1.5242387
1.5201348
1.5201449
1.5201507
1.5201454
1.5202177
1.5203119
1.5202894
1.5202141
1.520187
1.5202919
1.5198781
1.5199724
1.5198943
1.5199535
1.5200272
1.5200363
1.5200262
1.5200329
1.5200576
1.5199754
1.5234737
1.5233553
1.5206923
1.5206762
1.5206811
1.5206644
1.5206791
1.5206672
1.5206586
1.5206644
1.5207268
1.5207222
1.5207045
1.5207032
1.5207066
1.5207253
1.520744
1.5207246
1.5205066
1.5205339
1.5206258
1.5205912
1.5204752
1.5204908
1.5205802
1.5205581
1.5206345
1.520661
1.5206871
1.5206602
1.520597
1.5206101
1.520635
1.5206203
1.520722
1.5206916
1.5206979
1.520667
1.5206535
1.5205585
1.5205324
1.5206212
1.5206825
1.5205845
1.5205659
1.5206551
1.5207046
1.5207234
1.5207582
1.5207369
1.5207855
1.5207648
1.5207438
1.5207659
1.5207618
1.5207652
1.5207463
1.5207401
1.5207908
1.5208056
1.5207986
1.5207813
1.5208263
1.520801
1.5207858
1.5208125
1.5205318
1.5205266
1.5205083
1.5205078
1.5204867
1.5203898
1.5203854
1.5204752
1.5204321
1.5204441
1.5205407
1.5205154
1.5205682
1.5205519
1.5205711
1.5205867
1.5203266
1.5203208
1.5204293
1.5204226
1.5202384
1.5201761
1.5202842
1.5203461
1.5203237
1.5203142
1.52037
1.520388
1.5204498
1.5204442
1.5204677
1.5204716
1.5203846
1.520372
1.5204499
1.5204296
1.5203605
1.5203573
1.520413
1.5204231
1.5205044
1.5204862
1.5204934
1.5205106
1.5205064
1.5205142
1.5205354
1.5205325
1.5205722
1.5205527
1.5205531
1.5205678
1.5206137
1.5206051
1.5206165
1.5206292
1.5205723
1.5205742
1.5205961
1.5205873
1.5206455
1.5206314
1.5206181
1.5206316
1.5206575
1.5206612
1.5206557
1.5206621
1.5206498
1.5206443
1.5206392
1.520645
1.5207068
1.5206953
1.5206817
1.5206903
1.5207094
1.5207209
1.520714
1.5207021
1.5204528
1.5204518
1.5205111
1.5205103
1.520585
1.5205888
1.520591
1.5205889
1.5205135
1.5204537
1.5204597
1.5205183
1.5205937
1.5205918
1.5206033
1.5206007
1.5206374
1.5205562
1.5206897
1.520605
1.5205054
1.5205001
1.520552
1.5205566
1.5206268
1.5206183
1.5206227
1.5206294
1.5206739
1.5206658
1.5207602
1.520759
1.5208071
1.5207189
1.5207193
1.5207953
1.5206818
1.5206722
1.520668
1.5206754
1.5207122
1.520719
1.5207282
1.5207175
1.5208401
1.5207633
1.5207595
1.5208241
1.5215228
1.5214365
1.5215886
1.5215009
1.5215609
1.5214829
1.5214145
1.5214897
1.5216906
1.5217048
1.5215993
1.5216122
1.5215818
1.5216662
1.5215893
1.521654
1.5214829
1.5215732
1.5215438
1.5214558
1.5215587
1.5215411
1.5216515
1.5216646
1.5216397
1.52166
1.5216286
1.5216663
1.521743
1.5217532
1.5217182
1.5217278
1.5217093
1.521717
1.5217347
1.5216867
1.5216787
1.5216719
1.5216483
1.5216394
1.5217396
1.5217441
1.5217184
1.5217558
1.5217943
1.5218202
1.5217962
1.5217696
1.5217613
1.5216728
1.521745
1.5216574
1.5217126
1.5217105
1.5216219
1.5216207
1.5216709
1.5216736
1.5216012
1.5215962
1.5216391
1.5216551
1.5217081
1.5217243
1.5217879
1.5216149
1.5218287
1.5216575
1.5216838
1.5215459
1.5216291
1.5214925
1.5219641
1.5219535
1.5217749
1.5217881
1.5218117
1.5216663
1.521797
1.5216522
1.5221913
1.5221622
1.5219538
1.522169
1.5221694
1.5219542
1.5219863
1.5219935
1.5221978
1.522199
1.5218143
1.5220001
1.5217863
1.5220195
1.5221649
1.5219436
1.5221668
1.5219506
1.522159
1.5220048
1.5219641
1.5219674
1.5217939
1.5217909
1.5218128
1.521674
1.5216768
1.5218171
1.5218389
1.5219962
1.5218251
1.5220063
1.5218465
1.521709
1.5218619
1.5217245
1.5222227
1.5222171
1.5222242
1.5222246
1.5220225
1.5220206
1.5220217
1.522027
1.5222296
1.52223
1.5218765
1.5220441
1.5218756
1.5220453
1.5220522
1.5220583
1.5218879
1.5218967
1.521897
1.521761
1.521899
1.5217604
1.5219195
1.5217779
1.5217867
1.5219098
1.5220312
1.522032
1.5218667
1.5218663
1.5218876
1.5217524
1.5218869
1.5217546
1.5218724
1.5220307
1.5218616
1.5220381
1.5218815
1.5217457
1.5217586
1.5218934
1.5222408
1.5222411
1.5220335
1.522032
1.5220409
1.522045
1.5222433
1.5222434
1.5222358
1.5222337
1.5217875
1.5217033
1.5216991
1.5217844
1.5217528
1.5216844
1.5217471
1.521676
1.5217775
1.5217909
1.5216901
1.5217029
1.5216679
1.5217506
1.5216787
1.521737
1.5217061
1.521794
1.5217067
1.5217936
1.5217557
1.5216842
1.5216848
1.5217549
1.5217382
1.5218125
1.5217283
1.5218209
1.5217793
1.5217101
1.5217888
1.5217194
1.5217348
1.5217465
1.5217148
1.5217029
1.5217192
1.5217548
1.521727
1.5217444
1.5218308
1.521812
1.5218074
1.521821
1.5218009
1.5218141
1.521778
1.5217916
1.5217272
1.5217529
1.5217215
1.5217541
1.5218075
1.5218222
1.5218302
1.5218079
1.5217917
1.5217636
1.521782
1.5217537
1.5218482
1.5218589
1.5218693
1.5218511
1.5226584
1.5226035
1.5226511
1.5225921
1.5225854
1.522588
1.5226377
1.522631
1.5229602
1.5229439
1.5229696
1.5229475
1.5229313
1.5229563
1.5229211
1.5229458
1.5220024
1.5219927
1.5220134
1.5220225
1.5222202
1.5222063
1.5222304
1.5222428
1.522062
1.5220065
1.5220278
1.5220287
1.5222694
1.5222278
1.5222685
1.5222926
1.5225543
1.5225963
1.5225273
1.5225727
1.5224919
1.522474
1.5225165
1.5225329
1.522816
1.5227934
1.5227783
1.5227913
1.5228761
1.5229008
1.5228687
1.5228925
1.5220572
1.5220545
1.5220776
1.5220226
1.5222876
1.5223147
1.522305
1.5222631
1.5220697
1.5220424
1.5220664
1.5220336
1.5222735
1.5223014
1.5222753
1.5223018
1.522005
1.521988
1.5220293
1.5220113
1.5222028
1.5222289
1.5222231
1.5222504
1.5220241
1.5219904
1.5220137
1.5219893
1.5222068
1.5222341
1.52226
1.5222184
1.5224951
1.5225403
1.5225343
1.5224706
1.5228179
1.5228059
1.5228172
1.522813
1.5224795
1.5225091
1.5225259
1.522551
1.5228074
1.5228333
1.5227945
1.5228212
1.5224966
1.52246
1.5224989
1.5224393
1.5227788
1.5227643
1.522763
1.5227468
1.5223416
1.5222733
1.5223817
1.5223161
1.5226532
1.5225517
1.5225597
1.5226316
1.5219808
1.5219734
1.5219955
1.5219478
1.5218727
1.5218303
1.5218994
1.5218573
1.5220215
1.5220501
1.5220745
1.5221028
1.5221816
1.522165
1.5222067
1.5221884
1.5230784
1.5230985
1.5231283
1.5230912
1.5231922
1.5232189
1.5231973
1.5232178
1.5235756
1.5235147
1.5235559
1.5234988
1.523451
1.5234767
1.5234152
1.5234231
1.523838
1.5238174
1.5238126
1.523819
1.524278
1.5242489
1.5243008
1.5242996
1.523902
1.5239198
1.5238808
1.5238947
1.5243619
1.5243152
1.5243496
1.5243286
1.5233086
1.5232685
1.5232792
1.5232736
1.5236509
1.5235998
1.5236488
1.5236803
1.5232787
1.5232857
1.5232902
1.5232421
1.5236609
1.5235998
1.5236415
1.5235797
1.5240755
1.524018
1.524001
1.5240707
1.5244845
1.5244577
1.5245667
1.5245236
1.5239925
1.5240165
1.5239916
1.5239692
1.5244451
1.5244887
1.5244742
1.5243911
1.523069
1.5230721
1.5230861
1.5230323
1.523425
1.523386
1.5233995
1.5233516
1.5231053
1.5231258
1.5231163
1.5231255
1.5234699
1.5234235
1.5234756
1.5234403
1.5231549
1.5230943
1.5231073
1.5231209
1.5234492
1.5234047
1.5234723
1.5234968
1.5243636
1.5243475
1.5243445
1.5243155
1.5238392
1.5238355
1.5238381
1.5238145
1.5237926
1.5237825
1.5238657
1.5238397
1.5242931
1.5242685
1.5242361
1.5242491
1.5242386
1.5242645
1.5242522
1.524232
1.5237471
1.523771
1.5237599
1.5237274
1.5241345
1.524103
1.5207073
1.5207202
1.5219233
1.52198
1.5220122
1.5220126
1.522017
1.5220148
1.5219731
1.5218989
1.521885
1.5219564
1.5213129
1.5213157
1.5212275
1.5212389
1.5213227
1.5213357
1.5212555
1.5212792
1.5212565
1.5212601
1.5212343
1.5212294
1.5212104
1.5212162
1.5212037
1.5211973
1.5215777
1.5214599
1.5214528
1.5215991
1.5213585
1.521398
1.52137
1.5213152
1.5216083
1.5214506
1.5214479
1.5216078
1.5212992
1.5213606
1.5213577
1.5212973
1.5213372
1.521434
1.5216036
1.5228287
1.5222758
1.5221241
1.5215029
1.5227518
1.5226813
1.5225221
1.5224711
1.5212928
1.5226477
1.5223294
1.5221226
1.5223953
1.5234234
1.5235835
1.523613
1.5236039
1.5235652
1.5251554
1.5251924
1.5251221
1.5250985
1.5248408
1.5250086
1.5250112
1.5248181
1.5250719
1.5251167
1.5249008
1.5248647
1.5230177
1.5233352
1.5233189
1.5230335
1.5229767
1.5245447
1.5243429
1.5248455
1.5248153
1.5242464
1.524487
1.5242648
1.524085
1.5247403
1.5245391
1.5245722
1.5247642
1.5306623
1.5485721
1.5310451
1.5498806
1.5751094
1.5747502
1.5721473
1.573081
1.5747859
1.5498312
1.5752486
1.5308
1.5301506
1.5480979
1.5715754
1.5728737
1.5312366
1.5499861
1.531231
1.5496024
1.575002
1.5742744
1.5731552
1.5744465
1.5314767
1.5503678
1.5315124
1.5502178
1.5745681
1.5761479
1.5754506
1.5744924
1.5954137
1.5947326
1.5916118
1.592904
1.5957507
1.5949067
1.5930584
1.5908272
1.6228914
1.6607633
1.6633479
1.6252304
1.6234427
1.6633328
1.6634816
1.6240823
1.6127811
1.6111405
1.6490133
1.6466294
1.6147058
1.6154609
1.6512269
1.6518149
1.6149025
1.6160732
1.6512531
1.6531295
1.6245612
1.6630449
1.6657448
1.6268258
1.6507016
1.6131903
1.6102757
1.646148
1.6589676
1.6635898
1.6255547
1.6209167
1.5952347
1.5938259
1.5924854
1.5944077
1.5943032
1.5964297
1.5957942
1.5941876
1.6205988
1.6595589
1.6632199
1.6239337
1.6245725
1.6637663
1.6625991
1.6242457
1.6142047
1.6117446
1.649881
1.6463803
1.6133773
1.6151151
1.648933
1.6508472
1.6249864
1.6628148
1.666759
1.6284928
1.6262239
1.665016
1.6629748
1.6242154
1.6164599
1.6138581
1.6528106
1.6492657
1.6138305
1.6158092
1.6497814
1.6521534
1.5214001
1.5217725
1.5222478
1.5220004
1.5222252
1.5235539
1.5234009
1.5295362
1.5296097
1.5233584
1.5234902
1.5235194
1.5236256
1.5236063
1.5252709
1.5252806
1.5250949
1.5251764
1.5248114
1.5251134
1.5250099
1.524873
1.5251983
1.5252039
1.5249773
1.5249694
1.5234978
1.5236314
1.5236502
1.5236852
1.5236652
1.525116
1.5251525
1.525241
1.5252617
1.5249499
1.5251874
1.5251248
1.5249708
1.5250292
1.5250709
1.524875
1.5248406
1.551623
1.5318839
1.5505337
1.5315931
1.5746459
1.5757299
1.5774261
1.5766652
1.5320065
1.5517421
1.5317716
1.5507602
1.5769099
1.5774147
1.5763598
1.5747954
1.5312242
1.5495245
1.5312177
1.5497491
1.5746651
1.5738129
1.5742858
1.573334
1.5314588
1.5499239
1.5317291
1.5508709
1.5737496
1.5746338
1.57626
1.5754417
1.5978841
1.5967162
1.5939851
1.5959839
1.5969478
1.5979136
1.5968532
1.5943483
1.6132312
1.6159162
1.651576
1.6476793
1.6665905
1.6602363
1.6217363
1.6300125
1.6677756
1.6687347
1.6306618
1.6299885
1.6165584
1.6178932
1.6522723
1.6536274
1.6682344
1.666543
1.6276415
1.6288925
1.6623733
1.6658611
1.6257356
1.6232714
1.6180207
1.6166724
1.653988
1.6519169
1.6137869
1.6168813
1.6490394
1.6528208
1.5930232
1.5944875
1.5964895
1.5951978
1.5932827
1.5946573
1.5943185
1.5925387
1.614143
1.6122178
1.6468603
1.6495334
1.662855
1.6596258
1.6212893
1.6249073
1.6214669
1.6627064
1.6607846
1.6194936
1.6147422
1.6162503
1.6500232
1.6515513
1.6198026
1.6593612
1.6629874
1.6241623
1.6234295
1.6622824
1.6603672
1.6222454
1.6143874
1.6125958
1.6498886
1.6472521
1.6117262
1.6139969
1.6466445
1.6493701
1.5233468
1.5234601
1.5839186
1.544165
1.5804903
1.5424286
1.5792478
1.5421944
1.5807009
1.542701
1.5832102
1.5438719
1.5795073
1.5422283
1.5812376
1.542853
1.5824442
1.5434865
1.5875488
1.5455897
1.5802643
1.5423629
1.5866752
1.5446557
1.5875645
1.5451793