/*--------------------------------*- C++ -*----------------------------------*\
  =========                 |
  \\      /  F ield         | OpenFOAM: The Open Source CFD Toolbox
   \\    /   O peration     | Website:  https://openfoam.org
    \\  /    A nd           | Version:  7
     \\/     M anipulation  |
\*---------------------------------------------------------------------------*/
FoamFile
{
    version     2.0;
    format      ascii;
    class       volScalarField;
    location    "2000";
    object      p;
}
// * * * * * * * * * * * * * * * * * * * * * * * * * * * * * * * * * * * * * //

dimensions      [0 2 -2 0 0 0 0];

internalField   nonuniform List<scalar> 
33730
(
-5.1385078e+29
-4.9418436e+29
-5.035774e+29
-4.7543427e+29
-4.8329011e+29
-5.0738036e+29
-5.0704033e+29
-4.9787946e+29
-4.9750554e+29
-4.9132702e+29
-4.8691859e+29
-4.8245905e+29
-4.8663294e+29
-4.9545507e+29
-4.9073916e+29
-4.9497654e+29
-4.9983399e+29
-4.5588393e+29
-4.4715185e+29
-4.6298112e+29
-4.4989383e+29
-4.6982742e+29
-4.3092584e+29
-4.7917363e+29
-4.7528679e+29
-4.8679895e+29
-4.8284078e+29
-4.983773e+29
-4.9653397e+29
-5.008863e+29
-5.0279902e+29
-5.0346766e+29
-4.9903734e+29
-5.0250145e+29
-4.9807134e+29
-4.8963509e+29
-4.8783729e+29
-4.9234554e+29
-4.9422693e+29
-4.9028179e+29
-4.94853e+29
-4.8934794e+29
-4.9387123e+29
-4.8726414e+29
-4.8412938e+29
-4.8940252e+29
-4.8620485e+29
-4.8313771e+29
-4.852415e+29
-4.8210297e+29
-4.8011582e+29
-4.9009669e+29
-4.9339349e+29
-4.8804338e+29
-4.9129707e+29
-4.9739787e+29
-4.9535555e+29
-4.9408542e+29
-4.9208545e+29
-4.6493683e+29
-4.5868269e+29
-4.6403308e+29
-4.6125171e+29
-4.5471515e+29
-4.6194592e+29
-4.5581415e+29
-4.4245645e+29
-4.4779758e+29
-4.6856499e+29
-4.6512218e+29
-4.6171313e+29
-4.7213389e+29
-4.3733195e+29
-4.2292068e+29
-4.270456e+29
-4.558088e+29
-4.499849e+29
-4.530638e+29
-4.5906365e+29
-4.681107e+29
-4.7131069e+29
-4.7544892e+29
-4.7902374e+29
-4.1530154e+29
-4.4047731e+29
-4.3143161e+29
-4.7964138e+29
-4.8170966e+29
-4.7775442e+29
-4.7587079e+29
-4.8715095e+29
-4.8910138e+29
-4.8533546e+29
-4.8340607e+29
-4.844053e+29
-4.9274123e+29
-4.9253131e+29
-4.9027425e+29
-4.9441749e+29
-4.9659107e+29
-4.9825042e+29
-4.9895617e+29
-5.0031857e+29
-5.0106852e+29
-4.9625337e+29
-4.9415777e+29
-4.9485541e+29
-4.9699641e+29
-4.9868927e+29
-5.0080072e+29
-4.9734832e+29
-4.9941985e+29
-4.9456351e+29
-4.9670949e+29
-4.932423e+29
-4.9536924e+29
-4.8431992e+29
-4.8209918e+29
-4.8642633e+29
-4.8860838e+29
-4.8796868e+29
-4.8574186e+29
-4.8639093e+29
-4.8865651e+29
-4.9223415e+29
-4.9007966e+29
-4.9292163e+29
-4.9072482e+29
-4.8610191e+29
-4.883364e+29
-4.8489682e+29
-4.8707273e+29
-4.9041099e+29
-4.9259314e+29
-4.8913021e+29
-4.9128966e+29
-4.82899e+29
-4.8494774e+29
-4.8601915e+29
-4.8395833e+29
-4.8701844e+29
-4.8802897e+29
-4.8598946e+29
-4.8499199e+29
-4.8096486e+29
-4.8196905e+29
-4.7901909e+29
-4.7995662e+29
-4.829442e+29
-4.8399156e+29
-4.8093168e+29
-4.8195547e+29
-4.9087946e+29
-4.9188382e+29
-4.8877608e+29
-4.8977146e+29
-4.8893114e+29
-4.8993117e+29
-4.868365e+29
-4.8781185e+29
-4.9473946e+29
-4.9262751e+29
-4.9356549e+29
-4.957092e+29
-4.9278541e+29
-4.9380773e+29
-4.9065774e+29
-4.9166206e+29
-4.657292e+29
-4.6431417e+29
-4.6878528e+29
-4.6730771e+29
-4.6655901e+29
-4.6798145e+29
-4.6293098e+29
-4.6157842e+29
-4.5892289e+29
-4.602127e+29
-4.5249723e+29
-4.6378712e+29
-4.6515574e+29
-4.6442162e+29
-4.657896e+29
-4.6242772e+29
-4.6304888e+29
-4.6110329e+29
-4.5848031e+29
-4.6170005e+29
-4.5688835e+29
-4.5572768e+29
-4.6305069e+29
-4.6172517e+29
-4.646479e+29
-4.6598482e+29
-4.6032692e+29
-4.576933e+29
-4.564153e+29
-4.5903168e+29
-4.4972915e+29
-4.4310107e+29
-4.4567997e+29
-4.5030676e+29
-4.5127007e+29
-4.5302091e+29
-4.5407937e+29
-4.7192614e+29
-4.6969418e+29
-4.6794734e+29
-4.7370461e+29
-4.6795287e+29
-4.6640451e+29
-4.6471549e+29
-4.6969587e+29
-4.6454857e+29
-4.6306993e+29
-4.6135458e+29
-4.6626017e+29
-4.7138581e+29
-4.7322401e+29
-4.7745691e+29
-4.7549108e+29
-4.1205434e+29
-4.0875781e+29
-3.9245641e+29
-3.9513356e+29
-4.4072558e+29
-4.3817451e+29
-4.4431118e+29
-4.4714652e+29
-4.3172434e+29
-4.2375211e+29
-4.256791e+29
-4.3401839e+29
-4.3618864e+29
-4.2759842e+29
-4.2980278e+29
-4.3854975e+29
-4.5566633e+29
-4.5846879e+29
-4.6016567e+29
-4.5735872e+29
-4.5306369e+29
-4.5206689e+29
-4.5049784e+29
-4.5470022e+29
-4.5359101e+29
-4.5786951e+29
-4.5625396e+29
-4.5522429e+29
-4.5893066e+29
-4.6051853e+29
-4.6177264e+29
-4.6341432e+29
-4.725706e+29
-4.6765966e+29
-4.7104306e+29
-4.6905706e+29
-4.7044635e+29
-4.740476e+29
-4.7565311e+29
-4.7198712e+29
-4.747119e+29
-4.7906552e+29
-4.7635985e+29
-4.8085231e+29
-4.7962688e+29
-4.7791216e+29
-4.8254021e+29
-4.8437044e+29
-4.2160148e+29
-4.0952138e+29
-4.4726424e+29
-4.4376773e+29
-4.4467738e+29
-4.4815467e+29
-4.3433925e+29
-4.3969481e+29
-4.3495749e+29
-4.4055048e+29
-4.8019854e+29
-4.8124734e+29
-4.8326512e+29
-4.8223969e+29
-4.7825525e+29
-4.7929356e+29
-4.7645054e+29
-4.7734093e+29
-4.8866273e+29
-4.8769235e+29
-4.8957442e+29
-4.9051112e+29
-4.8685541e+29
-4.85865e+29
-4.8497303e+29
-4.8405186e+29
-4.716334e+29
-4.7907427e+29
-4.865546e+29
-4.9363888e+29
-4.9163654e+29
-4.8413908e+29
-4.8801313e+29
-4.9029732e+29
-4.9751909e+29
-4.9550939e+29
-4.9649949e+29
-4.9849125e+29
-4.9262025e+29
-4.9460741e+29
-4.9663901e+29
-4.9765857e+29
-4.9755204e+29
-4.9650713e+29
-4.9964111e+29
-4.9864192e+29
-4.9849822e+29
-4.9952936e+29
-4.9428184e+29
-4.9530829e+29
-4.9577403e+29
-4.9681376e+29
-4.9775581e+29
-4.9624469e+29
-4.9876795e+29
-4.9722722e+29
-4.9268193e+29
-4.9370602e+29
-4.9357577e+29
-4.9252515e+29
-4.946998e+29
-4.9570676e+29
-4.9453706e+29
-4.9557947e+29
-4.9036953e+29
-4.9138974e+29
-4.9180151e+29
-4.928454e+29
-4.9234557e+29
-4.9335353e+29
-4.9380602e+29
-4.9483619e+29
-4.7885195e+29
-4.8345253e+29
-4.8564874e+29
-4.763962e+29
-4.8050444e+29
-4.8288894e+29
-4.8765932e+29
-4.8977518e+29
-4.8440019e+29
-4.8657415e+29
-4.907028e+29
-4.886085e+29
-4.8434484e+29
-4.8545085e+29
-4.8531835e+29
-4.842042e+29
-4.86524e+29
-4.8759771e+29
-4.8634286e+29
-4.8744271e+29
-4.8353873e+29
-4.8226253e+29
-4.8331604e+29
-4.8463984e+29
-4.8431259e+29
-4.8536615e+29
-4.8565273e+29
-4.8673622e+29
-4.8859202e+29
-4.8967118e+29
-4.8842761e+29
-4.8952816e+29
-4.9070836e+29
-4.9173687e+29
-4.9052637e+29
-4.9158672e+29
-4.8772398e+29
-4.8634237e+29
-4.8742338e+29
-4.8881948e+29
-4.884188e+29
-4.8944009e+29
-4.8981278e+29
-4.9085868e+29
-4.8378657e+29
-4.8326628e+29
-4.821595e+29
-4.8266345e+29
-4.8482202e+29
-4.8428959e+29
-4.831721e+29
-4.8372044e+29
-4.8583352e+29
-4.8530366e+29
-4.8419098e+29
-4.8472335e+29
-4.8678926e+29
-4.8631064e+29
-4.8521687e+29
-4.856867e+29
-4.7985092e+29
-4.793769e+29
-4.783221e+29
-4.7876971e+29
-4.8080634e+29
-4.8031563e+29
-4.7922369e+29
-4.797125e+29
-4.8178315e+29
-4.8126744e+29
-4.8016377e+29
-4.8067587e+29
-4.8279966e+29
-4.8228035e+29
-4.8118036e+29
-4.8170977e+29
-4.8957769e+29
-4.8908147e+29
-4.8792283e+29
-4.8841983e+29
-4.9053563e+29
-4.9004577e+29
-4.8889654e+29
-4.8939404e+29
-4.8770023e+29
-4.8722302e+29
-4.8608925e+29
-4.8655125e+29
-4.8863765e+29
-4.8815679e+29
-4.8700412e+29
-4.8749038e+29
-4.9334107e+29
-4.9286316e+29
-4.9169678e+29
-4.921638e+29
-4.9425197e+29
-4.9379434e+29
-4.9261762e+29
-4.9307459e+29
-4.9144913e+29
-4.9096941e+29
-4.8981007e+29
-4.9027648e+29
-4.9242114e+29
-4.9192062e+29
-4.9074565e+29
-4.9125907e+29
-3.7421055e+29
-4.653228e+29
-4.6601483e+29
-4.6672215e+29
-4.6742619e+29
-4.640348e+29
-4.6539404e+29
-4.6468245e+29
-4.66065e+29
-4.6819633e+29
-4.6976171e+29
-4.6892437e+29
-4.7050788e+29
-4.6683932e+29
-4.6836446e+29
-4.6753065e+29
-4.6907118e+29
-4.6919359e+29
-4.6735086e+29
-4.6635531e+29
-4.6703398e+29
-4.6667168e+29
-4.6773433e+29
-4.6844859e+29
-4.6805247e+29
-4.6697011e+29
-4.6765106e+29
-4.6261347e+29
-4.6394606e+29
-4.6327089e+29
-4.6462446e+29
-4.6138438e+29
-4.6268864e+29
-4.6201491e+29
-4.6332173e+29
-4.6009661e+29
-4.607111e+29
-4.588616e+29
-4.594526e+29
-4.5625913e+29
-4.6129504e+29
-4.6192876e+29
-4.606154e+29
-4.6001392e+29
-4.5751119e+29
-4.5361198e+29
-4.5485683e+29
-4.6464947e+29
-4.6367785e+29
-4.6432332e+29
-4.640021e+29
-4.6499916e+29
-4.6566387e+29
-4.6597882e+29
-4.6531928e+29
-4.6527532e+29
-4.6431171e+29
-4.6495239e+29
-4.6462878e+29
-4.6561322e+29
-4.6627568e+29
-4.6594359e+29
-4.6661066e+29
-4.6229066e+29
-4.6258036e+29
-4.6300962e+29
-4.6331418e+29
-4.6362686e+29
-4.6394517e+29
-4.6289127e+29
-4.632074e+29
-4.6140347e+29
-4.599004e+29
-4.5927795e+29
-4.5871593e+29
-4.6047747e+29
-4.6200732e+29
-4.5804418e+29
-4.5742226e+29
-4.5862724e+29
-4.5926077e+29
-4.5688632e+29
-4.5639842e+29
-4.575405e+29
-4.5807451e+29
-4.6283021e+29
-4.6347437e+29
-4.64179e+29
-4.6482331e+29
-4.6168982e+29
-4.6301981e+29
-4.6226069e+29
-4.636067e+29
-4.6442507e+29
-4.6589549e+29
-4.6501769e+29
-4.6649167e+29
-4.6559152e+29
-4.6708639e+29
-4.6625392e+29
-4.6776551e+29
-4.6018994e+29
-4.6148759e+29
-4.6083611e+29
-4.6213036e+29
-4.5891732e+29
-4.5955941e+29
-4.5832659e+29
-4.5768379e+29
-4.5502198e+29
-4.5782225e+29
-4.5835721e+29
-4.5711943e+29
-4.5657532e+29
-4.5373042e+29
-4.5908344e+29
-4.6036065e+29
-4.5962622e+29
-4.609185e+29
-4.5103159e+29
-4.5235456e+29
-4.4690008e+29
-4.4561986e+29
-4.4833029e+29
-4.496366e+29
-4.4811187e+29
-4.508923e+29
-4.5217842e+29
-4.4941611e+29
-4.5304038e+29
-4.5196504e+29
-4.5231325e+29
-4.534052e+29
-4.533025e+29
-4.5274269e+29
-4.5387398e+29
-4.5446015e+29
-4.5451856e+29
-4.541259e+29
-4.5523174e+29
-4.5566855e+29
-4.5618413e+29
-4.5500826e+29
-4.5560544e+29
-4.5679918e+29
-4.3593418e+29
-4.4184529e+29
-4.2189199e+29
-4.2964431e+29
-4.4919543e+29
-4.5168022e+29
-4.5422595e+29
-4.716345e+29
-4.7248378e+29
-4.7405354e+29
-4.7490061e+29
-4.6925116e+29
-4.702145e+29
-4.7124001e+29
-4.7219678e+29
-4.6758136e+29
-4.6954634e+29
-4.6840892e+29
-4.7038686e+29
-4.7333282e+29
-4.7578213e+29
-4.743156e+29
-4.7679753e+29
-4.6753475e+29
-4.6925504e+29
-4.6844542e+29
-4.7015152e+29
-4.6613602e+29
-4.6687293e+29
-4.6765476e+29
-4.6841159e+29
-4.6448296e+29
-4.6596208e+29
-4.6536909e+29
-4.6686946e+29
-4.692402e+29
-4.7098695e+29
-4.7003402e+29
-4.7183254e+29
-4.6410635e+29
-4.649529e+29
-4.6581239e+29
-4.6663341e+29
-4.6274717e+29
-4.642216e+29
-4.6367497e+29
-4.651413e+29
-4.6105417e+29
-4.6254362e+29
-4.6191572e+29
-4.6340194e+29
-4.6576201e+29
-4.6746247e+29
-4.6670204e+29
-4.684295e+29
-4.7102234e+29
-4.7193998e+29
-4.73018e+29
-4.739788e+29
-4.7281042e+29
-4.7488728e+29
-4.7369351e+29
-4.7580351e+29
-4.770899e+29
-4.796715e+29
-4.8066786e+29
-4.7804982e+29
-4.7516897e+29
-4.761655e+29
-4.7768347e+29
-4.7870708e+29
-4.1810098e+29
-4.2007496e+29
-4.0618824e+29
-4.0806717e+29
-4.1481292e+29
-4.1638928e+29
-4.047495e+29
-4.035735e+29
-3.8941045e+29
-3.9186587e+29
-4.4451347e+29
-4.4308751e+29
-4.4570325e+29
-4.4719687e+29
-4.4297786e+29
-4.4053227e+29
-4.4438009e+29
-4.4183993e+29
-4.4684993e+29
-4.4540768e+29
-4.4791946e+29
-4.4941521e+29
-4.4983492e+29
-4.4825661e+29
-4.5089344e+29
-4.5251703e+29
-4.3588653e+29
-4.3484095e+29
-4.3779539e+29
-4.3898857e+29
-4.3136228e+29
-4.2664975e+29
-4.2742393e+29
-4.3228597e+29
-4.2941962e+29
-4.2827614e+29
-4.3321792e+29
-4.3443319e+29
-4.3689024e+29
-4.4013465e+29
-4.3819399e+29
-4.4152267e+29
-4.4048721e+29
-4.3924962e+29
-4.426106e+29
-4.4384498e+29
-4.3024231e+29
-4.3536916e+29
-4.3127812e+29
-4.3656124e+29
-4.3370638e+29
-4.3245584e+29
-4.3766454e+29
-4.3891709e+29
-4.4285645e+29
-4.4156075e+29
-4.4499629e+29
-4.4631676e+29
-4.5556819e+29
-4.5684589e+29
-4.563989e+29
-4.5768586e+29
-4.5819568e+29
-4.5960419e+29
-4.5904513e+29
-4.6045966e+29
-4.6084748e+29
-4.5989538e+29
-4.6130074e+29
-4.6223134e+29
-4.5821008e+29
-4.572544e+29
-4.585464e+29
-4.5949725e+29
-4.5303877e+29
-4.5429735e+29
-4.5384304e+29
-4.5510455e+29
-4.5293487e+29
-4.5204201e+29
-4.5333757e+29
-4.5424721e+29
-4.5176212e+29
-4.5256469e+29
-4.5127555e+29
-4.505097e+29
-4.5463406e+29
-4.5593437e+29
-4.5557038e+29
-4.5689097e+29
-4.545504e+29
-4.5370757e+29
-4.5501524e+29
-4.558624e+29
-4.5794927e+29
-4.5863015e+29
-4.5923498e+29
-4.5988706e+29
-4.5634649e+29
-4.5767193e+29
-4.5720811e+29
-4.5851768e+29
-4.5662792e+29
-4.5735027e+29
-4.5606933e+29
-4.553184e+29
-4.5898752e+29
-4.6027968e+29
-4.598242e+29
-4.6111968e+29
-4.6052019e+29
-4.618244e+29
-4.6118131e+29
-4.6250271e+29
-4.6249051e+29
-4.6163631e+29
-4.63033e+29
-4.6390752e+29
-4.6320773e+29
-4.6465466e+29
-4.6390637e+29
-4.6537399e+29
-4.7198328e+29
-4.7272956e+29
-4.7388551e+29
-4.7465774e+29
-4.6740821e+29
-4.6897068e+29
-4.680249e+29
-4.6962654e+29
-4.7131612e+29
-4.7062672e+29
-4.7245824e+29
-4.7318437e+29
-4.6864051e+29
-4.7026958e+29
-4.6933797e+29
-4.7098581e+29
-4.6994564e+29
-4.7161132e+29
-4.7067394e+29
-4.7236624e+29
-4.7338076e+29
-4.7533506e+29
-4.7416049e+29
-4.761411e+29
-4.7488909e+29
-4.7689735e+29
-4.7567352e+29
-4.7769315e+29
-4.713795e+29
-4.7213627e+29
-4.7385266e+29
-4.7308902e+29
-4.7435667e+29
-4.7511765e+29
-4.7730429e+29
-4.7649682e+29
-4.7877564e+29
-4.8142302e+29
-4.7961778e+29
-4.8230064e+29
-4.7584852e+29
-4.7807196e+29
-4.7665277e+29
-4.7890611e+29
-4.8040946e+29
-4.8314389e+29
-4.8129654e+29
-4.8408217e+29
-4.7896105e+29
-4.8131623e+29
-4.7734881e+29
-4.796295e+29
-4.7818021e+29
-4.80502e+29
-4.8488628e+29
-4.8205818e+29
-4.8296382e+29
-4.8581948e+29
-4.866921e+29
-4.8378958e+29
-4.8759552e+29
-4.0849013e+29
-4.2820446e+29
-4.277678e+29
-4.1974601e+29
-4.1957256e+29
-4.5078057e+29
-4.4959182e+29
-4.5112e+29
-4.4993849e+29
-4.482952e+29
-4.4684363e+29
-4.486306e+29
-4.4716483e+29
-4.4795658e+29
-4.4751932e+29
-4.4898593e+29
-4.4943255e+29
-4.5075331e+29
-4.5027373e+29
-4.5149546e+29
-4.5202768e+29
-4.3726606e+29
-4.4053471e+29
-4.4077616e+29
-4.3734048e+29
-4.4505033e+29
-4.4297255e+29
-4.4324347e+29
-4.4534476e+29
-4.3751662e+29
-4.4100368e+29
-4.414664e+29
-4.3797442e+29
-4.456836e+29
-4.4353486e+29
-4.4399916e+29
-4.4613448e+29
-4.4442067e+29
-4.4184265e+29
-4.3832934e+29
-4.8055468e+29
-4.810598e+29
-4.8155006e+29
-4.8210427e+29
-4.8405862e+29
-4.8358194e+29
-4.8310411e+29
-4.8257128e+29
-4.7909282e+29
-4.7858284e+29
-4.7958074e+29
-4.8011538e+29
-4.7680481e+29
-4.7723474e+29
-4.7765805e+29
-4.7814688e+29
-4.8946268e+29
-4.889412e+29
-4.8849553e+29
-4.8804703e+29
-4.8989206e+29
-4.9034849e+29
-4.9076934e+29
-4.9122792e+29
-4.8764513e+29
-4.8713873e+29
-4.8668166e+29
-4.8620149e+29
-4.857888e+29
-4.8530572e+29
-4.8488223e+29
-4.8443735e+29
-4.6395717e+29
-4.5797684e+29
-4.7399695e+29
-4.7008713e+29
-4.6453566e+29
-4.8100207e+29
-4.7740399e+29
-4.8040183e+29
-4.9089192e+29
-4.8899812e+29
-4.8612153e+29
-4.8792368e+29
-4.8386946e+29
-4.9460252e+29
-4.9268012e+29
-4.9146425e+29
-4.8961866e+29
-4.9479614e+29
-4.938279e+29
-4.9436443e+29
-4.9531597e+29
-4.9657277e+29
-4.9559603e+29
-4.9671318e+29
-4.9572431e+29
-4.9752694e+29
-4.9624192e+29
-4.9722243e+29
-4.9850378e+29
-4.9107808e+29
-4.9012893e+29
-4.915994e+29
-4.9065436e+29
-4.9273616e+29
-4.9175578e+29
-4.9296326e+29
-4.9199991e+29
-4.9251613e+29
-4.9347523e+29
-4.9368924e+29
-4.9466395e+29
-4.9651903e+29
-4.9641282e+29
-4.9691258e+29
-4.9700132e+29
-4.9603457e+29
-4.9551261e+29
-4.9541472e+29
-4.9593555e+29
-4.9745439e+29
-4.9797534e+29
-4.9787675e+29
-4.9735911e+29
-4.9834774e+29
-4.9845624e+29
-4.9884734e+29
-4.9893556e+29
-4.920398e+29
-4.9351849e+29
-4.9403044e+29
-4.9253949e+29
-4.9301209e+29
-4.9450431e+29
-4.9500178e+29
-4.9350772e+29
-4.9559703e+29
-4.9507829e+29
-4.9498754e+29
-4.9447386e+29
-4.9657401e+29
-4.9607043e+29
-4.9596528e+29
-4.9545862e+29
-4.9702259e+29
-4.975374e+29
-4.9642033e+29
-4.9693012e+29
-4.9395351e+29
-4.9545737e+29
-4.9596572e+29
-4.9444811e+29
-4.973866e+29
-4.9799989e+29
-4.9850309e+29
-4.9788569e+29
-4.9690068e+29
-4.9642432e+29
-4.9490027e+29
-4.9537082e+29
-4.9263741e+29
-4.9252172e+29
-4.9302541e+29
-4.9312259e+29
-4.9214734e+29
-4.9162303e+29
-4.9151578e+29
-4.9203831e+29
-4.940999e+29
-4.9358027e+29
-4.934764e+29
-4.9399354e+29
-4.9506166e+29
-4.9458008e+29
-4.9446685e+29
-4.9496672e+29
-4.882432e+29
-4.8965667e+29
-4.9016685e+29
-4.8873708e+29
-4.8920008e+29
-4.9063881e+29
-4.9113381e+29
-4.8968678e+29
-4.9169874e+29
-4.9117972e+29
-4.9109946e+29
-4.9058611e+29
-4.9268482e+29
-4.9217871e+29
-4.9207926e+29
-4.9157278e+29
-4.9013759e+29
-4.9159198e+29
-4.9210437e+29
-4.9064114e+29
-4.9110784e+29
-4.925725e+29
-4.9306418e+29
-4.9159525e+29
-4.9365326e+29
-4.9313837e+29
-4.9304799e+29
-4.9253599e+29
-4.9462576e+29
-4.941222e+29
-4.9401775e+29
-4.935141e+29
-4.678351e+29
-4.7243299e+29
-4.7463576e+29
-4.7318032e+29
-4.8319084e+29
-4.8103128e+29
-4.7839217e+29
-4.8052149e+29
-4.770121e+29
-4.8720045e+29
-4.851417e+29
-4.8240274e+29
-4.8439669e+29
-4.8311514e+29
-4.8203623e+29
-4.8361739e+29
-4.825329e+29
-4.8352206e+29
-4.8461095e+29
-4.8524443e+29
-4.8416406e+29
-4.8465948e+29
-4.8573219e+29
-4.8566144e+29
-4.8672722e+29
-4.8926609e+29
-4.8823443e+29
-4.8976153e+29
-4.8873895e+29
-4.8979708e+29
-4.9081063e+29
-4.8722475e+29
-4.8618234e+29
-4.8669609e+29
-4.877353e+29
-4.8773293e+29
-4.8878239e+29
-4.8445778e+29
-4.8434644e+29
-4.8498797e+29
-4.8489098e+29
-4.8392182e+29
-4.8335292e+29
-4.8325561e+29
-4.838206e+29
-4.8604532e+29
-4.8548323e+29
-4.8537752e+29
-4.859345e+29
-4.8645006e+29
-4.8657011e+29
-4.8708725e+29
-4.8698363e+29
-4.8293939e+29
-4.8349685e+29
-4.8297239e+29
-4.8242738e+29
-4.82121e+29
-4.8158653e+29
-4.803e+29
-4.8080196e+29
-4.8312848e+29
-4.8261349e+29
-4.8128088e+29
-4.8177977e+29
-4.8456167e+29
-4.8401994e+29
-4.8400938e+29
-4.8347545e+29
-4.8414452e+29
-4.8360784e+29
-4.8224894e+29
-4.8277281e+29
-4.8516007e+29
-4.8464061e+29
-4.8326852e+29
-4.8378476e+29
-4.8560268e+29
-4.85052e+29
-4.8503638e+29
-4.8449449e+29
-4.8664602e+29
-4.861144e+29
-4.8606868e+29
-4.8553662e+29
-4.8811902e+29
-4.8756809e+29
-4.8746074e+29
-4.8801054e+29
-4.8852248e+29
-4.8863872e+29
-4.8915705e+29
-4.890555e+29
-4.8952833e+29
-4.8963784e+29
-4.9006586e+29
-4.9018021e+29
-4.9068113e+29
-4.9116673e+29
-4.9055767e+29
-4.9106304e+29
-4.8767597e+29
-4.8712873e+29
-4.8655267e+29
-4.8709506e+29
-4.8618306e+29
-4.8564105e+29
-4.8425777e+29
-4.8478852e+29
-4.8529217e+29
-4.8668508e+29
-4.8721154e+29
-4.8582003e+29
-4.8872003e+29
-4.881869e+29
-4.8812915e+29
-4.8759578e+29
-4.863033e+29
-4.8769346e+29
-4.8822473e+29
-4.8683111e+29
-4.8730561e+29
-4.8870338e+29
-4.8920008e+29
-4.8779187e+29
-4.8972714e+29
-4.8919617e+29
-4.8913726e+29
-4.8860811e+29
-4.9072242e+29
-4.902137e+29
-4.9012709e+29
-4.8961768e+29
-3.7252579e+29
-4.8177968e+29
-4.8127987e+29
-4.8280305e+29
-4.8227313e+29
-4.8381892e+29
-4.8330289e+29
-4.8474931e+29
-4.8428976e+29
-4.7792517e+29
-4.7748865e+29
-4.7884054e+29
-4.7836684e+29
-4.79799e+29
-4.7930492e+29
-4.8079877e+29
-4.8028397e+29
-4.8741589e+29
-4.8695079e+29
-4.8835347e+29
-4.8786723e+29
-4.856148e+29
-4.8516699e+29
-4.8650984e+29
-4.8604677e+29
-4.910881e+29
-4.9063977e+29
-4.915077e+29
-4.8924196e+29
-4.88796e+29
-4.9018468e+29
-4.8968759e+29
-4.6508284e+29
-4.6574408e+29
-4.6608093e+29
-4.654188e+29
-4.6608294e+29
-4.6573861e+29
-4.6640599e+29
-4.6675794e+29
-4.6747749e+29
-4.6642971e+29
-4.6713143e+29
-4.6677106e+29
-4.6745396e+29
-4.6816957e+29
-4.6709325e+29
-4.6780655e+29
-4.6481338e+29
-4.6386065e+29
-4.6450828e+29
-4.6416404e+29
-4.65177e+29
-4.6585626e+29
-4.6616672e+29
-4.6548376e+29
-4.6545509e+29
-4.6445823e+29
-4.6511042e+29
-4.6479455e+29
-4.6578699e+29
-4.6647822e+29
-4.6613386e+29
-4.6682996e+29
-4.6786004e+29
-4.686041e+29
-4.6896318e+29
-4.6821119e+29
-4.7017219e+29
-4.6974197e+29
-4.6937779e+29
-4.7054159e+29
-4.6854579e+29
-4.6891231e+29
-4.6930451e+29
-4.6967444e+29
-4.7088864e+29
-4.7046004e+29
-4.71262e+29
-4.7008259e+29
-4.6761345e+29
-4.6656586e+29
-4.6728864e+29
-4.6688273e+29
-4.6881547e+29
-4.6804077e+29
-4.6836971e+29
-4.6914861e+29
-4.6755621e+29
-4.6829587e+29
-4.6719875e+29
-4.6793437e+29
-4.6947737e+29
-4.6869053e+29
-4.6906136e+29
-4.6985221e+29
-4.6928304e+29
-4.6745328e+29
-4.6646649e+29
-4.6714277e+29
-4.6678038e+29
-4.678379e+29
-4.6854281e+29
-4.6814875e+29
-4.6708307e+29
-4.6775842e+29
-4.6845863e+29
-4.6249039e+29
-4.6281349e+29
-4.6311254e+29
-4.6344143e+29
-4.6409686e+29
-4.6440877e+29
-4.647429e+29
-4.6376203e+29
-4.6311718e+29
-4.634248e+29
-4.6406441e+29
-4.6374744e+29
-4.6440298e+29
-4.647308e+29
-4.6505702e+29
-4.6539495e+29
-4.6223083e+29
-4.6131064e+29
-4.6192165e+29
-4.6161727e+29
-4.6256511e+29
-4.6319892e+29
-4.635001e+29
-4.6287026e+29
-4.6283989e+29
-4.6191257e+29
-4.6252466e+29
-4.6222041e+29
-4.6315804e+29
-4.6379204e+29
-4.6348124e+29
-4.6412062e+29
-4.6000967e+29
-4.6028827e+29
-4.6067907e+29
-4.609673e+29
-4.6126364e+29
-4.6156866e+29
-4.6058446e+29
-4.608784e+29
-4.5920387e+29
-4.5773288e+29
-4.5977087e+29
-4.5830165e+29
-4.5663751e+29
-4.5719868e+29
-4.6115393e+29
-4.6144373e+29
-4.6184411e+29
-4.6214705e+29
-4.6245043e+29
-4.6275478e+29
-4.6174099e+29
-4.6203283e+29
-4.6086788e+29
-4.5942601e+29
-4.6030895e+29
-4.5884226e+29
-4.5771604e+29
-4.5826431e+29
-4.5552712e+29
-4.5442897e+29
-4.5501529e+29
-4.5608877e+29
-4.5711661e+29
-4.555248e+29
-4.5659723e+29
-4.5601926e+29
-4.6482647e+29
-4.6385654e+29
-4.6449985e+29
-4.6417872e+29
-4.6514995e+29
-4.6579514e+29
-4.6611035e+29
-4.6546756e+29
-4.6448738e+29
-4.6513372e+29
-4.6479579e+29
-4.6576965e+29
-4.6641364e+29
-4.6240894e+29
-4.6270329e+29
-4.6318158e+29
-4.6348869e+29
-4.6380403e+29
-4.6411419e+29
-4.6301967e+29
-4.6332672e+29
-4.6164635e+29
-4.6110034e+29
-4.6030978e+29
-4.6141271e+29
-4.6196136e+29
-4.598008e+29
-4.5923542e+29
-4.6088953e+29
-4.6202383e+29
-4.6169266e+29
-4.6224856e+29
-4.6257486e+29
-4.6146687e+29
-4.6036191e+29
-4.5871491e+29
-4.5813107e+29
-4.5922946e+29
-4.5759843e+29
-4.570963e+29
-4.58152e+29
-4.5868861e+29
-4.6361586e+29
-4.6268726e+29
-4.6332525e+29
-4.6297987e+29
-4.6359523e+29
-4.6327355e+29
-4.6391171e+29
-4.6423882e+29
-4.6398616e+29
-4.6465803e+29
-4.6427872e+29
-4.6495214e+29
-4.6490421e+29
-4.6524926e+29
-4.6558374e+29
-4.6457051e+29
-4.6163942e+29
-4.6226961e+29
-4.6189663e+29
-4.6252888e+29
-4.6318222e+29
-4.6384676e+29
-4.6291845e+29
-4.6358111e+29
-4.6307959e+29
-4.6214801e+29
-4.6278408e+29
-4.6243941e+29
-4.6344416e+29
-4.6411293e+29
-4.6440836e+29
-4.6373743e+29
-4.6426981e+29
-4.6496794e+29
-4.6524352e+29
-4.6454066e+29
-4.6569118e+29
-4.6643214e+29
-4.6671155e+29
-4.6596895e+29
-4.6480929e+29
-4.6510381e+29
-4.6551244e+29
-4.6580798e+29
-4.6623606e+29
-4.6653883e+29
-4.6698384e+29
-4.6729305e+29
-4.66374e+29
-4.6535426e+29
-4.6606438e+29
-4.6565641e+29
-4.6756225e+29
-4.6680329e+29
-4.6711834e+29
-4.6788153e+29
-4.6701292e+29
-4.6595732e+29
-4.6667847e+29
-4.6629136e+29
-4.6819381e+29
-4.6742384e+29
-4.6776295e+29
-4.6853613e+29
-4.601605e+29
-4.6046505e+29
-4.6076859e+29
-4.6106858e+29
-4.6170256e+29
-4.6203149e+29
-4.6232501e+29
-4.6140346e+29
-4.6075868e+29
-4.6105816e+29
-4.6166485e+29
-4.6136043e+29
-4.6198988e+29
-4.6230107e+29
-4.6261612e+29
-4.6293424e+29
-4.588677e+29
-4.5915245e+29
-4.595341e+29
-4.5982369e+29
-4.6012097e+29
-4.6042196e+29
-4.5945423e+29
-4.5974915e+29
-4.5866104e+29
-4.5718921e+29
-4.5807083e+29
-4.5653783e+29
-4.5541237e+29
-4.5608415e+29
-4.5786449e+29
-4.5808291e+29
-4.5853837e+29
-4.5876203e+29
-4.5900814e+29
-4.5927867e+29
-4.5833863e+29
-4.5860512e+29
-4.5753321e+29
-4.5596074e+29
-4.5701652e+29
-4.5540624e+29
-4.5424581e+29
-4.5482438e+29
-4.599906e+29
-4.5915685e+29
-4.5974503e+29
-4.5939521e+29
-4.6037172e+29
-4.6099259e+29
-4.6124429e+29
-4.6062201e+29
-4.6051729e+29
-4.5963842e+29
-4.6023533e+29
-4.5990965e+29
-4.6086791e+29
-4.6149415e+29
-4.6115398e+29
-4.61782e+29
-4.5308591e+29
-4.5194199e+29
-4.5252897e+29
-4.5366459e+29
-4.5427046e+29
-4.5314131e+29
-4.5385258e+29
-4.5496656e+29
-4.4929442e+29
-4.4857266e+29
-4.4971262e+29
-4.5043103e+29
-4.4797378e+29
-4.4739824e+29
-4.4852487e+29
-4.4910806e+29
-4.5076438e+29
-4.496348e+29
-4.5022085e+29
-4.5134518e+29
-4.5154236e+29
-4.5082405e+29
-4.5195444e+29
-4.5267431e+29
-4.5050506e+29
-4.4988889e+29
-4.5102756e+29
-4.5163728e+29
-4.5327342e+29
-4.5214775e+29
-4.527674e+29
-4.5387574e+29
-4.5440606e+29
-4.5331119e+29
-4.5489194e+29
-4.5380892e+29
-4.5219358e+29
-4.5107367e+29
-4.5163199e+29
-4.52723e+29
-4.5407011e+29
-4.5315494e+29
-4.5349369e+29
-4.5443266e+29
-4.544769e+29
-4.5397364e+29
-4.5493929e+29
-4.5546476e+29
-4.554431e+29
-4.5503011e+29
-4.5603975e+29
-4.5649775e+29
-4.5702654e+29
-4.5595832e+29
-4.5650281e+29
-4.5758744e+29
-4.1317169e+29
-4.0223584e+29
-4.0050632e+29
-3.873894e+29
-4.3946699e+29
-4.3798628e+29
-4.4029877e+29
-4.4180455e+29
-4.3663248e+29
-4.450644e+29
-4.4263144e+29
-4.4667501e+29
-4.4420018e+29
-4.3107904e+29
-4.3398233e+29
-4.2320242e+29
-4.2772464e+29
-4.2579577e+29
-4.2439843e+29
-4.2894548e+29
-4.3039216e+29
-4.352964e+29
-4.3232261e+29
-4.36774e+29
-4.3379914e+29
-4.4947382e+29
-4.4828062e+29
-4.5024715e+29
-4.5108199e+29
-4.4985086e+29
-4.4905211e+29
-4.5145571e+29
-4.5267028e+29
-4.5232897e+29
-4.5358331e+29
-4.5393063e+29
-4.5520687e+29
-4.5485377e+29
-4.561375e+29
-4.574882e+29
-4.5889042e+29
-4.6032376e+29
-4.6181371e+29
-4.7143869e+29
-4.7269943e+29
-4.7311338e+29
-4.7185e+29
-4.7270553e+29
-4.7224888e+29
-4.735087e+29
-4.7396281e+29
-4.7582464e+29
-4.7397656e+29
-4.7541094e+29
-4.7438558e+29
-4.7524779e+29
-4.7671003e+29
-4.74779e+29
-4.7623263e+29
-4.6891859e+29
-4.6989514e+29
-4.7036994e+29
-4.6939045e+29
-4.703383e+29
-4.698452e+29
-4.7082089e+29
-4.7130444e+29
-4.7246967e+29
-4.7088479e+29
-4.719955e+29
-4.7135833e+29
-4.7229603e+29
-4.7341821e+29
-4.7180108e+29
-4.7292077e+29
-4.6866737e+29
-4.6728007e+29
-4.6825336e+29
-4.6769307e+29
-4.6923423e+29
-4.7033411e+29
-4.7074131e+29
-4.6964393e+29
-4.6950485e+29
-4.6808197e+29
-4.6905429e+29
-4.6852679e+29
-4.7003497e+29
-4.7114031e+29
-4.7048707e+29
-4.7159376e+29
-4.7310594e+29
-4.743691e+29
-4.7485974e+29
-4.7358225e+29
-4.756691e+29
-4.7714041e+29
-4.7764413e+29
-4.7616561e+29
-4.7404105e+29
-4.7454486e+29
-4.7532998e+29
-4.758358e+29
-4.7663678e+29
-4.7715788e+29
-4.7812623e+29
-4.7865486e+29
-4.6852524e+29
-4.6724103e+29
-4.6807795e+29
-4.6769287e+29
-4.6892596e+29
-4.6982921e+29
-4.7026962e+29
-4.6936728e+29
-4.6857278e+29
-4.694019e+29
-4.6811648e+29
-4.6894305e+29
-4.697804e+29
-4.7069206e+29
-4.7024867e+29
-4.7116546e+29
-4.6590506e+29
-4.6663209e+29
-4.6700385e+29
-4.6626997e+29
-4.6693276e+29
-4.665983e+29
-4.6733656e+29
-4.6767451e+29
-4.6852807e+29
-4.6736931e+29
-4.6814226e+29
-4.6774834e+29
-4.6843418e+29
-4.6923523e+29
-4.6808215e+29
-4.6887344e+29
-4.6541973e+29
-4.6424958e+29
-4.6496767e+29
-4.6470174e+29
-4.6569537e+29
-4.6645349e+29
-4.6690375e+29
-4.6614524e+29
-4.6628374e+29
-4.6511768e+29
-4.6583404e+29
-4.655603e+29
-4.665643e+29
-4.673291e+29
-4.6701429e+29
-4.6778228e+29
-4.68936e+29
-4.6977424e+29
-4.7018572e+29
-4.6933013e+29
-4.7156367e+29
-4.7106057e+29
-4.7063766e+29
-4.7200012e+29
-4.6968617e+29
-4.7005767e+29
-4.7055473e+29
-4.7093499e+29
-4.7239165e+29
-4.7183091e+29
-4.7279646e+29
-4.714364e+29
-4.6379119e+29
-4.6421873e+29
-4.6505029e+29
-4.6462189e+29
-4.6506342e+29
-4.6587671e+29
-4.6462188e+29
-4.6544554e+29
-4.6546611e+29
-4.6637275e+29
-4.6678563e+29
-4.6588787e+29
-4.6627579e+29
-4.6671188e+29
-4.6717516e+29
-4.6761463e+29
-4.6364384e+29
-4.6248387e+29
-4.6319458e+29
-4.6294222e+29
-4.6391648e+29
-4.6466898e+29
-4.6511569e+29
-4.6436382e+29
-4.6338374e+29
-4.6385244e+29
-4.6408528e+29
-4.6456395e+29
-4.6479638e+29
-4.6528612e+29
-4.6555281e+29
-4.6604523e+29
-4.6120887e+29
-4.6078495e+29
-4.6151021e+29
-4.6193129e+29
-4.6266506e+29
-4.6224147e+29
-4.6300444e+29
-4.634275e+29
-4.6280935e+29
-4.6162273e+29
-4.623412e+29
-4.6208995e+29
-4.6383676e+29
-4.6307592e+29
-4.6353234e+29
-4.6428651e+29
-4.66723e+29
-4.6544485e+29
-4.6626144e+29
-4.6589518e+29
-4.6800952e+29
-4.6710564e+29
-4.6757154e+29
-4.6847889e+29
-4.6683301e+29
-4.6767128e+29
-4.6633727e+29
-4.6717219e+29
-4.6893423e+29
-4.6802027e+29
-4.6852279e+29
-4.6943287e+29
-4.7073158e+29
-4.7170263e+29
-4.7216214e+29
-4.7117784e+29
-4.7160647e+29
-4.7208868e+29
-4.7260075e+29
-4.7308896e+29
-4.7429527e+29
-4.7269815e+29
-4.738233e+29
-4.7316352e+29
-4.7410934e+29
-4.7526455e+29
-4.7360549e+29
-4.7475109e+29
-4.7249048e+29
-4.7349863e+29
-4.7396238e+29
-4.7293877e+29
-4.7617534e+29
-4.7453169e+29
-4.7569547e+29
-4.7500392e+29
-4.7479615e+29
-4.7334121e+29
-4.7437547e+29
-4.7375525e+29
-4.7542103e+29
-4.7660604e+29
-4.7704807e+29
-4.7585417e+29
-4.7685862e+29
-4.7818705e+29
-4.7868953e+29
-4.7734509e+29
-4.8108015e+29
-4.800571e+29
-4.7954766e+29
-4.8159951e+29
-4.8206837e+29
-4.8051073e+29
-4.8098266e+29
-4.825457e+29
-4.7778598e+29
-4.7823577e+29
-4.7914105e+29
-4.7959548e+29
-4.74957e+29
-4.7625397e+29
-4.7674675e+29
-4.754365e+29
-4.7590154e+29
-4.7722159e+29
-4.7642366e+29
-4.7774571e+29
-4.7908646e+29
-4.7958645e+29
-4.7758303e+29
-4.7807916e+29
-4.7909338e+29
-4.7855315e+29
-4.8007021e+29
-4.8061752e+29
-4.2390855e+29
-4.1585584e+29
-4.16515e+29
-4.247852e+29
-4.2589e+29
-4.2714434e+29
-4.1887454e+29
-4.1748715e+29
-4.0515916e+29
-4.070261e+29
-4.2064119e+29
-4.2124218e+29
-4.1299109e+29
-4.1333482e+29
-4.2200269e+29
-4.2306572e+29
-4.1396934e+29
-4.150481e+29
-4.0376172e+29
-4.0265499e+29
-3.8827309e+29
-3.906711e+29
-4.4686609e+29
-4.4613915e+29
-4.4798664e+29
-4.4724085e+29
-4.4547029e+29
-4.4476676e+29
-4.458348e+29
-4.4656283e+29
-4.4764518e+29
-4.468905e+29
-4.4794279e+29
-4.4872938e+29
-4.4945439e+29
-4.4834336e+29
-4.4909232e+29
-4.5021737e+29
-4.4503229e+29
-4.4403926e+29
-4.447141e+29
-4.457064e+29
-4.4305092e+29
-4.4207199e+29
-4.4268507e+29
-4.4370164e+29
-4.4640365e+29
-4.454021e+29
-4.4619747e+29
-4.4721816e+29
-4.4438056e+29
-4.4334165e+29
-4.441224e+29
-4.4517431e+29
-4.4829552e+29
-4.4746037e+29
-4.4938775e+29
-4.4852511e+29
-4.4675432e+29
-4.4606998e+29
-4.4711411e+29
-4.4780538e+29
-4.4893586e+29
-4.4822563e+29
-4.4935748e+29
-4.50091e+29
-4.5084056e+29
-4.4966348e+29
-4.5054227e+29
-4.5173024e+29
-4.5138549e+29
-4.5061801e+29
-4.5175728e+29
-4.5253416e+29
-4.49871e+29
-4.4905186e+29
-4.5015836e+29
-4.5099716e+29
-4.5250528e+29
-4.5131899e+29
-4.5216776e+29
-4.5334773e+29
-4.5370355e+29
-4.5292707e+29