/*--------------------------------*- C++ -*----------------------------------*\
  =========                 |
  \\      /  F ield         | OpenFOAM: The Open Source CFD Toolbox
   \\    /   O peration     | Website:  https://openfoam.org
    \\  /    A nd           | Version:  7
     \\/     M anipulation  |
\*---------------------------------------------------------------------------*/
FoamFile
{
    version     2.0;
    format      ascii;
    class       volVectorField;
    location    "2000";
    object      UMean;
}
// * * * * * * * * * * * * * * * * * * * * * * * * * * * * * * * * * * * * * //

dimensions      [0 1 -1 0 0 0 0];

internalField   nonuniform List<vector> 
33730
(
(-4.2104345e+12 -7.5002164e+11 1.447729e+10)
(-4.0588512e+12 -4.0365592e+11 5.627905e+11)
(-3.9708186e+12 -2.8614228e+11 6.0823059e+11)
(-4.279581e+12 -7.6166268e+10 3.5246836e+11)
(-4.2774666e+12 -1.1749368e+11 3.5813548e+11)
(-3.8802024e+12 -1.7883568e+11 -4.4093569e+11)
(-3.1091398e+12 -3.5422369e+11 -1.1600378e+10)
(-3.9561012e+12 -2.9739463e+11 -4.470759e+11)
(-3.2294333e+12 -5.8861378e+11 4.5815193e+09)
(-3.3627361e+12 -1.7470317e+11 4.4512609e+11)
(-3.4244296e+12 -2.2345973e+11 4.3979095e+11)
(-4.0948304e+12 -7.4782996e+10 4.9374947e+11)
(-4.0518446e+12 -1.351994e+11 4.7793145e+11)
(-3.4382343e+12 -1.8218063e+11 4.4983556e+11)
(-4.065499e+12 -6.4563316e+10 5.0115518e+11)
(-4.041983e+12 -1.6649943e+11 5.038334e+11)
(-3.3985539e+12 -1.6489232e+11 4.6814476e+11)
(-4.3036048e+12 -5.8540898e+10 -6.6956216e+10)
(-4.380372e+12 -2.7314426e+09 -7.9762703e+10)
(-4.431538e+12 -5.6828633e+10 1.7349125e+11)
(-4.2868235e+12 -3.1755021e+10 -8.3855906e+10)
(-4.4426219e+12 -1.1359457e+11 1.7998381e+11)
(-4.0273116e+12 2.5682506e+10 -2.2087538e+11)
(-3.9051755e+12 -7.7879471e+10 3.2518228e+11)
(-3.9198165e+12 -2.1242646e+10 3.343387e+11)
(-3.9166671e+12 -1.0515811e+11 3.5183417e+11)
(-3.9121344e+12 -1.4574507e+10 3.3905073e+11)
(-3.6695805e+12 -6.9825996e+10 -4.0922966e+11)
(-3.851762e+12 -2.2467543e+10 -3.9075831e+11)
(-3.8147574e+12 -9.2333658e+10 -3.7634663e+11)
(-3.6412127e+12 -7.5523202e+10 -4.3282616e+11)
(-2.9900769e+12 -8.1496069e+10 -5.3959268e+11)
(-3.0359784e+12 -1.157852e+11 -5.3383753e+11)
(-2.2717103e+12 -2.0556889e+11 1.1942891e+10)
(-2.3381162e+12 -3.3691085e+11 3.0998392e+10)
(-3.6612619e+12 -9.9066868e+10 -4.026386e+11)
(-3.8215344e+12 -2.8334342e+10 -3.7968692e+11)
(-3.786419e+12 -6.8142826e+10 -3.6602362e+11)
(-3.6273817e+12 -6.5371492e+10 -4.12937e+11)
(-3.0565032e+12 -1.6230634e+11 -5.2932466e+11)
(-2.9894367e+12 -8.4794005e+10 -5.2779522e+11)
(-2.3183171e+12 -4.1916042e+11 3.0472185e+09)
(-2.2731644e+12 -2.6684508e+11 5.0139321e+09)
(-2.890468e+12 -1.1310887e+11 3.5339667e+11)
(-3.593564e+12 -4.5117769e+10 4.0374938e+11)
(-2.8598946e+12 -9.9437766e+10 3.6309977e+11)
(-3.56963e+12 -9.9474965e+10 4.0434438e+11)
(-2.8922886e+12 -1.2873038e+11 3.6303373e+11)
(-2.8669089e+12 -1.1163426e+11 3.6024285e+11)
(-3.5971746e+12 -8.6305255e+10 4.0860069e+11)
(-3.61062e+12 -4.0516781e+10 4.1862947e+11)
(-3.6135932e+12 -8.4448954e+10 4.0775397e+11)
(-2.8852831e+12 -9.0038579e+10 3.5134991e+11)
(-3.6166267e+12 -3.3070927e+10 4.1173665e+11)
(-2.9100324e+12 -1.042437e+11 3.5909941e+11)
(-2.9061136e+12 -9.745567e+10 3.7872243e+11)
(-2.9197554e+12 -9.3787439e+10 3.567203e+11)
(-3.6066944e+12 -1.2076388e+11 4.322478e+11)
(-3.6233536e+12 -5.0506956e+10 4.2590758e+11)
(-3.9956702e+12 -6.8519474e+10 -4.3527097e+10)
(-3.8799481e+12 -4.3489142e+10 -1.4450571e+11)
(-3.4926791e+12 -2.9028114e+10 -1.2243929e+11)
(-3.4566942e+12 -2.8467948e+10 -1.4898755e+11)
(-3.9672802e+12 -2.8374139e+10 -1.6096412e+11)
(-3.9904644e+12 -2.6652329e+10 -5.1167285e+10)
(-3.8887767e+12 -2.1763579e+10 -1.4582602e+11)
(-4.3623155e+12 -5.5859738e+10 -6.5191411e+10)
(-3.8559612e+12 -2.656353e+10 -2.2617567e+11)
(-4.0766456e+12 -2.8769909e+10 2.4642829e+11)
(-3.8977695e+12 -3.8540772e+10 3.7557176e+09)
(-3.9114312e+12 -2.7614225e+10 1.3762361e+10)
(-4.0385374e+12 -7.1711598e+10 2.2916761e+11)
(-4.3083305e+12 1.294756e+10 -7.8600546e+10)
(-3.9959664e+12 4.9908984e+10 -2.0712672e+11)
(-4.0166586e+12 -3.499421e+09 -2.1323589e+11)
(-3.9472211e+12 -1.688962e+10 -6.6510104e+10)
(-3.8600862e+12 -5.4765135e+09 -1.6255717e+11)
(-3.8487589e+12 -1.0784972e+10 -1.6514135e+11)
(-3.9213228e+12 -3.2341482e+10 -8.2498851e+10)
(-3.9421757e+12 -2.2946826e+10 2.9027073e+10)
(-3.958629e+12 -7.312086e+10 4.05905e+10)
(-4.0559865e+12 -2.3111014e+10 2.3734516e+11)
(-4.0543666e+12 -9.5426674e+10 2.4554816e+11)
(-4.3995766e+12 4.989175e+10 -1.4770455e+11)
(-3.9868673e+12 -7.5427531e+09 -1.9825305e+11)
(-3.6204061e+12 1.7781231e+10 -3.2837797e+11)
(-3.4449226e+12 -8.048306e+09 2.8080884e+11)
(-3.4359666e+12 -5.8767813e+10 2.8803069e+11)
(-3.4617035e+12 -5.9953302e+10 2.9131822e+11)
(-3.4559627e+12 -7.762417e+09 2.9747388e+11)
(-3.4691683e+12 -1.5010672e+10 3.0013572e+11)
(-3.4669311e+12 -8.3036602e+10 3.1347133e+11)
(-3.4720563e+12 -6.214195e+10 2.8929186e+11)
(-3.4629528e+12 -3.2812144e+09 2.9117214e+11)
(-4.4341145e+12 -1.7765547e+11 -3.8824351e+11)
(-4.4829309e+12 -1.6727731e+11 -3.9247104e+11)
(-3.8637689e+12 -5.1208613e+10 -4.6920381e+11)
(-3.794646e+12 1.6249054e+10 -2.9833139e+11)
(-3.7879392e+12 -5.0742606e+10 -2.9973352e+11)
(-3.8547771e+12 -6.7140931e+10 -4.9317661e+11)
(-3.1725495e+12 1.3138325e+10 -5.0547667e+11)
(-2.6590417e+12 -2.4200922e+10 -5.8581359e+11)
(-3.1530507e+12 -4.047947e+10 -5.0183076e+11)
(-2.641689e+12 -5.2953826e+10 -5.9596499e+11)
(-3.1544486e+12 -1.8844023e+10 -4.8117996e+11)
(-3.1741908e+12 1.1818948e+10 -4.8844365e+11)
(-2.654929e+12 -3.7811736e+10 -5.7787624e+11)
(-2.6301415e+12 -3.6878362e+10 -5.7697709e+11)
(-1.8665879e+12 -5.6133987e+10 -5.2371752e+11)
(-1.8393624e+12 -5.4919111e+10 -5.2651202e+11)
(-1.6531241e+12 -1.627675e+11 1.3822698e+11)
(-1.6062378e+12 -8.8448948e+10 1.2060176e+11)
(-1.8643281e+12 -7.6550826e+10 -5.2013141e+11)
(-1.8278421e+12 -4.3635245e+10 -5.1359603e+11)
(-1.6395293e+12 -1.9690429e+11 1.2240921e+11)
(-1.6091852e+12 -1.0384403e+11 1.269345e+11)
(-3.8423365e+12 -8.4119037e+10 -4.6483853e+11)
(-3.7633907e+12 1.3029841e+10 -2.8839576e+11)
(-3.7567419e+12 -3.9352753e+10 -2.8523525e+11)
(-3.8348887e+12 -7.6370316e+10 -4.7847626e+11)
(-3.145922e+12 -2.6179698e+10 -4.7768364e+11)
(-3.1676635e+12 -4.0244468e+09 -4.8719894e+11)
(-2.6525002e+12 -6.8257193e+10 -5.6863347e+11)
(-2.6257825e+12 -5.7685432e+10 -5.7113942e+11)
(-3.1387515e+12 -3.1917493e+10 -4.8771267e+11)
(-3.1593259e+12 1.2896101e+10 -4.951668e+11)
(-2.6225257e+12 -5.518531e+10 -5.8384046e+11)
(-2.641668e+12 -3.8643831e+10 -5.7722531e+11)
(-1.8869646e+12 -1.2892753e+11 -5.1257738e+11)
(-1.8450376e+12 -8.5742622e+10 -5.0775605e+11)
(-1.6386974e+12 -2.5872831e+11 1.1012021e+11)
(-1.615594e+12 -1.7448316e+11 1.2178549e+11)
(-1.8692175e+12 -8.8953613e+10 -5.186349e+11)
(-1.8303436e+12 -6.8525095e+10 -5.1998551e+11)
(-1.6570024e+12 -2.2650001e+11 1.3127568e+11)
(-1.6135741e+12 -1.3955565e+11 1.291024e+11)
(-3.1215153e+12 -2.8754488e+10 3.6777433e+11)
(-2.5155635e+12 -8.1934149e+10 3.3841222e+11)
(-2.4882269e+12 -6.8669332e+10 3.2817202e+11)
(-3.1152951e+12 -5.5073365e+10 3.6286615e+11)
(-2.5043239e+12 -6.4477492e+10 3.2928145e+11)
(-2.4855569e+12 -6.3149459e+10 3.4214525e+11)
(-3.1062892e+12 -7.1311755e+10 3.7926128e+11)
(-3.1169414e+12 -3.2070942e+10 3.7246429e+11)
(-2.5105643e+12 -8.7273477e+10 3.4508924e+11)
(-2.4925026e+12 -8.0031712e+10 3.4069739e+11)
(-3.1195379e+12 -2.8673624e+10 3.8030509e+11)
(-3.1199266e+12 -5.9240135e+10 3.7773483e+11)
(-2.5169306e+12 -8.0225581e+10 3.3679703e+11)
(-2.492071e+12 -7.3843098e+10 3.4388157e+11)
(-3.1300501e+12 -3.8570899e+10 3.7493916e+11)
(-3.1125252e+12 -7.4244647e+10 3.7656021e+11)
(-2.5298527e+12 -6.6858044e+10 3.2856498e+11)
(-2.5146861e+12 -5.908209e+10 3.3707161e+11)
(-3.1583128e+12 -3.6609887e+10 3.749678e+11)
(-3.1450862e+12 -7.29489e+10 3.7757159e+11)
(-2.5295902e+12 -7.2872609e+10 3.4037061e+11)
(-2.5139303e+12 -6.6844837e+10 3.3043108e+11)
(-3.1460223e+12 -2.1032639e+10 3.7949827e+11)
(-3.1480675e+12 -5.5152738e+10 3.7543361e+11)
(-2.5477574e+12 -6.3804041e+10 3.4144575e+11)
(-3.1694772e+12 -4.5252432e+10 3.9608988e+11)
(-3.1554134e+12 -8.838547e+10 4.0198499e+11)
(-2.5312239e+12 -6.9650496e+10 3.5456971e+11)
(-2.5466919e+12 -7.1100381e+10 3.4382247e+11)
(-2.5256999e+12 -5.9098251e+10 3.3092882e+11)
(-3.1679388e+12 -3.1152604e+10 3.8550606e+11)
(-3.1595229e+12 -6.080514e+10 3.7753985e+11)
(-3.4135314e+12 -3.1513397e+10 -1.1264158e+11)
(-3.4134249e+12 -2.5657904e+10 -1.2408034e+11)
(-3.4615889e+12 -4.1773145e+10 -6.2655834e+10)
(-3.4674987e+12 -2.3841935e+10 -7.0170486e+10)
(-2.902878e+12 -2.9113086e+10 -1.0661044e+11)
(-2.9390785e+12 -2.9400956e+10 -9.2822787e+10)
(-3.4777959e+12 -3.1451297e+10 -1.1361055e+11)
(-3.4806172e+12 -2.4194405e+10 -1.2224955e+11)
(-3.4422377e+12 -2.2183137e+10 -1.515278e+11)
(-3.4470121e+12 -2.0288411e+10 -1.3817384e+11)
(-3.9127045e+12 -4.0007361e+10 -1.6001979e+11)
(-2.9361711e+12 -2.6491565e+10 -1.0856525e+11)
(-2.9624729e+12 -2.6525131e+10 -9.4053358e+10)
(-2.9415245e+12 -2.6319548e+10 -1.0990328e+11)
(-2.970597e+12 -3.0079983e+10 -9.4708603e+10)
(-3.0220086e+12 -2.3346328e+10 -1.0355756e+11)
(-3.0275817e+12 -2.6743465e+10 -1.0619346e+11)
(-3.0492274e+12 -2.0491673e+10 -1.3290015e+11)
(-3.5131358e+12 -2.3438426e+10 -1.2990035e+11)
(-3.0566214e+12 -2.3423937e+10 -1.3356174e+11)
(-3.4747943e+12 -1.6185239e+10 -1.7280587e+11)
(-3.4928687e+12 -2.633391e+10 -1.5758754e+11)
(-3.4188344e+12 -1.4101315e+10 -1.2617985e+11)
(-3.4111839e+12 -8.3687485e+09 -1.2390717e+11)
(-3.4639831e+12 -5.2198206e+09 -7.2029682e+10)
(-3.4765072e+12 -2.3990932e+10 -7.1468539e+10)
(-3.4911991e+12 -1.5556992e+10 -1.2514106e+11)
(-3.4502335e+12 -4.0265167e+09 -1.5687604e+11)
(-3.437515e+12 -6.6366949e+09 -1.5006774e+11)
(-3.4787955e+12 -7.7942714e+09 -1.2143627e+11)
(-3.9482265e+12 -1.4537966e+10 -1.5274102e+11)
(-3.8474169e+12 -5.7317378e+09 -2.1881708e+11)
(-3.8567022e+12 -3.2012922e+10 -2.1472606e+11)
(-3.5373338e+12 -2.7651457e+10 -2.0366427e+11)
(-3.5357422e+12 -6.5573698e+09 -2.1190368e+11)
(-3.5711751e+12 -2.6128665e+10 -1.5437197e+11)
(-3.546006e+12 -1.5724333e+10 -1.7699619e+11)
(-3.6150333e+12 -1.130013e+10 2.7795204e+11)
(-3.4822845e+12 -4.3988415e+10 1.1026987e+11)
(-3.4729322e+12 -1.5775051e+10 1.1051477e+11)
(-3.6095683e+12 -5.9841696e+10 2.7146571e+11)
(-3.4954983e+12 -9.1808583e+09 2.6420035e+10)
(-3.3823273e+12 -1.3357119e+10 -6.8323482e+10)
(-3.387144e+12 -7.0456959e+09 -7.1927533e+10)
(-3.4836315e+12 -3.1547861e+10 2.8787193e+10)
(-3.5169542e+12 -1.3921571e+10 4.0481728e+10)
(-3.3972708e+12 -1.9256644e+10 -5.9300854e+10)
(-3.391199e+12 -1.0965564e+10 -6.0245802e+10)
(-3.5224466e+12 -4.0129139e+10 4.2100446e+10)
(-3.4611221e+12 -1.0637683e+10 1.0021317e+11)
(-3.4611228e+12 -3.7336446e+10 1.0644063e+11)
(-3.5769161e+12 -5.6604537e+10 2.6080697e+11)
(-3.5949368e+12 -1.5084577e+10 2.5952255e+11)
(-4.4144178e+12 -1.9831433e+10 -1.2656227e+11)
(-4.3572853e+12 5.3464252e+10 -1.2225272e+11)
(-3.8900289e+12 5.5485227e+10 -3.4169766e+11)
(-3.9155333e+12 -1.1292627e+10 -3.5829137e+11)
(-3.8135372e+12 3.83755e+09 -2.3200227e+11)
(-3.8160287e+12 5.5494026e+09 -2.1717409e+11)
(-3.9011383e+12 4.2100917e+09 -1.6351398e+11)
(-3.8696522e+12 -3.8542039e+09 -1.7797602e+11)
(-3.934016e+12 1.4132625e+10 -1.967866e+11)
(-3.5941044e+12 4.3620106e+10 -3.320563e+11)
(-3.621285e+12 3.0311234e+10 -3.3666761e+11)
(-3.9302486e+12 3.0420673e+09 -2.1803069e+11)
(-3.9706625e+12 1.2479378e+09 -1.9781244e+11)
(-3.6281855e+12 3.0524955e+10 -3.2592051e+11)
(-3.6562421e+12 -5.9650978e+09 -3.2949567e+11)
(-3.970081e+12 -3.3660304e+10 -2.0410159e+11)
(-3.3614041e+12 -5.0062051e+09 -1.3077615e+11)
(-3.4345425e+12 -6.861836e+09 -7.3676099e+10)
(-3.4375536e+12 -1.4845601e+10 -7.6055705e+10)
(-3.3701791e+12 -8.238246e+08 -1.3070043e+11)
(-3.4249454e+12 2.0025034e+09 -1.3332918e+11)
(-3.4100147e+12 1.076194e+10 -1.531212e+11)
(-3.3999448e+12 4.9020871e+09 -1.566771e+11)
(-3.428434e+12 1.4775405e+09 -1.3409826e+11)
(-3.4044052e+12 -1.2180337e+09 -1.6154837e+11)
(-3.4148144e+12 -1.3862689e+09 -1.4231472e+11)
(-3.4211694e+12 -2.4763252e+09 -1.4308131e+11)
(-3.40088e+12 6.5389578e+09 -1.5936237e+11)
(-3.3659791e+12 -4.4692966e+09 -1.3805067e+11)
(-3.359685e+12 -2.9311967e+09 -1.3437849e+11)
(-3.4157476e+12 -4.8943286e+09 -9.3267594e+10)
(-3.4089971e+12 -9.7839334e+09 -9.1322966e+10)
(-3.5463675e+12 -3.8340151e+10 4.6364415e+10)
(-3.4239449e+12 -5.2198246e+09 -5.3404364e+10)
(-3.5377647e+12 -3.4266329e+09 4.6593204e+10)
(-3.4374936e+12 -2.5036483e+10 -5.3527397e+10)
(-3.4337884e+12 -2.2715811e+10 -4.9956172e+10)
(-3.5421626e+12 -2.2038274e+10 5.2904833e+10)
(-3.5385317e+12 -6.2364398e+10 6.2565434e+10)
(-3.4314798e+12 -4.4253075e+10 -4.0041231e+10)
(-3.5021529e+12 -5.2497469e+09 1.1906843e+11)
(-3.6201316e+12 -4.2176595e+09 2.7468987e+11)
(-3.5112413e+12 -4.4522582e+10 1.1933881e+11)
(-3.626848e+12 -5.8132836e+10 2.729498e+11)
(-3.5161157e+12 -6.6384382e+10 1.4059784e+11)
(-3.5130133e+12 -1.9466738e+10 1.2669371e+11)
(-3.6256097e+12 -2.2233671e+10 2.8136261e+11)
(-3.6138101e+12 -8.1008214e+10 2.8894647e+11)
(-3.9587893e+12 2.6985812e+10 -1.6435297e+11)
(-3.4699998e+12 2.6758373e+10 -2.0958476e+11)
(-3.6284291e+12 -2.6073568e+10 -2.029916e+11)
(-3.5808356e+12 -2.2922309e+10 -2.6963593e+11)
(-3.5857655e+12 -2.9552605e+09 -2.765379e+11)
(-3.6215495e+12 -6.8871147e+09 -2.1670696e+11)
(-3.5146174e+12 -3.2158419e+09 -3.8143222e+11)
(-3.7113594e+12 -1.4337513e+10 -2.4273052e+11)
(-3.538774e+12 -1.5246119e+09 -3.7086658e+11)
(-3.7304436e+12 -2.5649016e+09 -2.3962649e+11)
(-2.9913527e+12 -7.1192114e+09 2.913844e+11)
(-2.9934261e+12 -4.0838073e+10 2.8548768e+11)
(-2.9783399e+12 -4.5959794e+10 2.9784966e+11)
(-2.9867249e+12 -5.2182412e+09 2.9047106e+11)
(-3.0036633e+12 -1.1203263e+10 2.9569167e+11)
(-2.9943349e+12 -4.9974889e+10 3.0078381e+11)
(-2.9923891e+12 -7.9925927e+09 3.0348058e+11)
(-3.000635e+12 -4.7117941e+10 2.9997695e+11)
(-3.0254442e+12 -5.0916285e+10 2.9383126e+11)
(-3.0230669e+12 -1.2945775e+10 2.9972673e+11)
(-3.0277763e+12 -2.0464835e+10 3.071855e+11)
(-3.0203532e+12 -6.7571507e+10 3.1532825e+11)
(-3.0164985e+12 -5.1662709e+10 2.9663726e+11)
(-3.0230249e+12 -1.2725281e+10 2.9031073e+11)
(-3.0208654e+12 -4.5895701e+10 2.9553762e+11)
(-3.0121083e+12 -3.0051644e+09 3.004875e+11)
(-4.4657995e+12 -1.2283259e+11 -2.2063517e+11)
(-4.5150833e+12 -1.185039e+11 -2.1853997e+11)
(-3.9579356e+12 -2.2696567e+10 -3.9574379e+11)
(-3.1844722e+12 -2.055767e+10 -5.0687556e+11)
(-3.1924851e+12 2.7967476e+10 -5.0555407e+11)
(-3.9497916e+12 3.693927e+09 -2.3106371e+11)
(-3.9338071e+12 -4.4323371e+10 -2.2910647e+11)
(-3.951595e+12 -3.6837147e+10 -4.193376e+11)
(-3.1901795e+12 -3.0624316e+10 -5.2709857e+11)
(-3.1915486e+12 3.0270071e+10 -5.2049432e+11)
(-2.7634128e+12 -2.2830973e+10 -6.3786635e+11)
(-2.754948e+12 -4.1443713e+10 -6.4714331e+11)
(-2.7557169e+12 -3.3154218e+10 -6.3061559e+11)
(-2.7405529e+12 -3.7875829e+10 -6.3304642e+11)
(-1.9523963e+12 4.1672326e+09 -5.5632444e+11)
(-1.9471109e+12 -8.7356821e+09 -5.4773957e+11)
(-1.3843173e+12 -3.2616113e+10 -5.851075e+11)
(-1.4098256e+12 -2.6356616e+10 -5.9084597e+11)
(-1.9485059e+12 -2.4483959e+10 -5.6297262e+11)
(-1.9496402e+12 1.5621806e+08 -5.576582e+11)
(-1.4001435e+12 -2.2206984e+10 -5.8644394e+11)
(-1.3922456e+12 -4.8247589e+10 -5.995806e+11)
(-1.5443149e+12 -8.31033e+10 2.285689e+11)
(-1.539498e+12 -4.8481688e+10 2.3387533e+11)
(-1.0713002e+12 -8.1253341e+10 -2.3102077e+11)
(-1.0702071e+12 -7.827607e+10 -1.8921027e+11)
(-1.081406e+12 -7.3619187e+10 -1.9930203e+11)
(-1.5564056e+12 -6.8870668e+10 2.3855264e+11)
(-1.0638985e+12 -8.1885671e+10 -2.0869838e+11)
(-1.5332955e+12 -4.57035e+10 2.3341744e+11)
(-1.9480224e+12 -4.9965301e+09 -5.5264061e+11)
(-1.9461038e+12 -1.3340112e+10 -5.4391631e+11)
(-1.3833034e+12 -3.899942e+10 -5.8044091e+11)
(-1.4101611e+12 -4.0921451e+10 -5.8450553e+11)
(-1.9323847e+12 2.2828832e+09 -5.465596e+11)
(-1.9278179e+12 -1.6238495e+10 -5.4923839e+11)
(-1.3887885e+12 -2.4622428e+10 -5.7793564e+11)
(-1.3679266e+12 -4.1207946e+10 -5.9065258e+11)
(-1.5304573e+12 -9.9669652e+10 2.2418946e+11)
(-1.5283673e+12 -6.8139107e+10 2.282625e+11)
(-1.0648212e+12 -1.0439574e+11 -2.3859078e+11)
(-1.0617071e+12 -9.6217604e+10 -1.9931363e+11)
(-1.5535214e+12 -8.8660516e+10 2.3881304e+11)
(-1.5277046e+12 -4.5257734e+10 2.2981759e+11)
(-1.0758425e+12 -8.9300422e+10 -2.010859e+11)
(-1.0502987e+12 -8.246785e+10 -2.0113934e+11)
(-3.9214384e+12 -5.5415235e+10 -3.9284609e+11)
(-3.1809819e+12 1.1183068e+10 -5.0387034e+11)
(-3.1729175e+12 -3.1400619e+10 -5.0541779e+11)
(-3.9068436e+12 -7.6388616e+08 -2.2575539e+11)
(-3.8871189e+12 -3.3180866e+10 -2.1818949e+11)
(-3.9171913e+12 -4.4451473e+10 -4.0392875e+11)
(-3.1762833e+12 2.5405334e+10 -5.0966146e+11)
(-3.1701195e+12 -2.6890149e+10 -5.1294543e+11)
(-2.7543909e+12 -7.0622744e+10 -6.30361e+11)
(-2.7332563e+12 -6.4505121e+10 -6.345264e+11)
(-2.7316702e+12 -5.031221e+10 -6.3950572e+11)
(-2.7431026e+12 -4.3467667e+10 -6.3308903e+11)
(-1.945027e+12 -2.555788e+10 -5.5103437e+11)
(-1.9418655e+12 -3.0106724e+10 -5.4114591e+11)
(-1.3921257e+12 -6.9544125e+10 -5.7068424e+11)
(-1.4294696e+12 -7.8203468e+10 -5.7309399e+11)
(-1.9341225e+12 -1.2450212e+10 -5.4944468e+11)
(-1.9287052e+12 -2.9627543e+10 -5.509207e+11)
(-1.4035655e+12 -5.4159586e+10 -5.7129096e+11)
(-1.3758212e+12 -6.6351904e+10 -5.8350723e+11)
(-1.0675855e+12 -1.6289581e+11 -2.4263828e+11)
(-1.518287e+12 -1.222765e+11 2.2354357e+11)
(-1.5187675e+12 -9.6310764e+10 2.3487767e+11)
(-1.0628075e+12 -1.5490468e+11 -1.9305037e+11)
(-1.5472061e+12 -1.1590794e+11 2.4083736e+11)
(-1.5179178e+12 -7.810919e+10 2.3261025e+11)
(-1.0784711e+12 -1.428005e+11 -2.0990526e+11)
(-1.0526542e+12 -1.3788302e+11 -2.0000347e+11)
(-1.9402724e+12 -6.566426e+09 -5.5416134e+11)
(-1.9347404e+12 -1.4833335e+10 -5.4421192e+11)
(-1.4109891e+12 -5.0131559e+10 -5.8195994e+11)
(-1.3755937e+12 -4.7579147e+10 -5.7805567e+11)
(-1.9376877e+12 -2.2181385e+09 -5.5354425e+11)
(-1.9332902e+12 -2.5898194e+10 -5.5730084e+11)
(-1.3943758e+12 -3.4224866e+10 -5.7860575e+11)
(-1.3760071e+12 -5.6088314e+10 -5.9210358e+11)
(-1.0644257e+12 -1.2706627e+11 -2.3826613e+11)
(-1.5223526e+12 -1.0796709e+11 2.1842051e+11)
(-1.520068e+12 -7.5201475e+10 2.3003938e+11)
(-1.0560002e+12 -1.1760613e+11 -1.9566607e+11)
(-1.5421447e+12 -9.1916491e+10 2.3867487e+11)
(-1.5123145e+12 -5.945245e+10 2.3000894e+11)
(-1.0725594e+12 -1.0736856e+11 -2.1262075e+11)
(-1.0458059e+12 -1.0756424e+11 -2.1411115e+11)
(-2.1638395e+12 -6.694589e+10 3.2313997e+11)
(-2.1682848e+12 -7.0408822e+10 3.2690657e+11)
(-2.7376736e+12 -2.131102e+10 3.4474529e+11)
(-2.7382643e+12 -4.5948558e+10 3.4292902e+11)
(-2.1639086e+12 -5.4671049e+10 3.2822189e+11)
(-2.1632154e+12 -6.5328032e+10 3.1536089e+11)
(-2.736809e+12 -2.4682892e+10 3.3552835e+11)
(-2.727442e+12 -5.1123773e+10 3.3280229e+11)
(-2.1651956e+12 -5.147721e+10 3.2032894e+11)
(-2.1667057e+12 -6.0903408e+10 3.236615e+11)
(-2.7382382e+12 -1.5242539e+10 3.4047221e+11)
(-2.7329822e+12 -3.8424286e+10 3.3400626e+11)
(-2.1805589e+12 -5.1949072e+10 3.3987037e+11)
(-2.1727163e+12 -5.2755008e+10 3.2132684e+11)
(-2.7355318e+12 -2.0813395e+10 3.4891137e+11)
(-2.7198767e+12 -5.1419826e+10 3.446749e+11)
(-2.1622301e+12 -7.156076e+10 3.2925771e+11)
(-2.1718928e+12 -7.1756835e+10 3.3411144e+11)
(-2.7271524e+12 -2.1687733e+10 3.4999162e+11)
(-2.7308228e+12 -4.8113841e+10 3.5066241e+11)
(-2.1660335e+12 -6.5301695e+10 3.3690831e+11)
(-2.1640119e+12 -7.2466348e+10 3.2393023e+11)
(-2.7348115e+12 -3.054721e+10 3.4467991e+11)
(-2.7276556e+12 -5.7368604e+10 3.4305549e+11)
(-2.169437e+12 -6.3456993e+10 3.2684555e+11)
(-2.1696356e+12 -7.2207405e+10 3.2805819e+11)
(-2.7410098e+12 -2.2329696e+10 3.4011349e+11)
(-2.7447747e+12 -4.4843947e+10 3.4227278e+11)
(-2.1673717e+12 -6.1083106e+10 3.3714905e+11)
(-2.1687389e+12 -6.272745e+10 3.2317175e+11)
(-2.7345218e+12 -2.5661623e+10 3.47507e+11)
(-2.7229513e+12 -5.938607e+10 3.4539699e+11)
(-2.1864023e+12 -5.0745104e+10 3.2312796e+11)
(-2.1839989e+12 -6.3063902e+10 3.251528e+11)
(-2.767562e+12 -2.0930071e+10 3.3781543e+11)
(-2.7695111e+12 -4.2433089e+10 3.3648502e+11)
(-2.1864027e+12 -4.8480844e+10 3.3496431e+11)
(-2.1816431e+12 -5.3334823e+10 3.1995083e+11)
(-2.7685823e+12 -2.6915054e+10 3.4899594e+11)
(-2.7560765e+12 -5.7843673e+10 3.4465689e+11)
(-2.1836495e+12 -6.1326992e+10 3.2522202e+11)
(-2.1815793e+12 -6.2688829e+10 3.2937079e+11)
(-2.7546494e+12 -1.204716e+10 3.4805003e+11)
(-2.7652359e+12 -4.321568e+10 3.5240021e+11)
(-2.1826129e+12 -5.3148359e+10 3.3166372e+11)
(-2.1785724e+12 -6.1933449e+10 3.1742655e+11)
(-2.7662501e+12 -2.7668422e+10 3.4179277e+11)
(-2.7606645e+12 -5.451458e+10 3.4140992e+11)
(-2.21248e+12 -5.0902556e+10 3.3129804e+11)
(-2.2111679e+12 -5.6390933e+10 3.3220161e+11)
(-2.7878684e+12 -2.3951784e+10 3.5246171e+11)
(-2.7905091e+12 -4.8132802e+10 3.5270793e+11)
(-2.207016e+12 -5.703957e+10 3.4408273e+11)
(-2.2196535e+12 -5.7029337e+10 3.3467833e+11)
(-2.7772403e+12 -3.4956105e+10 3.6136007e+11)
(-2.7723536e+12 -7.1046648e+10 3.6401168e+11)
(-2.2110931e+12 -5.5853019e+10 3.2959224e+11)
(-2.206053e+12 -6.2175681e+10 3.3292773e+11)
(-2.7801811e+12 -2.1523025e+10 3.5312256e+11)
(-2.7788361e+12 -4.6355836e+10 3.472512e+11)
(-2.1926248e+12 -4.3694103e+10 3.3067859e+11)
(-2.1895138e+12 -5.7926678e+10 3.1805007e+11)
(-2.7807447e+12 -3.1205172e+10 3.4576604e+11)
(-2.7699624e+12 -5.5708528e+10 3.4022073e+11)
(-4.1563263e+12 3.1871863e+10 -3.4144748e+11)
(-2.9038653e+12 -1.8449296e+10 -1.0074646e+11)
(-2.8989754e+12 -2.2972833e+10 -9.9052113e+10)
(-2.9392624e+12 -1.9217511e+10 -8.6429401e+10)
(-2.9348103e+12 -2.787341e+10 -8.439675e+10)
(-2.8964964e+12 -1.2677693e+10 -1.1147421e+11)
(-2.9326238e+12 -1.3223814e+10 -9.627365e+10)
(-2.8979823e+12 -9.6918324e+09 -1.1254315e+11)
(-2.9350634e+12 -1.5210247e+10 -9.6900771e+10)
(-2.8847233e+12 -1.9386597e+10 -9.0149211e+10)
(-2.9436575e+12 -1.8660853e+10 -6.4301363e+10)
(-2.8815328e+12 -2.8281596e+10 -8.7225867e+10)
(-2.9377037e+12 -3.2257298e+10 -6.2448345e+10)
(-2.8768406e+12 -1.3641971e+10 -1.000816e+11)
(-2.9374157e+12 -1.2336587e+10 -7.2806904e+10)
(-2.8792447e+12 -1.5029206e+10 -1.0024895e+11)
(-2.9406332e+12 -2.0256907e+10 -7.3242701e+10)
(-2.509198e+12 -2.7827334e+10 -9.1621579e+10)
(-2.5306393e+12 -2.9683591e+10 -9.3097064e+10)
(-2.4832829e+12 -2.4023316e+10 -9.4292754e+10)
(-2.5256559e+12 -2.5464489e+10 -9.3243954e+10)
(-2.4865268e+12 -3.0246815e+10 -9.4599883e+10)
(-2.4881465e+12 -2.5790172e+10 -9.4121798e+10)
(-2.5397756e+12 -2.5926362e+10 -8.4060852e+10)
(-2.4893517e+12 -2.965555e+10 -9.426023e+10)
(-2.4839008e+12 -2.6658159e+10 -9.5615591e+10)
(-2.5278469e+12 -2.7884189e+10 -9.4382349e+10)
(-2.9348363e+12 -1.5434918e+10 -1.0376366e+11)
(-2.9614159e+12 -1.6583872e+10 -8.9414988e+10)
(-2.9303714e+12 -1.8789919e+10 -1.0275485e+11)
(-2.9559252e+12 -2.2847437e+10 -8.8600884e+10)
(-2.9277079e+12 -1.0346975e+10 -1.1601987e+11)
(-2.9553156e+12 -1.1423067e+10 -1.0001629e+11)
(-2.9269744e+12 -4.8498868e+09 -1.191161e+11)
(-2.9567324e+12 -1.1001083e+10 -1.0169141e+11)
(-3.012259e+12 -8.651451e+09 -1.1114022e+11)
(-3.0114438e+12 -6.3389298e+09 -1.1465816e+11)
(-3.0371872e+12 -6.0744207e+09 -1.3989706e+11)
(-3.0327276e+12 -1.3527684e+09 -1.4621061e+11)
(-3.4976128e+12 -2.078368e+10 -1.3203608e+11)
(-3.0179999e+12 -1.2991659e+10 -9.8893748e+10)
(-3.0132571e+12 -1.9248224e+10 -9.9248813e+10)
(-3.038947e+12 -1.5377549e+10 -1.2911759e+11)
(-3.0435659e+12 -1.0373329e+10 -1.2773254e+11)
(-3.5030366e+12 -2.2792553e+10 -1.1622525e+11)
(-3.4699866e+12 -1.8244961e+10 -1.5931925e+11)
(-3.464209e+12 -1.4764831e+10 -1.504574e+11)
(-2.492058e+12 -3.0684196e+10 -9.5345423e+10)
(-2.4269955e+12 -2.1126175e+10 -9.7273943e+10)
(-2.4871842e+12 -2.26192e+10 -9.4746245e+10)
(-2.4297031e+12 -3.0708874e+10 -9.7867591e+10)
(-2.4494879e+12 -2.2450916e+10 -9.477356e+10)
(-2.5137235e+12 -2.2155035e+10 -8.4295107e+10)
(-2.5194602e+12 -3.1768535e+10 -8.4610895e+10)
(-2.4523786e+12 -3.1535902e+10 -9.5410529e+10)
(-2.4895332e+12 -3.5703622e+10 -9.6250373e+10)
(-2.4238293e+12 -2.4409248e+10 -9.9274799e+10)
(-2.4874371e+12 -2.5612813e+10 -9.633833e+10)
(-2.4245973e+12 -3.6091833e+10 -9.9672874e+10)
(-2.4485725e+12 -2.5101244e+10 -9.6628812e+10)
(-2.515044e+12 -2.4790959e+10 -8.5854247e+10)
(-2.4479218e+12 -3.6431161e+10 -9.6720957e+10)
(-2.5153036e+12 -3.6331894e+10 -8.5775279e+10)
(-2.4045996e+12 -1.7751876e+10 -8.9167856e+10)
(-2.40494e+12 -2.8386043e+10 -8.9321139e+10)
(-2.4610404e+12 -1.9484106e+10 -8.6362042e+10)
(-2.4646408e+12 -3.0223293e+10 -8.675987e+10)
(-2.4602869e+12 -2.303394e+10 -8.8928323e+10)
(-2.4607864e+12 -3.5133052e+10 -8.9440667e+10)
(-2.3999348e+12 -2.1947352e+10 -9.2962376e+10)
(-2.4002586e+12 -3.2807601e+10 -9.3023696e+10)
(-2.4821388e+12 -2.1237805e+10 -8.8412427e+10)
(-3.0973999e+12 -1.5553244e+10 -1.2336263e+11)
(-3.0801366e+12 -1.9605519e+10 -1.3775693e+11)
(-3.0802277e+12 -1.3421191e+10 -1.3623925e+11)
(-3.0997816e+12 -2.3826202e+10 -1.2419585e+11)
(-2.4777728e+12 -2.7406801e+10 -9.1996161e+10)
(-3.0934143e+12 -1.3407311e+10 -1.679928e+11)
(-3.1063034e+12 -2.1541915e+10 -1.6435478e+11)
(-3.1164822e+12 -2.157047e+10 -1.5221632e+11)
(-3.100997e+12 -1.6504836e+10 -1.5901948e+11)
(-3.1236999e+12 -1.260247e+10 -1.468341e+11)
(-3.1250376e+12 -8.7461964e+09 -1.4391567e+11)
(-3.1313313e+12 -1.1219444e+10 -1.3772029e+11)
(-3.131997e+12 -1.7717099e+10 -1.396874e+11)
(-2.9026718e+12 -6.1830348e+09 -1.1164438e+11)
(-2.8920267e+12 -4.7193567e+09 -1.1465125e+11)
(-2.9391467e+12 -6.1965002e+09 -9.6851788e+10)
(-2.9288e+12 -9.5601294e+09 -9.8743288e+10)
(-2.8918291e+12 1.8282017e+09 -1.1040489e+11)
(-2.9283184e+12 1.2727222e+09 -9.6334048e+10)
(-2.8983479e+12 1.3000483e+09 -1.1066471e+11)
(-2.9335249e+12 -3.1433929e+09 -9.7005e+10)
(-2.872523e+12 -4.3307867e+08 -9.9124374e+10)
(-2.9339617e+12 1.4543319e+09 -7.3099001e+10)
(-2.8780072e+12 -4.0501539e+09 -9.9329124e+10)
(-2.9396899e+12 -8.3532417e+09 -7.3524003e+10)
(-2.8822296e+12 -6.7639688e+09 -1.0034649e+11)
(-2.9438012e+12 -5.6513682e+09 -7.4429861e+10)
(-2.8734352e+12 -9.7624064e+09 -1.0158948e+11)
(-2.9334378e+12 -1.4429281e+10 -7.5620424e+10)
(-2.9332804e+12 -4.9476884e+09 -1.166667e+11)
(-2.9625214e+12 -4.3044641e+09 -1.0070516e+11)
(-2.9229355e+12 -1.0961729e+09 -1.2120364e+11)
(-2.9506521e+12 -5.2592135e+09 -1.0451266e+11)
(-3.0193197e+12 -3.0012895e+09 -1.1250733e+11)
(-3.007325e+12 -2.2016172e+09 -1.1766183e+11)
(-3.0300306e+12 1.7729881e+09 -1.4944932e+11)
(-3.0441462e+12 -1.4650515e+09 -1.4163667e+11)
(-3.5125817e+12 -3.9284694e+09 -1.3813895e+11)
(-3.0072134e+12 5.7313959e+09 -1.073027e+11)
(-3.0126818e+12 3.0659532e+09 -1.0904887e+11)
(-3.0330315e+12 7.3697142e+09 -1.4042144e+11)
(-3.0267032e+12 8.6448008e+09 -1.3774155e+11)
(-3.5000362e+12 -3.7531377e+09 -1.2949821e+11)
(-2.919865e+12 4.0893052e+09 -1.1332431e+11)
(-2.9509818e+12 3.6492234e+09 -9.9864898e+10)
(-2.9264856e+12 4.5840884e+09 -1.1424832e+11)
(-2.9570609e+12 5.5975251e+08 -1.0052409e+11)
(-3.4626254e+12 -6.5431054e+09 -1.6522526e+11)
(-3.478371e+12 6.2269433e+09 -1.7630924e+11)
(-3.5346666e+12 1.59468e+10 -2.1770718e+11)
(-3.5128271e+12 -7.3649382e+09 -2.0345529e+11)
(-3.5326905e+12 -5.6654132e+09 -1.6577955e+11)
(-3.5517796e+12 6.8988851e+09 -1.7823178e+11)
(-3.5322821e+12 -1.6962182e+10 -1.9750628e+11)
(-3.5295412e+12 -1.7722253e+10 -1.6943822e+11)
(-3.5315181e+12 -1.8303919e+10 -1.5963141e+11)
(-3.5262183e+12 -1.3172297e+10 -1.9400619e+11)
(-3.2285471e+12 -7.8860382e+09 -1.5091851e+11)
(-3.2191773e+12 -7.4987516e+09 -1.6743033e+11)
(-3.2148285e+12 2.2360205e+09 -1.6827994e+11)
(-3.2238782e+12 -3.4729135e+09 -1.5392641e+11)
(-3.2054589e+12 -2.3945855e+09 -1.8373156e+11)
(-3.2208382e+12 -2.2526853e+10 -1.7987561e+11)
(-3.2093501e+12 -1.9892088e+10 -1.7914251e+11)
(-3.1955169e+12 -5.6620502e+09 -1.8281438e+11)
(-3.1579289e+12 -5.1775763e+09 -1.5566092e+11)
(-3.1561227e+12 -7.4945594e+09 -1.5458406e+11)
(-3.1778493e+12 -8.5736023e+09 -1.4004544e+11)
(-3.1763067e+12 -1.1533355e+10 -1.4403018e+11)
(-3.1596529e+12 -1.9123798e+10 -1.630872e+11)
(-3.1504713e+12 -2.0300286e+10 -1.7349258e+11)
(-3.1359121e+12 -8.0940976e+09 -1.7674953e+11)
(-3.1452527e+12 -1.2194004e+10 -1.6710385e+11)
(-3.8150828e+12 2.1054634e+10 -1.7665531e+11)
(-3.8492152e+12 8.1489051e+09 -1.3455925e+11)
(-3.6943183e+12 4.7468341e+10 -2.6981901e+11)
(-3.9407242e+12 1.4476999e+10 -1.6351812e+11)
(-3.3958573e+12 2.2196161e+10 -1.3469131e+11)
(-3.4178579e+12 8.6595956e+09 -1.0751603e+11)
(-3.3612804e+12 3.3018249e+09 -1.0356589e+11)
(-3.0344651e+12 -1.0281594e+10 1.9994206e+11)
(-3.0393409e+12 -4.2366766e+10 1.9772427e+11)
(-3.1367881e+12 -7.0210541e+09 3.1403943e+11)
(-3.1411427e+12 -4.742981e+10 3.102741e+11)
(-3.0054546e+12 -7.9192166e+09 3.7713973e+10)
(-2.9951171e+12 -2.9528393e+10 4.0181944e+10)
(-3.105385e+12 -1.1486843e+10 1.3130113e+11)
(-3.0936718e+12 -4.2013024e+10 1.3430233e+11)
(-2.9907717e+12 -1.0788656e+10 3.8054605e+10)
(-3.0983989e+12 -1.0593672e+10 1.3409607e+11)
(-2.9978662e+12 -2.7428131e+10 3.8167548e+10)
(-3.100599e+12 -3.6728385e+10 1.3267225e+11)
(-3.0433129e+12 -8.4409139e+09 1.9563691e+11)
(-3.1448848e+12 -1.4828579e+10 3.0494014e+11)
(-3.0368527e+12 -4.4864399e+10 2.0145074e+11)
(-3.1320507e+12 -5.4018442e+10 3.0812009e+11)
(-2.9098392e+12 -8.6857378e+09 -6.3163425e+10)
(-3.0153195e+12 -6.4762636e+09 3.192164e+09)
(-2.9128086e+12 -1.3718422e+10 -6.2830332e+10)
(-3.0185307e+12 -2.0653218e+10 2.7322251e+09)
(-2.8729948e+12 -1.5736518e+09 -9.3554026e+10)
(-2.8588509e+12 -3.3021379e+09 -9.5084808e+10)
(-2.9400861e+12 -2.4534274e+09 -6.8478396e+10)
(-2.9255443e+12 -9.2124427e+09 -6.9063783e+10)
(-2.8681907e+12 -5.4172983e+09 -9.6540847e+10)
(-2.9381427e+12 -6.3440408e+09 -7.068153e+10)
(-2.8727264e+12 -5.9952177e+09 -9.5782314e+10)
(-2.9407115e+12 -1.1328543e+10 -7.0827973e+10)
(-2.9124461e+12 -3.2650947e+09 -6.0842011e+10)
(-3.0134892e+12 -2.9671825e+09 2.2060293e+09)
(-2.901041e+12 -1.1309269e+10 -6.007355e+10)
(-2.9994917e+12 -1.8325543e+10 2.5722645e+09)
(-2.9029599e+12 -1.1707287e+10 -5.8765735e+10)