/*--------------------------------*- C++ -*----------------------------------*\
  =========                 |
  \\      /  F ield         | OpenFOAM: The Open Source CFD Toolbox
   \\    /   O peration     | Website:  https://openfoam.org
    \\  /    A nd           | Version:  7
     \\/     M anipulation  |
\*---------------------------------------------------------------------------*/
FoamFile
{
    version     2.0;
    format      ascii;
    class       surfaceScalarField;
    location    "0";
    object      phi;
}
// * * * * * * * * * * * * * * * * * * * * * * * * * * * * * * * * * * * * * //

dimensions      [0 3 -1 0 0 0 0];

internalField   nonuniform List<scalar> 
101481
(
-4.2933399e-07
-9.8899899e-06
0.0002301392
-3.5810532e-07
-9.9468713e-06
0.00023013561
-2.31907e-07
-9.9037744e-06
0.0002301287
-9.9343787e-06
0.00023012634
4.604948e-07
-3.9381367e-07
2.8461766e-06
0.00022294892
2.8460544e-06
0.00022295418
-4.8378625e-07
1.0084311e-06
0.00023399902
-3.6831282e-07
1.0085435e-06
0.00023400374
1.9138324e-07
-1.45215e-07
0.00024603945
1.3854335e-05
-1.2087757e-05
-1.2312223e-05
1.4389785e-05
0.00024602213
1.4363425e-05
-1.2337745e-05
2.486372e-07
2.8458237e-06
0.00022294082
2.8456201e-06
0.00022294389
-2.6174094e-07
1.0081975e-06
0.00023400624
-1.5990249e-07
1.0082973e-06
0.00023400843
3.8259753e-07
-2.9115736e-07
9.3678819e-08
0.00018510287
4.6642041e-07
-3.5553018e-07
-2.9446316e-07
0.00022414089
9.3855003e-08
0.00018510735
-2.9437775e-07
0.00022413658
-4.788808e-07
1.1378364e-06
0.00023546423
-3.6569458e-07
1.1377354e-06
0.00023547756
9.2373837e-07
-7.9091539e-07
-1.044882e-06
0.00023368232
-1.0440419e-06
0.00023361054
3.8436243e-08
4.6213833e-08
0.00024605913
1.3865303e-05
-1.2078106e-05
-1.2323373e-05
1.4381066e-05
0.00024605228
1.4375665e-05
-1.2328404e-05
-1.2072229e-05
1.3869952e-05
-0.00019747569
1.4276437e-07
0.00024159721
-1.1545367e-07
1.1110493e-06
1.8644306e-07
-1.3744859e-07
-1.1892098e-05
-1.2318566e-05
1.150482e-05
1.2149695e-05
0.00019745624
1.2130299e-05
-1.2341937e-05
0.00024152559
1.1151026e-06
-4.9196662e-05
1.4443928e-08
-3.5715556e-08
6.1554051e-05
3.7340206e-06
3.5874675e-06
-2.8680616e-06
-2.9352441e-06
1.2413915e-08
-3.7449466e-08
3.7442432e-06
3.6514845e-06
-3.0442903e-06
4.9832718e-05
6.2438745e-08
3.6967416e-06
3.7581755e-06
-3.0436623e-06
-2.9334187e-06
5.9979504e-08
6.2655811e-05
3.73447e-06
-2.9473672e-06
3.6234765e-06
-2.8894591e-06
-4.9831141e-05
6.2653451e-05
3.7405662e-06
3.6171001e-06
-2.8959068e-06
-2.9408569e-06
-2.9398149e-06
3.6900031e-06
-3.0369584e-06
3.7646773e-06
6.2908444e-07
-5.9187775e-07
1.0559914e-05
-0.00022818856
1.0632711e-05
-0.00022811974
6.2119228e-08
1.0081952e-06
0.00023401252
1.0081707e-06
0.00023401024
2.0647961e-07
9.3680788e-08
0.00018509662
2.523076e-07
-1.543308e-07
-2.9463449e-07
0.00022414572
9.3324929e-08
0.00018509892
-2.9464615e-07
0.00022414351
-2.5945061e-07
-2.7247694e-06
1.1376106e-06
0.00023548715
-2.7247577e-06
-1.5803022e-07
1.137585e-06
0.00023549418
2.4506758e-07
-1.4928372e-07
0.00022496227
1.1797597e-05
1.1775311e-05
0.00022495557
1.1804152e-05
1.1768301e-05
3.1244065e-08
-2.3783144e-08
4.4572078e-08
1.4993522e-05
3.8633391e-07
-2.9457593e-07
9.324543e-08
0.00018462336
4.5880745e-07
-3.504135e-07
2.975695e-07
0.00022487258
4.4538908e-08
1.4993881e-05
9.3323273e-08
0.00018461983
2.9767547e-07
0.00022485987
-4.6267713e-07
3.0218253e-08
0.00023547084
-3.5391658e-07
3.0031429e-08
0.00023549139
-6.6699563e-07
-1.0455439e-06
0.00023373867
-5.5092174e-07
-1.045979e-06
0.00023378235
8.8744104e-07
-7.5977157e-07
-3.7557622e-07
0.00022385748
-3.7512741e-07
0.00022378861
8.5519575e-07
0.00023176605
-7.3740174e-07
-1.4464317e-06
0.00023169076
-1.4455966e-06
-0.00022846628
-0.00022837741
-2.9657716e-07
-3.4996881e-07
0.00024606139
1.4386058e-05
-1.2318652e-05
-1.2083222e-05
1.3860379e-05
0.00019749147
3.4742134e-08
5.0602869e-08
-1.1883176e-05
1.1513435e-05
1.2143307e-05
-1.2329479e-05
-2.4050445e-08
-0.0001974849
0.00024158407
1.1137129e-06
0.00024159717
5.0360108e-08
1.1130924e-06
-1.2333768e-05
-1.1878339e-05
1.2139508e-05
1.1516382e-05
-4.9199738e-05
-2.3438036e-08
1.1667606e-08
6.1558316e-05
-2.8656454e-06
3.5902316e-06
3.7317965e-06
-2.9379189e-06
-2.6264156e-08
1.1520327e-08
-2.9194013e-06
3.6543306e-06
3.7419194e-06
-3.0469224e-06
4.9837062e-05
1.2755596e-08
-3.0413865e-06
3.7610813e-06
3.6945035e-06
-2.9360935e-06
1.1834832e-08
6.2661485e-05
3.621302e-06
3.7373757e-06
-2.9450047e-06
-2.8923391e-06
-4.9836435e-05
4.2111954e-08
6.266056e-05
-2.8936085e-06
3.6200203e-06
3.7385175e-06
-2.9437052e-06
4.6530339e-08
3.6931133e-06
-2.9373916e-06
3.7623704e-06
-3.0399892e-06
4.9197664e-05
3.6555251e-06
3.7404007e-06
-3.0481802e-06
6.1555663e-05
3.7303753e-06
-2.9391079e-06
-2.8642351e-06
3.5912845e-06
-5.9549961e-05
-6.2448956e-05
1.6999454e-07
-1.2006594e-07
4.7802638e-06
-5.4310694e-05
-5.5875879e-05
1.6753983e-07
4.9050839e-05
-3.5433087e-08
-2.7682595e-06
-2.8769669e-06
2.9618337e-06
3.1623565e-06
4.9970983e-05
6.0144141e-08
-2.8957591e-06
3.1467785e-06
3.0160904e-06
-2.7934813e-06
6.4475874e-07
-3.2608852e-08
3.9356185e-07
5.5992016e-08
2.6037331e-07
-4.9970154e-05
6.2463377e-05
2.5923419e-07
-2.799426e-06
-2.8896093e-06
3.0111826e-06
3.1513457e-06
-5.5895197e-05
4.7797138e-06
-9.9433328e-10
-1.2442712e-05
1.2195466e-08
1.5540071e-05
9.6702302e-07
9.9643867e-07
-6.6251432e-07
-6.7549818e-07
-1.226361e-05
-8.7546888e-09
1.523424e-05
9.9590624e-07
9.5683367e-07
-6.7215073e-07
-6.5600906e-07
-2.3023229e-10
-1.5595625e-05
-9.031281e-09
9.464411e-07
-7.0668893e-07
-7.3749071e-07
9.7094393e-07
-1.5876255e-05
1.2433883e-08
9.7523945e-07
-7.373529e-07
-7.1095294e-07
9.5869429e-07
-5.8993389e-09
-1.2543453e-05
5.9732324e-09
9.2603471e-07
9.5534411e-07
-7.4182634e-07
-7.2819437e-07
-9.227509e-09
9.572356e-07
9.1883997e-07
-7.1896299e-07
-7.3600247e-07
1.0405645e-08
9.2623929e-07
9.4298827e-07
-7.5874046e-07
-7.3282064e-07
-9.235425e-09
-1.2421083e-05
1.5687691e-05
1.5524357e-08
9.2302741e-07
9.5858656e-07
-7.3849633e-07
-7.192808e-07
-1.2563688e-05
1.5904651e-05
9.5863738e-07
9.257033e-07
-7.2919372e-07
-7.4119905e-07
1.0301606e-08
-7.338143e-07
9.2605801e-07
9.4610943e-07
-7.5812735e-07
1.5514352e-08
-7.5797146e-07
9.4327764e-07
9.2104664e-07
-7.2594764e-07
-1.2464207e-05
1.7449611e-08
1.5568366e-05
9.9910508e-07
9.6598432e-07
-6.6437761e-07
-6.7565996e-07
1.9209332e-08
9.5812086e-07
-7.1224937e-07
-7.3750637e-07
9.7793854e-07
-1.2326584e-05
1.4791478e-08
1.5329199e-05
-6.7579406e-07
9.9631187e-07
9.6029583e-07
-6.5730066e-07
1.5244499e-08
9.5057432e-07
9.7245343e-07
-7.4014334e-07
-7.0727245e-07
-5.8654619e-09
-1.2463544e-05
1.5567551e-05
9.6746934e-07
9.975258e-07
-6.7719091e-07
-6.6272939e-07
-1.2326345e-05
1.5328874e-05
9.9783578e-07
9.5874745e-07
-6.5889315e-07
-6.7419621e-07
4.7821522e-09
-1.5687414e-05
-7.08837e-07
9.4894122e-07
9.7405204e-07
-7.385346e-07
-1.5903862e-05
9.5968704e-07
9.7628216e-07
-7.3905005e-07
-7.1063229e-07
1.2420901e-05
1.4226305e-08
-7.2754684e-07
9.1936652e-07
9.4493714e-07
-7.5631654e-07
1.5162435e-08
-7.2092682e-07
9.2142017e-07
9.6018234e-07
-7.3682626e-07
1.2563042e-05
-7.5969613e-07
9.444255e-07
9.2770419e-07
-7.3214256e-07
-7.4278911e-07
9.569994e-07
9.2725884e-07
-7.2747946e-07
4.7077385e-07
-4.2414144e-07
1.0574397e-05
-0.00022830448
1.0629452e-05
-0.00022825887
6.6670338e-07
-6.5148183e-07
-2.4330974e-06
-0.00022149802
-2.433951e-06
-0.00022142414
7.768948e-07
-6.7243281e-07
-6.0370593e-07
-6.0405544e-07
5.9877909e-08
-2.9472872e-07
0.00022414954
-2.9469116e-07
0.00022414709
5.9866868e-08
-2.7248247e-06
3.6790117e-08
1.1375753e-06
0.00023550305
-2.7247704e-06
1.1375525e-06
0.00023549928
-5.6608295e-08
0.00022496716
1.1780074e-05
1.1793182e-05
0.00022497074
1.1786898e-05
1.1786668e-05
1.6848702e-08
4.4547936e-08
1.4993029e-05
2.0894312e-07
-1.2785227e-07
9.315283e-08
0.00018462774
2.4854692e-07
-1.5140669e-07
2.974475e-07
0.0002248887
4.4595012e-08
1.4993207e-05
9.3076686e-08
0.00018462558
2.9747894e-07
0.00022488177
-2.5086355e-07
-1.5248904e-07
2.989539e-08
0.0002355067
-1.5240639e-07
-1.5197015e-07
2.9821901e-08
0.00023551787
2.3643702e-07
-1.4322325e-07
0.00022531026
1.3883254e-05
1.3860908e-05
-1.4180239e-05
-1.4157538e-05
-4.5271993e-08
7.2274755e-08
-3.0074479e-06
6.8636785e-05
-3.007547e-06
-4.3979248e-08
6.863658e-05
0.0002252996
1.3854689e-05
1.3888371e-05
-1.4151121e-05
-1.4185562e-05
-7.0554286e-08
6.863351e-05
6.8635741e-05
2.8412402e-08
-2.1627681e-08
1.3630563e-05
3.1314355e-08
-2.3880137e-08
4.4291875e-08
1.5034946e-05
3.7811763e-07
-2.8879413e-07
6.873222e-08
0.00018476287
4.4438744e-07
-3.3991919e-07
1.7424618e-08
0.00022478069
1.3630889e-05
4.4296176e-08
1.5034657e-05
6.8795672e-08
0.00018475242
1.7535654e-08
0.00022476104
-4.4177813e-07
-1.0463297e-06
0.00023381645
-3.3833115e-07
-1.0465666e-06
0.00023384249
6.4060304e-07
-5.2911001e-07
-3.7609775e-07
0.00022395346
-3.7587661e-07
0.00022391146
-6.2574429e-07
0.00023182845
-1.4471734e-06
0.00023187652
-5.1884724e-07
-1.4475046e-06
7.3080184e-07
-6.256017e-07
-6.2960641e-08
0.0001841677
8.192359e-07
0.00022268927
-7.0639762e-07
-3.9116003e-07
-6.2831316e-08
0.00018411103
0.00022261598
-3.9072895e-07
4.6819986e-08
-3.6315459e-08
5.8567653e-05
2.2652656e-06
2.270211e-06
-4.9867818e-06
-4.9916363e-06
5.8567662e-05
2.2646743e-06
2.2710292e-06
-0.00023089558
-0.00023080527
-2.0858894e-06
-0.00022904599
-0.00022913471
-3.3367638e-07
-0.00022844165
-0.00022845719
-2.9548861e-07
1.9339804e-07
1.5659288e-05
2.7577475e-09
-7.2868509e-07
9.0426702e-07
-7.4780926e-07
9.4000878e-07
0.0001974941
-1.2324575e-05
-1.1888342e-05
1.2147379e-05
1.1509416e-05
0.00024161645
1.1121914e-06
-4.9837624e-05
4.9571241e-09
6.2662551e-05
3.7360946e-06
3.6224492e-06
-2.8913161e-06
-2.9464943e-06
8.1869103e-09
3.6957648e-06
3.7599038e-06
-2.9349816e-06
-3.0426481e-06
4.9199804e-05
3.7431421e-06
3.6530952e-06
-3.04571e-06
-2.9205556e-06
6.1558609e-05
3.58899e-06
3.7329932e-06
-2.9368262e-06
-2.866993e-06
4.905358e-05
1.2986288e-07
1.2554008e-08
2.9639925e-06
-2.7660443e-06
-2.8794764e-06
3.1606473e-06
6.1274059e-07
5.9547463e-05
1.2640366e-08
3.9410554e-07
-4.9976663e-05
6.2462497e-05
1.0085147e-08
2.6005551e-07
1.138057e-08
-2.8936583e-06
-2.7961136e-06
3.1489858e-06
3.0145762e-06
-2.8594941e-08
-6.2464362e-05
-5.9542277e-05
4.7807832e-06
-5.5893303e-05
-5.4300419e-05
5.2670777e-08
-5.4306104e-05
-5.5890493e-05
4.7810701e-06
-1.1170825e-07
4.9976124e-05
-2.7972348e-06
-2.892475e-06
3.0136242e-06
3.1498042e-06
4.9051208e-05
-2.7647914e-06
3.1595769e-06
-2.8805486e-06
2.964716e-06
-5.9847263e-07
2.5980198e-07
3.9418392e-07
1.2264168e-05
-9.491769e-09
-1.5596448e-05
2.8750679e-09
-7.0607791e-07
9.4709376e-07
9.7043632e-07
-7.3821142e-07
-8.7282743e-09
2.8723011e-09
1.5235582e-05
-6.5539405e-07
9.5750439e-07
9.9537221e-07
-6.7283002e-07
-1.2443667e-05
-8.0944327e-11
1.5541261e-05
9.6651844e-07
9.9711811e-07
-6.7486912e-07
-6.6323402e-07
-1.5877256e-05
4.8068857e-10
-7.3685779e-07
9.7591191e-07
9.5821111e-07
-7.115828e-07
1.2362336e-05
-1.389548e-09
2.8009259e-09
-7.2530528e-07
9.1714442e-07
9.409755e-07
-7.5667779e-07
-3.890533e-09
2.9072927e-09
-7.1835068e-07
9.1946184e-07
9.5667727e-07
-7.365948e-07
-1.2544488e-05
-6.2206996e-09
9.2545371e-07
9.561516e-07
-7.4119882e-07
-7.2894536e-07
-1.8515145e-09
-7.5816022e-07
9.4369546e-07
9.2572584e-07
-7.3353115e-07
1.2564637e-05
7.9324658e-10
-7.3315541e-07
9.2674888e-07
9.4557248e-07
-7.588472e-07
-3.0268538e-10
1.5905713e-05
-7.2852703e-07
9.2642233e-07
9.5809481e-07
-7.4191645e-07
-1.242231e-05
1.5689412e-05
3.1379734e-09
9.2253361e-07
9.5929977e-07
-7.3790161e-07
-7.1999367e-07
3.1897564e-09
-7.5741754e-07
9.4404556e-07
9.2047746e-07
-7.2661593e-07
-8.1562533e-09
-1.2327528e-05
2.8745052e-09
1.5330477e-05
9.5978141e-07
9.9707616e-07
-6.7521547e-07
-6.5803342e-07
-1.2465591e-05
1.5569534e-05
9.986064e-07
9.666347e-07
-6.6372459e-07
-6.7633621e-07
9.2129143e-09
9.7742688e-07
9.5878765e-07
-7.1166707e-07
-7.3816862e-07
3.0269298e-09
-7.3954574e-07
9.7318248e-07
9.5007462e-07
-7.07993e-07
1.2327436e-05
-4.4387168e-09
-1.5689303e-05
-7.0830354e-07
9.4974701e-07
9.7349023e-07
-7.39226e-07
-3.6164645e-09
1.5330358e-05
-6.5834553e-07
9.5947463e-07
9.9735977e-07
-6.7490924e-07
-1.2465314e-05
5.85783e-09
1.5569201e-05
9.6690092e-07
9.982798e-07
-6.7663635e-07
-6.6340355e-07
-1.5905497e-05
5.6492918e-09
-7.3847304e-07
9.7708159e-07
9.5907738e-07
-7.1131486e-07
-1.2422234e-05
5.2352986e-09
-7.2032583e-07
9.2220539e-07
-7.3756137e-07
9.5961465e-07
4.2574084e-09
-7.2694345e-07
9.2013023e-07
9.443823e-07
-7.570735e-07
-1.2564375e-05
1.2429058e-08
9.5775056e-07
-7.4223425e-07
-7.2817445e-07
9.2669372e-07
8.2459728e-09
9.2707318e-07
9.4521431e-07
-7.591664e-07
-8.8435949e-09
1.5595755e-05
9.1974133e-07
9.5632891e-07
-7.1801885e-07
-7.3692441e-07
-1.2544071e-05
1.5876649e-05
9.5643761e-07
9.2506572e-07
-7.2926405e-07
-7.4084535e-07
9.4399926e-07
9.2534761e-07
-1.2443212e-05
1.3296727e-08
1.5540679e-05
9.9737368e-07
9.661725e-07
-6.6353568e-07
-6.7455258e-07
1.4289564e-08
9.7619473e-07
-7.1185439e-07
9.5784442e-07
-7.3650489e-07
1.2263557e-05
-7.3847855e-07
9.7004933e-07
9.4735302e-07
-7.0570973e-07
1.523476e-05
-6.731273e-07
9.9501801e-07
9.5773897e-07
-6.5501397e-07
1.6273724e-07
-1.0292609e-06
-1.1495129e-07
-5.5967903e-05
-5.745826e-05
-5.5104983e-05
-5.660276e-05
7.1007282e-07
-1.4582689e-05
-1.5362209e-05
-3.2931016e-08
2.2103925e-06
-1.3231689e-05
-1.3628105e-05
-1.5425404e-05
-1.4765591e-05
5.6798373e-08
2.2274847e-06
-1.3684362e-05
-1.3314383e-05
4.7099018e-08
1.2113482e-05
-8.9114431e-09
-6.4140685e-07
7.8471208e-07
8.3815943e-07
-6.6715575e-07
1.2365427e-05
2.8864974e-08
-6.7191924e-07
8.338661e-07
8.0216152e-07
-6.4821122e-07
1.8204391e-07
-8.5067411e-09
3.1908871e-07
5.7309354e-08
2.9029131e-07
1.2395839e-05
-1.0257771e-08
8.3897483e-07
7.992059e-07
-6.5027747e-07
-6.7201574e-07
-1.1234938e-07
2.8687036e-07
-1.219356e-05
1.4555343e-08
3.1713644e-07
1.5135802e-08
7.9030046e-07
8.3943371e-07
-6.7044222e-07
-6.4253825e-07
-1.4769831e-05
-1.5420029e-05
2.2273805e-06
-1.3319776e-05
-1.3677865e-05
3.4265057e-08
1.2193577e-05
-6.4402567e-07
7.890827e-07
8.4060638e-07
-6.689183e-07
1.2394888e-05
-6.7347405e-07
8.3775063e-07
8.0037123e-07
-6.4873518e-07
1.3261151e-07
3.1687099e-07
2.8710765e-07
-1.0293851e-06
-5.6622508e-05
-5.5077543e-05
-5.7478045e-05
-5.5939931e-05
-4.209502e-09
-3.2925133e-06
3.4944792e-09
4.0146255e-06
2.4561403e-07
-3.3320847e-06
-3.3715795e-09
4.0811149e-06
2.4655297e-07
-6.0625838e-09
-4.1665163e-06
3.3735669e-09
2.1416358e-07
-2.5069755e-09
-4.2279402e-06
2.1678979e-07
-2.9313673e-10
-3.3255863e-06
4.0719139e-06
2.4648714e-07
-3.2737709e-06
-2.2779813e-09
3.9868978e-06
2.4568625e-07
1.8586274e-09
-4.2187919e-06
2.1668167e-07
-4.1391416e-06
-2.339902e-09
2.1355125e-07
-3.3341126e-06
2.032748e-09
-2.3711273e-09
1.4174528e-07
8.5772802e-10
-4.1433395e-06
-2.3441924e-09
1.0401879e-07
3.3871523e-06
1.9096224e-09
-4.2302965e-06
1.0459513e-07
1.2854932e-09
1.4004893e-07
-3.3935034e-06
1.3418089e-09
1.4074243e-07
2.7960306e-09
-4.236841e-06
1.0509451e-07
3.351901e-06
-4.1680715e-06
3.0369746e-09
1.0496975e-07
2.9502331e-09
1.4246802e-07
-3.5101749e-09
-3.3295167e-06
2.7092147e-09
8.8276197e-08
-3.3709196e-06
-2.9913002e-09
8.8900094e-08
5.1569702e-09
-3.726242e-09
-4.1974727e-06
8.3292024e-08
-4.1362412e-06
2.9746e-09
8.0708839e-08
-7.4456994e-10
-3.3646078e-06
8.9297119e-08
-3.3118868e-06
-2.3764497e-09
8.9014492e-08
-6.6877818e-10
-2.4307464e-09
8.1194198e-08
-4.1888689e-06
8.3861395e-08
2.5115361e-09
8.40461e-08
-1.058573e-09
-3.2973219e-06
2.7458897e-09
8.5628395e-08
-3.3370927e-06
8.4059282e-08
2.9112099e-09
8.2117197e-08
3.0790704e-09
8.1865687e-08
-4.2287566e-09
-3.3168118e-06
4.1507449e-06
3.9972579e-09
8.9319836e-08
-3.3688072e-06
-3.0654332e-09
4.2366585e-06
8.9567879e-08
5.5998133e-09
-2.619083e-09
-4.1945005e-06
8.4213208e-08
-4.1161956e-06
4.0965661e-09
8.1601084e-08
-1.2732488e-09
-3.3734181e-06
4.2411286e-06
8.9129707e-08
-3.3309423e-06
4.1696175e-06
8.8460278e-08
-8.9612765e-11
-4.1379537e-06
8.0878838e-08
-4.20095e-06
8.362077e-08
3.2983311e-06
2.1854567e-09
8.1976552e-08
3.3555878e-09
8.5824141e-08
-3.3393876e-06
3.5756462e-09
8.4323394e-08
3.5387548e-09
8.233481e-08
3.3343853e-06
3.7980897e-09
8.2354551e-08
2.3030271e-09
8.443408e-08
-3.2833075e-06
4.1177498e-09
8.6340003e-08
4.0542334e-09
8.1859575e-08
-7.804977e-10
-3.3351032e-06
3.4659125e-09
4.0850467e-06
2.4646652e-07
-3.2937602e-06
4.016845e-06
2.4560686e-07
-4.6551739e-10
-4.1684553e-06
2.1415294e-07
-4.2317178e-06
3.6741308e-09
2.1680673e-07
-3.3533595e-06
3.4150037e-09
1.42557e-07
1.9879993e-09
1.0505568e-07
3.3961853e-06
4.1402455e-09
1.0528002e-07
5.0393017e-09
1.4077751e-07
3.3301634e-06
6.9748922e-09
-4.2259075e-06
2.1664725e-07
4.5197951e-09
4.0790616e-06
2.4635971e-07
-3.2791327e-06
3.8529172e-09
3.9945395e-06
2.4555175e-07
-4.1470013e-06
3.9668508e-09
2.1357665e-07
-2.9891963e-09
-3.3393546e-06
3.9966262e-09
1.4191628e-07
-3.3916052e-06
1.4019995e-07
4.1753894e-09
1.0487353e-07
3.9626642e-09
1.0432802e-07
-5.3883168e-09
-3.2935741e-06
4.0165961e-06
2.4559932e-07
-3.3349319e-06
-4.2345341e-09
4.0848452e-06
2.4645365e-07
6.8012426e-09
-4.239654e-09
-4.2314963e-06
2.1680412e-07
-4.168215e-06
2.141346e-07
-1.6390086e-09
-3.3300944e-06
4.0789583e-06
2.4637228e-07
-3.2790816e-06
3.9944926e-06
2.4555012e-07
-6.4969564e-10
-4.1469415e-06
2.13582e-07
-4.2258232e-06
2.1664273e-07
3.3393137e-06
2.17799e-09
-4.1507042e-06
1.0433476e-07
3.391031e-09
1.4191726e-07
-3.3915286e-06
2.9418992e-09
1.402022e-07
3.7836775e-09
-4.2365532e-06
1.0487877e-07
-2.9753296e-09
-3.3531571e-06
1.4254725e-07
-3.3960167e-06
1.4076709e-07
4.374536e-09
-4.2409367e-06
1.052745e-07
-4.169365e-06
1.0504837e-07
3.2832864e-06
2.6955334e-09
8.1867472e-08
4.256968e-09
4.1161635e-06
8.634716e-08
-3.3342995e-06
4.1943915e-06
4.6487311e-09
8.4447098e-08
4.5691677e-09
8.2371438e-08
3.3167858e-06
9.3582411e-10
8.1608045e-08
2.1720281e-09
8.9324402e-08
-3.368712e-06
4.9280139e-09
8.9579261e-08
5.5618037e-09
8.422218e-08
3.339252e-06
4.3198112e-09
8.2341691e-08
3.2174222e-09
4.200774e-06
8.4333151e-08
-3.298133e-06
4.137704e-06
8.5836012e-08
3.3732763e-06
6.6377885e-09
8.3628646e-08
5.1369353e-09
8.9127861e-08
-3.3307354e-06
8.846376e-08
8.0885948e-08
-3.1792293e-07
5.1477772e-05
5.1413202e-05
-4.0084853e-05
-4.0031378e-05
-0.0002253593
-0.00021274798
-0.00021268318
-0.0002252718
3.1747508e-07
-2.6222064e-07
1.0587053e-05
-0.0002283796
1.0624361e-05
-0.00022835068
4.9927247e-07
-4.6666796e-07
-2.4349319e-06
-0.00022160956
-2.4357817e-06
-0.00022156039
5.7553218e-07
-4.7765726e-07
-6.0438626e-07
-6.0487913e-07
5.5309546e-07
-4.826909e-07
-0.00018427741
-7.5618125e-08
7.4758123e-07
-6.4860154e-07
4.8848899e-07
-7.5539903e-08
-0.0001842153
4.8842611e-07
1.3375607e-07
1.1376659e-06
0.00023550534
1.1378125e-06
0.00023550656
4.9613859e-08
9.3080296e-08
0.0001846306
5.7320762e-08
3.5335377e-08
2.9743014e-07
0.000224897
9.311504e-08
0.00018462797
2.9742247e-07
0.00022489314
5.581303e-08
-1.5232944e-07
3.9057834e-08
2.9785886e-08
0.00023553071
-1.5234876e-07
2.977944e-08
0.00023552569
-5.2602404e-08
0.00022531772
1.3878253e-05
1.3866724e-05
-1.4175247e-05
-1.4163289e-05
2.5654407e-08
-1.6552434e-08
-3.0076008e-06
6.8639049e-05
-3.0075436e-06
6.8637349e-05
3.6746685e-08
0.00022532247
1.3872382e-05
-1.4169948e-05
-1.4169074e-05
1.3873168e-05
-8.8220653e-10
-3.0076011e-06
6.8639606e-05
-3.0076025e-06
6.8638997e-05
1.5321949e-08
1.3630114e-05
1.6932557e-08
-1.0363455e-08
4.4290081e-08
1.5035318e-05
2.0481708e-07
-1.2476971e-07
6.8665882e-08
0.0001847765
2.4091901e-07
-1.4594423e-07
1.7300154e-08
0.00022480626
1.3630276e-05
4.4306262e-08
1.503513e-05
6.8667383e-08
0.00018477044
1.7342848e-08
0.00022479534
-2.394973e-07
2.5922971e-06
-1.0467331e-06
0.00023386233
2.5924771e-06
-1.4403695e-07
-1.0468299e-06
0.00023387675
2.2568508e-07
-1.3570164e-07
0.00022158448
-1.2098572e-05
1.519108e-05
1.521247e-05
-1.207673e-05
-4.4516376e-08
-5.5625059e-05
6.966231e-08
6.8747048e-05
7.3609099e-07
-5.5625805e-05
-4.210952e-08
6.874827e-05
7.3604621e-07
4.5306118e-08
-1.1716746e-06
-4.3107721e-08
7.1062195e-08
-1.1716014e-06
0.00022157085
-1.2103372e-05
1.5185001e-05
1.5216878e-05
-1.207059e-05
6.7016291e-08
-5.5624079e-05
6.8745387e-05
7.3601977e-07
-5.5622432e-05
6.8743386e-05
7.3610378e-07
-6.8730345e-08
-1.1715648e-06
-1.1715682e-06
2.8459082e-08
-2.1702662e-08
1.3668099e-05
3.0807934e-08
-2.3530614e-08
3.2699315e-08
1.5063726e-05
3.6594379e-07
-2.7991382e-07
5.1385694e-09
0.00018468914
4.2424182e-07
-3.2488597e-07
-3.7639041e-07
0.00022401117
1.3667836e-05
3.2700232e-08
1.5062872e-05
5.1579496e-09
0.00018467299
-3.7626629e-07
0.00022398612
-4.1737872e-07
0.00023191594
-1.4479006e-06
0.00023194562
-3.1975183e-07
-1.4480647e-06
5.2745104e-07
-4.3563906e-07
-6.3062663e-08
0.00018424667
5.9912323e-07
0.00022279535
-4.9688704e-07
-3.9164497e-07
-6.3010904e-08
0.00018421207
0.0002227485
-3.9149604e-07
5.9571967e-08
-5.0994651e-08
-2.9923522e-08
1.5009411e-05
6.7489126e-07
0.00018378037
-5.818978e-07
-9.6834577e-08
-2.9898897e-08
1.5004794e-05
0.00018371973
-9.6645982e-08
7.0674153e-08
-5.8570735e-08
5.9132623e-05
3.3006731e-06
3.2929926e-06
-4.1754953e-06
-4.1677271e-06
5.9131061e-05
3.2922022e-06
-4.176119e-06
-4.1669102e-06
3.301307e-06
2.62436e-08
-1.366947e-08
5.8569618e-05
2.2667387e-06
2.2690658e-06
-4.98817e-06
-4.9906315e-06
5.856831e-05
2.2658967e-06
2.2696021e-06
-4.9873226e-06
-4.991203e-06
4.6661446e-08
5.9134544e-05
-3.5520365e-08
-4.174225e-06
3.2944511e-06
3.2993289e-06
-4.1693039e-06
9.2980005e-09
-1.3387977e-05
-1.027233e-08
1.7328525e-05
5.7885664e-07
-1.4141912e-06
-1.4441731e-06
6.0516763e-07
-1.3388024e-05
1.334618e-08
1.7328468e-05
6.0391846e-07
-1.4454511e-06
-1.4128931e-06
5.8010809e-07
-9.203476e-09
-1.4691937e-06
3.4205422e-07
3.3936054e-07
-1.0334391e-08
3.3806307e-07
-1.4679496e-06
-1.4226883e-06
3.4330281e-07
5.9133775e-05
3.2937524e-06
3.3000004e-06
-4.1685445e-06
-4.1748497e-06
1.192929e-08
1.7328468e-05
5.786991e-07
-1.414355e-06
6.0534697e-07
1.7328372e-05
6.0374084e-07
5.802941e-07
1.1621843e-09
5.8569749e-05
2.268035e-06
2.2676013e-06
5.8570105e-05
2.2683822e-06
2.2674732e-06
-4.9890146e-06
-4.9898547e-06
-1.6917205e-07
-1.0246876e-07
-5.6454906e-05
-6.0390539e-05
-5.8303601e-05
-5.4948833e-05
-9.9824113e-08
-1.1888676e-07
-5.8325425e-05
-6.0377041e-05
-5.6435534e-05
-5.4976281e-05
-0.00023087056
-0.00023088624
-2.0851129e-06
-0.00022911025
1.8605494e-07
-0.00022912566
-0.00022848112
-2.9501174e-07
-5.5773936e-09
1.5659325e-05
9.039805e-07
9.4029673e-07
-7.4751939e-07
-7.2898448e-07
3.258373e-06
-3.232245e-09
7.2281512e-10
7.5811067e-08
-1.7981281e-09
4.0855889e-06
7.1644677e-10
7.8127003e-08
3.3098504e-06
-7.9029875e-10
4.1705101e-06
7.8333614e-08
8.751278e-10
4.1785611e-06
7.8387569e-08
4.1124646e-06
7.7950807e-08
6.0487146e-09
1.5968783e-05
-7.363724e-07
9.1325685e-07
9.4195702e-07
-7.5000826e-07
1.5989068e-05
9.12377e-07
9.4330392e-07
-7.5130808e-07
-7.3789242e-07
-1.4968267e-07
4.997716e-05
-2.794847e-06
-2.8949273e-06
3.0156201e-06
3.1480329e-06
4.9054064e-05
-2.8782857e-06
-2.7673109e-06
3.1616356e-06
2.9629982e-06
-6.3010214e-07
6.2459126e-05
2.603197e-07
5.955208e-05
3.9387977e-07
-5.588597e-05
-5.431165e-05
4.7812695e-06
-8.7586468e-09
1.5330965e-05
9.5919874e-07
9.9767105e-07
-6.7484432e-07
-6.589028e-07
1.2758069e-08
-1.2465812e-05
-5.6757445e-09
1.556995e-05
9.6631091e-07
9.9887227e-07
-6.76188e-07
-6.64147e-07
-1.2327663e-05
1.5330952e-05
9.9676434e-07
9.6010721e-07
-6.5797346e-07
-6.7575395e-07
-1.3738113e-08
-1.5689415e-05
9.7272226e-07
9.50257e-07
-7.0774817e-07
-7.3989896e-07
-1.5905727e-05
-6.2753267e-09
-7.3791726e-07
9.7757374e-07
9.5833175e-07
-7.1203673e-07
-4.3295762e-09
-1.2422446e-05
-7.1967827e-07
9.2288665e-07
9.5901148e-07
-7.3817196e-07
-1.2564708e-05
3.7322157e-10
9.261561e-07
9.584327e-07
-7.4158546e-07
-7.2883242e-07
-5.1758324e-09
9.4376828e-07
-7.5776795e-07
-3.7538401e-09
-7.5860848e-07
9.4589584e-07
9.2646713e-07
-7.3346764e-07
-6.9501891e-10
-1.2544569e-05
1.5877262e-05
-7.2862881e-07
9.2577591e-07
9.558819e-07
-7.4151919e-07
-1.2362409e-05
1.5596506e-05
9.191616e-07
9.5701759e-07
-7.3631939e-07
-7.1866188e-07
-3.0081903e-09
9.4339419e-07
9.2602513e-07
-7.332391e-07
-7.5841987e-07
-7.5639361e-07
9.4130528e-07
9.1683883e-07
-7.2559973e-07
-4.1459748e-09
-1.2264199e-05
1.5235685e-05
9.5719407e-07
9.9566113e-07
-6.7261033e-07
-6.5574438e-07
-1.2443717e-05
1.5541564e-05
9.9680111e-07
9.6680931e-07
-6.6302911e-07
-6.7527272e-07
5.0061902e-09
-7.1134605e-07
9.5841876e-07
9.7555346e-07
-7.3719026e-07
-7.3791543e-07
9.7070643e-07
9.4678566e-07
-7.0638703e-07
-1.2114353e-05
1.7393081e-07
1.4582033e-05
3.0971522e-09
3.1926234e-07
3.7676753e-08
3.0973179e-09
7.8528192e-07
-6.4081288e-07
-6.6780819e-07
8.3774814e-07
1.2365982e-05
1.7509139e-08
8.0165335e-07
8.3446238e-07
-6.7134369e-07
-6.4881688e-07
1.536494e-05
4.5347445e-08
2.9025819e-07
6.7320832e-07
1.2796583e-08
-1.3230505e-05
-1.363133e-05
2.2107245e-06
-1.5425106e-05
-1.4768972e-05
1.0157872e-08
2.2278448e-06
-1.3683354e-05
-1.3317872e-05
-1.9644793e-08
1.2397027e-05
-6.4971296e-07
7.9982386e-07
8.3853881e-07
-6.726594e-07
1.219501e-05
2.8803081e-09
-6.6994193e-07
8.4005095e-07
7.8989836e-07
-6.4319752e-07
-1.2080179e-07
2.8703841e-07
2.7016835e-09
3.1709539e-07
-2.7220062e-08
-1.0291842e-06
-5.7475992e-05
-5.5957391e-05
-5.6620413e-05
-5.5094738e-05
-6.5672991e-07
-1.4769654e-05
-1.5423962e-05
2.2277683e-06
-1.3318779e-05
-1.3682031e-05
-1.5365192e-05
-1.4580485e-05
2.2105094e-06
-1.3631898e-05
-1.3228846e-05
-1.0291227e-06
5.0880498e-08
-5.5100453e-05
-5.661754e-05
-5.5963177e-05
-5.7473114e-05
2.4227661e-08
1.2194964e-05
8.4026842e-07
7.8966312e-07
-6.4348104e-07
-6.6965077e-07
1.2396704e-05
-1.1725049e-08
-6.7293826e-07
8.3828945e-07
8.0002722e-07
-6.4941913e-07
1.2458783e-07
3.1703814e-07
-3.993345e-08
2.8706048e-07
3.3067207e-08
1.2113664e-05
-6.6807102e-07
8.374605e-07
7.8545407e-07
-6.405197e-07
-1.2365577e-05
-1.7013509e-07
2.9015605e-07
8.0138047e-07
-6.4909211e-07
-6.7103828e-07
8.346406e-07
3.1924485e-07
3.3342833e-06
-1.7016769e-09
-4.143443e-06
7.3987538e-10
1.0403637e-07
-4.2719165e-10
4.1393204e-06
7.4053387e-10
1.4173625e-07
-3.3872743e-06
4.2191321e-06
-1.9101395e-09
1.4005048e-07
-1.1985944e-09
-4.2306153e-06
1.0461923e-07
3.2740574e-06
-4.4142986e-09
7.2753735e-10
2.1353951e-07
-2.0312938e-09
7.3983778e-10
3.9871207e-06
2.4572483e-07
-3.325738e-06
-1.707884e-11
4.0725553e-06
2.4653341e-07
-5.4143776e-10
2.1668527e-07
-1.7829478e-09
-3.2927817e-06
3.1160213e-10
4.0151073e-06
2.4565404e-07
-3.3324546e-06
4.0811794e-06
2.4659197e-07
3.2490897e-09
-4.2279327e-06
2.168143e-07
-4.167178e-06
1.9449848e-10
2.1420589e-07
3.3936773e-06
3.6476394e-10
-4.2372113e-06
1.0510609e-07
-1.0218776e-09
1.4076531e-07
-3.3523591e-06
-1.7177946e-10
1.4253376e-07
-4.1684227e-06
-1.3960086e-10
1.0497653e-07
3.279236e-06
-1.2489474e-09
7.2362202e-10
8.1568452e-08
3.3200375e-10
4.109318e-06
7.5265633e-10
8.5971237e-08
-3.3308971e-06
4.1889052e-06
-7.6625161e-10
8.4055516e-08
-4.0485709e-10
8.2087069e-08
3.3120403e-06
-3.0512764e-09
7.6127951e-10
8.1212908e-08
-1.7631352e-09
7.7154843e-10
8.9046531e-08
-3.3648142e-06
-1.9640257e-10
8.9301095e-08
5.5446395e-10
8.3886041e-08
-9.2866832e-10
-3.3299534e-06
-4.1505103e-10
8.831828e-08
-3.3711003e-06
8.8912194e-08
2.4403671e-09
-4.1975013e-06
8.331299e-08
-4.1368886e-06
-3.1392206e-10
8.0737049e-08
3.3374391e-06
4.093448e-10
8.2144374e-08
-1.2143332e-09
8.4077515e-08
-3.2976006e-06
-4.4306305e-10
8.565786e-08
-1.469895e-10
8.1884356e-08
3.2985623e-06
-4.2015625e-10
8.1995475e-08
8.5408395e-10
4.1381621e-06
8.5844433e-08
-3.33956e-06
4.201288e-06
3.4503592e-10
8.4341304e-08
3.4817309e-10
8.2350869e-08
3.3311268e-06
-2.7111056e-09
8.0900458e-08
-1.2703263e-09
4.1699138e-06
8.8482632e-08
-3.3736514e-06
-8.9542532e-11
4.2414058e-06
8.9147023e-08
-6.4281206e-10
8.3646449e-08
-1.6926107e-09
-3.31703e-06
4.1511045e-06
8.0110318e-10
8.9337054e-08
-3.3691859e-06
4.2370944e-06
8.9601735e-08
3.0168556e-09
-4.1949946e-06
8.4242673e-08
-4.1164681e-06
8.3057653e-10
8.1622896e-08
3.3346766e-06
1.3300343e-09
8.2380618e-08
-3.9135602e-10
8.4459646e-08
-3.2835883e-06
8.41835e-10
8.6355558e-08
8.3649071e-10
8.1876664e-08
-2.1092106e-09
-3.2794835e-06
7.3787558e-10
3.9950482e-06
2.4557016e-07
-3.3304715e-06
-3.9256164e-10
4.079414e-06
2.4639508e-07
4.506955e-09
-7.3103352e-10
-4.2261654e-06
2.1667829e-07
-4.1473912e-06
7.6869199e-10
2.135966e-07
1.4153379e-09
-3.3352702e-06
4.0855668e-06
2.4648828e-07
-3.2940211e-06
4.0167445e-06
2.4562937e-07
-3.0840594e-09
-4.1686586e-06
2.1417972e-07
-4.2322651e-06
2.1683483e-07
-9.2883839e-10
-3.3963934e-06
1.6741368e-09
1.4079485e-07
-3.3535668e-06
1.4259052e-07
-5.2953654e-10
1.0506491e-07
1.0026759e-09
1.0530443e-07
3.3919612e-06
1.6744312e-09
1.0490649e-07
4.0766898e-10
1.4023839e-07
-3.3396362e-06
7.8614029e-10
1.4193233e-07
7.8807811e-10
1.0435443e-07
3.3396218e-06
-4.1097451e-10
-4.1510902e-06
1.043544e-07
8.4668831e-10
4.1473681e-06
1.4192873e-07
-3.3919249e-06
4.2261185e-06
-1.0243318e-10
1.4023036e-07
5.7640595e-10
-4.2370499e-06
1.0490129e-07
3.2794672e-06
-3.277325e-09
2.1359294e-07
-9.2409478e-10
3.995035e-06
2.4556807e-07
-3.3304393e-06
1.0962464e-09
4.0793781e-06
2.4639191e-07
8.158265e-10
2.1666676e-07
-2.6092215e-09
-3.2939368e-06
1.1858276e-09
4.0166429e-06
2.4560433e-07
-3.3352061e-06
4.0854951e-06
2.4647134e-07
4.3255284e-09
-4.23218e-06
2.1681878e-07
-4.1685529e-06
1.3644658e-09
2.1415775e-07
3.3963278e-06
1.8004639e-09
-4.2413296e-06
1.0529318e-07
3.367349e-10
1.40784e-07
-3.3534726e-06
1.7564074e-09
1.4256703e-07
-4.169815e-06
1.7537135e-09
1.0506496e-07
3.3170178e-06
-1.690275e-09
-4.1164549e-06
8.1624393e-08
-4.0726092e-10
8.9336189e-08
3.3691455e-06
-4.194951e-06
2.3008272e-09
8.4242493e-08
1.6960321e-09
8.9600193e-08
3.2835784e-06
1.0264785e-11
8.1878747e-08
1.7336917e-09
8.6356925e-08
-3.3346416e-06
1.3357739e-09
8.4461377e-08
1.3234266e-09
8.2382817e-08
-3.3735943e-06
2.5595779e-09
8.9144535e-08
4.0409513e-09