/*--------------------------------*- C++ -*----------------------------------*\
  =========                 |
  \\      /  F ield         | OpenFOAM: The Open Source CFD Toolbox
   \\    /   O peration     | Website:  https://openfoam.org
    \\  /    A nd           | Version:  7
     \\/     M anipulation  |
\*---------------------------------------------------------------------------*/
FoamFile
{
    version     2.0;
    format      ascii;
    class       volScalarField;
    location    "5000";
    object      k;
}
// * * * * * * * * * * * * * * * * * * * * * * * * * * * * * * * * * * * * * //

dimensions      [0 2 -2 0 0 0 0];

internalField   nonuniform List<scalar> 
33730
(
1.5206529
1.5235432
1.5173729
1.5189178
1.5211701
1.5190114
1.5222268
1.5211982
1.5234814
1.520242
1.5202746
1.5245253
1.5169102
1.5166379
1.5167633
1.516901
1.5190149
1.5181473
1.5189703
1.5177918
1.5192008
1.518277
1.5178204
1.5192894
1.521037
1.5190003
1.5215031
1.5227368
1.5230222
1.5223479
1.5246433
1.5202571
1.51942
1.525122
1.5248241
1.5248851
1.5251808
1.5202825
1.519386
1.5187905
1.5185081
1.5188793
1.5185416
1.5221813
1.5225185
1.5163156
1.5167729
1.5171302
1.5168166
1.5178856
1.5164692
1.5167415
1.5166073
1.5162381
1.5181542
1.5163901
1.5167323
1.5161184
1.516387
1.5166818
1.5164226
1.5161764
1.516899
1.521537
1.5187775
1.5191512
1.5174794
1.5178557
1.5181434
1.5183731
1.5173007
1.5179173
1.5173164
1.517931
1.5179996
1.5201968
1.5185169
1.5175463
1.5182458
1.5173446
1.5173229
1.5179811
1.5179505
1.5211593
1.5205882
1.5214966
1.5207276
1.5209289
1.5217595
1.5217674
1.5217082
1.5225789
1.5218711
1.5225989
1.5218277
1.5226053
1.522135
1.5256869
1.5254503
1.5255779
1.5258542
1.5223176
1.5187867
1.5185392
1.5183314
1.5180457
1.5181732
1.5178778
1.5181326
1.518419
1.5195008
1.51947
1.5180863
1.5184203
1.5188632
1.518571
1.5180925
1.5178427
1.5181157
1.5183425
1.5195861
1.5194857
1.5195305
1.5194765
1.5201562
1.5195991
1.5196381
1.5195455
1.5182053
1.5179293
1.517722
1.5177369
1.5183394
1.5208691
1.5180225
1.5177568
1.5177856
1.5212603
1.5214344
1.5215106
1.5221864
1.5171107
1.5167771
1.5162412
1.5166425
1.5170573
1.5167232
1.517848
1.5181515
1.5179204
1.5175311
1.5163944
1.5166664
1.5165127
1.5161734
1.5177507
1.5174386
1.5182866
1.5179626
1.5163013
1.5164184
1.5164304
1.5162097
1.5164391
1.5161569
1.516485
1.5168878
1.5161093
1.5161154
1.5160538
1.516063
1.5160398
1.5160296
1.5163722
1.5163576
1.5165022
1.5167562
1.516731
1.5163437
1.5160597
1.5161021
1.5164081
1.5163746
1.5161779
1.5161486
1.5161223
1.5160839
1.5162871
1.5167466
1.516566
1.5170509
1.52163
1.5212401
1.5219847
1.521759
1.5188245
1.5189319
1.5185774
1.518142
1.5188336
1.5180156
1.5193094
1.5185222
1.5171294
1.5175934
1.5171824
1.5176257
1.5173866
1.5177419
1.5180427
1.5178569
1.5170003
1.5170002
1.5174303
1.5174324
1.5170037
1.5174423
1.5170221
1.5174495
1.5196147
1.5178534
1.5174688
1.518219
1.5180231
1.5199558
1.5205504
1.520277
1.5172113
1.5177237
1.5171501
1.5176761
1.517028
1.5170055
1.5174787
1.51749
1.5170057
1.5170129
1.5174599
1.5174661
1.5201382
1.5200787
1.5208267
1.5207888
1.5202467
1.5202052
1.5209536
1.5209228
1.5214869
1.5210249
1.5203329
1.5206427
1.5211378
1.5217779
1.5216116
1.5217407
1.52166
1.521812
1.5207392
1.5206073
1.5209963
1.521096
1.5220004
1.5214759
1.5215433
1.5211966
1.5212737
1.522206
1.5218466
1.5213269
1.521205
1.5212622
1.5211433
1.5222397
1.5212963
1.5206434
1.5210389
1.5209533
1.5179907
1.5176986
1.5179539
1.5181988
1.5175113
1.517496
1.5177407
1.5177552
1.5179007
1.5176072
1.5177306
1.5179914
1.5175238
1.5174355
1.5174199
1.5175379
1.517867
1.5179243
1.5175466
1.517627
1.5181673
1.5173784
1.5174376
1.5174177
1.5173568
1.5179234
1.5173839
1.5174066
1.5175132
1.5174924
1.5175916
1.5179204
1.5180129
1.5177152
1.5178741
1.517636
1.517894
1.5181278
1.5175845
1.5174813
1.517562
1.5174575
1.5176789
1.51801
1.5181037
1.5178094
1.5177808
1.5181112
1.5183188
1.5180392
1.5178002
1.5175604
1.5175345
1.517776
1.5174535
1.5173607
1.517347
1.5174679
1.5173927
1.5173801
1.5173224
1.5173351
1.5174846
1.5175608
1.5177653
1.5178178
1.5178089
1.5175239
1.5176441
1.5179054
1.51909
1.5191599
1.519419
1.5194519
1.5190761
1.5191193
1.5194055
1.5194183
1.5190706
1.5191121
1.5193909
1.5194086
1.5191214
1.5194025
1.5191356
1.5195231
1.519414
1.5196159
1.5197742
1.519616
1.519454
1.519716
1.5192183
1.5192876
1.5195096
1.5191641
1.5192441
1.5194728
1.5195093
1.5191334
1.519191
1.5194525
1.5194717
1.5179685
1.517744
1.5174903
1.5175272
1.5173336
1.5173356
1.5173452
1.5173549
1.5181342
1.5179013
1.5201118
1.5204338
1.5176131
1.5175604
1.517367
1.5173623
1.5173894
1.5173771
1.5206351
1.5206773
1.5207939
1.5207598
1.5208591
1.5210029
1.5215793
1.5216269
1.5216621
1.5181891
1.5188427
1.5170017
1.5166975
1.516187
1.5161167
1.5161472
1.5166385
1.5169977
1.5166466
1.5164287
1.5167307
1.5178014
1.5181175
1.5178564
1.5174999
1.5163327
1.5163953
1.5162544
1.5166218
1.5164893
1.5161251
1.5160871
1.5160816
1.517733
1.5177732
1.5176862
1.5177404
1.5175377
1.5173975
1.5175503
1.5173497
1.518403
1.517716
1.5176628
1.5183328
1.5173168
1.518254
1.5175535
1.5179402
1.5164119
1.5161868
1.5165467
1.5162935
1.5163407
1.5164867
1.5161394
1.5161007
1.5161351
1.5161596
1.5161689
1.5161183
1.5164931
1.5164271
1.5166377
1.517084
1.5163183
1.516674
1.5160424
1.5160505
1.5160364
1.5160293
1.5160281
1.5160153
1.5160222
1.5160257
1.5160109
1.5160166
1.5160623
1.5160467
1.5163506
1.5163709
1.516046
1.5163557
1.516355
1.5160457
1.5166888
1.5163099
1.5160526
1.5160589
1.5160417
1.5160525
1.5160819
1.5160975
1.5160697
1.5160926
1.5161023
1.5163903
1.516124
1.5164059
1.5160702
1.5163698
1.5160866
1.5163812
1.5161072
1.5160734
1.5162418
1.5162825
1.5162018
1.5162657
1.516557
1.5167852
1.5164859
1.5168411
1.5162164
1.5164893
1.5162933
1.5165606
1.5164979
1.5169146
1.5167639
1.517244
1.5215189
1.521448
1.5221183
1.5209204
1.5213037
1.5219892
1.5213371
1.5222967
1.5222242
1.5221962
1.5215308
1.5221549
1.5216491
1.5187208
1.5188753
1.5184703
1.5180652
1.5185617
1.5188926
1.5190276
1.518397
1.5180298
1.5179751
1.5179754
1.5178946
1.5191002
1.5196302
1.5182923
1.5188123
1.5178554
1.5185997
1.5179476
1.5185081
1.5167231
1.5167079
1.5173377
1.5173479
1.5173826
1.5167491
1.5167894
1.5173992
1.5170138
1.5169155
1.5175769
1.5176078
1.5176121
1.5172941
1.517812
1.5179291
1.5166041
1.5166115
1.5172016
1.5172012
1.5165983
1.5166063
1.517204
1.5172042
1.5165982
1.516605
1.5172089
1.5172098
1.516613
1.5166393
1.5172204
1.5172288
1.5193714
1.5190917
1.5197379
1.5199296
1.5172224
1.517549
1.5181315
1.5180192
1.5169615
1.5168708
1.5177671
1.5177282
1.5195787
1.5195286
1.5201559
1.5201834
1.5166951
1.516741
1.5174714
1.517452
1.5166631
1.5166688
1.5174078
1.5173945
1.5165837
1.5166119
1.5172529
1.5172442
1.5165737
1.5165673
1.5172325
1.5172311
1.5165837
1.5172254
1.5172257
1.5165765
1.5165903
1.5166112
1.5172288
1.5172275
1.5197203
1.5196834
1.5203514
1.5203622
1.5196534
1.5196258
1.5202939
1.5203203
1.5198246
1.5197996
1.5204626
1.5204557
1.5204338
1.5197792
1.5197544
1.5204124
1.521563
1.5213698
1.5214203
1.521504
1.5199301
1.5198775
1.5205484
1.5205175
1.5208362
1.5205332
1.5201322
1.5207013
1.5215599
1.5216422
1.5216309
1.5215522
1.5216981
1.5216027
1.5216881
1.521595
1.519904
1.5202664
1.5203106
1.5199879
1.5203072
1.5199381
1.520312
1.5199805
1.5207172
1.5204946
1.5204639
1.5205262
1.5204958
1.5210564
1.5205313
1.5204335
1.520469
1.5204976
1.5205856
1.5209201
1.5205945
1.5206311
1.5207862
1.5208171
1.5206927
1.5208529
1.5215896
1.5208822
1.5210131
1.5205543
1.5205908
1.5206712
1.5206379
1.5214087
1.5206467
1.5207339
1.5208034
1.5208757
1.5214596
1.5216341
1.5214615
1.5213708
1.5213301
1.5214189
1.5218878
1.520838
1.5206288
1.5207703
1.520703
1.5206891
1.5208081
1.5207681
1.5206499
1.5212612
1.5206466
1.5205424
1.5205772
1.5206135
1.5206057
1.5206369
1.520603
1.5205714
1.5212106
1.52112
1.5210741
1.5216678
1.5211573
1.5211232
1.5204805
1.520522
1.5206943
1.5206581
1.5200089
1.5202695
1.5199165
1.5203158
1.5205571
1.5204408
1.5204794
1.520521
1.5204436
1.5199525
1.5202905
1.5201586
1.5175486
1.5178029
1.5176405
1.5178543
1.5173021
1.5173815
1.5173395
1.5174142
1.517366
1.5175079
1.5174036
1.5175401
1.5176227
1.5177637
1.5178615
1.5179607
1.5171679
1.5171749
1.5172389
1.5172452
1.5172248
1.5171535
1.5171576
1.5172281
1.5172142
1.5172177
1.5173453
1.517348
1.5172279
1.5172365
1.5173584
1.5173656
1.5174239
1.5176956
1.5174981
1.517738
1.5171903
1.5172256
1.5172515
1.5172837
1.5172299
1.5173207
1.5172665
1.5173538
1.5174739
1.5177391
1.5175699
1.5177991
1.5170877
1.5171678
1.517092
1.5171719
1.517066
1.5170716
1.5171213
1.5171259
1.517051
1.5171057
1.5170551
1.5171098
1.517103
1.5171093
1.5171831
1.5171881
1.5177316
1.5174776
1.5178523
1.5174984
1.517764
1.5176986
1.5174177
1.517718
1.5174636
1.5172523
1.5172036
1.517567
1.5172285
1.5172803
1.5171999
1.5171472
1.5172356
1.5171869
1.5177586
1.5174595
1.5170915
1.5170868
1.5173985
1.5171121
1.5171167
1.5170422
1.5170734
1.5170358
1.5170676
1.5170314
1.5170628
1.5170218
1.5170534
1.5170812
1.517073
1.5173796
1.5170997
1.5171076
1.5172869
1.5173087
1.517028
1.5170182
1.5170652
1.5170561
1.5170392
1.5170769
1.5170319
1.5170704
1.5170505
1.5171166
1.5170429
1.51711
1.5170386
1.517105
1.5170296
1.5170963
1.5171994
1.5172417
1.5171464
1.5171927
1.5177025
1.5177344
1.5174232
1.5174824
1.5177292
1.5177845
1.5174528
1.5175384
1.5172147
1.5172896
1.5171615
1.5172405
1.517732
1.517671
1.5174148
1.5174731
1.5172828
1.5173223
1.517303
1.5172745
1.5172577
1.517344
1.5172686
1.5173561
1.5176829
1.5174044
1.5175097
1.5177651
1.5171334
1.5171249
1.5172163
1.5172087
1.5170944
1.5170867
1.5171523
1.5171452
1.5171193
1.5172018
1.517112
1.517195
1.5170739
1.5170822
1.5171388
1.5171311
1.5172672
1.5173319
1.5172136
1.5172828
1.5177862
1.5178377
1.5175152
1.5175965
1.517845
1.5179141
1.5175778
1.5176811
1.517314
1.5174097
1.5172599
1.5173606
1.5173969
1.5173425
1.5174822
1.5174346
1.5179276
1.5176686
1.5179898
1.5177695
1.5180081
1.5177625
1.5181122
1.517908
1.5174754
1.5174224
1.5176204
1.5175746
1.5172675
1.5173997
1.517257
1.5173903
1.5172019
1.5172774
1.5171927
1.5172687
1.5171863
1.51718
1.5172595
1.5172542
1.5172484
1.5173796
1.5172434
1.5173748
1.517008
1.5170717
1.5170113
1.5170756
1.517011
1.517017
1.5170467
1.5170513
1.5169985
1.5170328
1.517001
1.5170358
1.5170223
1.517028
1.5170872
1.5170915
1.5170134
1.5170435
1.5170209
1.5170489
1.517003
1.5170312
1.5170042
1.5170335
1.5170501
1.5170514
1.5170762
1.5170761
1.5170601
1.5170674
1.517093
1.5170842
1.5171755
1.5172045
1.5172269
1.5171969
1.5171256
1.5171631
1.5171578
1.5171928
1.5173943
1.5176435
1.5176669
1.5174098
1.5173391
1.5173837
1.5176147
1.5176338
1.5173457
1.5174006
1.5176218
1.5176504
1.5171281
1.5171694
1.5171609
1.5171998
1.517142
1.5172143
1.5171761
1.5172458
1.5173708
1.5174508
1.5176467
1.517697
1.5189903
1.5188166
1.5188544
1.5189619
1.5188378
1.5188885
1.5190302
1.5189937
1.5193894
1.5194029
1.5193413
1.5193585
1.5193596
1.5193802
1.5194105
1.5194261
1.518905
1.5187472
1.5187965
1.5188567
1.5187811
1.5188332
1.5189568
1.518911
1.5193503
1.5192882
1.5193142
1.519324
1.5193165
1.5193392
1.5193599
1.5193801
1.5187698
1.5186383
1.5187075
1.5186941
1.5186929
1.5187622
1.518849
1.5187767
1.5192635
1.5192039
1.5192447
1.5192198
1.5192487
1.5192845
1.519275
1.519312
1.5185768
1.5186007
1.5186554
1.5186922
1.5191996
1.5192092
1.5191498
1.5191565
1.5186007
1.5191682
1.5191282
1.5194034
1.5194196
1.5191447
1.5193159
1.5193177
1.5193787
1.519381
1.5196208
1.5195924
1.5196301
1.5196547
1.5193023
1.519157
1.5191325
1.5194059
1.519408
1.5195958
1.519577
1.5196142
1.5196299
1.5190593
1.5190989
1.5190855
1.519163
1.5189904
1.5190318
1.5191443
1.519019
1.5190737
1.5191966
1.5191653
1.5195105
1.5194531
1.5194686
1.519502
1.5191056
1.5189231
1.5189611
1.5190873
1.5189479
1.5190037
1.5191414
1.5191083
1.519467
1.5194747
1.5194145
1.5194286
1.5194302
1.5194506
1.5194816
1.5194944
1.5190548
1.5188724
1.5189099
1.5190327
1.5188929
1.5189404
1.5190857
1.5190563
1.5194439
1.5193811
1.5193969
1.5194329
1.5193971
1.5194139
1.51945
1.5194606
1.517764
1.5179025
1.517528
1.5175629
1.517291
1.5173019
1.517335
1.5173559
1.5171581
1.5171564
1.5171615
1.5171598
1.5171649
1.5171651
1.5171873
1.5171753
1.5196226
1.5180924
1.517966
1.5176707
1.517713
1.5198516
1.5200883
1.5200576
1.5174194
1.5173972
1.5173549
1.5173425
1.51718
1.5171801
1.517184
1.5171849
1.5172063
1.5171961
1.5171851
1.5171858
1.5202131
1.5201832
1.5202533
1.5202399
1.5203503
1.5203428
1.520322
1.5202973
1.5204382
1.5204017
1.5207647
1.5213672
1.5205919
1.5214726
1.5215222
1.5215309
1.5215756
1.5215681
1.5212417
1.5208764
1.5182064
1.5187679
1.5165096
1.5169173
1.5163932
1.5165417
1.5161444
1.51612
1.5161388
1.5160934
1.5161209
1.5167036
1.5164417
1.5165809
1.5163668
1.5166905
1.5177656
1.5177174
1.5177531
1.5181064
1.5178779
1.5174784
1.517541
1.5173771
1.5162486
1.5163738
1.5162795
1.5163632
1.5162041
1.5160805
1.5160845
1.5160857
1.5160629
1.5160588
1.5177215
1.5176775
1.517553
1.5173582
1.517805
1.5185005
1.5177698
1.518455
1.5176988
1.5177168
1.5177194
1.5176884
1.5176562
1.5176677
1.5176645
1.5176476
1.517749
1.5177219
1.5184313
1.5183942
1.5174113
1.5172917
1.5172544
1.5174417
1.5176332
1.5183196
1.5176738
1.5183799
1.5175482
1.5175683
1.5175815
1.5175498
1.5175304
1.5172934
1.518198
1.5178751
1.5163593
1.5164376
1.5163115
1.5164829
1.5162902
1.516513
1.5161847
1.5162047
1.5161565
1.5161267
1.5161045
1.516138
1.5165777
1.5165076
1.5164961
1.5166343
1.516287
1.5162895
1.5162647
1.516241
1.5161318
1.5161353
1.5161265
1.5161151
1.5160887
1.5160968
1.5160905
1.5160789
1.5161286
1.5161296
1.5161077
1.5161014
1.5160789
1.5160835
1.5160718
1.5160654
1.5164082
1.5162067
1.5161695
1.5163633
1.516129
1.516149
1.51634
1.5163232
1.5166694
1.5164874
1.5167031
1.5164818
1.5171502
1.5168406
1.5165774
1.5168319
1.5162891
1.516286
1.5162262
1.5162137
1.5162796
1.516381
1.5166037
1.5164905
1.5160487
1.5160461
1.5160185
1.5160238
1.5160106
1.5160161
1.5160519
1.5160568
1.5160235
1.5160332
1.5160268
1.5160147
1.516028
1.5160272
1.5160234
1.5160205
1.5160114
1.5160107
1.5160094
1.5160081
1.5160053
1.5160071
1.5160074
1.5160057
1.5160094
1.5160118
1.5160134
1.5160141
1.51603
1.5160287
1.516019
1.5160182
1.5160069
1.5160086
1.5160065
1.5160091
1.5160796
1.5162625
1.5162626
1.5160767
1.5163
1.5161051
1.5160889
1.5162765
1.5160088
1.5160134
1.5160144
1.516009
1.5160762
1.5160775
1.5162652
1.5162668
1.5162728
1.516082
1.5160846
1.5162844
1.5160052
1.5160047
1.5160058
1.5160053
1.5167582
1.5165692
1.5164841
1.51678
1.51648
1.5168088
1.5163326
1.5163046
1.5162271
1.5162736
1.5162067
1.5162605
1.5160429
1.5160519
1.5160404
1.5160379
1.5160347
1.5160398
1.5160481
1.5160492
1.5160508
1.516051
1.5160691
1.5160896
1.5160664
1.5160647
1.5160625
1.5160657
1.5160786
1.5160823
1.5160907
1.5160921
1.516066
1.516062
1.5160625
1.5160675
1.5162989
1.5161246
1.5161292
1.516299
1.5160788
1.5160777
1.5160937
1.5160968
1.5161579
1.5161429
1.5163135
1.5163319
1.51604
1.5160332
1.5160322
1.5160409
1.5162931
1.5160991
1.5161098
1.5162958
1.5160492
1.5160481
1.5160517
1.5160531
1.5161156
1.5161177
1.5162962
1.5162947
1.5161157
1.5161012
1.5160746
1.5160944
1.5160809
1.5160774
1.5160581
1.5160508
1.5161966
1.5161877
1.5161729
1.5161903
1.5162308
1.5162429
1.5162599
1.5162589
1.5164081
1.5164383
1.5164724
1.5164692
1.5168707
1.5167465
1.5167089
1.5169185
1.5161881
1.5161653
1.5161595
1.5161879
1.5163814
1.5162113
1.5162434
1.5164077
1.516224
1.5162259
1.5162598
1.5162637
1.5163185
1.516279
1.5164376
1.516476
1.5163846
1.516394
1.5164716
1.51648
1.5166936
1.5166952
1.5169498
1.516985
1.5165834
1.5164311
1.5165495
1.5167131
1.5171251
1.516791
1.5169988
1.5173754
1.5216281
1.5215414
1.5222053
1.5209854
1.5214471
1.5220885
1.5214386
1.5223056
1.522304
1.5223716
1.522375
1.522402
1.5224062
1.5222253
1.5222266
1.5222269
1.5221864
1.5222637
1.5223158
1.5217498
1.5214023
1.5214679
1.5219747
1.5223511
1.5222934
1.5221753
1.5221341
1.5220575
1.5214655
1.521975
1.5214662
1.5186253
1.5184737
1.5188713
1.5188113
1.5184581
1.5180068
1.5179376
1.5179953
1.5189877
1.5183465
1.5179534
1.5178793
1.518817
1.5192236
1.5194103
1.5187056
1.5195874
1.5187269
1.5200453
1.5192194
1.518229
1.5183022
1.5182671
1.5181505
1.5183184
1.5188721
1.5181792
1.5187502
1.5178633
1.5178434
1.5178553
1.5178249
1.5180274
1.5186749
1.5179716
1.5186258
1.5179156
1.5179448
1.5179435
1.517895
1.5179362
1.5178925
1.5185969
1.5185478
1.516663
1.5166478
1.516688
1.5167312
1.516954
1.5168515
1.5175751
1.5172394
1.5165433
1.5165517
1.5165379
1.5165471
1.5165391
1.5165461
1.5165537
1.5165824
1.5197418
1.518762
1.5186758
1.519716
1.5182963
1.5184879
1.5195368
1.519422
1.5171318
1.5174687
1.5168749
1.5167825
1.519939
1.5189227
1.5188872
1.5199332
1.5188485
1.5188372
1.519911
1.5198941
1.5166192
1.5166644
1.5165891
1.5165939
1.5165192
1.5165459
1.5165104
1.5165036
1.5165206
1.5165134
1.5165279
1.5165491
1.5190141
1.5190571
1.5200849
1.5200805
1.5189689
1.5189697
1.5200676
1.5200629
1.5189495
1.5189299
1.5200378
1.5200332
1.5200132
1.5189143
1.518922
1.5200038
1.5191703
1.5191361
1.5201784
1.5201746
1.5201688
1.5191071
1.5191143
1.5201663
1.5190781
1.5191018
1.5201473
1.5201429
1.5190691
1.5190616
1.5201257
1.5201204
1.5216727
1.521508
1.5216386
1.5214914
1.5215284
1.521269
1.5213978
1.5212956
1.5192384
1.5193037
1.5202797
1.5202657
1.5192095
1.5192065
1.5202343
1.5202286
1.5199705
1.5204288
1.5207258
1.520649
1.519446
1.519601
1.5204573
1.5204254
1.5217522
1.5217419
1.5215636
1.5215697
1.5217429
1.5217312
1.5215589
1.5215546
1.5216205
1.5218108
1.5218141
1.5216182
1.5218086
1.5217969
1.5216079
1.521612
1.5195445
1.5192351
1.5195675
1.5192934
1.5197592
1.5198003
1.5197213
1.5197657
1.5197529
1.5198221
1.5197155
1.5197887
1.519531
1.5195903
1.5192355
1.5193294
1.5198979
1.5198651
1.5203403
1.5199703
1.5199358
1.5196716
1.5193693
1.5200011
1.519755
1.519428
1.5198048
1.5198219
1.519768
1.519788
1.519591
1.5192665
1.5195967
1.5193091
1.5203037
1.5199328
1.5200157
1.5199939
1.5205368
1.5200836
1.5200613
1.5199896
1.5199491
1.5205115
1.5200602
1.5200175
1.5199164
1.5199466
1.5198923
1.5199245
1.51989
1.5199185
1.5198471
1.5198773
1.5204789
1.5204558
1.5198754
1.5199572
1.5198521
1.5199369
1.519849
1.519897
1.5198051
1.5198553
1.5198782
1.5199283
1.5198541
1.5199064
1.5198435
1.5199244
1.5197996
1.5198833
1.5199916
1.5203484
1.5203403
1.5200047
1.5205216
1.5205051
1.5204885
1.5205037
1.5201069
1.5200718
1.520207
1.5201775
1.5201345
1.5201253
1.5202356
1.520228
1.5201913
1.5201615
1.5203374
1.5203132
1.5202199
1.520212
1.5203647
1.5203585
1.5202213
1.5201752
1.52032
1.5202812
1.5203784
1.5206119
1.5206697
1.5204795
1.5213025
1.5214204
1.521469
1.5213725
1.5203071
1.520266
1.5204502
1.5204167
1.520467
1.52067
1.5207631
1.5206036
1.519986
1.5200619
1.5199445
1.5200242
1.5200114
1.5200885
1.5199994
1.5200784
1.520053
1.5200425
1.520159
1.5201504
1.5200259
1.5199872
1.5201323
1.5200981
1.5212794
1.5213989
1.5214114
1.5213055
1.5200962
1.5201715
1.5200455
1.5201258
1.5201385
1.5200897
1.5202437
1.5202007
1.5205142
1.5205609
1.5202425
1.5203237
1.5202935
1.5205506
1.5206159
1.5203986
1.5214705
1.5214567
1.5214495
1.5214634
1.5214811
1.521526
1.5214727
1.521519
1.5214407
1.5214065
1.5214126
1.5214348
1.5213633
1.5213862
1.5212169
1.5213207
1.5213406
1.5213418
1.5212418
1.5212457
1.5213857
1.5213583
1.5212802
1.5212364
1.5204765
1.5205294
1.5201962
1.5202807
1.5200626
1.5200125
1.5201093
1.5200622
1.5204674
1.520498
1.5201905
1.5202444
1.5200578
1.5201386
1.5200068
1.5200917
1.5200995
1.5201293
1.5200528
1.5200842
1.5204736
1.5204975
1.5202168
1.5202529
1.5205199
1.5203049
1.5205534
1.5207945
1.5203579
1.520193
1.5201522
1.5206955
1.520217
1.5202572
1.5207295
1.5206316
1.5199746
1.5199608
1.520056
1.5200445
1.5199568
1.5199124
1.5200039
1.5199623
1.5199818
1.5200293
1.5199673
1.5200164
1.5199495
1.5199062
1.5200313
1.5199912
1.5199985
1.520027
1.5199548
1.5199852
1.5200217
1.520051
1.520008
1.5200383
1.5201189
1.5201075
1.5206479
1.5201847
1.520173
1.5200971
1.5200567
1.52062
1.5201656
1.5201244
1.520587
1.5205595
1.5207568
1.5207299
1.5206583
1.5206774
1.5205923
1.5206151
1.5206316
1.5206076
1.5215083
1.5215637
1.5215696
1.5215194
1.5212413
1.5207723
1.520764
1.5207202
1.520719
1.5206771
1.5206849
1.5206642
1.5206566
1.5205614
1.5205481
1.520002
1.5199637
1.5201011
1.5200682
1.5200404
1.5201409
1.5200228
1.5201264
1.5201261
1.5202665
1.5201112
1.5202545
1.5200864
1.5200526
1.520227
1.5201986
1.519677
1.519442
1.5193239
1.5195961
1.5197851
1.5197492
1.5198536
1.5198214
1.5192802
1.519563
1.5196132
1.5193644
1.5198255
1.5199135
1.5198832
1.5197906
1.5199577
1.5200635
1.5199381
1.5200466
1.5198805
1.5198377
1.5199562
1.5199169
1.5199144
1.5199918
1.5198933
1.5199731
1.5199212
1.5198805
1.5200261
1.5199893
1.5199746
1.5200943
1.5199432
1.5200679
1.5196683
1.5194115
1.5197346
1.5195183
1.519896
1.5199823
1.5198632
1.519954
1.5197348
1.5194939
1.5198497
1.5196488
1.5173407
1.5173854
1.5174187
1.5173795
1.5177525
1.5176012
1.5176452
1.5177746
1.5174742
1.5173813
1.5174422
1.5174192
1.5177855
1.5178136
1.5176401
1.5176911
1.5171704
1.5171193
1.5171595
1.5171317
1.5171566
1.5172096
1.5172205
1.5171694
1.5172184
1.5171634
1.5172039
1.5171804
1.5172027
1.5172545
1.51722
1.517269
1.5172556
1.5172068
1.5172448
1.5172196
1.5173053
1.517242
1.5172543
1.517315
1.5172707
1.5173058
1.5172533
1.5172909
1.5173492
1.5172893
1.5173076
1.5173654
1.5174384
1.5174815
1.517512
1.5174747
1.5175444
1.5174771
1.5175121
1.5175739
1.5176863
1.5178249
1.5177284
1.5178453
1.5177792
1.5178573
1.5178956
1.517723
1.5170018
1.5170396
1.5170406
1.5170027
1.5170163
1.5170078
1.5170468
1.5170538
1.5170383
1.517087
1.5170886
1.51704
1.5170548
1.5170462
1.5170959
1.5171028
1.5170266
1.5170752
1.5170767
1.5170284
1.5170291
1.5169895
1.5170276
1.5169916
1.5169965
1.5170343
1.5170339
1.5169964
1.5170338
1.517082
1.5170818
1.5170341
1.5170744
1.5171098
1.5171111
1.5170761
1.5170814
1.5171162
1.5171163
1.5170817
1.5171681
1.5171091
1.5171682
1.5171104
1.5171154
1.5171721
1.5171729
1.5171161
1.5170859
1.5171213
1.5171232
1.5170882
1.5171039
1.5170954
1.5171317
1.5171389
1.51712
1.5171774
1.5171783
1.5171221
1.51714
1.5171307
1.5171881
1.5171968
1.51717
1.5172123
1.5172469
1.5172087
1.5176043
1.517451
1.5174921
1.5176306
1.5172018
1.517256
1.5172911
1.5172415
1.5176375
1.517481
1.5175281
1.5176677
1.5169679
1.5170045
1.5170154
1.5169801
1.5170098
1.5170468
1.5170589
1.5170235
1.5169955
1.5170414
1.5170526
1.5170082
1.5170387
1.5170841
1.5170971
1.5170537
1.5170808
1.5170339
1.51707
1.5170466
1.5170654
1.5171214
1.517132
1.5170776
1.5171275
1.5170772
1.5171133
1.5170931
1.5171092
1.5171644
1.5171266
1.5171787
1.5172472
1.5172893
1.5173242
1.517287
1.5176763
1.517519
1.5175608
1.5177006
1.5173449
1.5173792
1.5172834
1.517323
1.5177114
1.5175543
1.5176069
1.5177424
1.5169433
1.5169059
1.5169402
1.5169099
1.516937
1.5169892
1.5169915
1.51694
1.5169148
1.5169482
1.5169154
1.516949
1.5169453
1.5169968
1.5169453
1.516996
1.5168586
1.5168932
1.5168951
1.5168611
1.5168661
1.5169005
1.5169059
1.5168726
1.5169293
1.5168849
1.5169278
1.5168873
1.5169409
1.516892
1.5169348
1.5168994
1.5168823
1.5168432
1.5168776
1.5168486
1.5168696
1.5169122
1.5169163
1.5168746
1.5168862
1.5168537
1.5168879
1.5168523
1.51688
1.5169222
1.5168791
1.5169209
1.516921
1.516955
1.5169557
1.5169226
1.5169275
1.5169617
1.5169356
1.5169688
1.5170027
1.517003
1.516951
1.5169516
1.5169664
1.5169571
1.5170089
1.5170159
1.5170309
1.5170147
1.5171697
1.5171414
1.5167846
1.5167706
1.5166328
1.5166286
1.5177658
1.5177376
1.5174687
1.5175234
1.5166345
1.5170143
1.5171839
1.5172976
1.5172497
1.517142
1.5167847
1.5169091
1.516884
1.5167657
1.5173365
1.5173085
1.5174001
1.517246
1.5168757
1.517015
1.5169059
1.5169823
1.5165323
1.516531
1.5166541
1.5166493
1.5166171
1.516609
1.5164977
1.5164962
1.5172146
1.5172635
1.5173028
1.5172566
1.5165048
1.516539
1.5166502
1.5167514
1.5167426
1.5166435
1.5166119
1.5167098
1.5166965
1.5166023
1.5168344
1.5167445
1.5167345
1.5168244
1.5166876
1.5167748
1.5167014
1.5167896
1.5177294
1.5177072
1.517482
1.5174335
1.517204
1.5172497
1.5172756
1.5172317
1.5164467
1.5164461
1.516554
1.5165512
1.5165436
1.5165383
1.5164317
1.5164314
1.517102
1.517108
1.5171413
1.5171371
1.5164378
1.5164523
1.5165503
1.5165466
1.5166345
1.5166392
1.5166329
1.516712
1.5167076
1.5166281
1.5166229
1.5165395
1.5166314
1.5165337
1.5166245
1.5167058
1.5166164
1.5166973
1.5165347
1.5165318
1.5166262
1.5166223
1.516616
1.516701
1.516698
1.5166195
1.5165368
1.5165324
1.516621
1.5166278
1.5166211
1.5166151
1.5167022
1.5166955
1.5164275
1.5164274
1.5165386
1.5165363
1.5165412
1.5165369
1.51643
1.5164305
1.5170961
1.517131
1.5171245
1.5170893
1.5164364
1.5164336
1.5170811
1.5170881
1.517104
1.5171104
1.5170941
1.5171021
1.5171235
1.5171176
1.5166933
1.5167508
1.5167492
1.5166913
1.5166893
1.5166947
1.5167516
1.5167461
1.5167976
1.5167415
1.5167979
1.516741
1.5167387
1.5167945
1.5167429
1.5167989
1.5167569
1.5167045
1.5167604
1.5167006
1.5167511
1.5168064
1.5168038
1.5167482
1.5167476
1.5166977
1.5167547
1.5166903
1.5167451
1.5168014
1.5167392
1.5167956
1.5168351
1.5167975
1.5168376
1.5167951
1.5168782
1.516828
1.5168254
1.5168754
1.5167872
1.5168276
1.5167921
1.5168325
1.5168728
1.5168224
1.5168183
1.5168685
1.5167891
1.5168297
1.51683
1.5167896
1.5168704
1.51682
1.516821
1.5168712
1.5167906
1.5167872
1.5168308
1.5168273
1.5168717
1.5168192
1.5168688
1.5168219
1.5168805
1.5168264
1.5168907
1.5168159
1.5168813
1.5169446
1.5169341
1.5168704
1.5167801
1.5167655
1.5168422
1.5168278
1.5168314
1.5168172
1.5168943
1.5168801
1.5174089
1.5173311
1.517475
1.5173977
1.5173899
1.5174525
1.5174822
1.5175413
1.5170502
1.5170099
1.5170869
1.5169731
1.5170802
1.5170394
1.5171564
1.5171166
1.5175496
1.5174455
1.5175945
1.5174953
1.5174877
1.5175442
1.5176029
1.5176513
1.5171062
1.5171635
1.5171504
1.5172058
1.517199
1.5171521
1.5172654
1.5172212
1.516971
1.5169361
1.5169826
1.5169244
1.5170307
1.5169732
1.5169602
1.5170179
1.5168697
1.5169152
1.5168841
1.5169293
1.5169757
1.5169183
1.5169039
1.5169615
1.5176943
1.5176652
1.5174422
1.5173878
1.5176466
1.5176137
1.517344
1.5173935
1.5172324
1.5172027
1.5171661
1.5171949
1.5171827
1.5172242
1.5172581
1.5172175
1.5170592
1.5170715
1.5170965
1.5170861
1.5170795
1.5170749
1.5170856
1.5171138
1.5171058
1.517099
1.5170689
1.5170623
1.5170925
1.5170422
1.5170459
1.5170745
1.517072
1.5170806
1.5170906
1.5170611
1.5170633
1.5170843
1.5170831
1.5170702
1.5170999
1.5171002
1.517069
1.5170918
1.5170697
1.5170806
1.5171009
1.5170874
1.5170772
1.5171082
1.5171166
1.5176295
1.5173667
1.5174085
1.5176439
1.5171982
1.5171737
1.5172007
1.5172243
1.517223
1.5171845
1.5172118
1.5172492
1.5176467
1.5173902
1.5174378
1.517671
1.5171846
1.5169366
1.5169736
1.5169685
1.5169313
1.5169276
1.5169641
1.5169245
1.5169613
1.5170196
1.5169697
1.5170253
1.5169636
1.5169568
1.5170115
1.5169587
1.5170142
1.5168696
1.5169068
1.5169032
1.5168664
1.5168634
1.5169004
1.5168964
1.5168596
1.5169394
1.5168977
1.5169438
1.5168935
1.5169325
1.5168904
1.5169364
1.516887
1.5169638
1.5169275
1.5169641
1.5169279
1.5169595
1.5170128
1.5170129
1.5169596
1.516928
1.5169638
1.5169294
1.5169655
1.5169618
1.5170142
1.5169611
1.5170125
1.5168635
1.5168613
1.5168975
1.5169001
1.5168616
1.5168989
1.5168993
1.5168628
1.5168902
1.5168895
1.5169353
1.5169355
1.5169365
1.5168914
1.5168895
1.5169344
1.5170513
1.5170228
1.5170659
1.517008
1.5170576
1.5171099
1.5170939
1.5170409
1.5169932
1.5169657
1.5170078
1.5169508
1.5169974
1.5170506
1.5169822
1.5170358
1.5176617
1.5175385
1.5176995
1.5175854
1.5175795
1.5176323
1.5177104
1.5177515
1.5172635
1.5172597
1.5173088
1.5172109
1.5173027
1.5172528
1.5173629
1.5173168
1.5177651
1.5176786
1.5177999
1.5176296
1.5178173
1.5176806
1.5178595
1.5177403
1.5173085
1.5173616
1.5173593
1.5174075
1.5174758
1.5174081
1.5173582
1.517431
1.5171289
1.517104
1.5171465
1.5170856
1.5172065
1.5171442
1.5171242
1.5171884
1.5170267
1.5170699
1.5170422
1.5170843
1.5171435
1.5170797
1.5170647
1.5171289
1.5172084
1.5172548
1.5172373
1.5171883
1.5171272
1.5171432
1.5171909
1.5171762
1.5172564
1.517315
1.5172983
1.5172369
1.5171751
1.5171909
1.5172531
1.5172388
1.5178794
1.5179111
1.5177958
1.5177457
1.5174801
1.5175298
1.5174872
1.517431
1.5179308
1.5179662
1.5178559
1.5178007
1.5175338
1.5175981
1.5175578
1.517487
1.5179868
1.5180139
1.5179082
1.5178617
1.5176025
1.5176495
1.5176112
1.5175577
1.5180353
1.5180761
1.5179719
1.5179144
1.517654
1.5177218
1.5176852
1.5176107
1.5173172
1.5173606
1.5173442
1.5172983
1.5172379
1.5172535
1.5172982
1.5172846
1.5173627
1.5174288
1.5174114
1.5173437
1.5172834
1.5172984
1.5173678
1.5173555
1.5171177
1.5171503
1.5171562
1.5171111
1.5172166
1.517156
1.5171488
1.5172091
1.5171397
1.5171033
1.5171418
1.5171014
1.5171995
1.5171401
1.5171385
1.5171985
1.5170254
1.5170665
1.5170603
1.5170188
1.517118
1.5170658
1.517059
1.5171122
1.5170127
1.5170103
1.5170537
1.5170512
1.5171048
1.5170499
1.5171025
1.517052
1.5170107
1.5170502
1.5170507
1.5170113
1.5170111
1.5170126
1.5170517
1.5170498
1.5171002
1.5170478
1.5170991
1.5170491
1.5170489
1.5170996
1.5170505
1.5171016
1.5170973
1.5170989
1.5171348
1.5171361
1.5171928
1.5171346
1.5171933
1.517133
1.5171007
1.5171375
1.5171357
1.517099
1.5171954
1.5171365
1.5171961
1.517135
1.5168167
1.5167749
1.5168118
1.5167799
1.5168037
1.5168505
1.5168556
1.5168094
1.5167828
1.5168197
1.516785
1.5168221
1.5168143
1.5168612
1.5168127
1.5168591
1.5167006
1.516753
1.5167529
1.5167002
1.5167138
1.5167121
1.5167637
1.516765
1.5167985
1.5167454
1.5167972
1.5167465
1.5167592
1.5168096
1.5167556
1.5168067
1.5167416
1.5166874
1.5167392
1.5166889
1.5167315
1.5167824
1.5167864
1.5167351
1.5167437
1.5166958
1.5167482
1.5166911
1.5167409
1.5167922
1.5167377
1.516789
1.5167899
1.5168272
1.5168291
1.516792
1.5167989
1.516836
1.5168038
1.5168402
1.5168663
1.5168682
1.5168191
1.5168216
1.5168336
1.5168276
1.5168743
1.5168791
1.516555
1.5165534
1.5166377
1.5166353
1.5166306
1.5167067
1.5167052
1.5166325
1.5165711
1.516571
1.5166505
1.5166526
1.5166464