/*--------------------------------*- C++ -*----------------------------------*\
  =========                 |
  \\      /  F ield         | OpenFOAM: The Open Source CFD Toolbox
   \\    /   O peration     | Website:  https://openfoam.org
    \\  /    A nd           | Version:  7
     \\/     M anipulation  |
\*---------------------------------------------------------------------------*/
FoamFile
{
    version     2.0;
    format      ascii;
    class       volScalarField;
    location    "5000";
    object      nut;
}
// * * * * * * * * * * * * * * * * * * * * * * * * * * * * * * * * * * * * * //

dimensions      [0 2 -1 0 0 0 0];

internalField   nonuniform List<scalar> 
33730
(
1.1359987e-29
8.2663964e-31
4.0808212e-29
6.9719359e-30
1.5230777e-30
6.2729303e-30
2.279616e-29
9.8466012e-31
7.7734515e-31
6.6902253e-31
6.7331084e-31
8.272547e-31
1.0634396e-30
1.066045e-30
2.5762321e-29
2.6426714e-29
4.6746568e-29
4.2377611e-30
2.1527846e-30
4.2610491e-30
2.3285817e-30
3.9524693e-30
4.3408442e-30
1.5271431e-30
8.6884836e-30
1.980379e-30
7.8905917e-30
2.3178643e-30
1.6808928e-30
1.8755054e-29
8.1415392e-31
5.5603693e-31
3.3238173e-31
6.2232838e-31
6.5806385e-31
6.6753512e-31
6.1502425e-31
5.4463364e-31
3.2956037e-31
8.9696e-31
9.125364e-31
1.029812e-30
9.6087941e-31
6.3310161e-31
9.6548718e-31
3.3940036e-30
7.2210716e-31
6.2640893e-31
3.8515779e-30
1.3437679e-30
2.9586478e-30
5.8869615e-31
7.3873118e-31
3.7345327e-30
3.0440448e-29
2.1790445e-30
1.4407795e-29
2.2430866e-30
1.5185345e-29
2.2522716e-30
1.4947132e-29
2.2194206e-30
1.4545323e-29
4.2116838e-29
1.2202813e-30
2.8363058e-29
1.7761406e-30
1.7398617e-30
1.350849e-30
1.4004717e-30
1.7017135e-30
1.0803856e-30
1.8113428e-30
1.3138145e-30
1.5610284e-30
4.3604693e-30
1.1136339e-30
1.7430899e-30
1.3422082e-30
1.7987266e-30
1.7517369e-30
1.4062217e-30
1.3872048e-30
2.0032184e-30
4.5405731e-30
2.6570239e-30
4.1784762e-30
3.9698133e-30
7.9841316e-30
1.5379718e-30
2.2107626e-30
1.7815754e-30
7.01433e-30
1.1273474e-30
3.5671218e-31
7.4718095e-31
3.7218948e-31
6.6107603e-31
7.1482828e-31
6.4201489e-31
6.3345029e-31
5.3530371e-31
7.2970335e-31
6.9581979e-31
6.2697335e-31
6.1564474e-31
3.3949388e-31
3.2710381e-31
3.8826126e-31
4.070123e-31
1.6940275e-31
1.6430546e-31
6.2545579e-31
6.1752748e-31
6.4056891e-31
6.7208534e-31
4.7212875e-31
3.3823135e-31
3.1216074e-31
4.0316753e-31
2.7644024e-31
3.0310089e-31
2.5337084e-31
2.4027492e-31
1.8762079e-31
5.4747368e-31
3.8628182e-31
3.9286525e-31
7.0311552e-31
7.1057222e-31
6.7231959e-31
7.2226935e-31
6.8452417e-31
9.0051312e-31
7.5108411e-31
7.281998e-31
7.6058003e-31
1.1717234e-30
1.0832889e-30
1.1698287e-30
7.6853422e-31
4.714906e-31
5.4026673e-31
9.0548919e-31
6.1801789e-31
5.1731079e-31
8.962635e-31
2.5475663e-30
7.9368451e-31
6.9806613e-31
2.6705277e-30
9.7021689e-31
6.0398816e-31
5.1977569e-31
8.7454061e-31
2.370202e-30
2.4473881e-30
1.5774892e-29
1.5711187e-29
1.2572095e-30
1.2166458e-30
1.6157945e-30
1.6186834e-30
1.705159e-30
1.7516316e-30
6.8145776e-30
6.342585e-30
1.1722832e-30
1.1794763e-30
1.6324886e-30
1.633019e-30
1.7965461e-30
1.7575843e-30
6.8885541e-30
6.2714532e-30
1.2219595e-30
1.2280073e-30
1.7193268e-30
1.7069516e-30
1.6947787e-30
1.7300063e-30
6.7387659e-30
6.4717092e-30
1.2178689e-30
1.166728e-30
1.6738489e-30
1.6320686e-30
1.770495e-30
1.7174812e-30
6.7595717e-30
5.9662526e-30
1.0231001e-30
1.1377112e-30
2.7536074e-29
2.9103034e-29
2.29926e-30
5.2845637e-31
6.5712674e-31
2.6425839e-30
2.0786125e-30
2.2222922e-30
1.4447505e-29
1.5721439e-29
7.5718131e-31
6.5502543e-31
7.7537211e-31
6.7923641e-31
7.4561802e-31
6.970307e-31
6.7601529e-31
6.6215635e-31
7.2011897e-31
7.8088568e-31
6.3391235e-31
7.1613921e-31
8.0808106e-31
7.0914756e-31
7.8690588e-31
6.9751593e-31
1.6291602e-30
6.5192099e-31
7.0437505e-31
5.8687402e-31
6.5649824e-31
1.645574e-30
1.2943341e-30
1.2656024e-30
7.5465538e-31
6.7430948e-31
7.6145837e-31
6.7518261e-31
7.6012354e-31
7.5887118e-31
6.6728628e-31
6.3498442e-31
7.423962e-31
7.001278e-31
6.4582941e-31
6.62777e-31
1.6437643e-30
1.7079871e-30
1.1924401e-30
1.2627774e-30
1.7549877e-30
1.7398026e-30
1.2899753e-30
1.2750291e-30
4.2761943e-30
1.2335397e-30
1.6559087e-30
1.5520244e-30
1.0525145e-30
1.8193355e-30
4.3499872e-30
1.9225937e-30
4.290421e-30
1.5690855e-30
4.2454607e-31
3.187692e-31
3.4251842e-31
4.3413035e-31
1.6892768e-31
7.8241118e-31
7.1018594e-31
7.4524937e-31
6.7393904e-31
6.6106031e-31
3.8514371e-31
4.9215304e-31
3.6779084e-31
4.6814724e-31
3.5574175e-31
1.7716681e-31
8.144021e-31
6.1040642e-31
6.3198103e-31
7.1734142e-31
5.9948137e-31
5.7995271e-31
5.7796763e-31
5.9918564e-31
5.8869456e-31
5.4832262e-31
4.9633e-31
5.4635932e-31
4.3079264e-31
4.3208064e-31
4.4240847e-31
4.3925176e-31
4.0688077e-31
4.3790964e-31
4.2824279e-31
4.1268443e-31
2.3287397e-31
2.4828253e-31
2.4852196e-31
2.542255e-31
1.8911871e-31
2.3758919e-31
2.499117e-31
2.4826341e-31
2.2739687e-31
1.852433e-31
2.9958939e-31
3.0667431e-31
3.0013952e-31
2.8601011e-31
3.1882898e-31
2.9883261e-31
2.8657358e-31
3.0305936e-31
1.8271685e-31
1.9160022e-31
1.8973407e-31
1.8717854e-31
4.3656488e-31
4.3058776e-31
4.2346276e-31
4.2107925e-31
4.411094e-31
4.0775077e-31
3.9949471e-31
4.2537452e-31
6.1069136e-31
5.4587682e-31
5.2281158e-31
5.8331531e-31
5.9788789e-31
5.8745234e-31
5.8929284e-31
5.8411795e-31
3.0915081e-31
3.5222736e-31
3.4869333e-31
3.0694629e-31
2.8771856e-31
2.9426264e-31
2.4913854e-31
2.4905151e-31
2.3730758e-31
2.6946716e-31
2.3168663e-31
2.643032e-31
3.2163287e-31
3.2011908e-31
3.0966412e-31
3.0961902e-31
3.0347115e-31
2.4145795e-31
3.1864262e-31
2.5419706e-31
2.7672046e-31
2.5016762e-31
2.8791251e-31
2.5991819e-31
2.0365098e-31
1.930728e-31
2.1835868e-31
2.0247851e-31
1.4531671e-31
1.5290208e-31
1.6541991e-31
1.8046268e-31
1.6652981e-31
1.6223782e-31
1.9452289e-31
1.7918036e-31
2.0997387e-31
2.1531064e-31
2.998595e-31
2.5976558e-31
3.1144576e-31
2.9238188e-31
2.2469148e-31
3.0840222e-31
2.359384e-31
3.0240115e-31
2.548768e-31
3.1557619e-31
2.6511646e-31
3.9034986e-31
3.9034051e-31
3.9749341e-31
4.0526917e-31
3.8644668e-31
4.1424131e-31
4.2325556e-31
4.1741448e-31
3.6359454e-31
3.9123893e-31
7.0317489e-31
7.3552309e-31
4.0802573e-31
4.1362005e-31
4.0052602e-31
3.9272654e-31
4.1489482e-31
4.1705497e-31
7.8928637e-31
7.6572319e-31
7.7596854e-31
7.7672755e-31
7.8016555e-31
7.0134492e-31
1.0609961e-30
1.0497065e-30
1.0877542e-30
5.1096579e-31
7.7500889e-31
8.2265126e-31
9.1262487e-31
2.2859252e-30
1.2301309e-30
1.1965516e-30
6.2068257e-31
5.7311519e-31
3.5812778e-30
1.3095297e-30
1.2255332e-30
9.2530656e-31
6.3710972e-31
5.3026275e-31
8.9182422e-31
2.2873036e-30
1.2480043e-30
1.2494337e-30
6.4591176e-31
5.471969e-31
2.1931383e-30
1.2445068e-30
1.2124205e-30
1.4978837e-30
1.1254883e-30
1.5247573e-30
1.1662667e-30
1.1322787e-30
1.149305e-30
1.5535386e-30
1.5700145e-30
6.587817e-30
1.7064554e-30
1.7535512e-30
6.9235774e-30
1.8051276e-30
6.8127582e-30
1.8080156e-30
6.1895871e-30
7.3728696e-31
7.379549e-31
7.336614e-31
7.6171366e-31
9.3174481e-31
9.4997233e-31
7.5817294e-31
7.8001923e-31
9.0324386e-31
9.5223753e-31
6.5827425e-31
6.5328519e-31
1.6987279e-30
1.6754838e-30
5.9327788e-31
1.4824648e-30
6.4332599e-31
1.6299705e-30
7.2882968e-31
7.2386452e-31
9.4347959e-31
7.3352442e-31
9.2875471e-31
7.745133e-31
9.4827104e-31
9.0753647e-31
7.5144738e-31
7.7286519e-31
6.115196e-31
6.4761954e-31
1.6751039e-30
1.6304469e-30
6.2899729e-31
1.6601169e-30
1.5454964e-30
6.4049831e-31
7.3230671e-31
7.3910512e-31
9.3591959e-31
9.3184308e-31
7.2054443e-31
7.503664e-31
9.6584339e-31
9.2249856e-31
7.4387291e-31
7.7516082e-31
6.3460767e-31
1.6479356e-30
6.3383224e-31
1.6024791e-30
5.892369e-31
1.5403962e-30
6.3081849e-31
1.6462004e-30
7.2152364e-31
7.1155807e-31
9.6583788e-31
9.6347343e-31
7.4650447e-31
7.8028699e-31
9.7491603e-31
9.4418126e-31
7.6313783e-31
7.6786456e-31
6.0380986e-31
1.5511454e-30
6.3874244e-31
1.6234512e-30
6.3302776e-31
6.1222399e-31
1.5937237e-30
1.4914409e-30
5.9975165e-31
4.4575065e-31
2.0160984e-30
8.1555501e-31
7.4636277e-31
2.1067662e-30
2.3139648e-30
2.0858901e-30
1.5695302e-29
2.1876725e-30
2.222368e-30
1.5343977e-29
1.5313468e-29
9.1269659e-31
5.8147531e-31
5.1920399e-31
8.9069775e-31
1.1444053e-30
1.0923983e-30
1.4677219e-30
1.4764466e-30
1.1273144e-30
1.5375172e-30
1.1095957e-30
1.5085146e-30
1.6867537e-30
6.3614208e-30
1.7372829e-30
6.7924227e-30
1.8387486e-30
7.1175467e-30
1.8622118e-30
6.5662417e-30
6.2087136e-31
5.5864712e-31
1.9878096e-31
2.2043106e-31
2.1249456e-31
6.21689e-31
5.5023352e-31
2.0535165e-31
5.6338256e-31
5.5804217e-31
1.9334547e-31
2.0552326e-31
5.2465124e-31
5.6475291e-31
1.975517e-31
1.9093513e-31
6.3285191e-31
5.7020408e-31
1.9572805e-31
2.2083466e-31
6.4991659e-31
5.5903162e-31
2.1512246e-31
2.2608873e-31
5.9402737e-31
5.8475965e-31
2.0952498e-31
2.2534265e-31
6.3234595e-31
5.6543692e-31
2.1847255e-31
2.1039123e-31
6.9208132e-31
6.6292195e-31
6.0522954e-31
6.0803869e-31
5.2927461e-31
4.8705854e-31
1.7314616e-31
1.9503519e-31
5.6245121e-31
5.2791385e-31
1.9184411e-31
2.0217496e-31
6.8611465e-31
6.9766061e-31
6.0132572e-31
5.6701927e-31
5.6814321e-31
5.73212e-31
1.9132681e-31
2.0823988e-31
5.8219596e-31
6.1238187e-31
2.0608356e-31
2.0091903e-31
6.0663248e-31
5.9774153e-31
2.023298e-31
2.1803605e-31
5.7165508e-31
6.0221253e-31
2.1069899e-31
2.087324e-31
5.4889182e-31
1.9223427e-31
1.958402e-31
5.6455696e-31
5.5171326e-31
5.1205342e-31
1.9033806e-31
1.9663645e-31
7.0191944e-31
7.3483623e-31
6.4591948e-31
5.9602647e-31
7.6405997e-31
7.5141321e-31
6.3872951e-31
6.6321894e-31
7.4616194e-31
7.4989278e-31
6.2494755e-31
6.4235856e-31
6.6763108e-31
7.7157278e-31
7.5048033e-31
6.5849761e-31
1.6507165e-30
1.6384329e-30
1.2788154e-30
1.2021554e-30
7.5524064e-31
7.3796986e-31
6.4276654e-31
6.6116693e-31
5.6058144e-31
6.4617843e-31
6.838305e-31
6.2973712e-31
1.0949707e-30
1.6102518e-30
1.7649319e-30
1.2546162e-30
1.7782514e-30
1.1817367e-30
1.7613344e-30
1.2610398e-30
3.0786389e-31
3.0245991e-31
2.8980345e-31
2.9283245e-31
2.2922049e-31
2.3242418e-31
2.4393804e-31
2.4162116e-31
1.846147e-31
2.4088646e-31
2.469733e-31
2.5844307e-31
2.5289143e-31
2.006059e-31
3.1508397e-31
3.2081941e-31
3.1901596e-31
3.1034708e-31
1.8457016e-31
1.7954064e-31
6.0491175e-31
5.7971859e-31
5.6253146e-31
5.6494404e-31
6.1678873e-31
5.4853168e-31
8.4260418e-31
5.7512102e-31
5.1979171e-31
4.5439625e-31
4.4213149e-31
4.3908059e-31
4.4523248e-31
6.4670051e-31
4.5981803e-31
4.4003239e-31
4.248562e-31
4.0518743e-31
6.365065e-31
7.627063e-31
4.5899593e-31
3.453961e-31
3.36692e-31
4.2126215e-31
1.7700782e-31
3.0131161e-31
3.4761913e-31
3.2505216e-31
3.171606e-31
2.7149384e-31
2.656354e-31
2.4341948e-31
2.5772415e-31
1.99458e-31
3.1914461e-31
3.3794557e-31
3.2993979e-31
3.1454522e-31
2.6898149e-31
2.714669e-31
2.4824288e-31
2.4942483e-31
1.9834573e-31
2.016084e-31
2.2044708e-31
7.5928892e-31
1.1153388e-31
1.1052897e-31
6.3218138e-31
5.9739398e-31
5.8069555e-31
6.0751285e-31
3.9807204e-31
3.9894904e-31
4.0607282e-31
3.9649707e-31
4.3613338e-31
4.4483308e-31
4.3778925e-31
4.3278412e-31
5.6408758e-31
5.673977e-31
5.4994379e-31
5.656861e-31
3.2943853e-31
3.3333425e-31
3.0345521e-31
3.0286091e-31
3.3469666e-31
2.9674662e-31
3.4247541e-31
2.9840983e-31
3.5162226e-31
2.6067872e-31
3.619191e-31
2.6818996e-31
3.5636823e-31
2.7300328e-31
3.5767798e-31
2.815372e-31
3.4344787e-31
3.5505024e-31
3.168137e-31
3.1766469e-31
2.8207544e-31
3.226712e-31
3.3165197e-31
2.8282838e-31
3.3140193e-31
3.4804459e-31
2.4505369e-31
2.6312757e-31
3.6317035e-31
3.6899434e-31
2.7435548e-31
2.7913323e-31
3.3162718e-31
3.4042167e-31
2.9193069e-31
2.9844447e-31
3.3272752e-31
3.437063e-31
2.8673287e-31
2.9241546e-31
3.2096082e-31
2.5428879e-31
3.3348462e-31
2.609367e-31
3.218621e-31
3.3111747e-31
2.5877167e-31
2.6445352e-31
3.1107091e-31
2.3881304e-31
3.2345275e-31
2.4759518e-31
3.463233e-31
3.6051488e-31
3.0211657e-31
3.0873782e-31
3.3313451e-31
2.789333e-31
3.4334472e-31
2.8535915e-31
3.2832517e-31
3.4186086e-31
2.6219068e-31
2.6878634e-31
1.4004963e-31
1.5596548e-31
1.7184496e-31
1.6638495e-31
1.5394653e-31
1.9487628e-31
2.2056079e-31
1.8925218e-31
2.0788435e-31
1.5873263e-31
1.712323e-31
1.9219176e-31
1.8559884e-31
1.6982905e-31
2.1490581e-31
2.3444365e-31
2.095216e-31
2.2265371e-31
2.2363332e-31
2.1581557e-31
1.6532702e-31
1.572283e-31
1.7306595e-31
1.7188557e-31
1.8109902e-31
2.2703298e-31
2.1809247e-31
2.2078247e-31
2.1031132e-31
2.119694e-31
2.0313757e-31
2.1687575e-31
2.0607043e-31
1.5182671e-31
1.5243245e-31
1.5958281e-31
1.6974486e-31
1.6392004e-31
1.9414899e-31
1.8191091e-31
2.8457355e-31
2.9033863e-31
2.6489058e-31
2.6789347e-31
3.0563058e-31
2.8066083e-31
2.9776455e-31
2.7239171e-31
3.4002909e-31
2.789869e-31
3.3525302e-31
2.743634e-31
3.2010488e-31
2.6821871e-31
3.2594829e-31
2.7264107e-31
2.9418845e-31
2.7519707e-31
3.1612243e-31
2.9070346e-31
2.65571e-31
2.4628986e-31
2.9413762e-31
2.6758597e-31
2.9758434e-31
2.444015e-31
3.2800638e-31
2.6468561e-31
3.2824287e-31
2.7209255e-31
3.518291e-31
2.8772394e-31
2.2573881e-31
1.8876307e-31
1.7012728e-31
1.7910951e-31
1.5418877e-31
1.6795802e-31
1.9217553e-31
1.9879149e-31
2.1192352e-31
1.8566923e-31
2.0955463e-31
1.8441911e-31
2.0285443e-31
2.0189573e-31
1.7753974e-31
1.7703081e-31
3.3082421e-31
3.2997303e-31
2.6131152e-31
2.5882159e-31
3.4105034e-31
3.3762219e-31
2.9232522e-31
2.86323e-31
3.1771462e-31
2.5759372e-31
3.2346182e-31
2.610893e-31
3.3348864e-31
3.2634677e-31
2.8573969e-31
2.8835062e-31
3.3103235e-31
2.8854688e-31
3.5506628e-31
3.0329742e-31
2.9956389e-31
2.5674468e-31
3.2590322e-31
2.7421853e-31
2.8622382e-31
2.2488612e-31
3.1129176e-31
2.41022e-31
3.1891538e-31
2.5488749e-31
3.4088622e-31
2.6816835e-31
3.2970636e-31
3.4984056e-31
3.0337658e-31
3.1333833e-31
2.9750363e-31
3.1693934e-31
2.6819134e-31
2.7911466e-31
3.2223459e-31
3.4343471e-31
2.383683e-31
2.5675617e-31
3.5853242e-31
3.7448713e-31
2.6959389e-31
2.7885694e-31
3.6945826e-31
2.7029326e-31
3.6972699e-31
2.7219635e-31
3.4210813e-31
3.0280376e-31
3.381927e-31
2.9582407e-31
3.2601775e-31
3.2649806e-31
2.9981905e-31
2.9563184e-31
3.5722044e-31
2.7296808e-31
3.5519043e-31
2.7969721e-31
3.3074889e-31
2.6582673e-31
3.4131168e-31
2.7351078e-31
3.1174136e-31
3.2168794e-31
2.9018524e-31
2.9670075e-31
3.0606957e-31
2.7954142e-31
3.1398445e-31
2.8419051e-31
3.3605415e-31
3.4757629e-31
2.7727053e-31
2.8369602e-31
2.3607774e-31
2.2336245e-31
2.5138665e-31
2.2878273e-31
2.3693563e-31
2.2148606e-31
2.3911853e-31
2.2509227e-31
1.6709939e-31
1.714783e-31
1.7981394e-31
1.9120167e-31
1.6970917e-31
1.7573635e-31
1.904927e-31
1.8271459e-31
1.5675808e-31
1.6163416e-31
1.7780198e-31
1.7560662e-31
2.1439917e-31
2.1159691e-31
2.3035815e-31
2.1795946e-31
1.5271355e-31
1.5906836e-31
1.6959237e-31
1.6306485e-31
2.1261077e-31
2.0880731e-31
2.2453395e-31
2.1588957e-31
2.9095964e-31
2.7420107e-31
2.995593e-31
2.8109226e-31
2.9634678e-31
2.7600154e-31
3.0674846e-31
2.8159135e-31
3.304471e-31
2.7258263e-31
3.4265824e-31
2.7996558e-31
3.2785384e-31
2.7564199e-31
3.3758374e-31
2.8427649e-31
1.6262288e-31
1.8582214e-31
1.6145856e-31
1.8745195e-31
1.6120911e-31
1.3012446e-31
1.2981617e-31
1.6387614e-31
1.8986582e-31
1.6656036e-31
1.8746154e-31
1.6378475e-31
1.6316049e-31
1.3274454e-31
1.6630273e-31
1.3448853e-31
2.1767664e-31
2.5340482e-31
2.1258501e-31
2.6141298e-31
2.083714e-31
1.6385637e-31
1.6413778e-31
2.1307492e-31
2.2383259e-31
2.5649579e-31
2.1630213e-31
2.633324e-31
2.1195864e-31
1.6788637e-31
2.1759692e-31
1.6881986e-31
3.0813533e-31
3.7605428e-31
3.0115994e-31
3.8138136e-31
2.9757047e-31
2.2541328e-31
2.2875035e-31
3.0366637e-31
3.2004414e-31
3.7953034e-31
3.102141e-31
3.8764175e-31
3.0499211e-31
2.3207909e-31
3.2111282e-31
2.3688109e-31
6.0020962e-31
6.0146738e-31
4.1327382e-31
4.1520885e-31
4.3555602e-31
4.4562184e-31
6.0462372e-31
6.4287969e-31
3.5448854e-31
1.1194559e-31
1.2988758e-31
1.3136639e-31
1.1319547e-31
3.7945338e-31
6.4200272e-31
6.7434264e-31
4.5079648e-31
4.6045445e-31
1.2438278e-31
1.4533938e-31
1.3863009e-31
1.2013646e-31
3.9312799e-31
1.1962591e-31
1.3019253e-31
1.228558e-31
1.15454e-31
1.3260355e-31
1.337413e-31
1.2477086e-31
1.2091564e-31
1.0572399e-31
1.0348092e-31
1.1485615e-31
9.0041673e-32
9.3051998e-32
8.8054089e-32
9.5122333e-32
9.20093e-32
8.2062037e-32
8.3413976e-32
9.6807802e-32
9.0432047e-32
9.3197449e-32
8.820328e-32
9.4591239e-32
1.0362542e-31
1.138612e-31
1.0186251e-31
1.1466583e-31
1.0144513e-31
8.4229257e-32
8.5360975e-32
1.0545538e-31
1.1717925e-31
1.0507599e-31
1.1542245e-31
1.0389664e-31
1.0306383e-31
8.5914001e-32
1.0439372e-31
8.6741716e-32
1.2509435e-31
1.4148456e-31
1.2567488e-31
1.4184759e-31
1.2604437e-31
1.0283224e-31
1.0280199e-31
1.2647385e-31
1.2909217e-31
1.4268859e-31
1.2753017e-31
1.4487981e-31
1.2784271e-31
1.0527498e-31
1.3002438e-31
1.0644778e-31
1.6786574e-31
1.6963024e-31
1.6832141e-31
1.7165674e-31
1.763315e-31
1.8299438e-31
1.7613716e-31
1.7192882e-31
1.7203004e-31
1.9070767e-31
1.8695928e-31
1.7778885e-31
1.7774096e-31
1.8610247e-31
1.8137564e-31
1.7890403e-31
3.7913304e-31
1.5275022e-31
1.6956026e-31
1.7044624e-31
1.5891273e-31
3.8198718e-31
3.9016628e-31
3.9793087e-31
1.6442315e-31
1.7370538e-31
1.6971944e-31
1.7213594e-31
1.6357187e-31
1.6168912e-31
1.582511e-31
1.7049274e-31
1.7966995e-31
1.8258304e-31
1.7481576e-31
1.7475894e-31
4.2625665e-31
4.2736879e-31
3.9640098e-31
4.1378241e-31
4.2225283e-31
4.2537454e-31
4.3371941e-31
4.3161962e-31
4.188467e-31
4.3181361e-31
3.7154175e-31
7.3084174e-31
4.0269884e-31
7.1742016e-31
7.7790049e-31
6.9690009e-31
7.4940185e-31
7.7250081e-31
8.004763e-31
6.097971e-31
1.1299114e-30
1.3483983e-30
6.6972831e-31
4.994752e-31
5.0310474e-31
7.0992857e-31
5.2483188e-31
5.3235713e-31
1.3685775e-30
6.2241033e-31
6.4369225e-31
5.4159143e-31
5.6456231e-31
1.2221543e-30
6.4331587e-31
6.5643209e-31
1.8160521e-30
1.1162713e-30
1.1294703e-30
6.0191408e-31
5.2412154e-31
2.3035285e-30
1.1930213e-30
1.1932568e-30
5.4451558e-31
5.4427833e-31
1.6421196e-30
6.3752066e-31
6.5645983e-31
5.2867302e-31
5.4608613e-31
1.2093528e-30
6.3833828e-31
6.2712838e-31
6.9840745e-31
7.15799e-31
7.1352378e-31
7.3386569e-31
6.1285159e-31
1.6120029e-30
6.6689028e-31
1.7157446e-30
8.8819095e-31
9.0557192e-31
7.2069169e-31
7.6284075e-31
8.6594529e-31
9.2835182e-31
7.6402869e-31
7.8424281e-31
6.7615782e-31
6.7749015e-31
1.7099606e-30
1.6946213e-30
9.4438717e-31
8.9419758e-31
7.87761e-31
7.687093e-31
6.5952376e-31
1.6509301e-30
6.1580857e-31
1.6138189e-30
9.0725672e-31
9.2506219e-31
7.3514332e-31
7.7863533e-31
6.5032119e-31
6.4094472e-31
1.6311551e-30
1.5151132e-30
8.8572783e-31
7.9988833e-31
7.3918209e-31
7.0152943e-31
6.6182427e-31
6.5626109e-31
8.6655444e-31
8.4846423e-31
7.0860403e-31
7.1594175e-31
6.4359271e-31
6.6523531e-31
8.0764065e-31
8.099411e-31
3.9881479e-31
3.8011104e-31
4.0864752e-31
8.278278e-31
8.1017743e-31
4.1568304e-31
3.9289959e-31
8.1349719e-31
8.2524855e-31
4.0877215e-31
4.0304401e-31
8.1044103e-31
7.9779771e-31
4.0519435e-31
2.2504425e-31
2.3563824e-31
2.4607707e-31
2.3815873e-31
2.4469974e-31
2.3746886e-31
2.4086456e-31
2.2683102e-31
2.0508157e-31
1.5893539e-31
1.5752017e-31
2.123369e-31
1.5301668e-31
1.6232296e-31
2.1323424e-31
2.0851092e-31
2.3226037e-31
2.4516011e-31
2.0889179e-31
2.2372338e-31
1.9222169e-31
1.4916877e-31
1.5010721e-31
2.0080645e-31
2.3807606e-31
2.3601649e-31
2.429152e-31
2.3607667e-31
1.5340434e-31
1.6090819e-31
2.0485159e-31
2.0128385e-31
9.1209361e-31
8.9434691e-31
7.2374568e-31
7.3423816e-31
6.5020045e-31
6.2407548e-31
8.9482251e-31
8.281579e-31
7.3680837e-31
7.0869248e-31
6.4812953e-31
6.4638694e-31
3.8348559e-31
8.0398813e-31
8.1128673e-31
3.9637495e-31
8.3288705e-31
8.1087803e-31
4.0755305e-31
4.1351113e-31
3.8388823e-31
8.044425e-31
8.2167928e-31
3.9783952e-31
3.9094382e-31
7.9354019e-31
3.9484645e-31
7.9217347e-31
2.0973585e-31
2.3328333e-31
2.4388944e-31
2.2288534e-31
2.4523758e-31
2.3926079e-31
2.3202201e-31
2.4610238e-31
1.6442583e-31
2.1325839e-31
2.1033137e-31
1.5620221e-31
2.0586469e-31
1.5427865e-31
1.5522247e-31
2.1373589e-31
2.3903159e-31
2.405012e-31
1.9654267e-31
2.2697621e-31
1.5950375e-31
1.5767138e-31
2.1339598e-31
2.041001e-31
2.0839118e-31
1.5956719e-31
1.4779298e-31
1.9990763e-31
2.4226496e-31
2.3208961e-31
2.3275251e-31
2.3694692e-31
9.2724707e-31
9.1278676e-31
7.5408176e-31
7.500752e-31
6.5618248e-31
6.3188447e-31
9.7723611e-31
9.0037419e-31
7.353729e-31
7.6991949e-31
6.4673955e-31
6.4868445e-31
6.3368555e-31
6.3624391e-31
8.0084876e-31
7.88047e-31
3.7177567e-31
3.8578668e-31
4.0465341e-31
8.2466144e-31
7.9957837e-31
4.0407832e-31
6.4820819e-31
6.255179e-31
8.383367e-31
8.2715851e-31
3.8833077e-31
4.0483421e-31
4.0611614e-31
8.2336028e-31
8.1224629e-31
4.0456754e-31
2.4482065e-31
2.3401551e-31
2.1677646e-31
2.185581e-31
2.0176813e-31
1.5710596e-31
1.5667739e-31
2.1235813e-31
2.2927597e-31
2.4232675e-31
2.4401755e-31
1.9431251e-31
1.4898674e-31
1.6033888e-31
2.1219754e-31
2.0697802e-31
2.4130707e-31
2.3063775e-31
1.9411167e-31
2.0081886e-31
2.0051494e-31
1.5023305e-31
1.5331968e-31
2.1156951e-31
2.1345246e-31
2.3507557e-31
2.3858702e-31
2.0378539e-31
1.5295816e-31
1.6222041e-31
2.1065639e-31
2.0407539e-31
8.6077941e-31
8.7111464e-31
7.2630843e-31
7.2310068e-31
8.903688e-31
8.0011886e-31
7.2155722e-31
7.0298777e-31
8.443092e-31
8.3365021e-31
3.8855395e-31
4.0137114e-31
4.1266138e-31
8.5364507e-31
8.4044242e-31
4.1418345e-31
3.9782807e-31
8.3625163e-31
8.5462206e-31
4.085271e-31
8.1798007e-31
8.1571127e-31
3.9267731e-31
3.9402367e-31
2.4772006e-31
2.3790038e-31
1.9362597e-31
1.9378851e-31
2.0109524e-31
1.5060386e-31
1.5275411e-31
2.1306324e-31
1.9973029e-31
2.4259144e-31
2.4896821e-31
1.8857929e-31
1.527856e-31
1.6225743e-31
2.1518737e-31
2.1136198e-31
1.8802938e-31
2.4458258e-31
2.5192093e-31
1.8751472e-31
1.8777995e-31
2.431683e-31
2.4258982e-31
1.6709415e-31
2.0691834e-31
1.5628383e-31
1.5322298e-31
2.1437967e-31
1.4913537e-31
1.5686327e-31
2.1207702e-31
2.0592828e-31
5.0453562e-31
5.0667067e-31
7.7268996e-31
4.9153446e-31
5.6981774e-31
8.4663961e-31
8.2692147e-31
9.6041796e-31
9.6489185e-31
1.4935944e-30
1.389157e-30
1.8309371e-30
1.7370184e-30
6.9623349e-30
6.4404787e-30
1.0343676e-30
1.0762057e-30
1.4739007e-30
1.4290632e-30
1.0407219e-30
1.0477843e-30
1.4737187e-30
1.5457619e-30
1.7031074e-30
1.7400047e-30
6.472343e-30
6.8377264e-30
1.8073874e-30
1.7249928e-30
6.7319363e-30
6.212837e-30
1.6965391e-30
1.1237784e-30
1.1295904e-30
5.8452424e-31
5.4205158e-31
1.9293162e-30
1.137778e-30
1.1828282e-30
6.9774746e-31
7.1369568e-31
7.166862e-31
7.2611692e-31
8.8675981e-31
9.2141146e-31
7.1742351e-31
7.5145914e-31
6.0907722e-31
6.5808033e-31
1.5654388e-30
1.6520993e-30
8.5809399e-31
9.3033772e-31
7.585011e-31
7.7519251e-31
6.83518e-31
1.7342677e-30
6.8386485e-31
1.6685522e-30
9.3084235e-31
8.712001e-31
7.6613492e-31
7.7717178e-31
6.3439176e-31
1.6585685e-30
6.8114866e-31
1.7283358e-30
8.9666629e-31
9.2947283e-31
7.3031383e-31
7.7121085e-31
6.7601004e-31
6.6894305e-31
1.7200134e-30
1.6632744e-30
2.7699495e-31
2.6166941e-31
2.7987872e-31
2.7393829e-31
2.721857e-31
2.6401851e-31
2.3960476e-31
2.5659094e-31
2.6557524e-31
2.4822236e-31
2.724152e-31
2.7412076e-31
2.8924014e-31
2.7592903e-31
2.8257812e-31
2.7294354e-31
1.7556502e-31
5.0086159e-31
5.1283289e-31
1.8815364e-31
4.8595549e-31
5.1350005e-31
1.8369432e-31
1.8762591e-31
2.3511403e-31
2.2142466e-31
2.4494233e-31
2.521165e-31
1.8582569e-31
5.4194423e-31
5.3608891e-31
1.9511503e-31
5.4320201e-31
5.1534633e-31
1.9201646e-31
1.9038365e-31
2.7230832e-31
2.5832477e-31
2.6638424e-31
2.709312e-31
2.8293293e-31
2.7216451e-31
2.7738535e-31
2.804346e-31
2.5996871e-31
2.643942e-31
2.5094575e-31
2.4390636e-31
5.8764795e-31
5.6996291e-31
1.915139e-31
2.0820437e-31
5.6618226e-31
6.2057649e-31
2.0566677e-31
2.009953e-31
5.5488085e-31
5.6761893e-31
1.9655271e-31
2.0885389e-31
2.0855356e-31
6.0833272e-31
5.9403676e-31
2.005931e-31
6.0738194e-31
6.0976989e-31
2.0264622e-31
2.1999893e-31
2.1042852e-31
6.3958347e-31
5.6426822e-31
2.122523e-31
5.847585e-31
5.7420324e-31
2.0047179e-31
2.1485117e-31
6.0081974e-31
6.180501e-31
2.1327557e-31
2.0665773e-31
6.9497165e-31
5.6505701e-31
6.9436766e-31
5.9271405e-31
6.9438077e-31
6.693628e-31
6.1228647e-31
6.2797263e-31
6.0492619e-31
6.032881e-31
1.9738693e-31
2.0831462e-31
5.9453525e-31
6.2182758e-31
2.0993813e-31
2.121295e-31
5.5218516e-31
5.3741981e-31
1.7662432e-31
1.867436e-31
5.5419966e-31
5.7602259e-31
1.943106e-31
1.9870711e-31
6.727573e-31
7.0235748e-31
6.2108578e-31
5.8082051e-31
7.7734472e-31
7.7431379e-31
6.7353965e-31
6.7712228e-31
5.8574832e-31
7.4744477e-31
7.6155209e-31
6.2681784e-31
7.5847388e-31
7.3163658e-31
6.5406692e-31
6.3860902e-31
2.8350932e-31
2.9106421e-31
2.6566631e-31
2.7028882e-31
2.7990004e-31
2.5684568e-31
2.9216601e-31
2.6497966e-31
3.0963499e-31
2.5396638e-31
3.2503664e-31
2.6451644e-31
3.1520851e-31
2.6152725e-31
3.2372321e-31
2.6714224e-31
1.4755515e-31
1.5305769e-31
1.7499859e-31
1.6047923e-31
1.6284552e-31
1.4913245e-31
1.5609786e-31
1.797103e-31
1.5940125e-31
1.6395624e-31
2.0592397e-31
2.0082435e-31
2.1648273e-31
2.0667757e-31
2.0549458e-31
2.1526722e-31
2.0293816e-31
2.0673944e-31
1.7867323e-31
1.8842648e-31
1.563315e-31
1.6743037e-31
1.8010709e-31
1.7161659e-31
1.7960534e-31
1.585269e-31
1.7057567e-31
1.8767475e-31
1.7163917e-31
1.8225118e-31
2.1856004e-31
2.1286698e-31
2.3709861e-31
2.2434289e-31
2.1685734e-31
2.1298338e-31
2.3501882e-31
2.2396273e-31
1.9203942e-31
1.895727e-31
3.3042065e-31
2.7085759e-31
3.5198175e-31
2.8557131e-31
2.9470352e-31
2.7653128e-31
3.1389826e-31
2.897243e-31
2.9329191e-31
2.7258195e-31
3.1239613e-31
2.8462891e-31
3.3075409e-31
2.7755865e-31
3.5224582e-31
2.9123446e-31
1.6423974e-31
1.7215319e-31
1.6065081e-31
1.7475259e-31
1.9784589e-31
1.9083557e-31
1.703965e-31
1.7695912e-31
3.5453844e-31
3.6492314e-31
3.315696e-31
3.2963608e-31
3.4561091e-31
3.5253516e-31
3.1142252e-31
3.1031039e-31
3.7767893e-31
3.8375581e-31
2.8580202e-31
2.8825629e-31
3.6908508e-31
3.7638052e-31
2.7606936e-31
2.7927554e-31
3.5334218e-31
3.7269648e-31
3.2609429e-31
3.3655126e-31
3.4304675e-31
3.1472067e-31
2.8279533e-31
3.0251798e-31
5.9188139e-31
5.6064627e-31
5.7543879e-31
5.9528251e-31
3.7310097e-31
3.9053511e-31
2.8242311e-31
2.9216076e-31
3.6108932e-31
3.3158795e-31
2.4857853e-31
2.6962184e-31
3.5358676e-31
3.1230495e-31
3.6805315e-31
3.1951647e-31
3.3944303e-31
2.9071311e-31
3.4962986e-31
2.9531084e-31
3.2556372e-31
3.3572911e-31
2.6151638e-31
2.6609218e-31
3.3787729e-31
3.5124371e-31
2.752556e-31
2.8027242e-31
4.3164341e-31
4.2182506e-31
4.3102601e-31
4.3496014e-31
3.5848641e-31
3.1312242e-31
3.790767e-31
3.2663435e-31
3.4002727e-31
3.6095188e-31
2.7277328e-31
2.861085e-31
3.1474169e-31
2.6708747e-31
3.5139969e-31
2.9313651e-31
3.2764374e-31
2.9516458e-31
2.3294843e-31
2.5531748e-31
3.9650553e-31
4.1162129e-31
4.5409558e-31
4.2808084e-31
5.3387607e-31
5.2592997e-31
6.0187625e-31
5.9078422e-31
2.9924695e-31
3.3784949e-31
3.0968646e-31
3.198022e-31
2.4918073e-31
2.5707854e-31
2.3961635e-31
2.3278755e-31
2.4903006e-31
1.9352573e-31
2.4900591e-31
3.0945384e-31
3.0382064e-31
3.0210544e-31
3.0429503e-31
1.9891455e-31
3.1393965e-31
2.5349275e-31
3.5383676e-31
2.8285831e-31
3.2460314e-31
3.4037093e-31
3.0170478e-31
3.1380833e-31
2.8519516e-31
2.6114893e-31
3.2194463e-31
2.8981101e-31
3.541422e-31
2.9224508e-31
3.7262107e-31
3.0478476e-31
2.4388295e-31
2.3428923e-31
2.624075e-31
2.4353626e-31
2.1480804e-31
2.0512047e-31
2.4977007e-31
2.305494e-31
1.5269315e-31
1.7437989e-31
1.6689486e-31
1.75556e-31
1.8683197e-31
1.7754302e-31
1.8814141e-31
1.9149119e-31
2.0061437e-31
1.9270456e-31
1.9733747e-31
2.0761695e-31
3.421077e-31
3.5198398e-31
2.7938354e-31
2.8555221e-31
3.1391399e-31
3.2591793e-31
2.9394596e-31
3.0157475e-31
3.0850326e-31
2.8475974e-31
3.1558176e-31
2.8755221e-31
3.4672925e-31
3.5990054e-31
2.9066597e-31
2.9774369e-31
2.3385744e-31
2.2802615e-31
2.491896e-31
2.3500841e-31
2.3401276e-31
2.2509512e-31
2.4353432e-31
2.2809574e-31
1.6834273e-31
1.7179935e-31
1.8821047e-31
1.844236e-31
1.8439217e-31
1.6986161e-31
1.7812802e-31
1.8921402e-31
1.8320185e-31
1.8979628e-31
1.8734551e-31
1.9768826e-31
1.8661415e-31
1.7684341e-31
1.6458708e-31
1.8248198e-31
1.6378407e-31
1.7993005e-31
1.8426134e-31
1.911628e-31
4.3264368e-31
6.0434803e-31
5.9898169e-31
5.9776427e-31
1.110655e-31
9.8726482e-32
1.2228464e-31
1.121841e-31
8.9026944e-32
1.0225226e-31
1.0990058e-31
1.1882634e-31
9.8010296e-32
8.6052833e-32
8.5721322e-32
3.3887788e-31
3.5617188e-31
3.1698712e-31
3.1987797e-31
3.2589252e-31
2.9050955e-31
3.4323922e-31
2.9679671e-31
3.4496357e-31
2.5527048e-31
3.6144549e-31
2.6584655e-31
3.6744361e-31
3.8124862e-31
2.7418161e-31
2.7820005e-31
2.4584868e-31
2.5491791e-31
3.1441238e-31
3.056949e-31
3.1137511e-31
3.2649753e-31
2.661463e-31
2.7436465e-31
3.2621982e-31
3.1640937e-31
2.7580157e-31
2.7976958e-31
3.0123277e-31
2.389177e-31
2.4730903e-31
3.1601486e-31
3.1777658e-31
2.4966696e-31
3.3807994e-31
2.6153839e-31
3.3446999e-31
3.5605738e-31
2.9406477e-31
3.0636359e-31
3.2734679e-31
2.8266578e-31
3.47338e-31
2.9368247e-31
3.2537531e-31
3.4566718e-31
2.6315031e-31
2.7336278e-31
3.3950107e-31
2.4992913e-31
3.5473078e-31
2.5748773e-31
3.0825552e-31
3.1723618e-31
2.8316014e-31
2.8042941e-31
3.1217542e-31
2.789455e-31
3.2313091e-31
2.826661e-31
3.3971386e-31
3.4203587e-31
2.5754658e-31
2.634525e-31
9.9931691e-32
9.3743614e-32
9.6104984e-32
1.0133703e-31
1.0038686e-31
1.0030047e-31
9.5726617e-32
9.6331109e-32
9.1055973e-32
9.888217e-32
8.9291878e-32
1.0484585e-31
1.0129618e-31
9.2649088e-32
1.0028745e-31
9.117295e-32
1.0065085e-31
1.0477039e-31
9.8312476e-32
1.0657332e-31
1.0255113e-31
9.1055661e-32
9.2598595e-32
1.0812329e-31
1.0076184e-31
1.0429867e-31
9.8299771e-32
1.0613683e-31
1.0191439e-31
9.1104455e-32
1.0509274e-31
9.2180527e-32
1.1140918e-31
1.1532298e-31
1.1198744e-31
1.1799464e-31
1.0060342e-31
1.2935347e-31
1.3195388e-31
1.0122413e-31
1.1551236e-31
1.1157632e-31
1.1350394e-31
1.1023051e-31
9.9172569e-32
1.2709285e-31
1.2857001e-31
9.9965855e-32
1.1174739e-31
1.0793107e-31
1.0825441e-31
1.1493024e-31
9.813646e-32
1.2494578e-31
1.2853976e-31
9.821259e-32
1.125974e-31
1.133141e-31
1.1120484e-31
1.1278291e-31
1.0279463e-31
1.2918009e-31
1.0686061e-31