/*--------------------------------*- C++ -*----------------------------------*\
  =========                 |
  \\      /  F ield         | OpenFOAM: The Open Source CFD Toolbox
   \\    /   O peration     | Website:  https://openfoam.org
    \\  /    A nd           | Version:  7
     \\/     M anipulation  |
\*---------------------------------------------------------------------------*/
FoamFile
{
    version     2.0;
    format      ascii;
    class       volScalarField;
    location    "5000";
    object      p;
}
// * * * * * * * * * * * * * * * * * * * * * * * * * * * * * * * * * * * * * //

dimensions      [0 2 -2 0 0 0 0];

internalField   nonuniform List<scalar> 
33730
(
-1.0559289e+62
-9.6971963e+61
-1.0683097e+62
-1.0263164e+62
-1.0079135e+62
-1.0199087e+62
-1.0379474e+62
-1.0019774e+62
-9.0032843e+61
-9.6741034e+61
-9.6206963e+61
-9.5787418e+61
-1.036593e+62
-1.0302892e+62
-1.0291605e+62
-1.0354471e+62
-1.0512675e+62
-1.009193e+62
-9.9321963e+61
-1.0067375e+62
-9.9547996e+61
-1.0004212e+62
-1.0039784e+62
-9.8692926e+61
-1.0121455e+62
-9.9040818e+61
-1.003203e+62
-9.9447981e+61
-9.863892e+61
-1.0187117e+62
-8.9166337e+61
-9.3020602e+61
-8.8936277e+61
-8.7939169e+61
-9.1230756e+61
-9.164879e+61
-8.8318484e+61
-9.2552657e+61
-8.931167e+61
-9.7115703e+61
-9.6887424e+61
-9.6334171e+61
-9.6645459e+61
-9.5635821e+61
-9.4971037e+61
-1.0139837e+62
-1.0090248e+62
-1.0114024e+62
-1.0164247e+62
-1.022312e+62
-1.0076144e+62
-1.0026417e+62
-1.006206e+62
-1.0112313e+62
-1.0213678e+62
-1.0101659e+62
-1.0078335e+62
-1.0137297e+62
-1.0113586e+62
-1.0189791e+62
-1.0141877e+62
-1.0165737e+62
-1.0165787e+62
-1.0312991e+62
-1.0133826e+62
-1.0123614e+62
-9.9840117e+61
-9.9941552e+61
-9.88833e+61
-9.8979123e+61
-9.9586034e+61
-9.8630428e+61
-9.9724233e+61
-9.8762185e+61
-9.8984943e+61
-9.9707754e+61
-9.8042209e+61
-9.9163298e+61
-9.821533e+61
-9.9320093e+61
-9.9473336e+61
-9.8376415e+61
-9.8523406e+61
-9.8378851e+61
-9.9294413e+61
-9.7991443e+61
-9.8901768e+61
-9.8498068e+61
-9.9565674e+61
-9.7235123e+61
-9.7611211e+61
-9.7919396e+61
-9.8705378e+61
-9.7125258e+61
-8.8560637e+61
-9.1570031e+61
-8.8114817e+61
-8.7090033e+61
-9.0251155e+61
-9.080055e+61
-8.755336e+61
-9.209418e+61
-9.4968928e+61
-9.4754835e+61
-9.2864086e+61
-9.2671013e+61
-8.8921297e+61
-8.9110778e+61
-9.0767323e+61
-9.0529427e+61
-8.5540642e+61
-8.5855689e+61
-9.2437812e+61
-9.2170923e+61
-9.4236836e+61
-9.4519385e+61
-9.0990513e+61
-8.9306562e+61
-8.949725e+61
-9.1163802e+61
-9.2023517e+61
-9.1194607e+61
-9.0469604e+61
-8.9736689e+61
-8.7965326e+61
-9.4896809e+61
-9.3839798e+61
-9.2855585e+61
-9.7495327e+61
-9.738654e+61
-9.7151205e+61
-9.7273175e+61
-9.6606912e+61
-9.607499e+61
-9.6766392e+61
-9.7063649e+61
-9.6913304e+61
-9.5704887e+61
-9.5374178e+61
-9.5047896e+61
-9.4385401e+61
-9.9382445e+61
-9.8827026e+61
-9.9498334e+61
-9.8946142e+61
-9.9194406e+61
-9.9740731e+61
-1.000388e+62
-9.9551004e+61
-9.9935429e+61
-1.004368e+62
-9.8942133e+61
-9.8387223e+61
-9.8700305e+61
-9.925027e+61
-1.0027813e+62
-1.0067832e+62
-1.0003932e+62
-1.0044189e+62
-9.9867483e+61
-9.9692444e+61
-9.9924941e+61
-1.0010535e+62
-9.9919345e+61
-1.0009798e+62
-9.9745777e+61
-9.9568123e+61
-1.0016846e+62
-1.0001938e+62
-1.0040779e+62
-1.002539e+62
-1.0025351e+62
-1.0040423e+62
-9.9905742e+61
-1.0005661e+62
-1.0054355e+62
-1.0064368e+62
-1.0088514e+62
-1.0077932e+62
-1.0052865e+62
-1.0066758e+62
-1.0031527e+62
-1.0017756e+62
-1.004277e+62
-1.0028755e+62
-1.0067015e+62
-1.0052699e+62
-1.0078024e+62
-1.0088235e+62
-1.0043066e+62
-1.0053147e+62
-9.9645253e+61
-1.0052873e+62
-9.9550075e+61
-1.0043407e+62
-9.9234093e+61
-9.8764686e+61
-9.91846e+61
-9.9668589e+61
-9.9455606e+61
-9.9887353e+61
-9.92174e+61
-9.9639548e+61
-9.9173636e+61
-9.8537559e+61
-9.9234213e+61
-9.8598019e+61
-9.9282966e+61
-9.9325667e+61
-9.8692743e+61
-9.8651112e+61
-9.8929189e+61
-9.8991692e+61
-9.8300475e+61
-9.8356634e+61
-9.9053974e+61
-9.8419926e+61
-9.9120395e+61
-9.8486359e+61
-9.8833704e+61
-9.8347067e+61
-9.8431126e+61
-9.7726972e+61
-9.7806889e+61
-9.864113e+61
-9.771725e+61
-9.7900524e+61
-9.8510917e+61
-9.7888912e+61
-9.8593685e+61
-9.7973883e+61
-9.8661786e+61
-9.8740505e+61
-9.8116408e+61
-9.8040841e+61
-9.8812591e+61
-9.8879075e+61
-9.8257655e+61
-9.8190134e+61
-9.8231078e+61
-9.8446965e+61
-9.7312917e+61
-9.7523051e+61
-9.7853336e+61
-9.8053863e+61
-9.6955122e+61
-9.7145462e+61
-9.8184225e+61
-9.6778936e+61
-9.7673986e+61
-9.7496666e+61
-9.6612237e+61
-9.6589931e+61
-9.7801687e+61
-9.6949836e+61
-9.7430261e+61
-9.6218505e+61
-9.0349432e+61
-8.8750245e+61
-8.8509569e+61
-9.0089982e+61
-8.5228352e+61
-9.3389e+61
-9.311344e+61
-9.1439336e+61
-9.1188538e+61
-9.1073e+61
-8.7685146e+61
-8.962103e+61
-8.8060703e+61
-8.9862773e+61
-8.8288533e+61
-8.4836248e+61
-9.3676463e+61
-9.1966993e+61
-9.1683805e+61
-9.4003221e+61
-9.4868462e+61
-9.4773661e+61
-9.6064912e+61
-9.6171264e+61
-9.4664739e+61
-9.4551856e+61
-9.583939e+61
-9.595302e+61
-9.285242e+61
-9.2768532e+61
-9.3740714e+61
-9.3825128e+61
-9.3524153e+61
-9.2663765e+61
-9.2558013e+61
-9.3632435e+61
-8.9007236e+61
-8.9709832e+61
-8.9103402e+61
-8.9816517e+61
-8.7358225e+61
-8.9194213e+61
-8.9922137e+61
-9.0060166e+61
-8.9315881e+61
-8.7520634e+61
-9.0790493e+61
-9.0646112e+61
-9.1477335e+61
-9.1625478e+61
-9.0530343e+61
-9.0417989e+61
-9.123286e+61
-9.1353752e+61
-8.5633717e+61
-8.5788696e+61
-8.76787e+61
-8.7859849e+61
-9.3294107e+61
-9.2316753e+61
-9.3437202e+61
-9.2464177e+61
-9.2187347e+61
-9.2056583e+61
-9.3018753e+61
-9.3160162e+61
-9.4189262e+61
-9.4043074e+61
-9.5320686e+61
-9.5468856e+61
-9.560859e+61
-9.4322181e+61
-9.4466889e+61
-9.5756515e+61
-9.1731568e+61
-9.1020611e+61
-9.090599e+61
-9.1834248e+61
-9.0294762e+61
-9.0173897e+61
-8.9423581e+61
-8.9544307e+61
-8.9634306e+61
-9.0379618e+61
-8.97173e+61
-9.0454477e+61
-9.1182223e+61
-9.1104362e+61
-9.1929631e+61
-9.2013683e+61
-9.1955949e+61
-9.2377954e+61
-9.1947126e+61
-9.2368953e+61
-9.118836e+61
-9.1566046e+61
-9.1178393e+61
-9.1557272e+61
-9.0463675e+61
-9.0828203e+61
-9.045895e+61
-9.0818647e+61
-9.0118111e+61
-9.0112696e+61
-8.9764624e+61
-8.901715e+61
-8.9758726e+61
-9.0111969e+61
-8.9029467e+61
-8.975922e+61
-8.8263478e+61
-8.8285252e+61
-9.4810546e+61
-9.5445344e+61
-9.4823895e+61
-9.3721899e+61
-9.4262201e+61
-9.3727318e+61
-9.4270413e+61
-9.2796265e+61
-9.3249891e+61
-9.2791671e+61
-9.3251949e+61
-9.7770227e+61
-9.7722522e+61
-9.7611774e+61
-9.7670876e+61
-9.7381306e+61
-9.7429252e+61
-9.7488805e+61
-9.7563022e+61
-9.6835361e+61
-9.6910968e+61
-9.6485664e+61
-9.6300858e+61
-9.6987847e+61
-9.7077703e+61
-9.7281547e+61
-9.7351912e+61
-9.7139899e+61
-9.7213135e+61
-9.6121459e+61
-9.5920635e+61
-9.5575068e+61
-9.576819e+61
-9.5419646e+61
-9.5271435e+61
-9.4809888e+61
-9.4450181e+61
-9.4136006e+61
-9.8149524e+61
-9.7427344e+61
-9.5444364e+61
-9.4958171e+61
-9.7580972e+61
-9.9383456e+61
-9.9514121e+61
-9.7075955e+61
-9.7317517e+61
-9.7824916e+61
-9.9623405e+61
-9.9731226e+61
-9.8278671e+61
-9.7727903e+61
-9.8092484e+61
-9.864096e+61
-9.7085305e+61
-9.8832289e+61
-9.8994673e+61
-9.6564271e+61
-9.6843284e+61
-9.7347522e+61
-9.9127521e+61
-9.9269607e+61
-9.9198419e+61
-9.8980557e+61
-9.9409305e+61
-9.9183142e+61
-9.9363092e+61
-9.9543086e+61
-9.9585999e+61
-9.9773412e+61
-9.8820562e+61
-9.9181056e+61
-9.939258e+61
-9.9034354e+61
-9.9762078e+61
-9.9226935e+61
-9.9577536e+61
-9.9412611e+61
-9.915677e+61
-9.9319553e+61
-9.9379172e+61
-9.9469323e+61
-9.9470178e+61
-9.9382503e+61
-9.9546769e+61
-9.963039e+61
-9.9629467e+61
-9.9551625e+61
-9.9385797e+61
-9.9466654e+61
-9.8984093e+61
-9.9064029e+61
-9.9216758e+61
-9.8815816e+61
-9.9307047e+61
-9.8903812e+61
-9.9597465e+61
-9.9454422e+61
-9.9697307e+61
-9.9698919e+61
-9.9776725e+61
-9.9782194e+61
-9.9847695e+61
-9.9912003e+61
-9.9849238e+61
-9.99197e+61
-9.9537779e+61
-9.9621344e+61
-9.9218579e+61
-9.9135382e+61
-9.9755528e+61
-9.9289402e+61
-9.9352297e+61
-9.9689897e+61
-1.0006092e+62
-9.9951373e+61
-9.996919e+61
-1.0003838e+62
-9.9975294e+61
-1.0004571e+62
-1.0010243e+62
-1.0016151e+62
-1.0010553e+62
-1.0016956e+62
-9.9946226e+61
-9.9542481e+61
-1.0000698e+62
-9.9603645e+61
-9.9812604e+61
-9.9406852e+61
-9.9884267e+61
-9.9477848e+61
-9.9844704e+61
-9.9715106e+61
-1.0021287e+62
-1.0027399e+62
-1.002197e+62
-1.0028266e+62
-1.0032683e+62
-1.0037076e+62
-1.0033117e+62
-1.0037869e+62
-1.0005962e+62
-9.9657437e+61
-1.0012132e+62
-9.9719171e+61
-1.0016889e+62
-1.0021183e+62
-9.9766192e+61
-9.9805177e+61
-9.7624592e+61
-9.7194211e+61
-9.8085893e+61
-9.8415952e+61
-9.8011963e+61
-9.8471078e+61
-9.8885398e+61
-9.8292311e+61
-9.808538e+61
-9.8696107e+61
-9.9100114e+61
-9.8481492e+61
-9.8872796e+61
-9.7539972e+61
-9.7007305e+61
-9.7400322e+61
-9.7933601e+61
-9.8416615e+61
-9.820841e+61
-9.8418936e+61
-9.8630634e+61
-9.8607865e+61
-9.8815707e+61
-9.8810033e+61
-9.902463e+61
-9.8400953e+61
-9.8056556e+61
-9.8605029e+61
-9.8246663e+61
-9.8998911e+61
-9.8434547e+61
-9.8793856e+61
-9.8636302e+61
-9.8641718e+61
-9.8609025e+61
-9.8302241e+61
-9.8331094e+61
-9.835962e+61
-9.8669432e+61
-9.8693789e+61
-9.8389533e+61
-9.8744978e+61
-9.8718075e+61
-9.8410265e+61
-9.8437026e+61
-9.87856e+61
-9.8768294e+61
-9.8460118e+61
-9.8476437e+61
-9.8403036e+61
-9.8376701e+61
-9.8068009e+61
-9.8090123e+61
-9.8428529e+61
-9.8452196e+61
-9.8115815e+61
-9.8145699e+61
-9.8518691e+61
-9.848132e+61
-9.8172688e+61
-9.8209583e+61
-9.8553727e+61
-9.8583017e+61
-9.8244681e+61
-9.8279624e+61
-9.8181847e+61
-9.8273407e+61
-9.7661839e+61
-9.7572576e+61
-9.7849903e+61
-9.7808593e+61
-9.7502495e+61
-9.7540292e+61
-9.7889546e+61
-9.7926643e+61
-9.7579446e+61
-9.7620941e+61
-9.7986129e+61
-9.8088544e+61
-9.747835e+61
-9.7379383e+61
-9.8008266e+61
-9.7965285e+61
-9.7656183e+61
-9.7700151e+61
-9.8086066e+61
-9.8049404e+61
-9.7742016e+61
-9.7784296e+61
-9.8154477e+61
-9.8117907e+61
-9.7813787e+61
-9.7849555e+61
-9.8223495e+61
-9.8188955e+61
-9.7885037e+61
-9.7922015e+61
-9.8256271e+61
-9.7951504e+61
-9.7990383e+61
-9.8296622e+61
-9.8329431e+61
-9.8355486e+61
-9.802605e+61
-9.8052487e+61
-9.7588779e+61
-9.7692707e+61
-9.7086977e+61
-9.6986947e+61
-9.7791517e+61
-9.789572e+61
-9.7293784e+61
-9.7188438e+61
-9.7212173e+61
-9.7311128e+61
-9.6617598e+61
-9.6715178e+61
-9.6812529e+61
-9.7405542e+61
-9.7504139e+61
-9.6909396e+61
-9.7187534e+61
-9.7360455e+61
-9.6491746e+61
-9.6331707e+61
-9.7044491e+61
-9.713211e+61
-9.6458324e+61
-9.65429e+61
-9.6306919e+61
-9.6887815e+61
-9.6965394e+61
-9.6380123e+61
-9.595363e+61
-9.6815988e+61
-9.7011249e+61
-9.6149795e+61
-9.6479225e+61
-9.5645942e+61
-9.6661502e+61
-9.5810733e+61
-9.0335735e+61
-9.0201403e+61
-9.100487e+61
-9.1141411e+61
-8.8793157e+61
-8.8930049e+61
-8.9496991e+61
-8.9628704e+61
-8.720196e+61
-8.8546024e+61
-8.8671059e+61
-8.9241808e+61
-8.9372219e+61
-8.69805e+61
-9.0730958e+61
-9.0073151e+61
-8.9936107e+61
-9.0875508e+61
-8.5512688e+61
-8.5299403e+61
-9.3307619e+61
-9.3138089e+61
-9.4523994e+61
-9.4342637e+61
-9.3012435e+61
-9.2892062e+61
-9.2891262e+61
-9.4203191e+61
-9.4073462e+61
-9.1409201e+61
-9.1264802e+61
-9.2173218e+61
-9.2326102e+61
-9.0979406e+61
-9.1148146e+61
-9.2051618e+61
-9.1044299e+61
-9.1937998e+61
-9.0679898e+61
-9.2559386e+61
-8.9157497e+61
-8.7632048e+61
-8.787876e+61
-8.9420523e+61
-8.4461836e+61
-9.0268766e+61
-8.9598571e+61
-8.9492839e+61
-9.0367574e+61
-8.891435e+61
-8.8805937e+61
-8.8118178e+61
-8.8224877e+61
-8.6570572e+61
-9.0482244e+61
-8.9837599e+61
-8.9708015e+61
-9.0618355e+61
-8.9149732e+61
-8.9024372e+61
-8.8331773e+61
-8.8457714e+61
-8.678323e+61
-8.4949318e+61
-8.5136686e+61
-9.2272296e+61
-8.3260665e+61
-8.3434196e+61
-9.3621674e+61
-9.3446799e+61
-9.4672679e+61
-9.486108e+61
-9.2912514e+61
-9.181233e+61
-9.1955719e+61
-9.276334e+61
-9.2455e+61
-9.1679821e+61
-9.1527501e+61
-9.2621439e+61
-9.5029746e+61
-9.3934853e+61
-9.3773564e+61
-9.5205893e+61
-9.4773935e+61
-9.4806353e+61
-9.5402153e+61
-9.5437044e+61
-9.46767e+61
-9.5297552e+61
-9.4731561e+61
-9.5356909e+61
-9.5963218e+61
-9.6778774e+61
-9.6022416e+61
-9.6837513e+61
-9.6069645e+61
-9.6889184e+61
-9.6111339e+61
-9.6936861e+61
-9.4553268e+61
-9.4626237e+61
-9.5177438e+61
-9.5247943e+61
-9.5078009e+61
-9.445342e+61
-9.4496202e+61
-9.5120483e+61
-9.5741146e+61
-9.5783689e+61
-9.6552911e+61
-9.6596288e+61
-9.5839818e+61
-9.5912816e+61
-9.6653862e+61
-9.6728426e+61
-9.2790104e+61
-9.2810012e+61
-9.3240561e+61
-9.3259971e+61
-9.2701917e+61
-9.2754079e+61
-9.3149878e+61
-9.3203918e+61
-9.3611165e+61
-9.4140183e+61
-9.3664869e+61
-9.4193843e+61
-9.370155e+61
-9.3725611e+61
-9.423356e+61
-9.4262942e+61
-9.3390128e+61
-9.391661e+61
-9.3435022e+61
-9.3958018e+61
-9.2582359e+61
-9.265195e+61
-9.3030379e+61
-9.310017e+61
-9.2479315e+61
-9.2928138e+61
-9.2526919e+61
-9.2974792e+61
-9.3488827e+61
-9.3560498e+61
-9.4014411e+61
-9.4088447e+61
-8.9329866e+61
-8.9377924e+61
-8.8338055e+61
-8.9038467e+61
-8.8997645e+61
-8.9662334e+61
-8.9714083e+61
-9.0021269e+61
-9.0072468e+61
-8.9429857e+61
-8.9493398e+61
-8.8417002e+61
-8.9149279e+61
-8.9088394e+61
-8.976678e+61
-8.9833133e+61
-9.0127653e+61
-9.0196249e+61
-8.7645496e+61
-8.7710435e+61
-8.9537607e+61
-8.9595772e+61
-8.8491947e+61
-8.9240056e+61
-8.9190099e+61
-8.9881276e+61
-9.0247114e+61
-8.9944684e+61
-9.0311959e+61
-9.0010701e+61
-9.0378224e+61
-9.0089625e+61
-9.0456847e+61
-8.9657415e+61
-8.9734633e+61
-8.8598852e+61
-8.9372614e+61
-8.9297362e+61
-8.7864772e+61
-8.7769496e+61
-9.0740079e+61
-9.0817596e+61
-9.1123769e+61
-9.1199038e+61
-9.0609938e+61
-9.0991782e+61
-9.0675484e+61
-9.1058457e+61
-9.1384693e+61
-9.1810756e+61
-9.1452614e+61
-9.1879269e+61
-9.1518327e+61
-9.1946736e+61
-9.1592578e+61
-9.202013e+61
-9.0488392e+61
-9.0869174e+61
-9.0558085e+61
-9.0939021e+61
-9.0378173e+61
-9.0752745e+61
-9.0431563e+61
-9.081043e+61
-9.113883e+61
-9.1558877e+61
-9.119895e+61
-9.1620364e+61
-9.1258334e+61
-9.1682084e+61
-9.1330387e+61
-9.175589e+61
-8.6966038e+61
-8.6243137e+61
-8.6291648e+61
-8.7021382e+61
-8.6334041e+61
-8.7070393e+61
-8.7160526e+61
-8.7226336e+61
-8.7943396e+61
-8.8694417e+61
-8.8044592e+61
-8.8807988e+61
-8.8223058e+61
-8.8129168e+61
-8.8896439e+61
-8.898662e+61
-9.3156903e+61
-9.3227764e+61
-9.3689405e+61
-9.3758232e+61
-9.2232594e+61
-9.2302597e+61
-9.2687517e+61
-9.2759219e+61
-9.3292307e+61
-9.3823958e+61
-9.3358082e+61
-9.3888268e+61
-9.2441087e+61
-9.2370121e+61
-9.2826394e+61
-9.28937e+61
-9.2102516e+61
-9.2556085e+61
-9.2177583e+61
-9.2631561e+61
-9.1974598e+61
-9.2422796e+61
-9.2038828e+61
-9.249012e+61
-9.2883939e+61
-9.3409369e+61
-9.2952382e+61
-9.3479502e+61
-9.3019295e+61
-9.3549587e+61
-9.3098496e+61
-9.3631642e+61
-9.4085758e+61
-9.4167981e+61
-9.4711443e+61
-9.4791241e+61
-9.3939804e+61
-9.4013983e+61
-9.4561313e+61
-9.4638248e+61
-9.5224439e+61
-9.5299918e+61
-9.6027768e+61
-9.610101e+61
-9.5371383e+61
-9.5454902e+61
-9.617463e+61
-9.6262148e+61
-9.5513381e+61
-9.6322288e+61
-9.5585855e+61
-9.6392728e+61
-9.4223943e+61
-9.4846959e+61
-9.4293579e+61
-9.491954e+61
-9.4359413e+61
-9.4423354e+61
-9.4986684e+61
-9.5049264e+61
-9.5651399e+61
-9.6460288e+61
-9.5716517e+61
-9.6529246e+61
-9.1639401e+61
-9.2060713e+61
-9.1693639e+61
-9.2108248e+61
-9.0996452e+61
-9.105901e+61
-9.1366699e+61
-9.1428935e+61
-9.0875443e+61
-9.1251668e+61
-9.0938398e+61
-9.1310734e+61
-9.1746214e+61
-9.1811585e+61
-9.2162451e+61
-9.2231657e+61
-9.0283234e+61
-9.0642148e+61
-9.034668e+61
-9.0704866e+61
-9.0153018e+61
-9.0517918e+61
-9.0224165e+61
-9.0582728e+61
-8.9798716e+61
-8.9872812e+61
-8.9433629e+61
-8.9505914e+61
-8.993139e+61
-8.9996965e+61
-8.9630639e+61
-8.9565975e+61
-9.003181e+61
-9.0068579e+61
-8.9703475e+61
-8.9667309e+61
-9.0378819e+61
-9.0741842e+61
-9.0417917e+61
-9.0783449e+61
-9.010069e+61
-9.0126176e+61
-8.9768686e+61
-8.9738191e+61
-9.0447741e+61
-9.0815125e+61
-9.0470837e+61
-9.0837579e+61
-9.1177144e+61
-9.1557841e+61
-9.119816e+61
-9.1577404e+61
-9.1099976e+61
-9.1474355e+61
-9.1144358e+61
-9.1523471e+61
-9.1861049e+61
-9.2283095e+61
-9.1912327e+61
-9.2334866e+61
-9.1947078e+61
-9.2371046e+61
-9.196734e+61
-9.2392099e+61
-9.2110831e+61
-9.1918568e+61
-9.2118647e+61
-9.1909817e+61
-9.2320868e+61
-9.2533898e+61
-9.2524865e+61
-9.2312086e+61
-9.1905334e+61
-9.2105705e+61
-9.1904968e+61
-9.2105555e+61
-9.2307373e+61
-9.2521614e+61
-9.2309128e+61
-9.2525048e+61
-9.1347791e+61
-9.1177308e+61
-9.1355858e+61
-9.1169209e+61
-9.1536656e+61
-9.1726558e+61
-9.1716878e+61
-9.1527653e+61
-9.1340268e+61
-9.1163113e+61
-9.1341769e+61
-9.1161298e+61
-9.1522488e+61
-9.1712379e+61
-9.1521524e+61
-9.1712318e+61
-9.0643648e+61
-9.0477921e+61
-9.0648583e+61
-9.0473237e+61
-9.0823014e+61
-9.0999624e+61
-9.0991353e+61
-9.0816435e+61
-9.0637934e+61
-9.0472874e+61
-9.0640434e+61
-9.0470177e+61
-9.0810872e+61
-9.0985562e+61
-9.080871e+61
-9.0983163e+61
-9.0108384e+61
-9.0100908e+61
-9.030494e+61
-9.0298472e+61
-9.0298795e+61
-9.0296645e+61
-9.0100744e+61
-9.0099073e+61
-8.9828797e+61
-8.9450926e+61
-8.9126619e+61
-8.9125089e+61
-8.9445396e+61
-8.9826736e+61
-9.0095853e+61
-9.0094476e+61
-9.0290824e+61
-9.0289649e+61
-8.9447519e+61
-8.9128604e+61
-8.9131903e+61
-8.945377e+61
-8.9822207e+61
-8.8812589e+61
-8.8490071e+61
-8.8494126e+61
-8.8812478e+61
-8.8816676e+61
-8.8499793e+61
-8.8509157e+61
-8.8823241e+61
-9.6074002e+61
-9.6490322e+61
-9.6917958e+61
-9.505442e+61
-9.4740552e+61
-9.5048411e+61
-9.4742986e+61
-9.5357391e+61
-9.5715712e+61
-9.5721684e+61
-9.5363025e+61
-9.5074098e+61
-9.4748509e+61
-9.506086e+61
-9.4761363e+61
-9.3915721e+61
-9.3655848e+61
-9.3914592e+61
-9.36549e+61
-9.4173831e+61
-9.446066e+61
-9.4460888e+61
-9.4173821e+61
-9.3665153e+61
-9.3925577e+61
-9.3656125e+61
-9.391711e+61
-9.4176701e+61
-9.4465695e+61
-9.4187087e+61
-9.4477399e+61
-9.2955888e+61
-9.274303e+61
-9.2961338e+61
-9.2735316e+61
-9.3180559e+61
-9.3418509e+61
-9.3415559e+61
-9.3176173e+61
-9.2960787e+61
-9.2733159e+61
-9.2955123e+61
-9.2738111e+61
-9.3176278e+61
-9.3416555e+61
-9.3183854e+61
-9.3425226e+61
-9.7890722e+61
-9.7911794e+61
-9.7844044e+61
-9.7868641e+61
-9.7735425e+61
-9.776167e+61
-9.7789032e+61
-9.7823389e+61
-9.7505648e+61
-9.7522561e+61
-9.7578924e+61
-9.7544592e+61
-9.7603755e+61
-9.7639481e+61
-9.7714112e+61
-9.7673868e+61
-9.678006e+61
-9.695784e+61
-9.699351e+61
-9.7075268e+61
-9.7029384e+61
-9.6688182e+61
-9.6505465e+61
-9.6601417e+61
-9.7107812e+61
-9.7150493e+61
-9.7190833e+61
-9.7237194e+61
-9.7396367e+61
-9.7432821e+61
-9.7465918e+61
-9.7496863e+61
-9.7264301e+61
-9.7295837e+61
-9.7329231e+61
-9.736873e+61
-9.6314031e+61
-9.6424628e+61
-9.6120194e+61
-9.6216208e+61
-9.5760301e+61
-9.5853167e+61
-9.5945392e+61
-9.6048295e+61
-9.5607599e+61
-9.5694406e+61
-9.5472798e+61
-9.5169735e+61
-9.5538971e+61
-9.5002637e+61
-9.4836118e+61
-9.4653145e+61
-9.4366489e+61
-9.4534171e+61
-9.5927912e+61
-9.6699579e+61
-9.4391673e+61
-9.3778192e+61
-9.5033045e+61
-9.5273123e+61
-9.4819055e+61
-9.4566325e+61
-9.8585527e+61
-9.8459149e+61
-9.5662206e+61
-9.7452897e+61
-9.7582256e+61
-9.8802841e+61
-9.869367e+61
-9.5912978e+61
-9.7689216e+61
-9.7803261e+61
-9.6475318e+61
-9.8338191e+61
-9.8147342e+61
-9.5953845e+61
-9.6288747e+61
-9.6811392e+61
-9.8506802e+61
-9.86891e+61
-9.8094017e+61
-9.7943226e+61
-9.5215092e+61
-9.6975835e+61
-9.7115979e+61
-9.8345057e+61
-9.8214336e+61
-9.5444616e+61
-9.7224239e+61
-9.7341739e+61
-9.8452719e+61
-9.8645792e+61
-9.8819174e+61
-9.9002618e+61
-9.846902e+61
-9.8056319e+61
-9.8575026e+61
-9.8163107e+61
-9.8755308e+61
-9.8653817e+61
-9.8639846e+61
-9.8745209e+61
-9.8948294e+61
-9.8851939e+61
-9.8838009e+61
-9.8941724e+61
-9.8670718e+61
-9.8773054e+61
-9.8262734e+61
-9.8363579e+61
-9.9222367e+61
-9.930703e+61
-9.9305449e+61
-9.9215317e+61
-9.8966495e+61
-9.8561658e+61
-9.8863189e+61
-9.8456829e+61
-9.9132752e+61
-9.9033982e+61
-9.9027313e+61
-9.9130177e+61
-9.9053899e+61
-9.9140688e+61
-9.8653122e+61
-9.8739702e+61
-9.8487909e+61
-9.8410234e+61
-9.8643982e+61
-9.8565149e+61
-9.909291e+61
-9.9010733e+61
-9.8639708e+61
-9.8562294e+61
-9.8717038e+61
-9.8793436e+61
-9.924543e+61
-9.9169149e+61
-9.9101926e+61
-9.915129e+61
-9.9150828e+61
-9.9102635e+61
-9.9191119e+61
-9.9192546e+61
-9.9229152e+61
-9.9232371e+61
-9.9266592e+61
-9.9264422e+61
-9.9312222e+61
-9.931257e+61
-9.9349002e+61
-9.934984e+61
-9.9381539e+61
-9.9385354e+61
-9.9039009e+61
-9.9202491e+61
-9.9247207e+61
-9.9082562e+61
-9.9119135e+61
-9.9283026e+61
-9.9320107e+61
-9.9156708e+61
-9.8300078e+61
-9.8757991e+61
-9.8801998e+61
-9.8343518e+61
-9.887553e+61
-9.8841248e+61
-9.838348e+61
-9.8419193e+61
-9.9037041e+61
-9.9084242e+61
-9.8874267e+61
-9.8919784e+61
-9.8142482e+61
-9.8594548e+61
-9.8639648e+61
-9.8185596e+61
-9.8960473e+61
-9.9124973e+61
-9.9167612e+61
-9.9002921e+61
-9.8719881e+61
-9.8681088e+61
-9.8224594e+61
-9.826169e+61
-9.8893668e+61
-9.8823404e+61
-9.8979414e+61
-9.9049504e+61
-9.9449181e+61
-9.9515801e+61
-9.8758825e+61
-9.8693195e+61
-9.8916819e+61
-9.8851081e+61
-9.931128e+61
-9.9382718e+61
-9.9416166e+61
-9.9412903e+61
-9.9457492e+61
-9.9459323e+61
-9.949387e+61
-9.9525904e+61
-9.9495086e+61
-9.9531241e+61
-9.9560664e+61
-9.9556534e+61
-9.9597782e+61
-9.9600273e+61
-9.963175e+61
-9.9630577e+61
-9.9662562e+61
-9.9657189e+61
-9.9189198e+61
-9.9351504e+61
-9.9393331e+61
-9.9229468e+61
-9.9466564e+61
-9.9429399e+61
-9.9301734e+61
-9.9265233e+61
-9.8984496e+61
-9.8523591e+61
-9.8557974e+61
-9.9018563e+61
-9.845159e+61
-9.8908776e+61
-9.8947767e+61
-9.8488926e+61
-9.9565253e+61
-9.9596034e+61
-9.9435031e+61
-9.9403011e+61
-9.9050296e+61
-9.9089918e+61
-9.8631475e+61
-9.8591054e+61
-9.8663507e+61
-9.9123405e+61
-9.9152231e+61
-9.8692173e+61
-9.9534845e+61
-9.9496213e+61
-9.9371146e+61
-9.9332292e+61
-9.9342744e+61
-9.9287567e+61
-9.9442e+61
-9.9496648e+61
-9.9917081e+61
-9.9966413e+61
-9.9235284e+61
-9.9178812e+61
-9.9332702e+61
-9.93908e+61
-9.9807515e+61
-9.9865383e+61
-9.9574032e+61
-9.9637234e+61
-9.972338e+61
-9.9684331e+61
-9.9689076e+61
-9.9726754e+61
-9.9758147e+61
-9.9755595e+61
-9.9781885e+61
-9.978888e+61
-9.9696377e+61
-9.9755212e+61
-9.9847479e+61
-9.980887e+61
-9.9814691e+61
-9.9850989e+61
-9.9879011e+61
-9.9876754e+61
-9.9899341e+61
-9.9906006e+61
-9.9786089e+61
-9.9751119e+61
-9.9588616e+61
-9.9622881e+61
-9.8826599e+61
-9.9300434e+61
-9.9336286e+61
-9.886403e+61
-9.9650145e+61
-9.9812992e+61
-9.9840449e+61
-9.9679023e+61
-9.9391695e+61
-9.9366852e+61
-9.8896817e+61
-9.8924709e+61
-9.9660516e+61
-9.9623589e+61
-9.9463143e+61
-9.9498286e+61
-9.8717917e+61
-9.9180337e+61
-9.9215103e+61
-9.8748519e+61
-9.9529989e+61
-9.9692332e+61
-9.9724268e+61
-9.9561662e+61
-9.9272145e+61
-9.9246481e+61
-9.8774935e+61
-9.8797893e+61
-9.9132404e+61
-9.906616e+61
-9.9222556e+61
-9.9285054e+61
-9.9007078e+61
-9.8944942e+61
-9.9164483e+61
-9.9103942e+61
-9.9959558e+61
-9.9923435e+61
-9.9929206e+61
-9.996345e+61
-9.9991306e+61
-9.9988777e+61
-1.0001147e+62
-1.0001795e+62
-1.0003864e+62
-1.0003404e+62
-1.0006767e+62
-1.0006911e+62
-1.0010627e+62
-1.0009072e+62
-1.0009061e+62
-1.001104e+62
-9.9897692e+61
-9.9864758e+61
-9.9704148e+61
-9.9736485e+61
-9.8951664e+61
-9.9417996e+61
-9.9451859e+61
-9.898525e+61
-9.9764017e+61
-9.9924918e+61
-9.9952165e+61
-9.9791075e+61
-9.950294e+61
-9.948088e+61
-9.9012356e+61
-9.9034965e+61
-9.9811149e+61
-9.9972425e+61
-1.0000033e+62
-9.9837635e+61
-9.9857778e+61
-1.0002058e+62
-1.0004062e+62
-9.9878324e+61
-9.9059027e+61
-9.9525714e+61
-9.9551942e+61
-9.9086184e+61
-9.9592541e+61
-9.9574678e+61
-9.9109686e+61
-9.912876e+61
-9.5928805e+61
-9.5527317e+61
-9.6440356e+61
-9.6669917e+61
-9.6274047e+61
-9.6793765e+61
-9.7185714e+61
-9.7277529e+61
-9.7077866e+61
-9.7288698e+61
-9.7492682e+61
-9.7286855e+61
-9.7483977e+61
-9.6985242e+61
-9.7175018e+61
-9.7450666e+61
-9.7658096e+61
-9.7878082e+61
-9.7666528e+61
-9.7847466e+61
-9.8039164e+61
-9.8253934e+61
-9.8059182e+61
-9.7661788e+61
-9.7868045e+61
-9.7345279e+61
-9.7544558e+61
-9.8052428e+61
-9.8237523e+61
-9.7728867e+61
-9.7905105e+61
-9.5787599e+61
-9.7608196e+61
-9.7401825e+61
-9.5287105e+61
-9.5650614e+61
-9.6158002e+61
-9.7983887e+61
-9.7786896e+61
-9.7698929e+61
-9.7901549e+61
-9.8081979e+61
-9.8279213e+61
-9.7991087e+61
-9.7891423e+61
-9.7882294e+61
-9.7981813e+61
-9.7719693e+61
-9.7815586e+61
-9.732797e+61
-9.7414983e+61
-9.8185331e+61
-9.8087811e+61
-9.8069734e+61
-9.8170559e+61
-9.7902005e+61
-9.7498714e+61
-9.7998405e+61
-9.7589075e+61
-9.8472483e+61
-9.8568198e+61
-9.8453255e+61
-9.8554896e+61
-9.8085724e+61
-9.7675773e+61
-9.8189948e+61
-9.777783e+61
-9.8376217e+61
-9.8272947e+61
-9.8255646e+61
-9.8361949e+61
-9.8282923e+61
-9.8381447e+61
-9.7872862e+61
-9.7968413e+61
-9.7968807e+61
-9.7940266e+61
-9.7995716e+61
-9.8025473e+61
-9.8073984e+61
-9.8049314e+61
-9.8110447e+61
-9.8093151e+61
-9.7728253e+61
-9.7707937e+61
-9.7751831e+61
-9.7782104e+61
-9.7846029e+61
-9.7810707e+61
-9.7878919e+61
-9.791375e+61
-9.7336576e+61
-9.7638762e+61
-9.7690157e+61
-9.7387114e+61
-9.7774051e+61
-9.7734869e+61
-9.7433119e+61
-9.7472831e+61
-9.7197938e+61
-9.7159401e+61
-9.7235957e+61
-9.7277387e+61
-9.7154025e+61
-9.7455669e+61
-9.7505621e+61
-9.7201837e+61
-9.7550762e+61
-9.7595157e+61
-9.7249602e+61
-9.7296153e+61
-9.7356221e+61
-9.7314265e+61
-9.743505e+61
-9.7394657e+61
-9.7500845e+61
-9.7467485e+61
-9.756874e+61
-9.7533778e+61
-9.759947e+61
-9.7635788e+61
-9.7666842e+61
-9.7693584e+61
-9.7112721e+61
-9.706351e+61
-9.6762019e+61
-9.6809163e+61
-9.7208826e+61
-9.716001e+61
-9.685653e+61
-9.6909265e+61
-9.7254638e+61
-9.7310983e+61
-9.695493e+61
-9.7008947e+61
-9.7061299e+61
-9.7362693e+61
-9.7412184e+61
-9.7114655e+61
-9.6692992e+61
-9.6738609e+61
-9.6393363e+61
-9.6437746e+61
-9.6483244e+61
-9.6783615e+61
-9.682775e+61
-9.6531968e+61
-9.6925542e+61
-9.6871869e+61
-9.657338e+61
-9.6626493e+61
-9.7022423e+61
-9.6975074e+61
-9.6676088e+61
-9.6725655e+61
-9.6572341e+61
-9.6004011e+61
-9.6664193e+61
-9.6094351e+61
-9.6746307e+61
-9.6825496e+61
-9.6178824e+61
-9.6253618e+61
-9.6576272e+61
-9.6531195e+61
-9.623248e+61
-9.6278152e+61
-9.6656301e+61
-9.6617168e+61
-9.6320811e+61
-9.6360299e+61
-9.6426323e+61
-9.6390092e+61
-9.6095118e+61
-9.6129849e+61
-9.649519e+61
-9.6459908e+61
-9.616451e+61
-9.6200085e+61
-9.6224302e+61
-9.6313657e+61
-9.574513e+61
-9.5657384e+61
-9.6399811e+61
-9.6493928e+61
-9.5836597e+61
-9.5928897e+61
-9.5352446e+61
-9.5900071e+61
-9.599148e+61
-9.5438475e+61
-9.6074174e+61
-9.6156016e+61
-9.5598206e+61
-9.5522721e+61
-9.027428e+61
-9.033874e+61
-9.064576e+61
-9.0710299e+61
-9.0142512e+61
-9.0513405e+61
-9.0210674e+61
-9.0581912e+61
-9.0892656e+61
-9.1303401e+61
-9.0961267e+61
-9.1372259e+61
-9.1024973e+61
-9.1438871e+61
-9.1093182e+61
-9.1510965e+61
-8.909649e+61
-8.9167447e+61
-8.8114074e+61
-8.8762806e+61
-8.8832418e+61
-8.923026e+61
-8.9294309e+61
-8.8256888e+61
-8.8898116e+61
-8.8962521e+61
-8.9429444e+61
-8.9786674e+61
-8.9499876e+61
-8.9854558e+61
-8.9560483e+61
-8.9625509e+61
-8.9917206e+61
-8.9982666e+61
-8.7407457e+61
-8.7561464e+61
-8.8847134e+61
-8.8905338e+61
-8.7877842e+61
-8.8513152e+61
-8.8567842e+61
-8.8966192e+61
-8.9041275e+61
-8.7995809e+61
-8.8630027e+61
-8.8705941e+61
-8.9176774e+61
-8.9525125e+61
-8.9236381e+61
-8.9586556e+61
-8.9296697e+61
-8.9650614e+61
-8.9373458e+61
-8.9728829e+61
-8.7188116e+61
-8.7295361e+61
-9.0615367e+61
-9.1022487e+61
-9.0687497e+61
-9.1094217e+61
-9.0004882e+61
-9.0377151e+61
-9.0084045e+61
-9.0456162e+61
-8.9873081e+61
-9.0237704e+61
-8.9938213e+61
-9.0308188e+61
-9.0756432e+61
-9.1165975e+61
-9.083643e+61
-9.1247337e+61
-8.6178463e+61
-8.6048739e+61
-8.6735784e+61
-8.6882211e+61
-8.6525001e+61
-8.5827198e+61
-8.594217e+61
-8.6624572e+61
-9.3168975e+61
-9.3261501e+61
-9.3763242e+61
-9.3855814e+61
-9.3011792e+61
-9.3088558e+61
-9.3596369e+61
-9.3679238e+61
-9.4392226e+61
-9.4489712e+61
-9.5159711e+61
-9.5260782e+61
-9.422164e+61
-9.4307017e+61
-9.4981933e+61
-9.5070132e+61
-9.2889758e+61
-9.2959476e+61
-9.3473796e+61
-9.3542202e+61
-9.2834085e+61
-9.2783847e+61
-9.3360123e+61
-9.3415865e+61
-9.2809258e+61
-9.2654615e+61
-9.3824376e+61
-9.3982538e+61
-9.4089347e+61
-9.4163055e+61
-9.4839786e+61
-9.4919476e+61
-9.4030899e+61
-9.3974488e+61
-9.4718065e+61
-9.4776903e+61
-9.1284381e+61
-9.1711747e+61
-9.1366131e+61
-9.1794773e+61
-9.1149778e+61
-9.1570546e+61
-9.1214313e+61
-9.1639144e+61
-9.2007178e+61
-9.2078077e+61
-9.250473e+61
-9.2577881e+61
-9.2151987e+61
-9.2239295e+61
-9.2655681e+61
-9.2746512e+61
-9.0966364e+61
-9.0819085e+61
-9.171032e+61
-9.1858691e+61
-9.1038301e+61
-9.1460206e+61
-9.110261e+61
-9.1523893e+61
-9.1891871e+61
-9.1957831e+61
-9.2385343e+61
-9.2453467e+61
-9.0949656e+61
-9.1365724e+61
-9.0988984e+61
-9.1408729e+61
-9.1839705e+61
-9.1794823e+61
-9.2284213e+61
-9.2330654e+61
-9.1413627e+61
-9.0538013e+61
-9.0675201e+61
-9.1559705e+61
-9.2339265e+61
-9.349194e+61
-9.2497732e+61
-9.3662615e+61
-8.9778872e+61
-8.9148122e+61
-8.9022053e+61
-8.9907159e+61
-8.7804608e+61
-8.8473328e+61
-8.8043539e+61
-8.7919369e+61
-8.8593833e+61
-8.6398103e+61
-8.8722394e+61
-8.9407074e+61
-9.0041785e+61
-8.9270543e+61
-9.0186724e+61
-8.4789274e+61
-9.0163625e+61
-9.0558231e+61
-9.0203697e+61
-9.0594838e+61
-8.9531413e+61
-8.9593723e+61
-8.9886441e+61
-8.994672e+61
-8.9438013e+61
-8.9795724e+61
-8.9481677e+61
-8.9837972e+61
-9.0249316e+61
-9.0642406e+61
-9.0311291e+61
-9.0707016e+61
-8.8849025e+61
-8.919039e+61
-8.8913582e+61
-8.9254122e+61
-8.874942e+61
-8.9095304e+61
-8.8799985e+61
-8.9140399e+61
-8.8420952e+61
-8.8470841e+61
-8.8092444e+61
-8.7463283e+61
-8.8138409e+61
-8.8521991e+61
-8.8585735e+61
-8.7562739e+61
-8.8255276e+61
-8.8191153e+61
-8.6795913e+61
-8.6891697e+61
-9.0360925e+61
-9.0423477e+61
-9.0755538e+61
-9.0817225e+61
-8.9759784e+61
-8.9825133e+61
-9.0117426e+61
-9.0184939e+61
-8.9641506e+61
-8.9994643e+61
-8.970045e+61
-9.0056263e+61
-9.0485292e+61
-9.05588e+61
-9.088407e+61
-9.0964017e+61
-8.9075814e+61
-8.9417936e+61
-8.9138375e+61
-8.9481397e+61
-8.8960168e+61
-8.9302208e+61
-8.9021215e+61
-8.9360645e+61
-8.863146e+61
-8.869181e+61
-8.7665731e+61
-8.8301552e+61
-8.8358639e+61
-8.8747529e+61
-8.8808482e+61
-8.7790214e+61
-8.841507e+61
-8.8474916e+61
-8.6983468e+61
-8.7106192e+61
-8.6158403e+61
-8.5489106e+61
-8.5572277e+61
-8.6245866e+61
-8.575603e+61
-8.5655503e+61
-8.6334707e+61
-8.6447263e+61