/*--------------------------------*- C++ -*----------------------------------*\
  =========                 |
  \\      /  F ield         | OpenFOAM: The Open Source CFD Toolbox
   \\    /   O peration     | Website:  https://openfoam.org
    \\  /    A nd           | Version:  7
     \\/     M anipulation  |
\*---------------------------------------------------------------------------*/
FoamFile
{
    version     2.0;
    format      ascii;
    class       volScalarField;
    location    "4000";
    object      nut;
}
// * * * * * * * * * * * * * * * * * * * * * * * * * * * * * * * * * * * * * //

dimensions      [0 2 -1 0 0 0 0];

internalField   nonuniform List<scalar> 
33733
(
1.0278321e-25
4.057337e-26
1.1414919e-25
2.5855175e-26
4.1898913e-26
7.2726019e-26
2.8110956e-26
3.1523579e-26
2.8770637e-26
2.8693916e-26
2.6683776e-26
3.4065756e-26
5.7265562e-26
6.1883576e-26
4.1941589e-26
3.3241912e-26
8.2626673e-26
2.7805098e-26
2.7139813e-26
5.1156364e-26
1.091067e-25
2.5944996e-26
2.9208176e-26
3.0235196e-26
2.6224444e-26
7.4643276e-26
1.5599171e-26
3.2568331e-26
5.2339783e-26
2.5011715e-26
1.8611984e-26
1.8125119e-26
2.9256995e-26
2.7383393e-26
2.5389215e-26
2.7708291e-26
2.6549689e-26
2.5353275e-26
2.8744482e-26
2.3138966e-26
1.5842754e-26
2.1068501e-26
6.5228135e-26
6.3710157e-26
3.1819941e-26
2.641523e-26
2.9180215e-26
2.7101874e-26
6.0485018e-26
4.732725e-26
5.4539858e-26
3.6626546e-26
2.1387941e-26
1.8791826e-26
2.9106757e-26
2.723613e-26
6.1514054e-26
7.211018e-26
1.6040092e-26
1.7796092e-26
2.3422077e-26
1.9192818e-26
2.2973709e-26
2.7286332e-26
2.1207127e-26
5.0665301e-26
4.7244853e-26
3.0069309e-26
2.2961477e-26
3.4445662e-26
3.8966002e-26
1.0397699e-25
1.0338584e-25
9.1260538e-26
2.9308482e-26
2.4813339e-26
2.2421052e-26
2.5547982e-26
2.8372983e-26
2.5181523e-26
2.0539053e-26
2.7245276e-26
3.4524849e-26
1.2633446e-26
1.5861414e-26
8.0684031e-27
1.1367845e-26
1.5124191e-26
1.5268401e-26
1.2745656e-26
1.1185118e-26
1.9000493e-26
1.5657211e-26
1.5476805e-26
1.4708553e-26
1.9575475e-26
2.3742624e-26
5.4391544e-26
5.4318576e-26
5.3774799e-26
2.5169634e-26
2.6005094e-26
2.597226e-26
3.1745254e-26
3.5945177e-26
3.4380831e-26
3.7149856e-26
2.8536349e-26
3.0287167e-26
2.9376375e-26
2.8639098e-26
1.7065328e-26
1.6185361e-26
2.330529e-26
2.3615165e-26
1.6213315e-26
1.7551298e-26
2.4794103e-26
2.2554557e-26
1.6775427e-26
1.9151463e-26
6.675827e-26
5.2492518e-26
2.8195419e-26
2.2090082e-26
2.728771e-26
2.3004533e-26
1.1961916e-26
1.3982709e-26
9.2594511e-27
1.6392097e-26
1.4587166e-26
1.4266271e-26
5.7977341e-26
4.9951512e-26
1.0635753e-25
3.9012251e-26
3.4962969e-26
4.0261718e-26
3.7167237e-26
7.4715612e-26
1.0362527e-25
1.0651827e-25
2.8591133e-26
2.8821709e-26
2.3561863e-26
2.3376632e-26
1.5568559e-26
1.9803787e-26
1.7404089e-26
1.5476202e-26
2.3209317e-26
5.7543926e-26
1.7130722e-26
3.7340733e-26
1.2741136e-26
7.9440511e-27
1.5455044e-26
1.4270075e-26
7.661556e-27
1.7464346e-26
1.5591653e-26
8.2650728e-27
8.7654263e-27
1.786488e-26
1.0806206e-26
1.2944119e-26
1.2133785e-26
1.6269754e-26
2.9519112e-26
1.6980049e-26
3.2159712e-26
1.5857315e-26
8.706105e-27
1.4017921e-26
1.2864132e-26
1.5934697e-26
2.5223389e-26
1.9922581e-26
1.5300633e-26
2.3621342e-26
2.0441469e-26
2.2273156e-26
2.2317955e-26
7.0379112e-26
7.4901044e-26
7.2335112e-26
8.887455e-26
4.7658014e-26
6.2320123e-26
3.7756263e-26
5.1507466e-26
2.4064699e-26
2.5100627e-26
3.094285e-26
3.5601954e-26
3.9027167e-26
2.4223337e-26
2.6647583e-26
3.5626642e-26
7.6908866e-26
7.3520003e-26
8.9108325e-26
7.5789768e-26
8.3785521e-26
9.1360923e-26
7.3298595e-26
6.4673417e-26
6.2094983e-26
6.4852499e-26
4.6133528e-26
4.4120358e-26
5.5847176e-26
2.2891228e-26
2.2363097e-26
2.1542101e-26
1.7209574e-26
1.5420805e-26
1.8787335e-26
2.1948188e-26
1.6092759e-26
2.1968588e-26
1.8502753e-26
1.7338453e-26
1.6671476e-26
2.3059171e-26
1.4857117e-26
1.7472498e-26
2.1317717e-26
3.7705685e-26
1.3216353e-26
1.5530472e-26
6.7821319e-27
4.6460129e-27
6.2262469e-27
5.6436259e-27
7.0389355e-27
8.5104791e-27
1.1309652e-26
6.8995394e-27
7.8005923e-27
1.012649e-26
9.9922131e-27
6.5264212e-27
1.319645e-26
1.6836049e-26
1.4093651e-26
9.8409603e-27
1.7223766e-26
1.9321044e-26
1.2283157e-26
1.3498458e-26
2.9394216e-26
2.9831066e-26
2.9454907e-26
2.9120087e-26
4.7477288e-26
4.7061635e-26
5.3611416e-26
5.6550744e-26
4.0955989e-26
4.54687e-26
4.5809464e-26
5.1091569e-26
4.6253285e-26
4.335928e-26
4.6695953e-26
3.1093493e-26
5.1288006e-26
4.6826973e-26
3.5262888e-26
3.3084413e-26
3.2830115e-26
1.600526e-26
2.1647867e-26
2.3323038e-26
1.6051121e-26
1.641148e-26
1.6450604e-26
1.6406743e-26
2.3471145e-26
2.2208156e-26
1.7123642e-26
5.4904814e-26
5.2811338e-26
2.9576508e-26
2.9162794e-26
3.0964057e-26
3.215265e-26
3.799839e-26
3.3203771e-26
3.6968697e-26
4.078345e-26
2.5861504e-26
2.6632915e-26
2.883043e-26
2.889819e-26
3.3171936e-26
2.9574415e-26
3.2258252e-26
3.7169443e-26
3.1490639e-26
3.0434772e-26
3.7307836e-26
3.3536665e-26
3.3261899e-26
3.2300675e-26
3.362017e-26
3.4245367e-26
3.3912222e-26
2.8814249e-26
2.6588534e-26
3.1703361e-26
3.1303627e-26
2.904483e-26
2.8365675e-26
3.0507426e-26
3.2143056e-26
1.1985945e-26
8.8853289e-27
8.7551906e-27
1.3250947e-26
1.7915437e-26
1.8605718e-26
1.5037493e-26
1.4427151e-26
1.3995292e-26
1.3808315e-26
9.549334e-27
9.3538756e-27
1.3132059e-26
8.5820425e-27
1.2935441e-26
9.0105369e-27
1.4138421e-26
1.4188071e-26
1.4821396e-26
1.4380209e-26
1.7474914e-26
1.7857409e-26
1.4460546e-26
1.4151225e-26
1.4398085e-26
1.4443177e-26
9.6774517e-27
9.6085314e-27
9.5347217e-27
1.4123202e-26
1.609913e-26
1.0678378e-26
1.2089477e-26
9.4244241e-27
1.6423814e-26
1.3664856e-26
2.4630036e-26
2.0158493e-26
2.188279e-26
1.7309665e-26
1.4327619e-26
2.0031814e-26
1.6695907e-26
1.7794867e-26
1.4908806e-26
1.7848934e-26
2.4372127e-26
2.0328925e-26
2.0991671e-26
9.8828618e-27
8.0965257e-27
5.0265558e-27
7.9047393e-27
6.7262379e-27
7.1660599e-27
1.303189e-26
1.5160927e-26
1.8051126e-26
1.6426395e-26
9.7797879e-26
6.196206e-26
2.5559667e-26
9.4481887e-26
5.5855242e-26
6.0573163e-26
1.0029889e-25
1.1234844e-25
8.510888e-26
4.7022186e-26
3.8495856e-26
1.9247198e-26
5.5320554e-26
1.766855e-26
5.9787308e-26
2.2743208e-26
2.2799823e-26
1.7438511e-25
5.2957082e-26
1.5241572e-25
4.2252679e-26
4.5762391e-26
5.1964231e-26
2.5233598e-26
2.7459537e-26
3.1253513e-26
2.8468967e-26
2.6411979e-26
2.3949772e-26
2.1872933e-26
2.8792862e-26
1.9214811e-26
1.4095613e-26
2.7223136e-26
1.0486935e-26
1.331385e-26
3.8080599e-26
9.9737372e-27
1.0043676e-26
1.7195762e-26
3.5873685e-26
1.2604555e-26
1.8136865e-26
1.5280946e-26
6.6569211e-27
6.5420057e-27
6.7675274e-27
6.8969105e-27
5.5459445e-27
4.0802358e-27
4.1460864e-27
5.9553005e-27
1.1671353e-26
1.7136255e-26
1.1774905e-26
7.1067462e-27
1.343435e-26
1.1950744e-26
9.7931093e-27
1.0010435e-26
8.1114928e-27
1.4897403e-26
9.1006518e-27
7.2929261e-27
2.0372674e-26
1.4456132e-26
4.2065685e-26
2.7599477e-26
3.1857764e-26
2.0349767e-26
1.0639303e-26
1.0634115e-26
2.6658819e-26
2.5145671e-26
4.8071824e-26
4.0446973e-26
2.596992e-26
2.8928545e-26
1.1079379e-26
6.9582592e-27
5.8825776e-27
3.4481832e-27
6.6943587e-27
5.5277943e-27
4.9665913e-27
6.6788198e-27
5.7266246e-27
7.7679656e-27
9.065162e-27
8.9058577e-27
1.2806491e-26
1.8395659e-26
1.4115888e-26
1.1355179e-26
1.4542037e-26
1.5980408e-26
1.6077283e-26
2.0783821e-26
1.8115114e-26
1.9038173e-26
1.4354842e-26
1.4453318e-26
1.7410998e-26
1.9967316e-26
2.1053345e-26
2.2273693e-26
2.0526245e-26
1.9503186e-26
2.5428355e-26
2.3991223e-26
5.8060127e-26
5.7646972e-26
6.8840079e-26
8.6877885e-26
4.0402845e-26
4.3845658e-26
7.3109357e-26
7.6142845e-26
5.2743277e-26
6.9323995e-26
3.5304524e-26
4.5572031e-26
6.1739118e-26
6.537581e-26
4.2594087e-26
4.5279632e-26
2.7709067e-26
5.7587612e-26
2.8539154e-26
5.1991224e-26
7.0333698e-26
4.1742891e-26
3.3043731e-26
5.3699762e-26
1.9849526e-26
1.9468547e-26
4.5905159e-26
4.2478796e-26
5.6492383e-26
5.7709939e-26
3.5017807e-26
3.5633455e-26
1.6337952e-26
2.4642132e-26
2.4055532e-26
2.0045985e-26
1.5375366e-26
3.033163e-26
1.1417839e-26
3.5132723e-27
2.0651794e-26
2.8836872e-26
2.9430892e-26
1.7771486e-26
2.9145258e-26
2.7094161e-26
1.5889752e-26
1.9905463e-26
3.0281943e-26
2.5627833e-26
3.4863939e-26
3.2077913e-26
2.6344564e-26
2.7757234e-26
3.3367371e-26
3.8322151e-26
2.252624e-26
2.0694974e-26
1.8503616e-26
1.9602015e-26
1.6470617e-26
1.8558661e-26
1.9189277e-26
2.1682326e-26
2.1958464e-26
1.9880458e-26
1.8492971e-26
1.9645681e-26
3.0703916e-26
3.3670745e-26
2.7669324e-26
2.7090364e-26
2.7888719e-26
2.876398e-26
2.271989e-26
2.2956798e-26
1.762406e-26
2.0738702e-26
1.9204751e-26
1.6375579e-26
1.5436172e-26
1.4496165e-26
1.4473566e-26
1.5531407e-26
1.5111168e-26
1.3895182e-26
1.3051169e-26
1.3983936e-26
1.0763745e-26
1.0417457e-26
3.0453916e-26
3.5116343e-26
7.4874712e-27
9.8482146e-27
2.3193401e-26
1.0915245e-26
1.2075213e-26
1.2669391e-26
1.4100909e-26
1.4668986e-26
4.6857344e-26
5.0564886e-26
5.5828708e-26
5.6943976e-26
1.1826589e-26
1.174788e-26
2.3033389e-26
5.0462817e-26
4.6687907e-26
3.923419e-26
4.2936502e-26
4.012569e-26
1.4465178e-26
1.4156003e-26
1.2719446e-26
4.2502731e-27
4.2142354e-27
3.3776021e-27
3.5861402e-27
1.1775504e-26
9.404223e-27
1.6454267e-26
1.7425943e-26
2.1116642e-26
2.2861502e-26
3.1441818e-26
3.0482028e-26
5.052315e-26
3.6035095e-26
3.3103509e-26
2.7817357e-26
3.1264992e-26
3.1547353e-26
3.012496e-26
2.8997678e-26
3.3365954e-26
2.9796686e-26
2.9682936e-26
3.367398e-26
3.6398458e-26
3.4317068e-26
3.487708e-26
3.8470709e-26
3.58772e-26
3.7518425e-26
3.9509156e-26
4.6704965e-26
4.5192463e-26
3.6256223e-26
3.7871449e-26
4.5191236e-26
4.4101065e-26
4.9907365e-26
4.6823092e-26
5.2052657e-26
4.855658e-26
5.0995619e-26
4.8397417e-26
5.5525841e-26
5.1103682e-26
2.9658894e-26
3.3003818e-26
3.6306858e-26
3.9626102e-26
3.5115214e-26
3.7414144e-26
4.2240306e-26
4.4637467e-26
4.0416181e-26
3.8250511e-26
4.6657629e-26
4.3217912e-26
4.8844311e-26
4.5264968e-26
5.2440349e-26
4.8159399e-26
3.4610253e-26
3.6325738e-26
3.2943204e-26
4.3118874e-26
4.2200594e-26
3.2127336e-26
3.4748574e-26
2.9421433e-26
4.0770117e-26
3.917228e-26
4.4231761e-26
4.172531e-26
4.8134209e-26
3.3471198e-26
3.4354566e-26
3.8668497e-26
3.8587167e-26
4.12381e-26
4.5861224e-26
4.7741578e-26
3.5042202e-26
3.7291061e-26
3.4572037e-26
4.4124639e-26
4.2988831e-26
4.3865086e-26
4.5159875e-26
4.062797e-26
3.2227039e-26
3.5257474e-26
4.0016741e-26
3.1373318e-26
3.0249326e-26
2.8085954e-26
3.1553309e-26
1.6054036e-26
1.6528185e-26
1.7881591e-26
1.4899917e-26
8.3066747e-27
1.4242747e-26
1.2900589e-26
9.2974805e-27
9.528761e-27
8.9027963e-27
1.315256e-26
1.3785465e-26
9.1268299e-27
8.4479806e-27
1.1956863e-26
1.279202e-26
1.5149068e-26
1.4781303e-26
1.5472116e-26
1.5286474e-26
8.5459516e-27
8.5760009e-27
1.1893822e-26
1.3420655e-26
1.5701844e-26
1.6439948e-26
1.5704122e-26
1.4450343e-26
1.2892273e-26
9.0835564e-27
1.4424765e-26
9.2242343e-27
1.351135e-26
1.2686915e-26
9.9827818e-27
9.1849884e-27
1.6203368e-26
1.7811036e-26
1.7894341e-26
1.5882705e-26
1.3577883e-26
1.3737119e-26
2.4103937e-26
2.7265652e-26
2.6511513e-26
2.3105784e-26
2.5278428e-26
2.8790544e-26
2.597105e-26
2.2922731e-26
2.3537418e-26
2.4116182e-26
2.3183284e-26
2.2663192e-26
2.4986709e-26
2.569542e-26
2.4848842e-26
2.3251751e-26
2.101594e-26
2.4357892e-26
2.4473652e-26
2.0115264e-26
2.2596257e-26
2.6459339e-26
2.3474404e-26
1.9923699e-26
2.3852832e-26
2.5132025e-26
2.2051355e-26
2.0959294e-26
2.4353333e-26
2.4658976e-26
2.1805871e-26
2.2051959e-26
1.7727171e-26
1.7909803e-26
1.8268257e-26
1.8047453e-26
1.8106058e-26
1.8706674e-26
1.9270463e-26
1.8518033e-26
2.1875222e-26
1.9155894e-26
1.8642319e-26
2.0844209e-26
2.0724101e-26
2.1104665e-26
1.8620337e-26
1.8251001e-26
2.3461639e-26
2.1870935e-26
2.1075621e-26
2.2148289e-26
1.7982874e-26
1.8028591e-26
1.8656491e-26
1.8083568e-26
1.8944984e-26
2.1475006e-26
2.0249568e-26
1.7477352e-26
2.0613434e-26
2.403196e-26
2.5887352e-26
2.2286811e-26
2.503392e-26
2.9266392e-26
2.9441512e-26
2.6167885e-26
1.3627406e-25
1.3718109e-25
2.8358653e-26
2.7848282e-26
2.4147267e-26
2.4761901e-26
6.9841444e-26
2.5735707e-26
2.5032173e-26
2.4365846e-26
2.4829045e-26
2.5516038e-26
2.5243303e-26
2.747662e-26
2.5718916e-26
2.5702848e-26
2.904593e-26
2.7745702e-26
2.4653354e-26
2.9096127e-26
2.8926068e-26
2.5066248e-26
2.5811839e-26
2.7651296e-26
2.5775219e-26
2.4713611e-26
2.5603869e-26
2.6479437e-26
2.5754586e-26
2.4950179e-26
2.4714456e-26
2.16083e-26
1.9643727e-26
1.9175351e-26
1.9857975e-26
1.9256062e-26
1.9533768e-26
2.0282358e-26
1.9201608e-26
2.2171953e-26
2.2929545e-26
1.8857315e-26
1.9574329e-26
2.1427377e-26
1.9545851e-26
2.1086152e-26
2.3398026e-26
2.1691842e-26
1.9806683e-26
2.17973e-26
1.9947864e-26
1.9564876e-26
1.8811371e-26
2.0279982e-26
1.9422409e-26
2.1842009e-26
1.9389743e-26
1.9863464e-26
2.2037048e-26
2.2597488e-26
2.0041655e-26
2.1175136e-26
2.3811004e-26
1.0808921e-26
6.1690548e-27
4.0418399e-27
3.9492794e-27
6.8079911e-27
3.9465393e-27
3.9438073e-27
5.7264757e-27
6.1536611e-27
1.2278617e-26
1.3769414e-26
1.5120318e-26
1.5338983e-26
1.6027856e-26
1.4258993e-26
1.475273e-26
1.736671e-26
1.6346278e-26
1.5941716e-26
1.7045802e-26
1.5547787e-26
1.4865336e-26
1.4608835e-26
1.4366313e-26
1.5481405e-26
1.4665265e-26
8.8845368e-27
8.8682302e-27
9.6260209e-27
9.1749071e-27
8.9020033e-27
1.1623217e-26
9.8012662e-27
1.0606807e-26
9.0081468e-27
8.3340926e-27
9.3831758e-27
8.5798045e-27
8.7820917e-27
8.4035248e-27
8.4887064e-27
8.5726774e-27
1.0879912e-26
9.4503773e-27
9.26386e-27
9.0209317e-27
7.9256834e-27
7.5685357e-27
7.5140901e-27
7.344758e-27
1.1904716e-26
1.007348e-26
9.7582157e-27
7.9577735e-27
8.4681138e-27
8.0668373e-27
8.4082843e-27
8.3166111e-27
1.5818994e-26
1.819528e-26
1.5938733e-26
1.4505101e-26
1.5972187e-26
1.4134303e-26
1.2685544e-26
1.4519925e-26
1.7448794e-26
2.0086345e-26
1.8418044e-26
1.6456604e-26
1.6673594e-26
1.4601424e-26
1.4109332e-26
1.5914868e-26
1.2558967e-26
1.3928089e-26
1.4182498e-26
1.4308934e-26
1.2919765e-26
1.3222794e-26
1.5127828e-26
1.4444745e-26
1.4518216e-26
1.3757387e-26
1.3593795e-26
1.3595048e-26
1.4426964e-26
1.5011813e-26
1.3861405e-26
1.3473539e-26
4.3114722e-27
1.0591513e-26
1.1497929e-26
1.0083455e-26
1.0056619e-26
4.1860887e-27
1.044592e-26
1.0500633e-26
9.8691828e-27
9.8735293e-27
8.0439574e-27
8.6317458e-27
8.492165e-27
8.0974139e-27
8.4981283e-27
8.4656726e-27
8.3141217e-27
8.2954852e-27
5.7455641e-27
6.3886847e-27
4.4825668e-27
8.0551661e-27
9.6005608e-27
1.0200572e-26
9.9174059e-27
4.4118445e-27
1.0695692e-26
1.0277897e-26
9.5430654e-27
1.0182333e-26
8.519751e-27
8.0075576e-27
8.2342347e-27
9.0733844e-27
1.2198686e-26
1.0230543e-26
1.1354795e-26
1.3803156e-26
5.6908966e-27
6.5921447e-27
1.9426343e-26
1.6983391e-26
1.857142e-26
2.2021995e-26
1.3442793e-26
1.2515115e-26
1.4512524e-26
1.5403423e-26
2.426776e-26
2.1083334e-26
1.8893263e-26
2.1530891e-26
1.6302794e-26
1.5464893e-26
1.4290051e-26
1.4719701e-26
1.2941587e-26
4.3655429e-27
4.4670303e-27
8.4116694e-26
6.6205267e-26
2.6488652e-26
7.0056339e-26
2.6156721e-26
4.6000029e-26
2.7532955e-26
5.6253508e-26
5.0543516e-26
4.3424856e-26
9.9597009e-26
9.369136e-26
8.8917458e-26
1.2953761e-25
9.2941719e-26
9.0688817e-26
2.1697176e-25
2.2138048e-25
1.9333322e-26
1.4052364e-26
2.6987894e-26
2.5787775e-26
6.5358689e-26
2.660116e-26
2.2553939e-26
1.7612054e-26
1.7260592e-26
5.9355008e-26
3.8443596e-26
3.1254774e-26
3.3400499e-26
3.8779324e-26
2.0053665e-26
1.9289422e-26
2.0482443e-26
2.1407408e-26
7.7370327e-26
7.2723702e-26
4.3945884e-26
5.5192519e-26
3.6284326e-26
3.4541883e-26
3.9054862e-26
1.7229793e-25
6.2637836e-26
6.0732532e-26
5.5853536e-26
3.1402072e-26
3.6194351e-26
3.0509191e-26
2.854272e-26
3.4075211e-26
3.8711554e-26
3.724912e-26
3.4584266e-26
4.264703e-26
3.9898531e-26
3.5170476e-26
3.5964898e-26
1.4453903e-26
1.3791684e-26
1.6447396e-26
1.2120782e-26
1.6877707e-26
1.4996315e-26
1.6930553e-26
1.4425547e-26
3.0209476e-26
3.3481206e-26
1.8248164e-26
7.8627953e-27
1.3077294e-26
8.2208434e-27
1.0789733e-26
1.4757458e-26
1.4038413e-26
2.5156568e-26
1.0817532e-26
1.2825234e-26
1.0811535e-26
1.3722945e-26
1.2844038e-26
1.040873e-26
1.2105928e-26
3.5547831e-26
1.2045098e-26
1.2803393e-26
1.6787231e-26
1.4690535e-26
2.7357313e-26
3.6582244e-26
1.7895925e-26
1.895767e-26
1.5745868e-26
1.4172473e-26
9.5861324e-27
1.0686321e-26
8.4521242e-27
7.567082e-27
3.5005777e-27
3.7108217e-27
3.8681678e-27
3.7883254e-27
2.7783698e-27
2.2740376e-27
2.8870495e-27
2.7563503e-27
9.543889e-27
1.4201631e-26
1.593904e-26
1.3038275e-26
6.7024759e-27
1.0299818e-26
8.2152476e-27
1.4055936e-26
5.2491947e-27
4.2529171e-27
8.0003843e-27
7.5498954e-27
1.3705948e-26
1.3635274e-26
7.7518594e-27
1.9050163e-26
9.3702228e-27
8.9059212e-27
1.8630176e-26
1.2217351e-26
7.1028602e-27
1.46861e-26
8.0333982e-27
1.7368563e-26
2.8378693e-26
2.2212132e-26
1.382417e-26
1.3910974e-26
1.2176781e-26
9.872552e-27
1.4423816e-26
2.3338121e-26
1.403907e-26
1.3994832e-26
2.5289521e-26
7.576724e-27
1.0396661e-26
1.102847e-26
6.8126928e-27
7.2939062e-27
1.2430342e-26
1.1483712e-26
8.8991016e-27
9.9484362e-27
1.0389388e-26
1.3063338e-26
1.1261757e-26
1.9089609e-26
1.6176724e-26
2.1517885e-26
2.6817083e-26
2.1512218e-26
1.1758274e-26
2.1509627e-26
1.3210277e-26
1.6336949e-26
2.7436925e-26
2.3958709e-26
1.4418183e-26
1.5947812e-26
2.6425656e-26
2.136664e-26
1.2980611e-26
1.0577284e-26
1.107221e-26
1.8799274e-26
1.0451878e-26
1.9343862e-26
1.1767964e-26
1.0410467e-26
1.7909265e-26
3.3157674e-27
2.5110646e-27
3.7261517e-27
4.5586756e-27
2.8861084e-27
6.63412e-27
7.2557942e-27
6.0859127e-27
4.96769e-27
8.4001917e-27
6.3340192e-27
5.6137068e-27
7.5506125e-27
1.7677721e-27
2.4022071e-27
2.0189605e-27
5.0784682e-27
5.3793663e-27
3.3367894e-27
4.7670672e-27
4.1393551e-27
2.1742915e-27
2.4139034e-27
4.6235742e-27
5.6704918e-27
5.3109805e-27
3.0437357e-27
8.2047888e-27
7.1112122e-27
1.3224027e-26
9.0716951e-27
7.5507259e-27
1.0938395e-26
1.3310259e-26
1.6710645e-26
1.604811e-26
1.1775005e-26
9.8923056e-27
9.6730975e-27
1.1059899e-26
1.0889891e-26
8.9089944e-27
7.2611948e-27
5.7137465e-27
6.7149377e-27
2.0953841e-26
3.5254759e-26
2.3621015e-26
3.4449517e-26
1.8811617e-26
1.8291375e-26
1.8572051e-26
2.8394546e-26
2.5686791e-26
2.0990681e-26
1.873207e-26
2.1882084e-26
2.4845218e-26
2.0169604e-26
1.8238897e-26
2.4012501e-26
2.3001772e-26
1.3403786e-26
1.4933271e-26
2.2333768e-26
2.070994e-26
1.6546789e-26
2.2829778e-26
2.8135709e-26
3.3064567e-26
3.0225842e-26
2.6980209e-26
2.856539e-26
2.2558143e-26
3.0312903e-26
3.5665942e-26
2.5454503e-26
2.0000831e-26
1.6996182e-26
1.9698568e-26
2.0809173e-26
2.9340153e-26
1.918157e-26
2.492986e-26
1.9702093e-26
2.4614865e-26
1.9769769e-26
2.2455195e-26
2.9310774e-26
2.4126516e-26
2.0887963e-26
2.5474032e-26
2.503673e-26
3.1210328e-26
2.1387734e-26
1.8034344e-26
2.8530502e-26
3.3134413e-26
2.277697e-26
2.0050295e-26
1.176993e-26
1.3012782e-26
1.5539429e-26
1.3706183e-26
1.4875438e-26
1.6498384e-26
1.4375537e-26
1.3091427e-26
1.0414584e-26
9.2935435e-27
2.6167745e-26
3.0503625e-26
3.4558468e-26
1.0871159e-26
3.015419e-26
9.9663493e-27
1.4083277e-26
1.6978283e-26
1.4450291e-26
1.2207836e-26
1.5779763e-26
1.7066273e-26
1.4412977e-26
1.3427597e-26
9.5146598e-27
1.1342744e-26
2.9079859e-26
2.537669e-26
1.1272825e-26
1.3003175e-26
1.8781039e-26
2.7468403e-26
1.9054448e-26
1.8290218e-26
2.1380855e-26
2.0248857e-26
2.93179e-26
3.1925702e-26
2.7493614e-26
2.4242916e-26
2.3491676e-26
2.177893e-26
1.9842158e-26
1.7194872e-26
2.5738649e-26
3.3656298e-26
2.0222425e-26
2.6434411e-26
1.5900657e-26
2.2121542e-26
1.8356152e-26
1.4279845e-26
2.5351887e-26
1.1770688e-26
1.0326039e-26
2.1866464e-26
2.6239415e-26
1.1696447e-26
9.9187888e-27
1.4634481e-26
1.4681687e-26
1.8193562e-26
1.195252e-26
1.4676705e-26
1.3710447e-26
1.1260551e-26
5.6004515e-27
1.5009193e-26
1.403663e-26
1.576482e-26
1.9592263e-26
1.4430718e-26
2.718861e-26
1.9878203e-26
1.5957998e-26
2.3618958e-26
2.6942787e-26
2.3617208e-26
2.152353e-26
2.1853703e-26
1.8915421e-26
2.3410075e-26
1.629324e-26
1.3436469e-26
1.5725764e-26
2.5834661e-26
2.2267016e-26
1.4759243e-26
9.9417993e-27
1.2065606e-26
1.9918237e-26
1.8354847e-26
1.1563213e-26
1.1272099e-26
1.1342462e-26
1.8630708e-26
2.331514e-26
2.4245897e-26
1.758479e-26
8.8584088e-27
9.5972222e-27
2.0075257e-26
1.0741087e-26
2.7351445e-26
2.7194239e-26
2.7525908e-26
3.0197963e-26
2.1445336e-26
2.1017028e-26
4.8464339e-26
4.2183649e-26
3.6715194e-26
3.3476525e-26
4.4796726e-26
3.3661885e-26
3.4781777e-26
2.8990934e-26
1.9307894e-26
2.1827201e-26
1.7951103e-26
2.3417551e-26
1.9746132e-26
2.75436e-26
2.2614513e-26
2.0187091e-26
1.6848285e-26
1.8232627e-26
3.5926085e-26
3.690329e-26
3.4722036e-26
3.057763e-26
3.0102959e-26
3.5281742e-26
3.046342e-26
2.5264531e-26
1.8062271e-26
2.0154642e-26
1.768226e-26
1.6219018e-26
1.6875874e-26
1.5963228e-26
1.7194903e-26
1.8298404e-26
1.1321288e-26
1.8884415e-26
1.7710321e-26
2.0411757e-26
2.129111e-26
1.7528898e-26
1.735413e-26
1.8472416e-26
1.0306778e-26
1.1954979e-26
9.1436071e-27
1.6019826e-26
1.8400148e-26
1.6744487e-26
2.1239207e-26
1.8221752e-26
6.1693e-26
1.0306541e-26
2.0277915e-26
6.3274673e-26
1.1123422e-26
1.3521834e-26
6.4084642e-26
1.100594e-26
1.2495903e-26
6.421217e-26
1.0763059e-26
1.2561347e-26
1.3055491e-26
1.4055906e-26
1.5062342e-26
1.4212284e-26
1.9296525e-26
1.9002148e-26
6.6032662e-27
5.8664608e-26
1.2858362e-26
1.127689e-26
5.9621e-26
1.578983e-26
1.0710854e-26
5.1426334e-26
2.6596771e-26
1.0377012e-26
5.5987324e-26
1.3499151e-26
1.0901782e-26
9.700953e-27
1.3597583e-26
1.3485618e-26
1.2459496e-26
6.2321209e-27
5.0510764e-27
8.6024796e-27
6.0986035e-27
1.0514962e-26
1.5371408e-26
1.0171848e-26
1.1859837e-26
2.84698e-26
1.2304015e-26
1.2526862e-26
7.4528267e-27
1.499791e-26
3.615849e-26
3.3033075e-27
1.819146e-26
3.9347116e-26
4.1515104e-26
9.3585281e-27
1.5219136e-26
4.7539086e-26
9.5555479e-27
1.2328141e-26
4.7069493e-26
9.6704326e-27
1.1906368e-26
4.9356626e-26
5.0824598e-26
3.5937316e-26
3.6263182e-26
4.5667255e-26
4.5365467e-26
2.9546584e-26
2.9069058e-26
2.7224882e-26
2.8740098e-26
2.6995143e-26
2.4740413e-26
2.2897722e-26
2.5542184e-26
2.2452462e-26
2.5042338e-26
2.7874912e-26
2.465186e-26
3.2235257e-26
3.0143768e-26
2.6978158e-26
2.8366007e-26
1.8987023e-26
2.2743459e-26
2.425429e-26
2.0500665e-26
2.1385053e-26
2.0967881e-26
2.2175777e-26
2.2530464e-26
2.1296171e-26
2.2336257e-26
2.2057303e-26
2.2791818e-26
2.2402059e-26
2.4367603e-26
2.6161433e-26
2.300413e-26
2.3086601e-26
2.3488341e-26
2.324801e-26
2.4600547e-26
2.2564017e-26
2.0411215e-26
2.1034572e-26
2.3294246e-26
2.1752857e-26
2.3961291e-26
2.5636573e-26
2.2609987e-26
2.3904887e-26
2.5579969e-26
2.874967e-26
2.5140543e-26
2.898242e-26
3.2664612e-26
3.2577451e-26
2.8839442e-26
2.7743137e-26
2.8131456e-26
2.913249e-26
2.8380887e-26
3.0633251e-26
2.8956366e-26
2.8017309e-26
3.0008967e-26
2.9417444e-26
3.2491954e-26
3.4573031e-26
3.1147781e-26
1.6724493e-25
1.6587018e-25
1.0787515e-25
1.0726434e-25
1.2015506e-25
1.1645658e-25
1.8099744e-25
1.7672649e-25
8.1221911e-26
8.1105892e-26
1.6290225e-25
1.6358738e-25
1.0862802e-25
1.1038419e-25
1.1367008e-25
1.1228216e-25
1.7344211e-25
1.7252048e-25
8.1172789e-26
7.9223614e-26
9.1996548e-26
9.4835912e-26
7.8993146e-26
7.5910196e-26
7.7490367e-26
5.8962682e-26
6.1705292e-26
8.0237921e-26
7.8075218e-26
9.0979757e-26
7.5279987e-26
9.3169308e-26
7.6968384e-26
5.9198459e-26
7.9949168e-26
6.0768125e-26
9.1148519e-26
9.3831229e-26
7.5328155e-26
7.808641e-26
7.9360418e-26
5.8379256e-26
6.0732489e-26
7.6856392e-26
9.2075782e-26
9.3004161e-26
7.8847568e-26
7.7849171e-26
8.0264314e-26
8.0701057e-26
6.1695622e-26
6.2014178e-26
1.3654516e-25
1.3729954e-25
8.6801538e-26
8.9056724e-26
1.0532772e-25
1.0361535e-25
1.6006887e-25
1.5963944e-25
6.67659e-26
7.3540467e-26
1.6699578e-25
1.6488977e-25
1.1034413e-25
1.1024424e-25
1.1439004e-25
1.1182563e-25
1.7362649e-25
1.7103784e-25
7.6590134e-26
7.9582132e-26
6.3684147e-26
7.3436655e-26
5.9729327e-26
7.7107217e-26
6.0300817e-26
6.5003405e-26
4.5952465e-26
4.9371282e-26
6.9973682e-26
8.1439602e-26
6.6962558e-26
8.3702886e-26
5.2216952e-26
6.8377521e-26
7.1885471e-26
5.4392444e-26
7.6175151e-26
8.8180341e-26
7.2943673e-26
9.0587049e-26
5.5637691e-26
7.328968e-26
7.5689152e-26
5.7675305e-26
7.6787042e-26
8.9707099e-26
7.4835348e-26
9.0826137e-26
5.8921816e-26
7.6843068e-26
7.875121e-26
5.9927617e-26
1.5135473e-25
1.5230489e-25
1.0236221e-25
1.0306876e-25
1.0699675e-25
1.0489805e-25
1.5910156e-25
1.5853997e-25
2.8184689e-26
3.116783e-26
3.2975511e-26
2.8495346e-26
7.8149605e-26
7.9353997e-26
1.4823748e-25
1.492313e-25
9.7739725e-26
9.9890958e-26
1.0764603e-25
1.0553163e-25
1.6327777e-25
1.6291353e-25
2.4656569e-26
2.8542393e-26
2.9410764e-26
2.5829905e-26
7.8987504e-26
7.3866458e-26
7.2261557e-26
8.3547558e-26
6.8462788e-26
8.6803124e-26
6.9264088e-26
5.2547193e-26
5.5849719e-26
7.2719061e-26
7.4166624e-26
8.6768254e-26
7.1242489e-26
8.873017e-26
2.5656907e-26
2.6931072e-26
2.761886e-26
2.6309998e-26
2.8940873e-26
2.8952594e-26
2.7462871e-26
2.8566172e-26
1.676741e-25
1.6491563e-25
1.1243073e-25
1.117168e-25
1.1343503e-25
1.1138216e-25
1.6886577e-25
1.6774423e-25
3.2551648e-26
3.6576496e-26
3.6211245e-26
3.0976205e-26
8.324887e-26
8.8997721e-26
1.5521633e-25
1.5604317e-25
1.0367357e-25
1.049328e-25
1.1239068e-25
1.1060252e-25
1.6949625e-25
1.692769e-25
2.7521918e-26
3.198757e-26
3.2531724e-26
2.8291957e-26
8.3770456e-26
7.8616226e-26
2.9472497e-26
3.0560839e-26
3.1436092e-26
2.9937685e-26
3.2763345e-26
3.5179908e-26
3.2321639e-26
3.1448729e-26
2.3937981e-26
3.0163427e-26
2.9479229e-26
2.4628791e-26
2.6150721e-26
2.3020902e-26
2.3751045e-26
2.4479907e-26
2.6498815e-26
2.7532427e-26
2.7949336e-26
2.6617909e-26
2.7798501e-26
3.1744085e-26
3.0056582e-26
2.6151185e-26
2.0236042e-26
2.3937187e-26
2.4058277e-26
2.0719574e-26
2.2025092e-26
2.1274972e-26
2.1549691e-26
2.1986749e-26
2.1063967e-26
2.2099079e-26
2.1615448e-26
2.232177e-26
2.2027342e-26
2.3769653e-26
2.5061037e-26
2.2196984e-26
1.6760079e-26
2.1006482e-26
2.0071437e-26
1.6993777e-26
2.1508002e-26
1.6623175e-26
1.6935589e-26
1.8779744e-26
1.5921253e-26
1.7178161e-26
1.8067351e-26
1.8957651e-26
1.7062513e-26
1.6829346e-26
1.8157874e-26
1.6837294e-26
3.6840655e-27
5.8234049e-27
6.0973767e-27
3.8551338e-27
1.0189681e-26
9.7326725e-27
9.552226e-27
1.0159197e-26
1.0014108e-26
6.9571376e-27
9.63117e-27
9.980799e-27
8.4170217e-27
8.3938107e-27
9.0121471e-27
8.8563967e-27
9.9582225e-27
9.0543992e-27
9.2940037e-27
9.6715705e-27
8.6281235e-27
8.094463e-27
8.2290185e-27
8.3736075e-27
3.7880924e-27
9.2386278e-27
1.0328688e-26
1.1356889e-26
9.9512227e-27
3.7873487e-27
1.0106433e-26
8.8146986e-27
1.03606e-26
1.0637706e-26
8.9169439e-27
7.853002e-27
8.8682897e-27
9.4527465e-27
5.5779518e-27
5.7550465e-27
9.5670747e-27
1.0551425e-26
1.6983969e-26
1.9091452e-26
1.904902e-26
1.7090492e-26
1.5960993e-26
1.3421069e-26
1.4425634e-26
1.6928044e-26
1.6531484e-26
1.5913668e-26
1.7467976e-26
1.8731567e-26
1.8257965e-26
1.9100928e-26
2.0326289e-26
1.8911838e-26
3.8164962e-27
3.8711509e-27
5.5553309e-27
5.8354552e-27
3.868485e-27
3.8343324e-27
5.4996088e-27
5.9670295e-27
1.1264498e-26
1.0976145e-26
1.6511602e-26
2.0016897e-26
1.7210445e-26
1.6157672e-26
2.0539571e-26
1.5885778e-26
1.749475e-26
1.7245643e-26
1.4854117e-26
1.6787153e-26
2.0244905e-26
1.5777405e-26
1.6545499e-26
1.7003283e-26
1.8605054e-26
1.5794496e-26
8.9555249e-27
9.8011475e-27
1.110622e-26
9.6352232e-27
8.1767856e-27
8.4967788e-27
9.0473223e-27
8.2658953e-27
1.0514849e-26
9.6446459e-27
8.5600861e-27
1.0408344e-26
8.2331209e-27
8.8536822e-27
8.2839881e-27
8.2782855e-27
1.1024383e-26
1.0697827e-26
1.0686071e-26
1.1284569e-26
9.7276997e-27
1.0999581e-26
1.1290831e-26
9.0397754e-27
9.5350041e-27
1.0798329e-26
1.1355564e-26
1.0139654e-26
8.8036832e-27
9.4334563e-27
8.6163665e-27
9.0682075e-27
1.6625471e-26
1.9055268e-26
2.0430465e-26
1.7289591e-26
2.0287124e-26
2.3243391e-26
2.3080559e-26
2.0633233e-26
2.4711041e-26
2.5087687e-26
2.2552536e-26
2.1305747e-26
2.1063633e-26
2.0086295e-26
1.8318854e-26
1.8675546e-26
1.2115529e-26
1.1995179e-26
8.3058125e-26
8.0868246e-26
7.7938065e-26
8.0312205e-26
8.3519212e-26
8.0478567e-26
7.8050212e-26
8.0880164e-26
6.7130974e-26
6.9162057e-26
6.9720125e-26
6.898433e-26
7.0112946e-26
6.8578214e-26
6.987421e-26
7.0417986e-26
6.1160722e-26
6.2514895e-26
1.2766524e-26
1.4533486e-26
1.7467998e-26
1.5758829e-26
7.2508615e-26
7.2747082e-26
6.3588927e-26
6.5349018e-26
1.511895e-26
1.7278408e-26
2.1321538e-26
1.9364075e-26
1.7667627e-26
1.8680912e-26
2.280229e-26
2.2386766e-26
6.5161609e-26
6.5504274e-26
5.6751535e-26
5.8186294e-26
6.0471856e-26
5.6607852e-26
4.362678e-26
4.4177302e-26
4.6876796e-26
4.6747433e-26
4.3486548e-26
4.4678718e-26
4.7427349e-26
4.7294753e-26
5.7162195e-26
5.7520776e-26
5.8594435e-26
5.658788e-26
5.574978e-26
5.7424768e-26
5.7694947e-26
5.7016419e-26
4.8791137e-26
4.7951628e-26
4.0008644e-26
4.1485442e-26
4.3682885e-26
4.2531297e-26
5.3760579e-26
5.3216442e-26
4.8692341e-26
4.9686714e-26
5.2056047e-26
5.4226622e-26
8.2861151e-26
8.6875601e-26
8.7561696e-26
9.0448183e-26
1.1030827e-25
1.0961833e-25
8.2537146e-26
7.7154945e-26
7.8410829e-26
8.4909576e-26
2.1631519e-26
2.6302097e-26
2.2348383e-26
1.7880824e-26
2.4322375e-26
1.9251852e-26
7.1156474e-26
6.7676849e-26
6.7965733e-26
7.288131e-26
7.4798676e-26
7.1676448e-26
7.93192e-26
7.881982e-26
8.6774454e-26
8.3229489e-26
8.2446061e-26
8.5925753e-26
8.5722497e-26
8.6556404e-26
8.8114618e-26
8.8633291e-26
7.797261e-26
7.43946e-26
7.5319107e-26
7.73184e-26
7.2738499e-26
7.0955039e-26
7.2455356e-26
7.3564868e-26
5.1241942e-26
4.7104694e-26
4.6644831e-26
5.0381666e-26
5.029836e-26
4.8709525e-26
5.4534592e-26
5.0423864e-26
5.9882664e-26
6.0903976e-26
5.6217615e-26
6.0965621e-26
5.9242195e-26
6.0327873e-26
6.6465953e-26
6.4446737e-26
5.2730835e-26
5.1264615e-26
5.5735986e-26
5.1348965e-26
4.5949705e-26
4.7300898e-26
5.0310522e-26
4.8124435e-26
5.8829401e-26
5.9763333e-26
6.0745128e-26
5.8895547e-26
6.2444449e-26
6.2829265e-26
6.5679706e-26
6.4659306e-26
1.157208e-26
7.0821077e-27
9.6076347e-27
3.8426286e-27
3.9545661e-27
3.8166577e-27
3.9091721e-27
3.6681632e-27
3.8370919e-27
3.8204724e-27