/*--------------------------------*- C++ -*----------------------------------*\
  =========                 |
  \\      /  F ield         | OpenFOAM: The Open Source CFD Toolbox
   \\    /   O peration     | Website:  https://openfoam.org
    \\  /    A nd           | Version:  7
     \\/     M anipulation  |
\*---------------------------------------------------------------------------*/
FoamFile
{
    version     2.0;
    format      ascii;
    class       volScalarField;
    location    "4000";
    object      p;
}
// * * * * * * * * * * * * * * * * * * * * * * * * * * * * * * * * * * * * * //

dimensions      [0 2 -2 0 0 0 0];

internalField   nonuniform List<scalar> 
33733
(
-2.2920325e+51
-2.4133717e+51
-2.2941881e+51
-2.3400504e+51
-2.3353539e+51
-2.1616113e+51
-2.2659792e+51
-2.263766e+51
-2.3467268e+51
-2.2706217e+51
-2.3428757e+51
-2.4122242e+51
-2.45235e+51
-2.4544626e+51
-2.4152587e+51
-2.2680667e+51
-2.1607883e+51
-2.2671312e+51
-2.3421484e+51
-2.4153984e+51
-2.4136992e+51
-2.3760408e+51
-2.369723e+51
-2.33891e+51
-2.3316497e+51
-2.1126472e+51
-2.1961496e+51
-2.197059e+51
-2.1204209e+51
-2.2640445e+51
-2.3036276e+51
-2.2583091e+51
-2.2966301e+51
-2.355589e+51
-2.3623367e+51
-2.2773882e+51
-2.2750112e+51
-2.3820078e+51
-2.3445316e+51
-2.2684749e+51
-2.1978382e+51
-2.3085615e+51
-2.1114144e+51
-2.4335743e+51
-2.3754885e+51
-2.3355021e+51
-2.3404398e+51
-2.37918e+51
-2.4268313e+51
-2.4677999e+51
-2.4343156e+51
-2.298864e+51
-2.2594429e+51
-2.1966564e+51
-2.303847e+51
-2.2622513e+51
-2.1118575e+51
-2.1101762e+51
-2.195572e+51
-2.3061345e+51
-2.2644279e+51
-2.3065338e+51
-2.26581e+51
-2.3420506e+51
-2.3799426e+51
-2.379309e+51
-2.3421456e+51
-2.4408576e+51
-2.4221523e+51
-2.4215146e+51
-2.4391748e+51
-2.4196757e+51
-2.4365777e+51
-2.4172093e+51
-2.3815186e+51
-2.3764653e+51
-2.3984058e+51
-2.3944735e+51
-2.3654553e+51
-2.348544e+51
-2.3414162e+51
-2.3595802e+51
-2.0104208e+51
-2.0949997e+51
-2.1701819e+51
-2.2238796e+51
-2.2210102e+51
-2.1720498e+51
-2.2742434e+51
-2.2663042e+51
-2.2956485e+51
-2.2872294e+51
-2.3137491e+51
-2.3316981e+51
-2.3051754e+51
-2.3241678e+51
-2.3688933e+51
-2.4508366e+51
-2.4525849e+51
-2.4487147e+51
-2.3662579e+51
-2.2790262e+51
-2.2788319e+51
-2.3976476e+51
-2.3909303e+51
-2.35959e+51
-2.353312e+51
-2.4059347e+51
-2.4021321e+51
-2.365993e+51
-2.3627899e+51
-2.1960367e+51
-2.3258419e+51
-2.2784346e+51
-2.2772205e+51
-2.3234659e+51
-2.3213328e+51
-2.275693e+51
-2.2736315e+51
-2.197104e+51
-2.3161226e+51
-2.1022605e+51
-2.1059705e+51
-2.3854672e+51
-2.4023085e+51
-2.3693897e+51
-2.3524351e+51
-2.2997489e+51
-2.2780708e+51
-2.2266134e+51
-2.1706792e+51
-2.3176226e+51
-2.3355284e+51
-2.276668e+51
-2.3548363e+51
-2.4517635e+51
-2.3884013e+51
-2.3475489e+51
-2.3576423e+51
-2.3961449e+51
-2.4386185e+51
-2.4810331e+51
-2.451247e+51
-2.4346335e+51
-2.4530183e+51
-2.3086308e+51
-2.2664867e+51
-2.2219036e+51
-2.1737571e+51
-2.1695462e+51
-2.2217909e+51
-2.3168726e+51
-2.2730008e+51
-2.0957838e+51
-2.0040076e+51
-2.0903542e+51
-2.2225771e+51
-2.1675395e+51
-2.1689919e+51
-2.224182e+51
-2.3296945e+51
-2.3085851e+51
-2.3145164e+51
-2.3340437e+51
-2.2881548e+51
-2.2657284e+51
-2.2942317e+51
-2.2709325e+51
-2.3174681e+51
-2.3178535e+51
-2.3362269e+51
-2.3356846e+51
-2.2746401e+51
-2.2977716e+51
-2.2767589e+51
-2.2990642e+51
-2.348256e+51
-2.3677383e+51
-2.370158e+51
-2.3520175e+51
-2.4044781e+51
-2.3854551e+51
-2.3868567e+51
-2.4045447e+51
-2.4035173e+51
-2.3866487e+51
-2.4012777e+51
-2.3846762e+51
-2.3705998e+51
-2.3689069e+51
-2.3535009e+51
-2.3522758e+51
-2.4275504e+51
-2.4362409e+51
-2.4343307e+51
-2.4260166e+51
-2.4424424e+51
-2.4536064e+51
-2.4445998e+51
-2.4511132e+51
-2.4237189e+51
-2.431736e+51
-2.4212864e+51
-2.4290918e+51
-2.4368835e+51
-2.4397355e+51
-2.4483124e+51
-2.4453861e+51
-2.4353474e+51
-2.4198384e+51
-2.4187209e+51
-2.4265465e+51
-2.42756e+51
-2.3869203e+51
-2.3943762e+51
-2.3919258e+51
-2.3841074e+51
-2.407832e+51
-2.4097125e+51
-2.4018373e+51
-2.3995104e+51
-2.3721697e+51
-2.3796107e+51
-2.3686233e+51
-2.3765783e+51
-2.357547e+51
-2.353033e+51
-2.3611036e+51
-2.3649541e+51
-1.9944588e+51
-2.0857277e+51
-2.1660232e+51
-2.2169944e+51
-2.2502673e+51
-2.2146067e+51
-2.2447609e+51
-2.2888781e+51
-2.3008235e+51
-2.2923712e+51
-2.2805761e+51
-2.3102766e+51
-2.3190096e+51
-2.3114267e+51
-2.3018605e+51
-2.3270917e+51
-2.3347241e+51
-2.3285075e+51
-2.3199945e+51
-2.3499041e+51
-2.3421028e+51
-2.3363834e+51
-2.3449761e+51
-2.4126758e+51
-2.37022e+51
-2.3689341e+51
-2.4110875e+51
-2.4516723e+51
-2.4525427e+51
-2.4717273e+51
-2.4707221e+51
-2.4537301e+51
-2.4529947e+51
-2.4730508e+51
-2.4723547e+51
-2.4491685e+51
-2.4503902e+51
-2.4691974e+51
-2.4098195e+51
-2.4473738e+51
-2.4482399e+51
-2.4084355e+51
-2.367218e+51
-2.3682812e+51
-2.3282417e+51
-2.2790413e+51
-2.2783915e+51
-2.1935408e+51
-2.3274147e+51
-2.1950887e+51
-2.3271736e+51
-2.2785067e+51
-2.279261e+51
-2.3265939e+51
-2.0991214e+51
-2.0968428e+51
-2.4170573e+51
-2.4202166e+51
-2.4009764e+51
-2.4039108e+51
-2.4083667e+51
-2.413557e+51
-2.3975329e+51
-2.3919136e+51
-2.3694686e+51
-2.3720668e+51
-2.3882413e+51
-2.385547e+51
-2.3600743e+51
-2.3660612e+51
-2.3821079e+51
-2.376335e+51
-2.4268624e+51
-2.4291393e+51
-2.4458192e+51
-2.4122017e+51
-2.4099285e+51
-2.4247462e+51
-2.4225803e+51
-2.4059585e+51
-2.4079101e+51
-2.3788656e+51
-2.3769097e+51
-2.3959119e+51
-2.3937593e+51
-2.3738082e+51
-2.3753105e+51
-2.3918334e+51
-2.390067e+51
-2.164344e+51
-2.2283631e+51
-2.2277266e+51
-2.1633979e+51
-2.3396298e+51
-2.341125e+51
-2.3609343e+51
-2.3592573e+51
-2.2920083e+51
-2.2903713e+51
-2.3195871e+51
-2.3181393e+51
-2.2898207e+51
-2.3169205e+51
-2.2897281e+51
-2.3160612e+51
-2.3576757e+51
-2.3378308e+51
-2.356339e+51
-2.3366638e+51
-2.3339996e+51
-2.3359142e+51
-2.3527071e+51
-2.3550031e+51
-2.2873124e+51
-2.2886615e+51
-2.3151447e+51
-2.3134966e+51
-2.2275516e+51
-2.2839563e+51
-2.286185e+51
-2.3113619e+51
-2.3068793e+51
-2.2283454e+51
-2.1685331e+51
-2.1648139e+51
-2.3254506e+51
-2.3310232e+51
-2.3435202e+51
-2.3494615e+51
-2.0795639e+51
-2.3891752e+51
-2.3966162e+51
-2.4039947e+51
-2.4119267e+51
-2.3819975e+51
-2.3746104e+51
-2.3675338e+51
-2.3601055e+51
-2.3211793e+51
-2.3123735e+51
-2.2529736e+51
-2.3027184e+51
-2.2906385e+51
-2.2180996e+51
-2.3292048e+51
-2.3370924e+51
-2.3446557e+51
-2.3525643e+51
-2.1151377e+51
-2.1973848e+51
-2.1966108e+51
-2.1063872e+51
-2.2821208e+51
-2.3670244e+51
-2.4661645e+51
-2.4940323e+51
-2.4499821e+51
-2.3986612e+51
-2.3560511e+51
-2.3810496e+51
-2.3716392e+51
-2.3620648e+51
-2.4119757e+51
-2.3985421e+51
-2.4169507e+51
-2.5059734e+51
-2.4552966e+51
-2.4653901e+51
-2.4450296e+51
-2.4635171e+51
-2.4739378e+51
-2.4434079e+51
-2.4348901e+51
-2.4517614e+51
-2.4606853e+51
-2.3149073e+51
-2.2700435e+51
-2.2248276e+51
-2.1723255e+51
-2.1681338e+51
-2.2258008e+51
-2.3276293e+51
-2.3201288e+51
-2.3425784e+51
-2.279189e+51
-2.297764e+51
-2.2740867e+51
-2.0860606e+51
-1.9850073e+51
-2.0789311e+51
-2.1636342e+51
-2.1638287e+51
-2.2137409e+51
-2.24344e+51
-2.2466118e+51
-2.2133867e+51
-2.2143671e+51
-2.2491528e+51
-2.2514954e+51
-2.2170053e+51
-2.3199884e+51
-2.3310665e+51
-2.3364436e+51
-2.3258019e+51
-2.3503071e+51
-2.3405872e+51
-2.3454093e+51
-2.3542193e+51
-2.30718e+51
-2.2828447e+51
-2.3291431e+51
-2.3387701e+51
-2.3400182e+51
-2.3318016e+51
-2.3398635e+51
-2.3383898e+51
-2.3325167e+51
-2.3312385e+51
-2.3474596e+51
-2.3558051e+51
-2.3552855e+51
-2.3475959e+51
-2.3468657e+51
-2.3542e+51
-2.3527885e+51
-2.3453309e+51
-2.2943145e+51
-2.2805614e+51
-2.2876094e+51
-2.3013855e+51
-2.3177845e+51
-2.3057549e+51
-2.312287e+51
-2.3223898e+51
-2.2909111e+51
-2.3042512e+51
-2.2920816e+51
-2.3044338e+51
-2.31472e+51
-2.323967e+51
-2.3231381e+51
-2.3142593e+51
-2.3762943e+51
-2.3858744e+51
-2.3848874e+51
-2.3782264e+51
-2.3682231e+51
-2.3707298e+51
-2.3593749e+51
-2.3628766e+51
-2.3931157e+51
-2.4016003e+51
-2.3936511e+51
-2.4014289e+51
-2.4099591e+51
-2.4189743e+51
-2.4180691e+51
-2.4093361e+51
-2.4080233e+51
-2.4162353e+51
-2.413736e+51
-2.4061343e+51
-2.3932479e+51
-2.4005147e+51
-2.3989205e+51
-2.391701e+51
-2.412366e+51
-2.4048252e+51
-2.4112308e+51
-2.4035822e+51
-2.3976633e+51
-2.3903863e+51
-2.3963001e+51
-2.3889895e+51
-2.3785861e+51
-2.3773364e+51
-2.3858766e+51
-2.3844656e+51
-2.3759797e+51
-2.3744755e+51
-2.3817464e+51
-2.3831438e+51
-2.3641354e+51
-2.3715191e+51
-2.3632121e+51
-2.3702837e+51
-2.3689261e+51
-2.3617485e+51
-2.3673943e+51
-2.3602517e+51
-2.4406055e+51
-2.4426902e+51
-2.4387e+51
-2.4372689e+51
-2.4349344e+51
-2.4303694e+51
-2.4284881e+51
-2.4331685e+51
-2.4442812e+51
-2.4465887e+51
-2.4506618e+51
-2.4482293e+51
-2.4548968e+51
-2.4593618e+51
-2.456746e+51
-2.4523449e+51
-2.430323e+51
-2.4265963e+51
-2.4241e+51
-2.4278682e+51
-2.4358101e+51
-2.4383386e+51
-2.4317711e+51
-2.4344727e+51
-2.4225688e+51
-2.4263449e+51
-2.4250942e+51
-2.4213491e+51
-2.4328043e+51
-2.434118e+51
-2.4287971e+51
-2.4300874e+51
-2.4380225e+51
-2.4421547e+51
-2.4408185e+51
-2.4367083e+51
-2.4397202e+51
-2.4421387e+51
-2.4461012e+51
-2.4438074e+51
-2.4478542e+51
-2.4501532e+51
-2.4545298e+51
-2.4522161e+51
-2.4505948e+51
-2.4462339e+51
-2.4449176e+51
-2.4492573e+51
-2.4359617e+51
-2.4400781e+51
-2.4395571e+51
-2.4354059e+51
-2.4206212e+51
-2.4243377e+51
-2.4237167e+51
-2.4200397e+51
-2.4197865e+51
-2.423435e+51
-2.4227308e+51
-2.4192177e+51
-2.4312982e+51
-2.4313668e+51
-2.4264617e+51
-2.4271819e+51
-2.4314369e+51
-2.4320426e+51
-2.4274111e+51
-2.4280367e+51
-2.3921292e+51
-2.3991326e+51
-2.4136177e+51
-2.406351e+51
-2.4240785e+51
-2.4207195e+51
-2.4323342e+51
-2.3782607e+51
-2.3851562e+51
-2.3650872e+51
-2.3715659e+51
-1.984617e+51
-2.1576149e+51
-2.1625984e+51
-2.2204089e+51
-2.2535221e+51
-2.273829e+51
-2.2674173e+51
-2.248994e+51
-2.3027954e+51
-2.3148692e+51
-2.3238547e+51
-2.3313295e+51
-2.3382493e+51
-2.3447863e+51
-2.3583783e+51
-2.3514773e+51
-2.4544099e+51
-2.4163038e+51
-2.4171916e+51
-2.4354922e+51
-2.4346862e+51
-2.3999645e+51
-2.3821049e+51
-2.3811458e+51
-2.3989935e+51
-2.380204e+51
-2.3804638e+51
-2.3982614e+51
-2.3979969e+51
-2.4342227e+51
-2.4155602e+51
-2.4151273e+51
-2.4335387e+51
-2.4606421e+51
-2.4598938e+51
-2.4505486e+51
-2.4512136e+51
-2.4614306e+51
-2.4610641e+51
-2.4516371e+51
-2.4520316e+51
-2.4705087e+51
-2.4802367e+51
-2.4700917e+51
-2.4797164e+51
-2.4696411e+51
-2.4792292e+51
-2.4689065e+51
-2.4785071e+51
-2.4623022e+51
-2.4620229e+51
-2.4527776e+51
-2.4523946e+51
-2.4617973e+51
-2.4616358e+51
-2.4521881e+51
-2.4521193e+51
-2.4715162e+51
-2.4813075e+51
-2.4712761e+51
-2.481079e+51
-2.4710404e+51
-2.4808383e+51
-2.4708222e+51
-2.4805859e+51
-2.4574039e+51
-2.4568966e+51
-2.431733e+51
-2.4480084e+51
-2.4483816e+51
-2.458992e+51
-2.4580559e+51
-2.4325753e+51
-2.448883e+51
-2.4497381e+51
-2.4679747e+51
-2.4775537e+51
-2.4669492e+51
-2.4145047e+51
-2.4141039e+51
-2.4555361e+51
-2.4550124e+51
-2.4306576e+51
-2.4465744e+51
-2.4470091e+51
-2.4564439e+51
-2.4559681e+51
-2.4312521e+51
-2.4472827e+51
-2.4476683e+51
-2.4139769e+51
-2.4135851e+51
-2.3973842e+51
-2.3797384e+51
-2.3796998e+51
-2.3970169e+51
-2.3976035e+51
-2.3800261e+51
-2.379765e+51
-2.3973122e+51
-2.3634599e+51
-2.3425883e+51
-2.3420836e+51
-2.3625537e+51
-2.226244e+51
-2.29047e+51
-2.2925023e+51
-2.3206449e+51
-2.319828e+51
-2.3193103e+51
-2.29011e+51
-2.2907115e+51
-2.3190446e+51
-2.2256379e+51
-2.1593955e+51
-2.1583373e+51
-2.3617901e+51
-2.3411044e+51
-2.340873e+51
-2.3615972e+51
-2.2264601e+51
-2.228517e+51
-2.1597308e+51
-2.1631405e+51
-2.3616714e+51
-2.3410224e+51
-2.3407486e+51
-2.3613074e+51
-2.2908154e+51
-2.3191278e+51
-2.2907532e+51
-2.319048e+51
-2.2913734e+51
-2.2927162e+51
-2.3200646e+51
-2.3194318e+51
-2.3408617e+51
-2.3412918e+51
-2.3615022e+51
-2.361313e+51
-2.0750479e+51
-2.0714984e+51
-2.4264312e+51
-2.4194136e+51
-2.4178171e+51
-2.4247726e+51
-2.4293462e+51
-2.422165e+51
-2.4207815e+51
-2.4278629e+51
-2.4043309e+51
-2.4057432e+51
-2.4126268e+51
-2.4111102e+51
-2.4070054e+51
-2.4082505e+51
-2.4152482e+51
-2.4139621e+51
-2.4180387e+51
-2.4108458e+51
-2.4074843e+51
-2.4150661e+51
-2.4230272e+51
-2.4161407e+51
-2.4135744e+51
-2.4205778e+51
-2.4094666e+51
-2.4026736e+51
-2.3999189e+51
-2.4067961e+51
-2.3930291e+51
-2.3968819e+51
-2.4038961e+51
-2.4003023e+51
-2.3773673e+51
-2.3785707e+51
-2.3854109e+51
-2.3841651e+51
-2.3797213e+51
-2.3809377e+51
-2.3877557e+51
-2.3865861e+51
-2.3943144e+51
-2.4012885e+51
-2.4000773e+51
-2.3931431e+51
-2.39069e+51
-2.3919795e+51
-2.3988675e+51
-2.3975656e+51
-2.3650979e+51
-2.3695856e+51
-2.3764201e+51
-2.3721807e+51
-2.3729151e+51
-2.3757534e+51
-2.3825304e+51
-2.3797025e+51
-2.395902e+51
-2.389048e+51
-2.3862329e+51
-2.3931155e+51
-2.3899934e+51
-2.3830447e+51
-2.3788861e+51
-2.3860439e+51
-2.4361699e+51
-2.4287676e+51
-2.4275658e+51
-2.4349836e+51
-2.4535851e+51
-2.4530527e+51
-2.4298813e+51
-2.4311323e+51
-2.4385176e+51
-2.437281e+51
-2.4468665e+51
-2.4155115e+51
-2.4168192e+51
-2.4240298e+51
-2.4227724e+51
-2.4215715e+51
-2.4142911e+51
-2.4131074e+51
-2.4203941e+51
-2.4338735e+51
-2.4264247e+51
-2.4251072e+51
-2.432528e+51
-2.4231566e+51
-2.4240854e+51
-2.431443e+51
-2.4304156e+51
-2.4090609e+51
-2.4097542e+51
-2.4169837e+51
-2.4161565e+51
-2.4106781e+51
-2.4119542e+51
-2.4192554e+51
-2.4179722e+51
-2.3955915e+51
-2.3884122e+51
-2.3871149e+51
-2.3942677e+51
-2.3848324e+51
-2.3859318e+51
-2.3918977e+51
-2.3930586e+51
-2.4011189e+51
-2.4024572e+51
-2.4096679e+51
-2.4083225e+51
-2.3998877e+51
-2.4070947e+51
-2.4059268e+51
-2.3986852e+51
-2.3816729e+51
-2.3821755e+51
-2.3884606e+51
-2.3889578e+51
-2.3828281e+51
-2.3839123e+51
-2.3897126e+51
-2.3908433e+51
-2.3975153e+51
-2.4047457e+51
-2.4034769e+51
-2.3963285e+51
-2.3955095e+51
-2.4026061e+51
-2.4020332e+51
-2.3949901e+51
-2.1554786e+51
-2.2164287e+51
-2.2577523e+51
-2.2594727e+51
-2.2140541e+51
-2.2579207e+51
-2.2573959e+51
-2.2139183e+51
-2.2153165e+51
-2.155221e+51
-2.353908e+51
-2.3549307e+51
-2.3633459e+51
-2.3623357e+51
-2.355929e+51
-2.3570745e+51
-2.3655193e+51
-2.3643867e+51
-2.3719485e+51
-2.3731442e+51
-2.3809179e+51
-2.3796462e+51
-2.3784999e+51
-2.3708529e+51
-2.3698548e+51
-2.3774981e+51
-2.3079859e+51
-2.3243243e+51
-2.3060747e+51
-2.3228269e+51
-2.3211191e+51
-2.3046438e+51
-2.3216542e+51
-2.3043153e+51
-2.336511e+51
-2.3351043e+51
-2.3475023e+51
-2.3462854e+51
-2.34527e+51
-2.3340719e+51
-2.3334049e+51
-2.3443608e+51
-2.3039418e+51
-2.3204911e+51
-2.320049e+51
-2.3037133e+51
-2.3435069e+51
-2.3326459e+51
-2.3317179e+51
-2.3423771e+51
-2.303683e+51
-2.3199764e+51
-2.3201238e+51
-2.3045198e+51
-2.3314587e+51
-2.331669e+51
-2.3420989e+51
-2.341867e+51
-2.3766703e+51
-2.3690168e+51
-2.3679177e+51
-2.3755744e+51
-2.3613282e+51
-2.3529338e+51
-2.3517571e+51
-2.3602034e+51
-2.3749808e+51
-2.3673221e+51
-2.3669232e+51
-2.3745289e+51
-2.3596118e+51
-2.3512945e+51
-2.3510376e+51
-2.3593101e+51
-2.3479321e+51
-2.3489635e+51
-2.356961e+51
-2.3558813e+51
-2.3498302e+51
-2.3507536e+51
-2.3588996e+51
-2.35791e+51
-2.3630438e+51
-2.3641547e+51
-2.3714529e+51
-2.3703375e+51
-2.3651855e+51
-2.3663069e+51
-2.3737794e+51
-2.3725622e+51
-2.2566385e+51
-2.3013153e+51
-2.3014147e+51
-2.3174174e+51
-2.3168586e+51
-2.2573369e+51
-2.3023265e+51
-2.3037616e+51
-2.3195051e+51
-2.3182914e+51
-2.3299957e+51
-2.3311235e+51
-2.3415889e+51
-2.3406223e+51
-2.3397811e+51
-2.3291651e+51
-2.3284344e+51
-2.3388906e+51
-2.2156392e+51
-2.2151105e+51
-2.2564413e+51
-2.2960933e+51
-2.2987554e+51
-2.3126513e+51
-2.3087563e+51
-2.2565864e+51
-2.2999076e+51
-2.3009284e+51
-2.3161181e+51
-2.3146491e+51
-2.3254772e+51
-2.3274071e+51
-2.3376064e+51
-2.3352834e+51
-2.3323503e+51
-2.3229084e+51
-2.3185002e+51
-2.3274899e+51
-2.2163826e+51
-2.2186536e+51
-2.3355332e+51
-2.3406725e+51
-2.3482303e+51
-2.3431711e+51
-2.343894e+51
-2.346471e+51
-2.3543474e+51
-2.3516242e+51
-2.3504362e+51
-2.3553482e+51
-2.3625892e+51
-2.3579803e+51
-2.3587236e+51
-2.361509e+51
-2.3687593e+51
-2.3659366e+51
-2.0717394e+51
-2.2544104e+51
-2.2756946e+51
-2.1098039e+51
-2.1961555e+51
-2.1950805e+51
-2.0995568e+51
-2.3197645e+51
-2.284673e+51
-2.2713895e+51
-2.3759423e+51
-2.4082205e+51
-2.3631896e+51
-2.4769314e+51
-2.465148e+51
-2.4582048e+51
-2.5035903e+51
-2.5123019e+51
-2.4851829e+51
-2.5183007e+51
-2.528341e+51
-2.384588e+51
-2.3928023e+51
-2.3916672e+51
-2.3818641e+51
-2.3815042e+51
-2.4009654e+51
-2.3727743e+51
-2.3689072e+51
-2.3770021e+51
-2.4242629e+51
-2.4186644e+51
-2.4089813e+51
-2.4273845e+51
-2.4374411e+51
-2.4009063e+51
-2.4091144e+51
-2.426253e+51
-2.4174168e+51
-2.5085446e+51
-2.5004652e+51
-2.4577275e+51
-2.4632813e+51
-2.4661154e+51
-2.4606755e+51
-2.4522063e+51
-2.4761543e+51
-2.4707113e+51
-2.4898562e+51
-2.482094e+51
-2.4406477e+51
-2.4468271e+51
-2.4553274e+51
-2.4491683e+51
-2.4727642e+51
-2.4637611e+51
-2.4575276e+51
-2.4665177e+51
-2.4745729e+51
-2.4690949e+51
-2.4781735e+51
-2.4838091e+51
-2.4429616e+51
-2.4467612e+51
-2.4338451e+51
-2.4388435e+51
-2.4505749e+51
-2.4545903e+51
-2.4588298e+51
-2.4632388e+51
-2.225496e+51
-2.1703321e+51
-2.1657004e+51
-2.2495563e+51
-2.2275714e+51
-2.2169284e+51
-2.3279849e+51
-2.3526273e+51
-2.3609187e+51
-2.3341741e+51
-2.3343827e+51
-2.3401943e+51
-2.3273827e+51
-2.3506884e+51
-2.360123e+51
-2.2785327e+51
-2.2805779e+51
-2.2817378e+51
-2.3036933e+51
-2.3080843e+51
-2.0790511e+51
-2.1612178e+51
-2.1663796e+51
-1.9738266e+51
-2.1549781e+51
-2.1601527e+51
-2.1542543e+51
-2.1596274e+51
-2.2173798e+51
-2.2177422e+51
-2.219829e+51
-2.2542787e+51
-2.2483267e+51
-2.2667341e+51
-2.271518e+51
-2.2501536e+51
-2.2531642e+51
-2.2756785e+51
-2.2558127e+51
-2.2773538e+51
-2.3475813e+51
-2.3349274e+51
-2.3576562e+51
-2.3658711e+51
-2.3183642e+51
-2.3177053e+51
-2.330391e+51
-2.2902311e+51
-2.2893943e+51
-2.3051416e+51
-2.3412367e+51
-2.3481815e+51
-2.3457096e+51
-2.3514618e+51
-2.3532994e+51
-2.3490893e+51
-2.3494651e+51
-2.3532291e+51
-2.352226e+51
-2.3420449e+51
-2.340704e+51
-2.3455206e+51
-2.3450008e+51
-2.3471441e+51
-2.3481e+51
-2.3510506e+51
-2.3500245e+51
-2.3451073e+51
-2.3464321e+51
-2.3493253e+51
-2.3480921e+51
-2.3419349e+51
-2.3415103e+51
-2.3443672e+51
-2.3449828e+51
-2.3390559e+51
-2.3410424e+51
-2.3437438e+51
-2.3421639e+51
-2.3571987e+51
-2.3560646e+51
-2.3601099e+51
-2.3611451e+51
-2.3636751e+51
-2.367353e+51
-2.3675558e+51
-2.3644447e+51
-2.3633991e+51
-2.3665687e+51
-2.3647447e+51
-2.3615245e+51
-2.3554213e+51
-2.3567995e+51
-2.3583093e+51
-2.3600422e+51
-2.3530027e+51
-2.3542119e+51
-2.3571414e+51
-2.3559795e+51
-2.3591133e+51
-2.3602933e+51
-2.3635963e+51
-2.3625333e+51
-2.3620762e+51
-2.3585779e+51
-2.3576409e+51
-2.3611385e+51
-2.3511586e+51
-2.3523055e+51
-2.3553374e+51
-2.3542455e+51
-2.3009692e+51
-2.3158723e+51
-2.3079282e+51
-2.3151943e+51
-2.3223683e+51
-2.3310933e+51
-2.326303e+51
-2.3211557e+51
-2.3274586e+51
-2.3347363e+51
-2.3313774e+51
-2.3362316e+51
-2.3381873e+51
-2.317759e+51
-2.3063821e+51
-2.3117354e+51
-2.316756e+51
-2.3200606e+51
-2.3187985e+51
-2.3241986e+51
-2.3239336e+51
-2.3146532e+51
-2.3155999e+51
-2.3101073e+51
-2.3039017e+51
-2.3192773e+51
-2.3239333e+51
-2.3210267e+51
-2.3157911e+51
-2.3321316e+51
-2.3286404e+51
-2.3279407e+51
-2.3315643e+51
-2.3349331e+51
-2.3355277e+51
-2.3384613e+51
-2.3381069e+51
-2.337632e+51
-2.3342549e+51
-2.3319235e+51
-2.3355941e+51
-2.3286138e+51
-2.3309673e+51
-2.3274776e+51
-2.32496e+51
-2.3903286e+51
-2.3900726e+51
-2.3944547e+51
-2.394023e+51
-2.386811e+51
-2.3805411e+51
-2.3739465e+51
-2.3980194e+51
-2.4017812e+51
-2.4018312e+51
-2.3985339e+51
-2.4053634e+51
-2.4055462e+51
-2.409433e+51
-2.4088724e+51
-2.4217306e+51
-2.4260233e+51
-2.4245591e+51
-2.4203465e+51
-2.4126579e+51
-2.4135198e+51
-2.4163459e+51
-2.4175597e+51
-2.4112714e+51
-2.4094224e+51
-2.412891e+51
-2.4148414e+51
-2.4187143e+51
-2.4227483e+51
-2.4203575e+51
-2.4165773e+51
-2.4151651e+51
-2.4189035e+51
-2.4177266e+51
-2.4140102e+51
-2.4070971e+51
-2.4081373e+51
-2.4105407e+51
-2.4116139e+51
-2.3971411e+51
-2.396074e+51
-2.4011814e+51
-2.3993209e+51
-2.4025822e+51
-2.4042958e+51
-2.4076576e+51
-2.4059549e+51
-2.40476e+51
-2.4013356e+51
-2.4003677e+51
-2.4037847e+51
-2.3980568e+51
-2.3947386e+51
-2.3937607e+51
-2.3971182e+51
-2.416435e+51
-2.4170154e+51
-2.4133155e+51
-2.4127635e+51
-2.4098483e+51
-2.4064073e+51
-2.4058328e+51
-2.4092775e+51
-2.4125553e+51
-2.4162306e+51
-2.4157151e+51
-2.4120583e+51
-2.4049706e+51
-2.405577e+51
-2.4084925e+51
-2.4090658e+51
-2.4031112e+51
-2.3997011e+51
-2.3991196e+51
-2.4024995e+51
-2.3964329e+51
-2.3930285e+51
-2.3924237e+51
-2.3958432e+51
-2.4022324e+51
-2.3988194e+51
-2.3980559e+51
-2.4015109e+51
-2.3955313e+51
-2.3920725e+51
-2.3910864e+51
-2.3946668e+51
-2.3871771e+51
-2.3842174e+51
-2.3833515e+51
-2.3863193e+51
-2.3849907e+51
-2.3819902e+51
-2.3807305e+51
-2.3838748e+51
-2.3894648e+51
-2.3903401e+51
-2.39271e+51
-2.3937427e+51
-2.3870579e+51
-2.3881598e+51
-2.3904315e+51
-2.3913944e+51
-2.3788813e+51
-2.3797822e+51
-2.3829853e+51
-2.3821624e+51
-2.3771495e+51
-2.3782775e+51
-2.3815492e+51
-2.380452e+51
-2.3840345e+51
-2.3850394e+51
-2.3887675e+51
-2.3878134e+51
-2.385452e+51
-2.3861802e+51
-2.388997e+51
-2.3896432e+51
-2.3717277e+51
-2.375422e+51
-2.3726496e+51
-2.371203e+51
-2.3811809e+51
-2.3782528e+51
-2.3776208e+51
-2.3801975e+51
-2.3681259e+51
-2.370133e+51
-2.373077e+51
-2.3711987e+51
-2.3742997e+51
-2.3759155e+51
-2.3787844e+51
-2.377529e+51
-2.3765623e+51
-2.3732453e+51
-2.3722522e+51
-2.3756361e+51
-2.3658469e+51
-2.3669545e+51
-2.3701116e+51
-2.3690802e+51
-2.3750213e+51
-2.3716967e+51
-2.3706861e+51
-2.3739035e+51
-2.3643963e+51
-2.3653801e+51
-2.3684937e+51
-2.3676147e+51
-2.4422849e+51
-2.4390971e+51
-2.4356235e+51
-2.435392e+51
-2.4309706e+51
-2.4331031e+51
-2.4333454e+51
-2.4457968e+51
-2.4495929e+51
-2.4579723e+51
-2.4537198e+51
-2.4311112e+51
-2.4274911e+51
-2.4248379e+51
-2.4284903e+51
-2.4364503e+51
-2.4390983e+51
-2.4324767e+51
-2.435256e+51
-2.423135e+51
-2.4268278e+51
-2.4256016e+51
-2.4219345e+51
-2.4333007e+51
-2.4346016e+51
-2.4293763e+51
-2.4306507e+51
-2.4386188e+51
-2.4426597e+51
-2.4413715e+51
-2.4373245e+51
-2.440447e+51
-2.4429147e+51
-2.4467678e+51
-2.4444359e+51
-2.4485675e+51
-2.4508723e+51
-2.455103e+51
-2.4528097e+51
-2.4510646e+51
-2.4468192e+51
-2.4455467e+51
-2.4497711e+51
-2.4365733e+51
-2.4406199e+51
-2.4402628e+51
-2.4361648e+51
-2.4334272e+51
-2.4211707e+51
-2.4248096e+51
-2.424324e+51
-2.4207413e+51
-2.4209287e+51
-2.4244417e+51
-2.4311769e+51
-2.4320663e+51
-2.4324065e+51
-2.4276428e+51
-2.4282522e+51
-2.4320803e+51
-2.4325324e+51
-2.4281014e+51
-2.4285967e+51
-2.3961432e+51
-2.3971372e+51
-2.3930323e+51
-2.4029777e+51
-2.4037669e+51
-2.4003751e+51
-2.416714e+51
-2.417439e+51
-2.413965e+51
-2.4098601e+51
-2.4105878e+51
-2.4071076e+51
-2.4218042e+51
-2.423081e+51
-2.4263184e+51
-2.4251257e+51
-2.4242041e+51
-2.4209532e+51
-2.4335742e+51
-2.3829472e+51
-2.3799014e+51
-2.3830583e+51
-2.3894745e+51
-2.3901584e+51
-2.386168e+51
-2.3705503e+51
-2.3671088e+51
-2.3709551e+51
-2.376624e+51
-2.3737715e+51
-2.3768459e+51
-2.2174027e+51
-2.2174303e+51
-2.218925e+51
-2.2213673e+51
-2.2595918e+51
-2.2849054e+51
-2.3113929e+51
-2.312565e+51
-2.3192789e+51
-2.3244814e+51
-2.3252067e+51
-2.3302821e+51
-2.3329658e+51
-2.3336079e+51
-2.3365422e+51
-2.3414547e+51
-2.3391184e+51
-2.3398529e+51
-2.3477022e+51
-2.3442266e+51
-2.3462458e+51
-2.3520797e+51
-2.3533794e+51
-2.3506707e+51
-2.3645006e+51
-2.361992e+51
-2.3647679e+51
-2.3582499e+51
-2.3591238e+51
-2.3562478e+51
-2.4715577e+51
-2.4715923e+51
-2.462408e+51
-2.4623719e+51
-2.4529629e+51
-2.4530596e+51
-2.4194816e+51
-2.4196741e+51
-2.4276268e+51
-2.4275132e+51
-2.4199713e+51
-2.4206121e+51
-2.4284507e+51
-2.4278649e+51
-2.4445761e+51
-2.4362585e+51
-2.4357079e+51
-2.4440864e+51
-2.4354369e+51
-2.4354865e+51
-2.4438735e+51
-2.4438577e+51
-2.4129778e+51
-2.4052735e+51
-2.404568e+51
-2.4122811e+51
-2.3980409e+51
-2.3906389e+51
-2.3899292e+51
-2.3973292e+51
-2.3890193e+51
-2.3894296e+51
-2.396929e+51
-2.3965828e+51
-2.4119225e+51
-2.4041636e+51
-2.4038532e+51
-2.4116957e+51
-2.3882894e+51
-2.3882302e+51
-2.3957985e+51
-2.3957645e+51
-2.3882461e+51
-2.3886481e+51
-2.396166e+51
-2.3958031e+51
-2.4113027e+51
-2.4034171e+51
-2.4030627e+51
-2.4108913e+51
-2.4108269e+51
-2.4030563e+51
-2.4029764e+51
-2.4106965e+51
-2.4438225e+51
-2.4353513e+51
-2.4349503e+51
-2.4434118e+51
-2.4272843e+51
-2.4191583e+51
-2.4187431e+51
-2.426888e+51
-2.4183171e+51
-2.4185665e+51
-2.4266117e+51
-2.4262362e+51
-2.4430163e+51
-2.4345991e+51
-2.4341234e+51
-2.4424573e+51
-2.4596211e+51
-2.4592832e+51
-2.4649379e+51
-2.4645605e+51
-2.4642029e+51
-2.4637079e+51
-2.4588757e+51
-2.4583561e+51
-2.4514184e+51
-2.4522262e+51
-2.4602706e+51
-2.460111e+51
-2.4656616e+51
-2.4654484e+51
-2.4653565e+51
-2.4651977e+51
-2.4599964e+51
-2.4598413e+51
-2.4526988e+51
-2.4529474e+51
-2.4702338e+51
-2.469987e+51
-2.4746014e+51
-2.474854e+51
-2.479484e+51
-2.4842588e+51
-2.4839759e+51
-2.4792093e+51
-2.4742189e+51
-2.4698633e+51
-2.4744133e+51
-2.46969e+51
-2.4790008e+51
-2.483747e+51
-2.4787877e+51
-2.4835027e+51
-2.469424e+51
-2.4690174e+51
-2.4739767e+51
-2.4735737e+51
-2.4781292e+51
-2.4832554e+51
-2.4828386e+51
-2.4785433e+51
-2.4686767e+51
-2.4681953e+51
-2.4726909e+51
-2.4731805e+51
-2.4777356e+51
-2.4772516e+51
-2.4824439e+51
-2.4819676e+51
-2.4609095e+51
-2.4608916e+51
-2.4663751e+51
-2.4663402e+51
-2.4663408e+51
-2.4662982e+51
-2.4608277e+51
-2.4607541e+51
-2.4535393e+51
-2.4533779e+51
-2.4606922e+51
-2.4605939e+51
-2.4661978e+51
-2.4660664e+51
-2.4660087e+51
-2.4658754e+51
-2.4605259e+51
-2.4604097e+51
-2.4532655e+51
-2.4531396e+51
-2.4756098e+51
-2.4709915e+51
-2.4756498e+51
-2.4709401e+51
-2.4803007e+51
-2.4802611e+51
-2.4850865e+51
-2.4850515e+51
-2.4755303e+51
-2.4709519e+51
-2.4755672e+51
-2.4709182e+51
-2.4850217e+51
-2.4802213e+51
-2.480181e+51
-2.4849658e+51
-2.4753251e+51
-2.4708312e+51
-2.4754719e+51
-2.4706796e+51
-2.4849024e+51
-2.4801173e+51
-2.4799541e+51
-2.4847243e+51
-2.4750279e+51
-2.4705961e+51
-2.4751847e+51
-2.4704475e+51
-2.4845944e+51
-2.4798151e+51
-2.4796564e+51
-2.4844265e+51
-2.456282e+51
-2.45599e+51
-2.4614175e+51
-2.4610685e+51
-2.460865e+51
-2.4606314e+51
-2.4557737e+51
-2.4555536e+51
-2.4405545e+51
-2.4326137e+51
-2.4325551e+51
-2.4403304e+51
-2.4488438e+51
-2.4492171e+51
-2.4578481e+51
-2.4573492e+51
-2.4631478e+51
-2.4625852e+51
-2.4621927e+51
-2.4618013e+51
-2.4569562e+51
-2.4565905e+51
-2.4417123e+51
-2.4334949e+51
-2.4328451e+51
-2.4409295e+51
-2.4497271e+51
-2.4504563e+51
-2.4716193e+51
-2.4676632e+51
-2.4722145e+51
-2.4670588e+51
-2.47678e+51
-2.4814861e+51
-2.4808603e+51
-2.4761718e+51
-2.470667e+51
-2.4666352e+51
-2.471126e+51
-2.4662224e+51
-2.4256851e+51
-2.4178516e+51
-2.4173811e+51
-2.4251399e+51
-2.4176929e+51
-2.417401e+51
-2.4250533e+51
-2.4251541e+51
-2.4546523e+51
-2.4544421e+51
-2.4595009e+51
-2.4592326e+51
-2.4590406e+51
-2.458761e+51
-2.4542322e+51
-2.4539507e+51
-2.439596e+51
-2.4321276e+51
-2.4318482e+51
-2.4392549e+51
-2.4476149e+51
-2.4480212e+51
-2.4553317e+51
-2.4551234e+51
-2.4603526e+51
-2.4600919e+51
-2.4599428e+51
-2.4597622e+51
-2.4549808e+51
-2.4548318e+51
-2.4400767e+51
-2.4324069e+51
-2.4321978e+51
-2.4397661e+51
-2.4482747e+51
-2.4484965e+51
-2.4251105e+51
-2.4178117e+51
-2.4177708e+51
-2.4249926e+51
-2.4175466e+51
-2.4177849e+51
-2.424991e+51
-2.4247411e+51
-2.4106712e+51
-2.4033341e+51
-2.4033797e+51
-2.4106402e+51
-2.3961874e+51
-2.3887536e+51
-2.3889315e+51
-2.3963298e+51
-2.3889975e+51
-2.3890435e+51
-2.3963483e+51
-2.3962292e+51
-2.4106013e+51
-2.4033377e+51
-2.4031171e+51
-2.4103991e+51
-2.4102661e+51
-2.402614e+51
-2.40222e+51
-2.4098148e+51
-2.3954156e+51
-2.3880377e+51
-2.3876726e+51
-2.3950495e+51
-2.3883663e+51
-2.3878226e+51
-2.3952332e+51
-2.3958039e+51
-2.4098826e+51
-2.4023401e+51
-2.4028754e+51
-2.4103422e+51
-2.3830847e+51
-2.3751436e+51
-2.3743866e+51
-2.3823113e+51
-2.3670272e+51
-2.3581697e+51
-2.3576112e+51
-2.3663971e+51
-2.3564625e+51
-2.3570734e+51
-2.3658327e+51
-2.36525e+51
-2.3816935e+51
-2.3736926e+51
-2.3731523e+51
-2.3812477e+51
-2.258117e+51
-2.2125716e+51
-2.2097748e+51
-2.2558163e+51
-2.3043069e+51
-2.3049142e+51
-2.3226869e+51
-2.3220815e+51
-2.3064862e+51
-2.3086203e+51
-2.3250498e+51
-2.323898e+51
-2.3364132e+51
-2.3370837e+51
-2.348278e+51
-2.3477153e+51
-2.3471318e+51
-2.3355303e+51
-2.3350699e+51
-2.3466044e+51
-2.346114e+51
-2.3349368e+51
-2.3343421e+51
-2.3456534e+51
-2.2553498e+51
-2.3218774e+51
-2.3038881e+51
-2.3034523e+51
-2.3213345e+51
-2.2563875e+51
-2.3049969e+51
-2.3041373e+51
-2.3214347e+51
-2.32212e+51
-2.3455087e+51
-2.3339697e+51
-2.3346938e+51
-2.3459893e+51
-2.2093802e+51
-2.2110175e+51
-2.1486955e+51
-2.1478549e+51
-2.3808499e+51
-2.3726548e+51
-2.3722166e+51
-2.3804075e+51
-2.3645599e+51
-2.3557884e+51
-2.3553325e+51
-2.3641085e+51
-2.3557861e+51
-2.3553544e+51
-2.3641512e+51
-2.3645559e+51
-2.3804058e+51
-2.3722415e+51
-2.372559e+51
-2.3806222e+51
-2.2565764e+51
-2.2567172e+51
-2.2115778e+51
-2.2114006e+51
-2.2578493e+51
-2.2599426e+51
-2.2130972e+51
-2.2164134e+51
-2.1495958e+51
-2.1538039e+51
-2.3805229e+51
-2.3726337e+51
-2.372237e+51
-2.3801037e+51
-2.3646239e+51
-2.3558567e+51
-2.3556473e+51
-2.3643403e+51
-2.3554292e+51
-2.3642055e+51
-2.364732e+51
-2.3559827e+51
-2.380111e+51
-2.372152e+51
-2.3726771e+51
-2.3806735e+51
-2.3224274e+51
-2.3050954e+51
-2.3042545e+51
-2.321864e+51
-2.3349642e+51
-2.3460292e+51
-2.345823e+51
-2.3345214e+51
-2.3046826e+51
-2.3217361e+51
-2.3043291e+51
-2.3219983e+51
-2.3347125e+51
-2.3461265e+51
-2.3341464e+51
-2.3455165e+51
-2.3055392e+51
-2.3050617e+51
-2.3223432e+51
-2.3228663e+51
-2.3248172e+51
-2.3067251e+51
-2.3238006e+51
-2.3083092e+51
-2.3362873e+51
-2.3474248e+51
-2.3478179e+51
-2.3369719e+51
-2.3355262e+51
-2.346887e+51
-2.3350893e+51
-2.3465193e+51
-2.3563619e+51
-2.3651009e+51
-2.3653813e+51
-2.3566778e+51
-2.3570827e+51
-2.3656557e+51
-2.3658292e+51
-2.3573602e+51
-2.3736261e+51
-2.3735278e+51
-2.3814306e+51
-2.3814889e+51
-2.3732898e+51
-2.3730309e+51
-2.3810528e+51
-2.3812526e+51
-2.0664696e+51
-2.0625051e+51
-2.4281559e+51
-2.421905e+51
-2.4202858e+51
-2.4264666e+51
-2.4308109e+51
-2.424379e+51
-2.4231748e+51
-2.4295265e+51
-2.4079307e+51
-2.4093801e+51