/*--------------------------------*- C++ -*----------------------------------*\
  =========                 |
  \\      /  F ield         | OpenFOAM: The Open Source CFD Toolbox
   \\    /   O peration     | Website:  https://openfoam.org
    \\  /    A nd           | Version:  7
     \\/     M anipulation  |
\*---------------------------------------------------------------------------*/
FoamFile
{
    version     2.0;
    format      ascii;
    class       surfaceScalarField;
    location    "4000";
    object      phi;
}
// * * * * * * * * * * * * * * * * * * * * * * * * * * * * * * * * * * * * * //

dimensions      [0 3 -1 0 0 0 0];

internalField   nonuniform List<scalar> 
100464
(
1.0217237e+21
4.7486504e+21
3.8729845e+21
-9.5284809e+22
-2.4331167e+21
-1.7487879e+21
-1.9600499e+22
-5.6336418e+20
7.6430943e+20
1.0480695e+21
-9.0266859e+20
5.1423566e+21
-2.7369687e+21
-9.3463149e+22
-2.6657845e+21
4.697744e+21
-2.2679475e+20
-1.3801275e+22
-3.3747439e+19
8.4309063e+20
6.8461568e+20
-9.4702819e+20
-6.5509465e+20
-1.1352163e+22
7.2743005e+20
3.2563091e+20
-2.3518945e+21
5.1009608e+21
3.8124098e+21
-1.5684367e+21
-4.0428666e+19
1.2120165e+20
-1.7077492e+22
-5.0902512e+20
8.6823108e+20
-3.4840023e+20
7.5152746e+20
3.5245918e+20
-1.5793924e+22
-1.4458667e+22
6.6522272e+20
-6.5186519e+20
2.7055148e+20
8.0488571e+20
-9.8853832e+20
-3.7877121e+20
7.5188853e+20
1.2267544e+20
-5.9400147e+20
-1.7892648e+22
8.3098898e+20
-1.4691621e+22
-8.4632651e+19
6.9470331e+20
-6.0250593e+20
-9.2106593e+20
8.954196e+20
3.0664779e+21
-3.4472903e+19
7.3277186e+20
-4.3307396e+21
2.6008394e+18
3.106865e+19
-6.3112043e+20
9.0450201e+19
-3.2831285e+21
-1.315773e+20
-4.1258961e+21
3.7204573e+19
-7.5441294e+19
7.0175464e+20
-4.7279744e+20
-1.8025523e+22
8.7966905e+20
-6.3517851e+20
4.9654822e+21
-2.835012e+21
-2.8387512e+21
5.0890102e+21
1.3332555e+22
-1.6657984e+22
9.8997064e+20
-5.5047347e+20
8.577024e+20
-5.9178842e+20
-9.7222059e+20
8.8955328e+20
8.4771983e+20
-1.0086618e+21
3.4549659e+18
-4.4734145e+21
1.2390538e+20
-1.8131066e+20
-2.4136675e+20
1.8526014e+20
-4.1408382e+21
-2.179374e+20
1.9618789e+20
-2.0157566e+20
1.7712389e+19
-3.3356302e+21
-4.5176763e+19
-2.2664957e+20
-1.8233482e+20
1.7446831e+20
1.270456e+20
-2.8937425e+21
2.6045802e+18
6.729948e+19
-4.1181363e+21
-6.9921125e+19
1.5756597e+20
-2.544345e+20
-1.8917219e+20
1.2414286e+20
-4.0665098e+21
-6.689203e+19
1.3226603e+22
9.1824247e+19
-8.311333e+19
-1.4495633e+22
-1.0915658e+21
-5.5631896e+20
1.0605112e+20
-1.7068959e+20
1.1404486e+21
8.8278354e+20
-1.5219678e+20
-9.864196e+21
1.0455885e+21
4.9041785e+20
-1.4028265e+22
3.0413104e+21
-2.5387648e+19
1.9818236e+17
-3.5733644e+21
-1.6639948e+20
-1.1481141e+20
1.6997575e+20
1.5945632e+20
-2.4796978e+19
-2.7207683e+19
-2.5285184e+20
1.477712e+20
-1.7780649e+20
1.262985e+20
2.6267545e+21
3.956344e+19
-3.4188757e+21
3.886403e+19
1.0378162e+20
-1.3798741e+22
8.3844952e+20
8.2400632e+20
-1.0501739e+21
-9.776642e+20
-1.4248194e+22
1.2301413e+19
8.4254786e+20
8.6980655e+20
-1.0316768e+21
-9.9851879e+20
7.2822288e+19
-8.6190499e+19
-1.808359e+22
8.7924038e+20
-5.6828477e+20
-5.7541272e+20
9.6433551e+20
8.7454487e+20
-6.0707345e+20
-5.6686882e+20
-1.7364052e+22
8.7359944e+20
-3.3198131e+21
-1.7043059e+20
1.3383506e+20
-6.2732868e+19
-2.3165284e+20
1.6325592e+20
-4.1376242e+21
-1.7721696e+20
1.3222419e+20
-8.6133952e+19
1.5043164e+20
-2.5692306e+20
3.0533989e+21
-1.060034e+20
1.6400631e+20
-2.8888094e+19
1.7402071e+20
-1.6803864e+20
-3.6429322e+21
-1.3353634e+22
8.1187455e+20
-3.3311091e+20
4.043002e+20
1.0879354e+21
-3.2716385e+20
-1.6800565e+20
1.2980727e+20
-6.2784732e+19
-2.5523415e+20
1.4184564e+20
-1.4622066e+22
-1.7190603e+21
6.1512151e+20
-9.8628313e+20
8.3185426e+20
-1.8358642e+22
1.1851389e+21
-3.0364909e+21
-3.1212132e+19
-5.7941485e+20
1.1083281e+19
-4.4987028e+19
-4.3046501e+21
7.587361e+20
-4.809332e+19
3.162951e+21
-3.9229097e+21
-1.6356429e+20
-4.252802e+19
-1.0215078e+20
3.414085e+18
3.3694784e+21
-6.5280864e+19
-4.2377684e+21
-5.0110546e+19
2.1303263e+19
1.3400137e+20
-1.5870668e+20
-3.8967098e+21
5.1074351e+18
-2.3955318e+20
1.5637005e+20
-2.9469974e+21
2.8148708e+19
-6.9003251e+20
5.98747e+18
2.9244664e+19
4.8346903e+20
-5.0207678e+19
-3.8822988e+21
-1.3543438e+22
-1.2739182e+18
7.3037718e+20
-2.9701644e+20
-4.0853655e+20
1.0170682e+21
-2.9620485e+21
-3.9876303e+19
-1.3165355e+19
3.2502518e+18
-3.6150168e+21
4.3785757e+19
-1.8159349e+20
-9.3945854e+20
-1.5349935e+22
1.3147256e+22
-1.4940134e+22
-1.3105737e+21
1.1324287e+21
-3.1333715e+20
-2.51409e+20
1.1153781e+21
-3.2435769e+21
6.6080984e+18
4.391026e+21
1.0837835e+20
-1.9364632e+20
-2.7278045e+20
1.5408768e+20
2.620032e+19
-3.7708473e+21
1.2299313e+20
-1.3808848e+20
1.5874987e+20
-1.898062e+20
-2.9641919e+21
4.027561e+21
-2.7831426e+20
-2.5777676e+20
1.4739108e+20
1.6243526e+20
-3.4909283e+21
-1.8226685e+20
1.7414076e+20
-1.917074e+20
1.6118096e+20
3.4915899e+21
2.3572549e+19
-2.0501395e+20
9.755712e+19
1.4507782e+20
-2.9754085e+20
6.9300742e+18
1.0254308e+20
-1.9731768e+20
-2.6912539e+20
1.6254884e+20
-3.2071196e+21
1.7702261e+20
-2.5596661e+20
1.8011444e+20
-2.2541483e+20
1.4294913e+20
1.6235699e+20
-2.9088092e+20
-2.489937e+20
-6.5627527e+20
-1.2759992e+19
-1.0082382e+19
-2.3243828e+19
-3.646922e+19
-9.3657908e+20
7.628557e+20
-2.9422535e+18
-9.808487e+20
-4.6411396e+19
2.163968e+19
3.5318783e+19
-5.4221891e+19
-1.0536576e+19
-4.5365423e+19
2.4540525e+19
-4.0343242e+19
3.7851122e+19
7.0328578e+20
1.0171218e+18
-9.1470048e+20
-4.6546508e+19
3.7741799e+19
-4.2228974e+19
4.0552092e+19
-3.9173651e+19
-3.980553e+19
3.9182899e+19
4.0169383e+19
-8.9204156e+20
-4.1004903e+19
-4.5144281e+19
3.5997807e+19
4.1906253e+19
2.0857627e+19
7.4688825e+20
-9.5594846e+20
-8.8162458e+18
-5.1028144e+19
3.4735436e+19
2.6531588e+19
-3.9868793e+19
6.7373242e+20
-9.7620997e+20
-2.9429791e+19
9.4335686e+18
-3.1544016e+18
2.4803952e+19
3.2988809e+19
-4.9709152e+19
-3.8485091e+19
-1.7791041e+19
-7.5934668e+20
1.3612286e+19
-1.8066079e+19
-5.3912834e+19
3.4140007e+19
-4.093166e+19
2.6123123e+19
3.2202164e+19
-9.7183825e+20
-3.2621825e+19
-5.7553795e+19
-4.3129086e+19
2.5237463e+19
3.3922639e+19
6.8840033e+20
-9.8616909e+20
-3.6417851e+19
-1.7830221e+19
1.3693873e+22
-3.8950983e+21
-6.1471901e+21
2.8768068e+21
2.8781976e+21
3.0018494e+21
-5.8878246e+20
-1.1878197e+20
2.8339636e+21
2.6545333e+21
-5.9025821e+19
2.2892667e+19
8.7718469e+19
-1.7381204e+20
3.6812456e+19
-3.9971972e+19
2.4389788e+20
-4.127581e+19
1.9596838e+20
-2.1518031e+21
2.5377426e+20
1.8206118e+20
5.4803979e+18
7.2630326e+20
-2.0673228e+19
-8.7300184e+20
-4.5292544e+19
3.7879704e+19
3.5922065e+19
-3.3016765e+19
6.5326969e+20
-5.1989449e+18
-8.6340495e+20
4.0613273e+18
9.5975111e+20
-2.8597079e+19
-5.8852991e+19
3.3124715e+19
2.8965211e+19
-4.2172827e+19
9.7607801e+20
4.7159089e+18
7.6159048e+20
3.0360765e+19
-3.2906551e+19
-6.2111857e+19
3.0161918e+19
2.5479513e+19
-4.5674598e+19
2.1851514e+19
-3.4412966e+19
3.0311673e+19
-6.0791476e+19
-4.429012e+19
2.485521e+19
6.8863214e+20
-2.8005324e+19
-1.957959e+19
3.1948102e+19
-1.4437314e+22
8.4979424e+20
-1.0458766e+21
-1.0531664e+21
8.3355033e+20
-4.9675185e+19
4.9687249e+19
-4.1662288e+21
-2.363876e+20
-2.4959121e+20
1.6044041e+20
1.5830903e+20
-4.22071e+21
-2.3588271e+20
-2.3858115e+20
1.6342987e+20
1.7516244e+20
-2.3225952e+20
-2.3476118e+20
1.6277507e+20
-4.2725359e+21
-1.4128069e+22
8.6111279e+20
8.147295e+20
-1.0255937e+21
-1.0610976e+21
1.454506e+20
9.2029026e+20
-5.8307388e+20
-5.741887e+20
-1.8486832e+22
9.4377475e+20
-1.8022724e+22
9.2858871e+20
-6.1050449e+20
-5.6567718e+20
9.1518859e+20
6.0537187e+19
-3.2098387e+21
-7.630678e+19
1.7482357e+20
1.5418879e+20
-2.3796582e+20
-2.4948768e+20
-3.1119263e+21
1.7061997e+20
1.5667101e+20
-2.5615801e+20
-2.2674944e+20
7.0257982e+19
-1.0708734e+20
-4.0422449e+21
-2.4821558e+20
-2.595166e+20
1.5272091e+20
1.7407398e+20
-3.9140456e+21
-2.3856704e+20
-2.6736559e+20
1.4853904e+20
1.6597316e+20
5.3074532e+19
-3.1846466e+21
-4.8393021e+19
1.7209089e+20
1.5573588e+20
-2.4962244e+20
-2.4366909e+20
-3.1381867e+21
1.5652961e+20
1.6428953e+20
-2.3014768e+20
-2.5156223e+20
3.7623505e+19
-3.987706e+21
-7.7322471e+19
-2.5897807e+20
-2.5456926e+20
1.5562303e+20
1.6900733e+20
-4.0630187e+21
-2.3312263e+20
-2.5466321e+20
1.6800909e+20
1.7662661e+20
-1.4618774e+20
-1.4059344e+22
8.8189979e+19
-4.5191223e+20
1.168963e+21
1.2050204e+21
-5.2273049e+20
-2.9246505e+21
3.8899309e+19
-8.4522364e+19
-2.3701765e+20
-2.446095e+20
1.62084e+20
1.8135202e+20
6.7441335e+19
-4.2324428e+19
-3.617214e+21
-1.4871713e+20
-1.4185212e+20
1.8694547e+20
2.027865e+20
3.0378654e+21
7.8863114e+19
-3.7323114e+21
-1.6099767e+20
2.0492781e+20
-1.4745078e+20
2.1113304e+20
1.1465348e+20
1.6866663e+20
-2.4815429e+20
1.728347e+20
-2.2991862e+20
-2.9706797e+21
5.5961682e+19
-2.3417402e+20
-2.4930556e+20
1.8381284e+20
1.6133874e+20
6.1338689e+19
-1.5243014e+20
-1.6431662e+20
1.8242537e+20
2.0286794e+20
-3.6287746e+21
2.8619783e+21
-1.5477508e+20
-1.682229e+20
1.7913968e+20
1.8704639e+20
-3.4395839e+21
-1.3297163e+22
1.1480619e+21
1.0870167e+21
-4.1703141e+20
-4.4120792e+20
-2.3838844e+20
-2.5849818e+20
1.6073631e+20
1.508594e+20
-6.6717466e+20
-1.526673e+22
7.2310459e+20
-2.4108574e+21
-1.4992835e+22
-2.0785111e+21
7.3600537e+20
-9.4377925e+20
2.9959272e+19
-3.5520817e+19
-3.2200741e+19
-4.9678607e+19
3.4132413e+19
2.9110139e+19
-3.4236893e+19
-2.7550727e+19
-4.9578631e+19
3.2633902e+19
-7.5117314e+20
-3.7898701e+19
2.8640465e+19
-3.2038039e+19
3.3196007e+19
-5.1904137e+19
-9.6798765e+20
-4.1383087e+19
2.7111822e+19
-3.4938164e+19
3.0208691e+19
-5.7525428e+19
-7.3184164e+20
9.7305878e+20
2.7847133e+19
-4.3045292e+19
-2.1092668e+19
3.3480954e+19
-5.9670367e+19
3.4295457e+19
-3.2582425e+19
-1.9420373e+19
-8.7566689e+20
3.5670489e+19
-4.7375169e+19
-2.7232141e+21
-5.8989919e+19
1.9354416e+20
1.0680104e+20
2.3590928e+20
-5.5271983e+19
-5.9706344e+19
1.9323932e+20
7.6943475e+20
2.6101743e+19
-4.4720966e+19
-2.9437449e+19
-6.1270865e+19
2.9712271e+19
-4.3976521e+19
2.5033546e+19
-2.5399318e+19
-6.1011849e+19
2.9067406e+19
1.7786542e+22
8.1034194e+20
-6.4372972e+20
-1.7330927e+22
4.1861374e+20
7.4562845e+20
-1.0018369e+21
7.7869466e+20
-9.3986292e+20
9.2744908e+20
-1.7739488e+22
7.3964864e+20
9.0396299e+20
-1.0074348e+21
-3.2978635e+21
-1.1284561e+20
-7.0346406e+19
-1.3104552e+20
-4.0923275e+21
-1.2441948e+20
3.7775727e+21
-3.6438994e+21
-1.7654346e+20
1.1765856e+20
1.1866816e+20
-8.3954533e+19
-2.8307428e+20
1.214015e+20
-1.7257192e+20
-5.0587622e+19
-2.6030746e+20
1.334974e+20
3.3698608e+21
-9.3313297e+19
-5.0320241e+19
-4.2162002e+21
-4.7453306e+18
-3.6868996e+21
-2.5697964e+20
7.4233638e+18
-2.2975354e+20
1.6471222e+20
1.4572917e+20
7.2581678e+20
-3.494505e+19
2.898264e+19
-9.3090649e+20
-4.2540872e+19
3.0171721e+19
-5.2600774e+19
2.933273e+19
-3.2644183e+19
-2.593212e+19
-4.6914576e+19
3.1943884e+19
-3.0736789e+21
-9.0859773e+19
-1.1145791e+20
1.5952729e+19
-1.4059279e+20
-3.6429749e+21
-2.374763e+21
9.1211218e+19
-8.5402512e+20
-1.4343378e+19
1.1804453e+20
-3.0061613e+21
2.0019126e+20
1.6147064e+19
2.8316664e+21
-3.2333304e+21
2.8295855e+19
8.2877506e+19
1.7325569e+20
1.5167426e+20
-3.4722105e+21
1.2612699e+20
-1.6331641e+20
-9.0346938e+19
-2.6294464e+20
1.1476821e+20
1.6382138e+20
-9.2548447e+19
-3.4209769e+21
-5.6709648e+19
1.5549593e+20
-1.6155331e+20
-1.4250382e+22
-7.6633817e+20
1.8510504e+21
3.1192834e+21
3.2339935e+21
-3.6654687e+20
1.3725534e+22
-8.5344576e+21
3.0517233e+21
2.8857022e+21
-5.2544725e+20
2.8924846e+21
2.755381e+21
-2.7529285e+21
5.8626997e+19
-6.8330676e+19
1.5766166e+20
2.2112062e+20
-8.1311822e+19
-2.1460473e+19
3.5214676e+19
2.6200093e+21
1.5716905e+19
-7.3314886e+19
2.4323296e+20
2.3128861e+20
-6.1307822e+19
-6.7794613e+20
-1.5044134e+19
9.6676673e+20
-3.9270569e+19
-7.4262845e+18
-9.7710471e+20
-5.037744e+19
7.9517036e+20
-9.6284468e+20
-2.2528404e+19
-5.6772077e+19
1.2691522e+19
2.1665066e+19
-6.7587882e+19
7.1780094e+18
1.0204971e+21
1.4052406e+19
-5.7630499e+19
-7.1580591e+19
2.1697934e+19
-6.8524508e+20
1.7861497e+19
-2.2906264e+19
1.4318013e+19
-3.6654983e+19
-8.9354466e+20
-6.9570141e+20
-2.3150181e+19
-6.7381274e+19
-2.4821841e+18
-8.3463627e+20
-3.4070733e+19
2.5958245e+19
7.4307292e+20
-9.7259021e+20
-6.7972797e+19
2.311255e+19
2.3252137e+19
-7.5675039e+19
7.2189932e+20
-9.1901559e+20
2.4663663e+19
3.6807592e+19
-7.1695822e+19
-5.7383865e+19
2.849778e+19
9.6004276e+20
-7.4349149e+19
2.0258105e+19
2.8334131e+19
-6.5141202e+19
9.2839725e+20
-6.2077011e+19
2.847398e+19
3.5989622e+19
-5.2364182e+19
7.5895616e+20
1.8762112e+19
-9.1564907e+20
1.9167227e+19
-4.4025897e+19
-5.6055846e+19
3.4096741e+19
1.9508893e+19
1.9602157e+19
-5.5516507e+19
-7.2288073e+19
2.6050302e+19
7.0014273e+20
-8.5349791e+20
-5.9966051e+19
2.8816792e+19
-4.8211335e+19
3.9097549e+19
-7.3235436e+19
2.5641362e+19
3.7164504e+19
-5.6350407e+19
6.7502488e+20
-2.9716968e+19
-6.0098326e+19
-1.8737534e+19
9.4770988e+20
-3.8731438e+19
-7.8853926e+20
1.0010463e+21
1.1795121e+18
-5.599121e+19
2.4525298e+19
1.5216993e+19
-7.1096721e+19
6.704732e+18
1.1950701e+19
1.8930215e+19
-5.8387714e+19
-7.449766e+19
-6.5758701e+20
-1.8972474e+19
-3.6074713e+19
-2.8321786e+19
-5.1444713e+19
7.7117764e+20
9.2964141e+18
-5.3664062e+19
1.4304e+19
-6.3814542e+19
2.6300126e+19
1.6342032e+18
-5.136873e+19
1.6191185e+19
2.8279104e+19
-6.08302e+19
-7.1214265e+20
2.8588417e+18
-5.3333226e+19
3.2403207e+19
3.8433959e+19
-4.426347e+19
1.1020597e+19
-9.2544928e+20
-5.8525665e+19
2.7200511e+19
3.5337884e+19
-4.8396438e+19
-7.0005272e+20
4.0649869e+19
-4.2581896e+19
3.5479258e+19
-4.5716926e+19
-9.0118602e+20
3.8354782e+19
-4.6435948e+19
3.4688969e+19
-4.868464e+19
1.328179e+19
-7.3213994e+20
-6.589879e+19
-5.2903725e+19
2.3830146e+19
3.2510281e+19
-7.1416776e+20
-5.0446846e+19
-5.0042977e+19
3.4902038e+19
3.6142441e+19
2.4790353e+19
-7.2953431e+19
2.0767608e+19
-5.9379646e+19
3.0501938e+19
3.1167131e+19
-5.7571084e+19
3.4869435e+19
-5.1061082e+19
1.4475352e+20
-6.3285933e+18
-1.2451489e+19
-2.0732975e+20
-4.5292821e+18
2.0670039e+20
-6.7951679e+18
-1.6420143e+20
2.0079747e+20
-1.0729034e+19
8.3723462e+18
5.7335703e+18
-6.5230778e+18
-2.6601964e+18
-4.7186785e+18
-2.2006303e+20
6.9610274e+18
-7.4765921e+18
-7.4326706e+18
7.978123e+18
4.3097916e+18
1.5791975e+20
-2.7739787e+18
-8.8280601e+18
-8.428083e+18
5.5078142e+18
7.7249544e+18
-1.4383563e+20
-3.9314018e+18
-4.2238133e+18
-5.8128416e+18
-4.3185812e+18
-8.1491414e+18
6.1640418e+18
7.9466257e+18
-8.9395915e+18
1.4253541e+20
-2.3419151e+18
-1.9820418e+20
1.169121e+19
-6.3756494e+18
-6.7428003e+18
8.172835e+18
-5.0936241e+18
1.7200215e+20
7.3597611e+18
7.6685875e+18
-7.8499275e+18
-4.5386838e+18
1.3884346e+20
-3.6979192e+18
-1.8037312e+20
-8.0150308e+18
8.7364099e+18
8.0659824e+18
-8.1305893e+18
1.7702258e+20
-4.4500999e+18
8.0017945e+18
8.7593421e+18
-7.8420725e+18
-7.1895274e+18
4.0545671e+18
1.3613539e+20
-4.82173e+18
-6.865882e+18
8.7958678e+18
7.9282484e+18
-7.3774055e+18
1.339798e+20
-7.6959705e+18
-7.6032505e+18
7.4544493e+18
7.3422234e+18
-4.2552287e+18
-7.773097e+18
-7.7658233e+18
7.9674011e+18
7.7002186e+18
8.8331617e+18
-6.9556979e+18
-7.5180393e+18
7.8402039e+18
-1.7880748e+20
-6.6082221e+18
9.0472986e+18
8.566216e+18
-7.2885928e+18
-3.7072233e+18
1.417691e+20
-1.8489737e+20
-7.1556562e+18
9.208122e+18
8.6669945e+18
-8.5866939e+18
1.4695349e+20
-1.9460833e+20
-8.2089103e+18
8.7261503e+18
3.4283164e+18
-9.113349e+18
2.5894628e+18
4.069202e+18
9.2675109e+18
-1.3013838e+19
-9.3897708e+18
9.058835e+18
9.0121168e+18
-8.0989444e+18
-6.9647599e+18
1.5190737e+20
1.5507769e+18
-1.9555588e+20
3.8884302e+17
-9.3190494e+18
4.2229934e+17
1.9027315e+20
3.2026737e+18
-7.2551538e+18
-1.555e+20
2.1813959e+20
-5.7263509e+18
-2.2204969e+20
-7.289094e+18
-1.3719583e+18
-1.5184902e+20
-7.4481729e+18
-1.480103e+20
2.8690743e+18
-9.0509413e+18
9.5053752e+16
1.352127e+18
-8.8933845e+18
-6.3363474e+18
1.5598233e+20
4.2724518e+18
-2.001152e+20
-4.6805927e+18
-9.3716532e+18
2.9915339e+18
4.374155e+16
-8.4687084e+18
1.5777256e+20
-2.2487719e+20
-7.4531985e+18
-6.5219718e+18
6.5296116e+18
1.6019551e+20
-2.059847e+20
-1.1094831e+19
-7.1992268e+18
1.611313e+20
-2.3113944e+20
-7.9743585e+18
-4.4037213e+18
-6.9928351e+18
-5.3727771e+18
-5.0279398e+18
1.3099841e+22
1.3295132e+22
-5.4674843e+21
-1.8497507e+21
2.8876709e+21
3.097432e+21
3.7655456e+20
-8.3394954e+20
2.7775584e+21
2.5972848e+21
6.9198362e+20
6.9809713e+20
7.0888875e+20
-2.8394684e+19
1.268162e+20
6.6458605e+20
6.4024417e+20
-1.7441392e+19
4.4526532e+18
2.4756583e+19
-3.7158372e+19
-1.6636386e+18
-2.0570168e+19
4.928104e+19
4.0108704e+19
-1.8857084e+19
5.5423041e+20
2.6159729e+19
4.3179747e+19
1.601473e+20
5.737401e+18
-1.2770265e+19
-1.9771275e+20
-6.9413484e+17
5.3548177e+18
2.1123882e+20
-1.592181e+19
-2.6447265e+18
-1.6671954e+20
2.4418289e+20
-1.8909475e+18
-4.3468975e+18
-2.2223439e+20
1.6896445e+20
8.813316e+18
-1.8894369e+19
-6.4974289e+18
8.2239126e+18
2.1622732e+20
-1.5056769e+19
-7.3052036e+18
-1.7431959e+20
2.448521e+20
-5.4961615e+18
-6.5415115e+18
1.6891321e+20
8.2775054e+18
-1.439015e+19
-8.684964e+18
7.4513262e+18
2.1029293e+20
-1.1987673e+19
-6.6813421e+18
-1.7105231e+20
2.3710991e+20
-7.0249422e+18
-8.3182725e+18
-1.6431809e+20
8.6940444e+18
-1.301477e+19
-7.0340919e+18
8.3784443e+18
-1.5218379e+19
-7.9766117e+18
1.6505222e+20
-7.8304714e+18
-7.5044051e+18
-3.2173247e+21
3.9486744e+19
-2.4802689e+20
-2.3567108e+20
1.6222322e+20
1.6820874e+20
2.1798587e+19
-4.0828197e+21
1.7312822e+20
-2.3746534e+20
-2.5604615e+20
1.6954498e+20
3.1484957e+21
6.6353308e+19
-4.0631423e+21
-2.4774565e+20
-2.5826617e+20
1.6661875e+20
1.563186e+20
6.4472847e+19
1.4579679e+20
-2.5665621e+20
-2.438605e+20
1.4555144e+20
-1.2739266e+19
6.938701e+20
1.2383374e+19
-8.803918e+20
3.0226826e+19
2.9508883e+19
-5.3115752e+19
-5.6130011e+19
7.0693711e+20
-2.0329576e+19
-9.0133777e+20
2.9346584e+19
3.1982927e+19
-5.4701802e+19
-5.4227914e+19
1.2683828e+19
-1.8398289e+19
-4.8305792e+19
3.2172832e+19
-4.7406884e+19
3.532636e+19
1.1914885e+19
-4.9074985e+19
3.3107483e+19
-4.5960827e+19
3.3288123e+19
1.3153981e+19
7.0496992e+20
-1.2305508e+19
-8.9767064e+20
3.0720526e+19
3.2815777e+19
-5.3719393e+19
-5.3846962e+19
7.1376843e+20
-9.1107927e+20
3.0313671e+19
3.1275664e+19
-5.6575704e+19
-5.3459418e+19
1.3463433e+19
-4.6764646e+19
3.3441788e+19
-4.6375895e+19
3.647112e+19
-4.8709832e+19
3.4486692e+19
-4.6089788e+19
3.4977375e+19
-1.2753211e+19
1.6656357e+19
3.1287932e+19
3.169988e+19
-9.0734762e+20
-5.2667741e+19
-5.4852346e+19
7.0767157e+20
3.0454867e+19
3.3133519e+19
-9.0024165e+20
-5.3360806e+19
-5.2788452e+19
-4.7411646e+19
3.2767941e+19
-4.7111661e+19
5.0964608e+19
-3.238151e+21
1.6839818e+20
1.6089187e+20
-2.4069871e+20
-2.4835466e+20
-1.5852923e+19
3.1392181e+19
3.1967821e+19
-8.8221615e+20
-5.1198878e+19
-5.4191359e+19
3.0015958e+19
3.2774106e+19
-9.0909093e+20
-5.3766159e+19
-5.366781e+19
-3.1214813e+21
1.5958085e+20
1.6419587e+20
-2.4037128e+20
-2.3804363e+20
-4.1497476e+19
-3.9968228e+21
1.5895057e+20
-2.6088571e+20
-2.4334434e+20
1.5920277e+20
-4.119769e+21
1.6981722e+20
-2.4145679e+20
-2.5344025e+20
1.7045624e+20
-2.9974284e+21
1.9111304e+19
1.7376678e+20
-2.3987545e+20
-2.3913548e+20
1.8039981e+20
3.5636507e+19
-3.6774898e+21
-1.4262071e+20
-1.4818602e+20
2.0143869e+20
2.0155462e+20
3.0164387e+21
6.2228406e+19
2.1333656e+20
-1.5383033e+20
-1.4477894e+20
2.0823049e+20
-3.7401765e+21
3.3117592e+19
-1.4468411e+22
1.1896254e+21
1.2198689e+21
-4.9993702e+20
-5.7509104e+20
6.5728867e+19
1.7008366e+20
-2.4643539e+20
-2.3731973e+20
1.6412529e+20
-1.3967775e+22
1.1975158e+21
1.1664241e+21
-5.209145e+20
-4.8011521e+20
-3.0438927e+21
4.7780175e+19
1.7264278e+20
-2.4246364e+20
-2.4098799e+20
1.814703e+20
6.5406897e+19
-3.7672033e+21
-1.5301314e+20
1.99727e+20
-1.4852321e+20
2.1143736e+20
2.9711663e+21
-3.6261452e+21
-1.5511062e+20
-1.4446733e+20
2.064827e+20
2.054801e+20
-2.4705124e+20
-2.3170059e+20
1.6640349e+20
1.6513824e+20
5.4843152e+20
-1.5326007e+22
-2.6176912e+21
-1.5717186e+22
-2.8476536e+21
-2.4428658e+19
-7.0375438e+20
3.2939698e+19
3.23251e+19
-5.3012757e+19
-4.7459324e+19
3.557277e+19
-6.9265213e+20
-2.6719737e+19
2.9776304e+19
-5.1830739e+19
-4.8483024e+19
3.5456432e+19
-2.5356793e+19
3.7390265e+19
-9.1936995e+20
-4.869947e+19
-5.4392278e+19
3.2507255e+19
3.6200866e+19
-9.0104643e+20
-3.0105922e+19
-4.9856791e+19
-5.3244608e+19
2.9870506e+19
3.6886713e+19
-2.3276746e+19
-6.9421511e+20
3.3320183e+19
-5.1419039e+19
-4.372149e+19
3.85211e+19
-6.9765449e+20
3.101608e+19
-5.0686918e+19
-4.7083771e+19
3.7165509e+19
2.8085215e+19
-9.1059253e+20
3.1555126e+19
-5.3527122e+19
-4.9280135e+19
3.7337256e+19
-8.9969163e+20
-4.5314385e+19
-5.3182837e+19
3.4301876e+19
3.8806969e+19
-2.7339963e+19
7.2010693e+20
3.7915761e+19
-9.3931175e+20
-5.2406602e+19
-5.8080143e+19
3.3711486e+19
3.7188812e+19
7.0711613e+20
-2.9872596e+19
-9.2080075e+20
-5.4073185e+19
-5.6848993e+19
3.0858116e+19
3.676479e+19
2.6051954e+19
-3.0280107e+19
-5.3637888e+19
3.0668986e+19
3.6565758e+19
-5.0578049e+19
3.4898232e+19
-4.9117903e+19
-5.4820806e+19
3.3258435e+19
3.6644986e+19
-2.8531622e+19
7.0913221e+20
-9.1514438e+20
-5.058003e+19
-5.8787552e+19
3.2618799e+19
3.7787491e+19
7.1312561e+20
-9.2650167e+20
-5.3767756e+19
-5.8318624e+19
3.0177281e+19
3.7303728e+19
2.3741843e+19
3.0243874e+19
-5.5229988e+19
-5.0195548e+19
3.7410223e+19
3.2381482e+19
-5.5427279e+19
-4.7283754e+19
3.7447166e+19
-1.7721707e+19
-7.0765676e+20
2.3491569e+19
3.2998967e+19
-5.1796582e+19
-4.8682293e+19
3.4060449e+19
-6.9746119e+20
-1.8436469e+19
-5.0101984e+19
-5.1798029e+19
3.0646718e+19
3.50602e+19
-4.6943614e+18
-1.9077962e+20
-1.2364296e+19
1.6391571e+19
-9.056704e+20
-1.9916871e+19
-5.1593562e+19
-5.2888117e+19
3.1147134e+19
3.5446859e+19
2.4344013e+19
-9.2243305e+20
3.2383288e+19
-5.496814e+19
-4.9903328e+19
3.5643082e+19
1.9217036e+19
-7.0095371e+20
3.0180397e+19
-5.2376967e+19
-4.9382398e+19
3.465031e+19
-6.9208668e+20
-4.7223086e+19
-5.2591244e+19
3.1864819e+19
3.3883282e+19
-2.1885458e+19
-8.9734527e+20
-4.7975599e+19
-5.3493232e+19
3.2483638e+19
3.5875696e+19
-9.1291635e+20
-5.047167e+19
-5.3298764e+19
3.0444416e+19
3.6185028e+19
1.5054423e+19
7.1062352e+20
-9.1881562e+20
-2.185792e+19
3.1985145e+19
-5.6913412e+19
-5.5321419e+19
3.6267424e+19
7.2079817e+20
2.3246881e+19
-9.41176e+20
-5.4597809e+19
-5.7876455e+19
3.4812193e+19
3.5278325e+19
1.4784078e+19
-2.045732e+19
-5.1616141e+19
-5.107458e+19
3.2661602e+19
3.6278612e+19
2.0665264e+19
-5.4854086e+19
3.3183862e+19
3.4427566e+19
-5.1266014e+19
-2.1417241e+19
6.9892659e+20
-9.0628224e+20
-5.1847719e+19
-5.4223771e+19
3.6273188e+19
3.5576039e+19
7.0891911e+20
-9.2322064e+20
-5.4472076e+19
-5.4139163e+19
3.6676385e+19
3.3402882e+19
2.0042951e+19
-5.2772546e+19
3.1860499e+19
3.6106732e+19
-5.0560484e+19
-5.2891805e+19
3.3710808e+19
3.5329486e+19
-4.817772e+19
2.875562e+21
-8.4921682e+19
-3.1436706e+21
1.2129623e+20
-2.20177e+20
3.3591075e+19
5.3257676e+18
-6.5268952e+19
2.7020648e+20
2.5595159e+20
-7.2494074e+19
-2.8821687e+21
9.5335118e+18
2.6099472e+20
2.6096388e+20
-7.7488962e+19
-6.5533622e+19
-1.4693928e+20
-3.1547253e+21
-1.881556e+20
-1.4036822e+19
7.1978332e+20
-9.1425106e+20
1.2438319e+19
-5.681856e+19
-5.9504016e+19
3.8357144e+19
3.7014089e+19
7.0767535e+20
-8.9642179e+20
-2.6454366e+19
-5.721761e+19
-5.8589027e+19
3.4074449e+19
3.8286728e+19
1.457965e+19
-2.1387423e+19
-5.543117e+19
-5.7053048e+19
3.2982872e+19
3.7252888e+19
1.8462791e+19
3.4509147e+19
-5.8568425e+19
-5.5196419e+19
3.5331922e+19
1.13842e+19
6.7100459e+20
-1.3834965e+19
-8.1820741e+20
-4.2752537e+19
4.0352724e+19
-4.1408281e+19
4.4744726e+19
6.8412403e+20
2.513247e+19
-8.3875116e+20
4.3916781e+19
-4.5111143e+19
4.1763863e+19
-4.1542714e+19
9.8039648e+18
-1.9588139e+19
-5.4523002e+19
-5.3325122e+19
3.7557723e+19
4.1602839e+19
1.3151992e+19
3.8708595e+19
-5.6477803e+19
-5.2790814e+19
3.9871476e+19
7.0538532e+20
2.5130351e+19
-8.6777956e+20
-4.4678686e+19
4.0339411e+19
4.8416959e+19
-4.2678858e+19
2.0074295e+19
9.2939035e+20
3.830058e+19
-5.423393e+19
-5.2710689e+19
4.264455e+19
6.958179e+20
2.9288185e+19
-8.4806446e+20
-4.6290804e+19
4.1372702e+19
4.7041636e+19
-4.1485469e+19
9.1699384e+20
3.5636448e+19
-5.0385993e+19
-5.5841328e+19
3.9140939e+19
4.1481357e+19
-7.1566953e+20
1.8588345e+19
3.5570458e+19
-5.5853722e+19
-5.5365569e+19
3.6638847e+19
2.0101709e+19
3.3980319e+19
-5.6922715e+19
-5.6378728e+19
3.7224264e+19
-7.0804119e+20
3.1491181e+19
3.6998386e+19
-5.7516399e+19
-5.319846e+19
3.5407289e+19
3.9826583e+19
3.4900303e+19
-5.8718943e+19
-5.3584219e+19
3.6712032e+19
-3.0400105e+19
7.2206151e+20
-9.2329039e+20
3.6215858e+19
-5.4954328e+19
-6.0129938e+19
3.7809124e+19
3.8514246e+19
7.1390605e+20
-9.096138e+20
-5.6373803e+19
-5.9480637e+19
3.2787766e+19
3.8895364e+19
-2.8342697e+19
3.5168441e+19
-5.3356229e+19
-5.8617693e+19
3.444063e+19
3.7270129e+19
-5.455423e+19
-5.7561653e+19
3.1949408e+19
3.7759003e+19
-2.7566311e+19
6.954546e+20
3.5763141e+19
-8.4947098e+20
-4.2430267e+19
-4.8371483e+19
4.0328311e+19
4.3863043e+19
6.8836053e+20
-8.4410025e+20
-4.3285231e+19
-4.687279e+19
3.8345631e+19
4.4957466e+19
2.8917341e+19
-5.3253365e+19
-5.6824711e+19
3.594922e+19
4.2020056e+19
3.6011136e+19
3.7812292e+19
-5.8371712e+19
-5.2212043e+19
4.0709804e+19
-7.5010523e+18
-2.8298136e+21
2.5985495e+20
2.481227e+20
-6.9416538e+19
-7.242487e+19
-2.729494e+19
6.7807175e+20
-8.1588173e+20
-4.2724315e+19
-4.7241531e+19
3.9797669e+19
4.1077739e+19
6.9469886e+20
-8.5092754e+20
-4.2487947e+19
-4.662368e+19
3.9967179e+19
4.5618454e+19
2.243435e+19
9.1872563e+20
-5.2792338e+19
-5.6991126e+19
3.6257707e+19
4.2215431e+19
9.0502802e+20
3.5671156e+19
-5.8872475e+19
-5.3207682e+19
3.784082e+19
-2.6200526e+21
2.3794935e+20
2.4800245e+20
-6.2874878e+19
-5.6291113e+19
1.570797e+20
-1.132531e+20
-1.63449e+20
-2.7172743e+19
7.115523e+20
-5.5106847e+19
-6.1437995e+19
3.2831109e+19
3.6536329e+19
7.1630147e+20
-5.6538322e+19
-6.0462199e+19
3.1831251e+19
3.8138352e+19
-2.1999793e+19
-5.3323961e+19
-6.0905767e+19
3.1943198e+19
3.6031239e+19
-5.509799e+19
-5.9582884e+19
3.100118e+19
3.7507539e+19
4.0795222e+20
2.8217569e+21
2.7742564e+21
-1.0415267e+21
1.6114882e+20
-2.0428636e+20
-1.2737118e+18
-1.2556323e+19
2.003544e+20
7.228223e+16
-1.0871761e+19
1.5713962e+20
-1.0820889e+18
-1.1618078e+19
-2.0624085e+18
-1.1423911e+19
-1.6368527e+20
-2.7696551e+18
-1.1157328e+19
-2.0682685e+20
-4.2092788e+18
-1.2006387e+19
-1.6779118e+20
-4.6034905e+18
-1.1216265e+19
-2.1417987e+20
-7.3572952e+18
-1.1753757e+19
-1.8199696e+20
2.2888363e+20
-1.0918012e+19
-7.9838446e+18
-2.2421523e+20
-1.3316971e+19
-1.0676573e+19
-6.4812263e+20
3.9672663e+19
-2.0055356e+19
8.1766538e+18
-2.1893569e+19
4.5644585e+19
-1.7207456e+20
-1.1606052e+19
-6.7550443e+18
-9.0935068e+18
-8.1985931e+18
-2.0650451e+20
1.1745818e+19
1.9908218e+19
1.8016247e+20
-9.989578e+18
-1.087834e+19
2.2110293e+20
-8.1754371e+18
-1.0077652e+19
1.7327598e+20
-9.8810554e+18
-1.1134268e+19
-9.5461353e+18
-9.7947101e+18
1.5444588e+22
-3.949146e+20
3.7257595e+20
7.8145489e+20
6.2730513e+19
-1.7065121e+22
1.0194416e+21
-2.6472805e+20
3.9413998e+20
4.0275722e+20
1.719968e+22
8.9121081e+20
-5.4408162e+20
-1.6975759e+22
7.8971467e+20
5.5087663e+19
-5.9015289e+20
8.0298256e+20
-9.5052113e+20
3.8942012e+20
6.8828317e+20
-1.0401723e+21
-1.7361475e+22
3.5097724e+20
-1.0059436e+21
-9.3772776e+20
9.6656734e+20
8.9550923e+20
-3.3631316e+21
2.727233e+19
-7.655636e+19
-1.4599148e+20
-4.1681178e+21
-1.0677699e+20
-3.2425775e+21
-1.7769275e+20
-6.3293376e+19
-2.196263e+20
-3.9932225e+21
-1.046688e+20
-7.4452199e+20
9.4499734e+20
-4.0111026e+19
2.5426439e+19
-6.5755825e+19
2.1986519e+19
-6.2084419e+19
3.5730203e+21
-3.4605097e+21
1.3677519e+20
-3.0208457e+20
-9.2812478e+19
1.0480462e+20
-2.6277375e+20
-9.567392e+20
2.6449445e+19
-4.1231901e+19
-7.1936766e+19
-6.6623288e+19
2.2387373e+19
-5.2044733e+19
-2.9543321e+20
-2.4987219e+20
1.4416157e+20
1.1102918e+20
7.3717927e+20
-3.7708579e+19
2.6687683e+19
-5.7811163e+19
-5.98879e+19
2.4786129e+19
-3.6981855e+19
2.5397316e+19
-5.1618793e+19
2.4192033e+19
-5.7293052e+19
-3.7666893e+21
2.8787035e+19
-2.0881947e+20
-1.9774608e+20
2.60288e+19
6.8368228e+20
-8.8589072e+20
-5.8441818e+19
-2.9220695e+19
2.8471336e+19
3.2727261e+19
-5.4335912e+19
-3.6972082e+21
-2.4106192e+20
-2.7490162e+19
-2.6101881e+20
1.5464981e+20
1.6687207e+20
6.7523773e+20
-8.8018294e+20
-4.7980983e+19
-5.5861557e+19
2.9297958e+19
3.3224392e+19
-1.3911654e+19
3.1158107e+19
-4.7917169e+19
-4.3374933e+19
3.3599493e+19
-1.8674332e+19
-4.9010049e+19
-4.6036481e+19
3.4796254e+19
3.1046771e+19
-1.5490848e+20
1.9439622e+20
6.1545038e+18
-7.6192268e+18
-1.0385044e+19
-1.0151957e+19
5.8906475e+18
6.1758274e+18
-8.3379781e+18
-1.9453486e+20
-1.5628295e+19
-1.2622964e+19
4.9875973e+18
1.5200206e+20
-7.7823144e+18
5.9020476e+18
-4.7378927e+18
-9.64398e+18
5.9289309e+18
-7.862475e+18
5.7032681e+18
-4.8092754e+18
-9.3581465e+18
6.0868087e+18
-2.9440486e+21
-1.6494573e+20
-1.0447482e+20
-2.4998666e+19
-1.4847718e+20
-3.4552466e+21
-2.7303613e+21
1.5210036e+20
-5.9614787e+19
1.2496662e+20
1.5375196e+19
3.5196001e+21
-1.0595702e+20
2.8195669e+19
-1.7181003e+19
2.0361188e+20
2.2922826e+20
1.6293964e+19
-2.955468e+19
-3.3089437e+21
-2.4371292e+20
1.381162e+20
1.0468713e+20
-1.2450928e+20
-2.8143945e+20
7.6173404e+20
-9.5342459e+20
-4.2922103e+19
2.9507373e+19
-7.6008791e+19
2.3394166e+19
-5.5601707e+19
2.5913561e+19
-4.1312075e+19
-6.1733906e+19
-6.4850835e+19
2.2475851e+19
-3.2361934e+21
-1.3891183e+20
-1.6974294e+20
-1.312902e+20
1.6432514e+20
1.2116174e+20
-7.2131193e+20
-3.3221336e+19
-6.6301313e+19
-6.9869478e+18
-8.4748171e+20
-6.5051259e+19
-1.4109055e+22
-1.0459176e+21
2.3036513e+21
2.9893461e+21
3.0550865e+21
1.2166555e+20
3.2052159e+21
3.1134691e+21
1.3066176e+22
1.3018756e+22
1.3933574e+22
-3.6286878e+21
1.7025372e+20
2.8041361e+21
2.6414466e+21
2.6041034e+21
2.440926e+21
-2.8535552e+19
6.7622783e+20
7.2306598e+20
6.8474454e+20
6.3231089e+19
7.0300954e+20
7.1359906e+20
6.7567086e+20
4.7430923e+19
6.5676871e+20
6.2069899e+20
5.5862104e+20
3.4750124e+19
-2.6547989e+18
3.4850271e+19
-8.5001747e+18