/*--------------------------------*- C++ -*----------------------------------*\
  =========                 |
  \\      /  F ield         | OpenFOAM: The Open Source CFD Toolbox
   \\    /   O peration     | Website:  https://openfoam.org
    \\  /    A nd           | Version:  7
     \\/     M anipulation  |
\*---------------------------------------------------------------------------*/
FoamFile
{
    version     2.0;
    format      ascii;
    class       volScalarField;
    location    "10000";
    object      omega;
}
// * * * * * * * * * * * * * * * * * * * * * * * * * * * * * * * * * * * * * //

dimensions      [0 0 -1 0 0 0 0];

internalField   nonuniform List<scalar> 
34377
(
2166.3966
4806.1589
3936.4924
3979.3812
814.02202
2193.4687
823.63651
461.5504
887.12025
872.75274
1320.8061
9619.5551
1302.3242
4803.6473
9587.1367
4025.1711
1825.9426
7341.8254
7488.5343
1816.2833
7522.111
7451.5512
1865.0113
1861.134
819.55689
3989.2434
816.35137
460.88172
783.41159
721.88155
734.68522
418.88028
422.70245
423.74834
441.23536
440.1358
794.42784
2123.2403
2126.8009
881.79575
885.69615
2080.5395
2069.7713
2106.7412
705.4538
710.38104
2141.3533
4719.9262
18897.084
4660.6906
18843.769
1327.3441
2093.6333
705.53288
699.91998
2072.0317
1332.1333
9655.8101
9686.6979
4641.6498
18843.725
4601.3424
18789.488
7342.151
7756.1543
1890.421
1818.8385
12362.401
13046.559
4201.0821
4289.7544
4312.0824
13131.114
13025.526
4302.6843
12708.207
4307.8602
13372.784
4446.7688
12946.983
4327.1953
12794.238
4336.0911
1834.745
7363.263
7541.2616
1839.9814
732.2243
729.48749
791.46093
793.84198
417.98058
422.68979
421.97954
439.33495
440.07292
1904.2032
1887.6809
1894.3712
1917.3693
1611.2838
1455.7321
1431.0493
1587.4307
611.34726
1650.0875
1496.2294
1509.2206
1654.9108
619.7169
534.61331
541.14165
404.50447
414.32843
415.31747
403.61211
1945.3087
1961.445
1963.9877
1943.924
4953.7974
4931.4089
4929.0226
5102.2145
2100.3068
2094.2752
2168.7856
2075.0382
4934.1101
4822.2554
4920.8206
4931.1481
581.39096
585.11322
2266.4739
729.84459
734.95403
2303.439
3701.2852
6860.6085
6892.0442
3727.5611
12819.634
12890.536
32487.585
32868.055
3661.8367
3654.8386
6819.9322
6785.8055
12927.181
32609.803
32777.699
2134.6843
707.4006
706.72218
2131.9621
2250.8565
727.83237
722.23827
2228.6489
704.50934
713.59165
2158.0803
2128.0664
4746.424
4693.1659
19006.603
19043.067
4700.047
4700.7359
19152.228
18880.696
3623.0147
3646.1377
6777.9531
6749.6122
12820.635
12790.808
32387.512
32797.736
3596.4309
3601.5494
6698.8571
6728.0064
12755.872
12707.623
32860.75
32588.601
12777.336
12554.791
4192.7863
4237.4128
13266.279
13493.712
4465.7163
4480.5213
19851.4
20482.454
7702.1791
7661.2567
21402.462
21562.743
8074.7141
8012.0021
21437.063
21745.031
8032.6552
8063.278
21626.351
21142.308
8010.7447
7969.8795
7866.5461
20487.777
21071.905
7917.0774
21873.913
22109.977
8363.7351
8239.9747
21101.854
21268.936
7983.2756
7947.1007
7912.7134
21027.443
20692.129
7936.9119
12860.486
4250.4052
4196.3973
12395.007
13045.892
13001.01
4322.2573
4317.5117
1611.6514
1461.1633
1508.131
1672.4928
617.12371
1637.1075
1488.8878
1472.2284
615.62455
1626.9031
1918.0842
1919.9093
1933.502
1938.4958
1994.491
1980.913
1911.6804
1901.0342
536.5702
403.37318
414.17162
413.67456
402.7557
5189.0372
5080.5575
4580.5998
4676.011
5156.4609
5158.0952
4665.6713
4663.3974
4705.7415
4810.6917
4816.5726
4709.2981
4659.818
4856.1394
4789.8924
4738.2462
4241.6007
4128.5946
4107.7789
4280.006
3505.1348
3501.462
3202.7026
3190.8237
1211.0747
3176.624
3157.9721
3466.7598
1192.0872
3479.9869
4094.1533
4083.2283
4239.5214
4249.0587
1043.5711
1066.0792
4302.1645
4318.4629
4170.6088
4458.9736
3361.0349
3273.6115
3675.4686
3566.029
1243.4919
3276.9943
3566.7398
4307.3131
4175.3546
4403.6455
1092.0108
470.79619
757.86672
891.02931
872.30402
743.45995
760.50168
910.53886
4675.5442
4837.2935
5168.653
5370.9192
4733.9063
4912.0753
4858.8222
5051.4285
4960.9115
4865.086
4735.0116
4803.0044
5226.2084
5166.939
4675.6192
4711.5281
8810.5113
8794.9692
8863.8798
8831.5354
8742.017
8831.9778
9180.2589
9322.0398
4962.3962
4968.1679
4824.6612
4904.2075
5133.418
5139.7022
4807.8761
4857.5998
8952.2978
9016.9703
8531.8544
8612.9209
8866.8704
8936.4493
8982.1133
8957.5914
585.67142
584.58435
565.30121
2336.2932
4194.7492
4177.8391
4260.202
4239.5716
7547.7328
12370.374
12452.78
17984.231
18203.989
12532.163
12434.49
18272.435
18099.569
28056.636
28440.337
47712.933
47239.576
48244.035
48238.742
28527.88
28179.989
7502.0118
7459.8592
12507.486
12577.151
18166.586
18336.201
28726.445
48096.121
28253.003
47702.845
28657.059
48120.699
2297.8704
732.01986
729.78925
2294.8027
2320.8117
4167.7257
4150.9741
714.38337
709.31688
2298.4996
4128.24
4109.9534
727.82161
737.30855
2322.5597
2291.7962
6906.9771
3737.0415
3707.2915
6880.3771
6844.6265
3684.7155
3663.254
6787.6679
13015.969
13008.704
32549.288
33040.016
12922.638
12830.486
33086.724
32901.803
6820.0915
3682.8781
3686.9543
6849.6247
6871.1064
3696.4293
3675.1038
6801.9422
12901.74
12932.234
33103.59
33249.686
12837.156
32923.342
12930.475
32461.982
7447.9331
7424.6901
12381.679
12385.476
18000.872
18115.034
12427.202
12277.69
18142.423
17901.553
46934.504
47607.929
27911.087
28401.912
48112.51
48090.499
28365.863
28067.65
7368.9544
7404.1404
12336.453
12371.301
17963.866
18103.845
12363.01
12227.67
18085.31
17850.208
28047.947
47902.306
28489.481
48256.911
28384.209
27999.896
48070.498
47641.992
20924.91
20858.91
7782.3381
7913.7134
20778.681
7751.2258
20303.3
7692.2606
21526.999
21862.036
8238.6154
8197.0373
8337.9195
22169.271
21989.438
8335.2837
35441.725
34931.038
11034.601
11004.107
36788.181
36699.712
11230.248
11216.787
38818.352
37946.195
11690.272
11711.123
38266.162
39009.931
11783.355
11709.918
38581.981
38165.109
11750.879
11702.45
38954.924
39292.62
11791.113
11733.069
11747.202
38692.574
39025.241
11692.706
37136.884
38448.845
11564.728
11457.559
36716.399
36240.827
11344.124
11318.11
37739.975
37795.413
11522.025
11505.62
38780.195
11962.724
39535.608
11996.221
12145.103
39857.132
39112.005
12080.081
37764.172
37594.313
11590.13
11521.668
11558.709
38288.509
37982.78
11531.974
37981.775
37410.097
11460.935
11460.048
36186.34
37397.1
11388.398
11326.557
21064.255
21178.299
7900.9405
7946.2879
20138.197
20346.988
7721.0816
7637.0008
8061.1594
21346.713
21547.436
7985.5506
21462.263
21248.932
8010.9432
8018.1184
4097.0682
4075.8597
4225.832
4212.6472
3499.721
3473.1926
3180.7687
3211.5001
1222.4584
3720.9624
3356.0854
3401.0662
3675.1724
1250.0252
4320.5203
4366.2795
4508.5286
4472.5212
1089.7251
1071.4867
4184.5024
4309.2989
3569.1797
3271.6798
3275.0497
3569.8775
1226.7922
3287.9616
3588.7124
1076.0943
4206.166
4345.7742
4184.7765
4320.557
4577.6605
5159.2628
4650.3277
5216.7879
5199.0051
4713.9881
4699.6815
4756.577
4883.87
4777.8979
4908.3543
4867.4973
4725.1047
5091.8112
5065.0421
4934.5588
4949.3074
5394.6243
5398.7899
4871.139
4872.3369
4645.6305
4767.3781
4768.4735
4634.5881
5052.9415
5078.9062
4598.3262
4568.449
752.1157
903.80159
895.62696
757.84661
10117.323
10191.156
9302.1923
9372.7401
9584.7256
8835.9056
9760.8841
8962.1697
9161.8214
8237.7516
9289.2962
8318.728
9644.5841
8641.6177
9727.1926
8709.4231
10046.785
9975.7608
9250.8768
9200.1161
10062.549
9277.5128
10076.898
9276.3409
9635.8775
8658.5866
9629.7211
8639.1467
9602.0109
9542.7891
8618.4802
8571.3207
10259.854
9590.6732
10310.144
9612.5662
10106.926
10197.785
9666.8251
9723.6081
10159.115
10065.462
9697.3381
9628.6289
10278.395
10200.73
9588.4564
9528.8442
9832.1641
9162.9808
10054.049
9332.1746
10281.088
10296.576
9800.36
9833.0395
9767.4041
9307.3484
10021.903
9513.2708
10377.964
10430.011
9664.2563
9723.8126
9642.1373
9206.0369
9905.0106
9433.1506
9599.7009
9555.6523
9393.9748
9361.1233
9227.9445
9005.4265
9467.4668
9225.3625
10097.57
10074.824
9660.1895
9657.9907
8678.0849
8769.4217
8633.9093
8727.5337
8381.9904
8452.9343
8587.2162
8647.0843
7249.4806
7407.2773
6176.3121
2775.8401
6305.0128
7497.4426
7465.5152
2754.8211
6367.7893
6381.4872
2630.2986
2594.8029
7386.2386
7324.144
2747.7613
6254.7867
6275.2523
7302.6028
7411.4017
2728.1201
6303.2171
6205.4261
8469.0067
8567.3013
8605.1427
8685.6716
2571.4326
2592.3105
8563.2328
8653.2633
8467.2453
8556.0401
9478.6022
9268.1206
9359.6748
9162.882
9386.924
9189.9207
9525.6466
9303.2317
9882.5926
9479.6549
10007.819
9571.6632
9962.2553
9539.2985
9846.7482
9452.4547
2055.8312
2031.8031
2216.024
2236.9235
2278.87
2099.4364
2055.1473
2241.9753
9676.4563
9269.457
10072.333
9593.8602
9918.8923
10033.783
9693.7407
9817.8276
9216.0434
9016.1894
9640.1364
9383.4785
10402.958
10554.154
9939.5819
10102.184
7781.2576
7879.7799
2904.7549
6772.7932
6654.5868
7233.3896
7599.1459
2845.2616
6528.4325
6184.607
8989.341
9072.8501
9090.0316
9174.7543
8352.9813
8434.4022
8779.898
8817.9397
2696.5175
2738.0978
7350.0547
7572.6456
6479.2527
6265.0329
8505.5144
8589.1375
8762.384
8808.055
9411.5634
9863.9138
9440.656
10052.144
9577.6069
9398.8434
9186.466
9632.928
9372.0524
10067.579
9595.9671
10219.937
9733.4447
2337.1856
2149.4003
2157.5358
2361.3402
645.02049
650.11453
538.20386
536.79336
470.42315
1140.4297
1337.3832
1302.4307
1112.0521
1542.588
1587.951
1794.1199
1751.5943
1727.894
1520.716
1542.8828
1752.8949
1281.0185
1100.0499
1300.3356
1115.0344
1358.3073
1149.8556
1354.413
1830.381
1609.1472
1608.2813
1833.193
9368.5018
8435.099
9507.2142
8527.2417
9880.6341
10066.72
8866.0169
9013.9639
9775.8679
9025.9072
9971.0308
9168.4632
10360.12
9535.7985
10567.596
9713.3565
9986.7529
10246.276
9329.5196
9525.2696
10636.901
10846.037
9905.5296
10100.499
9864.6239
9428.9394
10199.221
9688.5554
10562.949
10752.552
10061.924
10248.751
10170.65
10311.878
9670.2048
9787.3758
10044.42
10174.863
9582.2291
9665.9379
10143.255
10215.64
9463.1489
9500.0998
10200.33
10312.52
9488.0581
9575.1532
9912.8341
9126.5713
9994.2507
9187.7022
9914.1397
9142.5594
9939.7509
9147.9581
9489.809
8546.8484
9483.7399
8525.3536
9450.8475
8498.7917
9505.48
8533.4177
12140.005
12027.868
12183.708
12208.251
12299.983
12253.928
12325.762
12272.694
12021.485
12028.431
12280.1
12245.898
12722.735
12796.67
12972.97
12860.606
8993.23
8904.7254
8946.0293
8942.8106
8617.2151
8545.076
8832.9798
8884.6803
9181.3312
9139.4877
9300.0479
9284.8619
8656.5559
8564.4311
8820.0164
8661.5329
12424.87
12485.352
12574.591
12459.626
11669.882
11675.712
11954.509
11922.4
12345.359
12178.749
12471.927
12506.417
12473.309
12459.503
12492.921
12588.825
569.16918
568.83569
541.49109
744.07596
739.10575
4174.2449
4155.0126
2306.892
4824.6102
4845.0617
4218.2975
6365.6086
6359.3837
10436.255
10540.29
15649.094
15830.402
15472.091
15691.178
22557.613
18561.847
22674.392
18578.125
18861.957
18842.461
22991.419
22916.762
15780.297
15569.988
22979.512
18930.424
23047.898
18932.452
18734.62
18681.65
22880.508
22717.465
39182.812
26313.853
26459.122
39536.434
26682.158
26789.701
39620.249
39970.286
63813.357
54089.647
54019.396
63339.898
53173.328
63170.141
63491.515
53399.875
63775.663
64137.137
54657.715
54477.184
54920.41
63708.303
63485.747
54481.751
26830.657
26751.613
40194.874
39879.317
26471.359
26689.957
39281.715
39758.106
6316.6288
6319.0424
10500.156
10386.569
6285.5939
6283.1423
10323.69
10437.974
18797.586
18766.685
22785.077
22910.962
23134.488
19001.88
18985.775
23045.096
40084.583
26812.518
26897.475
40654.512
54219.702
63900.705
64597.27
54643.458
26689.124
26535.09
39440.475
40123.238
54102.184
63170.075
64041.537
54215.703
40740.317
26942.334
26790.833
39962.866
63777.845
64646.675
54659.31
54578.66
2364.5352
4220.2857
4204.1792
721.06462
718.35807
2362.0587
4235.8868
4192.0673
4132.705
4143.8612
2293.5255
4819.3323
4801.6971
4090.1154
4105.3363
2269.0952
4769.6352
4747.8359
715.69865
724.32388
2390.2152
4241.0042
4268.1732
2363.9716
4182.467
4222.4933
7580.4338
7557.1223
7523.8767
7460.1585
18122.265
18281.129
12533.846
12535.322
12607.116
12419.846
18328.668
18076.889
28124.707
47113.584
28648.327
47446.629
28698.161
28486.04
48100.237
48238.17
18080.417
12467.706
12465.76
18209.769
12456.667
12295.951
18174.065
17941.804
28128.459
28630.569
48144.78
48593.788
28472.108
48404.761
28147.751
48157.451
7488.3343
7530.3348
7557.6165
7474.3253
12440.825
12461.808
18071.585
18232.559
12562.705
12435.642
18288.55
18098.924
28126.568
28593.281
48300.223
48718.562
28384.88
28585.21
48777.763
48563.348
12472.029
12336.664
17968.971
18189.865
28352.806
28766.143
47843.876
48002.468
12530.562
12511.481
18133.157
18255.212
28469.232
28115.64
47805.377
47310.923
6258.7286
6297.7343
10379.25
10352.816
15493.296
15603.936
6256.5833
6258.2986
10277.356
10392.606
15651.445
15382.937
18570.935
18596.428
22597.682
22665.338
22898.565
18774.404
18724.848
22802.978
22844.319
18803.31
22879.512
18769.248
18533.533
18450.689
22667.607
22483.265
52807.509
63087.749
63440.487
52979.71
53756.801
63760.704
63725.294
53776.499
26451.519
26350.658
39220.367
38883.015
26588.816
26700.793
39578.518
39662.475
54407.265
63526.194
64004.562
54588.744
54746.331
63720.991
63496.327
54302.333
26667.927
26607.937
39786.364
39453.549
26259.951
26485.93
39131.756
39526.763
6193.211
6204.8484
10341.386
10200.28
15590.239
15319.043
6216.7215
6235.7366
10347.115
10289.33
15460.981
15592.451
18566.829
18564.343
22563.43
22664.722
22900.036
18769.224
18724.947
22795.658
22800.243
18747.807
22838.427
18723.222
18471.339
18399.761
22613.826
22435.884
26446.461
26307.797
39030.174
39504.768
54385.473
63078.088
63632.895
54382.761
26580.223
26713.163
40090.346
39939.787
63960.272
64192.549
54801.833
54565.414
26640.979
26585.09
39845.573
40158.177
26213.157
26447.924
39758.829
39100.409
64198.558
63857.589
54486.065
54524.063
63218.183
63855.002
54413.765
53683.242
37356.842
37212.923
11542.768
11445.142
37056.316
37714.204
11372.612
11297.207
37545.24
36919.693
11326.929
11305.24
35477.48
36966.653
11153.693
11037.89
37734.127
38758.46
11855.81
11869.434
38760.134
39399.466
11951.637
11855.855
39892.288
39224.401
12136.195
12117.993
38581.519
39777.409
12115.44
11982.405
37733.999
37144.167
39191.512
39096.537
41323.719
40331.162
40738
41510.297
41007.036
40481.663
41399.545
41719.265
41088.369
41505.362
39528.705
40877.976
39029.775
38536.195
40185.832
40158.178
41208.077
42057.145
42376.912
41600.243
40085.362
39856.915
40649.572
40363.097
40363.512
39794.338
38547.668
39819.692
38121.281
37241.262
11521.503
11522.492
37546.934
38200.242
11518.918
11599.207
35802.918
35692.415
11206.696
11096.171
11164.702
36565.101
36286.456
11100.191
38238.122
37792.025
11667.347
11731.448
38363.935
38885.126
11707.11
11612.414
38652.558
38194.812
11707.848
11658.434
37424.732
38435.661
11637.173
11550.678
9406.7762
9222.4663
9167.2024
9002.7212
9395.0719
9170.3069
9230.2825
9006.6188
9826.2538
9373.4092
9651.3337
9227.2649
9853.0453
9417.1969
9677.698
9248.0495
8554.5996
8614.7455
8378.9694
8449.6241
8504.8769
8580.6595
8365.7905
8431.3717
7336.9656
7221.3804
6239.1321
6150.2667
2758.1626
7402.9276
7257.476
6195.1049
6309.7933
2791.6246
2611.8989
2645.8389
9174.7759
9223.703
9038.1671
9100.4521
7878.4046
7762.7375
6645.3584
6733.6948
2902.7037
7958.6097
7811.3309
2939.1062
6669.3951
6824.3321
9108.7876
9188.0662
8968.6682
9058.0686
2736.1832
2768.2749
10051.839
9813.4029
9909.9494
9693.7198
10061.155
9796.6451
9953.4566
9695.8114
10484.58
9999.3218
10394.337
9909.8339
10529.668
10057.356
10411.275
9973.538
2182.2434
2161.4409
2364.4588
2387.2725
2117.4816
2082.2554
2260.5014
2295.1375
9588.3872
9618.1146
9353.6466
9387.817
10023.441
10071.886
9557.5531
9613.0499
8717.5074
8782.7462
8734.6364
8804.5317
7562.1607
6457.2606
7611.1703
7478.0985
2841.4098
6390.3736
6499.483
8798.3275
8860.3447
8649.4209
8705.9899
2699.0867
2692.6322
2851.7963
7550.8118
7613.8955
6526.4711
6439.1286
8714.7187
8786.1935
8770.2532
8835.1613
2150.6473
2325.7857
2335.0361
9592.4793
9365.4097
9635.7836
9405.0711
10038.473
9601.5311
10075.937
9642.3769
9679.6303
9436.2827
9520.1631
9281.3617
10116.585
9662.5385
9961.4594
9516.7769
9240.4082
8306.1434
9179.2279
8241.6129
9932.0665
10016.626
9143.2395
9214.6548
8840.4978
9485.826
8520.6651
9563.4875
8577.9068
10049.058
10077.378
9256.5108
9282.7147
10104.694
9302.0549
9978.9912
9197.1959
9602.929
9626.2267
8629.6519
8643.99
8674.6812
9651.5059
9548.2991
8585.9625
10354.481
9649.5736
10214.478
9523.1444
10270.611
10123.51
9784.2544
9646.459
10296.868
10328.906
9600.0024
9631.863
10204.407
10242.009
9733.2791
9769.6394
10146.595
10216.823
9650.1811
9719.6782
10199.983
10282.156
9489.8531
9565.5485
10607.362
10094.537
10520.415
10005.419
10688.46
10176.696
10611.385
10127.554
10763.383
10021.11
10720.449
10000.079
10664.849
9927.8445
10574.344
9841.6224
10485.695
9644.1357
10467.678
9639.3531
10378.492
9542.533
10296.584
9478.337
9882.7726
8870.2286
9825.2347
8822.9952
9997.2773
8973.5713
9994.1142
8972.7342
10117.634
9424.2706
9929.8804
9255.2218
10025.844
9550.4926
9842.7059
9378.0621
9956.6694
9470.7526
9802.0267
9342.0469
10013.123
9313.8682
9875.0163
9202.37
9748.7036
9633.6293
8965.4774
8878.6817
9698.7197
9879.651
9095.1024
8940.959
9448.867
9281.2368
8352.3291
8496.345
9299.6614
8351.8775
9207.872
8278.6315
653.92199
1355.6376
1130.21
1344.0351
1596.957
1622.1567
1852.8667
1834.9885
1771.8347
1557.1142
1594.1573
1809.9353
1307.2564
1115.1549
1345.624
1145.822
14378.165
13626.061
13644.831
14410.522
14465.085
14525.957
13767.832
13734.002
12990.455
13867.039
12979.555
13895.187
14006.165
13112.963
14027.926
13117.193
12710.34
13422.686
12769.912
13365.615
13030.526
12230.199
12166.988
12968.639
13133.132
13766.575
13065.481
13835.147
13310.834
12459.268
13393.418
12529.288
11733.464
12448.605
11796.265
12380.561
11274.522
11998.713
11934.513
11236.569
12730.267
12029.675
12658.874
11978.657
11460.454
12169.878
12220.816
11483.046
13181.295
12472.055
12474.657
13194.878
11923.484
11943.763
12674.178
12663.163
13326.156
12597.371
13323.293
12595.365
12785.815
12012.209
12792.994
12043.828
14372.902
13617.691
13554.45
14302.585
14041.707
14156.996
13439.519
13362.096
12930.11
13878.127
12993.764
13811.066
13632.438
12796.179
13708.347
12842.748
13520.251
14371.252
13625.359
14253.712
13889.499
13006.698
12909.121
13781.042
13670.785
14417.865
13659.469
14419.961
13918.463
13019.404
13936.358
13043.382
12432.879
13232.615
12525.585
13126.679
11922.553
12736.284
11982.464
12641.97
13253.17
12531.255
13231.984
12515.864
12727.793
12019.937
12730.657
11988.701
13215.395
12503.446
12435.481
13141.241
13057.48
12353.309
13003.619
12311.878
11974.496
11927.407
12711.358
12641.128
12496.642
12552.104
11828.638
11760.773
14507.966
15262.322
14608.439
15149.649
15006.388
14094.795
13991.957
14913.988
14753.181
15381.329
14727.488
15438.652
15141.49
14162.993
15145.95
14173.953
15472.438
14891.903
14785.156
15359.508
15653.296
15047.936
15143.145
15763.697
15453.817
14748.159
14640.856
15340.804
15601.281
14873.289
14946.087
15693.195
15665.288
15048.844
14956.405
15559.602
15299.362
15376.789
14802.787
14737.748
15598.218
14866.26
14781.67
15505.746
15258.547
15347.037
14645.45
14569.601
15365.57
14692.314
14619.999
15279.628
15023.868
15131.087
14479.413
14374.249
14123.528
14057.993
15083.397
15019.888
14711.278
14855.951
13905.013
13801.488
13576.217
14234.29
13617.062
14195.309
13940.194
13151.526
13104.365
13914.712
14823.869
14141.909
14731.229
14075.392
14414.838
13519.703
14478.727
13575.219
15781.972
15154.699
15106.417
15733.068
15796.008
15204.759
15178.146
15771.487
14911.825
15681.016
14933.317
15653.297
14988.94
15767.945
15032.904
15726.743
13959.66
14601.207
14028.941
14536.366
14500.746
13816.217
13762.373
14440.116
14655.649
15168.53
14550.81
15299.332
15036.814
14300.274
15148.91
14391.598
15405.788
14723.724
14741.746
15411.454
15533.975
14859.929
15472.093
14795.914
14135.378
14162.565
15087.099
15142.605
15166.351
15253.924
14268.526
14208.709
14395.52
15095.015
14449.247
15066.196
14912.486
14168.427
14102.194
14858.409
15891.152
15176.186
15755.946
15058.553
15540.879
14730.389
15675.882
14849.148
17195.822
16199.138
16131.309
17139.265
16987.686
16971.334
16016.279
16034.238
15680.969
16686.215
15760.97
16625.748
16528.515
15632.309
16516.883
15625.274
15160.136
16141.596
15168.402
16156.843
15576.925
14686.055
14658.398
15577.862
15951.442
16867.969
15838.716
16987.909
16283.596
15325.781
16416.8
15446.293
16243.596
15565.474
15482.928
16169.34
16127.514
15483.54
16122.662
15473.45
15295.082
15228.692
16098.369
16028.526
16023.278
16042.675
15274.877
15260.396
19592.61
19522.566
17875.413
17777.977
18161.921
16804.686
16727.607
18237.384
19275.058
19241.387
17578.546
17597.702
17960.724
17952.488
16573.995
16584.334
16868.702
18587.985
16904.232
18575.017
17210.67
15817.446
15805.549
17209.019
17695.592
19441.422
17655.156
19479.6
17989.739
16511.745
18063.269
16599.42
20137.766
20165.514
18354.415
18332.06
19197.515
19222.498
21093.56
21114.841
19403.292
5547.6059
5607.631
5527.345
5638.9793
20310.397
21118.634
21115.214
19324.823
19255.053
19006.364
18982.888
20734.935
20717.377
5712.1867
5667.2625
5614.0053
5684.3578
19891.852
20305.237
5067.7049
5039.1618
5078.8629
5116.502
5037.5894
5123.3392
5175.4111
5116.645
20917.104
20909.236
19110.29
19045.712
18561.781
18543.134
20265.271
20246.206
5620.2406
5579.7389
5539.3917
5597.7456
19441.564
20096.963
20442.82
20448.054
18684.582
18631.722
19233.729
19262.093
21089.737
21107.83
5550.8648
5510.1679
5575.307
5622.8751
20273.567
19634.967
18961.129
18911.128
17215.665
17286.567
17645.388
17599.855
16262.846
16212.143
17803.653
19515.547
17761.283
19550.658
16678.151
18134.07
18200.754
16766.761
5036.4353
4994.987
5023.9343
5076.1022
4994.4038
5051.6868
5098.0877
5060.5629
17569.98
19394.094
17672.35
19318.982
16619.257
18047.015
17955.132
16529.414
17159.213
18833.826
17185.901
18798.789
16176.805
17542.44
17515.853
16177.953
15930.621
17020.608
16019.947
16939.502
16509.774
15583.798
15482.662
16418.454
16560.86
15619.048
16565.896
15620.227
16100.236
15224.109
16080.26
15205.752
15640.882
16650.895
15689.791
16618.397
16170.234
16122.47
15285.614
15216.183
16166.894
17076.473
16060.828
17186.066
15597.608
16544.097
16662.621
15713.228
15046.508
15774.359
15139.475
15696.707
14950.867
15692.465
15590.357
14843.054
16200.594
15506.534
16077.807
15396.765
15148.618
15937.427
16052.458
15257.36
15282.871
16073.356
15395.806
15964.7
15157.987
15942.978
15824.668
15050.083
15666.7
15031.8
15706.375
15071.603
14872.179
15611.325
15548.423
14820.461
3824.7206
3903.7996
4042.3292
3978.8591
3852.7493
3866.413
3999.5996
3991.1336
4546.693
4455.9732
4463.0237
4556.2886
4597.5174
4503.8198
4432.3421
4541.8002
4598.7146
4532.1298
4536.7971
4614.459
4085.7956
3938.4902
3926.3108
4072.7361
3827.5019
3961.1806
4104.5225
3994.7608
4663.9476
4568.6125
4452.009
4574.3287
14520.842
15227.969
14606.17
15160.856
15122.196
14390.212
14292.082
15024.338
16197.546
15474.846
15969.032
15274.99
15776.89
14965.526
15990.707
15152.74
17645.733
16610.577
16604.691
17645.664
17787.709
17744.293
16750.345
16800.751
16120.001
17095.732
16133.224
17100.59
17310.61
16377.113
17266.036
16330.381
15142.115
16109.331
15170.426
16101.681
15624.16
14764.389
14710.449
15592.897
16241.103
17061.31
16027.675
17287.823
16481.812
15522.176
16718.918
15736.472
16613.024
15907.799
15891.861
16607.086
16844.531
16163.536
16880.91
16197.113
15608.282
15607.049
16437.382
16434.026
16750.748
16727.64
15912.268
15942.018
21703.919
21707.426
19834.774
19789.428
19762.191
19767.137
21542.657
21534.315
5974.043
5939.4934
6009.7396
6064.3826
20701.29
20889.803
19934.056
19945.377
18163.826
18125.791
19434.934
19529.479
21404.612
21468.377
5566.0008
5546.3601
5853.7606
5858.215
20680.019
19200.197
20120.187
20079.298
18348.893
18290.179
18689.953
17249.417
17222.815
18722.525
20066.405
20062.568
18368.07
18354.492
18749.249
18767.467
17325.049
17365.814
16714.418
18415.926
16764.147
18383.349
17100.728
15747.305
15720.688
17077.436
17989.904
19674.452
17861.401
19796.395
18193.41
16702.771
18365.709
16889.033
5094.8611
5074.2273
5342.8939
5352.0036
5424.0787
5388.0588
5431.7254
5489.8269
20541.533
20547.832
18704.167
18661.342
19525.364
19583.869
21498.629
21532.808
20729.693
19777.294
18966.299
18925.645
17189.003
17243.696
17589.812
17559.263
16177.81
16147.128
18017.878
19773.809
17931.661
19848.719
16745.451
18266.145
18382.34
16882.865
16491.05
15511.022
15506.657
16520.888
14855.103
15597.808
14946.351
15524.604
14711.476
15469.352
15355.2
14591.019
16102.382
15373.731
15946.408
15234.222
14913.571
15726.066
15870.053
15049.304
15538.784
16550.447
15566.472
16536.093
16029.225
15996.932
15128.683
15073.186
16195.083
17105.101
16045.035
17265.683
15510.267
16489.852
16651.69
15662.844
15186.723
15929.882
15209.88
15924.852
14876.074
15684.213
15666.023
14858.276
16084.426
15360.374
16111.62
15390.423
15042.925
15863.4
15816.99
15005.786
4642.6454
4583.5745
4805.0791
4861.3035
4136.1328
4009.623
4164.9577
4305.5865
4157.7712
4161.775
4312.3231
4328.0833
4906.2957
4803.0373
4816.1497
4935.8989
963.24063
973.72768
749.03354
741.5826
986.03289
973.77426
747.33142
752.03517
610.94062
611.85191
468.74983
1832.1081
1549.6456
1545.0984
1800.5976
2139.8439
2194.5172
2406.5535
2361.1249
2319.5463
2100.1886
2043.604
2262.3385
1748.6424
1475.1521
1490.7068
1725.2108
2593.8044
2687.213
2901.68
2801.3741
2710.0719
2757.8698
2950.6065
2916.5652
3318.5396
3343.4979
3516.7094
3498.4297
3523.5831
3324.1653
3198.5866
3400.8551
3433.4425
3250.6771
3229.5624
3411.4322
2824.2803
2603.9112
2583.1238
2805.8465
2613.2705
2635.1956
2849.6855
2815.168
3466.115
3269.2936
3213.0637
3399.4302
2245.2332
2025.4943
2011.3132
2236.1822
1694.8353
1443.0155
1458.398
1693.6124
2274.3481
2059.0329
2064.3627
2276.2618
1725.7189
1475.4918
1514.4405
1751.8368
2435.6174
2216.0492
2248.9549
2475.1017
1864.6451
1566.0558
1880.7699
2427.8834
2199.4606
2205.4771
2449.1013
3585.3046
3415.1365
3505.3576
3698.0677
3004.3491
2796.8205
2840.5852
3065.8053
2825.5649
2801.8996
3030.3865
3049.9852
3692.7743
3473.0507
3484.4288
3696.3329
12769.548
12692.747
12099.021
12033.061
11580.385
12238.74
11544.892
12306.851
12942.854
12253.778
12322.824
13037.908
11774.18
12452.748
11752.993
12511.306
13446.3
12734.057
12766.679
13494.403
13733.446
13730.084
12981.618
12990.75
12249.741
12929.537
12196.66
12975.366
13172.94
12392.94
13178.861
12425.05
13788.195
13710.495
13104.54
13034.738
13298.211
12475.859
13372.217
12543.549
14074.745
13358.821
13460.07
14180.502
12839.775
13608.946
12741.506
13721.811
14657.404
13897.684
14727.103
13952.205
14203.767
14139.81
13243.691
13289.52
14957.6
14189.516
14993.826
14207.883
13525.918
14461.511
14446.771
13530.76
14599.173
13970.383
13906.328
14528.45
15177.72
15027.018
14371.732
14489.177
13439.472
14330.065
13504.61
14272.09
14844.589
13916.848
14737.455
13819.952
15695.087
15005.357
15064.055
15757.942
16084.34
15386.766
16072.705
15366.799
14478.418
15374.74
14411.749
15462.854
15736.438
15785.054
14752.946
14736.205
14214.131
14872.162
14305.543
14769.03
14824.807
14136.604
14062.27
14735.224
14969.31
15427.698
14806.91
15623.239
15312.012
14572.765
15482.534
14722.711
16092.895
15450.826
15471.254
16111.583
16432.327
15797.865
15814.991
16452.685
15261.357
15979.093
15220.759
16020.594
15593.298
16355.777
15584.568
16361.907
15315.766
14691.898
14686.746
15311.295
15425.333
15478.77
14848.037
14795.39
15175.405
14445.524
14452.226
15183.222
15246.117
15320.737
14570.879
14501.94
15193.129
14601.629
14479.374
15061.576
15370.012
14752.761
14868.928
15509.405
15125.078
14411.58
14298.641
14993.786
15256.049
14523.135
14623.791
15371.266
14875.102
14224.237
14127.538
14758.512
14974.194
14315.565
14385.965
15069.638
13639.629
14588.363
13736.3
14490.708
13822.824
14676.097
13770.217
14731.796
14873.662
14205.715
14226.778
14893.896
14890.089
14983.562
14300.699
14211.063
13686.914
14538.52
13676.91
14570.822
14500.528
14611.135
13717.334
13644.489
13939.599
13251.463
13947.552
13254.043
13516.712
12668.413
13511.903
12674.317
13904.21
13973.451
13290.217
13250.056
13513.134
12680.296
13548.935
12697.602
14022.978
13912.972
13330.24
13232.862
13501.382
12666.43
13609.532
12764.619
14031.245
13328.042
13381.013
14081.497
12788.757
13587.767
12730.867
13645.846
12999.121
12885.358
12316.605
12216.585
12423.494
11738.458
12533.62
11807.813
12939.849
12253.457
12294.292
12993.347
11776.058
12458.847
11778.134
12486.015
12887.548
12206.849
12876.709
12190.085
12385.415
11696.982
12404.383
11696.601
12898.042
12877.534
12204.685
12190.146
12364.105
11633.525
12383.967
11669.155
12425.217
12390.011
12456.216
12319.939
12425.242
12399.787
12390.019
12249.94
11755.868
11850.372
11765.953
11861.953
12211.908
12241.617
12342.623
12216.307
12595.466
12540.851
12709.387
12570.778
12883.43
12872.972
12904.138
12711.479
12024.601
12033.866
11875.046
11704.619
12226.467
12154.15
12102.842
11990.687
543.66795
751.64963
746.53994
754.48615
745.11414
504.47081
750.1761
726.37202
724.97516
748.94638
7204.2315
7186.3772
7156.6333
7163.681
5250.1163
5270.1073
4710.0257
4688.5087
7127.6859
8147.2831
8130.1241
7137.6987
8192.2655
8158.3196
7160.3011
7176.3336
7234.1735
11342.441
16582.051
16800.252
20998.049
21127.27
21347.193
21265.081
16396.174
20881.929
20773.298
16662.73
21208.958
21123.287
24481.482
24662.205
25006.381
24870.229
16729.6
21268.928
21193.583
16517.546
21064.91
20916.159
24932.2
25049.687
24886.561
24644.424
55992.333
28292.944
28492.668
56544.855
28648.667
28848.819
55713.618
57019.944
98466.355
58626.036
58640.024
97917.62
58099.849
98390.847
98457.468
58245.955
98555.619
98395.926
58971.522
58754.895
58996.223
97880.898
98048.693
58806.268
28861.266
28747.463
57174.497
56801.158
28416.17
28720.575
55535.536
56094.362
11417.663
11292.574
11227.673
11352.276
24721.482
24912.47
25146.327
24993.327
56637.919
28797.07
28931.971
57956.216
59206.442
98350.741
99079.026
59532.396
28732.957
28512.756
55906.323
57328.768
58580.586
98226.367
98786.75
59003.622
58248.994
28998.047
28760.272
56739.594
98528.878
98922.744
59361.698
59320.357
4207.3853
4184.8124
2328.3541