/*--------------------------------*- C++ -*----------------------------------*\
  =========                 |
  \\      /  F ield         | OpenFOAM: The Open Source CFD Toolbox
   \\    /   O peration     | Website:  https://openfoam.org
    \\  /    A nd           | Version:  7
     \\/     M anipulation  |
\*---------------------------------------------------------------------------*/
FoamFile
{
    version     2.0;
    format      ascii;
    class       volVectorField;
    location    "10000";
    object      UMean;
}
// * * * * * * * * * * * * * * * * * * * * * * * * * * * * * * * * * * * * * //

dimensions      [0 1 -1 0 0 0 0];

internalField   nonuniform List<vector> 
34377
(
(-1.0093492e+56 -5.6765128e+54 1.1951048e+55)
(-9.2395928e+55 -8.4327614e+54 2.1666451e+54)
(-9.1151541e+55 -4.8192596e+54 1.3576681e+55)
(-8.9601663e+55 -2.2473635e+54 1.3688981e+55)
(-9.7315692e+55 -1.3413291e+54 1.1378164e+55)
(-9.9243181e+55 -7.00775e+54 1.2018013e+55)
(-9.5706048e+55 -2.3133957e+54 1.0845561e+55)
(-1.2309538e+56 -2.818529e+54 2.4082934e+54)
(-9.5432885e+55 -1.7590291e+54 7.8001874e+54)
(-9.5945274e+55 -6.0773995e+53 7.9723537e+54)
(-8.7644921e+55 -1.4081326e+54 -9.6665263e+54)
(-6.9779323e+55 -2.4347067e+54 6.1775294e+53)
(-8.8608577e+55 -4.0329554e+54 -9.9036898e+54)
(-9.2085342e+55 -1.0925885e+55 2.6607253e+54)
(-7.0174602e+55 -7.206221e+54 6.399137e+53)
(-8.8479946e+55 -3.3071959e+54 1.3614923e+55)
(-9.3513539e+55 -5.9008495e+53 1.1875175e+55)
(-7.7190446e+55 -2.6465144e+54 1.0588131e+55)
(-7.6843079e+55 -1.8344191e+54 1.0506524e+55)
(-9.3636996e+55 -2.2831013e+54 1.1775071e+55)
(-7.7317281e+55 -2.0464935e+54 1.0378396e+55)
(-7.6201471e+55 -1.4057715e+54 1.0405741e+55)
(-9.181386e+55 -2.3171367e+54 1.1335852e+55)
(-9.2933173e+55 -1.782487e+53 1.1604197e+55)
(-9.3788481e+55 -3.0490551e+54 1.0355256e+55)
(-9.0434929e+55 -5.6162785e+54 1.3485687e+55)
(-9.4287695e+55 -1.3361173e+54 1.0623261e+55)
(-1.2231172e+56 -3.1147696e+54 2.3639317e+54)
(-1.0057216e+56 -3.9889785e+53 3.9614033e+54)
(-9.6405757e+55 -4.0794449e+53 -2.1535405e+54)
(-9.6443573e+55 -1.201278e+54 -1.9211703e+54)
(-1.2077505e+56 -2.1846452e+54 -2.0444504e+54)
(-8.2655587e+55 7.9789272e+52 -8.10305e+53)
(-8.0355135e+55 -3.2088152e+53 -8.5312902e+53)
(-7.9418967e+55 8.5661473e+52 -6.3311913e+53)
(-8.1592512e+55 -1.1064939e+53 -1.235321e+54)
(-9.9966985e+55 -1.9079376e+54 3.9260487e+54)
(-8.7749431e+55 -1.4925988e+54 7.6752045e+54)
(-8.8217047e+55 4.2231586e+53 7.6314031e+54)
(-9.4275173e+55 -6.3155486e+53 7.7429793e+54)
(-9.4576872e+55 -2.3245418e+54 7.7255504e+54)
(-8.8618662e+55 -3.1061877e+52 7.8951567e+54)
(-8.8676707e+55 -1.6527788e+54 7.6225006e+54)
(-8.2058466e+55 -9.9473869e+53 -9.1920309e+54)
(-8.6365806e+55 -4.3117573e+52 -8.3223286e+54)
(-8.5838776e+55 -1.4019294e+54 -8.0032706e+54)
(-8.1671375e+55 -9.5524761e+53 -9.2322676e+54)
(-6.6315101e+55 -8.2863685e+53 -1.2189702e+55)
(-5.1691212e+55 -4.4761049e+54 1.2651168e+54)
(-6.7035979e+55 -1.7534345e+54 -1.2229495e+55)
(-5.0449938e+55 -1.3205106e+54 9.0779143e+53)
(-8.7658006e+55 -2.6256028e+54 -9.4393257e+54)
(-8.1797506e+55 -1.3280148e+54 -9.3701575e+54)
(-8.6426611e+55 -2.9764389e+53 -8.2906819e+54)
(-8.6105055e+55 -1.4808588e+54 -8.1313279e+54)
(-8.1462201e+55 -1.0242192e+54 -9.3526558e+54)
(-8.8738092e+55 -5.4473567e+54 -9.7161166e+54)
(-7.0429726e+55 -9.0193154e+54 7.6818909e+53)
(-6.8938768e+55 -3.79317e+54 4.0616591e+53)
(-6.6778316e+55 -2.111472e+54 -1.2221754e+55)
(-5.0891858e+55 -4.8383127e+54 8.5813748e+53)
(-6.6375938e+55 -1.0579269e+54 -1.2166006e+55)
(-5.0829556e+55 -1.8453344e+54 9.9574943e+53)
(-7.5988063e+55 -2.1373847e+54 1.0558245e+55)
(-7.6171106e+55 -2.5088568e+54 9.9644429e+54)
(-9.1490418e+55 -5.8678606e+53 1.1182326e+55)
(-9.1162444e+55 -3.0207597e+54 1.1403703e+55)
(-6.509216e+55 -1.6825477e+54 8.5840148e+54)
(-6.4708661e+55 -1.3240492e+54 8.2089175e+54)
(-8.2047244e+55 -2.7912298e+53 1.035136e+55)
(-8.2162738e+55 -1.5932315e+54 1.0131616e+55)
(-8.2346801e+55 -5.0030181e+53 9.9674922e+54)
(-6.4800308e+55 -1.3058573e+54 7.9823539e+54)
(-6.4487481e+55 -1.1057016e+54 8.2426194e+54)
(-8.2099283e+55 -1.8474536e+54 9.9892872e+54)
(-6.5262797e+55 -1.2894262e+54 8.5235869e+54)
(-8.2610046e+55 3.9492625e+52 1.016766e+55)
(-6.4607516e+55 -7.9808333e+53 8.0991375e+54)
(-8.2494402e+55 -1.0747969e+54 9.9450003e+54)
(-6.4754907e+55 -6.9562177e+53 7.8646298e+54)
(-8.1865478e+55 8.1138238e+51 9.8493369e+54)
(-6.4448427e+55 -6.4250993e+53 8.2604577e+54)
(-8.1440372e+55 -1.5515415e+54 9.9440612e+54)
(-9.1987337e+55 -8.5059233e+53 1.1487569e+55)
(-7.6475552e+55 -3.2519452e+54 1.0459095e+55)
(-7.5879578e+55 -2.4469586e+54 1.0220699e+55)
(-9.183381e+55 -2.556132e+54 1.1227697e+55)
(-9.51585e+55 -1.3062007e+54 -2.2093353e+54)
(-9.5839728e+55 -5.9233151e+53 -2.0535741e+54)
(-9.8833422e+55 -5.8369393e+53 3.6098059e+54)
(-9.8896038e+55 -2.1920759e+54 3.5420608e+54)
(-1.1969472e+56 -2.3211302e+54 -1.7812449e+54)
(-8.0174919e+55 -4.4805411e+53 -7.4161619e+53)
(-8.2112656e+55 1.2259084e+53 -3.4854452e+53)
(-8.2640785e+55 2.8006146e+52 -6.4964634e+53)
(-7.9329739e+55 -2.5140636e+53 -2.5862456e+53)
(-9.2843796e+55 -1.0412799e+53 5.9003837e+54)
(-9.2603728e+55 -1.5088693e+54 5.631575e+54)
(-8.9301049e+55 -1.0642992e+54 2.9713243e+53)
(-8.9285174e+55 -3.8127283e+53 4.3649625e+53)
(-9.024591e+55 -1.7492959e+53 -1.4497924e+54)
(-8.7421086e+55 -1.2175452e+53 -3.7643282e+54)
(-8.8013847e+55 -8.5297166e+53 -3.7182162e+54)
(-9.0190698e+55 -1.0481696e+54 -1.5922588e+54)
(-9.7752374e+55 -3.6476856e+52 -1.8377425e+54)
(-9.0107598e+55 -2.6436401e+53 -1.5237861e+54)
(-8.7436344e+55 -3.4128014e+53 -3.9696034e+54)
(-8.7577826e+55 -9.7747516e+53 -3.6426825e+54)
(-8.9913758e+55 -1.294437e+54 -1.2838653e+54)
(-9.7645776e+55 -1.4951055e+54 -1.6038427e+54)
(-9.0072878e+55 -1.0700954e+53 -5.1039474e+54)
(-8.9325273e+55 -5.1812187e+53 -4.9867576e+54)
(-8.1222103e+55 -9.5916692e+53 -3.4846959e+53)
(-8.2128743e+55 -2.6339672e+53 -3.4414265e+54)
(-8.0515511e+55 -3.7752736e+53 -2.8349251e+54)
(-8.2562549e+55 2.2607249e+53 -3.6799071e+53)
(-9.2137986e+55 8.8265984e+52 5.5362746e+54)
(-8.9147144e+55 -1.1341054e+53 4.4847531e+53)
(-8.9154191e+55 -1.2240978e+54 6.6905907e+53)
(-9.1248485e+55 -1.4961169e+54 5.4595593e+54)
(-7.739034e+55 -9.9563717e+53 6.9103867e+54)
(-7.7587935e+55 5.2737841e+53 6.7432555e+54)
(-7.7993727e+55 3.1150711e+53 6.897589e+54)
(-7.8040204e+55 -8.8160444e+53 6.6569051e+54)
(-8.7347961e+55 -1.9329616e+54 7.4993333e+54)
(-8.732472e+55 -1.8931693e+53 7.7445238e+54)
(-8.7127896e+55 7.7546593e+51 7.3567391e+54)
(-8.7330698e+55 -2.0282496e+54 7.7509038e+54)
(-7.790264e+55 -1.4099641e+54 6.9139402e+54)
(-7.772489e+55 8.5710672e+51 7.1712518e+54)
(-7.7857752e+55 -1.260483e+54 6.7459795e+54)
(-7.8081668e+55 -4.2769892e+51 6.7133764e+54)
(-9.9826788e+55 -1.4978904e+54 -8.2446577e+54)
(-9.9750698e+55 -1.4147646e+54 -8.2610962e+54)
(-8.702128e+55 -7.4290217e+53 -1.0644777e+55)
(-8.4837657e+55 3.3152648e+53 -6.449227e+54)
(-8.4421424e+55 -9.9533975e+53 -6.2236679e+54)
(-8.6773166e+55 -1.0519554e+54 -1.0601767e+55)
(-7.0481189e+55 1.2975451e+53 -1.1267843e+55)
(-5.8362563e+55 -4.7561921e+53 -1.3232635e+55)
(-5.7929751e+55 -7.9828045e+53 -1.3282218e+55)
(-6.9958553e+55 -8.5381252e+53 -1.1040774e+55)
(-4.0486187e+55 -1.173623e+54 -1.1853491e+55)
(-4.0262039e+55 -7.3203661e+53 -1.1643495e+55)
(-3.6406816e+55 -2.6217154e+54 3.2407603e+54)
(-3.6277998e+55 -6.133574e+53 3.5373603e+54)
(-7.0118331e+55 -7.5275365e+53 -1.1020197e+55)
(-7.0161023e+55 1.0391341e+53 -1.1157214e+55)
(-5.8164165e+55 -8.1033756e+53 -1.32179e+55)
(-5.8364739e+55 -6.936147e+53 -1.3348738e+55)
(-4.0370712e+55 -8.9412046e+53 -1.1747681e+55)
(-3.5541826e+55 -2.1700087e+53 3.1292669e+54)
(-3.6320084e+55 -2.077242e+54 3.4075773e+54)
(-8.1756025e+55 -1.6577732e+54 -9.0972106e+54)
(-8.6777074e+55 -8.320172e+53 -8.1398664e+54)
(-8.6151897e+55 -2.1499338e+54 -7.8917588e+54)
(-8.1090008e+55 -1.545251e+54 -9.2327039e+54)
(-8.6598608e+55 -8.3605008e+53 -1.0781765e+55)
(-8.5080852e+55 2.2915011e+53 -6.5437611e+54)
(-8.5442083e+55 -1.2041331e+54 -6.4684759e+54)
(-8.6519263e+55 -1.2200211e+54 -1.0795469e+55)
(-8.6080323e+55 -2.1132078e+54 -7.9356079e+54)
(-8.6290134e+55 -9.7202728e+53 -8.0508967e+54)
(-8.1486554e+55 -2.0713413e+54 -9.2167054e+54)
(-8.122897e+55 -1.7057198e+54 -9.299406e+54)
(-6.6702243e+55 -3.0456466e+54 -1.2061973e+55)
(-6.6140143e+55 -1.8052941e+54 -1.2044197e+55)
(-5.0542221e+55 -6.0292379e+54 8.823056e+53)
(-5.0295576e+55 -2.8787878e+54 8.5380267e+53)
(-6.6754426e+55 -2.3954947e+54 -1.2087754e+55)
(-6.5737628e+55 -1.4670277e+54 -1.2042357e+55)
(-5.1079031e+55 -5.1334705e+54 1.0218734e+54)
(-5.0157623e+55 -2.0560739e+54 9.5506149e+53)
(-6.9866328e+55 -9.7569142e+53 -1.1140322e+55)
(-6.9892806e+55 -1.4590432e+53 -1.1218805e+55)
(-5.8136823e+55 -9.1224127e+53 -1.3388847e+55)
(-5.8060259e+55 -1.0624717e+54 -1.3267177e+55)
(-4.024702e+55 -1.3972851e+54 -1.1871153e+55)
(-4.0262573e+55 -1.0903735e+54 -1.1652354e+55)
(-3.6117756e+55 -2.9667338e+54 3.2570419e+54)
(-3.623102e+55 -1.1022787e+54 3.5073968e+54)
(-6.9702651e+55 -1.0414977e+54 -1.1140582e+55)
(-6.9916079e+55 -4.9377583e+52 -1.1225597e+55)
(-5.79737e+55 -1.0883854e+54 -1.3402451e+55)
(-5.8170618e+55 -7.4086559e+53 -1.3276963e+55)
(-4.0420399e+55 -1.2712973e+54 -1.1762378e+55)
(-3.9879657e+55 -1.0069119e+54 -1.1813897e+55)
(-3.6403448e+55 -2.6745689e+54 3.3039651e+54)
(-3.5637452e+55 -7.4535848e+53 3.1052988e+54)
(-6.4601031e+55 -1.2418783e+54 8.0322213e+54)
(-6.4363282e+55 -1.3292057e+54 8.3905791e+54)
(-8.113627e+55 -2.1433233e+54 1.0073929e+55)
(-8.1522576e+55 -5.3790753e+53 9.9440371e+54)
(-6.424093e+55 -1.6873945e+54 8.0360292e+54)
(-6.3968959e+55 -1.3074195e+54 7.8150231e+54)
(-8.1103536e+55 -3.1962669e+53 9.5511556e+54)
(-8.1142548e+55 -1.5861258e+54 9.4002728e+54)
(-5.6515015e+55 -1.3364382e+54 7.9413196e+54)
(-5.6383757e+55 -1.1251761e+54 7.7109561e+54)
(-7.0807655e+55 -1.1685988e+54 9.3104346e+54)
(-7.0657439e+55 -3.0721836e+53 9.4138775e+54)
(-5.6434346e+55 -1.1643709e+54 7.5383452e+54)
(-5.6080865e+55 -8.3933451e+53 7.6872704e+54)
(-7.0688451e+55 -1.3829434e+54 9.0940423e+54)
(-7.0911111e+55 -6.3323069e+53 9.0596679e+54)
(-5.6374765e+55 -1.092558e+54 7.6891029e+54)
(-5.5965644e+55 -7.2640042e+53 7.4216855e+54)
(-7.0843987e+55 -9.497395e+53 8.8369202e+54)
(-7.0801917e+55 -2.209249e+53 8.9703598e+54)
(-5.625145e+55 -7.6592407e+53 7.5150708e+54)
(-5.5928513e+55 -6.7056265e+53 7.690761e+54)
(-7.090217e+55 -3.8982349e+53 9.0225103e+54)
(-7.0593338e+55 -1.2833887e+54 9.0602732e+54)
(-7.0938074e+55 -1.1976433e+52 9.2547727e+54)
(-5.6465446e+55 -9.3085774e+53 7.9085421e+54)
(-5.6246906e+55 -6.3992661e+53 7.6366876e+54)
(-7.1058502e+55 -7.645262e+53 9.1264071e+54)
(-5.6189427e+55 -6.2923473e+53 7.466328e+54)
(-5.5819216e+55 -2.6901478e+53 7.5642159e+54)
(-7.0776418e+55 -8.7070724e+53 8.9717862e+54)
(-7.1055916e+55 -1.5410792e+53 8.9539853e+54)
(-5.6413331e+55 -4.9009109e+53 7.672734e+54)
(-5.6136982e+55 -1.6862609e+53 7.4124991e+54)
(-7.0921247e+55 2.6947368e+53 8.9774921e+54)
(-7.0917637e+55 -4.5603141e+53 8.8020005e+54)
(-7.0815527e+55 3.4817421e+52 9.0929254e+54)
(-5.6103375e+55 -1.6942573e+53 7.424479e+54)
(-5.5944e+55 -1.5338651e+53 7.6802804e+54)
(-7.0516074e+55 -9.2306786e+53 9.1545653e+54)
(-6.4041998e+55 -1.9090452e+54 8.0520272e+54)
(-8.1371697e+55 -1.9683631e+54 9.8297913e+54)
(-8.1545853e+55 -6.9421906e+53 1.0285566e+55)
(-6.4255171e+55 -2.0955323e+54 8.4973488e+54)
(-6.4409028e+55 -1.8530585e+54 7.9285195e+54)
(-6.3975599e+55 -1.6131291e+54 8.2156762e+54)
(-8.1263136e+55 -2.1867607e+54 9.7950058e+54)
(-8.1613237e+55 -8.7360542e+53 9.7363637e+54)
(-8.9645376e+55 -1.2705427e+54 -1.4455093e+54)
(-8.7436307e+55 -7.8662084e+53 -3.7099646e+54)
(-8.7026301e+55 -6.1283207e+53 -4.1838972e+54)
(-8.9206344e+55 -5.8071676e+53 -1.879979e+54)
(-9.5948455e+55 -1.4921947e+54 -2.2167917e+54)
(-8.9682423e+55 -3.8036555e+53 -1.2498892e+54)
(-8.6803361e+55 -3.8563226e+53 -3.7014796e+54)
(-8.716941e+55 -9.040471e+53 -3.6916101e+54)
(-9.682635e+55 -1.4838944e+53 -1.7861941e+54)
(-8.9300507e+55 -1.1965798e+54 -1.5588614e+54)
(-9.1315616e+55 -2.3886007e+53 5.6611284e+54)
(-9.1042721e+55 -1.7214467e+54 5.3412753e+54)
(-8.8393093e+55 -1.3136156e+54 4.4813434e+53)
(-8.8487914e+55 -4.1981816e+53 6.6974875e+53)
(-8.8464564e+55 -5.2663992e+53 1.734719e+53)
(-9.0861474e+55 -3.290878e+53 5.0803044e+54)
(-8.8805296e+55 -1.391459e+54 6.2714697e+53)
(-9.0973909e+55 -1.8507715e+54 5.409797e+54)
(-8.6776238e+55 -8.1003686e+53 -5.0638885e+54)
(-8.1000371e+55 -7.6865543e+53 -1.9432316e+53)
(-8.0248608e+55 -2.9412271e+53 -2.6514471e+54)
(-8.0878486e+55 -2.109054e+53 -2.7596371e+54)
(-8.2185e+55 5.8765061e+52 -4.8283798e+52)
(-7.8264421e+55 -1.128241e+54 2.7612605e+54)
(-7.8381716e+55 -2.7536593e+53 3.0219228e+54)
(-8.1809594e+55 1.9343507e+52 6.9427865e+54)
(-8.179034e+55 -1.3445167e+54 6.6597249e+54)
(-7.827715e+55 -9.1008766e+53 2.6971742e+54)
(-7.8335138e+55 -2.0560179e+53 2.6227347e+54)
(-8.2083941e+55 -1.6856133e+53 6.5407716e+54)
(-8.1707471e+55 -1.3043342e+54 6.5245684e+54)
(-7.9223611e+55 -2.5552781e+53 9.7464509e+53)
(-7.6464794e+55 -3.1302735e+53 -1.3485736e+54)
(-7.6335011e+55 -5.7809491e+53 -1.3258437e+54)
(-7.898677e+55 -8.9391708e+53 9.936122e+53)
(-7.9383573e+55 -2.2463575e+53 1.3659276e+54)
(-7.6365484e+55 -6.902349e+53 -1.3017416e+54)
(-7.6326252e+55 -4.0132138e+53 -1.0766492e+54)
(-7.9198833e+55 -9.7211759e+53 1.1086544e+54)
(-7.7309994e+55 -3.3916497e+53 -1.5479979e+54)
(-7.5899543e+55 -4.5220435e+53 -3.0453574e+54)
(-7.5905531e+55 -4.7332263e+53 -2.8195008e+54)
(-7.7305684e+55 -6.1986799e+53 -1.7491777e+54)
(-7.7552229e+55 -4.742805e+53 -3.0444594e+54)
(-7.7555953e+55 -3.6562171e+53 -2.8282889e+54)
(-7.6753149e+55 -4.5153326e+53 -3.4641715e+54)
(-7.6652282e+55 -3.5381498e+53 -3.7400713e+54)
(-8.8192553e+55 9.019204e+52 -4.0475298e+54)
(-7.6907975e+55 -4.935895e+53 -3.6488468e+54)
(-7.7056585e+55 -5.0134271e+53 -3.5879239e+54)
(-7.7773061e+55 -4.306718e+53 -2.9507583e+54)
(-8.9472406e+55 -9.7861511e+53 -3.8865193e+54)
(-7.7646702e+55 -6.3512955e+53 -2.9651725e+54)
(-7.6154961e+55 -5.2906852e+53 -2.9279298e+54)
(-7.6182278e+55 -4.2661998e+53 -2.9418942e+54)
(-7.7270678e+55 -3.2140184e+53 -1.8485762e+54)
(-7.7061047e+55 -5.7999491e+53 -1.8723875e+54)
(-8.6854759e+55 -8.8774008e+53 -5.5950633e+54)
(-8.6562897e+55 3.0119368e+53 -5.5912145e+54)
(-7.7486028e+55 -2.3413176e+53 -1.6898684e+54)
(-7.6086219e+55 -3.4061815e+53 -3.2156941e+54)
(-7.628916e+55 -4.4679417e+53 -2.9552985e+54)
(-7.7321057e+55 -4.5070369e+53 -1.9185752e+54)
(-7.6929252e+55 -3.1983331e+53 -3.9986075e+54)
(-7.7290301e+55 -6.1060352e+53 -3.6364761e+54)
(-7.7674936e+55 -4.2780842e+53 -3.2588161e+54)
(-7.7881688e+55 -4.4916182e+53 -2.995759e+54)
(-8.8097815e+55 -3.9665197e+53 -4.3317234e+54)
(-7.7320953e+55 -4.6943201e+53 -3.42665e+54)
(-7.7969448e+55 -3.7517585e+53 -2.7472772e+54)
(-7.7424354e+55 -1.9811771e+53 -1.5900893e+54)
(-7.6357898e+55 -3.1540906e+53 -2.7142426e+54)
(-7.7130199e+55 -6.3123365e+53 -1.5970771e+54)
(-8.5395314e+55 -2.5346786e+53 -6.1597741e+54)
(-9.8247694e+55 1.1370879e+53 -3.1714031e+54)
(-8.2834273e+55 7.164312e+53 -7.3367221e+54)
(-8.9252313e+55 5.1837565e+53 -5.101031e+54)
(-9.0065027e+55 -9.4783493e+53 -4.8350955e+54)
(-8.3028256e+55 -3.5136928e+53 -7.3063562e+54)
(-7.9224498e+55 4.301974e+53 -7.607553e+54)
(-8.7732329e+55 -2.6727229e+53 -6.1071541e+54)
(-8.204963e+55 2.6604771e+53 6.7073882e+54)
(-8.2018347e+55 -8.8957819e+53 6.4933527e+54)
(-7.8506956e+55 6.9691823e+52 2.8323246e+54)
(-7.8437697e+55 -6.5306229e+53 2.6148327e+54)
(-7.9469276e+55 4.8692234e+52 1.2043499e+54)
(-7.9291256e+55 -6.1001432e+53 9.6803021e+53)
(-7.6430149e+55 -1.5584056e+53 -1.164328e+54)
(-7.6425363e+55 -4.2820802e+53 -1.4125433e+54)
(-7.6374419e+55 -6.1760399e+53 -9.9065251e+53)
(-7.6590377e+55 -7.6298393e+52 -1.020413e+54)
(-7.9181227e+55 3.1864369e+52 1.2854268e+54)
(-7.8875763e+55 -8.9266791e+53 1.3415537e+54)
(-7.8319945e+55 -8.505971e+53 3.130482e+54)
(-7.8404829e+55 2.3126212e+53 2.9954317e+54)
(-8.1516725e+55 2.5929595e+53 6.5839199e+54)
(-8.1084597e+55 -1.0870667e+54 6.6387247e+54)
(-6.6812094e+55 -5.9623698e+53 6.8725561e+54)
(-6.6954223e+55 4.4394979e+53 6.7020437e+54)
(-6.7007521e+55 4.7428745e+53 6.6232603e+54)
(-6.7134872e+55 -3.8385877e+53 6.4860947e+54)
(-6.7047976e+55 2.3024679e+53 6.8640142e+54)
(-6.7272805e+55 -7.24727e+53 6.7084882e+54)
(-6.712031e+55 2.1576086e+53 6.4537239e+54)
(-6.6972334e+55 -5.4552355e+53 6.5299596e+54)
(-7.7266893e+55 -3.622483e+53 6.5451862e+54)
(-7.7099992e+55 -1.5952889e+54 6.6691288e+54)
(-7.7166996e+55 -2.9496817e+53 7.1406395e+54)
(-7.7231953e+55 -1.7240142e+54 6.7511057e+54)
(-7.680133e+55 -6.6060419e+52 6.4957955e+54)
(-7.7065823e+55 -1.3583173e+54 6.393813e+54)
(-7.7203311e+55 -1.5048069e+54 7.0545538e+54)
(-7.7317634e+55 3.1549614e+52 6.8036262e+54)
(-6.6968078e+55 -2.7852923e+53 6.6219213e+54)
(-6.6870659e+55 -1.080717e+54 6.7072889e+54)
(-6.6766321e+55 -1.2304144e+53 7.0486758e+54)
(-6.702511e+55 -1.1836768e+54 6.9166716e+54)
(-6.6859116e+55 -8.616533e+53 6.7402171e+54)
(-6.6992131e+55 4.81913e+52 6.6303417e+54)
(-6.6884704e+55 -2.9075847e+52 6.6007255e+54)
(-6.7049472e+55 -8.6658509e+53 6.4592155e+54)
(-9.9979843e+55 -2.3219016e+54 -8.0352718e+54)
(-9.9519347e+55 -2.2448321e+54 -8.079111e+54)
(-1.011702e+56 -9.672958e+53 -4.7637376e+54)
(-8.9237789e+55 -5.8045013e+53 -8.8441131e+54)
(-7.0559233e+55 -8.8665474e+53 -1.1493543e+55)
(-7.0599537e+55 2.8767345e+53 -1.1594243e+55)
(-7.0388315e+55 -7.673509e+53 -1.1476276e+55)
(-7.0673128e+55 3.6410029e+53 -1.1537955e+55)
(-6.103822e+55 -4.8149679e+53 -1.4275874e+55)
(-4.1876422e+55 -1.7929562e+53 -1.2337045e+55)
(-4.1932734e+55 -5.0852154e+53 -1.2176705e+55)
(-3.0072902e+55 -6.1290544e+53 -1.3519755e+55)
(-2.9745837e+55 -7.7424677e+53 -1.3395702e+55)
(-4.1793242e+55 -1.042878e+53 -1.2154253e+55)
(-4.1780941e+55 -4.7956075e+53 -1.2245376e+55)
(-2.977839e+55 -4.0461319e+53 -1.3299055e+55)
(-2.9442368e+55 -6.5049815e+53 -1.3604929e+55)
(-2.4047582e+55 -1.3916375e+54 -3.7182498e+54)
(-2.4088765e+55 -1.3339933e+54 -3.059564e+54)
(-3.5449185e+55 -4.0356651e+53 5.3303338e+54)
(-3.5386004e+55 -1.3463069e+54 5.2986514e+54)
(-3.5601834e+55 -9.2643663e+53 5.4289822e+54)
(-3.4873692e+55 7.3367453e+52 5.0969363e+54)
(-2.4238253e+55 -1.0851016e+54 -3.1184644e+54)
(-2.3519136e+55 -1.0241811e+54 -3.649867e+54)
(-6.0951001e+55 -8.8174787e+53 -1.4329525e+55)
(-6.1126725e+55 -6.9123975e+53 -1.4412255e+55)
(-4.1815864e+55 6.9695848e+52 -1.2250098e+55)
(-4.1750747e+55 -2.6643863e+53 -1.2071421e+55)
(-2.9731938e+55 -2.3652792e+53 -1.3516435e+55)
(-2.9373478e+55 -4.4613209e+53 -1.33365e+55)
(-2.4089409e+55 -7.4347841e+53 -2.8979744e+54)
(-3.5427806e+55 -3.8425173e+53 5.4079216e+54)
(-2.3815951e+55 -9.7598071e+53 -3.6633503e+54)
(-3.5263569e+55 -8.6942286e+53 5.1596992e+54)
(-2.3779737e+55 -9.1210114e+53 -2.9969438e+54)
(-3.5023284e+55 1.7625369e+53 5.1567023e+54)
(-8.6666381e+55 -1.2781459e+54 -1.0527113e+55)
(-8.5466956e+55 -3.5346436e+53 -6.2098447e+54)
(-8.5040126e+55 -1.5740369e+54 -6.1228018e+54)
(-8.619936e+55 -1.4672648e+54 -1.0561861e+55)
(-8.8735013e+55 -5.3889907e+53 -9.083972e+54)
(-7.0411562e+55 9.6482934e+52 -1.1671209e+55)
(-7.0274553e+55 -1.0604464e+54 -1.1645964e+55)
(-8.852864e+55 6.616912e+52 -5.0648879e+54)
(-8.9094622e+55 -1.0314119e+54 -5.230906e+54)
(-8.8729841e+55 -9.7274885e+53 -8.9819027e+54)
(-7.0288406e+55 1.8916006e+53 -1.1626765e+55)
(-7.0230555e+55 -1.0065799e+54 -1.1633155e+55)
(-8.5847813e+55 -1.7534826e+54 -6.3010963e+54)
(-8.5138866e+55 -2.9274028e+53 -6.2750194e+54)
(-8.6304754e+55 -1.4182996e+54 -1.0544348e+55)
(-8.6316247e+55 -1.7396166e+54 -1.07193e+55)
(-5.7627709e+55 -1.5395124e+54 -1.3174497e+55)
(-6.9635155e+55 -7.3740629e+53 -1.1002402e+55)
(-6.9617224e+55 -1.4758135e+54 -1.0925257e+55)
(-5.7594678e+55 -1.6016895e+54 -1.3103873e+55)
(-5.7792325e+55 -1.1783545e+54 -1.3178021e+55)
(-6.9662697e+55 -5.0720547e+53 -1.112316e+55)
(-6.944581e+55 -1.5342355e+54 -1.1078082e+55)
(-5.7617206e+55 -1.5460422e+54 -1.3364795e+55)
(-4.0179711e+55 -2.2592695e+54 -1.1673156e+55)
(-3.9998354e+55 -1.7753122e+54 -1.1525496e+55)
(-3.5663045e+55 -3.7249865e+54 3.0477945e+54)
(-3.5634327e+55 -1.9363643e+54 3.206608e+54)
(-4.0349438e+55 -1.8383531e+54 -1.1688014e+55)
(-3.9773079e+55 -1.5935942e+54 -1.1805993e+55)
(-3.6152636e+55 -3.4203735e+54 3.2636071e+54)
(-3.5605312e+55 -1.5217233e+54 3.2187132e+54)
(-5.8033884e+55 -1.1316635e+54 -1.3253125e+55)
(-6.9858859e+55 -3.862798e+53 -1.1040793e+55)
(-6.9708157e+55 -1.2037697e+54 -1.0914834e+55)
(-5.7753096e+55 -1.2310574e+54 -1.317856e+55)
(-5.7690823e+55 -8.7706993e+53 -1.3162642e+55)
(-6.9548047e+55 -2.6799393e+53 -1.1013736e+55)
(-6.9358049e+55 -1.2796452e+54 -1.1005916e+55)
(-5.7589401e+55 -1.2493809e+54 -1.3352073e+55)
(-4.0317024e+55 -1.7193253e+54 -1.1809938e+55)
(-3.9943711e+55 -1.2487939e+54 -1.1612985e+55)
(-3.5858691e+55 -3.1923621e+54 2.9946936e+54)
(-3.5647175e+55 -1.1133004e+54 3.201724e+54)
(-3.9583745e+55 -1.1626453e+54 -1.177731e+55)
(-3.6056658e+55 -2.645279e+54 3.3233212e+54)
(-4.0049361e+55 -1.3663044e+54 -1.1620678e+55)
(-3.5392373e+55 -8.7479631e+53 3.1331301e+54)
(-6.0841383e+55 -8.1768029e+53 -1.4442481e+55)
(-6.0833468e+55 -1.0682413e+54 -1.4393138e+55)
(-4.1728373e+55 -3.9108578e+53 -1.2373168e+55)
(-4.1767709e+55 -7.3790954e+53 -1.2212823e+55)
(-2.9927573e+55 -8.1444385e+53 -1.35692e+55)
(-2.9664001e+55 -1.0464008e+54 -1.3405917e+55)
(-4.1730149e+55 -3.8079948e+53 -1.2203254e+55)
(-4.1729457e+55 -7.8063429e+53 -1.2304627e+55)
(-2.9787009e+55 -7.0520633e+53 -1.3349764e+55)
(-2.9484396e+55 -1.0345112e+54 -1.3641526e+55)
(-3.5144391e+55 -1.7774709e+54 5.1741162e+54)
(-3.5640709e+55 -1.0311323e+54 5.5232959e+54)
(-2.3613939e+55 -1.4812088e+54 -4.1847082e+54)
(-2.4142391e+55 -1.5944032e+54 -3.0803815e+54)
(-3.5630301e+55 -1.5378958e+54 5.416243e+54)
(-3.512039e+55 -5.7657724e+53 5.2157159e+54)
(-2.4142378e+55 -1.3664971e+54 -3.3337814e+54)
(-2.3641141e+55 -1.4208227e+54 -3.601263e+54)
(-6.0815665e+55 -1.0026661e+54 -1.4444563e+55)
(-6.0960133e+55 -7.25301e+53 -1.4357117e+55)
(-4.1751482e+55 -2.2203532e+53 -1.2299365e+55)
(-4.1747599e+55 -5.5822295e+53 -1.2131053e+55)
(-2.9897988e+55 -6.2177433e+53 -1.3560631e+55)
(-2.9554415e+55 -8.1437244e+53 -1.3396641e+55)
(-4.1799741e+55 -2.2650663e+53 -1.2230148e+55)
(-4.1751525e+55 -7.1458943e+53 -1.2354108e+55)
(-2.9768568e+55 -5.1783115e+53 -1.3369388e+55)
(-2.9507888e+55 -9.7019431e+53 -1.3676699e+55)
(-2.387003e+55 -1.3795706e+54 -3.8804193e+54)
(-3.5276533e+55 -1.5129209e+54 5.0980818e+54)
(-2.4002362e+55 -1.3536618e+54 -3.0232026e+54)
(-3.5204005e+55 -4.7036886e+53 5.1946896e+54)
(-2.4157518e+55 -1.1658594e+54 -3.1551216e+54)
(-2.3482693e+55 -1.3380009e+54 -3.6586579e+54)
(-3.5341857e+55 -1.0235504e+54 5.2766064e+54)
(-3.4741084e+55 -3.0287708e+53 5.0205485e+54)
(-5.6374388e+55 -9.998589e+53 7.7917833e+54)
(-5.6005397e+55 -7.0159674e+53 7.4809601e+54)
(-7.0648614e+55 -9.5821467e+53 8.882105e+54)
(-7.0590242e+55 -1.8279275e+53 8.981565e+54)
(-5.6264761e+55 -7.7861999e+53 7.6045882e+54)
(-7.0655459e+55 -4.9423324e+53 9.1948997e+54)
(-5.6178887e+55 -8.5207321e+53 7.8638654e+54)
(-7.0413523e+55 -1.5105297e+54 9.2826911e+54)
(-5.5669819e+55 -1.4099655e+54 7.5244725e+54)
(-5.554582e+55 -1.1598773e+54 7.3111569e+54)
(-6.9917329e+55 -4.3834714e+53 8.7948044e+54)
(-7.0103601e+55 -1.2050153e+54 8.7075847e+54)
(-7.0256736e+55 -6.265788e+53 8.6196208e+54)
(-5.5677998e+55 -1.1124587e+54 7.2123094e+54)
(-5.5583698e+55 -8.5645811e+53 7.4765678e+54)
(-7.0094197e+55 -1.3785468e+54 8.6940029e+54)
(-4.8899129e+55 -9.4866675e+53 7.2812672e+54)
(-4.8876373e+55 -1.2602706e+54 7.4638454e+54)
(-6.1520985e+55 -3.4965101e+53 8.154452e+54)
(-6.1513646e+55 -9.6625143e+53 8.0466669e+54)
(-4.8829011e+55 -7.4867329e+53 7.3664862e+54)
(-4.8676482e+55 -1.2524999e+54 7.069905e+54)
(-6.1779078e+55 -6.9356684e+53 7.9544314e+54)
(-6.162676e+55 -1.2330847e+54 7.8283476e+54)
(-4.8694889e+55 -7.316479e+53 7.1483531e+54)
(-4.8526551e+55 -1.3705646e+54 7.1467129e+54)
(-6.1636287e+55 -4.7058089e+53 7.7195927e+54)
(-6.1720436e+55 -8.4714997e+53 7.7407428e+54)
(-4.8685411e+55 -4.8565029e+53 7.4062717e+54)
(-4.8561614e+55 -9.3583123e+53 7.0613903e+54)
(-6.1524232e+55 -4.2410958e+53 7.8406588e+54)
(-6.138078e+55 -1.1136458e+54 7.8054496e+54)
(-4.8603161e+55 -7.0472576e+53 7.1607805e+54)
(-4.8506988e+55 -1.116679e+54 7.2175731e+54)
(-6.1413186e+55 -2.2709891e+53 7.7057238e+54)
(-6.1612688e+55 -7.9253921e+53 7.8282372e+54)
(-4.8412238e+55 -3.4857032e+53 7.2305836e+54)
(-4.841786e+55 -9.0887823e+53 6.9697922e+54)
(-6.1603718e+55 -3.6441525e+53 7.5983512e+54)
(-6.1461215e+55 -9.1191143e+53 7.5391504e+54)
(-6.1678022e+55 -9.1545164e+52 7.7498287e+54)
(-4.8547507e+55 -8.957717e+53 7.2646413e+54)
(-4.8619011e+55 -2.8747993e+53 7.2021388e+54)
(-6.1713169e+55 -5.4555802e+53 7.7568325e+54)
(-4.8705131e+55 -3.0606135e+53 7.5048995e+54)
(-4.856037e+55 -5.0771792e+53 7.1356134e+54)
(-6.1533303e+55 -1.4584804e+53 7.8956838e+54)
(-6.1347826e+55 -9.0803052e+53 7.849429e+54)
(-4.8602136e+55 -4.2664955e+53 7.2218512e+54)
(-4.8871357e+55 -8.7047569e+53 7.55944e+54)
(-6.1646447e+55 5.251171e+51 8.0824118e+54)
(-6.1597054e+55 -5.8736021e+53 7.9067708e+54)
(-4.8926327e+55 -2.2655106e+53 7.4399525e+54)
(-4.8621251e+55 -6.7688896e+53 7.0676548e+54)
(-6.1747193e+55 -2.4489123e+53 7.7268236e+54)
(-6.1741682e+55 -8.0102373e+53 7.8299988e+54)
(-4.8637323e+55 -7.8994583e+53 7.2662729e+54)
(-6.1576281e+55 5.3547629e+52 7.5732996e+54)
(-4.8567198e+55 -5.0149968e+52 7.1759084e+54)
(-6.1712093e+55 -3.5590747e+53 7.6901646e+54)
(-6.1496879e+55 9.5100544e+52 7.7414206e+54)
(-4.8531698e+55 -2.6701967e+53 7.0786236e+54)
(-4.8571774e+55 1.5595061e+53 7.3946324e+54)
(-6.1310051e+55 -5.62645e+53 7.6972391e+54)
(-4.8613318e+55 -1.1281618e+53 7.117959e+54)
(-4.8756831e+55 -4.3365771e+53 7.3333185e+54)
(-6.1692027e+55 3.2665364e+53 7.7935166e+54)
(-6.1735981e+55 -2.8561429e+53 7.7554391e+54)
(-6.1832857e+55 8.7988275e+52 7.6383337e+54)
(-4.8582061e+55 -1.8172047e+53 7.0261992e+54)
(-4.8657251e+55 2.6436508e+53 7.2706756e+54)
(-6.1782595e+55 -3.9853468e+53 7.6830356e+54)
(-4.8528343e+55 3.4167671e+53 7.1330367e+54)
(-4.8798482e+55 -2.5468435e+53 7.4209406e+54)
(-6.1750278e+55 4.0247004e+53 7.8041154e+54)
(-6.1725149e+55 -1.0696472e+53 7.7087774e+54)
(-4.8737413e+55 1.9090257e+53 7.5049473e+54)
(-4.866398e+55 7.4935488e+52 7.2316572e+54)
(-6.1636448e+55 1.7046307e+53 8.0282905e+54)
(-6.1457507e+55 -5.7956034e+53 7.9692882e+54)
(-5.5754656e+55 -1.6223744e+54 7.4078983e+54)
(-5.5609168e+55 -1.3086004e+54 7.6041234e+54)
(-7.0214323e+55 -1.0848741e+54 8.7881934e+54)
(-7.0083624e+55 -1.8131614e+54 8.8309325e+54)
(-5.5719887e+55 -1.5177856e+54 7.9128349e+54)
(-5.5517134e+55 -1.5412372e+54 7.6857801e+54)
(-6.9971686e+55 -5.9651839e+53 9.2848987e+54)
(-7.0107494e+55 -1.5067567e+54 9.2382386e+54)
(-7.0300152e+55 -6.8714723e+53 8.7751086e+54)
(-5.5781552e+55 -1.5887335e+54 7.5390493e+54)
(-5.5451044e+55 -1.2372298e+54 7.2582505e+54)
(-7.0229228e+55 -1.3166974e+54 8.5983098e+54)
(-5.5722258e+55 -1.2261184e+54 7.400074e+54)
(-5.544503e+55 -1.1372433e+54 7.6119309e+54)
(-7.0220108e+55 -7.8181802e+53 8.8742245e+54)
(-6.9932968e+55 -1.6805077e+54 8.9271346e+54)
(-7.6107814e+55 -5.9694015e+53 -2.6980977e+54)
(-7.623854e+55 -4.0258274e+53 -2.7444157e+54)
(-7.7141225e+55 -7.8231172e+53 -1.4932155e+54)
(-7.7388272e+55 -3.2997172e+53 -1.5329258e+54)
(-7.7668632e+55 -6.3141168e+53 -2.7642202e+54)
(-7.7873802e+55 -3.5130872e+53 -2.7796088e+54)
(-7.7128654e+55 -3.7420566e+53 -3.4791729e+54)
(-7.6942141e+55 -4.3170813e+53 -3.4890522e+54)
(-8.868295e+55 -7.1148718e+53 -3.9597482e+54)
(-7.7242633e+55 -5.6995306e+53 -3.1142606e+54)
(-7.6559874e+55 -2.7843971e+53 -3.9565545e+54)
(-7.6406874e+55 -6.8006537e+53 -3.8774823e+54)
(-7.7334514e+55 -4.8643205e+53 -3.218124e+54)
(-8.7709636e+55 -5.7297138e+53 -4.5100124e+54)
(-7.5733421e+55 -4.6702108e+53 -3.1548062e+54)
(-7.5567631e+55 -5.8574818e+53 -3.0616906e+54)
(-7.6627115e+55 -4.5428786e+53 -1.9280217e+54)
(-7.6742605e+55 -6.2341946e+53 -2.029828e+54)
(-8.4908605e+55 -3.1189359e+53 -6.2623367e+54)
(-8.5840614e+55 -3.1651251e+53 -5.5597787e+54)
(-7.5579848e+55 -5.68226e+53 -2.8718973e+54)
(-7.7035345e+55 -7.7561135e+53 -1.5548319e+54)
(-7.7337376e+55 -5.8541839e+53 -2.8917992e+54)
(-7.6387013e+55 -4.741329e+53 -3.6178508e+54)
(-7.6571408e+55 -6.1797164e+53 -3.471713e+54)
(-7.7269031e+55 -5.3635216e+53 -2.8217518e+54)
(-8.8634699e+55 -1.0344305e+54 -3.8690518e+54)
(-7.625841e+55 -5.9111701e+53 -3.6293033e+54)
(-7.6852672e+55 -7.1970175e+53 -2.9850921e+54)
(-8.5821974e+55 -8.2604593e+53 -5.5606018e+54)
(-7.5468299e+55 -6.6416036e+53 -2.8673945e+54)
(-7.6424685e+55 -7.8961999e+53 -1.8293095e+54)
(-7.5664197e+55 -5.6798148e+53 -2.8077133e+54)
(-7.6713919e+55 -5.1502597e+53 -1.7404654e+54)
(-8.1145701e+55 -1.9561846e+53 6.9081728e+54)
(-7.7819481e+55 -1.3139101e+54 2.9308942e+54)
(-8.1021277e+55 -1.5565238e+54 6.5511346e+54)
(-7.7693524e+55 -1.2412328e+54 2.8158284e+54)
(-7.7773764e+55 -4.7992174e+53 2.7279549e+54)
(-8.0851939e+55 -1.6091091e+54 6.430577e+54)
(-8.1102079e+55 -4.8224903e+53 6.3737851e+54)
(-7.8551951e+55 -5.0338363e+53 1.0786595e+54)
(-7.593161e+55 -5.382328e+53 -1.1906048e+54)
(-7.8323914e+55 -1.1830883e+54 1.0873188e+54)
(-7.5729872e+55 -8.5413668e+53 -1.2108168e+54)
(-7.602246e+55 -8.7184488e+53 -1.0647971e+54)
(-7.8712303e+55 -1.1300375e+54 1.2670873e+54)
(-7.5696088e+55 -4.3463488e+53 -1.3595146e+54)
(-7.5941726e+55 -6.6259243e+53 -1.4300978e+54)
(-7.8553915e+55 -9.095208e+53 8.689977e+53)
(-7.8409392e+55 -2.7658806e+53 9.620641e+53)
(-7.7797318e+55 -1.015152e+54 2.5919611e+54)
(-7.7563948e+55 -2.5716774e+53 2.6794669e+54)
(-8.0749946e+55 -1.0508888e+53 6.291111e+54)
(-8.0919374e+55 -1.2577825e+54 6.1748436e+54)
(-7.9061343e+55 -2.2736926e+53 1.303909e+54)
(-7.6436902e+55 -2.7349246e+53 -1.0128829e+54)
(-7.6280069e+55 -8.3188e+53 -9.2426181e+53)
(-7.883453e+55 -1.1744273e+54 1.4103792e+54)
(-7.819543e+55 -1.1890937e+54 3.1850098e+54)
(-7.8221298e+55 -1.1272091e+53 3.0039926e+54)