/*--------------------------------*- C++ -*----------------------------------*\
  =========                 |
  \\      /  F ield         | OpenFOAM: The Open Source CFD Toolbox
   \\    /   O peration     | Website:  https://openfoam.org
    \\  /    A nd           | Version:  7
     \\/     M anipulation  |
\*---------------------------------------------------------------------------*/
FoamFile
{
    version     2.0;
    format      ascii;
    class       volVectorField;
    location    "2000";
    object      UMean;
}
// * * * * * * * * * * * * * * * * * * * * * * * * * * * * * * * * * * * * * //

dimensions      [0 1 -1 0 0 0 0];

internalField   nonuniform List<vector> 
33733
(
(-4.9631751e+12 4.0066734e+10 -2.8938027e+10)
(-4.172756e+12 2.3347656e+10 4.4315722e+09)
(-4.9970658e+12 4.119636e+10 1.402067e+10)
(-4.157518e+12 -1.5389659e+10 -3.4056765e+10)
(-4.2534634e+12 3.4061282e+10 -2.2212431e+08)
(-5.0516351e+12 -1.1345842e+11 -4.7893712e+10)
(-3.7794882e+12 -5.900963e+10 -6.8862982e+10)
(-3.7612108e+12 -2.9784433e+10 5.6429175e+09)
(-4.1684396e+12 -1.4040238e+10 -4.1716259e+09)
(-3.9088759e+12 -1.1554352e+11 -6.332622e+10)
(-4.2825938e+12 -1.27165e+10 3.959423e+10)
(-3.9278448e+12 -6.0042537e+10 3.6101707e+10)
(-4.0549077e+12 2.7346918e+10 1.5899234e+10)
(-4.106399e+12 6.0917015e+10 9.656921e+09)
(-3.9906891e+12 -6.8320639e+10 6.1920739e+10)
(-3.910241e+12 -1.2177937e+11 4.6516054e+10)
(-5.1004001e+12 -1.3169662e+11 -2.807465e+09)
(-3.7837897e+12 -1.243954e+11 7.8987287e+09)
(-4.1586721e+12 -5.6720702e+10 -1.5795082e+09)
(-3.9551391e+12 -9.2387273e+10 3.161713e+10)
(-3.8502264e+12 -8.6956203e+10 1.417172e+10)
(-3.9302656e+12 -8.3478676e+10 -2.7788549e+10)
(-4.0840437e+12 -6.7931398e+10 -2.8507545e+10)
(-3.8310788e+12 -1.605899e+11 -6.9484377e+10)
(-3.8986543e+12 -1.2970098e+11 -3.8130109e+10)
(-3.5711099e+12 -7.7267112e+10 -1.4509465e+11)
(-4.1731838e+12 -4.5905836e+10 -6.9561048e+10)
(-4.108964e+12 -3.8593691e+10 -2.6539529e+10)
(-3.413627e+12 -4.4272312e+10 -2.7804444e+10)
(-3.6295383e+12 -1.9028091e+11 -1.074462e+11)
(-3.9106767e+12 -1.8168731e+11 -9.3628044e+10)
(-3.6174733e+12 -1.3191209e+11 -2.0921335e+10)
(-4.0882122e+12 -1.2046686e+11 -6.7065525e+10)
(-4.1653387e+12 -6.408645e+10 -5.4385873e+10)
(-4.2515738e+12 -1.0153876e+10 -4.1160477e+10)
(-3.9238329e+12 -6.7158542e+10 -1.6531617e+11)
(-3.8632652e+12 -1.1571912e+11 -1.4350584e+11)
(-3.8297446e+12 -8.4184215e+10 -6.7512879e+10)
(-3.7780472e+12 -1.2710414e+11 -1.1407109e+11)
(-3.6106392e+12 -1.8933559e+11 -1.4352035e+11)
(-4.1828267e+12 -7.1814747e+10 -3.284335e+10)
(-3.8262067e+12 -1.4760283e+11 -1.3905405e+11)
(-3.6994959e+12 -1.3092711e+11 -1.4061175e+11)
(-4.2633849e+12 1.1043397e+11 7.4159675e+10)
(-4.0180686e+12 -7.5401585e+10 6.9808839e+10)
(-3.8509086e+12 -1.5317278e+11 6.3963118e+10)
(-3.845507e+12 -2.2278473e+11 1.1204681e+11)
(-4.0089497e+12 -1.1824934e+11 8.7013793e+10)
(-3.8229127e+12 -6.7945202e+10 6.0481714e+10)
(-3.8473209e+12 3.757472e+09 2.5385804e+08)
(-3.8738273e+12 -5.9875283e+10 1.1225309e+11)
(-4.042396e+12 -1.3077621e+11 6.2599795e+10)
(-3.7564606e+12 -1.748994e+11 1.8955509e+10)
(-4.1873098e+12 -9.9931245e+10 1.1567264e+10)
(-3.9422635e+12 -2.3471814e+11 1.0422092e+11)
(-3.6626497e+12 -2.4652224e+11 9.9673107e+10)
(-3.6472712e+12 -1.7121266e+11 3.0333961e+10)
(-3.5995575e+12 -1.5224608e+11 4.9322048e+10)
(-4.1724994e+12 -7.0772596e+10 1.1905149e+10)
(-4.0504303e+12 -2.4457657e+11 1.4476885e+10)
(-3.6779754e+12 -3.0908255e+11 1.6137128e+10)
(-3.9236046e+12 -2.6841418e+11 -1.9258262e+10)
(-3.6132769e+12 -3.3160257e+11 -8.9902576e+09)
(-3.9114486e+12 -2.5657452e+11 2.5978665e+10)
(-4.0095344e+12 -1.3823881e+11 3.0487205e+10)
(-3.9115036e+12 -1.2815406e+11 -9.5610097e+09)
(-3.8350067e+12 -2.4327376e+11 -2.668306e+10)
(-3.7121813e+12 -7.0496805e+10 9.8006549e+10)
(-3.6771752e+12 -1.3881475e+11 1.1449914e+11)
(-3.4554389e+12 -1.4973358e+11 6.4939957e+10)
(-3.4919307e+12 -6.2539009e+10 6.3308287e+10)
(-3.3552876e+12 -9.0178979e+10 1.6412299e+10)
(-3.4099993e+12 -1.2950596e+10 5.7877071e+10)
(-3.3435468e+12 -6.535604e+10 7.5487379e+10)
(-3.4694889e+12 -1.2672496e+11 -8.7478914e+09)
(-3.6937249e+12 -1.2744744e+11 -4.5606435e+10)
(-3.5044687e+12 -7.8008553e+10 1.7878007e+10)
(-3.7205846e+12 -1.0531948e+11 -3.0680221e+10)
(-3.5442764e+12 -1.4287274e+11 -4.0096628e+10)
(-3.536307e+12 -1.8950707e+11 -7.1655356e+10)
(-3.7408669e+12 -1.6401444e+11 -8.554482e+10)
(-3.7588321e+12 -1.3381365e+11 -6.7196898e+10)
(-4.378136e+12 -2.7757345e+11 -2.6735369e+11)
(-3.6274776e+12 -1.8830114e+11 -2.0057481e+11)
(-3.5133991e+12 1.0756762e+10 -1.5243282e+11)
(-3.8845628e+12 -9.4552329e+10 -8.7285468e+10)
(-3.9164992e+12 -1.1908219e+11 -6.3901798e+10)
(-3.3904977e+12 -2.0707082e+10 4.9729783e+10)
(-3.5920382e+12 -2.8474026e+11 -1.5525625e+11)
(-3.6910556e+12 -1.9563799e+11 -8.5432325e+10)
(-3.6970907e+12 -2.5140622e+11 -1.3830741e+11)
(-3.9258711e+12 -1.4782071e+11 -9.0940781e+10)
(-3.6013142e+12 -2.548223e+11 -1.2941208e+11)
(-3.6061525e+12 -2.1297637e+11 -1.009872e+11)
(-3.7694774e+12 -1.9014456e+11 -1.0195567e+11)
(-3.8240355e+12 -1.6520856e+11 -1.0094975e+11)
(-4.3427078e+12 2.0648447e+10 -6.5975183e+10)
(-3.8720924e+12 -3.6561112e+10 -1.7174441e+11)
(-3.9067802e+12 -4.9911073e+09 -1.4663473e+11)
(-3.886668e+12 -3.6904619e+10 -1.6204574e+11)
(-4.2954331e+12 -4.3744911e+10 -7.5310129e+10)
(-3.9767085e+12 -2.0289154e+10 -2.0283215e+11)
(-3.9537718e+12 -6.5800684e+10 -1.9618811e+11)
(-3.8656743e+12 -9.03692e+10 -1.4534322e+11)
(-3.7904883e+12 -9.9663699e+10 -1.388886e+11)
(-3.7678969e+12 -1.2031247e+11 -2.1123486e+11)
(-3.7133701e+12 -1.2544692e+11 -1.9126427e+11)
(-3.9144511e+12 -4.1352531e+10 -1.4876766e+11)
(-3.8601984e+12 -8.1546328e+10 -1.4856284e+11)
(-3.8139629e+12 -6.1845288e+10 -2.1914564e+11)
(-3.7914969e+12 -9.9214225e+10 -1.9892828e+11)
(-4.3254309e+12 -1.8417612e+10 -6.815299e+10)
(-3.9090754e+12 -5.5169776e+10 -2.0760971e+11)
(-3.5691544e+12 -7.4633594e+10 -3.1044591e+11)
(-3.6249987e+12 -1.2912769e+11 -2.7903633e+11)
(-3.9114621e+12 -9.6505336e+10 -1.7372579e+11)
(-3.871977e+12 -1.1875354e+11 -1.9900187e+11)
(-3.5666935e+12 -1.4731356e+11 -3.0116097e+11)
(-3.5010909e+12 -1.74516e+11 -2.6613278e+11)
(-4.1954082e+12 -6.8578666e+10 -6.0343772e+10)
(-3.7837041e+12 -1.2598673e+11 -2.0557144e+11)
(-3.8017878e+12 8.907332e+09 -2.9381038e+11)
(-3.7525786e+12 -2.6466106e+10 -2.5059436e+11)
(-3.4112355e+12 -1.2447736e+11 -8.4708879e+10)
(-3.4327186e+12 -1.1058636e+11 -4.416772e+10)
(-3.462996e+12 -1.4036937e+11 -1.1112465e+11)
(-3.478535e+12 -1.4483166e+11 -1.4789088e+11)
(-3.6726962e+12 -1.6906023e+11 -1.9738956e+11)
(-3.5719065e+12 -2.2284835e+11 -2.2817836e+11)
(-3.8256566e+12 -1.2401709e+11 -7.1634061e+10)
(-3.5503944e+12 -1.850158e+11 1.1046882e+10)
(-3.5543951e+12 -1.7428026e+11 -2.0948938e+11)
(-3.5386964e+12 -1.5822624e+11 -1.7968585e+11)
(-4.0887362e+12 -4.3728787e+10 1.0921563e+11)
(-4.2189185e+12 3.9998295e+10 1.1781188e+11)
(-4.3026407e+12 6.0390714e+10 1.8391491e+10)
(-3.8097663e+12 -1.1339706e+11 1.0392588e+11)
(-3.7231567e+12 -1.7557283e+11 1.2658787e+11)
(-3.7658717e+12 -2.365412e+11 2.1717688e+11)
(-3.8033469e+12 -1.6448297e+11 1.7492984e+11)
(-3.8095412e+12 -8.3695271e+10 1.0873611e+11)
(-3.894694e+12 -2.1704272e+10 4.3770871e+09)
(-3.8516872e+12 -5.8320926e+10 1.5172752e+11)
(-3.4057239e+12 -1.4966862e+11 1.5902691e+11)
(-3.4049305e+12 -8.8112591e+10 1.121631e+11)
(-3.7745134e+12 -1.9208218e+11 1.3639603e+11)
(-3.5679068e+12 -2.5226054e+11 1.0682212e+11)
(-3.9823634e+12 -1.9352094e+11 7.2853367e+10)
(-3.461344e+12 -1.0979049e+11 -1.0363473e+11)
(-3.5870815e+12 -1.1714071e+11 7.1480341e+10)
(-3.9592007e+12 -2.1196149e+11 6.5555588e+10)
(-3.6955605e+12 -2.7989651e+11 2.3145996e+11)
(-3.6441568e+12 -2.6993692e+11 1.7139325e+11)
(-3.735173e+12 -2.6006406e+11 4.1151114e+10)
(-4.2740307e+12 -3.2093134e+11 4.8261476e+10)
(-3.5697862e+12 -2.6722926e+11 9.5079052e+10)
(-3.9098962e+12 -1.9781557e+11 -1.9437558e+10)
(-3.4738292e+12 -7.9832948e+10 -1.0752992e+10)
(-3.4366758e+12 -6.6801838e+10 6.2912029e+10)
(-3.8617237e+12 -1.7704162e+11 1.4345367e+10)
(-3.814415e+12 -3.1696065e+11 1.2537779e+11)
(-3.7505984e+12 -3.6471847e+11 8.2657858e+10)
(-3.6044825e+12 -4.1640364e+11 1.1637882e+11)
(-3.6623755e+12 -3.5765194e+11 1.003041e+11)
(-3.8841244e+12 -2.9723611e+11 6.07641e+10)
(-3.6732623e+12 -3.1604946e+11 -1.9229636e+09)
(-3.7120179e+12 -3.7007488e+11 1.2392336e+11)
(-3.5668e+12 -3.9539588e+11 1.077157e+11)
(-3.5993982e+12 -4.3222805e+11 -7.9601503e+10)
(-3.5473224e+12 -3.5497439e+11 -1.0873725e+11)
(-3.6373717e+12 -3.4917895e+11 -8.7274694e+10)
(-3.5742816e+12 -2.7011715e+11 -9.2055489e+10)
(-3.5905196e+12 -4.251104e+11 -4.5964355e+10)
(-3.7432854e+12 -3.636134e+11 -6.5340254e+10)
(-3.5486529e+12 -4.4604278e+11 -6.9637398e+10)
(-3.6652571e+12 -3.5404809e+11 -9.1377029e+10)
(-3.7270275e+12 -3.1413782e+11 1.3289457e+11)
(-3.7511905e+12 -2.6016232e+11 1.4010607e+11)
(-3.5934948e+12 -2.883489e+11 7.8433843e+10)
(-3.5804272e+12 -3.6077355e+11 9.4885942e+10)
(-3.7178004e+12 -1.7857404e+11 1.1998006e+11)
(-3.6934658e+12 -2.3473779e+11 1.3278352e+11)
(-3.5013575e+12 -2.737323e+11 7.2139368e+10)
(-3.5263866e+12 -1.8500885e+11 6.383941e+10)
(-3.4499146e+12 -1.1155396e+11 -1.1795216e+10)
(-3.4137204e+12 -2.1962205e+11 -4.8068374e+10)
(-3.4273309e+12 -7.587163e+10 3.4400553e+10)
(-3.3841195e+12 -1.5201171e+11 -3.6866446e+08)
(-3.5201047e+12 -2.4934982e+11 -6.3943994e+10)
(-3.4803052e+12 -1.737228e+11 -3.8151671e+10)
(-3.5307222e+12 -3.3538412e+11 -8.7075599e+10)
(-3.4730126e+12 -2.4417183e+11 -7.475216e+10)
(-3.1159154e+12 -1.9393283e+11 1.3194791e+11)
(-3.1441999e+12 -1.5178989e+11 1.2656438e+11)
(-2.8955437e+12 -1.1246503e+11 1.0539112e+11)
(-2.8403259e+12 -1.8840373e+11 1.0400688e+11)
(-2.8087323e+12 -8.2968497e+10 1.1312181e+11)
(-3.1438644e+12 -7.0787746e+10 1.1667894e+11)
(-3.0865907e+12 -1.1752549e+11 1.2474965e+11)
(-2.8744397e+12 -1.9599814e+10 1.1933946e+11)
(-2.6925473e+12 -9.7667335e+10 5.4673914e+10)
(-2.7795135e+12 -4.0593647e+10 7.5488321e+10)
(-2.780616e+12 -1.4670791e+10 6.7793101e+10)
(-2.8453817e+12 6.3303724e+09 9.1388076e+10)
(-2.7754602e+12 1.4752503e+10 1.2630146e+11)
(-2.7016862e+12 -2.1772677e+10 1.0402678e+11)
(-2.7943621e+12 2.1634271e+10 1.2457398e+11)
(-2.8516712e+12 3.7893104e+10 1.4368017e+11)
(-2.8039856e+12 1.5758016e+10 1.8517027e+11)
(-2.8241748e+12 -1.1081992e+09 1.478549e+11)
(-2.7926652e+12 -8.4056001e+10 1.6068206e+11)
(-2.8066951e+12 -7.135246e+10 1.8044981e+11)
(-2.8749925e+12 1.080849e+10 1.5863315e+11)
(-3.0396236e+12 -1.3994855e+11 1.0190795e+10)
(-3.0558676e+12 -1.2897355e+11 2.4965806e+10)
(-3.2289752e+12 -1.1585581e+11 -2.5664853e+10)
(-3.210692e+12 -1.2888829e+11 -3.6764068e+10)
(-3.204201e+12 -1.0912483e+11 -4.6376775e+09)
(-3.0183692e+12 -1.1903305e+11 5.6405503e+10)
(-2.9936397e+12 -1.2908183e+11 4.7363919e+10)
(-3.1712763e+12 -1.1432376e+11 -1.3270561e+10)
(-3.0853195e+12 -1.536127e+11 -2.6713655e+10)
(-3.0966323e+12 -1.3884058e+11 -1.1815896e+10)
(-3.2351694e+12 -1.4348339e+11 -5.9576594e+10)
(-3.2618752e+12 -1.285073e+11 -4.8270306e+10)
(-3.1500561e+12 -1.7417636e+11 -6.8980215e+10)
(-3.2968363e+12 -1.566332e+11 -8.4992235e+10)
(-3.2952426e+12 -1.4844536e+11 -7.6218536e+10)
(-3.1487958e+12 -1.6530746e+11 -5.1755341e+10)
(-4.1498228e+12 -4.3614271e+10 -3.2427227e+11)
(-3.5639232e+12 1.4206457e+10 -2.9060738e+11)
(-3.5224725e+12 -2.205641e+11 -1.7617792e+11)
(-3.6041971e+12 -7.1223165e+10 -1.5104318e+11)
(-3.7557517e+12 -1.676923e+11 -1.166452e+11)
(-3.5685232e+12 -8.0443466e+10 2.3619228e+10)
(-3.8882754e+12 -1.4745675e+11 -7.4711644e+10)
(-3.4415393e+12 -2.4805603e+11 -2.2464554e+11)
(-3.4623118e+12 -2.2337981e+11 -1.9442343e+11)
(-3.6404359e+12 -1.5196317e+11 -8.8711619e+10)
(-3.5523073e+12 -2.0271435e+11 -1.1182549e+11)
(-3.3865022e+12 -2.2668736e+11 -1.8931882e+11)
(-3.3805281e+12 -2.079805e+11 -1.6510496e+11)
(-3.5288559e+12 -1.7757564e+11 -1.1617939e+11)
(-3.5060494e+12 -2.0585887e+11 -1.1832538e+11)
(-3.3201399e+12 -1.9699577e+11 -1.4425815e+11)
(-3.2935163e+12 -2.010123e+11 -1.3288722e+11)
(-3.435665e+12 -1.7266744e+11 -1.1365281e+11)
(-3.4469663e+12 -1.8932847e+11 -1.1698501e+11)
(-3.2148284e+12 -1.798191e+11 -9.4132267e+10)
(-3.2272856e+12 -1.8602401e+11 -1.0973214e+11)
(-3.3578972e+12 -1.733805e+11 -1.0579649e+11)
(-3.3565123e+12 -1.6026475e+11 -9.8192609e+10)
(-3.9607488e+12 -6.7470461e+09 -1.5428021e+11)
(-3.8620796e+12 -1.9833517e+10 -2.1564346e+11)
(-3.8288058e+12 -4.8749135e+10 -2.3376566e+11)
(-3.8914613e+12 -4.0208731e+10 -1.8311407e+11)
(-3.408263e+12 -3.0875432e+10 -1.7161994e+11)
(-3.4328135e+12 -4.0295806e+10 -1.6634056e+11)
(-3.4515689e+12 -3.0648592e+10 -1.4286072e+11)
(-3.4223231e+12 -2.9652814e+10 -1.521909e+11)
(-3.4610467e+12 -1.8985808e+10 -1.3525301e+11)
(-3.4563262e+12 -2.5770627e+10 -1.5849171e+11)
(-3.48034e+12 -9.3014238e+09 -1.1324555e+11)
(-3.4824671e+12 -2.3461228e+10 -1.3083574e+11)
(-3.4296127e+12 -3.8206176e+10 -1.6235919e+11)
(-3.4386863e+12 -3.9993074e+10 -1.4631988e+11)
(-3.4658101e+12 -2.7845393e+10 -1.2307274e+11)
(-3.9534325e+12 -3.6127013e+10 -1.6633649e+11)
(-3.4045057e+12 -3.8599397e+10 -1.6017953e+11)
(-3.4201305e+12 -5.0300203e+10 -1.5196969e+11)
(-3.8881861e+12 -4.906217e+10 -1.75381e+11)
(-3.8173143e+12 -5.8754831e+10 -2.3010617e+11)
(-3.8370413e+12 -4.9527493e+10 -2.3588685e+11)
(-3.9824739e+12 -1.016842e+10 -1.8189909e+11)
(-3.6206084e+12 -3.0252972e+10 -3.188298e+11)
(-3.6160358e+12 -6.6559114e+10 -3.190698e+11)
(-4.3990236e+12 1.7639043e+10 -9.7188993e+10)
(-3.9506597e+12 -4.6942955e+10 -2.0752047e+11)
(-4.3401379e+12 -5.6121351e+10 -9.1561165e+10)
(-3.9703122e+12 -4.1774205e+10 -1.9879704e+11)
(-3.6218016e+12 -5.9793888e+10 -3.286859e+11)
(-3.6026956e+12 -7.4198142e+10 -3.2280425e+11)
(-3.9307606e+12 -6.0712187e+10 -2.0772491e+11)
(-3.8304254e+12 -4.0139969e+10 -3.4176652e+11)
(-3.8580889e+12 2.856173e+10 -3.603213e+11)
(-3.4600757e+12 -1.1518192e+11 -1.2234187e+11)
(-3.4425583e+12 -1.0511308e+11 -1.2553817e+11)
(-3.4381847e+12 -1.2163688e+11 -1.5575695e+11)
(-3.4282949e+12 -1.1840991e+11 -1.5708907e+11)
(-3.4118073e+12 -1.3093091e+11 -9.5474546e+10)
(-3.4133733e+12 -1.3238488e+11 -1.1533898e+11)
(-3.3988495e+12 -1.4378383e+11 -1.4238826e+11)
(-3.3839372e+12 -1.3678942e+11 -1.2410727e+11)
(-3.51324e+12 -1.2850155e+11 -1.9442894e+11)
(-3.5070699e+12 -1.342542e+11 -1.9830553e+11)
(-3.4986093e+12 -1.2118913e+11 -1.6637791e+11)
(-3.5128921e+12 -1.2184976e+11 -1.6234614e+11)
(-3.4464962e+12 -1.4235234e+11 -1.7583251e+11)
(-3.4745256e+12 -1.6297506e+11 -1.9000634e+11)
(-3.4538753e+12 -1.5038629e+11 -1.6333733e+11)
(-3.4438082e+12 -1.3640939e+11 -1.4339536e+11)
(-3.4951786e+12 -6.2660658e+10 -1.3517082e+11)
(-3.4823973e+12 -5.5558728e+10 -1.3175053e+11)
(-3.0224622e+12 -4.5733317e+10 -1.326441e+11)
(-3.4680912e+12 -6.7713432e+10 -1.6289494e+11)
(-3.4731e+12 -6.533963e+10 -1.6986411e+11)
(-3.4659361e+12 -8.5456177e+10 -1.2999804e+11)
(-3.4584862e+12 -8.780604e+10 -1.266673e+11)
(-3.4354489e+12 -9.2701174e+10 -1.5260345e+11)
(-3.4473621e+12 -9.5156434e+10 -1.5692359e+11)
(-3.5380362e+12 -8.168179e+10 -2.1015346e+11)
(-3.5482954e+12 -6.3564474e+10 -2.0752095e+11)
(-3.5358274e+12 -7.2141461e+10 -1.7475604e+11)
(-3.543424e+12 -6.5034192e+10 -1.7945952e+11)
(-3.4875888e+12 -1.0054952e+11 -2.017998e+11)
(-3.5050046e+12 -1.0798042e+11 -2.0452331e+11)
(-3.5191851e+12 -9.7533366e+10 -1.6069435e+11)
(-3.5088674e+12 -9.4687332e+10 -1.5543136e+11)
(-3.5108223e+12 -6.8566715e+10 -1.3903291e+11)
(-3.9295785e+12 -5.1314698e+10 -1.1029986e+11)
(-3.9278033e+12 -9.1556291e+10 -1.1115466e+11)
(-3.4745332e+12 -7.8585838e+10 -1.2134646e+11)
(-3.5967699e+12 -6.1061032e+10 -2.7785565e+11)
(-3.5924947e+12 -9.0733924e+10 -2.8183381e+11)
(-3.6132353e+12 -8.3165351e+10 -2.2502083e+11)
(-3.6312772e+12 -5.4123729e+10 -2.1523457e+11)
(-3.517877e+12 -9.4317533e+10 -3.6141677e+11)
(-3.51899e+12 -8.3974634e+10 -3.5092815e+11)
(-3.7192987e+12 -8.0757105e+10 -2.5640383e+11)
(-3.7291179e+12 -5.1993093e+10 -2.4420556e+11)
(-3.5610329e+12 -1.2763715e+11 -3.3896502e+11)
(-3.7101345e+12 -1.0553001e+11 -2.0429744e+11)
(-3.5436326e+12 -1.2075054e+11 -3.4085468e+11)
(-3.6925367e+12 -1.11765e+11 -2.0204031e+11)
(-3.5899821e+12 -1.048425e+11 -2.0771553e+11)
(-3.5696544e+12 -1.0796657e+11 -2.5262673e+11)
(-3.5726292e+12 -1.014324e+11 -2.0461293e+11)
(-3.5565641e+12 -1.1048685e+11 -2.4216663e+11)
(-3.5763589e+12 -1.448144e+11 -2.627635e+11)
(-3.5867583e+12 -1.5694452e+11 -2.6003701e+11)
(-3.5931014e+12 -1.2829435e+11 -2.060436e+11)
(-3.5851695e+12 -1.4012339e+11 -2.0940333e+11)
(-3.5426293e+12 -1.6689308e+11 -3.3814886e+11)
(-3.5522657e+12 -1.732942e+11 -3.5142075e+11)
(-3.7122083e+12 -1.5361153e+11 -2.4276443e+11)
(-3.7056717e+12 -1.3455215e+11 -2.3698026e+11)
(-3.8802944e+12 -1.0246728e+11 -1.1662067e+11)
(-3.4720834e+12 -1.8922101e+11 -3.2164602e+11)
(-3.5177845e+12 -2.1277415e+11 -3.303198e+11)
(-3.6590301e+12 -1.7788759e+11 -2.4412148e+11)
(-3.6206355e+12 -1.3618939e+11 -2.419712e+11)
(-3.7577063e+12 -8.9467035e+10 -1.1033355e+11)
(-3.3865767e+12 -3.9544133e+10 -4.8215759e+10)
(-3.4570561e+12 -8.503892e+10 -8.9046601e+10)
(-3.5057311e+12 -1.5223262e+11 -2.4690483e+11)
(-3.5397366e+12 -1.8545125e+11 -2.6422388e+11)
(-3.5125981e+12 -1.3955545e+11 -2.0685449e+11)
(-3.5379706e+12 -1.7105002e+11 -2.2048625e+11)
(-3.6501284e+12 -7.2060368e+10 -3.0579747e+11)
(-3.0623975e+12 -1.4771477e+11 -7.5821838e+10)
(-3.0797905e+12 -1.4263828e+11 -6.278421e+10)
(-3.0429122e+12 -1.3559428e+11 -5.1554037e+10)
(-3.0608208e+12 -1.3950496e+11 -3.9824794e+10)
(-3.1044726e+12 -1.4932492e+11 -8.1306667e+10)
(-3.0878649e+12 -1.5789049e+11 -1.046548e+11)
(-3.1387009e+12 -1.6688031e+11 -1.248955e+11)
(-3.1486226e+12 -1.5636141e+11 -1.3172251e+11)
(-3.3460294e+12 -1.8922559e+11 -1.7971296e+11)
(-3.3685334e+12 -2.0828904e+11 -1.876783e+11)
(-3.708337e+12 -1.6682623e+11 -1.3185963e+11)
(-3.4359975e+12 -1.9717793e+11 -1.7989675e+11)
(-3.4198427e+12 -2.3593186e+11 -1.9801417e+11)
(-3.6006781e+12 -2.0513644e+11 -7.8971096e+09)
(-3.2898772e+12 -1.8466002e+11 -1.7598808e+11)
(-3.271766e+12 -1.7654709e+11 -1.7290076e+11)
(-3.2172516e+12 -1.6237865e+11 -1.5214476e+11)
(-3.1981038e+12 -1.6395872e+11 -1.4509303e+11)
(-3.7995504e+12 -1.2442179e+11 1.2339564e+11)
(-3.927882e+12 -1.1880146e+11 2.2603678e+10)
(-4.1454855e+12 -4.3500408e+10 7.4228496e+10)
(-3.9284013e+12 -6.548979e+10 1.8646727e+11)
(-4.0955622e+12 -8.1810532e+10 1.0683874e+11)
(-4.2308281e+12 -1.7613331e+10 1.0182537e+11)
(-4.3361555e+12 5.9435352e+10 -1.1582158e+10)
(-3.9218414e+12 -1.2092187e+10 1.3775704e+10)
(-3.8651704e+12 -6.7148108e+10 1.2994596e+11)
(-3.8161507e+12 -1.1144583e+11 1.7102779e+11)
(-3.6630319e+12 -1.5833417e+11 2.1507388e+11)
(-3.4734355e+12 -3.1434614e+11 2.4403784e+11)
(-3.7445232e+12 -2.2014621e+11 3.3382945e+11)
(-3.5007075e+12 -3.4584832e+11 2.5820898e+11)
(-3.7787498e+12 -1.5628523e+11 2.6172293e+11)
(-3.4433313e+12 -2.658888e+11 2.2421489e+11)
(-3.4482451e+12 -2.0730263e+11 1.7986701e+11)
(-3.9496242e+12 4.490152e+10 -1.5860337e+10)
(-3.4225679e+12 -1.0517388e+11 2.2732163e+11)
(-3.9314124e+12 -3.3665646e+10 1.4142084e+11)
(-3.3885685e+12 -1.3457276e+11 2.3766098e+11)
(-3.4035639e+12 -6.4555084e+10 1.6204709e+11)
(-3.4198655e+12 -5.0844161e+10 1.4271942e+11)
(-2.8816143e+12 -1.2944643e+11 1.3924401e+11)
(-2.8781119e+12 -1.7418672e+11 1.5945805e+11)
(-2.8239162e+12 -7.006243e+10 1.3401356e+11)
(-2.8545331e+12 -2.6531914e+10 1.1050022e+11)
(-3.7237632e+12 -1.5806289e+11 2.1605304e+11)
(-3.3927519e+12 -2.3852914e+11 1.8904375e+11)
(-3.776977e+12 -2.2973467e+11 1.0109023e+11)
(-3.5537699e+12 -2.8947443e+11 -8.3912064e+10)
(-3.8333824e+12 -2.43923e+11 7.0134973e+10)
(-3.7982793e+12 -1.9976149e+11 3.7090516e+10)
(-3.6659852e+12 -2.585105e+11 3.6961761e+11)
(-3.5360649e+12 -3.8908307e+11 2.2782047e+11)
(-3.5208874e+12 -3.8196834e+11 2.7675105e+11)
(-3.562325e+12 -2.6679135e+11 2.9462052e+11)
(-3.6075519e+12 -3.6332163e+11 1.7174546e+11)
(-3.470902e+12 -3.7850374e+11 1.3954021e+11)
(-3.6696659e+12 -7.8906919e+10 1.0361336e+11)
(-4.0290246e+12 -8.7211801e+10 9.1464594e+10)
(-3.3867962e+12 -2.6444378e+10 1.2604978e+11)
(-3.4592744e+12 -3.1723912e+11 -6.9743672e+10)
(-3.3760369e+12 -3.260178e+11 8.3514747e+10)
(-3.5542888e+12 -1.7244074e+11 -1.6528387e+11)
(-3.844728e+12 -2.7241573e+11 2.5028608e+10)
(-3.7531182e+12 -3.0899627e+11 5.0781146e+10)
(-3.586539e+12 -1.8229557e+11 4.5619767e+10)
(-3.528279e+12 -1.6756908e+11 -4.8058487e+10)
(-3.772896e+12 -2.7865749e+11 -6.0963486e+10)
(-3.7065987e+12 -3.1896144e+11 -2.6062552e+10)
(-3.4906164e+12 -1.890149e+11 3.2371159e+10)
(-3.328921e+12 -4.3960517e+11 1.9234682e+11)
(-3.2949473e+12 -4.6789387e+11 1.9998335e+11)
(-3.2509859e+12 -4.9686102e+11 2.0930983e+11)
(-3.3311842e+12 -4.5706755e+11 2.1133075e+11)
(-3.3194594e+12 -4.1245406e+11 1.8439172e+11)
(-3.2702174e+12 -4.6561915e+11 1.9145982e+11)
(-3.2123552e+12 -4.9834456e+11 1.9836253e+11)
(-3.2357293e+12 -4.4594854e+11 1.7421615e+11)
(-3.2432173e+12 -5.247394e+11 2.9538773e+11)
(-3.3217865e+12 -4.3215577e+11 2.3364887e+11)
(-3.3369907e+12 -5.0649968e+11 4.2801887e+10)
(-3.3065606e+12 -4.5300202e+11 1.8390227e+10)
(-3.1507997e+12 -4.4041257e+11 -1.1555805e+11)
(-3.1876741e+12 -5.1055136e+11 -7.2170329e+10)
(-3.1175908e+12 -3.0512361e+11 -2.4010343e+11)
(-3.1931594e+12 -2.1685835e+11 -9.9978432e+10)
(-3.157169e+12 -3.9115254e+11 -2.7415686e+11)
(-3.204288e+12 -2.7466603e+11 -1.1925117e+11)
(-3.1974408e+12 -4.9345347e+11 5.9274029e+09)
(-3.1775267e+12 -4.3152423e+11 -7.3369123e+09)
(-3.0533849e+12 -3.2432554e+11 -1.5541175e+11)
(-3.0402682e+12 -4.298654e+11 -1.4346436e+11)
(-3.0111425e+12 -2.7344413e+11 -2.1769207e+11)
(-3.0236205e+12 -1.9173771e+11 -1.6856223e+11)
(-3.1022243e+12 -1.6680592e+11 -5.8200325e+10)
(-3.0946286e+12 -2.1017251e+11 -7.8686492e+10)
(-3.5321791e+12 -4.0603776e+11 -1.330234e+10)
(-3.4795681e+12 -3.9530086e+11 -6.7133068e+10)
(-3.3905172e+12 -4.6548937e+11 7.8090934e+10)
(-3.4261421e+12 -4.5799486e+11 3.1977444e+10)
(-3.4475707e+12 -4.5557046e+11 3.0648332e+10)
(-3.4193357e+12 -4.8407717e+11 1.1295145e+09)
(-3.2995309e+12 -5.3969126e+11 1.0294222e+10)
(-3.2894887e+12 -4.9256989e+11 -3.6118439e+10)
(-3.3217697e+12 -5.1743753e+11 -2.5364736e+11)
(-3.3719766e+12 -5.0066708e+11 -2.6110444e+11)
(-3.3527462e+12 -3.884212e+11 -8.2662889e+10)
(-3.3982445e+12 -3.3953716e+11 -1.2355626e+11)
(-3.269615e+12 -5.2617862e+11 -2.7807916e+11)
(-3.2609558e+12 -4.1015448e+11 -2.7799133e+11)
(-3.3060318e+12 -2.711594e+11 -1.3324889e+11)
(-3.297102e+12 -3.5439257e+11 -1.428766e+11)
(-3.2246402e+12 -3.7305244e+11 1.686833e+11)
(-3.078734e+12 -3.3610552e+11 9.9311133e+10)
(-3.2530881e+12 -3.2631517e+11 1.6335815e+11)
(-3.0804578e+12 -4.1370182e+11 1.2666826e+11)
(-3.2782341e+12 -3.8413991e+11 1.7777616e+11)
(-3.1528804e+12 -4.2980701e+11 1.4509981e+11)
(-3.2702776e+12 -4.1201984e+11 1.7973661e+11)
(-3.1748669e+12 -4.4716393e+11 1.5915823e+11)
(-3.1975804e+12 -3.1544788e+11 1.6084246e+11)
(-3.2069835e+12 -2.8251526e+11 1.5518326e+11)
(-2.9966212e+12 -3.3264882e+11 9.7051958e+10)
(-2.9987502e+12 -2.8062661e+11 9.0434853e+10)
(-3.1455752e+12 -2.5897628e+11 1.5076576e+11)
(-3.1705734e+12 -2.1867469e+11 1.346872e+11)
(-2.9166148e+12 -2.0079523e+11 8.9061367e+10)
(-2.9235805e+12 -2.6241285e+11 8.8602733e+10)
(-2.7492356e+12 -1.8237491e+11 -5.5998073e+09)
(-2.7653142e+12 -1.1004512e+11 2.8098454e+10)
(-2.8487456e+12 -2.0948583e+10 3.4308065e+10)
(-2.7716355e+12 -6.3517518e+10 -1.1545638e+09)
(-2.8381957e+12 -2.7308523e+11 -3.6080483e+10)
(-2.8405924e+12 -2.0935574e+11 -2.2747234e+10)
(-2.8522243e+12 -8.7393757e+10 -3.3721371e+10)
(-2.8045778e+12 -1.2384036e+11 -6.8125048e+10)
(-2.8910646e+12 -1.1045237e+09 1.2016687e+11)
(-2.8239417e+12 -2.4586805e+10 9.7188588e+10)
(-2.8546141e+12 -7.9377562e+10 1.2771666e+11)
(-2.8127466e+12 -1.0763219e+11 1.1403177e+11)
(-2.8988125e+12 -3.8298644e+10 6.2558136e+10)
(-2.8541519e+12 -5.6662003e+10 3.1577436e+10)
(-2.8880892e+12 -1.1120784e+11 8.7059379e+10)
(-2.8695519e+12 -1.3276663e+11 6.8231317e+10)
(-2.9492193e+12 -3.5802388e+11 -3.1271935e+10)
(-2.8557384e+12 -2.0644474e+11 -1.3094059e+11)
(-2.9220321e+12 -2.8960646e+11 -3.6592488e+10)
(-2.8861629e+12 -1.442425e+11 -9.7391512e+10)
(-2.8725987e+12 -1.0580359e+11 -5.0847541e+10)
(-2.9279074e+12 -1.5724892e+11 1.8860835e+10)
(-2.9410866e+12 -1.2730984e+11 3.8999194e+10)
(-2.9236134e+12 -6.5105478e+10 -5.6627119e+09)
(-3.0640122e+12 -4.4065363e+11 -1.5768127e+10)
(-3.0459659e+12 -3.7882569e+11 -2.6630479e+10)
(-2.9394106e+12 -2.9967089e+11 -1.5646149e+11)
(-2.9530967e+12 -2.3790325e+11 -1.4508089e+11)
(-2.9512361e+12 -1.3254961e+11 -9.0432206e+10)
(-2.9339856e+12 -1.6965975e+11 -1.3356802e+11)
(-3.0111008e+12 -1.5937909e+11 -9.6750238e+09)
(-3.0111556e+12 -1.7189183e+11 -3.0242956e+10)
(-2.3435767e+12 -6.2476664e+10 1.3860323e+11)
(-2.5544393e+12 -1.2297275e+11 1.5834083e+11)
(-2.4988127e+12 -1.6311533e+11 1.6178646e+11)
(-2.2589187e+12 -9.8089609e+10 1.3189884e+11)
(-2.5478221e+12 -1.8877686e+11 1.5980516e+11)
(-2.5078873e+12 -2.0878453e+11 1.5973489e+11)
(-2.2766269e+12 -1.9180759e+11 1.5108798e+11)
(-2.6053176e+12 -1.3681608e+11 9.740328e+10)
(-2.2801741e+12 -6.6758912e+10 1.5307465e+11)
(-2.5107326e+12 -1.0219788e+11 1.7045305e+11)
(-2.5360759e+12 -7.3692432e+10 1.7393006e+11)
(-2.3302735e+12 -4.9865026e+10 1.6340466e+11)
(-2.4868559e+12 -4.415206e+10 1.856317e+11)
(-2.5390416e+12 -1.5610935e+10 1.7905828e+11)
(-2.3463574e+12 -1.2548183e+10 1.8282124e+11)
(-2.2714136e+12 -4.095949e+10 1.7896971e+11)
(-2.2003102e+12 -1.3067355e+11 1.1209217e+11)
(-2.0292951e+12 -1.5576147e+11 1.4593296e+11)
(-2.1743549e+12 -8.4811515e+10 1.1958449e+11)
(-2.2727796e+12 -6.7195092e+10 1.1491383e+11)
(-2.3381658e+12 -2.3037358e+10 1.4474691e+11)
(-2.2904507e+12 -6.6431667e+10 1.2824001e+11)
(-2.2495357e+12 -5.0864205e+10 1.3725632e+11)
(-2.1904917e+12 -1.0447962e+11 1.3056399e+11)
(-2.3891024e+12 1.6230139e+10 1.5028617e+11)
(-2.4448078e+12 2.543918e+10 1.511958e+11)
(-2.4788987e+12 3.9422439e+10 1.6280699e+11)
(-2.4438998e+12 3.7857423e+10 1.6305441e+11)
(-2.4876905e+12 5.1570235e+10 1.7961862e+11)
(-2.4724405e+12 4.7339386e+10 1.7906039e+11)
(-2.4385235e+12 4.6486358e+10 1.8082956e+11)
(-2.4060844e+12 3.7280956e+10 1.7661693e+11)
(-2.4363071e+12 5.2383823e+10 2.0220809e+11)
(-2.4804176e+12 5.6409897e+10 2.0615091e+11)
(-2.4873024e+12 5.2388779e+10 2.042612e+11)
(-2.4529749e+12 5.1450993e+10 2.0013615e+11)
(-2.310051e+12 -1.6461727e+10 1.6883181e+11)
(-2.2512928e+12 -5.5821453e+10 1.4672499e+11)
(-2.3195165e+12 -2.7162102e+10 1.5421741e+11)
(-2.3668732e+12 5.3276934e+08 1.791079e+11)
(-2.3315592e+12 1.3646845e+10 1.9947541e+11)
(-2.2796112e+12 -8.6130445e+09 1.7444903e+11)
(-2.366194e+12 2.1395533e+10 1.7742996e+11)
(-2.402877e+12 3.5307463e+10 2.015743e+11)
(-2.4970911e+12 7.4614356e+10 2.2604918e+11)
(-2.4374062e+12 6.7019817e+10 2.281072e+11)
(-2.4470439e+12 5.8278953e+10 2.2139125e+11)
(-2.4975091e+12 6.600569e+10 2.1970738e+11)
(-2.4979869e+12 6.7039019e+10 2.3886684e+11)
(-2.5313082e+12 6.4317567e+10 2.3856736e+11)
(-2.5169286e+12 5.0928322e+10 2.1734961e+11)
(-2.4825405e+12 5.2360602e+10 2.1080973e+11)
(-2.4967216e+12 6.1724127e+10 2.1056976e+11)
(-2.5317541e+12 5.8095164e+10 2.0875654e+11)
(-2.5156405e+12 5.1422332e+10 1.8440013e+11)
(-2.4852367e+12 5.1961079e+10 1.8634823e+11)
(-2.4513026e+12 4.4827092e+10 2.2840708e+11)
(-2.4787754e+12 4.816626e+10 2.3282525e+11)
(-2.3313701e+12 -2.3246311e+11 1.6829664e+11)
(-2.31888e+12 -2.3652075e+11 1.5550488e+11)
(-2.379848e+12 -1.4011418e+11 1.7084332e+11)
(-2.4569654e+12 5.8107329e+10 2.4150424e+11)
(-2.2754759e+12 -2.4768067e+11 1.6802087e+11)
(-2.4213807e+12 6.4848597e+10 2.440472e+11)
(-2.5169806e+12 5.622013e+10 1.9592798e+11)
(-2.5353334e+12 6.5234685e+10 2.2384099e+11)
(-2.4678085e+12 5.6255394e+10 1.8918993e+11)
(-2.4880772e+12 6.5298149e+10 2.2279748e+11)
(-2.5825356e+12 -1.92592e+11 1.4468882e+10)
(-2.5399903e+12 -1.9701733e+11 2.9691464e+10)
(-2.4787817e+12 -1.9866057e+11 6.1393861e+10)
(-2.5103454e+12 -2.0053655e+11 4.3267557e+10)
(-2.1774444e+12 -2.7352363e+11 5.8307837e+10)
(-2.2058091e+12 -2.7066555e+11 4.7731812e+10)
(-2.2329185e+12 -1.9220965e+11 1.370469e+11)
(-2.6757099e+12 -1.8105335e+11 -1.6317013e+10)
(-2.6161462e+12 -1.8152255e+11 7.3687568e+09)
(-2.7830722e+12 -1.6732009e+11 -4.1915288e+10)
(-2.7196452e+12 -1.8235011e+11 -3.1735887e+10)
(-4.1688732e+12 -1.6516361e+10 -3.6409614e+11)
(-3.3741658e+12 -1.7207403e+11 -2.7917863e+11)
(-3.2594794e+12 -1.7307232e+10 -2.6723509e+11)
(-3.4911464e+12 -2.3557443e+11 -2.0864015e+11)
(-3.5365812e+12 -1.218193e+11 -2.1731317e+11)
(-3.5496454e+12 -1.8273542e+11 -1.9243553e+11)
(-3.6559763e+12 -1.6042787e+11 -9.9080443e+10)
(-3.5484477e+12 -1.2113812e+11 -5.4241848e+10)
(-3.2658659e+12 -2.2875747e+11 -2.8805759e+11)
(-3.2102179e+12 -1.9254652e+11 -2.6241917e+11)
(-3.1437895e+12 -1.6949565e+11 -2.1983953e+11)
(-3.0750659e+12 -1.5666392e+11 -1.7994357e+11)
(-3.0161317e+12 -1.4846234e+11 -1.3712784e+11)
(-2.9580925e+12 -1.5153421e+11 -1.1312309e+11)
(-2.8332107e+12 -1.4945786e+11 -5.6721823e+10)
(-2.9013993e+12 -1.4753678e+11 -8.4365039e+10)
(-3.4261199e+12 -1.360885e+10 -1.6536065e+11)
(-3.485235e+12 -2.6559495e+10 -1.7570021e+11)
(-3.4869121e+12 -3.1339944e+10 -1.4548641e+11)
(-3.5139846e+12 -2.0400254e+10 -1.1587049e+11)
(-3.50951e+12 -2.740688e+10 -1.4167018e+11)
(-3.5705108e+12 -3.0671124e+10 -1.4352092e+11)
(-3.5314089e+12 -4.327596e+10 -1.9571727e+11)
(-3.5428092e+12 -2.6549829e+10 -2.1822966e+11)
(-3.5530186e+12 -2.7365771e+10 -1.821989e+11)
(-3.5107641e+12 -4.1268393e+10 -2.1614279e+11)
(-3.5312266e+12 -5.7477982e+10 -2.2042172e+11)
(-3.5461949e+12 -4.9399173e+10 -1.7287586e+11)
(-3.5060526e+12 -4.2071153e+10 -1.8703401e+11)
(-3.4800665e+12 -4.2445996e+10 -1.5347346e+11)
(-3.4748971e+12 -4.8423596e+10 -1.7037456e+11)
(-3.4462107e+12 -4.0534633e+10 -1.7552099e+11)
(-3.4495129e+12 -3.8648249e+10 -1.6176757e+11)
(-2.9758467e+12 -2.6107573e+10 -1.2123782e+11)
(-2.9623636e+12 -2.0579751e+10 -1.3209749e+11)
(-2.995197e+12 -2.2969142e+10 -1.595681e+11)