# Force coefficients
# liftDir       : (0.00000000e+00 1.00000000e+00 0.00000000e+00)
# dragDir       : (1.00000000e+00 0.00000000e+00 0.00000000e+00)
# pitchAxis     : (0.00000000e+00 0.00000000e+00 1.00000000e+00)
# magUInf       : 3.00000000e+01
# lRef          : 1.00000000e+00
# Aref          : 1.28000000e-02
# CofR          : (5.00000000e-01 5.00000000e-02 0.00000000e+00)
# Time          	Cm              	Cd              	Cl              	Cl(f)           	Cl(r)           
2               	3.09968734e-01	6.31788715e+00	-3.13712873e-02	2.94283091e-01	-3.25654378e-01
4               	1.87446931e+00	3.86728609e+01	-1.03567783e-01	1.82268542e+00	-1.92625320e+00
6               	1.40847068e+00	3.07478749e+01	-5.53119732e-02	1.38081469e+00	-1.43612667e+00
8               	1.78947720e+00	3.89140802e+01	2.98572531e-01	1.93876347e+00	-1.64019093e+00
10              	8.78189582e-01	1.69633665e+01	-1.15626812e-02	8.72408241e-01	-8.83970922e-01
12              	2.02423883e+00	4.43717428e+01	2.12461699e-01	2.13046968e+00	-1.91800798e+00
14              	-1.29689649e+00	-1.27512798e+01	-5.47799038e+00	-4.03589168e+00	-1.44209870e+00
16              	1.85111792e+00	5.23375889e+01	2.05824260e+00	2.88023922e+00	-8.21996617e-01
18              	-1.20405445e+00	-1.32257375e+01	-2.88704443e+00	-2.64757666e+00	-2.39467770e-01
20              	1.32685497e+00	5.25874664e+01	2.78319177e+00	2.71845086e+00	6.47409125e-02
22              	5.48247659e-01	8.03059522e+00	-5.25433223e+00	-2.07891846e+00	-3.17541377e+00
24              	-6.89676043e-01	4.70891339e+01	2.00608579e+00	3.13366849e-01	1.69271894e+00
26              	5.50383034e+00	2.43261843e+01	2.42758186e+00	6.71762127e+00	-4.29003941e+00
28              	-4.65019430e-01	4.36406948e+01	1.90357618e+01	9.05286145e+00	9.98290031e+00
30              	8.90100034e+00	1.59447183e+00	-2.64034290e+01	-4.30071417e+00	-2.21027149e+01
32              	-5.59483658e+00	1.90182004e+01	1.53352184e+01	2.07277261e+00	1.32624458e+01
34              	9.22039979e+00	5.20144388e+00	-2.63111837e+01	-3.93519206e+00	-2.23759916e+01
36              	-6.05039432e+00	2.78480909e+01	2.14049450e+01	4.65207821e+00	1.67528668e+01
38              	-5.51118785e+00	-1.34105218e+01	-1.71373899e+01	-1.40798828e+01	-3.05750709e+00
40              	5.36074767e+00	3.87729559e+01	1.05637510e+01	1.06426232e+01	-7.88721684e-02
42              	-2.80088642e+01	-7.67081655e+01	-2.92425868e+01	-4.26301576e+01	1.33875708e+01
44              	1.01571114e+01	7.42573443e+01	2.84855700e+01	2.43998964e+01	4.08567361e+00
46              	1.20542559e+01	-1.19553962e+02	-1.17323862e+02	-4.66076751e+01	-7.07161869e+01
48              	-4.91368268e+01	1.13562614e+02	1.44803102e+02	2.32647241e+01	1.21538378e+02
50              	5.30983921e+01	-2.42670939e+02	-2.81408851e+02	-8.76060336e+01	-1.93802818e+02
52              	-5.60990024e+01	2.80206080e+02	3.31473007e+02	1.09637501e+02	2.21835506e+02
54              	-1.40378257e+01	-1.00063797e+03	-8.83525510e+02	-4.55800581e+02	-4.27724929e+02
56              	3.28093696e+02	9.26894608e+02	2.14110558e+02	4.35148976e+02	-2.21038417e+02
58              	-9.88524040e+02	-4.37748649e+03	-3.09229658e+03	-2.53467233e+03	-5.57624250e+02
60              	1.56931160e+03	5.08894174e+03	2.34191486e+03	2.74026902e+03	-3.98354167e+02
62              	-2.49676595e+03	-9.35314390e+03	-5.81889360e+03	-5.40621275e+03	-4.12680848e+02
64              	2.43412595e+03	8.54336014e+03	4.29097289e+03	4.57961239e+03	-2.88639506e+02
66              	-3.94633163e+03	-1.24264922e+04	-6.04334226e+03	-6.96800276e+03	9.24660505e+02
68              	2.84775958e+03	7.53018155e+03	1.43625444e+03	3.56588679e+03	-2.12963236e+03
70              	-3.72088989e+03	-7.22430230e+03	4.76087199e+02	-3.48284629e+03	3.95893349e+03
72              	2.03597198e+03	1.53726843e+03	-4.76184433e+03	-3.44950190e+02	-4.41689414e+03
74              	-3.64744100e+03	-1.76587922e+03	7.96676341e+03	3.35940700e+02	7.63082271e+03
76              	1.05555541e+03	-7.08132676e+03	-1.40865416e+04	-5.98771538e+03	-8.09882620e+03
78              	-3.41060861e+03	4.18051054e+03	1.61457087e+04	4.66224574e+03	1.14834630e+04
80              	-1.82049852e+03	-2.00664606e+04	-2.51043108e+04	-1.43726539e+04	-1.07316569e+04
82              	4.57967627e+02	2.39374847e+04	3.46543748e+04	1.77851550e+04	1.68692198e+04
84              	-7.61839747e+03	-4.40995265e+04	-4.34458389e+04	-2.93413169e+04	-1.41045220e+04
86              	2.70304595e+03	3.38191958e+04	4.35249755e+04	2.44655337e+04	1.90594418e+04
88              	-1.24755785e+04	-6.54513823e+04	-5.66947735e+04	-4.08229652e+04	-1.58718082e+04
90              	1.31324854e+04	5.94970980e+04	5.34838423e+04	3.98744065e+04	1.36094358e+04
92              	-2.65614303e+04	-1.03909494e+05	-7.17483579e+04	-6.24356092e+04	-9.31274867e+03
94              	2.80159653e+04	1.00323575e+05	7.01973662e+04	6.31146484e+04	7.08271786e+03
96              	-4.63381815e+04	-1.57746764e+05	-8.32676162e+04	-8.79719895e+04	4.70437336e+03
98              	4.44036711e+04	1.46529005e+05	8.77349014e+04	8.82711218e+04	-5.36220381e+02
100             	-6.14420284e+04	-2.13577086e+05	-1.00169141e+05	-1.11526599e+05	1.13574582e+04
102             	6.27247568e+04	2.14771982e+05	1.27482456e+05	1.26465985e+05	1.01647121e+03
104             	-7.95010641e+04	-2.96285116e+05	-1.48179718e+05	-1.53590923e+05	5.41120505e+03
106             	1.01178180e+05	3.61634353e+05	2.19330291e+05	2.10843326e+05	8.48696544e+03
108             	-9.39077703e+04	-3.93803471e+05	-2.05939677e+05	-1.96877609e+05	-9.06206797e+03
110             	9.71502500e+04	3.69848967e+05	2.02312801e+05	1.98306650e+05	4.00615032e+03
112             	-1.12358611e+05	-4.91471610e+05	-2.12686726e+05	-2.18701974e+05	6.01524848e+03
114             	1.01561153e+05	3.81825870e+05	1.81377753e+05	1.92250029e+05	-1.08722759e+04
116             	-1.04250941e+05	-5.24049807e+05	-2.20127747e+05	-2.14314815e+05	-5.81293245e+03
118             	1.27822506e+05	5.94797404e+05	2.00501874e+05	2.28073443e+05	-2.75715695e+04
120             	-1.27169165e+05	-8.59767365e+05	-2.20287142e+05	-2.37312736e+05	1.70255942e+04
122             	1.81050856e+05	8.36197136e+05	3.30907495e+05	3.46504604e+05	-1.55971089e+04
124             	-1.74402592e+05	-1.09187181e+06	-3.49703906e+05	-3.49254544e+05	-4.49361253e+02
126             	1.74069993e+05	9.26130551e+05	4.35186990e+05	3.91663488e+05	4.35235023e+04
128             	-1.69920399e+05	-1.18449707e+06	-4.35517053e+05	-3.87678926e+05	-4.78381273e+04
130             	1.85124986e+05	1.06228667e+06	5.44335223e+05	4.57292597e+05	8.70426258e+04
132             	-1.37355848e+05	-1.42036214e+06	-4.97899321e+05	-3.86305508e+05	-1.11593813e+05
134             	1.44129897e+05	1.23804631e+06	3.91837415e+05	3.40048605e+05	5.17888100e+04
136             	-1.11244686e+05	-1.62224485e+06	-3.79341732e+05	-3.00915552e+05	-7.84261799e+04
138             	5.61146913e+04	1.53816712e+06	2.16721857e+05	1.64475620e+05	5.22462374e+04
140             	-8.18598436e+04	-1.85604202e+06	-1.77184154e+05	-1.70451921e+05	-6.73223356e+03
142             	7.32002374e+04	1.78910894e+06	5.10499809e+04	9.87252278e+04	-4.76752470e+04
144             	-8.35003684e+04	-1.85108801e+06	-8.97834146e+04	-1.28392076e+05	3.86086611e+04
146             	1.32735746e+05	2.16076153e+06	7.07478616e+04	1.68109676e+05	-9.73618148e+04
148             	-1.16815563e+05	-2.53108742e+06	-6.22931233e+04	-1.47962125e+05	8.56690017e+04
150             	1.94951100e+05	2.56164288e+06	7.89579491e+04	2.34430075e+05	-1.55472126e+05
152             	-2.81975220e+05	-2.90429106e+06	-2.30363437e+05	-3.97156939e+05	1.66793501e+05
154             	2.78235799e+05	2.68520822e+06	3.73544099e+05	4.65007849e+05	-9.14637498e+04
156             	-2.71731101e+05	-3.02716170e+06	-3.15205767e+05	-4.29333984e+05	1.14128217e+05
158             	2.30392177e+05	2.38346390e+06	2.42216310e+05	3.51500332e+05	-1.09284022e+05
160             	-2.88358239e+05	-3.34196067e+06	-3.04012741e+05	-4.40364610e+05	1.36351869e+05
162             	1.91947569e+05	2.67586935e+06	2.51489946e+05	3.17692542e+05	-6.62025957e+04
164             	-1.28262985e+05	-3.28208534e+06	-1.91828016e+05	-2.24176993e+05	3.23489770e+04
166             	1.02366054e+05	3.11579589e+06	1.47959034e+05	1.76345571e+05	-2.83865366e+04
168             	-7.62627040e+04	-3.84549323e+06	-1.33484227e+05	-1.43004817e+05	9.52059058e+03
170             	2.25078346e+05	4.16907191e+06	2.26111013e+05	3.38133852e+05	-1.12022839e+05
172             	-2.65922387e+05	-5.03454813e+06	-2.06032716e+05	-3.68938745e+05	1.62906029e+05
174             	1.60211488e+05	5.76670599e+06	7.64219621e+04	1.98422469e+05	-1.22000507e+05
176             	-1.09867146e+05	-5.90836279e+06	1.23041989e+05	-4.83461513e+04	1.71388140e+05
178             	1.70628230e+05	5.51120431e+06	1.19557815e+05	2.30407138e+05	-1.10849323e+05
180             	-2.56310765e+05	-6.17404239e+06	-1.45663645e+05	-3.29142587e+05	1.83478942e+05
182             	1.47102214e+05	4.81230936e+06	1.17155293e+05	2.05679861e+05	-8.85245675e+04
184             	-1.55873228e+05	-5.68078544e+06	-4.25553945e+04	-1.77150926e+05	1.34595531e+05
186             	2.02026818e+05	4.96369946e+06	4.02988128e+04	2.22176224e+05	-1.81877411e+05
188             	-3.61461759e+05	-6.18136564e+06	-4.23585715e+05	-5.73254617e+05	1.49668901e+05
190             	3.67791085e+05	6.77137836e+06	3.26867029e+05	5.31224599e+05	-2.04357570e+05
192             	-4.12343499e+05	-7.92768821e+06	-2.96032691e+05	-5.60359845e+05	2.64327153e+05
194             	5.69393837e+05	7.58311858e+06	4.24858670e+05	7.81823172e+05	-3.56964502e+05
196             	-7.19060358e+05	-9.25031555e+06	-5.54240425e+05	-9.96180570e+05	4.41940145e+05
198             	6.15335751e+05	9.55731487e+06	3.40177048e+05	7.85424275e+05	-4.45247227e+05
200             	-6.15410801e+05	-9.67505177e+06	-3.22504212e+05	-7.76662907e+05	4.54158695e+05
202             	7.33397467e+05	8.43068191e+06	9.85596395e+05	1.22619566e+06	-2.40599270e+05
204             	-7.47874045e+05	-9.75581417e+06	-1.19260302e+06	-1.34417555e+06	1.51572535e+05
206             	8.44767761e+05	8.40394665e+06	1.98666052e+06	1.83809802e+06	1.48562497e+05
208             	-4.67465902e+05	-9.64114429e+06	-1.76330332e+06	-1.34911756e+06	-4.14185761e+05
210             	2.77921964e+05	9.42785467e+06	1.03620073e+06	7.96022330e+05	2.40178403e+05
212             	-4.34182362e+05	-1.09668358e+07	-7.32397576e+05	-8.00381150e+05	6.79835737e+04
214             	3.06787918e+05	1.01734819e+07	3.06038773e+05	4.59807305e+05	-1.53768531e+05
216             	-8.11313829e+05	-1.20508723e+07	-4.78186369e+05	-1.05040701e+06	5.72220645e+05
218             	7.18082937e+05	1.18218207e+07	2.81358227e+05	8.58762051e+05	-5.77403823e+05
220             	-6.18243276e+05	-1.25921421e+07	-7.37683687e+05	-9.87085120e+05	2.49401433e+05
222             	5.51260290e+05	9.90051202e+06	4.19016805e+05	7.60768692e+05	-3.41751887e+05
224             	-6.25135265e+05	-1.24431937e+07	-7.73278904e+02	-6.25521904e+05	6.24748625e+05
226             	3.97130246e+05	1.22927719e+07	5.05220619e+05	6.49740556e+05	-1.44519937e+05
228             	-9.58244474e+05	-1.44239815e+07	-1.15581986e+06	-1.53615440e+06	3.80334543e+05
230             	8.36978001e+05	1.43684771e+07	1.03200291e+06	1.35297946e+06	-3.20976544e+05
232             	-1.19267328e+06	-1.79850159e+07	-1.35254381e+06	-1.86894518e+06	5.16401375e+05
234             	1.77517604e+06	1.90181764e+07	1.93334276e+06	2.74184742e+06	-8.08504662e+05
236             	-2.18836838e+06	-2.17502855e+07	-2.38463823e+06	-3.38068750e+06	9.96049264e+05
238             	2.31769175e+06	1.90107297e+07	3.76436092e+06	4.19987221e+06	-4.35511294e+05
240             	-1.64275006e+06	-2.27618887e+07	-3.53252309e+06	-3.40901161e+06	-1.23511482e+05
242             	1.43277610e+06	2.02689128e+07	3.19861664e+06	3.03208442e+06	1.66532219e+05
244             	-1.36427608e+06	-2.26949733e+07	-2.95376899e+06	-2.84116057e+06	-1.12608416e+05
246             	1.42011648e+06	2.24856645e+07	2.48651276e+06	2.66337286e+06	-1.76860094e+05
248             	-1.15921379e+06	-2.49604818e+07	-1.87224146e+06	-2.09533452e+06	2.23093055e+05
250             	7.02268032e+05	2.73132719e+07	1.30484044e+06	1.35468825e+06	-4.98478096e+04
252             	-1.12185837e+06	-3.13699004e+07	-5.92608515e+05	-1.41816263e+06	8.25554111e+05
254             	1.58952466e+06	2.78012111e+07	1.41670804e+06	2.29787868e+06	-8.81170644e+05
256             	-1.30004053e+06	-3.34347752e+07	-1.00357898e+06	-1.80183002e+06	7.98251043e+05
258             	9.33802015e+05	2.57983788e+07	4.14537963e+05	1.14107100e+06	-7.26533033e+05
260             	-1.06423807e+06	-3.14161227e+07	1.81518904e+05	-9.73478617e+05	1.15499752e+06
262             	1.69604915e+06	2.74900732e+07	-2.25098957e+05	1.58349967e+06	-1.80859863e+06
264             	-1.79624618e+06	-3.34239026e+07	5.19301094e+05	-1.53659563e+06	2.05589673e+06
266             	1.95748055e+06	3.31027095e+07	-3.57439347e+06	1.70283810e+05	-3.74467728e+06
268             	-3.18662176e+06	-4.04563064e+07	2.55074117e+06	-1.91125117e+06	4.46199235e+06
270             	1.43471965e+06	4.00814638e+07	-3.39335920e+06	-2.61959953e+05	-3.13139925e+06
272             	3.78995715e+05	-4.45716305e+07	5.64719453e+06	3.20259298e+06	2.44460155e+06
274             	2.68730025e+06	4.11868009e+07	-8.92633565e+05	2.24098347e+06	-3.13361703e+06
276             	-2.43958113e+06	-5.06933665e+07	7.44868962e+05	-2.06714665e+06	2.81201561e+06
278             	1.98764943e+06	4.47389966e+07	1.53668857e+06	2.75599372e+06	-1.21930514e+06
280             	-1.03201686e+06	-5.31433501e+07	-1.44369581e+05	-1.10420165e+06	9.59832071e+05
282             	-8.07598592e+05	5.94121654e+07	-3.62196772e+06	-2.61858245e+06	-1.00338527e+06
284             	-3.21333574e+05	-6.28068779e+07	1.08425679e+06	2.20794820e+05	8.63461968e+05
286             	8.27872197e+05	6.44367092e+07	-2.77567151e+06	-5.59963559e+05	-2.21570795e+06
288             	-8.77031346e+05	-7.87793866e+07	6.40593194e+06	2.32593463e+06	4.07999732e+06
290             	-6.25662905e+05	8.48377297e+07	-6.33531950e+06	-3.79332265e+06	-2.54199684e+06
292             	-2.47238874e+06	-8.68312870e+07	2.49774773e+06	-1.22351488e+06	3.72126261e+06
294             	2.64830944e+06	6.59488054e+07	-3.56063762e+06	8.67990634e+05	-4.42862825e+06
296             	-2.44875012e+06	-8.01703009e+07	6.76915452e+06	9.35827145e+05	5.83332738e+06
298             	3.09269496e+06	5.49181358e+07	-4.34213379e+06	9.21628068e+05	-5.26376186e+06
300             	-4.49618799e+06	-8.04324915e+07	5.73753719e+06	-1.62741939e+06	7.36495659e+06
302             	6.77454768e+06	8.73062931e+07	-7.49420027e+06	3.02744754e+06	-1.05216478e+07
304             	-6.00184313e+06	-9.21984754e+07	2.71452037e+06	-4.64458294e+06	7.35910331e+06
306             	2.66297515e+06	1.10593630e+08	-7.83897001e+06	-1.25650986e+06	-6.58246015e+06
308             	-3.13104982e+06	-1.23293620e+08	6.39079768e+06	6.43490232e+04	6.32644866e+06
310             	9.20442125e+06	1.21792800e+08	-4.12644031e+05	8.99809923e+06	-9.41074326e+06
312             	-8.30740220e+06	-1.52315673e+08	5.69702613e+05	-8.02255089e+06	8.59225350e+06
314             	1.04289095e+07	1.53239598e+08	6.71622984e+06	1.37870244e+07	-7.07079456e+06
316             	-7.28655817e+06	-1.61778916e+08	-2.79409996e+06	-8.68360815e+06	5.88950819e+06
318             	8.68661643e+06	1.49650723e+08	1.29087558e+07	1.51409944e+07	-2.23223852e+06
320             	-6.59452084e+06	-1.53354987e+08	-7.45978318e+06	-1.03244124e+07	2.86462925e+06
322             	-1.81664239e+06	1.39117752e+08	-5.19258246e+06	-4.41293362e+06	-7.79648844e+05
324             	3.33608134e+06	-1.66831786e+08	5.33826519e+06	6.00521394e+06	-6.66948750e+05
326             	-1.16388761e+06	1.63968562e+08	-9.29597325e+06	-5.81187424e+06	-3.48409902e+06
328             	-2.12398039e+06	-1.90896071e+08	9.80212563e+06	2.77708243e+06	7.02504320e+06
330             	2.45844959e+06	2.13063694e+08	-2.96552593e+07	-1.23691800e+07	-1.72860792e+07
332             	-4.30051135e+06	-2.43531359e+08	3.10257076e+07	1.12123424e+07	1.98133652e+07
334             	1.05945803e+06	1.97858302e+08	-3.38353847e+07	-1.58582343e+07	-1.79771504e+07
336             	-6.56830546e+06	-2.22154605e+08	3.04989876e+07	8.68118834e+06	2.18177993e+07
338             	1.30407788e+06	1.92300408e+08	-2.08673711e+07	-9.12960766e+06	-1.17377634e+07
340             	-5.95280642e+06	-2.23269571e+08	2.33900229e+07	5.74220503e+06	1.76478179e+07
342             	6.28213734e+06	2.26593797e+08	-2.74354686e+07	-7.43559695e+06	-1.99998716e+07
344             	-7.54704135e+06	-2.75640806e+08	2.34438470e+07	4.17488217e+06	1.92689649e+07
346             	1.34230775e+07	2.63950152e+08	-4.94556164e+06	1.09502967e+07	-1.58958583e+07
348             	-1.87886301e+07	-2.97308461e+08	3.57654355e+06	-1.70003584e+07	2.05769019e+07
350             	-7.88021350e+05	2.98072286e+08	-1.20293312e+07	-6.80268696e+06	-5.22664426e+06
352             	-4.27379456e+06	-3.27720562e+08	9.87308394e+06	6.62747408e+05	9.21033654e+06
354             	1.00838580e+07	2.72819108e+08	-1.13561144e+06	9.51605230e+06	-1.06516637e+07
356             	-1.43240888e+07	-2.96595265e+08	-1.15311393e+06	-1.49006458e+07	1.37475319e+07
358             	2.29208746e+07	2.62601370e+08	1.13677905e+07	2.86047699e+07	-1.72369794e+07
360             	-2.20973766e+07	-3.48088778e+08	-4.96031525e+06	-2.45775342e+07	1.96172190e+07
362             	1.77906022e+07	3.46598824e+08	1.66637956e+07	2.61225000e+07	-9.45870434e+06
364             	-1.45262943e+07	-4.26080876e+08	-1.36992523e+07	-2.13759204e+07	7.67666811e+06
366             	2.51357341e+07	4.03757981e+08	1.18399785e+07	3.10557233e+07	-1.92157448e+07
368             	-4.49779283e+07	-5.00666272e+08	-2.08889360e+07	-5.54223963e+07	3.45334603e+07
370             	4.68493441e+07	5.50517799e+08	1.06508133e+07	5.21747507e+07	-4.15239374e+07
372             	-4.62474556e+07	-6.40516058e+08	-2.10400280e+07	-5.67674696e+07	3.57274416e+07
374             	4.71491710e+07	6.65507310e+08	-2.40476905e+07	3.51253258e+07	-5.91730163e+07
376             	-6.61926549e+07	-7.69720350e+08	-3.38954806e+06	-6.78874290e+07	6.44978809e+07
378             	6.29403752e+07	7.10943926e+08	-1.11570911e+07	5.73618296e+07	-6.85189207e+07
380             	-6.14826381e+07	-7.84600513e+08	-4.89594512e+06	-6.39306106e+07	5.90346655e+07
382             	6.62830384e+07	7.02169951e+08	7.74947331e+07	1.05030405e+08	-2.75356718e+07
384             	-5.53756722e+07	-8.29919705e+08	-3.46926428e+07	-7.27219936e+07	3.80293508e+07
386             	4.05026482e+07	7.15310186e+08	7.15030075e+07	7.62541520e+07	-4.75114442e+06
388             	-3.97817911e+07	-8.56799717e+08	-7.01170414e+07	-7.48403118e+07	4.72327041e+06
390             	1.41877314e+07	7.35437076e+08	3.05533579e+07	2.94644103e+07	1.08894759e+06
392             	-1.52361396e+07	-9.36881771e+08	7.19269871e+06	-1.16397902e+07	1.88324889e+07
394             	1.20211133e+07	9.34741037e+08	-1.67571003e+07	3.64256321e+06	-2.03996635e+07
396             	-4.32169479e+07	-1.03228455e+09	1.67554517e+07	-3.48392220e+07	5.15946737e+07
398             	4.93328497e+07	1.11992355e+09	-7.92465419e+07	9.70957874e+06	-8.89561206e+07
400             	-6.44353698e+07	-1.36191089e+09	6.93256548e+07	-2.97725424e+07	9.90981972e+07
402             	4.76121457e+07	1.38171919e+09	-9.35274013e+07	8.48444997e+05	-9.43758463e+07
404             	-4.86808142e+07	-1.44203042e+09	6.00324162e+07	-1.86646061e+07	7.86970223e+07
406             	1.30562552e+08	1.33042401e+09	9.82868785e+07	1.79705991e+08	-8.14191129e+07
408             	-1.20387406e+08	-1.67017568e+09	-6.80772271e+07	-1.54426020e+08	8.63487928e+07
410             	6.02689907e+07	1.65752657e+09	1.97137052e+07	7.01258433e+07	-5.04121381e+07
412             	-1.07621021e+08	-1.94652199e+09	-3.88597857e+07	-1.27050914e+08	8.81911282e+07
414             	7.46007947e+07	1.77602428e+09	-7.56552139e+06	7.08180340e+07	-7.83835554e+07
416             	-4.24895974e+07	-2.17249935e+09	2.53215366e+07	-2.98288291e+07	5.51503657e+07
418             	3.40554944e+06	2.03409013e+09	-8.87172939e+07	-4.09530975e+07	-4.77641964e+07
420             	-4.27600981e+07	-2.33571680e+09	1.35368293e+08	2.49240485e+07	1.10444245e+08
422             	7.49057764e+07	2.43727177e+09	-1.17456396e+08	1.61775784e+07	-1.33633975e+08
424             	-1.17356429e+08	-2.76003320e+09	4.95432207e+07	-9.25848188e+07	1.42128040e+08
426             	1.95466275e+08	2.47027645e+09	-1.84198957e+08	1.03366797e+08	-2.87565754e+08
428             	-2.10351616e+08	-3.09285592e+09	1.56588132e+08	-1.32057549e+08	2.88645682e+08
430             	1.67825635e+08	2.44604924e+09	2.87691519e+06	1.69264093e+08	-1.66387177e+08
432             	-2.15769126e+08	-2.71464897e+09	-1.39064882e+08	-2.85301567e+08	1.46236685e+08
434             	5.73698273e+07	2.71215194e+09	1.36406885e+08	1.25573270e+08	1.08336151e+07
436             	-5.16149028e+07	-3.26652700e+09	-1.61197096e+07	-5.96747576e+07	4.35550480e+07
438             	1.10937886e+08	3.69879304e+09	8.51790833e+07	1.53527428e+08	-6.83483447e+07
440             	-2.39142491e+08	-4.14169138e+09	-1.43156860e+08	-3.10720921e+08	1.67564061e+08
442             	1.01558106e+08	3.87292789e+09	4.89315242e+06	1.04004682e+08	-9.91115296e+07
444             	-1.65022902e+08	-4.80799894e+09	-1.29460031e+08	-2.29752918e+08	1.00292887e+08
446             	3.94325657e+08	4.15573936e+09	3.35678772e+08	5.62165043e+08	-2.26486271e+08
448             	-4.53391806e+08	-4.96988169e+09	-2.84969870e+08	-5.95876741e+08	3.10906871e+08
450             	4.23999532e+08	4.64601962e+09	3.46998490e+08	5.97498777e+08	-2.50500287e+08
452             	-2.91905283e+08	-5.28718688e+09	-1.91041209e+08	-3.87425887e+08	1.96384678e+08
454             	3.17290391e+08	5.26267979e+09	-1.59886415e+08	2.37347184e+08	-3.97233599e+08
456             	-3.84480267e+08	-6.12046788e+09	8.90602664e+07	-3.39950133e+08	4.29010400e+08
458             	2.87313514e+08	6.14183365e+09	-1.70956069e+08	2.01835480e+08	-3.72791549e+08
460             	-5.66014992e+08	-7.09001269e+09	-2.39804037e+08	-6.85917011e+08	4.46112974e+08
462             	7.88519490e+08	7.49858345e+09	9.08881451e+08	1.24296022e+09	-3.34078764e+08
464             	-5.39993124e+08	-8.28067932e+09	-6.29794515e+08	-8.54890382e+08	2.25095867e+08
466             	3.75401709e+08	7.09499171e+09	2.16072085e+08	4.83437751e+08	-2.67365666e+08
468             	-2.89823897e+08	-8.21159707e+09	-2.23276030e+08	-4.01461912e+08	1.78185882e+08
470             	3.31760090e+07	6.90314646e+09	1.42495300e+07	4.03007740e+07	-2.60512441e+07
472             	-2.29588482e+08	-8.74465414e+09	8.01034775e+07	-1.89536743e+08	2.69640221e+08
474             	9.60106371e+07	7.42977755e+09	-3.49518044e+08	-7.87483848e+07	-2.70769659e+08
476             	-2.70778662e+08	-9.01520514e+09	5.66566937e+08	1.25048068e+07	5.54062130e+08
478             	4.72470314e+08	9.12210727e+09	-4.80844114e+08	2.32048257e+08	-7.12892372e+08
480             	-6.38015053e+08	-1.13085823e+10	5.04460146e+08	-3.85784980e+08	8.90245126e+08
482             	8.78761677e+08	1.15167085e+10	-2.56412264e+08	7.50555545e+08	-1.00696781e+09
484             	-7.09403673e+08	-1.22760561e+10	2.62486969e+08	-5.78160188e+08	8.40647157e+08
486             	8.61997698e+08	9.17690122e+09	2.62259114e+08	9.93127255e+08	-7.30868141e+08
488             	-8.92595391e+08	-1.22561152e+10	1.16520032e+08	-8.34335375e+08	9.50855407e+08
490             	8.54916897e+08	1.07380509e+10	9.80758632e+08	1.34529621e+09	-3.64537582e+08
492             	-7.06696534e+08	-1.33821000e+10	-7.35843672e+08	-1.07461837e+09	3.38774698e+08
494             	5.83563059e+08	1.35127241e+10	5.02910736e+08	8.35018427e+08	-3.32107691e+08
496             	-5.37248690e+08	-1.56522869e+10	-4.79292174e+08	-7.76894777e+08	2.97602603e+08
498             	5.96410000e+08	1.57441443e+10	3.32859686e+08	7.62839843e+08	-4.29980157e+08
500             	-8.17726250e+08	-1.93046662e+10	-4.94278607e+07	-8.42440180e+08	7.93012320e+08
502             	2.49891507e+08	1.99740975e+10	-1.26528243e+09	-3.82749710e+08	-8.82532724e+08
504             	-3.21324303e+08	-2.28425334e+10	1.41325504e+09	3.85303216e+08	1.02795182e+09
506             	-9.15716833e+08	1.85827685e+10	-3.01831580e+09	-2.42487473e+09	-5.93441067e+08
508             	5.63521268e+08	-2.24810485e+10	3.23537423e+09	2.18120838e+09	1.05416585e+09
510             	2.46214881e+08	1.72887851e+10	-2.08151000e+09	-7.94540117e+08	-1.28696988e+09
512             	-4.46539223e+08	-2.19829135e+10	1.69511566e+09	4.01018609e+08	1.29409705e+09
514             	9.12284543e+08	2.24745556e+10	-3.42328440e+09	-7.99357654e+08	-2.62392674e+09
516             	-1.03022235e+09	-2.80148137e+10	3.00405069e+09	4.71803000e+08	2.53224769e+09
518             	1.36713498e+09	3.04721650e+10	-4.20111942e+09	-7.33424728e+08	-3.46769469e+09
520             	-1.34895674e+09	-3.07090116e+10	4.47107437e+09	8.86580442e+08	3.58449392e+09
522             	2.08909983e+08	2.93231335e+10	-3.07833139e+09	-1.33025571e+09	-1.74807568e+09
524             	-1.42459222e+09	-3.56157279e+10	3.19532493e+09	1.73070249e+08	3.02225469e+09
526             	-3.44148950e+08	3.14622875e+10	-2.14861105e+09	-1.41845448e+09	-7.30156577e+08
528             	3.46623413e+07	-3.72773856e+10	1.80287840e+09	9.36101544e+08	8.66776861e+08
530             	-4.26196042e+08	3.79130442e+10	-1.87357584e+09	-1.36298396e+09	-5.10591877e+08
532             	-4.94894996e+08	-4.08447070e+10	2.60165582e+09	8.05932915e+08	1.79572291e+09
534             	1.62420710e+09	3.82862863e+10	-4.39950387e+09	-5.75544836e+08	-3.82395903e+09
536             	-2.88179662e+09	-4.59879625e+10	2.51382103e+09	-1.62488611e+09	4.13870714e+09
538             	4.04083766e+09	4.72193013e+10	-1.51577995e+09	3.28294769e+09	-4.79872763e+09
540             	-4.05444980e+09	-5.40046052e+10	5.08197512e+08	-3.80035104e+09	4.30854856e+09
542             	2.58748746e+09	4.53121574e+10	-5.48102259e+09	-1.53023831e+08	-5.32799876e+09
544             	-4.10508313e+09	-5.87839704e+10	4.19976565e+09	-2.00520031e+09	6.20496596e+09
546             	2.37150309e+09	5.34473686e+10	-5.14251489e+09	-1.99754359e+08	-4.94276053e+09
548             	-2.98266435e+09	-5.54053525e+10	4.09790722e+09	-9.33710741e+08	5.03161796e+09
550             	5.53756890e+08	5.14942898e+10	-3.25093281e+09	-1.07170951e+09	-2.17922329e+09
552             	-7.83452750e+08	-6.08454814e+10	3.37380116e+09	9.03447830e+08	2.47035333e+09
554             	5.24545788e+09	6.73514446e+10	9.02296392e+09	9.75693984e+09	-7.33975916e+08
556             	-5.36585516e+09	-7.40408512e+10	-7.45540501e+09	-9.09355766e+09	1.63815265e+09
558             	6.29015509e+09	7.35282566e+10	1.23637752e+10	1.24720427e+10	-1.08267502e+08
560             	-4.36818961e+09	-8.62243009e+10	-8.70783496e+09	-8.72210710e+09	1.42721306e+07
562             	5.62283614e+09	7.24865393e+10	9.35720803e+09	1.03014402e+10	-9.44232126e+08
564             	-7.26054423e+09	-9.14155244e+10	-8.44277969e+09	-1.14819341e+10	3.03915439e+09
566             	2.28558878e+09	8.02498200e+10	-1.44862638e+09	1.56127558e+09	-3.00990197e+09
568             	-1.09515202e+09	-9.19667292e+10	4.73273598e+09	1.27121597e+09	3.46152001e+09
570             	-4.26608939e+08	9.66867633e+10	-7.36429219e+09	-4.10875503e+09	-3.25553715e+09
572             	2.51076431e+08	-1.20854374e+11	1.24803101e+10	6.49123146e+09	5.98907860e+09
574             	-4.10139228e+09	1.41109840e+11	-2.38778124e+10	-1.60402985e+10	-7.83751392e+09
576             	-1.57992668e+09	-1.58743810e+11	1.97800666e+10	8.31010662e+09	1.14699600e+10
578             	-1.59474178e+09	1.22491126e+11	-2.21376153e+10	-1.26635494e+10	-9.47406587e+09
580             	4.16625050e+08	-1.40409494e+11	2.22776030e+10	1.15554265e+10	1.07221764e+10
582             	1.49966447e+09	1.08069043e+11	-1.48892683e+10	-5.94496965e+09	-8.94429860e+09
584             	-4.37062828e+09	-1.41273542e+11	1.21168162e+10	1.68777982e+09	1.04290364e+10
586             	7.84999372e+09	1.41635008e+11	-6.55447627e+09	4.57275559e+09	-1.11272319e+10
588             	-8.18684907e+09	-1.59981085e+11	7.41774828e+09	-4.47797493e+09	1.18957232e+10
590             	9.04433729e+09	1.43739106e+11	3.13685039e+08	9.20117981e+09	-8.88749477e+09
592             	-1.15518625e+10	-1.82473054e+11	-6.54700724e+09	-1.48253661e+10	8.27835887e+09
594             	2.03376301e+10	1.69369722e+11	2.47511584e+10	3.27132094e+10	-7.96205092e+09
596             	-1.77869428e+10	-1.85732919e+11	-2.57970231e+10	-3.06854544e+10	4.88843123e+09
598             	2.15585978e+10	1.79826771e+11	2.62414731e+10	3.46793343e+10	-8.43786126e+09
600             	-1.33140888e+10	-2.20139428e+11	-1.38297975e+10	-2.02289875e+10	6.39919001e+09
602             	3.24414144e+09	2.46906535e+11	-2.22700377e+09	2.13063955e+09	-4.35764332e+09
604             	-6.83680356e+09	-2.48333074e+11	5.02617759e+09	-4.32371476e+09	9.34989235e+09
606             	2.02832664e+09	2.55819672e+11	-1.19248777e+10	-3.93411223e+09	-7.99076551e+09
608             	5.46720841e+09	-3.05909214e+11	2.64163050e+10	1.86753609e+10	7.74094407e+09
610             	-1.95706494e+09	2.75531913e+11	-7.64457542e+09	-5.77935266e+09	-1.86522277e+09
612             	5.69131120e+09	-3.29238630e+11	1.31887809e+10	1.22857017e+10	9.03079262e+08
614             	-1.10132907e+10	3.32304985e+11	-2.48168761e+10	-2.34217288e+10	-1.39514735e+09
616             	1.62972111e+09	-3.75718879e+11	7.29482579e+09	5.27713401e+09	2.01769178e+09
618             	2.16937626e+09	3.38847593e+11	-1.04997477e+09	1.64438888e+09	-2.69436364e+09
620             	-1.24197043e+09	-3.87041130e+11	4.26676637e+09	8.91412756e+08	3.37535361e+09
622             	8.05470589e+08	3.37837324e+11	-6.97132485e+09	-2.68019184e+09	-4.29113302e+09
624             	-1.03106118e+10	-3.76258509e+11	6.08200528e+09	-7.26960918e+09	1.33516145e+10