/*--------------------------------*- C++ -*----------------------------------*\
  =========                 |
  \\      /  F ield         | OpenFOAM: The Open Source CFD Toolbox
   \\    /   O peration     | Website:  https://openfoam.org
    \\  /    A nd           | Version:  7
     \\/     M anipulation  |
\*---------------------------------------------------------------------------*/
FoamFile
{
    version     2.0;
    format      ascii;
    class       volScalarField;
    location    "1000";
    object      k;
}
// * * * * * * * * * * * * * * * * * * * * * * * * * * * * * * * * * * * * * //

dimensions      [0 2 -2 0 0 0 0];

internalField   nonuniform List<scalar> 
34387
(
1.5185243
1.5173452
1.5144951
1.5226685
1.5198988
1.5185091
1.5185458
1.518547
1.5183969
1.518384
1.5172911
1.517086
1.5175078
1.517529
1.5171336
1.5173023
1.5172774
1.5170706
1.5171241
1.5148349
1.5147907
1.5144586
1.5201722
1.5196038
1.5227095
1.5227732
1.5227766
1.5227434
1.5227381
1.5233334
1.5199105
1.5200494
1.5200607
1.5196579
1.5196656
1.5185001
1.5185376
1.5183985
1.5185385
1.5183897
1.5185194
1.5185042
1.5173179
1.5172923
1.5172519
1.5174404
1.5174297
1.5170569
1.5171008
1.5172693
1.5172522
1.5170391
1.517089
1.5162732
1.5167932
1.5176535
1.5176933
1.5163011
1.5168287
1.5162701
1.5162473
1.5156072
1.5156341
1.515028
1.5149901
1.5148106
1.5149332
1.5147738
1.5145313
1.5171013
1.5249442
1.520123
1.5200141
1.5199257
1.51998
1.5200652
1.5210665
1.5195208
1.5227341
1.522809
1.522821
1.5227877
1.5227861
1.520832
1.5216866
1.5216939
1.520864
1.5234601
1.523367
1.522929
1.5233705
1.5233485
1.522903
1.5199003
1.5200283
1.5200225
1.5196862
1.5196686
1.5232455
1.5234101
1.5207075
1.5206282
1.5184931
1.5185316
1.5184026
1.5185305
1.5183947
1.5185222
1.5172844
1.5185221
1.5172672
1.5185346
1.5185167
1.5171842
1.5171683
1.5172168
1.5172312
1.5172437
1.5170565
1.5170074
1.5170285
1.5173865
1.5173827
1.5170723
1.517609
1.5175688
1.5162368
1.5167543
1.5162553
1.5167935
1.5162415
1.5162174
1.5155736
1.5156019
1.5156403
1.5162897
1.5154156
1.5176029
1.5176551
1.5156659
1.5162775
1.5154405
1.5162712
1.5162716
1.5155575
1.5155694
1.5150564
1.5155798
1.5150357
1.51506
1.5149696
1.5148265
1.5152739
1.5149701
1.5147921
1.5143261
1.5196133
1.5171544
1.5170627
1.5171394
1.516954
1.5169841
1.5170507
1.5169454
1.5169746
1.5170962
1.5259268
1.5249635
1.5199391
1.5198876
1.5200855
1.5199742
1.5200139
1.5187292
1.5176939
1.5177251
1.51876
1.5207852
1.5194532
1.522756
1.5228583
1.52283
1.5228318
1.5228129
1.520768
1.5216856
1.5216873
1.5208066
1.5207271
1.5215863
1.5216413
1.5207548
1.5232077
1.5234209
1.5234128
1.5234352
1.523417
1.523398
1.5233462
1.5229948
1.5234057
1.5233793
1.522999
1.5266981
1.5277226
1.5275385
1.5264702
1.5198684
1.520006
1.5199978
1.5196933
1.5196711
1.523575
1.5234859
1.520758
1.5208122
1.523496
1.5236333
1.5207809
1.5207295
1.518525
1.5184781
1.5184055
1.5185249
1.518397
1.5185206
1.5172642
1.5185199
1.5172474
1.5185325
1.5171221
1.5185706
1.5171145
1.5185137
1.5184911
1.5171053
1.517099
1.5171837
1.5172108
1.5173614
1.5173476
1.5170411
1.5169953
1.5169711
1.5170207
1.517222
1.5161832
1.5162071
1.5155615
1.5167555
1.5155322
1.5167099
1.5161985
1.5175101
1.5175366
1.5162227
1.5175524
1.5175338
1.5156033
1.5162215
1.5153799
1.5156181
1.5162421
1.515398
1.5162258
1.516158
1.5155496
1.5155544
1.5151072
1.5156364
1.5161933
1.5152532
1.5176401
1.5176794
1.5151252
1.5156471
1.5162253
1.5152783
1.516139
1.5161195
1.5154599
1.5154794
1.5150262
1.5155316
1.5150264
1.5150427
1.5149496
1.514739
1.5151742
1.5149774
1.514683
1.5150149
1.5215137
1.5196077
1.5195854
1.5195667
1.5193661
1.5193864
1.5164057
1.517118
1.5170287
1.5169319
1.5169579
1.5171217
1.5169491
1.5169229
1.5169952
1.5170266
1.5163797
1.5163176
1.5169072
1.5163344
1.516916
1.5161221
1.5163935
1.5163985
1.5161597
1.5258573
1.5249929
1.5176731
1.5176398
1.5198962
1.5200416
1.5198458
1.5199368
1.5199735
1.5186853
1.5187078
1.5186166
1.517524
1.517584
1.5187025
1.5252248
1.5206196
1.5193963
1.5228835
1.5227787
1.5228509
1.5228315
1.5228563
1.5216751
1.5216894
1.5207008
1.5207393
1.5206078
1.5215684
1.521591
1.5206294
1.520585
1.5215266
1.5215352
1.5206121
1.5257472
1.5234952
1.524179
1.5238821
1.5237342
1.5239854
1.5233747
1.5233922
1.5234036
1.5233902
1.5233797
1.5268957
1.5268491
1.5269333
1.5269589
1.5233539
1.5234231
1.5233984
1.523067
1.5231
1.5270348
1.5279789
1.5278273
1.5268513
1.5270577
1.5283491
1.5280983
1.5268772
1.519821
1.5199786
1.5199762
1.5196906
1.5196617
1.5237493
1.5236436
1.5208554
1.5209148
1.5238133
1.5237755
1.5208498
1.5208351
1.5236533
1.5237842
1.5208027
1.5207285
1.5185157
1.518515
1.5184614
1.5184042
1.5185132
1.5183914
1.5172445
1.5185197
1.5172234
1.5185443
1.5171218
1.5185483
1.5171275
1.5185247
1.5170914
1.5185218
1.5170899
1.517152
1.5173397
1.5171824
1.5171951
1.5169834
1.5169326
1.5169576
1.5170044
1.5173299
1.5161494
1.5174664
1.5174855
1.5161732
1.5167092
1.5161417
1.5166544
1.5154938
1.5155218
1.5161728
1.5161274
1.5161236
1.5155462
1.5153602
1.5155853
1.5153401
1.5155026
1.515568
1.5161582
1.5175128
1.5175365
1.5161768
1.517602
1.5175699
1.5150814
1.5156009
1.5161462
1.5152289
1.5150952
1.5155829
1.5161664
1.5152559
1.516101
1.516082
1.5154351
1.5154476
1.5150024
1.5155055
1.5150122
1.5150298
1.5149185
1.5149721
1.5151605
1.5149191
1.5148671
1.5143818
1.5256553
1.5212695
1.5208546
1.5215364
1.5215747
1.5209693
1.5172777
1.5172196
1.5195798
1.5195671
1.5195478
1.5194026
1.5193998
1.5173225
1.5173407
1.5162442
1.5163473
1.5171006
1.5169922
1.5170999
1.5169326
1.5169092
1.5169245
1.5169
1.516951
1.5169764
1.5162992
1.5169005
1.5163109
1.5169073
1.5163667
1.5163917
1.5163856
1.51607
1.5160981
1.5162281
1.5167406
1.5164095
1.5170043
1.5167403
1.5164205
1.5169939
1.5160735
1.5163409
1.5163433
1.5161455
1.5273794
1.5258186
1.5250061
1.5175297
1.5174673
1.5176208
1.5200007
1.5198494
1.5198032
1.5199316
1.5198971
1.5175727
1.5186499
1.5186728
1.5185608
1.518608
1.5185712
1.5174274
1.5174526
1.5186035
1.5240479
1.5252709
1.5205095
1.5193534
1.521651
1.5228869
1.5228002
1.5229196
1.522857
1.5228451
1.5206345
1.5206759
1.5216693
1.5215921
1.5216317
1.5205642
1.520548
1.5205199
1.5215284
1.5215262
1.5205511
1.5263565
1.5264903
1.527642
1.5271817
1.5266817
1.5270757
1.5237549
1.523977
1.5242949
1.5241238
1.523863
1.5274157
1.5280922
1.5279081
1.5273416
1.5233303
1.5233552
1.5233636
1.5233663
1.5233571
1.5270283
1.5269591
1.5269773
1.5270337
1.5272618
1.5273924
1.5275121
1.527225
1.5233688
1.5234305
1.5234088
1.5231714
1.5232031
1.5282163
1.5280853
1.5271808
1.5273853
1.5273951
1.5285446
1.5284647
1.5272228
1.5272947
1.5285678
1.528434
1.5271097
1.5197736
1.519946
1.5196319
1.5196693
1.5199467
1.5239361
1.5238269
1.5209616
1.5210136
1.5239728
1.5239029
1.5208871
1.5209161
1.523952
1.5238722
1.5208561
1.5209014
1.5185688
1.5185041
1.5184456
1.5184984
1.5184951
1.5183766
1.5183949
1.5172166
1.5184837
1.5171957
1.5171581
1.5186036
1.5171074
1.5185351
1.51709
1.5185307
1.5170874
1.5171232
1.5171524
1.5168913
1.5169437
1.5171652
1.5169711
1.5172854
1.5172764
1.5169232
1.5174127
1.5161042
1.5161357
1.5154742
1.5166527
1.5154371
1.5165936
1.5160755
1.5161145
1.5174431
1.5160825
1.5174777
1.5174774
1.5155466
1.5161331
1.5153177
1.5155177
1.5160942
1.5152911
1.5154665
1.5154759
1.5161352
1.5160596
1.5160699
1.51542
1.5152128
1.5150671
1.5155109
1.5151857
1.5150585
1.5153957
1.515557
1.5161045
1.5175236
1.5175474
1.5161268
1.5149696
1.5150094
1.5154878
1.5151419
1.5149836
1.5148436
1.5147385
1.5145833
1.5147389
1.5145852
1.5213629
1.5255633
1.525632
1.5258428
1.5258178
1.5256565
1.5211145
1.5214764
1.5214285
1.5207974
1.5208825
1.5176729
1.5196371
1.5197345
1.5177328
1.5171539
1.5171978
1.5170846
1.5171537
1.5195593
1.5195459
1.5195294
1.5194305
1.5194229
1.5173179
1.5173276
1.5172001
1.5172286
1.5162483
1.5162214
1.5163356
1.5169631
1.5170687
1.5170649
1.5168891
1.516909
1.5169153
1.5168796
1.5169004
1.5169408
1.51631
1.5162924
1.5169006
1.5162787
1.5168966
1.5163836
1.5163761
1.5160242
1.5160502
1.5167437
1.5163781
1.5170233
1.5167426
1.5163867
1.5170139
1.5162202
1.5163413
1.5163419
1.5160153
1.5160744
1.5162367
1.5169535
1.5166946
1.516328
1.5170643
1.516694
1.5169499
1.5163484
1.5170503
1.5160281
1.5163195
1.5163222
1.5160695
1.5235325
1.5275174
1.5257813
1.5250081
1.5174063
1.5173764
1.5174782
1.5199662
1.5197618
1.519805
1.5198954
1.5198635
1.5175516
1.5175135
1.5186299
1.5186018
1.5174158
1.5185925
1.5186093
1.5185319
1.5185517
1.5189881
1.5241318
1.5253117
1.5204224
1.5193209
1.5216511
1.5215818
1.5228167
1.5229491
1.5228539
1.5228505
1.5229167
1.5216306
1.5205714
1.5206115
1.5204792
1.5205396
1.5216039
1.5215134
1.5215321
1.520457
1.5204864
1.5289644
1.5268982
1.5278618
1.5276761
1.5273803
1.5275303
1.5271462
1.5279945
1.5274513
1.5271426
1.5276223
1.5296142
1.529468
1.5282988
1.5283858
1.5239666
1.5243476
1.5242439
1.5239586
1.5240158
1.5283811
1.5274535
1.5274254
1.5282173
1.5279182
1.5283917
1.5283272
1.5278003
1.523297
1.5233172
1.5233295
1.5233396
1.5233338
1.5271564
1.527053
1.527076
1.5271082
1.5275297
1.5275379
1.5272589
1.5273048
1.5276061
1.5276646
1.5276884
1.5276072
1.523382
1.5232808
1.5234444
1.5232527
1.5234261
1.5284389
1.5283123
1.5275489
1.5277551
1.5286763
1.5285985
1.5275231
1.5277294
1.5275783
1.5287489
1.5286606
1.5274375
1.5197304
1.5195891
1.519912
1.5199119
1.5196306
1.5240646
1.521038
1.521029
1.5239906
1.5241494
1.5240823
1.5210191
1.5210756
1.5241448
1.5240419
1.5209575
1.5210182
1.5185231
1.5185255
1.518431
1.5184766
1.5184805
1.5183759
1.5183579
1.5184562
1.5184267
1.5171683
1.5171892
1.5171217
1.5185335
1.5171222
1.5170837
1.5185358
1.5170717
1.5170998
1.5171252
1.5168924
1.5172351
1.5171373
1.5169064
1.516852
1.517233
1.5169399
1.5160599
1.5153863
1.516532
1.5154187
1.5165901
1.5160856
1.5160522
1.5173689
1.5173289
1.5160254
1.5174553
1.5160234
1.5160464
1.5152659
1.5154554
1.5154841
1.5152358
1.5154208
1.5154476
1.5160168
1.5160509
1.5174801
1.5160246
1.5174871
1.5175026
1.5150439
1.5154986
1.5160734
1.5151712
1.515027
1.5154875
1.5160378
1.5151107
1.5153527
1.5153749
1.5160461
1.5151253
1.5149983
1.5149445
1.5154619
1.5151104
1.5149775
1.5149039
1.5154453
1.5149759
1.5148883
1.5148273
1.5149663
1.5148211
1.5144943
1.5255249
1.5210308
1.5212146
1.5210417
1.5211652
1.5213064
1.5247293
1.524764
1.5256931
1.5259936
1.5257262
1.5260396
1.5259294
1.5248739
1.524819
1.5209969
1.5207199
1.5213127
1.5213439
1.5208046
1.5195717
1.5194767
1.5175745
1.5176461
1.5174563
1.519512
1.5195983
1.5175524
1.5169987
1.5170736
1.5169648
1.5170294
1.5171337
1.5170908
1.519532
1.5195166
1.5195163
1.5194195
1.5194352
1.5173243
1.5173058
1.5172127
1.517229
1.5171184
1.5171213
1.5162192
1.516217
1.5169384
1.5168691
1.5170383
1.5170398
1.5168871
1.5168818
1.5168599
1.5168787
1.5169079
1.5162902
1.5162602
1.5162592
1.5168955
1.5162723
1.5168966
1.5159945
1.5163661
1.5163733
1.5160139
1.5162167
1.5167446
1.5163507
1.5170309
1.5167449
1.5163363
1.5170394
1.5163405
1.5163378
1.5159688
1.5160224
1.5169588
1.5167065
1.516294
1.5170949
1.5167021
1.5169562
1.5163094
1.5170549
1.5162272
1.5163161
1.5163151
1.5159673
1.515999
1.5169445
1.5169919
1.5167002
1.517037
1.516699
1.5169822
1.5169487
1.5170278
1.5302952
1.5233171
1.5276261
1.5257454
1.5250041
1.5173506
1.519934
1.5198639
1.5197637
1.5197176
1.5198348
1.5174698
1.5175037
1.5185913
1.5185688
1.5174178
1.5173538
1.5185416
1.5185402
1.5173128
1.518492
1.5185172
1.51827
1.5186515
1.5242221
1.5253469
1.5203507
1.5192957
1.5215437
1.5214742
1.5228323
1.522847
1.5229857
1.5229493
1.5228437
1.5215872
1.5204985
1.5205484
1.5216138
1.5215579
1.520415
1.5204175
1.5203769
1.5204187
1.5214963
1.52882
1.5298936
1.5312426
1.5306644
1.5302209
1.5307291
1.5273643
1.5278062
1.5280525
1.5278646
1.5276518
1.5294695
1.5293007
1.5292434
1.5294176
1.5276841
1.5282057
1.5279775
1.5275299
1.5277303
1.5298117
1.5284976
1.5284375
1.529705
1.5299284
1.5297491
1.528415
1.5283574
1.5240679
1.5243669
1.5240274
1.5240084
1.5243041
1.5274998
1.5274641
1.528516
1.5286833
1.5286714
1.5278704
1.527913
1.5285219
1.5280544
1.5287698
1.5286545
1.5280403
1.5232707
1.5233268
1.5232914
1.5233265
1.5233033
1.5272945
1.5272086
1.5271298
1.5271958
1.5275524
1.527345
1.527527
1.5273914
1.5277113
1.5276973
1.5276107
1.527609
1.5233929
1.5234438
1.5234632
1.5233279
1.5233075
1.5280203
1.5286084
1.5278813
1.5285075
1.5288889
1.5288116
1.5278705
1.528052
1.5289405
1.528843
1.5277213
1.5278894
1.5196891
1.5198762
1.5198775
1.5195436
1.5195868
1.5210227
1.5241467
1.5240885
1.5210225
1.5242532
1.5211195
1.5210773
1.5242365
1.5243211
1.5242384
1.521082
1.5211314
1.5185077
1.5184181
1.5184591
1.5184629
1.5183565
1.5183361
1.5183606
1.5183955
1.517153
1.5171188
1.5184802
1.5184677
1.5170625
1.517125
1.5170656
1.5184893
1.5170521
1.5170785
1.5172278
1.5172181
1.5169094
1.5168593
1.5168078
1.5170935
1.5171077
1.5168651
1.5160198
1.5159811
1.5164651
1.5172783
1.5160454
1.5153695
1.5165284
1.5153414
1.5172975
1.5160079
1.5160044
1.5151912
1.5153352
1.5153991
1.5153687
1.5152137
1.5154226
1.5160009
1.5159907
1.5173926
1.5173456
1.5159689
1.5174285
1.515987
1.5160063
1.5150141
1.5151101
1.5153254
1.5154208
1.5150844
1.5150006
1.5152909
1.5154023
1.5159666
1.5160019
1.5174648
1.5149592
1.5149413
1.5154184
1.5150931
1.5148993
1.514966
1.5153906
1.5150736
1.5149715
1.5148719
1.5147848
1.5149601
1.5147856
1.5146801
1.5225453
1.5253815
1.5253724
1.5254741
1.5250067
1.5250607
1.5207905
1.5209947
1.5209139
1.5209065
1.5210614
1.5203154
1.5208017
1.5208579
1.5204581
1.524648
1.5247095
1.5247899
1.5261515
1.5262227
1.5258292
1.5257968
1.5261055
1.5248076
1.5250008
1.5249457
1.5248229
1.5247309
1.5209034
1.5212217
1.5211884
1.5206325
1.5207167
1.5174415
1.5192662
1.519387
1.5175282
1.5194127
1.5193545
1.517346
1.5174195
1.5172937
1.5193263
1.5194193
1.5173524
1.5169392
1.5169091
1.5170406
1.516985
1.517074
1.5170315
1.519502
1.5194848
1.5195088
1.5194097
1.5194241
1.5172849
1.5173083
1.517243
1.5172109
1.5171248
1.5171228
1.5162095
1.5168398
1.5168485
1.5170114
1.5169123
1.5170138
1.5168659
1.5168578
1.5168802
1.5168559
1.5162441
1.5168974
1.5162254
1.5162459
1.5162544
1.5168955
1.515967
1.5163566
1.5163641
1.5159862
1.5162012
1.5161924
1.5167448
1.5162935
1.5170535
1.5167451
1.5163045
1.5170454
1.5159122
1.51633
1.5163346
1.5159772
1.5161975
1.5167092
1.5169601
1.5162791
1.5170679
1.5169613
1.5167098
1.5162643
1.5170878
1.5163131
1.5163116
1.5159131
1.5159413
1.5169521
1.517004
1.5167039
1.5170539
1.5167028
1.516998
1.51695
1.5170456
1.5169685
1.5169233
1.5169695
1.5169659
1.5169261
1.5169685
1.5232534
1.5305717
1.5231255
1.5277161
1.5257098
1.524995
1.5197211
1.519661
1.5199008
1.5198102
1.5198361
1.5185556
1.5174545
1.5174126
1.5185273
1.5173439
1.5173532
1.5184768
1.5184753
1.5172854
1.5172533
1.5184584
1.518432
1.520432
1.518138
1.51839
1.5243106
1.5253748
1.5202868
1.5192768
1.5214607
1.5228484
1.5230111
1.5229783
1.5228359
1.5228491
1.5204079
1.5215471
1.5215748
1.5204647
1.5214813
1.5203502
1.5203782
1.5214889
1.5214457
1.520312
1.5203411
1.524421
1.5294045
1.5294646
1.5297604
1.5303523
1.5299992
1.530727
1.5317025
1.5311839
1.5308001
1.5312396
1.5319341
1.5318149
1.5315047
1.5316576
1.5276836
1.5279353
1.528125
1.5279978
1.5278382
1.529479
1.5295008
1.5293409
1.529316
1.5297188
1.529316
1.5293263
1.5296189
1.5280246
1.5279553
1.5283492
1.5278108
1.5281967
1.5299808
1.5298877
1.5285422
1.5285899
1.5300589
1.5284688
1.528403
1.5299999
1.5299188
1.5298233
1.5284951
1.5285159
1.5240921
1.5240279
1.5243672
1.5240321
1.5243317
1.5275317
1.5289636
1.5287999
1.5275021
1.5278069
1.5278314
1.5288231
1.5289962
1.5289891
1.5280213
1.5280401
1.528881
1.5232486
1.523266
1.5233248
1.5233185
1.5232783
1.5272581
1.5274002
1.5272126
1.5273328
1.5276893
1.5276439
1.5273462
1.5273712
1.5277726
1.5275966
1.5277355
1.527582
1.5234028
1.5234628
1.5234852
1.5233577
1.523346
1.5286633
1.5287712
1.5282037
1.5281021
1.5282338
1.5290569
1.5281602
1.5290029
1.5291003
1.5290262
1.5280487
1.5281977
1.5196474
1.5198488
1.5198434
1.5195413
1.5194967
1.5241676
1.5242192
1.5210138
1.5210119
1.521119
1.5243184
1.524294
1.5210928
1.524447
1.5211725
1.5211599
1.5243924
1.5184067
1.5184444
1.5183111
1.5183353
1.5184471
1.5182882
1.5183241
1.5170965
1.5170645
1.5184012
1.5184062
1.5170404
1.5169943
1.5184598
1.5184312
1.5170147
1.5170357
1.5170588
1.5168261
1.5172293
1.5170619
1.5170785
1.5168232
1.5167587
1.5168776
1.5172117
1.5172515
1.5172617
1.5159563
1.516462
1.5159183
1.5163919
1.5152958
1.5159728
1.5160012
1.5153275
1.5159947
1.5153597
1.5159256
1.5151554
1.5172618
1.5159932
1.5152825
1.5151733
1.51538
1.5152492
1.5172867
1.515948
1.5159551
1.5150566
1.5149786
1.5152307
1.5153541
1.5152589
1.5150683
1.5149899
1.5153527
1.5159694
1.5159382
1.5173792
1.5173329
1.5159151
1.5149441
1.5149782
1.5150603
1.5153573
1.5150439
1.5149667
1.5149075
1.515329
1.5149632
1.5148509
1.5149546
1.514884
1.5148755
1.5146133
1.5162413
1.5224961
1.5229496
1.5220464
1.5221078
1.522873
1.5242505
1.5241613
1.5254194
1.5254452
1.525515
1.5251855
1.5251332
1.5255445
1.5253881
1.5206289
1.5206432
1.5208121
1.5208614
1.5207859
1.5207504
1.5206962
1.5199774
1.5201654
1.520225
1.5207649
1.520803
1.5203767
1.5246408
1.524707
1.5247918
1.5259126
1.5259493
1.5262917
1.5263732
1.5262723
1.5251164
1.524891
1.5248493
1.5250665
1.5248924
1.5248987
1.5248473
1.5246406
1.524547
1.5208266
1.5205406
1.5210877
1.5211107
1.5206258
1.5191413
1.5190099
1.5173074
1.5173899
1.5172501
1.5191576
1.5192491
1.5173264
1.5192582
1.5191855
1.5171959
1.5172484
1.5168834
1.5168483
1.5169698
1.5169073
1.5170167
1.5169747
1.5194734
1.5194538
1.5195071
1.519396
1.5194172
1.5172623
1.5172829
1.5171563
1.5172199
1.517126
1.5171145
1.5163441
1.516903
1.5168367
1.51623
1.5168438
1.5161899
1.5169728
1.5168799
1.5169536
1.5168476
1.5168199
1.5168275
1.5168213
1.5162139
1.5162396
1.5168974
1.5163525
1.5159525
1.5159307
1.516747
1.5162561
1.5170675
1.5161779
1.516172
1.5167454
1.5162654
1.5170595
1.515901
1.5163247
1.5163277
1.5159133
1.5161802
1.5161634
1.5169629
1.5167119
1.5162337
1.5170604
1.5169621
1.51671
1.5162478
1.5170383
1.5158703
1.5163038
1.516308
1.5158943
1.5167048
1.5169967
1.516954
1.5170563
1.5169562
1.5169895
1.5167053
1.5170618
1.5169705
1.5169601
1.5169704
1.5169704
1.5169559
1.51697
1.5169394
1.5169353
1.516934
1.516936
1.5209998
1.5230633
1.5307918
1.5229555
1.527793
1.5256752
1.5249843
1.51739
1.5173396
1.5196631
1.5198645
1.5195974
1.51981
1.5197755
1.5184863
1.5185127
1.5184362
1.5172881
1.5172849
1.518451
1.5172019
1.5172299
1.5184063
1.5183935
1.5199032
1.5205124
1.5180525
1.5182372
1.5243972
1.5253972
1.5202272
1.5192617
1.5228659
1.5228424
1.5230368
1.5228406
1.5230025
1.5214915
1.5215259
1.5203699
1.5203063
1.5202822
1.5214635
1.5214464
1.5203096
1.5213974
1.5202343
1.5202747
1.5214155
1.5238069
1.5246964
1.5248918
1.5258365
1.525658
1.5247803
1.5299267
1.530007
1.5298139
1.5303361
1.5306153
1.5259639
1.5257268
1.5280728
1.5282673
1.5313901
1.5314919
1.5319919
1.5317069
1.5312541
1.5321062
1.5318708
1.531763
1.5320203
1.532104
1.5319216
1.5315314
1.531598
1.527829
1.5281469
1.5279473
1.5279108
1.5280774
1.52936
1.5295121
1.5294993
1.5293466
1.5297183
1.529699
1.5293699
1.5293453
1.5297366
1.529459
1.5294548
1.5297296
1.5282259
1.5284495
1.5281251
1.5280294
1.5283503
1.528665
1.5301509
1.5286217
1.5300539
1.5301653
1.5301079
1.5285335
1.5285942
1.5300669
1.5285619
1.5285393
1.5299918
1.5240713
1.524353
1.5243294
1.5240331
1.5240183
1.5292368
1.52754
1.5290753
1.5275238
1.5278251
1.5292254
1.5290811
1.5278367
1.5279909
1.5280039
1.5291031
1.5292248
1.5232301
1.5232521
1.5232373
1.523331
1.5233184
1.5274985
1.5273084
1.5272709
1.5274324
1.5273542
1.5278013
1.5273282
1.5277757
1.527857
1.5278152
1.5275604
1.5275544
1.5234121
1.5233789
1.5235088
1.5234845
1.5233691
1.5288358
1.5289435
1.5283447
1.5282573
1.5290914
1.5291543
1.528424
1.5283402
1.5284434
1.5292234
1.5283243
1.5291663
1.5196049
1.5198252
1.5198144
1.5194937
1.5194479
1.5242322
1.5242114
1.5209947
1.5209805
1.5243833
1.5244094
1.5210907
1.5210788
1.5211641
1.5245377
1.524494
1.5211658
1.5183965
1.5184328
1.5184349
1.518309
1.5182815
1.5182282
1.517015
1.5170463
1.5182554
1.5183252
1.5183357
1.5170004
1.5169733
1.5183645
1.5183971
1.5169962
1.5169736
1.5170362
1.5171996
1.5172189
1.5170207
1.5170439
1.5167763
1.5167052
1.5167915
1.5168454
1.5158604
1.5163141
1.5172251
1.5159283
1.5159548
1.5152761
1.5163884
1.5152383
1.5158906
1.5172381
1.5172327
1.517248
1.515339
1.5158919
1.5151368
1.5153136
1.5158522
1.5151115
1.5152088
1.5159274
1.5159515
1.5152292
1.5159184
1.5149618
1.5152854
1.5158677
1.5150427
1.5172733
1.515938
1.5152045
1.5150548
1.5149707
1.5152857
1.5151806
1.5172949
1.5158925
1.5150159
1.5148859
1.514956
1.5152838
1.5150292
1.5149284
1.514989
1.5153035
1.5149597
1.5148261
1.514948
1.5149381
1.5147434
1.5149524
1.514885
1.5148768
1.5149012
1.5164556
1.5154528
1.5152032
1.5157551
1.5162262
1.5163357
1.5224758
1.522093
1.5220463
1.522909
1.5228566
1.5259744
1.5233771
1.5233427
1.5257884
1.5242086
1.5241473
1.5240667
1.5239342
1.5254785
1.5255141
1.5256262
1.5254095
1.5253087
1.5259039
1.5257055
1.5255199
1.5253681
1.5207512
1.5207024
1.5204958
1.5204548
1.5205655
1.5196445
1.5205939
1.5206458
1.519806
1.5207659
1.5207794
1.5198441
1.5200502
1.5201918
1.5207598
1.5208032
1.5203407
1.5247606
1.5249608
1.5250301
1.5260372
1.5260703
1.5264127
1.5265105
1.5264137
1.5251909
1.5251617
1.5250639
1.5249617
1.5249237
1.5249649
1.5248101
1.5248288
1.5247326
1.5210178
1.5209929
1.5207565
1.5204469
1.5205348
1.5171743
1.5188051
1.5189121
1.5172555
1.5190116
1.5188981
1.5171012
1.5172078
1.5170734
1.5189937
1.5190983
1.5171401
1.516819
1.5167846
1.5168975
1.5168411
1.5169576
1.5169157
1.5194449
1.5195024
1.5194202
1.519375
1.5194015
1.5172408
1.5172592
1.5171162
1.5171503
1.5170864
1.5171047
1.5170833
1.5163394
1.5163155
1.5167528
1.516903
1.5162148
1.5162245
1.5161758
1.5161658
1.516849
1.5168081
1.5168993
1.5169173
1.5168217
1.5168152
1.516801
1.5168045
1.5167733
1.5161304
1.5159164
1.5163289
1.5169129
1.5162128
1.5158861
1.5161725
1.5167493
1.5162249
1.5170732
1.5163203
1.5158531
1.5158661
1.5169655
1.516713
1.5162083
1.5171023
1.5161349
1.5161479
1.516964
1.5167121
1.5162194
1.5170477
1.5158401
1.5162937
1.5162993
1.5158568
1.5169816
1.516959
1.5167065
1.5170741
1.5169567
1.5169826
1.5167058
1.5170622
1.5169669
1.5169641
1.5169716
1.5169725
1.5169634
1.5169636
1.5169609
1.5169553
1.5169534
1.5169579
1.5169491
1.5169463
1.5214997
1.5209172
1.5229
1.5309862
1.5227983
1.5278628
1.5256437
1.5249769
1.5172259
1.5173068
1.5172077
1.5195978
1.5198292
1.5197667
1.5197323
1.519536
1.5172521
1.5184622
1.5184173
1.5184134
1.5184078
1.5183761
1.5171717
1.5171439
1.5183575
1.5237197
1.5198229
1.5206063
1.518016
1.5181602
1.5244813
1.5254155
1.5201669
1.5192481
1.5228871
1.5230295
1.5230672
1.5228214
1.5228381
1.5202057
1.5214218
1.5202651
1.5214635
1.5214045
1.5214086
1.5202141
1.5201902
1.5201415
1.521358
1.5213788
1.5201897
1.5264834
1.5239956
1.5244618
1.5243448
1.5242475
1.5243306
1.5249574
1.5249377
1.5248823
1.5257101
1.5258548
1.525623
1.5250027
1.5250763
1.5255998
1.5303037
1.5301769
1.5307702
1.5306132
1.5300786
1.5253641
1.5255597
1.5278889
1.5276771
1.5255283
1.5253574
1.527785
1.527967
1.5318212
1.5315739
1.5322027
1.5320043
1.5317394
1.5320442
1.5322441
1.5321759
1.5319531
1.5322549
1.5317928
1.5316975
1.5322004
1.5320213
1.5319179
1.5315521
1.5316454
1.5278702
1.5279265
1.5281461
1.5279276
1.5281081
1.5295206
1.5293645
1.5293556
1.5295082
1.5294066
1.5296275
1.5296641
1.5293987
1.5297224
1.5297041
1.5294627
1.5294644
1.5283444
1.5285166
1.5284507
1.5281875
1.5282541
1.5303156
1.5287281
1.5286938
1.5302256
1.5286224
1.53036
1.5285806
1.5302884
1.5302213
1.5301403
1.528585
1.5286045
1.5240264
1.524332
1.5239967
1.5240182
1.5243127
1.5275573
1.5275355
1.5293597
1.5295219
1.5294166
1.5278426
1.5292919
1.5278601
1.5279532
1.5294521
1.5293384
1.5279748
1.5232152
1.5233435
1.5232081
1.5232238
1.523324
1.5275322
1.5275992
1.5273627
1.5273193
1.5278399
1.5274179
1.5273768
1.5278255
1.5275553
1.5279327
1.5275487
1.5278979
1.5234204
1.5233891
1.5235364
1.5235069
1.5233832
1.5284594
1.5290841
1.5289937
1.528385
1.529215
1.5293157
1.5285937
1.5285417
1.5292774
1.5293348
1.5286461
1.5285514
1.5195594
1.5194458
1.5197945
1.5198119
1.5194001
1.5242346
1.5242103
1.5209467
1.5209212
1.5244516
1.524457
1.5210562
1.5210648
1.5245828
1.524622
1.5211623
1.5211605
1.5183882
1.5184189
1.5182451
1.5182801
1.518422
1.5181764
1.5182028
1.5169909
1.5169552
1.5182577
1.5169431
1.5169472
1.5182577
1.5182885
1.5183243
1.5169542
1.5169304
1.5170155
1.5172015
1.5169671
1.5171868
1.5168095
1.51675
1.516643
1.5167206
1.5169991
1.5172072
1.5171851
1.5158743
1.515908
1.5152121
1.5163106
1.515174
1.5162246
1.5158075
1.515838
1.5152668
1.5158003
1.5150669
1.517228
1.5158812
1.5158984
1.5150902
1.5151907
1.5152912
1.5151601
1.5158276
1.517239
1.5172458
1.5172579
1.5149535
1.5152523
1.5158365
1.5150275
1.5149441
1.5152778
1.5158015
1.5150045
1.5151377
1.5158659
1.5158908
1.5151599
1.5149342
1.5149196
1.5152453
1.5149878
1.5150032
1.5149731
1.5149359
1.5152594
1.5149247
1.5147593
1.5149365
1.5149309
1.5150374
1.5149522
1.5148859
1.5148811
1.5145909
1.5166038
1.5161757
1.515861
1.5160436
1.5161392
1.5159863
1.5142227
1.5140736
1.5152042
1.5153905
1.5150149
1.5159279
1.5160477
1.5171961
1.5173495
1.5224953
1.5229083
1.5220692
1.5221078
1.5228579
1.523427
1.523499
1.5264344
1.5261628
1.5262411
1.5237477
1.5237065
1.5261051
1.5240785
1.5239932
1.5240495
1.5239375
1.5238097
1.5236633
1.5255498
1.5255783
1.5257402
1.5256
1.5255105
1.5263248
1.526107
1.5258231
1.5256463
1.5255118
1.5253464
1.5205294
1.520452
1.5206356
1.5203784
1.520592
1.5203075
1.5204019
1.5194252
1.5195247
1.5195674
1.5206512
1.5207181
1.5196941
1.5207223
1.52068
1.5198551
1.5200306
1.5250012
1.5250598
1.5251115
1.5251863
1.5261517
1.5261693
1.5265182
1.5266279
1.5265433
1.5252521
1.5252276
1.5251598
1.5250978
1.5249927
1.5249
1.5248532
1.5249166
1.5187119
1.5185991
1.5209247
1.5206851
1.5208954
1.5203489
1.5204427
1.5170548
1.5171267
1.5169577
1.5186704
1.5187562
1.5170418
1.5188662
1.5187417
1.5169408
1.5170103
1.5167578
1.5167252
1.5168431
1.5168977
1.5167925
1.5194123
1.5193806
1.5194931
1.5193783
1.5193475
1.5168549
1.5172165
1.5172404
1.517133
1.5171478
1.5170663
1.5170774
1.517102
1.5169691
1.5170937
1.5163023
1.5162768
1.5167557
1.5167207
1.5161893
1.5162128
1.5160969
1.5161323
1.5168189
1.5167903
1.516853
1.5168718
1.5168013
1.5167944
1.5167825
1.5167323
1.5167684
1.5161949
1.5169274
1.5160785
1.516107
1.5162068
1.5169127
1.5163226
1.5163106
1.5158628
1.5158325
1.5160725
1.5158553
1.5162805
1.5171044
1.5167588
1.516211
1.5158357
1.5161189
1.5169673
1.5167142
1.5161966
1.5170713
1.5162858
1.5158218
1.5158111
1.5169835
1.5169655
1.5167082
1.5170949
1.5169619
1.5169824
1.5167068
1.517082
1.5169586
1.5169695
1.5169746
1.5169735
1.5169678
1.5169606
1.5169575
1.5169642
1.5169646
1.5169565
1.5169511
1.5169519
1.5190015
1.5215549
1.52085
1.5227697
1.5311614
1.5226514
1.5279314
1.525617
1.5249727
1.5171042
1.5171379
1.5170637
1.5172174
1.5197944
1.5195365
1.5194541
1.5197009
1.519731
1.5183793
1.5183364
1.5171595
1.5171124
1.5183374
1.5183137
1.5183071
1.51833
1.5198299
1.5240396
1.5197585
1.5207054
1.5180067
1.5181147
1.5245634
1.525432
1.5201051
1.5192351
1.5230976
1.5229148
1.5227811
1.523058
1.5228129
1.521394
1.5213498
1.5200986
1.5201629
1.5200872
1.5213407
1.5201181
1.521348
1.5212897
1.5213214
1.5200878
1.5200345
1.5277556
1.5270298
1.5276218
1.5279869
1.5271848
1.5269145
1.5241482
1.5244909
1.5243476
1.5242969
1.5244084
1.5256516
1.525657
1.5270178
1.5272358
1.5250987
1.5249285
1.5249323
1.5257382
1.5257894
1.5256385
1.5256262
1.5249393
1.5248764
1.5258797
1.5246796
1.5248119
1.5258149
1.5305256
1.5302542
1.5303124
1.5308704
1.5307666
1.5250439
1.5272791
1.5274951
1.5252228
1.5250065
1.5251832
1.5276372
1.527457
1.5251866
1.5250028
1.5276293
1.5277805
1.5320963
1.5323536
1.5322184
1.5318278
1.5319512
1.5321248
1.5323766
1.532311
1.5322139
1.5320049
1.5322811
1.5322709
1.531898
1.5321674
1.5318059
1.5317265
1.5321015
1.5278534
1.5281272
1.5281076
1.5279049
1.5278823
1.5293622
1.5295289
1.5293576
1.5295172
1.5296704
1.529351
1.5293575
1.5296798
1.5294352
1.5296935
1.5296935
1.5294546
1.5284139
1.5285642
1.5285165
1.5283102
1.5283693
1.5304641
1.5303845
1.5287512
1.5287746
1.5305424
1.5286234
1.528595
1.5304833
1.5286342
1.5303828
1.5286166
1.5303043
1.523973
1.5239658
1.5243047
1.5242863
1.5239885
1.5275811
1.5297742
1.5296324
1.5275566
1.5278186
1.5278325
1.5295483
1.529675
1.5296622
1.5279083
1.5295535
1.5279342
1.523202
1.523369
1.5231772
1.5231953
1.5233377
1.5274247
1.5276919
1.5276286
1.5273761
1.527865
1.5279368
1.5274138
1.527439
1.5279973
1.5275698
1.5275622
1.5279672
1.5234282
1.5235758
1.5233956
1.5235374
1.5234002
1.528562
1.5292277
1.529134
1.5284889
1.5287152
1.5294135
1.5293555
1.5286303
1.5293888
1.5294408
1.5287921
1.5287264
1.5195097
1.5197751
1.5197949
1.5193528
1.5193995
1.5208965
1.5242295
1.5242732
1.5208961
1.5244642
1.5244692
1.5210129
1.52101
1.5246596
1.5246478
1.5211534
1.5211395
1.5183803
1.5184062
1.5182002
1.5182436
1.5184097
1.5181212
1.516901
1.5169333
1.5181481
1.5181965
1.5181991
1.5169248
1.5168997
1.5182194
1.5168885
1.5169095
1.5182486
1.5170008
1.5169093
1.5165769
1.5166611
1.5169477
1.5167746
1.5171602
1.5171808
1.5167132
1.51713
1.5158088
1.5171598
1.5157763
1.5162207
1.5157317
1.5161273
1.5151017
1.5151455
1.5158471
1.5172099
1.517151
1.5158081
1.5158413
1.5150431
1.5151313
1.5152417
1.5150875
1.5150173
1.5152122
1.5157378
1.5157657
1.5149249
1.5152394
1.5157397
1.5149649
1.5172191
1.5158188
1.5158417
1.5149867
1.5149347
1.515114
1.5152371
1.5150859
1.5157697
1.517235
1.5149151
1.5149286
1.5152288
1.5149704
1.5149223
1.5149104
1.5152158
1.5149507
1.5149158
1.5148518
1.5149197
1.5149292
1.5151251
1.5149291
1.5148424
1.5148467
1.5149482
1.5242544
1.5167846
1.5167176
1.5163292
1.51606
1.5162164
1.516045
1.5160534
1.5160174
1.5158462
1.5159039
1.5140424
1.5155458
1.5155261
1.5141367
1.5141915
1.5139361
1.5140761