/*--------------------------------*- C++ -*----------------------------------*\
  =========                 |
  \\      /  F ield         | OpenFOAM: The Open Source CFD Toolbox
   \\    /   O peration     | Website:  https://openfoam.org
    \\  /    A nd           | Version:  7
     \\/     M anipulation  |
\*---------------------------------------------------------------------------*/
FoamFile
{
    version     2.0;
    format      ascii;
    class       volScalarField;
    location    "1000";
    object      nut;
}
// * * * * * * * * * * * * * * * * * * * * * * * * * * * * * * * * * * * * * //

dimensions      [0 2 -1 0 0 0 0];

internalField   nonuniform List<scalar> 
34387
(
1.9214802e-47
2.6948261e-47
4.5752462e-47
2.7349481e-47
9.9439825e-48
2.3119699e-47
2.4128088e-47
2.125968e-47
2.6735669e-47
3.1747992e-47
3.2599075e-47
4.2864239e-47
4.1137455e-47
4.1773184e-47
3.8684855e-47
3.8063364e-47
4.0251334e-47
4.9426509e-47
4.1000427e-47
5.4856474e-48
6.3622372e-48
1.2345639e-47
2.8848748e-47
6.889941e-47
3.9248681e-47
3.9582945e-47
4.0049771e-47
3.4421658e-47
3.5593927e-47
1.7533572e-47
1.385776e-47
1.3808172e-47
1.4711714e-47
1.8607418e-47
1.6373862e-47
3.4313081e-47
2.8326418e-47
2.9480511e-47
2.2867682e-47
3.7496897e-47
5.1682676e-47
3.8580745e-47
6.8276623e-47
5.2931736e-47
4.2775443e-47
4.5735045e-47
5.0073723e-47
5.9631243e-47
4.9961153e-47
3.9136147e-47
4.5678367e-47
5.4364779e-47
4.5625787e-47
5.2093401e-47
7.1024178e-47
4.1621847e-47
8.6221658e-47
3.0298487e-47
5.9734374e-47
3.880519e-47
3.5642577e-47
2.7471976e-47
2.8424222e-47
8.6847979e-48
3.8545228e-48
4.8931755e-48
1.2087545e-47
3.8101852e-48
2.1280193e-47
2.5735457e-47
6.1231836e-47
4.0974116e-47
4.0541181e-47
4.5688732e-47
3.6987552e-47
3.3410925e-47
1.9405866e-47
2.4649192e-46
5.1526759e-47
4.6629975e-47
5.0618478e-47
4.2062716e-47
4.069598e-47
5.3841389e-47
8.5509346e-47
8.855677e-47
7.4767209e-47
1.2902066e-47
9.0655865e-48
1.1398134e-47
1.1148173e-47
1.0639692e-47
1.1002515e-47
2.6689299e-47
2.0765651e-47
1.6743171e-47
1.9943243e-47
2.6786451e-47
2.0307796e-47
3.2612742e-47
3.4770802e-47
4.0380953e-47
4.7640456e-47
3.858781e-47
3.6208398e-47
2.9804415e-47
4.5144906e-47
4.7363527e-47
6.6473381e-47
3.0549244e-47
5.1580677e-47
4.5961827e-48
6.5167742e-48
1.3056595e-47
6.0165147e-48
5.9054476e-47
6.020985e-47
4.8446477e-47
6.1216155e-47
7.6939339e-47
7.3417958e-47
6.9247704e-47
5.7018581e-47
7.4463314e-47
4.8297331e-47
8.4414332e-47
6.1995351e-47
6.7244806e-47
4.9153992e-47
9.3752816e-47
4.5360683e-47
1.0052098e-46
6.4401307e-47
9.0721736e-47
4.3366064e-47
1.3085422e-47
4.1389973e-47
2.7607024e-47
1.8765444e-47
2.0742407e-47
1.1476034e-47
2.5902458e-47
2.1426507e-47
4.1190339e-47
5.7313466e-48
1.7894553e-47
1.0383935e-47
5.3412009e-48
7.3176014e-48
1.6529919e-47
3.0578784e-48
1.1413954e-47
9.5080144e-48
7.3463673e-48
7.2759506e-48
3.9666583e-47
2.2494602e-47
3.4594496e-47
3.3468716e-47
4.3544069e-47
5.3209033e-47
3.9453057e-47
4.7038512e-47
5.090931e-47
4.5090003e-47
3.8460001e-47
2.2372029e-47
2.3959602e-46
4.8987023e-47
5.8217502e-47
5.625972e-47
5.4834585e-47
4.3161066e-47
7.0226662e-47
7.0189989e-47
1.1116868e-46
1.043515e-46
5.701175e-47
6.4071244e-46
7.0941439e-47
6.6600474e-47
5.579104e-47
6.0472095e-47
5.1346124e-47
5.3416705e-47
5.6448651e-47
5.6806793e-47
4.0363263e-47
4.5935448e-47
2.4379797e-47
6.96776e-48
8.13942e-48
1.0705106e-47
8.9696445e-48
1.0620213e-47
1.0853943e-47
1.0682158e-47
1.0647342e-47
2.655524e-47
2.1963524e-47
1.8692217e-47
1.1620747e-47
1.291294e-47
2.3079463e-47
2.8584171e-47
1.4752074e-47
2.9903092e-47
3.9721128e-47
2.9775487e-47
2.2866441e-47
2.8492622e-47
3.4509322e-47
3.7580451e-47
5.6911771e-47
2.6046798e-47
3.5146665e-47
2.525528e-48
3.2870234e-48
5.1307764e-48
3.217878e-48
5.4352041e-47
6.5837785e-47
4.6763304e-47
4.2328733e-47
5.3334245e-47
9.2078246e-47
5.076771e-47
8.3826811e-47
6.9831069e-47
1.9328785e-47
1.2950231e-47
3.8010923e-47
4.8907609e-47
5.1679825e-48
8.545906e-48
1.6965715e-47
6.1842519e-48
7.7698254e-47
7.7406404e-47
8.9416064e-47
7.7744771e-47
8.6451757e-47
9.3169028e-47
8.7740437e-47
8.3962522e-47
6.543856e-47
1.1658142e-46
1.2467665e-46
1.1153534e-46
1.2385988e-46
8.5900288e-47
9.7025148e-47
9.3408611e-47
9.8027323e-47
1.4112749e-46
1.4155107e-46
1.7470163e-47
2.7679546e-47
1.4751008e-46
1.1193155e-47
1.0620209e-46
4.9590569e-47
8.4781922e-48
4.3965165e-47
2.727175e-47
2.7158011e-47
1.0848542e-47
2.0397458e-47
1.9478718e-47
2.8250871e-47
1.2864709e-47
2.3007126e-47
1.993143e-47
2.5571628e-47
2.121538e-47
6.4397073e-48
9.3778364e-48
1.1844454e-47
4.5141246e-47
2.3813206e-47
5.0514143e-48
1.3352901e-47
8.2799999e-48
2.3770122e-47
7.5388663e-47
8.6460229e-48
7.4390932e-48
3.6274818e-47
2.0014433e-47
3.9418848e-47
2.0965245e-47
3.7616891e-47
1.3164165e-47
2.6411122e-47
3.209923e-47
3.305661e-47
3.0139574e-47
2.3524826e-47
3.6380654e-47
5.5351493e-47
4.3210766e-47
4.9870883e-47
4.5195476e-47
4.3112031e-47
5.0504794e-47
5.304899e-47
5.4291793e-47
4.4794171e-47
7.8055952e-47
2.8349084e-47
7.3927086e-47
3.6259751e-47
5.5350439e-47
5.3165152e-47
4.689565e-47
9.3444261e-47
4.6589678e-47
5.4570561e-47
5.4346588e-46
1.3698838e-46
8.8483799e-47
6.2234995e-47
7.5212153e-47
6.7266323e-47
7.4438067e-47
5.8945574e-47
7.6283801e-47
1.1290273e-46
2.1460456e-47
8.8448253e-48
1.1351226e-47
9.2032214e-48
3.2418261e-47
1.9858361e-46
1.17848e-45
8.3441417e-47
9.3899759e-47
8.0523785e-47
6.7989275e-47
7.7604818e-47
9.0221484e-47
7.9448106e-47
9.9760676e-47
1.0140031e-46
4.3315766e-47
6.6187769e-47
4.0481203e-47
1.735166e-47
6.8162531e-47
2.7759908e-47
6.7749331e-48
7.7989355e-48
9.5863982e-48
8.1585613e-48
1.0013895e-47
9.6116473e-48
9.3130658e-48
9.3161693e-48
2.6639423e-47
1.7071862e-47
1.0628982e-47
1.0980211e-47
1.9255465e-47
1.0621454e-47
1.1811108e-47
1.0209753e-47
2.390223e-47
4.0393999e-47
3.084956e-47
2.1080495e-47
2.3342286e-47
3.0458497e-47
2.3872246e-47
5.2369372e-47
3.987441e-47
4.5525722e-47
3.5409508e-48
7.1154622e-48
9.9033127e-48
8.4168409e-48
5.7492606e-47
4.5013749e-47
3.42569e-47
3.9121183e-47
4.8179191e-47
6.4814546e-47
3.2193583e-47
4.6947499e-47
8.0560206e-47
2.6025211e-47
3.8088084e-48
2.5232412e-47
1.1251973e-46
2.5289933e-48
3.3142955e-48
5.9017313e-48
3.4087838e-48
8.4972719e-47
6.1526532e-47
8.9141177e-47
6.0527446e-47
6.6189568e-47
7.6060431e-47
7.8719254e-47
7.6284038e-47
9.6988796e-47
1.241122e-47
8.5603065e-47
2.3667748e-47
4.1578763e-47
1.5801136e-47
1.5011266e-47
4.9160137e-47
1.1298765e-46
9.7138977e-47
1.0760107e-46
9.3833518e-47
8.6614768e-47
1.0278999e-46
1.1512225e-46
1.1383903e-46
1.0698793e-46
1.0396873e-46
9.8281581e-47
1.0236712e-46
9.5158361e-47
8.0304312e-47
1.3466193e-46
1.0038369e-46
1.293714e-46
1.1052843e-46
7.9175981e-47
9.1769272e-47
2.611176e-47
1.5827588e-47
1.2145662e-47
6.0566169e-47
7.5471715e-47
4.9904406e-47
3.3674455e-47
6.2266303e-47
7.2380995e-47
2.7723084e-47
1.4767892e-47
1.8601838e-47
1.4000351e-47
3.5572341e-47
4.913679e-47
3.4798839e-47
1.0381426e-47
2.3864529e-47
1.2378157e-46
9.4597914e-48
7.7371382e-48
7.6800039e-48
1.980041e-47
3.0582758e-47
9.7737731e-48
2.4362093e-47
3.6408278e-47
8.5474553e-48
5.7951381e-47
2.7593784e-47
2.6224552e-47
4.978012e-47
6.937317e-48
5.0355125e-47
2.3116986e-47
3.6141408e-47
6.6641481e-48
2.495543e-47
2.1133701e-47
1.847479e-47
1.79427e-47
1.5408948e-47
4.0096631e-47
5.5032854e-47
3.5684787e-47
4.3878334e-47
4.5705694e-47
4.0331856e-47
3.4045817e-47
4.6656151e-47
3.8338307e-47
4.3913379e-48
5.713203e-47
5.709649e-47
5.8513242e-47
6.3065546e-47
5.0452084e-47
6.5859261e-47
5.92481e-47
7.2725023e-47
7.17449e-47
5.7328695e-47
8.9892943e-47
8.6903554e-47
2.6079096e-47
5.827056e-47
5.3554986e-47
4.2799967e-47
9.1202237e-47
5.7795301e-47
7.9791198e-47
1.1372597e-47
3.7911538e-47
9.9224309e-48
3.8078375e-47
2.8388118e-47
2.0635744e-47
3.7265572e-47
7.8836539e-48
3.6366571e-47
1.0119412e-47
6.9752758e-48
3.4385216e-47
1.7433082e-46
9.8931886e-46
1.3808801e-47
3.0036997e-47
7.5808274e-47
1.0053851e-46
7.7754353e-47
8.940745e-47
8.3294167e-47
9.4559696e-47
8.675119e-47
9.1029486e-47
7.5947709e-47
4.2538593e-47
2.5167973e-47
2.0014251e-47
8.586623e-48
1.1794949e-47
8.9527338e-48
3.0950187e-47
1.1253188e-46
6.0036298e-46
1.4902023e-45
1.1350031e-46
9.4132783e-47
1.2257242e-46
1.0564227e-46
1.0654633e-46
8.9918236e-47
1.0574024e-46
1.0520145e-46
1.0310607e-46
3.2091014e-47
5.430113e-47
2.4667268e-47
2.9711322e-47
2.8896457e-47
3.7032444e-47
2.8436968e-47
1.3119255e-47
9.3927628e-48
7.3415732e-48
9.4348795e-48
8.5543754e-48
8.8667207e-48
8.7957938e-48
2.582574e-47
1.6882141e-47
1.7765767e-47
1.019453e-47
1.0488418e-47
1.8970216e-47
1.3278097e-47
1.3653588e-47
1.3385493e-47
4.4634818e-47
3.0893403e-47
2.2630525e-47
2.0611274e-47
3.0199197e-47
3.0261226e-47
2.9059984e-47
2.5024763e-47
3.2368932e-47
1.9805173e-48
2.3336211e-48
2.8304228e-48
7.1165039e-48
5.6440919e-47
4.7368699e-47
3.4852965e-47
3.3342383e-47
4.2568594e-47
5.0969643e-47
5.2936193e-47
1.9927544e-47
7.1713193e-47
1.4098956e-47
2.5719118e-47
8.0404569e-48
3.5464683e-48
3.5427504e-48
6.9736082e-48
1.0110045e-47
1.0065477e-47
8.2284193e-47
6.520167e-47
6.8337881e-47
5.4319859e-47
5.1837774e-47
1.0460506e-46
6.5661792e-47
8.0490926e-47
9.0254183e-47
9.1026991e-47
1.6733553e-47
3.3777097e-47
1.638824e-47
4.194084e-47
3.9311476e-48
6.6805898e-47
4.520876e-47
6.9281001e-47
9.4581379e-47
1.1661728e-46
7.4760916e-47
8.4083225e-47
1.0314826e-46
8.6203238e-47
1.015007e-46
1.1769187e-46
1.0311224e-46
3.5264103e-47
2.6355034e-47
3.4066133e-47
1.2353694e-47
5.2535834e-47
2.5793606e-47
7.4866372e-47
1.2166668e-46
1.2076684e-46
1.3846412e-46
1.3372399e-46
1.0798221e-46
1.3409384e-46
1.2776899e-46
1.3206071e-46
1.4962832e-46
1.4114665e-46
1.2802337e-46
1.1248667e-46
1.3494275e-46
1.6171531e-46
1.4668663e-46
1.6566164e-46
1.5345865e-46
1.1718951e-46
1.2265365e-46
3.5921464e-46
7.34984e-47
6.3644019e-47
7.6142658e-47
2.0424246e-46
7.1627857e-47
1.519396e-46
1.1344719e-46
2.3344055e-46
2.7132193e-46
3.4859049e-46
1.0436743e-46
2.8869825e-47
1.5499265e-47
1.205249e-47
5.8488609e-47
3.2341215e-47
8.4982499e-47
2.2064674e-47
4.0105133e-47
4.7559971e-47
4.9828125e-47
2.2088485e-46
3.3875711e-47
1.5345001e-47
2.0217086e-47
5.8000244e-47
4.6994551e-47
6.1426724e-47
3.6658772e-47
2.1993416e-47
1.858207e-47
3.0405414e-47
1.7482582e-47
1.4802622e-47
4.5199826e-47
8.1883216e-48
1.1486712e-47
1.8705804e-47
2.6597253e-47
1.9631236e-47
1.2911123e-47
3.8941108e-47
2.5486784e-47
3.1496486e-47
3.158321e-47
2.497238e-47
4.4627375e-47
4.2424268e-47
2.0546453e-47
1.6807595e-47
1.8519665e-47
6.5415704e-47
2.9958955e-47
7.9542568e-47
4.8690536e-47
6.0226632e-47
6.5211954e-47
4.3362365e-47
5.2718662e-47
7.0230224e-47
9.1512258e-47
4.9061871e-48
3.9971422e-48
4.1851102e-48
3.448034e-47
7.0353965e-47
7.6184212e-47
7.0246719e-47
8.0353904e-47
8.7978994e-47
7.3454337e-47
9.6844947e-47
9.4359043e-47
8.3704138e-47
8.2677043e-47
9.9063314e-47
9.42771e-47
1.1451147e-46
1.1949448e-46
9.2703429e-47
1.6811951e-46
1.1800688e-46
9.2675826e-47
6.7509706e-47
8.2964623e-47
4.0383572e-47
6.4301377e-47
6.6883515e-47
6.4708661e-48
4.0595136e-47
4.0421008e-47
1.2780809e-47
6.4759007e-47
2.751751e-47
4.9263617e-47
1.2415422e-47
1.2597842e-47
5.2401954e-48
8.1023473e-48
6.1704769e-48
4.8881155e-48
5.8296032e-47
2.5864158e-47
8.1430767e-48
7.5451721e-48
3.4750799e-47
1.0991491e-47
6.6193071e-48
3.0975894e-47
1.1349703e-46
4.4670236e-46
1.2173974e-45
1.4661533e-47
4.1523485e-47
6.497657e-47
1.282155e-46
1.2132451e-46
1.0113524e-46
1.0580046e-46
1.0941574e-46
9.5655708e-47
1.0393569e-46
1.0568027e-46
1.1324731e-46
5.1924464e-47
4.1609658e-47
5.4638048e-47
7.0821473e-47
2.8428881e-47
2.6686621e-47
1.0659351e-46
3.9545787e-46
1.1769793e-45
1.7040066e-45
1.2066044e-46
5.1089768e-47
1.5552793e-46
1.2947844e-46
1.349135e-46
1.191432e-46
1.1921389e-46
1.2451137e-46
1.285872e-46
1.1798865e-46
5.7315868e-47
3.9170554e-47
3.8178933e-47
4.0377053e-47
1.137539e-46
2.8476395e-47
3.8023922e-47
9.5964597e-48
6.7955869e-48
9.1154412e-48
8.184494e-48
7.4786771e-48
8.6371637e-48
2.3667537e-47
1.6498164e-47
1.5726212e-47
9.7545205e-48
9.7161708e-48
1.2460045e-47
1.6238054e-47
2.3323833e-47
2.2916494e-47
4.7918062e-47
3.0771066e-47
2.0984677e-47
1.9978946e-47
2.9926718e-47
2.9249851e-47
3.0791781e-47
2.6502608e-47
3.4366877e-47
1.176575e-47
3.9008196e-48
2.7494165e-48
3.6883946e-48
5.7044166e-47
4.8297571e-47
3.6670539e-47
3.6006397e-47
4.4107074e-47
4.5384359e-47
4.5178951e-47
3.4157415e-47
6.8758458e-47
2.2156412e-47
1.5598063e-47
6.6221552e-48
1.1735606e-47
2.2665459e-48
4.5613969e-49
5.4686771e-49
8.905096e-48
7.8635841e-47
5.8121334e-47
6.6302453e-47
4.8871177e-47
5.4278372e-47
1.1487462e-46
7.5722522e-47
6.9270648e-47
7.8121267e-47
4.5792164e-47
1.6382527e-47
7.5767429e-48
1.6234361e-47
2.8722641e-47
2.3459393e-47
8.0827087e-48
3.774304e-48
1.1210207e-46
9.5033665e-47
8.5508702e-47
7.673462e-47
7.5783344e-47
1.2889045e-46
1.2115604e-46
1.1226351e-46
1.3426268e-46
3.6919059e-47
8.8405735e-47
2.7688946e-47
4.7871705e-47
5.0889201e-47
1.2848268e-47
6.816033e-47
1.7921691e-47
1.6269757e-46
1.0275402e-46
1.4745178e-46
1.1066458e-46
9.6982994e-47
1.1709688e-46
1.2099035e-46
1.311515e-46
1.3779227e-46
1.4037741e-46
1.2866342e-46
6.0404535e-47
6.9303171e-47
5.9483113e-47
4.8065339e-47
3.3575462e-47
4.1641526e-47
1.5193798e-46
1.5294912e-46
1.7470913e-46
1.6925217e-46
1.4144794e-46
1.5931889e-46
1.7735514e-46
1.5072339e-46
1.7132516e-46
1.7431721e-46
1.9193052e-46
2.0381878e-46
1.834798e-46
2.0866695e-46
1.7155944e-46
1.7519906e-46
1.6563428e-46
1.4658488e-46
1.6299806e-46
7.0029228e-47
1.3986946e-46
2.958898e-46
5.8107926e-46
1.5798269e-46
2.418674e-46
2.4467245e-46
6.2644239e-47
1.9920333e-46
5.6185177e-47
7.5943081e-47
6.755402e-47
1.9041759e-46
1.5945146e-46
1.5172369e-46
2.1892514e-46
5.402065e-47
6.4023462e-47
3.0542973e-47
1.0335423e-46
7.4249015e-47
1.0159069e-45
4.6633494e-47
2.3460765e-46
7.0668155e-47
4.1177971e-46
4.1464409e-47
2.451651e-47
2.97309e-47
6.6454174e-47
1.6239345e-47
1.402631e-47
1.5055687e-47
3.1056486e-47
1.3228223e-47
1.2929225e-47
2.2619108e-47
1.2231426e-47
2.0109439e-47
3.2694721e-47
8.9269608e-48
3.0087634e-47
1.601848e-47
1.5618131e-47
1.1649318e-47
1.0910289e-47
1.6636708e-47
3.0632902e-47
3.0755794e-47
3.9396961e-47
3.7741152e-47
3.2055013e-47
2.5657967e-47
3.9462523e-47
1.5061066e-47
5.6871671e-47
4.5577134e-47
4.5949345e-47
4.0015562e-47
3.7345819e-47
3.8650094e-47
5.2432072e-47
7.5299568e-47
8.2245672e-47
2.5464581e-47
3.7900609e-47
3.5296867e-47
6.3954808e-48
3.3029668e-47
2.7800669e-47
4.9446603e-47
1.985281e-47
7.8762067e-47
8.0104547e-47
6.7820351e-47
7.9295826e-47
8.8135625e-47
6.8719958e-47
5.8597642e-47
6.9872351e-47
7.8375057e-47
7.6806397e-47
1.2991567e-47
4.721919e-48
3.8155479e-48
2.2469884e-47
1.2894006e-46
9.8092749e-47
1.0674697e-46
1.0353322e-46
9.4258365e-47
1.0082869e-46
1.2843534e-46
1.1956423e-46
1.0930729e-46
1.1411318e-46
1.0172114e-46
9.4216132e-47
8.9846596e-47
1.1972878e-46
9.1138493e-47
1.5670605e-46
1.0440616e-46
9.8094525e-47
1.0596556e-46
1.1400793e-46
3.642985e-47
1.2619828e-46
9.0609725e-48
1.5765874e-46
6.5100207e-47
1.3404739e-47
9.1200134e-47
1.9029142e-47
1.7687037e-47
3.6757154e-47
6.1377333e-47
6.2560225e-47
6.8499167e-48
6.4753178e-47
1.0054828e-47
1.0763575e-47
3.8782188e-47
5.594615e-48
1.0648492e-47
3.0849552e-47
1.0730855e-47
7.6240091e-47
2.0733706e-47
1.8528391e-46
3.5642559e-48
3.3228504e-48
5.4058133e-48
6.3129578e-48
1.0793773e-48
1.5037228e-47
1.6106228e-47
1.0844101e-48
2.9842941e-47
1.0840137e-46
3.2119015e-46
8.3570341e-46
1.4657612e-45
2.3330794e-46
1.6506581e-46
1.2770799e-46
1.3376441e-46
1.4981412e-46
1.4202728e-46
1.4200992e-46
1.2912796e-46
1.2505875e-46
1.4098764e-46
5.8682528e-47
4.4519925e-47
4.516392e-47
4.4817777e-47
9.325514e-47
6.7139973e-47
1.4032635e-46
2.3162812e-47
1.0170152e-46
2.9844533e-46
8.7051683e-46
1.9839755e-45
1.9798962e-45
8.2914128e-47
7.3039995e-47
1.9334977e-46
1.61001e-46
1.6578377e-46
1.4656054e-46
1.5703501e-46
1.5452874e-46
1.5489494e-46
1.5306556e-46
1.4486407e-46
9.6441879e-47
7.6871785e-47
7.7479741e-47
9.1651847e-47
5.4383431e-47
5.354348e-47
1.0278008e-47
6.7329149e-48
8.9013397e-48
8.2686658e-48
7.7694361e-48
8.272789e-48
2.2111863e-47
9.6910918e-48
1.6005134e-47
1.507819e-47
9.0561969e-48
1.3220622e-47
2.0130004e-47
2.8893693e-47
2.0667067e-47
4.789354e-47
2.9084216e-47
1.9346408e-47
1.9510259e-47
2.8743309e-47
2.5196579e-47
2.5717738e-47
3.1036237e-47
1.5250778e-47
2.3131183e-47
4.8075853e-47
3.588641e-48
9.9216991e-48
6.0793044e-47
4.6357652e-47
4.8411976e-47
3.6588273e-47
3.7574584e-47
7.3540563e-47
3.9916401e-47
3.4416367e-47
5.3727453e-47
2.1171127e-47
1.0915968e-47
1.7470105e-47
1.0095324e-47
1.7690444e-47
5.8950165e-48
4.1765438e-48
5.5645379e-48
7.8395627e-47
5.8837832e-47
6.6514678e-47
5.1031829e-47
5.486869e-47
8.569008e-47
8.7180249e-47
7.7641638e-47
8.0337698e-47
1.5332476e-47
1.0507648e-47
1.8783611e-47
2.396382e-47
4.5125645e-47
2.479362e-47
6.5205073e-48
1.0097509e-47
1.056981e-46
7.5810302e-47
8.1685228e-47
8.0522799e-47
6.6710876e-47
1.3334619e-46
7.3475423e-47
1.4072361e-46
8.1208982e-47
2.4432373e-47
2.1709808e-47
1.8258093e-47
1.2602232e-47
1.471643e-46
1.9725885e-47
5.9880872e-48
1.5839501e-47
1.4716685e-46
9.7168158e-47
1.1241761e-46
1.3298727e-46
1.0943046e-46
1.3461903e-46
1.3876577e-46
1.367641e-46
1.4076194e-46
3.1802298e-47
5.2085544e-47
6.0975461e-47
2.8367066e-47
4.4030128e-47
1.6217407e-46
3.3462582e-47
6.6076438e-47
3.6978002e-46
1.8692837e-46
1.4017936e-46
1.2740057e-46
1.4163736e-46
1.5471908e-46
1.6538958e-46
1.6220985e-46
1.6976241e-46
1.790403e-46
9.5856824e-47
9.9643013e-47
6.8763843e-47
6.9265605e-47
1.0079614e-46
9.9443354e-47
9.4070926e-47
1.8300216e-46
2.1834297e-46
1.9650895e-46
2.0346821e-46
2.1750522e-46
2.2316447e-46
1.8499673e-46
1.7386442e-46
2.0075686e-46
1.8364911e-46
2.067605e-46
2.3882229e-46
1.7328006e-46
2.0337853e-46
2.0486568e-46
2.6968894e-46
1.8523113e-46
1.7522766e-46
1.8671001e-46
9.8891396e-47
2.1138225e-46
6.8929948e-47
1.8626949e-46
6.271212e-47
1.8616687e-46
1.8120242e-46
9.4546407e-47
8.2001249e-47
9.733643e-47
1.2633618e-46
8.2152834e-47
1.0791696e-46
3.7687396e-46
2.4418751e-46
3.9841169e-46
3.2604e-47
1.1354544e-45
4.5084374e-47
4.9063079e-47
1.2890542e-46
8.5034961e-47
5.0596939e-47
7.4934919e-47
1.7606274e-46
1.3464348e-46
2.8627007e-47
5.5994714e-47
3.5348337e-47
2.3480225e-47
1.9170316e-47
1.8242162e-47
1.2806226e-46
5.3704982e-47
1.0843442e-46
2.3913233e-47
3.0667936e-47
2.9384701e-47
3.4927541e-47
2.9549834e-47
8.786105e-48
1.0590295e-47
1.5275417e-47
3.1324411e-47
1.4447986e-47
1.0745791e-47
4.1409469e-47
3.5842677e-47
4.2744064e-47
3.4395435e-47
2.9503833e-47
3.2815539e-47
2.3878536e-47
1.160486e-47
2.5122299e-47
6.9939221e-48
6.3193454e-48
3.2505357e-47
5.5599659e-47
4.2090712e-47
5.2003544e-47
4.183464e-47
3.6481114e-47
5.6422136e-47
5.2515038e-47
2.9304139e-47
2.4198359e-47
8.5024799e-48
8.0447711e-47
5.5583177e-47
6.7031041e-47
6.2465328e-47
5.3701322e-47
6.4107254e-47
6.7142084e-47
5.7375532e-47
6.4836437e-47
3.1050466e-47
2.3468346e-47
1.4857324e-47
1.1558654e-47
2.2799777e-47
5.4087865e-47
1.8954582e-47
5.2144978e-48
4.0400717e-47
2.384313e-47
2.7441252e-47
3.4030874e-47
8.8190889e-47
9.7977928e-47
9.2452255e-47
1.0440546e-46
1.1676166e-46
9.2332813e-47
7.9972905e-47
9.3464819e-47
8.5731278e-47
1.3920694e-46
1.1918599e-46
3.5862505e-46
1.3860907e-47
1.1517196e-46
1.5759676e-46
1.2879413e-46
1.2670902e-46
1.232162e-46
1.2336937e-46
1.2687091e-46
1.3665144e-46
1.4786195e-46
1.5971694e-46
1.3591058e-46
1.4983024e-46
1.3457784e-46
1.2143646e-46
1.2127453e-46
1.8691796e-46
1.3217531e-46
1.2855054e-46
1.1580379e-46
1.2446603e-46
5.2966383e-47
7.6131084e-47
9.3245701e-47
3.28082e-46
8.8262836e-47
6.4340797e-47
6.0707284e-47
6.4561336e-47
4.395121e-47
7.5949723e-47
4.4833895e-47
3.34864e-47
4.8951112e-47
1.3727309e-47
6.5245566e-47
8.5320137e-48
1.0505187e-47
4.7106508e-47
9.413245e-47
1.3584839e-47
4.7913795e-47
1.9563752e-47
1.8308458e-47
5.1117203e-47
3.5961928e-47
1.1699963e-47
1.131138e-47
6.4851087e-48
9.0199735e-48
9.8171107e-48
7.0163793e-48
9.7196923e-48
9.0918072e-48
3.6829393e-48
3.4761845e-47
3.1338008e-48
3.1284216e-47
7.2946824e-48
3.9379649e-47
2.7280911e-47
9.5662168e-47
2.7600975e-46
6.5559522e-46
1.2052715e-45
1.9905502e-45
1.6235153e-46
1.7870962e-46
2.0522083e-46
1.7994433e-46
1.6048361e-46
1.4986412e-46
1.6639786e-46
1.6027307e-46
1.4888414e-46
5.1355322e-47
4.6523413e-47
5.4954868e-47
6.113102e-47
1.2704685e-46
6.5470719e-47
7.3173966e-47
6.6626447e-47
2.1721975e-47
9.8699381e-47
2.8790604e-46
6.7360792e-46
1.5576567e-45
2.7550282e-45
2.4665718e-45
1.7124062e-46
2.4267039e-46
2.1632798e-46
1.8805313e-46
1.822845e-46
1.9477899e-46
1.979894e-46
1.8311321e-46
1.8194866e-46
1.794926e-46
1.0466743e-46
8.9159224e-47
8.8191596e-47
1.0615666e-46
2.2286486e-46
1.3409167e-46
1.5991491e-46
1.0399511e-47
6.769658e-48
8.6972438e-48
8.9430275e-48
8.7271172e-48
8.1121392e-48
2.2329253e-47
1.559912e-47
1.601313e-47
9.3080962e-48
9.6601991e-48
7.985429e-48
8.3058864e-48
1.1643998e-47
9.0940799e-48
4.6623066e-47
2.7619733e-47
2.8086567e-47
1.893301e-47
1.8084963e-47
1.189136e-47
2.8816668e-47
4.1616645e-47
1.271294e-47
1.0462969e-47
5.759801e-48
4.0556002e-47
2.3678566e-47
6.3458544e-47
4.7872448e-47
4.6595745e-47
3.6022436e-47
3.725022e-47
3.6100707e-47
3.63226e-47
4.0837941e-47
6.6557455e-47
2.6120411e-47
3.7329445e-47
1.2142035e-47
1.2597716e-47
5.5695019e-47
2.9160936e-47
5.9653465e-48
1.8739992e-47
7.9492099e-47
6.2853736e-47
6.3286439e-47
5.7599692e-47
5.3717326e-47
6.3596642e-47
7.3891857e-47
8.8459067e-47
6.7736076e-47
2.321188e-47
1.8316523e-47
1.1676897e-47
1.1898645e-47
3.8426751e-47
1.5381097e-47
4.0343382e-47
1.8974208e-47
1.0441181e-46
8.4100724e-47
7.9507443e-47
6.6730276e-47
7.6978418e-47
7.1171308e-47
6.6677961e-47
7.0663771e-47
6.7226963e-47
9.0183333e-47
4.1256297e-47
6.7920898e-47
9.9237256e-47
1.2411755e-47
9.7878049e-48
1.316453e-47
2.372759e-47
1.3712378e-46
9.3036722e-47
1.048542e-46
1.1139023e-46
9.2594532e-47
8.4251073e-47
1.0926147e-46
1.0819475e-46
1.1351928e-46
3.9201971e-47
1.9077635e-46
1.7841879e-47
6.9365849e-47
2.5740749e-47
1.858377e-47
1.5638195e-47
1.11475e-47
1.8769231e-46
1.4675073e-46
1.2874034e-46
1.5079228e-46
1.6369969e-46
1.469111e-46
1.4507061e-46
1.7305002e-46
1.6318573e-46
7.1289695e-47
7.7604413e-47
5.1235719e-47
6.6579007e-47
3.3857698e-47
6.5833039e-47
8.9983228e-47
2.9954069e-47
2.2955106e-46
1.7793316e-46
1.8539228e-46
1.807444e-46
1.5786489e-46
1.9135727e-46
1.881616e-46
2.0215247e-46
1.8626378e-46
1.4030289e-46
1.1930449e-46
8.3543083e-47
9.5392494e-47
1.6416736e-46
1.6081961e-46
1.0452434e-46
1.2474581e-46
2.1787022e-46
2.6918412e-46
2.5140444e-46
2.3020619e-46
2.1075915e-46
2.4588848e-46
2.3525968e-46
2.3875823e-46
2.6132088e-46
2.0756364e-46
2.1120488e-46
2.3349129e-46
3.260453e-46
2.1144732e-46
3.0651399e-46
2.3661377e-46
2.2154945e-46
2.1752027e-46
2.1533871e-46
1.7651222e-46
2.2205614e-46
9.3081747e-47
2.2886515e-46
1.1513749e-46
1.2563995e-46
1.1331152e-46
2.1229022e-46
1.8531226e-46
1.2268223e-46
1.2248117e-46
9.0091993e-47
1.4487012e-46
8.7812069e-47
1.5671408e-46
8.7478633e-47
9.8087527e-47
8.7362975e-47
8.6188731e-47
1.1189426e-46
8.3074771e-47
1.5649894e-46
1.3768055e-46
1.9234073e-46
3.4308757e-46
1.3072505e-46
2.3665784e-47
2.2364837e-47
3.3479072e-47
5.2144792e-47
5.8214233e-47
1.2024604e-46
9.7739109e-47
6.2610191e-47
1.7922995e-47
7.6036781e-47
1.7219603e-47
4.686677e-47
3.6148558e-47
3.5023859e-47
8.4152299e-48
2.6923382e-47
1.348952e-47
1.3264145e-47
1.0006002e-47
9.8207036e-48
7.7348518e-48
1.8413881e-47
4.0395788e-47
4.5539917e-47
4.4383316e-47
3.5103097e-47
3.170471e-47
1.6577171e-47
9.7384757e-48
5.5776454e-47
4.4615276e-47
5.3792021e-47
4.6758005e-47
3.9298581e-47
2.6140855e-47
6.3835784e-47
4.7544832e-47
2.3353054e-47
1.0702116e-47
2.9038228e-47
2.2389142e-47
1.1860495e-47
9.3808531e-48
6.2091999e-48
1.9417976e-47
6.0040196e-47
7.2774336e-47
7.7930709e-47
5.7308008e-47
4.9303416e-47
5.75612e-47
5.6657021e-47
5.2312419e-47
5.5958423e-47
2.7744633e-47
4.4772512e-47
4.6230293e-47
1.9332177e-47
6.9339154e-48
1.0755581e-46
8.1690467e-47
9.4804787e-47
7.8626981e-47
7.2758625e-47
7.5582713e-47
7.4709419e-47
8.1065476e-47
7.411212e-47
8.3134023e-47
2.9392824e-47
2.3542182e-47
3.7241898e-47
6.4033601e-47
3.430922e-47
1.6206513e-47
1.1633244e-47
3.8750031e-47
5.341738e-47
4.6782038e-47
4.3223164e-47
1.2069211e-46
1.2065071e-46
1.2124237e-46
1.3470428e-46
1.5610226e-46
1.236507e-46
1.0678674e-46
1.1367583e-46
1.1348883e-46
6.1507285e-47
8.4337534e-47
6.2510298e-47
3.5323913e-46
1.6387149e-46
1.8898913e-46
1.7421453e-46
1.815643e-46
1.4945675e-46
1.7882486e-46
1.4751215e-46
1.5243915e-46
1.5781107e-46
1.8192595e-46
2.0667661e-46
1.6362324e-46
1.7872957e-46
1.7744344e-46
1.6732761e-46
2.2359526e-46
1.5441639e-46
1.6541444e-46
1.5730498e-46
1.6396939e-46
6.6881154e-47
1.7676399e-46
6.8086284e-47
8.2277862e-47
1.4388683e-46
1.612327e-46
1.437045e-46
5.7867148e-47
5.8415968e-47
9.1658495e-47
5.4760611e-47
8.7755766e-47
1.8241253e-46
1.0171128e-46
2.3280357e-46
1.3886736e-46
8.3682222e-47
5.7077757e-47
5.3026661e-47
1.3358373e-46
4.198417e-47
6.49925e-47
2.1162872e-46
7.4199638e-47
4.5776072e-47
1.5012566e-47
5.8879929e-47
6.1671978e-47
1.0399359e-47
3.8137956e-47
2.2381122e-47
8.7736484e-47
1.3697966e-46
1.0955863e-47
2.8624839e-48
1.1291425e-47
6.6983989e-48
3.7472036e-48
9.5731227e-48
1.390404e-47
1.3279271e-47
8.1119448e-48
7.7076604e-48
2.5330738e-47
1.0075175e-46
2.5359887e-46
6.0995629e-46
1.0464279e-45
1.8012295e-45
2.7663966e-45
1.8760921e-46
1.8513781e-46
1.969951e-46
2.4708982e-46
2.1725268e-46
2.0817433e-46
2.0852989e-46
1.876823e-46
1.7360204e-46
8.6467344e-47
6.6355681e-47
7.2459444e-47
8.8187489e-47
7.1958205e-47
6.8353598e-47
8.817694e-47
9.1533006e-47
2.1084222e-47
9.7441954e-47
3.169182e-46
6.227834e-46
1.2211737e-45
2.3806432e-45
3.1595512e-45
3.4958837e-45
2.9337856e-46
2.4158968e-46
2.5480137e-46
2.1612724e-46
2.5141335e-46
2.2072078e-46
2.1438529e-46
2.3579198e-46
2.1456072e-46
1.0914543e-46
1.2433261e-46
1.1871876e-46
9.6877565e-47
2.0335492e-46
1.5089298e-46
1.7351695e-46
2.6977307e-46
1.0747829e-47
6.8917624e-48
8.6156909e-48
9.2713045e-48
8.1555164e-48
8.4613947e-48
2.2097825e-47
1.6309744e-47
9.9545295e-48
9.2993057e-48
1.5067925e-47
1.2856537e-47
7.3774059e-48
9.7251778e-48
2.548131e-47
4.8298765e-47
2.9555697e-47
2.8474441e-47
1.8941154e-47
1.9375824e-47
3.9987768e-47
4.5246266e-47
1.5743105e-47
1.3184631e-47
3.5486445e-47
1.1307392e-47
1.9863702e-47
3.4775082e-47
6.4026925e-47
4.7086451e-47
4.608789e-47
3.4951865e-47
3.6155855e-47
5.3747189e-47
4.0074202e-47
3.7503163e-47
4.3691139e-47
1.5676867e-47
1.7941006e-47
2.5571301e-47
2.3206566e-47
2.8203034e-47
8.2353054e-48
4.6226521e-47
2.1249619e-47
8.4173409e-47
6.3655772e-47
6.9342478e-47
5.6681135e-47
5.5443836e-47
5.8289102e-47
9.9050871e-47
6.7132409e-47
8.7871244e-47
1.5833562e-47
1.8609999e-47
1.3190657e-47
2.0172838e-47
2.8760275e-47
3.3689118e-47
2.2133666e-47
9.7847721e-48
1.0651655e-46
8.7439996e-47
7.2858287e-47
7.3192904e-47
8.2739061e-47
7.1243038e-47
6.3549591e-47
6.4585309e-47
5.9741047e-47
7.2923308e-47
1.1184125e-46
4.0180084e-47
6.3433644e-47
2.1871305e-47
1.42171e-47
1.0646185e-47
1.0973159e-47
1.3582352e-46
9.5398803e-47
1.0568352e-46
1.0843367e-46
9.1043079e-47
1.0112167e-46
9.8627399e-47
8.4532515e-47
7.7726782e-47
1.649021e-46
9.6531276e-47
9.4066372e-47
7.2283533e-47
8.4331475e-47
4.742358e-47
1.0682531e-46
9.2553732e-47
1.7394697e-46
1.4603206e-46
1.3179568e-46
1.1961431e-46
1.283305e-46
1.4001798e-46
1.484533e-46
1.4529944e-46
1.2772332e-46
3.032188e-46
2.9862473e-46
2.3664863e-46
2.0472919e-46
4.4679303e-47
9.0155778e-47
1.6861437e-47
1.8036998e-46
2.3373295e-46
1.9803399e-46
1.6955141e-46
1.8496662e-46
1.8589837e-46
1.8393687e-46
1.7560144e-46
2.0992528e-46
2.0258154e-46
1.4276666e-46
1.703216e-46
9.4405896e-47
8.7228097e-47
1.0375709e-46
1.2242898e-46
6.8223926e-47
9.6948108e-47
2.8152869e-46
2.2240277e-46
2.0196974e-46
2.0869256e-46
2.2734156e-46
2.367278e-46
2.4281907e-46
2.2283683e-46
2.2714974e-46
1.9350759e-46
1.7687804e-46
1.3899079e-46
1.3317517e-46
2.6441203e-46
2.2832409e-46
1.3556073e-46
1.4251393e-46
2.6188636e-46
2.948493e-46
3.0482878e-46
2.7911475e-46
2.6244638e-46
2.6434139e-46
2.7883245e-46
3.3933368e-46
2.9473492e-46
2.4846786e-46
3.9158426e-46
2.5500714e-46
2.7501634e-46
2.7293768e-46
2.8222522e-46
3.5907215e-46
2.9775366e-46
2.4994217e-46
2.4165989e-46
1.3874004e-46
1.2109316e-46
2.462476e-46
1.4364345e-46
2.2710489e-46
2.4445451e-46
1.5725883e-46
2.2849924e-46
1.18123e-46
1.9651595e-46
1.8284139e-46
1.3632743e-46
4.9947183e-46
1.6063623e-46
1.1091038e-46
1.4349236e-46
1.3157102e-46
2.3401807e-46
2.4160018e-46
2.1051154e-46
1.0159396e-46
1.4957351e-46
9.929308e-47
2.4209397e-46
3.1993231e-46
1.6287758e-46
1.3423932e-46
1.4883652e-46
1.5507161e-46
1.7889932e-46
1.4734605e-46
2.5179127e-46
3.1330368e-46
1.4166893e-46
2.4369319e-47
7.8175699e-47
2.2914753e-47
3.9054366e-46
7.1359316e-47
2.1907207e-46
4.1627435e-47
4.1734617e-47
2.2814541e-46
8.4005112e-48
9.3653519e-48
1.3142681e-47
2.4810719e-47
1.3090629e-47
9.4628914e-48
4.6758991e-47
3.6470493e-47
4.2668834e-47
3.5555259e-47
3.2885883e-47
2.3337776e-47
1.804978e-47
6.0856819e-48
6.82889e-48
1.8453772e-47
3.8330052e-47
2.3358293e-47
5.8498015e-47
5.4391761e-47
5.7767041e-47
5.6838172e-47
4.7414529e-47
4.2401334e-47
5.6826778e-47
2.2096316e-47
3.1247568e-47
3.1327125e-47
6.2099135e-47
6.5007158e-47
7.7819027e-47
6.3929201e-47
5.2182698e-47
5.3446318e-47
5.6044346e-47
5.429926e-47
5.3228266e-47
5.0395624e-47
2.8084821e-47
1.0041731e-46
3.0238513e-47
1.427433e-47
2.73287e-47
1.4088124e-47
1.1998514e-47
3.138783e-47
7.4748414e-47
7.5513109e-47
8.4845887e-47
9.9221038e-47
1.0569184e-46
7.8462695e-47
6.8254083e-47
7.4443373e-47
7.2630064e-47
5.4292209e-47
3.1635415e-47
3.1296192e-47
4.0813242e-47
4.8481279e-47
1.0511171e-46
2.6543819e-47
1.1018799e-46
1.2584779e-46
1.407452e-46
1.0785112e-46
9.544699e-47
1.0312799e-46
1.0421587e-46
9.1625481e-47
9.940202e-47
3.9950016e-47
4.6082524e-47
8.2240368e-47
1.0602006e-46