/*--------------------------------*- C++ -*----------------------------------*\
  =========                 |
  \\      /  F ield         | OpenFOAM: The Open Source CFD Toolbox
   \\    /   O peration     | Website:  https://openfoam.org
    \\  /    A nd           | Version:  7
     \\/     M anipulation  |
\*---------------------------------------------------------------------------*/
FoamFile
{
    version     2.0;
    format      ascii;
    class       volScalarField;
    location    "1000";
    object      pMean;
}
// * * * * * * * * * * * * * * * * * * * * * * * * * * * * * * * * * * * * * //

dimensions      [0 2 -2 0 0 0 0];

internalField   nonuniform List<scalar> 
34387
(
-1.6567306e+92
-1.6195866e+92
-1.6298426e+92
-1.6158218e+92
-1.6683387e+92
-1.6215376e+92
-1.6537198e+92
-1.6693729e+92
-1.666459e+92
-1.6521749e+92
-1.5842946e+92
-1.6115022e+92
-1.6130699e+92
-1.6251855e+92
-1.6263809e+92
-1.6271911e+92
-1.6152235e+92
-1.6113003e+92
-1.6260372e+92
-1.6298309e+92
-1.6298327e+92
-1.6107755e+92
-1.616618e+92
-1.6145438e+92
-1.582762e+92
-1.6108696e+92
-1.6112479e+92
-1.623803e+92
-1.6235242e+92
-1.6760366e+92
-1.6312022e+92
-1.6788212e+92
-1.6597811e+92
-1.6566488e+92
-1.6727808e+92
-1.5882088e+92
-1.6161648e+92
-1.6268649e+92
-1.6281648e+92
-1.615007e+92
-1.6531973e+92
-1.674199e+92
-1.6707963e+92
-1.6514132e+92
-1.5471189e+92
-1.5894662e+92
-1.5768165e+92
-1.5742425e+92
-1.5885348e+92
-1.5909404e+92
-1.5784824e+92
-1.5772281e+92
-1.5895908e+92
-1.6110923e+92
-1.6099164e+92
-1.6116207e+92
-1.6273926e+92
-1.6293367e+92
-1.6285127e+92
-1.629803e+92
-1.6135846e+92
-1.6100966e+92
-1.6284029e+92
-1.6298776e+92
-1.6298129e+92
-1.6107592e+92
-1.6296756e+92
-1.6107687e+92
-1.5922837e+92
-1.6189976e+92
-1.614666e+92
-1.5823158e+92
-1.610767e+92
-1.6108745e+92
-1.6239914e+92
-1.6241638e+92
-1.6277581e+92
-1.5866773e+92
-1.5467022e+92
-1.5756396e+92
-1.574686e+92
-1.5866764e+92
-1.5870695e+92
-1.6090187e+92
-1.6098488e+92
-1.6275164e+92
-1.6265865e+92
-1.6789066e+92
-1.6355272e+92
-1.6591757e+92
-1.66183e+92
-1.6859043e+92
-1.6804154e+92
-1.5958875e+92
-1.6206115e+92
-1.6332103e+92
-1.6310793e+92
-1.6187029e+92
-1.6847083e+92
-1.6599081e+92
-1.6561862e+92
-1.6773308e+92
-1.5506164e+92
-1.5804245e+92
-1.5910594e+92
-1.591783e+92
-1.5797023e+92
-1.6144068e+92
-1.6302002e+92
-1.6316268e+92
-1.613503e+92
-1.6528863e+92
-1.6738958e+92
-1.6705512e+92
-1.6510529e+92
-1.5086791e+92
-1.5410043e+92
-1.5535387e+92
-1.5540816e+92
-1.5381491e+92
-1.5387229e+92
-1.5385869e+92
-1.551623e+92
-1.5520736e+92
-1.5926089e+92
-1.574634e+92
-1.5725302e+92
-1.5731344e+92
-1.5905367e+92
-1.5908394e+92
-1.5940364e+92
-1.5765477e+92
-1.5765781e+92
-1.5920367e+92
-1.6103312e+92
-1.6110107e+92
-1.6101588e+92
-1.6113229e+92
-1.6272013e+92
-1.6297633e+92
-1.6294229e+92
-1.63013e+92
-1.629854e+92
-1.6132379e+92
-1.6099649e+92
-1.6286174e+92
-1.6298755e+92
-1.6295641e+92
-1.610606e+92
-1.6296951e+92
-1.6107481e+92
-1.5922685e+92
-1.6299029e+92
-1.6108045e+92
-1.5922638e+92
-1.5727821e+92
-1.6194129e+92
-1.6280542e+92
-1.5827329e+92
-1.6135642e+92
-1.6111307e+92
-1.6271893e+92
-1.6118014e+92
-1.610744e+92
-1.6251275e+92
-1.6261887e+92
-1.6327008e+92
-1.5867827e+92
-1.5867102e+92
-1.5743879e+92
-1.5468071e+92
-1.5730537e+92
-1.5856791e+92
-1.6090663e+92
-1.6092724e+92
-1.6270711e+92
-1.6275228e+92
-1.593757e+92
-1.549235e+92
-1.5088637e+92
-1.5367103e+92
-1.5495201e+92
-1.53867e+92
-1.5511528e+92
-1.5735025e+92
-1.5724322e+92
-1.5896783e+92
-1.5899706e+92
-1.6088696e+92
-1.609627e+92
-1.6275018e+92
-1.6262394e+92
-1.6804604e+92
-1.6476887e+92
-1.6888118e+92
-1.6927508e+92
-1.663917e+92
-1.6625578e+92
-1.6037985e+92
-1.6199387e+92
-1.6231818e+92
-1.6351221e+92
-1.6321372e+92
-1.6602551e+92
-1.6630675e+92
-1.6921223e+92
-1.6871139e+92
-1.5546819e+92
-1.5872011e+92
-1.597752e+92
-1.5960988e+92
-1.5857853e+92
-1.618707e+92
-1.6359949e+92
-1.6339907e+92
-1.6172344e+92
-1.6848661e+92
-1.6599226e+92
-1.6559196e+92
-1.6772675e+92
-1.5429626e+92
-1.511657e+92
-1.5553618e+92
-1.5550293e+92
-1.5429884e+92
-1.577741e+92
-1.594104e+92
-1.5945545e+92
-1.5779823e+92
-1.6142927e+92
-1.6302312e+92
-1.6316341e+92
-1.6132603e+92
-1.6528944e+92
-1.6739032e+92
-1.670561e+92
-1.6510472e+92
-1.4699637e+92
-1.5024696e+92
-1.4997106e+92
-1.513594e+92
-1.5150671e+92
-1.4995154e+92
-1.5017688e+92
-1.5145077e+92
-1.5152997e+92
-1.5389393e+92
-1.5562666e+92
-1.5562738e+92
-1.5543507e+92
-1.5366853e+92
-1.5359276e+92
-1.5371827e+92
-1.5358287e+92
-1.5534569e+92
-1.5536572e+92
-1.5928328e+92
-1.5745979e+92
-1.5726673e+92
-1.5723539e+92
-1.573275e+92
-1.5913057e+92
-1.5904806e+92
-1.5912299e+92
-1.5941249e+92
-1.5764576e+92
-1.5763469e+92
-1.5921392e+92
-1.6110832e+92
-1.6100096e+92
-1.6110117e+92
-1.6098053e+92
-1.6112963e+92
-1.6271992e+92
-1.6305451e+92
-1.6295826e+92
-1.629404e+92
-1.6299178e+92
-1.6298617e+92
-1.6132163e+92
-1.6099446e+92
-1.6286338e+92
-1.6106375e+92
-1.6100046e+92
-1.5924157e+92
-1.6108526e+92
-1.5922447e+92
-1.572762e+92
-1.6098082e+92
-1.5921177e+92
-1.5727757e+92
-1.5535981e+92
-1.6336435e+92
-1.6266909e+92
-1.6168221e+92
-1.5880006e+92
-1.6139145e+92
-1.6261887e+92
-1.631638e+92
-1.575731e+92
-1.5469087e+92
-1.5757537e+92
-1.5892588e+92
-1.5884962e+92
-1.5893073e+92
-1.5757559e+92
-1.5744104e+92
-1.5872265e+92
-1.6116223e+92
-1.6100735e+92
-1.6087271e+92
-1.6298543e+92
-1.6280144e+92
-1.6099744e+92
-1.6095508e+92
-1.6273777e+92
-1.6298059e+92
-1.5952346e+92
-1.5489016e+92
-1.5887219e+92
-1.5720703e+92
-1.5513036e+92
-1.5092154e+92
-1.5404426e+92
-1.5374121e+92
-1.5487337e+92
-1.570517e+92
-1.5882816e+92
-1.608885e+92
-1.6090365e+92
-1.6272174e+92
-1.6275042e+92
-1.5767047e+92
-1.5508581e+92
-1.5105128e+92
-1.5006138e+92
-1.4698969e+92
-1.5005247e+92
-1.5140489e+92
-1.5125549e+92
-1.5342647e+92
-1.551854e+92
-1.5363707e+92
-1.553577e+92
-1.5734974e+92
-1.5723828e+92
-1.5897502e+92
-1.5901686e+92
-1.6088515e+92
-1.6096162e+92
-1.6275134e+92
-1.6262343e+92
-1.6848127e+92
-1.6540251e+92
-1.6671516e+92
-1.6641361e+92
-1.6940152e+92
-1.6978839e+92
-1.6137035e+92
-1.6281641e+92
-1.6384179e+92
-1.6367603e+92
-1.6254683e+92
-1.6960262e+92
-1.7008016e+92
-1.6670081e+92
-1.665333e+92
-1.5575627e+92
-1.5926786e+92
-1.6028871e+92
-1.6007035e+92
-1.5909159e+92
-1.6197652e+92
-1.6226665e+92
-1.6375753e+92
-1.6347615e+92
-1.6602477e+92
-1.6632505e+92
-1.6923947e+92
-1.6872864e+92
-1.5133656e+92
-1.5481055e+92
-1.561071e+92
-1.5599108e+92
-1.5462973e+92
-1.5846703e+92
-1.6001809e+92
-1.5991806e+92
-1.5842777e+92
-1.6184514e+92
-1.6358871e+92
-1.6339588e+92
-1.6169781e+92
-1.6848618e+92
-1.6599435e+92
-1.6559226e+92
-1.6772686e+92
-1.5406529e+92
-1.5181613e+92
-1.471626e+92
-1.516408e+92
-1.5057842e+92
-1.502287e+92
-1.5585536e+92
-1.5573273e+92
-1.5414604e+92
-1.5775247e+92
-1.5941838e+92
-1.5946318e+92
-1.5778366e+92
-1.6142798e+92
-1.6302384e+92
-1.631638e+92
-1.6132468e+92
-1.4303061e+92
-1.4629798e+92
-1.4629309e+92
-1.4769329e+92
-1.4773194e+92
-1.4624421e+92
-1.463016e+92
-1.4754145e+92
-1.4750668e+92
-1.499957e+92
-1.4972724e+92
-1.5153775e+92
-1.5158403e+92
-1.5167752e+92
-1.4974647e+92
-1.500055e+92
-1.4997257e+92
-1.5161087e+92
-1.5179151e+92
-1.5387138e+92
-1.5562503e+92
-1.5563741e+92
-1.5546461e+92
-1.5536643e+92
-1.5357336e+92
-1.5366579e+92
-1.5349067e+92
-1.5369591e+92
-1.5358167e+92
-1.5535386e+92
-1.5536243e+92
-1.5928266e+92
-1.5745927e+92
-1.5730031e+92
-1.5728667e+92
-1.5723502e+92
-1.573354e+92
-1.5921605e+92
-1.5914312e+92
-1.5905027e+92
-1.5913107e+92
-1.5941242e+92
-1.5764567e+92
-1.5763294e+92
-1.5921259e+92
-1.5924418e+92
-1.5914431e+92
-1.5729711e+92
-1.5921407e+92
-1.5727615e+92
-1.5535855e+92
-1.5913243e+92
-1.5727357e+92
-1.5536002e+92
-1.5347577e+92
-1.6092101e+92
-1.5965804e+92
-1.6199696e+92
-1.6263974e+92
-1.631451e+92
-1.6294409e+92
-1.6303794e+92
-1.614985e+92
-1.5928738e+92
-1.581222e+92
-1.5493771e+92
-1.5791858e+92
-1.59083e+92
-1.6121354e+92
-1.6294919e+92
-1.631773e+92
-1.57311e+92
-1.5521716e+92
-1.5096703e+92
-1.5421156e+92
-1.5529534e+92
-1.5404866e+92
-1.5530564e+92
-1.5402818e+92
-1.5394996e+92
-1.5504643e+92
-1.5745565e+92
-1.5737724e+92
-1.5904988e+92
-1.590429e+92
-1.5900195e+92
-1.5904481e+92
-1.5747135e+92
-1.5719577e+92
-1.5887818e+92
-1.6114489e+92
-1.6094221e+92
-1.6097516e+92
-1.6093202e+92
-1.6293008e+92
-1.6300879e+92
-1.6288836e+92
-1.6094212e+92
-1.6089835e+92
-1.6272817e+92
-1.6300604e+92
-1.5738915e+92
-1.5496854e+92
-1.5101401e+92
-1.5887108e+92
-1.5719558e+92
-1.5538505e+92
-1.4702038e+92
-1.5147452e+92
-1.500212e+92
-1.5127733e+92
-1.4997683e+92
-1.5388781e+92
-1.535443e+92
-1.550826e+92
-1.5704203e+92
-1.5883349e+92
-1.6088787e+92
-1.6090384e+92
-1.6272431e+92
-1.6275115e+92
-1.5770343e+92
-1.5492677e+92
-1.5112881e+92
-1.4708535e+92
-1.4986968e+92
-1.4759645e+92
-1.4299351e+92
-1.4627196e+92
-1.4617472e+92
-1.4748476e+92
-1.4983992e+92
-1.5164199e+92
-1.5146216e+92
-1.5342157e+92
-1.5519598e+92
-1.5363631e+92
-1.5537082e+92
-1.5734911e+92
-1.5723788e+92
-1.5897516e+92
-1.5901674e+92
-1.690588e+92
-1.6598157e+92
-1.6723476e+92
-1.7043797e+92
-1.7014814e+92
-1.6691474e+92
-1.6212511e+92
-1.6313484e+92
-1.6326932e+92
-1.6424992e+92
-1.6403258e+92
-1.6713311e+92
-1.6677999e+92
-1.7022716e+92
-1.70665e+92
-1.5633692e+92
-1.5994719e+92
-1.606612e+92
-1.6086636e+92
-1.5972669e+92
-1.6276455e+92
-1.6406983e+92
-1.6392238e+92
-1.6252986e+92
-1.6959741e+92
-1.7008662e+92
-1.6672674e+92
-1.6653765e+92
-1.5149047e+92
-1.5509315e+92
-1.5652643e+92
-1.5642585e+92
-1.5501848e+92
-1.5904064e+92
-1.6057022e+92
-1.6038698e+92
-1.5894596e+92
-1.6193576e+92
-1.622304e+92
-1.6376814e+92
-1.6348294e+92
-1.6602741e+92
-1.663271e+92
-1.6923869e+92
-1.6872705e+92
-1.4722614e+92
-1.5054219e+92
-1.5048559e+92
-1.5190842e+92
-1.5207956e+92
-1.5460901e+92
-1.5642782e+92
-1.5640165e+92
-1.5447951e+92
-1.5844359e+92
-1.6002067e+92
-1.5991521e+92
-1.5838952e+92
-1.618443e+92
-1.6359096e+92
-1.6339663e+92
-1.6169683e+92
-1.5404359e+92
-1.5207915e+92
-1.4312171e+92
-1.4796926e+92
-1.4644369e+92
-1.4624907e+92
-1.4759259e+92
-1.5192074e+92
-1.5042566e+92
-1.4995997e+92
-1.5585579e+92
-1.557417e+92
-1.541192e+92
-1.5775141e+92
-1.5941882e+92
-1.5946352e+92
-1.5778312e+92
-1.3890678e+92
-1.4227379e+92
-1.4225481e+92
-1.4373338e+92
-1.4372558e+92
-1.438105e+92
-1.4382623e+92
-1.4230281e+92
-1.4210383e+92
-1.4610793e+92
-1.4612633e+92
-1.4796229e+92
-1.4796271e+92
-1.4793158e+92
-1.4612235e+92
-1.4622271e+92
-1.4617879e+92
-1.4779779e+92
-1.4768165e+92
-1.4998326e+92
-1.4972148e+92
-1.5155109e+92
-1.5161218e+92
-1.5160378e+92
-1.5166873e+92
-1.4993524e+92
-1.4974228e+92
-1.4992863e+92
-1.4993603e+92
-1.5161181e+92
-1.5179454e+92
-1.5386965e+92
-1.5562568e+92
-1.5563847e+92
-1.5544963e+92
-1.5539915e+92
-1.5535157e+92
-1.535782e+92
-1.5349575e+92
-1.5366529e+92
-1.5348369e+92
-1.5369324e+92
-1.5358166e+92
-1.5535469e+92
-1.5536227e+92
-1.5729697e+92
-1.572742e+92
-1.5728736e+92
-1.5733587e+92
-1.5536616e+92
-1.5535821e+92
-1.5347606e+92
-1.5538173e+92
-1.5347601e+92
-1.5163958e+92
-1.6246986e+92
-1.6453083e+92
-1.6336664e+92
-1.582715e+92
-1.6257647e+92
-1.6356295e+92
-1.5510825e+92
-1.5984296e+92
-1.5856123e+92
-1.5837193e+92
-1.595409e+92
-1.6178671e+92
-1.6218793e+92
-1.6324039e+92
-1.6323166e+92
-1.6305259e+92
-1.5959613e+92
-1.6147291e+92
-1.5789614e+92
-1.5551423e+92
-1.542353e+92
-1.5106165e+92
-1.553637e+92
-1.5417105e+92
-1.5773208e+92
-1.5936365e+92
-1.6118648e+92
-1.6296956e+92
-1.6318109e+92
-1.5729549e+92
-1.5544363e+92
-1.4695308e+92
-1.5169842e+92
-1.5032924e+92
-1.5019611e+92
-1.5158459e+92
-1.5004428e+92
-1.5010003e+92
-1.5153749e+92
-1.5142086e+92
-1.5402208e+92
-1.5553055e+92
-1.5549713e+92
-1.5387717e+92
-1.5388914e+92
-1.555723e+92
-1.538846e+92
-1.5372366e+92
-1.5529832e+92
-1.5739513e+92
-1.5743371e+92
-1.5735034e+92
-1.5907638e+92
-1.5905962e+92
-1.590379e+92
-1.5900512e+92
-1.5902803e+92
-1.5744679e+92
-1.571825e+92
-1.5885776e+92
-1.611458e+92
-1.6103214e+92
-1.6093389e+92
-1.6097481e+92
-1.608909e+92
-1.628362e+92
-1.629989e+92
-1.6300865e+92
-1.627634e+92
-1.6094509e+92
-1.6089666e+92
-1.6273103e+92
-1.630102e+92
-1.5723228e+92
-1.5455553e+92
-1.5101561e+92
-1.4705689e+92
-1.5887187e+92
-1.5719475e+92
-1.5538985e+92
-1.4294113e+92
-1.4609516e+92
-1.4743865e+92
-1.4757924e+92
-1.4630792e+92
-1.5174894e+92
-1.497705e+92
-1.5149528e+92
-1.497496e+92
-1.5386944e+92
-1.5352924e+92
-1.5509427e+92
-1.570416e+92
-1.5883407e+92
-1.5817794e+92
-1.5500232e+92
-1.5117877e+92
-1.4713298e+92
-1.4305454e+92
-1.4787301e+92
-1.4983541e+92
-1.3889239e+92
-1.421953e+92
-1.4211651e+92
-1.4357484e+92
-1.4364152e+92
-1.4605673e+92
-1.4589096e+92
-1.4769041e+92
-1.4983254e+92
-1.5165263e+92
-1.5146384e+92
-1.5342196e+92
-1.5519689e+92
-1.5363679e+92
-1.5537178e+92
-1.6969714e+92
-1.6650798e+92
-1.6791034e+92
-1.6753063e+92
-1.7082133e+92
-1.7114933e+92
-1.6279093e+92
-1.6379321e+92
-1.6362446e+92
-1.6448793e+92
-1.6473532e+92
-1.6768609e+92
-1.7137879e+92
-1.7109213e+92
-1.6734349e+92
-1.5691699e+92
-1.6051397e+92
-1.6134557e+92
-1.6120555e+92
-1.6025734e+92
-1.6314803e+92
-1.6322487e+92
-1.6448209e+92
-1.6428035e+92
-1.6716054e+92
-1.6678285e+92
-1.7026064e+92
-1.7068878e+92
-1.5174529e+92
-1.5561883e+92
-1.5715511e+92
-1.5697294e+92
-1.5547751e+92
-1.5975651e+92
-1.6097623e+92
-1.6120735e+92
-1.5957784e+92
-1.6270806e+92
-1.6406766e+92
-1.6394531e+92
-1.6247497e+92
-1.6959575e+92
-1.7008666e+92
-1.6672793e+92
-1.6653886e+92
-1.473444e+92
-1.5065543e+92
-1.5074595e+92
-1.522657e+92
-1.5233392e+92
-1.5489032e+92
-1.5684594e+92
-1.5683759e+92
-1.5490026e+92
-1.5901881e+92
-1.6057149e+92
-1.603769e+92
-1.5890758e+92
-1.619352e+92
-1.6223012e+92
-1.6377197e+92
-1.6348776e+92
-1.4315259e+92
-1.4632671e+92
-1.465916e+92
-1.4798061e+92
-1.4784363e+92
-1.5032575e+92
-1.5027453e+92
-1.5219492e+92
-1.5233168e+92
-1.5460246e+92
-1.5643964e+92
-1.5640005e+92
-1.5446894e+92
-1.5844133e+92
-1.6002034e+92
-1.5991547e+92
-1.5838746e+92
-1.5404227e+92
-1.5207333e+92
-1.3899306e+92
-1.4231122e+92
-1.4378518e+92
-1.4379057e+92
-1.4240545e+92
-1.4829127e+92
-1.4625799e+92
-1.4604485e+92
-1.4781052e+92
-1.5193421e+92
-1.503964e+92
-1.4995247e+92
-1.5585648e+92
-1.5574228e+92
-1.5411765e+92
-1.3474e+92
-1.38144e+92
-1.381016e+92
-1.3801944e+92
-1.3969952e+92
-1.3976931e+92
-1.3795701e+92
-1.3964931e+92
-1.3961294e+92
-1.4205301e+92
-1.4215597e+92
-1.4194235e+92
-1.4399423e+92
-1.4395488e+92
-1.439337e+92
-1.4402256e+92
-1.4409587e+92
-1.4214325e+92
-1.4197952e+92
-1.4607862e+92
-1.46123e+92
-1.4797569e+92
-1.4806549e+92
-1.4797514e+92
-1.4809199e+92
-1.4621867e+92
-1.4612326e+92
-1.4621608e+92
-1.4615017e+92
-1.4780885e+92
-1.4768768e+92
-1.4998207e+92
-1.4972112e+92
-1.5155187e+92
-1.5164517e+92
-1.5160838e+92
-1.5160407e+92
-1.5166879e+92
-1.4988818e+92
-1.4991503e+92
-1.4974201e+92
-1.4990216e+92
-1.4993327e+92
-1.5161186e+92
-1.517939e+92
-1.5544892e+92
-1.5538554e+92
-1.5536803e+92
-1.553509e+92
-1.535766e+92
-1.5348601e+92
-1.5347861e+92
-1.534816e+92
-1.534756e+92
-1.5347639e+92
-1.5163968e+92
-1.5348386e+92
-1.5164029e+92
-1.498537e+92
-1.6308805e+92
-1.5877564e+92
-1.6369293e+92
-1.6408479e+92
-1.6486022e+92
-1.6475126e+92
-1.6317529e+92
-1.6280741e+92
-1.600818e+92
-1.5480837e+92
-1.586688e+92
-1.58436e+92
-1.5959487e+92
-1.6217159e+92
-1.6283765e+92
-1.5105297e+92
-1.5428024e+92
-1.5445233e+92
-1.5583474e+92
-1.5565809e+92
-1.6017446e+92
-1.583459e+92
-1.581788e+92
-1.5991348e+92
-1.6175099e+92
-1.6211931e+92
-1.6321838e+92
-1.6322329e+92
-1.6305348e+92
-1.5960017e+92
-1.6147118e+92
-1.5787336e+92
-1.557753e+92
-1.5401731e+92
-1.51648e+92
-1.5029919e+92
-1.4705383e+92
-1.5032461e+92
-1.5161286e+92
-1.5565595e+92
-1.5393753e+92
-1.5769988e+92
-1.5935403e+92
-1.6118779e+92
-1.6297241e+92
-1.5729261e+92
-1.5544245e+92
-1.4278393e+92
-1.459607e+92
-1.4609921e+92
-1.4765901e+92
-1.476365e+92
-1.4606526e+92
-1.4595178e+92
-1.4761067e+92
-1.4751175e+92
-1.5202897e+92
-1.5013347e+92
-1.5003322e+92
-1.4997532e+92
-1.5186234e+92
-1.5177075e+92
-1.4980703e+92
-1.499315e+92
-1.5177386e+92
-1.516561e+92
-1.5399008e+92
-1.5559211e+92
-1.5553513e+92
-1.555823e+92
-1.5382606e+92
-1.5385917e+92
-1.5380637e+92
-1.5558389e+92
-1.5387183e+92
-1.5371614e+92
-1.5531714e+92
-1.5738194e+92
-1.5738292e+92
-1.5743083e+92
-1.5732457e+92
-1.5908535e+92
-1.5911474e+92
-1.5905839e+92
-1.5902792e+92
-1.5900418e+92
-1.590257e+92
-1.5744284e+92
-1.571803e+92
-1.5885815e+92
-1.6100155e+92
-1.6098736e+92
-1.6092713e+92
-1.6088053e+92
-1.6283361e+92
-1.6294806e+92
-1.629778e+92
-1.6276648e+92
-1.5757169e+92
-1.5441974e+92
-1.5097013e+92
-1.470731e+92
-1.4298484e+92
-1.5538998e+92
-1.3882084e+92
-1.4363679e+92
-1.435279e+92
-1.4206604e+92
-1.4208565e+92
-1.4587476e+92
-1.4760177e+92
-1.4782284e+92
-1.4614351e+92
-1.5177543e+92
-1.4977318e+92
-1.5150323e+92
-1.4973509e+92
-1.5386797e+92
-1.5352868e+92
-1.5509506e+92
-1.5872217e+92
-1.5536372e+92
-1.5127575e+92
-1.4720787e+92
-1.4308876e+92
-1.3894432e+92
-1.4786616e+92
-1.498337e+92
-1.3475709e+92
-1.3813615e+92
-1.3796055e+92
-1.3954746e+92
-1.3958865e+92
-1.4202068e+92
-1.4188768e+92
-1.4378207e+92
-1.4392819e+92
-1.4604707e+92
-1.4588712e+92
-1.4770016e+92
-1.4983193e+92
-1.5165358e+92
-1.5146461e+92
-1.7025012e+92
-1.6694826e+92
-1.6845393e+92
-1.7194251e+92
-1.7171384e+92
-1.6820553e+92
-1.6334865e+92
-1.6531781e+92
-1.6434558e+92
-1.6408378e+92
-1.649921e+92
-1.6843856e+92
-1.6798644e+92
-1.7173202e+92
-1.7204607e+92
-1.5747405e+92
-1.6099639e+92
-1.6184935e+92
-1.6169117e+92
-1.6079112e+92
-1.6378446e+92
-1.6365609e+92
-1.6472818e+92
-1.6499424e+92
-1.6768282e+92
-1.7143841e+92
-1.7112003e+92
-1.6735895e+92
-1.5214248e+92
-1.5611687e+92
-1.5576867e+92
-1.5737397e+92
-1.5769505e+92
-1.6030173e+92
-1.6171297e+92
-1.6159871e+92
-1.6006925e+92
-1.6306792e+92
-1.6315557e+92
-1.6448428e+92
-1.6427687e+92
-1.671645e+92
-1.6678477e+92
-1.7026293e+92
-1.7069022e+92
-1.4746839e+92
-1.509646e+92
-1.5100235e+92
-1.526793e+92
-1.5277091e+92
-1.5545543e+92
-1.5749115e+92
-1.5736613e+92
-1.553691e+92
-1.5972683e+92
-1.6097541e+92
-1.612173e+92
-1.5954039e+92
-1.6270511e+92
-1.6407041e+92
-1.6394946e+92
-1.6247402e+92
-1.4326322e+92
-1.4824092e+92
-1.4676276e+92
-1.46529e+92
-1.4804271e+92
-1.5049131e+92
-1.505633e+92
-1.5257184e+92
-1.525439e+92
-1.5487886e+92
-1.5686215e+92
-1.5684082e+92
-1.5488968e+92
-1.590164e+92
-1.6057168e+92
-1.6037599e+92
-1.5890423e+92
-1.3901072e+92
-1.4401835e+92
-1.4248243e+92
-1.4228238e+92
-1.4371405e+92
-1.4610574e+92
-1.4643435e+92
-1.4820931e+92
-1.4808745e+92
-1.5031952e+92
-1.5026523e+92
-1.5220259e+92
-1.5233948e+92
-1.5460169e+92
-1.5643957e+92
-1.5639945e+92
-1.5446784e+92
-1.5207293e+92
-1.3481902e+92
-1.3816427e+92
-1.3969844e+92
-1.3973415e+92
-1.3811119e+92
-1.4210039e+92
-1.4401229e+92
-1.44031e+92
-1.4223703e+92
-1.4829512e+92
-1.4625425e+92
-1.4602978e+92
-1.4782189e+92
-1.5193429e+92
-1.503941e+92
-1.4995147e+92
-1.3053713e+92
-1.3392736e+92
-1.3543386e+92
-1.3565049e+92
-1.3400581e+92
-1.3389484e+92
-1.3398052e+92
-1.3555333e+92
-1.3538582e+92
-1.3795285e+92
-1.3792533e+92
-1.37885e+92
-1.3774559e+92
-1.3990889e+92
-1.3991559e+92
-1.398135e+92
-1.3777772e+92
-1.3980106e+92
-1.3976347e+92
-1.4204018e+92
-1.4191455e+92
-1.4212706e+92
-1.4191033e+92
-1.4400099e+92
-1.4404782e+92
-1.4404992e+92
-1.439397e+92
-1.44029e+92
-1.4409864e+92
-1.421493e+92
-1.419796e+92
-1.4607719e+92
-1.4612307e+92
-1.4797649e+92
-1.4808898e+92
-1.4806159e+92
-1.4797537e+92
-1.4809209e+92
-1.4622701e+92
-1.462396e+92
-1.4612346e+92
-1.4621745e+92
-1.4614881e+92
-1.4781054e+92
-1.4768833e+92
-1.5164612e+92
-1.5163725e+92
-1.5160636e+92
-1.516675e+92
-1.498681e+92
-1.4986173e+92
-1.4991328e+92
-1.4990034e+92
-1.516348e+92
-1.5164081e+92
-1.4985483e+92
-1.5164449e+92
-1.4985487e+92
-1.4806404e+92
-1.6360325e+92
-1.6526291e+92
-1.6458999e+92
-1.5943261e+92
-1.6432874e+92
-1.650291e+92
-1.5480306e+92
-1.6066077e+92
-1.5913305e+92
-1.5893103e+92
-1.6034688e+92
-1.6300795e+92
-1.6338284e+92
-1.6317196e+92
-1.6314319e+92
-1.6313004e+92
-1.6261475e+92
-1.6073039e+92
-1.5099399e+92
-1.5429088e+92
-1.5436957e+92
-1.5593625e+92
-1.557956e+92
-1.5874201e+92
-1.5852689e+92
-1.6034517e+92
-1.6202225e+92
-1.628127e+92
-1.4703551e+92
-1.5181348e+92
-1.5027807e+92
-1.5029765e+92
-1.5166928e+92
-1.5409148e+92
-1.5428622e+92
-1.5611327e+92
-1.5597591e+92
-1.6019961e+92
-1.5833785e+92
-1.5815917e+92
-1.5990804e+92
-1.6174813e+92
-1.6211429e+92
-1.6321892e+92
-1.6322249e+92
-1.5960022e+92
-1.5787191e+92
-1.5578023e+92
-1.5399992e+92
-1.5189393e+92
-1.5009055e+92
-1.4773524e+92
-1.4626775e+92
-1.4289248e+92
-1.4623365e+92
-1.4771675e+92
-1.5014006e+92
-1.5191861e+92
-1.5565361e+92
-1.5392849e+92
-1.5769704e+92
-1.5935425e+92
-1.5544209e+92
-1.4182266e+92
-1.4194139e+92
-1.4204707e+92
-1.3876589e+92
-1.435155e+92
-1.435163e+92
-1.4345949e+92
-1.4350971e+92
-1.4198624e+92
-1.4581322e+92
-1.4579252e+92
-1.4586145e+92
-1.478809e+92
-1.4784744e+92
-1.4778862e+92
-1.4588008e+92
-1.4583231e+92
-1.4780397e+92
-1.4767056e+92
-1.5204236e+92
-1.5013748e+92
-1.4993929e+92
-1.5002506e+92
-1.4989683e+92
-1.5187457e+92
-1.5187636e+92
-1.5180993e+92
-1.4980126e+92
-1.499245e+92
-1.5178921e+92
-1.5166928e+92
-1.5398748e+92
-1.5558603e+92
-1.556047e+92
-1.5553629e+92
-1.5557442e+92
-1.5378459e+92
-1.5382392e+92
-1.5385838e+92
-1.5380924e+92
-1.5558446e+92
-1.5387151e+92
-1.5371541e+92
-1.5531695e+92
-1.5735086e+92
-1.5736428e+92
-1.5738298e+92
-1.5732166e+92
-1.5907988e+92
-1.5908414e+92
-1.5904885e+92
-1.5901403e+92
-1.6099936e+92
-1.6099371e+92
-1.6098372e+92
-1.6294588e+92
-1.6293698e+92
-1.629795e+92
-1.5808947e+92
-1.5468606e+92
-1.5096274e+92
-1.4710745e+92
-1.4302051e+92
-1.3887528e+92
-1.3945114e+92
-1.3799294e+92
-1.3476065e+92
-1.3793068e+92
-1.3941535e+92
-1.4391072e+92
-1.4375004e+92
-1.4182168e+92
-1.4185435e+92
-1.4585544e+92
-1.4761351e+92
-1.478125e+92
-1.461121e+92
-1.5177657e+92
-1.4977365e+92
-1.5150423e+92
-1.4973448e+92
-1.5919683e+92
-1.5583699e+92
-1.5154433e+92
-1.4729359e+92
-1.4316479e+92
-1.3897801e+92
-1.3480528e+92
-1.4786542e+92
-1.3060478e+92
-1.3384582e+92
-1.3531727e+92
-1.3558725e+92
-1.3404418e+92
-1.3794042e+92
-1.3772839e+92
-1.397587e+92
-1.3974911e+92
-1.4200907e+92
-1.4188868e+92
-1.4379447e+92
-1.439317e+92
-1.460459e+92
-1.4588659e+92
-1.4770033e+92
-1.7083137e+92
-1.6737407e+92
-1.7274063e+92
-1.6896235e+92
-1.6883028e+92
-1.7229512e+92
-1.6383141e+92
-1.6474113e+92
-1.6444642e+92
-1.6543401e+92
-1.65725e+92
-1.6900752e+92
-1.7295407e+92
-1.7275408e+92
-1.6872501e+92
-1.5796556e+92
-1.6121601e+92
-1.6143149e+92
-1.6234605e+92
-1.6210182e+92
-1.6567406e+92
-1.6436884e+92
-1.6410321e+92
-1.6529582e+92
-1.6842011e+92
-1.6801426e+92
-1.7177429e+92
-1.7206552e+92
-1.5254378e+92
-1.5626569e+92
-1.5656236e+92
-1.5789152e+92
-1.5815796e+92
-1.6076246e+92
-1.6221578e+92
-1.620924e+92
-1.6057039e+92
-1.6372937e+92
-1.6358237e+92
-1.646927e+92
-1.6499284e+92
-1.6768338e+92
-1.7144337e+92
-1.7112059e+92
-1.6736381e+92
-1.4772481e+92
-1.5136008e+92
-1.5147092e+92
-1.5302051e+92
-1.5329539e+92
-1.5597799e+92
-1.5560847e+92
-1.5768868e+92
-1.5801976e+92
-1.602713e+92
-1.6173404e+92
-1.61613e+92
-1.6005064e+92
-1.6306446e+92
-1.6315325e+92
-1.6448846e+92
-1.6428045e+92
-1.4335486e+92
-1.4690687e+92
-1.4671905e+92
-1.4830854e+92
-1.4840656e+92
-1.5084637e+92
-1.508031e+92
-1.5300148e+92
-1.529962e+92
-1.5545195e+92
-1.5750768e+92
-1.5736672e+92
-1.5535677e+92
-1.5972611e+92
-1.6097679e+92
-1.6121799e+92
-1.595384e+92
-1.3910843e+92
-1.4415572e+92
-1.4262363e+92
-1.4247873e+92
-1.4393958e+92
-1.4846231e+92
-1.4661593e+92
-1.4631827e+92
-1.4826317e+92
-1.5048273e+92
-1.5055723e+92
-1.5257919e+92
-1.5256035e+92
-1.5487857e+92
-1.5686302e+92
-1.5684044e+92
-1.5488949e+92
-1.3483367e+92
-1.3811704e+92
-1.3975546e+92
-1.3969009e+92
-1.3817949e+92
-1.4429182e+92
-1.4227991e+92
-1.4207427e+92
-1.4392372e+92
-1.4609932e+92
-1.4641244e+92
-1.4821671e+92
-1.4809915e+92
-1.5031948e+92
-1.5026484e+92
-1.5220298e+92
-1.5234017e+92
-1.3063245e+92
-1.3402504e+92
-1.3410356e+92
-1.3553959e+92
-1.3555234e+92
-1.3797084e+92
-1.3993173e+92
-1.3997546e+92
-1.3789804e+92
-1.4209368e+92
-1.4402294e+92
-1.4402459e+92
-1.4221518e+92
-1.4829473e+92
-1.4625386e+92
-1.4602917e+92
-1.4782242e+92
-1.263308e+92
-1.2954467e+92
-1.2983573e+92
-1.2978556e+92
-1.3137602e+92
-1.3145372e+92
-1.297486e+92
-1.3143305e+92
-1.3138729e+92
-1.3371416e+92
-1.3559179e+92
-1.3587558e+92
-1.3570955e+92
-1.3392454e+92
-1.3380431e+92
-1.3376363e+92
-1.3378888e+92
-1.3576424e+92
-1.3560465e+92
-1.3795295e+92
-1.3778503e+92
-1.378915e+92
-1.3783526e+92
-1.3774684e+92
-1.399167e+92
-1.3992349e+92
-1.3980613e+92
-1.3975728e+92
-1.3778012e+92
-1.3982176e+92
-1.397702e+92
-1.4203931e+92
-1.4191057e+92
-1.4192475e+92
-1.4212553e+92
-1.419205e+92
-1.4400229e+92
-1.440579e+92
-1.4411932e+92
-1.4405988e+92
-1.4394029e+92
-1.4402893e+92
-1.4409846e+92
-1.4214901e+92
-1.4197912e+92
-1.4807638e+92
-1.4807046e+92
-1.4806098e+92
-1.4809227e+92
-1.4622732e+92
-1.4624506e+92
-1.4624026e+92
-1.4621752e+92
-1.4986655e+92
-1.4985603e+92
-1.4986023e+92
-1.4806546e+92
-1.4806504e+92
-1.4624206e+92
-1.6404587e+92
-1.6007094e+92
-1.6487867e+92
-1.6518631e+92
-1.6562738e+92
-1.653892e+92
-1.6348774e+92
-1.6381321e+92
-1.6118009e+92
-1.5966888e+92
-1.5517369e+92
-1.5945042e+92
-1.6092665e+92
-1.6360559e+92
-1.6334799e+92
-1.5097843e+92
-1.5442643e+92
-1.5458814e+92
-1.5630241e+92
-1.5614952e+92
-1.6130003e+92
-1.5926383e+92
-1.5912228e+92
-1.6103926e+92
-1.62803e+92
-1.6315578e+92
-1.6312182e+92
-1.630951e+92
-1.6313558e+92
-1.6260321e+92
-1.6072588e+92
-1.5181451e+92
-1.5031162e+92
-1.4704793e+92
-1.5028487e+92
-1.517358e+92
-1.5417895e+92
-1.5426795e+92
-1.5633713e+92
-1.5622796e+92
-1.5872411e+92
-1.5850782e+92
-1.6033131e+92
-1.620126e+92
-1.6281721e+92
-1.4293878e+92
-1.4622412e+92
-1.4618247e+92
-1.476569e+92
-1.4771761e+92
-1.520784e+92
-1.5004929e+92
-1.5010373e+92
-1.5196105e+92
-1.5407736e+92
-1.5426362e+92
-1.5611681e+92
-1.5597611e+92
-1.6019947e+92
-1.5833686e+92
-1.5815824e+92
-1.5990754e+92
-1.5578042e+92
-1.5399857e+92
-1.5190459e+92
-1.5007581e+92
-1.4796318e+92
-1.4607756e+92
-1.4365572e+92
-1.4212779e+92
-1.3879455e+92
-1.4195477e+92
-1.435342e+92
-1.4602006e+92
-1.479839e+92
-1.5013409e+92
-1.519367e+92
-1.5565223e+92
-1.5392698e+92
-1.4164063e+92
-1.417797e+92
-1.3939869e+92
-1.4177928e+92
-1.3955469e+92
-1.4184358e+92
-1.395498e+92
-1.3473798e+92
-1.3810431e+92
-1.395033e+92
-1.3798111e+92
-1.380577e+92
-1.3813767e+92
-1.4365896e+92
-1.4363493e+92
-1.4368491e+92
-1.4357222e+92
-1.43688e+92
-1.4175083e+92
-1.457585e+92
-1.4581082e+92
-1.4576636e+92
-1.4585438e+92
-1.4789682e+92
-1.4783944e+92
-1.4785872e+92
-1.4782765e+92
-1.4586794e+92
-1.4582324e+92
-1.4781715e+92
-1.4768621e+92
-1.5204241e+92
-1.5013727e+92
-1.4991646e+92
-1.4994317e+92
-1.5002412e+92
-1.498991e+92
-1.5186391e+92
-1.5188628e+92
-1.5187694e+92
-1.518239e+92
-1.4980147e+92
-1.4992425e+92
-1.5179053e+92
-1.5167038e+92
-1.5558764e+92
-1.5559369e+92
-1.5561386e+92
-1.5557546e+92
-1.5378441e+92
-1.5377453e+92
-1.5382366e+92
-1.5380896e+92
-1.5734736e+92
-1.5735645e+92
-1.573631e+92
-1.5908263e+92
-1.5907931e+92
-1.5904626e+92
-1.6099599e+92
-1.6099571e+92
-1.6293616e+92
-1.6293881e+92
-1.5856056e+92
-1.551259e+92
-1.5115454e+92
-1.4715553e+92
-1.4307431e+92
-1.3892232e+92
-1.3478838e+92
-1.3963598e+92
-1.3778988e+92
-1.3544493e+92
-1.3060147e+92
-1.3392381e+92
-1.3544582e+92
-1.3401395e+92
-1.3775134e+92
-1.3961264e+92
-1.439191e+92
-1.4375352e+92
-1.4181222e+92
-1.4185336e+92
-1.4585423e+92
-1.4761445e+92
-1.478121e+92
-1.4611005e+92
-1.5963003e+92
-1.5630019e+92
-1.5190536e+92
-1.4748396e+92
-1.4324521e+92
-1.3904854e+92
-1.3483912e+92
-1.3064489e+92
-1.2639648e+92
-1.2978565e+92
-1.2987086e+92
-1.3137159e+92
-1.313163e+92
-1.3362882e+92
-1.3551194e+92
-1.3583594e+92
-1.3386286e+92
-1.3791688e+92
-1.3772458e+92
-1.3976451e+92
-1.3975961e+92
-1.4200865e+92
-1.4188883e+92
-1.4379526e+92
-1.4393178e+92
-1.7135127e+92
-1.6781843e+92
-1.6946133e+92
-1.6922053e+92
-1.7291491e+92
-1.7328442e+92
-1.6428624e+92
-1.6499099e+92
-1.6605374e+92
-1.6605178e+92
-1.6498808e+92
-1.7383332e+92
-1.6955167e+92
-1.6940515e+92
-1.732311e+92
-1.5842e+92
-1.6162065e+92
-1.6186434e+92
-1.6275858e+92
-1.6247066e+92
-1.6473689e+92
-1.6442866e+92
-1.6576089e+92
-1.6607069e+92
-1.6904285e+92
-1.7304842e+92
-1.7283305e+92
-1.6872928e+92
-1.5296332e+92
-1.5695665e+92
-1.5671371e+92
-1.583241e+92
-1.5856143e+92
-1.6097195e+92
-1.611972e+92
-1.6272798e+92
-1.624822e+92
-1.6568132e+92
-1.6431696e+92
-1.6404706e+92
-1.6529318e+92
-1.6841683e+92
-1.680098e+92
-1.7177391e+92
-1.7206611e+92
-1.480279e+92
-1.5187426e+92
-1.5158831e+92
-1.5339909e+92
-1.5371758e+92
-1.5609922e+92
-1.5641106e+92
-1.5820316e+92
-1.5847e+92
-1.6072624e+92
-1.6222534e+92
-1.6211425e+92
-1.6054052e+92
-1.6372802e+92
-1.6357929e+92
-1.6469426e+92
-1.6499528e+92
-1.4347762e+92
-1.4709527e+92
-1.4875322e+92
-1.4871167e+92
-1.4704403e+92
-1.5126434e+92
-1.513367e+92
-1.5327649e+92
-1.5355466e+92
-1.5597167e+92
-1.5560184e+92
-1.5769859e+92
-1.5803256e+92
-1.602701e+92
-1.6173564e+92
-1.6161399e+92
-1.6005013e+92
-1.3918227e+92
-1.443202e+92
-1.4276069e+92
-1.4260857e+92
-1.4410235e+92
-1.467572e+92
-1.4654076e+92
-1.4855067e+92
-1.4860237e+92
-1.5084887e+92
-1.5081048e+92
-1.5301499e+92
-1.5301357e+92
-1.5545189e+92
-1.5750898e+92
-1.5736713e+92
-1.5535594e+92
-1.3489356e+92
-1.3817413e+92
-1.383396e+92
-1.3993865e+92
-1.3979055e+92
-1.4443515e+92
-1.424428e+92
-1.4227107e+92
-1.4418017e+92
-1.4846475e+92
-1.4659846e+92
-1.4630992e+92
-1.4826786e+92
-1.5048274e+92
-1.50557e+92
-1.525803e+92
-1.5256159e+92
-1.3066152e+92
-1.3394844e+92
-1.3548457e+92
-1.356655e+92
-1.3414048e+92
-1.3789254e+92
-1.3997446e+92
-1.3990587e+92
-1.3801031e+92
-1.44299e+92
-1.422878e+92
-1.4206085e+92
-1.4393451e+92
-1.4609901e+92
-1.4641106e+92
-1.4821729e+92
-1.4809995e+92
-1.2642072e+92
-1.2989888e+92
-1.3142273e+92
-1.31504e+92
-1.2989918e+92
-1.3380529e+92
-1.339449e+92
-1.3574466e+92
-1.3574506e+92
-1.3796658e+92
-1.3994134e+92
-1.3999004e+92
-1.3790319e+92
-1.4209355e+92
-1.4402376e+92
-1.4402439e+92