/*--------------------------------*- C++ -*----------------------------------*\
  =========                 |
  \\      /  F ield         | OpenFOAM: The Open Source CFD Toolbox
   \\    /   O peration     | Website:  https://openfoam.org
    \\  /    A nd           | Version:  7
     \\/     M anipulation  |
\*---------------------------------------------------------------------------*/
FoamFile
{
    version     2.0;
    format      ascii;
    class       volVectorField;
    location    "1000";
    object      U;
}
// * * * * * * * * * * * * * * * * * * * * * * * * * * * * * * * * * * * * * //

dimensions      [0 1 -1 0 0 0 0];

internalField   nonuniform List<vector> 
34387
(
(-1.3570555e+47 6.1158185e+45 -2.1436659e+45)
(-1.3362725e+47 7.7674237e+44 -1.7910428e+45)
(-7.1032953e+46 -6.8698294e+44 -9.9752666e+44)
(-1.3637146e+47 -2.6371252e+44 -1.0455955e+45)
(-1.4372288e+47 8.9084129e+45 -6.7434491e+44)
(-1.3679717e+47 2.3819392e+45 -2.2604351e+45)
(-8.5602694e+46 4.3050266e+45 1.0359021e+46)
(-8.5455045e+46 9.1537222e+45 -1.059432e+46)
(-8.7199526e+46 3.4048511e+45 -9.8909914e+45)
(-8.8451042e+46 7.248567e+45 1.1072586e+46)
(-1.3282025e+47 -5.5230508e+44 -1.8098602e+45)
(-8.5800508e+46 1.3267308e+46 2.2727806e+45)
(-8.7582731e+46 1.1871664e+46 -3.7871899e+45)
(-8.7304449e+46 -8.6009896e+45 1.5303866e+45)
(-8.439741e+46 -9.1993334e+45 -2.0989689e+45)
(-8.7301979e+46 6.5162265e+45 -1.1458264e+46)
(-8.6194511e+46 2.9903362e+44 9.0116724e+45)
(-8.6015208e+46 4.6863247e+45 1.0800798e+46)
(-8.6086536e+46 1.0869182e+45 -1.1057671e+46)
(-6.977306e+46 -8.5562282e+44 -4.1464901e+44)
(-7.4533154e+46 2.4966653e+43 -1.1388759e+45)
(-7.6387245e+46 -4.043984e+44 -8.6561087e+44)
(-1.3674487e+47 -4.2947894e+44 -1.5719357e+44)
(-1.3986321e+47 6.4011418e+44 -1.8870656e+45)
(-1.3567532e+47 -1.0567576e+45 -6.7844549e+44)
(-8.6464085e+46 1.1909853e+46 1.1968484e+45)
(-8.6289817e+46 1.2260494e+46 -3.6203774e+45)
(-8.6057982e+46 -7.1310638e+45 9.8021866e+44)
(-8.5030658e+46 -7.21489e+45 -3.1244951e+45)
(-1.4950386e+47 9.5511693e+45 -1.8465008e+45)
(-1.3755757e+47 2.2534518e+45 -3.0808428e+45)
(-9.0535555e+46 9.7746295e+45 -1.0644678e+46)
(-8.949215e+46 3.4885991e+45 1.1970491e+46)
(-9.1915359e+46 9.8670867e+45 1.2931024e+46)
(-9.0803162e+46 5.6154101e+45 -8.917152e+45)
(-1.3560482e+47 2.0292033e+44 -1.9692419e+45)
(-8.765387e+46 2.6996976e+45 9.6439714e+45)
(-9.0397443e+46 2.3749694e+45 -9.3935853e+45)
(-8.8685023e+46 7.96852e+45 -9.6814963e+45)
(-9.0270011e+46 5.7144393e+45 1.0085116e+46)
(-8.5161996e+46 6.9909849e+45 -1.4296878e+45)
(-8.3280098e+46 7.3157071e+45 4.0142756e+44)
(-8.6659049e+46 4.7774784e+45 3.8919253e+44)
(-9.0617447e+46 4.1287683e+45 -1.4933888e+45)
(-1.3230064e+47 -1.7970556e+45 -1.8982309e+45)
(-8.574306e+46 -8.0904087e+45 2.0414489e+45)
(-8.6604554e+46 1.1649641e+46 -3.3136536e+45)
(-8.5692623e+46 1.2236814e+46 1.2443815e+45)
(-8.5609108e+46 -7.6424359e+45 -1.4785769e+45)
(-8.6147075e+46 5.1983248e+45 -1.0763675e+46)
(-8.4929663e+46 -8.694462e+44 8.8680852e+45)
(-8.6062623e+46 2.8850464e+45 9.6808644e+45)
(-8.8739254e+46 6.332583e+44 -1.0693358e+46)
(-7.9904206e+46 4.999448e+44 2.0168536e+45)
(-8.70651e+46 2.5189936e+45 -2.7812382e+44)
(-8.5526819e+46 -2.0852928e+45 -2.4879848e+44)
(-9.1142073e+46 -1.0146935e+45 -2.4289322e+45)
(-7.9599177e+46 -3.1043627e+44 3.855217e+44)
(-8.6542807e+46 2.3379143e+45 -3.6617536e+43)
(-8.9035019e+46 3.2124611e+45 -7.8194883e+44)
(-8.6945547e+46 2.8281523e+45 -1.9545293e+45)
(-8.7094065e+46 3.5748355e+45 -9.5805454e+44)
(-8.8042612e+46 2.7612424e+45 -1.2506294e+45)
(-9.2756569e+46 -3.1202786e+44 -6.3662749e+43)
(-1.0136169e+47 -9.7791335e+43 -4.7733353e+44)
(-9.123718e+46 -5.2962064e+44 -5.1897629e+44)
(-1.0078222e+47 9.8272625e+44 -5.7564783e+44)
(-7.7266697e+46 5.158535e+44 -1.1212769e+45)
(-8.7887128e+46 -2.9512619e+44 -6.6646953e+44)
(-1.338374e+47 -5.5986918e+44 1.2556406e+45)
(-1.3886092e+47 -2.8052531e+44 -3.1634525e+44)
(-1.3625781e+47 -1.6021898e+45 1.8884035e+44)
(-8.6867741e+46 1.2474407e+46 2.2792441e+45)
(-9.1004932e+46 1.171537e+46 -2.3983478e+45)
(-9.1508751e+46 -7.4480829e+45 1.658579e+45)
(-8.7524704e+46 -6.9438919e+45 -2.4508054e+45)
(-1.4113026e+47 -8.3153053e+45 -3.4666077e+45)
(-1.3568293e+47 -6.5595503e+44 -1.2395355e+45)
(-1.352638e+47 -1.6572391e+45 -4.2231757e+44)
(-8.935318e+46 1.0767651e+46 1.6578235e+45)
(-9.0158505e+46 1.0691824e+46 -3.026158e+45)
(-8.9381708e+46 -7.7143661e+45 9.8974552e+44)
(-8.8513133e+46 -7.6278185e+45 -2.7297371e+45)
(-8.4371314e+46 -2.1941893e+45 -2.3981675e+45)
(-8.6241323e+46 -1.6603631e+45 -2.1912882e+45)
(-8.5002623e+46 6.4268159e+44 -2.1055325e+45)
(-8.5429408e+46 -7.0481663e+43 -3.0972858e+45)
(-1.5828868e+47 1.0402618e+46 -1.9191154e+45)
(-1.4146931e+47 2.6110802e+45 -1.3617153e+46)
(-9.6042054e+46 1.0105163e+46 1.4847549e+46)
(-9.56972e+46 4.6092086e+45 1.2324877e+46)
(-9.1409491e+46 1.0500722e+46 -1.1715045e+46)
(-8.8883963e+46 5.1402596e+45 -9.65126e+45)
(-1.3428637e+47 -1.2007622e+44 -3.4706382e+45)
(-8.8438129e+46 2.5786169e+45 9.6362878e+45)
(-9.2610795e+46 7.6839932e+45 -9.2127996e+45)
(-9.3373627e+46 4.0852558e+45 -8.6059417e+45)
(-9.218838e+46 7.53975e+45 1.0486455e+46)
(-8.5903767e+46 8.5500589e+45 7.9919233e+44)
(-8.6104412e+46 6.934864e+45 -9.6912081e+44)
(-9.3768845e+46 7.1585794e+45 -2.1143651e+45)
(-9.221248e+46 9.1027243e+45 -3.7615053e+44)
(-1.3570757e+47 -1.101791e+45 -2.0726967e+45)
(-9.0604154e+46 1.1799141e+45 8.757743e+45)
(-9.2549055e+46 9.8028668e+44 -9.0816956e+45)
(-9.0936159e+46 6.1522871e+45 -9.0870575e+45)
(-9.2072933e+46 4.3279268e+45 9.2255381e+45)
(-8.6488711e+46 4.6130387e+45 -1.2519052e+45)
(-9.0881565e+46 3.4800648e+45 -5.9080385e+44)
(-8.6458071e+46 5.4727271e+45 -2.6919098e+44)
(-9.2954575e+46 2.4809224e+45 -1.875322e+45)
(-8.2954791e+46 7.2477851e+45 -4.861191e+44)
(-7.625733e+46 8.0816946e+45 -5.2143857e+44)
(-8.4320793e+46 4.850666e+45 -3.2168405e+44)
(-9.4033872e+46 3.7683673e+45 -6.9659608e+44)
(-1.3168226e+47 -1.8187908e+45 -1.6818837e+45)
(-8.6384948e+46 -1.8331348e+45 9.0062229e+45)
(-8.6911828e+46 3.7084569e+45 -9.8234767e+45)
(-8.7421759e+46 -1.0977063e+45 -1.0012595e+46)
(-8.7364744e+46 1.2614017e+45 9.7997664e+45)
(-8.8776523e+46 9.508733e+45 2.9602334e+44)
(-8.7908751e+46 1.0172731e+46 -3.6916948e+45)
(-8.6496864e+46 -7.8907466e+45 1.6655378e+45)
(-8.9233334e+46 -9.0918229e+45 -2.6308168e+45)
(-8.3271344e+46 1.8774277e+44 3.808563e+44)
(-8.3580843e+46 -8.1047391e+44 -1.3765686e+44)
(-8.8455735e+46 -3.6328707e+44 -1.0664415e+45)
(-8.9847643e+46 7.4191893e+44 -1.3248141e+45)
(-8.6282293e+46 1.3304742e+45 8.6280801e+44)
(-8.9280877e+46 2.6870735e+45 8.0814877e+43)
(-8.307259e+46 2.2550795e+45 -6.7263084e+43)
(-8.2628232e+46 1.6026772e+45 -1.3533598e+45)
(-8.5728817e+46 1.136023e+45 -1.0704908e+45)
(-8.7222724e+46 2.6220814e+45 -1.7857347e+44)
(-8.3681098e+46 9.4075918e+44 -1.6524727e+44)
(-7.0841954e+46 4.4108166e+44 1.8939047e+45)
(-8.2152799e+46 2.719873e+45 -4.7363898e+44)
(-7.0360026e+46 -4.6456155e+44 -2.3095404e+44)
(-8.4078622e+46 -7.7041824e+44 -2.4575697e+45)
(-7.7990534e+46 3.2016705e+45 1.2292492e+45)
(-5.6895752e+46 -1.1175144e+44 3.0467184e+44)
(-7.9720772e+46 2.7682662e+45 2.0851824e+45)
(-7.4619725e+46 3.422535e+45 -1.1002256e+45)
(-7.0264633e+46 3.5249862e+45 -4.0445652e+44)
(-6.1280413e+46 3.8717216e+45 1.8074789e+44)
(-6.3661819e+46 2.9306174e+45 -1.1417769e+45)
(-1.1145766e+47 2.4345865e+44 -9.8089498e+44)
(-9.2468743e+46 -3.9311203e+44 1.2128581e+45)
(-9.5417155e+46 -7.4246491e+43 -8.7650302e+44)
(-1.1418483e+47 2.1033913e+44 -2.6812945e+44)
(-1.2474327e+47 2.545639e+44 -9.2249937e+44)
(-9.6432294e+46 -2.0009719e+44 -7.0994078e+44)
(-9.7783223e+46 3.2584779e+45 -5.6432214e+44)
(-1.0002223e+47 7.0689801e+44 -5.527274e+44)
(-8.5259731e+46 5.2310186e+44 -7.0141508e+44)
(-8.7843463e+46 -3.9143958e+44 -4.832852e+44)
(-1.3772301e+47 2.7045133e+44 1.3050737e+45)
(-8.4996109e+46 6.7704893e+45 1.066265e+46)
(-1.3325275e+47 -2.3081708e+45 1.5981946e+45)
(-8.4907797e+46 3.9537934e+44 -9.9696773e+45)
(-8.5210262e+46 3.3376556e+45 -1.0822911e+46)
(-8.680513e+46 1.1006758e+45 1.1638815e+46)
(-8.2167165e+46 1.258518e+46 3.6292697e+45)
(-9.0117871e+46 1.1692011e+46 -8.6496668e+44)
(-9.0163342e+46 -1.0464217e+46 2.3507806e+45)
(-8.4189636e+46 -8.3576033e+45 -2.7146209e+45)
(-1.4206559e+47 -1.0197489e+46 -5.3574466e+43)
(-1.3584664e+47 -1.4333812e+45 -4.1757818e+44)
(-9.3189226e+46 -8.037095e+45 2.1096006e+45)
(-9.386676e+46 9.8623912e+45 -1.6177926e+45)
(-1.360023e+47 -2.1891126e+45 2.2806747e+44)
(-9.163661e+46 1.0632865e+46 2.6120332e+45)
(-9.089642e+46 -7.5111071e+45 -1.9098053e+45)
(-8.7932967e+46 -9.0048461e+44 -2.3243775e+44)
(-9.3866095e+46 -1.0433095e+45 8.2883282e+44)
(-9.1763414e+46 6.5558498e+44 4.8902766e+44)
(-8.6227744e+46 1.0791761e+45 -1.6388622e+44)
(-1.3238108e+47 -3.6546885e+45 -2.399615e+45)
(-1.3688949e+47 -1.5558351e+45 -9.8296758e+44)
(-1.3432908e+47 -1.879806e+45 -3.3465554e+44)
(-9.2259645e+46 9.647977e+45 -2.2027528e+45)
(-9.1012394e+46 -7.7066774e+45 1.473651e+45)
(-9.0119404e+46 9.7648202e+45 1.6591488e+45)
(-8.9338513e+46 -7.4501943e+45 -2.1207058e+45)
(-8.4711895e+46 -1.1488651e+45 -7.199461e+44)
(-8.8371599e+46 -1.6863736e+45 -7.6257258e+44)
(-8.8264053e+46 -8.9304441e+44 -1.5791296e+45)
(-8.5359775e+46 -5.2327657e+44 -1.4090899e+45)
(-7.430906e+46 -7.7001372e+44 -2.4970247e+45)
(-8.4211315e+46 -4.3421815e+44 -2.5317193e+45)
(-9.1086486e+46 -1.9209647e+44 -2.4822349e+45)
(-9.4196933e+46 -7.1432645e+44 -3.3483637e+45)
(-1.6634163e+47 1.1412764e+46 -2.7378525e+45)
(-1.4480872e+47 5.52392e+45 -1.6664244e+46)
(-9.3638934e+46 6.3143719e+45 -1.0160999e+46)
(-9.4046984e+46 1.0681601e+46 -1.2037615e+46)
(-9.9388067e+46 4.0742774e+45 1.4268839e+46)
(-1.0238951e+47 1.1871614e+46 1.5853685e+46)
(-1.3140349e+47 1.1881106e+45 -7.3110287e+45)
(-9.3723524e+46 7.2052168e+45 9.5983466e+45)
(-9.014253e+46 3.9120497e+45 8.7568849e+45)
(-9.4770511e+46 9.3112845e+45 -1.1073283e+46)
(-9.4932971e+46 3.5902595e+45 -9.9267626e+45)
(-9.044446e+46 7.8622781e+45 -1.2494764e+45)
(-8.8537718e+46 9.3893997e+45 -5.000985e+44)
(-8.8166103e+46 1.0278914e+46 1.3089017e+45)
(-8.7308031e+46 9.0897987e+45 1.0421969e+45)
(-1.3401633e+47 -1.0951087e+45 -2.7584368e+45)
(-8.9266017e+46 1.5338324e+45 7.8167593e+45)
(-9.2108594e+46 6.3609935e+45 -9.1694015e+45)
(-9.3969201e+46 2.4552782e+45 -8.7868491e+45)
(-9.0967026e+46 5.5902715e+45 8.4700616e+45)
(-8.7091361e+46 5.3174176e+45 -1.7522107e+45)
(-8.9458298e+46 5.5523406e+45 -1.3323182e+43)
(-9.2909323e+46 5.7845616e+45 -4.5734804e+44)
(-9.3770809e+46 4.8299071e+45 -1.7340919e+45)
(-1.0227541e+47 1.0090982e+46 -3.1551573e+43)
(-9.3587166e+46 6.3813716e+45 -5.0122682e+44)
(-8.6935532e+46 7.1216184e+45 -7.5281256e+44)
(-9.7850474e+46 9.4149599e+45 -1.0614107e+45)
(-9.403681e+46 -9.2779736e+44 8.2765023e+45)
(-1.3455762e+47 -1.2465783e+45 -1.6069814e+45)
(-9.2979075e+46 -1.4528809e+44 -8.8753005e+45)
(-9.3607336e+46 4.085962e+45 -9.0253305e+45)
(-9.13824e+46 3.1794936e+45 8.7986289e+45)
(-8.9681331e+46 2.9341471e+45 -1.6229439e+45)
(-9.2566823e+46 1.9815542e+45 -4.2180716e+44)
(-8.8873574e+46 3.7051797e+45 -1.9708482e+44)
(-9.3554007e+46 1.567159e+45 -1.6155147e+45)
(-7.9080352e+46 5.1738602e+45 -1.4390969e+43)
(-8.6031162e+46 3.3418047e+45 -8.2309144e+44)
(-7.4736158e+46 6.0139263e+45 -1.9127565e+44)
(-8.3240717e+46 2.7879046e+45 -5.7365744e+44)
(-6.6747655e+46 7.8193924e+45 -6.7561152e+44)
(-6.5507442e+46 7.8399963e+45 -1.0035277e+45)
(-7.8846594e+46 4.7238781e+45 -8.0463033e+44)
(-7.9928597e+46 4.0407592e+45 -7.8031324e+44)
(-1.3129406e+47 -1.6382656e+45 -1.1732406e+45)
(-8.8858245e+46 -3.2435189e+45 9.0163614e+45)
(-9.0986224e+46 9.1815993e+45 -3.3884091e+45)
(-8.8675342e+46 -8.6903715e+45 1.3796171e+45)
(-8.8543499e+46 -9.6909705e+45 -2.9619334e+45)
(-9.0257651e+46 9.1619428e+45 -9.8709664e+42)
(-9.0829388e+46 3.1375186e+44 8.9473093e+45)
(-9.0514929e+46 -2.4791837e+45 -9.6898949e+45)
(-8.8084277e+46 2.3912098e+45 -9.1142045e+45)
(-8.5106048e+46 5.5108739e+44 -1.7508214e+45)
(-8.3747876e+46 1.0796452e+45 -2.7284725e+44)
(-8.8145388e+46 -1.7520266e+44 -7.1150972e+44)
(-9.3322227e+46 8.4594215e+43 -8.9151599e+44)
(-9.0565834e+46 -1.0652001e+45 -1.3016732e+45)
(-9.3356368e+46 -1.7765467e+45 -1.4938085e+45)
(-9.1261124e+46 -2.0326642e+45 -2.3720878e+45)
(-8.8476021e+46 -1.7705222e+45 -2.054912e+45)
(-8.7026292e+46 4.3738692e+43 -1.3242712e+45)
(-9.5273013e+46 -9.4129978e+44 -2.456396e+45)
(-6.8069159e+46 -4.5279389e+44 5.8348587e+44)
(-7.9531361e+46 -4.5170869e+44 -1.8924761e+44)
(-9.4795998e+46 -1.9117483e+45 -2.7369377e+45)
(-9.6552043e+46 -8.5421291e+44 -1.8379901e+45)
(-9.3610578e+46 -1.2646099e+44 -2.7829445e+45)
(-9.3472333e+46 5.7934077e+44 -1.8884543e+45)
(-1.019044e+47 -2.5019912e+44 -2.6252877e+43)
(-9.0450481e+46 1.3272719e+45 -8.4853167e+44)
(-7.1536376e+46 2.9334503e+45 -3.6379475e+44)
(-8.1432569e+46 1.7382047e+45 -4.3740244e+44)
(-9.5543872e+46 1.7425142e+44 -9.9192374e+44)
(-8.5510256e+46 2.323829e+45 -2.1273971e+44)
(-9.1376453e+46 -1.1293175e+43 -1.868261e+45)
(-1.0195281e+47 -5.9422857e+44 -1.9280027e+45)
(-8.129054e+46 -5.2954365e+44 2.2820989e+45)
(-1.0323356e+47 7.2716827e+44 -1.1160589e+45)
(-7.6883171e+46 -3.3806048e+44 1.1297726e+44)
(-7.9108051e+46 -3.0752962e+44 -2.433361e+45)
(-8.5189518e+46 2.5791979e+45 1.4099123e+45)
(-1.1980062e+47 9.445557e+44 -8.4205052e+44)
(-7.1493659e+46 -2.7239876e+42 1.1004233e+45)
(-1.1236054e+47 1.7035411e+45 4.6256803e+44)
(-7.2446162e+46 3.5927895e+45 -8.2793319e+44)
(-7.4565369e+46 3.623274e+45 -5.672582e+44)
(-8.5777344e+46 3.9595103e+45 -1.2285759e+44)
(-7.263629e+46 3.7553545e+45 -2.7560512e+44)
(-1.2006143e+47 -5.9299134e+44 -1.3903412e+45)
(-9.606788e+46 -8.5480311e+44 -8.0328855e+44)
(-8.8975534e+46 -1.150396e+44 -1.7675552e+45)
(-1.2408951e+47 1.5836721e+44 -1.417038e+45)
(-1.1124493e+47 2.9328885e+44 -8.0551695e+44)
(-9.2863027e+46 -1.8066549e+44 -8.7554005e+44)
(-9.6512928e+46 2.0074239e+45 -1.1692818e+45)
(-8.9892483e+46 -3.7095787e+43 -6.8351223e+44)
(-8.7554832e+46 -1.324734e+44 -3.2954894e+44)
(-8.4255345e+46 -5.105269e+44 -2.4380081e+44)
(-1.4006111e+47 -6.415991e+45 1.9702203e+45)
(-9.2963005e+46 7.8537217e+45 1.0193379e+46)
(-9.1760407e+46 1.9265188e+45 -9.2357324e+45)
(-1.3475424e+47 -1.8819278e+45 1.1893919e+45)
(-8.7119131e+46 6.8341026e+45 -1.0498301e+46)
(-8.7815081e+46 3.3510797e+45 9.0654253e+45)
(-8.6394228e+46 3.1092031e+45 2.6002536e+44)
(-8.9260014e+46 -1.8659401e+45 -9.0542369e+45)
(-1.3278797e+47 -2.3681326e+45 1.5706718e+45)
(-8.6365312e+46 1.5869012e+45 -9.3182854e+45)
(-8.9343154e+46 -1.0075064e+45 1.0913221e+46)
(-8.8797361e+46 4.5972358e+45 9.9710605e+45)
(-8.9137271e+46 -9.8490509e+45 2.9492832e+45)
(-8.8273164e+46 1.019552e+46 -2.1277699e+44)
(-8.6926175e+46 1.0565033e+46 4.0601993e+45)
(-8.6512535e+46 -8.7133442e+45 -1.6160198e+45)
(-8.930586e+46 1.8928763e+45 1.7782242e+45)
(-9.0516915e+46 9.5296038e+44 1.6390999e+45)
(-8.8411092e+46 3.6318509e+44 7.6210348e+44)
(-9.2173014e+46 1.1942264e+45 2.7097438e+45)
(-9.1442413e+46 6.9475618e+44 1.1359311e+45)
(-8.6510022e+46 -1.4744121e+45 1.8317358e+45)
(-9.1848159e+46 -1.7610209e+45 1.3295737e+45)
(-9.6152628e+46 -1.7345656e+45 2.3589731e+45)
(-8.5360762e+46 4.8161478e+44 1.3113721e+45)
(-1.3311207e+47 -5.1128996e+45 -6.1802924e+44)
(-1.3686065e+47 -2.032938e+45 -2.0194917e+44)
(-9.6395741e+46 -5.7763509e+44 1.1770744e+45)
(-9.6485175e+46 -2.0136838e+45 1.3922796e+45)
(-9.4134431e+46 -8.5673032e+45 2.4194275e+45)
(-1.3483241e+47 -1.7381218e+45 -3.3590284e+44)
(-9.3908368e+46 8.7737851e+45 -1.6719318e+45)
(-9.5581787e+46 9.1320853e+45 2.6556598e+45)
(-9.4373942e+46 -8.0544583e+45 -1.3231014e+45)
(-9.3181391e+46 -1.9850652e+45 6.7725302e+44)
(-9.2470289e+46 -6.6571016e+44 9.3267409e+43)
(-9.1854766e+46 -1.5985422e+44 -2.6630002e+44)
(-9.8557757e+46 -5.083528e+44 1.0790162e+45)
(-9.3131249e+46 -2.7001186e+44 8.163482e+44)
(-8.9894901e+46 3.9942896e+44 -2.2546878e+44)
(-1.2953433e+47 -4.9391803e+45 -6.885648e+45)
(-1.3434477e+47 -1.5049706e+45 -1.5115335e+45)
(-1.3701183e+47 -1.4817154e+45 -6.8733935e+44)
(-9.3538085e+46 8.2691753e+45 -2.0745644e+45)
(-1.3397075e+47 -1.6638619e+45 -2.939359e+44)
(-9.1670057e+46 8.7960288e+45 1.9469647e+45)
(-9.0546407e+46 -7.8583726e+45 -1.9026787e+45)
(-9.3754135e+46 -8.2401025e+45 1.8060845e+45)
(-9.0622888e+46 -1.573088e+45 3.9269911e+43)
(-9.0132592e+46 -3.5985041e+44 -2.7936346e+44)
(-8.7215802e+46 -1.3658687e+45 -1.0688517e+45)
(-8.6425874e+46 4.5942086e+43 -7.3493614e+44)
(-7.2381491e+46 -3.9009634e+44 -7.217937e+44)
(-7.6201061e+46 -5.7294683e+44 -8.7549292e+44)
(-7.6400547e+46 -7.3223726e+44 -1.7084553e+45)
(-6.7426806e+46 -6.2654216e+44 -1.4143575e+45)
(-7.6018432e+46 -2.9872218e+44 -2.6265013e+45)
(-7.9872973e+46 -2.7031397e+44 -2.7955622e+45)
(-7.3439886e+46 -2.9377556e+44 -2.4879175e+45)
(-7.7976819e+46 -3.540904e+44 -3.4447579e+45)
(-1.7718824e+47 1.3154205e+46 -4.0033308e+45)
(-1.4880607e+47 7.3130579e+45 -1.8866681e+46)
(-1.0142829e+47 4.5205515e+45 1.589132e+46)
(-1.0239319e+47 1.2479792e+46 1.8113412e+46)
(-9.0649341e+46 5.7669562e+45 -1.0613433e+46)
(-9.3775804e+46 1.1262139e+46 -1.2860381e+46)
(-1.3174615e+47 3.732938e+45 -1.019124e+46)
(-9.2513716e+46 4.3689475e+45 8.7437531e+45)
(-9.9053611e+46 9.4798517e+45 -1.0974781e+46)
(-9.9575909e+46 4.8218807e+45 -9.8010072e+45)
(-9.5644419e+46 8.9766981e+45 9.9295384e+45)
(-9.8080793e+46 1.1148705e+46 3.5586171e+44)
(-9.4725548e+46 1.0123438e+46 -4.6189959e+44)
(-9.3436917e+46 8.9321111e+45 -1.1361586e+45)
(-9.8636356e+46 9.4846665e+45 -1.1257204e+45)
(-1.3241434e+47 2.060237e+44 -3.6574402e+45)
(-8.9968547e+46 2.8766236e+45 7.2192471e+45)
(-9.4259583e+46 7.3229008e+45 -9.7680627e+45)
(-9.5859803e+46 2.2962481e+45 -9.5738803e+45)
(-9.1336334e+46 5.6179007e+45 7.6839085e+45)
(-9.5676238e+46 4.8479313e+45 -2.9736341e+45)
(-8.8864309e+46 6.5300089e+45 -2.0074021e+45)
(-9.0052034e+46 7.8053605e+45 3.3627853e+43)
(-9.512364e+46 6.3064614e+45 -6.4292541e+44)
(-9.9853161e+46 7.5862974e+45 -7.6381958e+44)
(-9.6610026e+46 9.8935775e+45 3.4237465e+44)
(-7.2865519e+46 1.1799531e+46 9.1412806e+44)
(-9.43555e+46 1.0938423e+46 3.3792781e+44)
(-1.3351225e+47 -1.1289497e+45 -1.6881961e+45)
(-9.0744354e+46 1.842493e+44 7.9353699e+45)
(-9.1171507e+46 4.6277097e+45 -9.1192902e+45)
(-9.0457112e+46 8.9373476e+44 -8.6396329e+45)
(-8.978791e+46 3.8308153e+45 8.6239041e+45)
(-8.6342138e+46 3.4878954e+45 -1.5460025e+45)
(-8.7676312e+46 4.2902199e+45 -5.4507923e+44)
(-9.2818539e+46 4.0240508e+45 -5.4821953e+44)
(-9.0264102e+46 3.0407814e+45 -1.8243882e+45)
(-7.9784904e+46 5.5321543e+45 -1.6623527e+44)
(-9.1635261e+46 4.9310112e+45 -4.3852854e+44)
(-7.9445877e+46 6.3850067e+45 -3.7349833e+44)
(-8.2674177e+46 5.8900567e+45 -2.1954355e+44)
(-7.4418867e+46 9.2265644e+45 -7.6792965e+44)
(-7.3192299e+46 7.528598e+45 -6.814732e+44)
(-7.5118337e+46 7.7823432e+45 -6.7606362e+44)
(-7.5879863e+46 8.9779566e+45 -9.8982295e+44)
(-9.3496882e+46 3.5353697e+44 -1.6160226e+45)
(-9.4360599e+46 2.5080259e+45 -8.8604038e+45)
(-1.3385386e+47 -1.0591742e+45 -1.2725689e+45)
(-9.1917134e+46 -8.0670621e+44 -8.1069749e+45)
(-9.3415881e+46 -1.7880226e+45 8.1125283e+45)
(-9.3114075e+46 2.4793595e+45 9.1129647e+45)
(-9.2417239e+46 1.1378589e+45 -4.6746638e+44)
(-9.2951587e+46 1.357609e+45 -6.3750998e+44)
(-9.0403175e+46 7.3611686e+44 -1.6100564e+45)
(-9.0206379e+46 2.8962931e+45 -7.7646968e+44)
(-8.2343204e+46 2.4962942e+45 -6.1574224e+44)
(-8.8160861e+46 3.9603163e+45 -5.6311091e+44)
(-8.5996971e+46 2.0967089e+45 -5.5347911e+44)
(-8.4139948e+46 5.0385196e+45 -4.120406e+44)
(-8.0258432e+46 3.6371822e+45 -6.6479509e+44)
(-7.4540748e+46 6.4371095e+45 -3.0944518e+44)
(-8.2918425e+46 2.8891322e+45 -5.8353171e+44)
(-1.3074876e+47 -1.1971359e+45 -1.1248087e+45)
(-9.2313756e+46 8.3364735e+45 -3.2813526e+45)
(-9.0163014e+46 -2.6559161e+45 8.8396765e+45)
(-8.9035421e+46 1.6378337e+45 -8.67736e+45)
(-8.9178783e+46 -2.3152524e+45 -9.1901365e+45)
(-9.0981887e+46 9.9370611e+44 9.3702043e+45)
(-9.1392211e+46 8.8186626e+45 1.2651298e+45)
(-9.0890386e+46 -9.2881516e+45 -2.4083872e+45)
(-9.1136954e+46 -8.847637e+45 1.5239178e+45)
(-8.6934024e+46 -1.4946748e+45 -1.6645252e+45)
(-9.0243488e+46 -1.8342894e+45 -1.2394385e+45)
(-9.0983861e+46 -7.0571821e+44 -1.88674e+45)
(-9.0351361e+46 -1.181542e+45 -2.2223856e+45)
(-9.2975783e+46 -9.7173914e+44 -8.976675e+44)
(-8.9924711e+46 -1.4754203e+45 -1.8311707e+45)
(-9.1293465e+46 -1.2886048e+45 -1.8606064e+45)
(-9.0308783e+46 -1.4987402e+45 -1.2982962e+45)
(-9.3581798e+46 -1.7116081e+45 -6.8109359e+44)
(-8.6947931e+46 -7.6428431e+44 -5.0119052e+44)
(-8.1989409e+46 4.9424311e+44 -8.8281191e+44)
(-8.5507357e+46 8.8393849e+44 -8.5840595e+44)
(-8.9403406e+46 -4.6220672e+44 -1.1975813e+45)
(-9.4566279e+46 -1.6716101e+45 -1.1292276e+45)
(-9.471455e+46 -1.0952093e+45 -2.6956735e+45)
(-9.2566118e+46 -1.7021697e+45 -1.5704174e+45)
(-8.1767285e+46 -7.4518268e+44 -8.7296385e+44)
(-9.1846443e+46 -2.0935461e+45 -1.3687298e+45)
(-8.1914157e+46 -9.7750996e+44 -2.2010992e+45)
(-8.1251942e+46 -8.564891e+44 -1.9130597e+45)
(-8.5127695e+46 -8.4878754e+44 -1.4009594e+45)
(-9.1491134e+46 -1.0031691e+45 -2.448046e+45)
(-7.7657625e+46 -6.5794131e+44 7.1411331e+44)
(-7.5655684e+46 -8.6732131e+44 2.8375061e+42)
(-9.181332e+46 -1.7109111e+45 -2.7782072e+45)
(-8.731499e+46 -1.2382453e+45 -2.6041193e+45)
(-8.2475773e+46 -7.4783521e+44 -1.3008949e+45)
(-8.4556025e+46 -1.9715524e+44 -1.7621343e+45)
(-9.1991535e+46 -1.7604269e+45 -3.4662905e+45)
(-1.0779146e+47 -1.3393754e+45 -3.0602309e+45)
(-8.3863626e+46 -8.0158483e+44 5.4531732e+44)
(-1.0779676e+47 -4.2618936e+44 -2.0214538e+45)
(-7.7043783e+46 2.8200962e+45 -6.3921527e+44)
(-7.7644425e+46 1.8339326e+45 -7.6058264e+44)
(-8.2123163e+46 6.9609709e+44 -9.7289475e+44)
(-9.0740961e+46 2.0682227e+45 -7.4021658e+44)
(-8.8449223e+46 -1.1900041e+45 -2.2062046e+45)
(-8.9806695e+46 -8.579547e+44 -2.3988641e+45)
(-8.2063859e+46 -2.6145301e+44 -1.5939214e+45)
(-8.654755e+46 -4.9757351e+44 -2.1703678e+45)
(-9.6682097e+46 -2.9523781e+44 -9.2820655e+44)
(-8.0866945e+46 -2.7419272e+44 -6.8769089e+44)
(-8.6574311e+46 6.9115046e+44 -1.2815792e+45)
(-7.9859717e+46 -2.8518676e+44 -7.7516353e+44)
(-8.8701619e+46 -5.6347009e+44 -4.5437492e+43)
(-8.2848009e+46 -4.9238745e+44 -2.8970675e+44)
(-1.3575449e+47 -3.613737e+45 1.2994958e+46)
(-1.3337469e+47 -5.0135167e+45 1.4616421e+45)
(-8.8830424e+46 7.0779558e+45 -9.8181633e+45)
(-9.0657869e+46 -6.6282546e+43 -8.2957563e+45)
(-1.0035776e+47 6.7266157e+45 9.8736243e+45)
(-9.2309126e+46 3.6012295e+45 9.0833702e+45)
(-9.4345644e+46 4.6717957e+45 6.6612404e+44)
(-9.4621843e+46 3.3303863e+45 1.7267651e+45)
(-9.2723451e+46 4.9135814e+45 8.9786182e+45)
(-9.2145193e+46 -4.7707465e+44 -8.764408e+45)
(-1.3495008e+47 -2.3403072e+45 1.2235123e+45)
(-8.8407173e+46 3.9366347e+45 -9.1112877e+45)
(-9.0410287e+46 1.4795412e+45 8.6177184e+45)
(-8.7152023e+46 4.2264885e+45 1.4390651e+45)
(-8.4371766e+46 5.2947726e+45 -2.4080759e+44)
(-9.9020911e+46 1.3582437e+45 1.2202463e+45)
(-9.2760609e+46 -4.6035708e+44 1.9122143e+45)
(-9.1269824e+46 2.7011302e+45 1.01906e+46)
(-1.3148684e+47 -1.4308118e+45 6.8828183e+44)
(-8.9958853e+46 -2.7394512e+45 -8.5356038e+45)
(-8.7253933e+46 -1.4880713e+45 1.0297974e+46)
(-8.5937323e+46 1.8528655e+45 -9.5373644e+45)
(-8.667461e+46 -9.1378141e+45 2.8082115e+45)
(-8.6387986e+46 1.0383081e+46 -6.2854154e+44)
(-8.9409676e+46 9.9517778e+45 3.2089551e+45)
(-8.779437e+46 -8.6508623e+45 -1.4544919e+45)
(-8.4268951e+46 1.4442728e+44 9.0542203e+44)
(-8.6719571e+46 1.2004379e+44 9.157851e+44)
(-8.8360731e+46 2.6256214e+44 3.9776403e+44)
(-9.0006336e+46 9.4684883e+44 4.1391087e+43)
(-9.2191808e+46 3.9194257e+44 4.7451244e+44)
(-8.8215935e+46 -6.9444657e+44 9.5184363e+44)
(-8.5307613e+46 -1.0353331e+45 6.77841e+44)
(-8.6536147e+46 -2.12846e+45 1.6244779e+45)
(-8.7973034e+46 -1.0845135e+45 1.9935185e+45)
(-8.6825474e+46 1.7066184e+45 7.9598512e+44)
(-7.9570226e+46 3.5085681e+45 5.4263482e+44)
(-6.377788e+46 1.7342165e+45 6.6675146e+44)
(-7.6640492e+46 1.8107458e+44 -2.7288361e+45)
(-8.2155034e+46 2.0680378e+45 8.1664899e+44)
(-7.2283138e+46 1.2842803e+45 2.0862199e+45)
(-8.0046861e+46 -5.0635481e+44 -6.6485515e+44)
(-9.6360382e+46 -5.9061734e+44 2.3221472e+45)
(-7.7220562e+46 -2.5996332e+44 1.4805044e+45)
(-9.3972163e+46 -8.5663657e+44 2.7018265e+45)
(-9.9991487e+46 -7.6659268e+44 2.0243163e+45)
(-1.2833873e+47 -6.6477158e+45 -9.446058e+44)
(-1.3406823e+47 -2.1833814e+45 -3.1391386e+44)
(-1.3689719e+47 -1.5918791e+45 -3.0478138e+44)
(-9.3796292e+46 -7.9278186e+44 1.2764885e+45)
(-8.8673387e+46 -7.6128389e+44 1.374398e+45)
(-9.6392568e+46 -8.5946296e+44 1.1236474e+45)
(-1.3414111e+47 -1.5473093e+45 -5.8533391e+44)
(-9.2742718e+46 -7.9575059e+45 1.6620312e+45)
(-9.4521443e+46 9.0246743e+45 -2.3754256e+45)
(-9.4957475e+46 -8.3545128e+45 -1.7414339e+45)
(-9.6287331e+46 8.3370928e+45 1.3482512e+45)
(-9.3448483e+46 -1.885767e+45 4.816246e+44)
(-9.7219252e+46 -1.8697216e+45 8.9533178e+44)
(-9.6829821e+46 -7.8261299e+44 1.0120761e+45)
(-8.5175007e+46 -8.1603312e+44 7.1603837e+44)
(-8.9816484e+46 -8.1638523e+44 1.313083e+44)
(-8.5879515e+46 -3.9399984e+44 -3.5824021e+44)
(-8.424651e+46 -6.655767e+44 8.1543736e+44)
(-8.3086059e+46 -7.3453074e+44 5.7377353e+44)
(-7.7045163e+46 -2.2112419e+44 -2.7163163e+44)
(-1.2771874e+47 2.1009833e+44 -1.0010357e+46)
(-1.3185189e+47 -8.9960387e+44 -2.3378305e+45)
(-1.353998e+47 -1.1111526e+45 -8.0902959e+44)
(-1.3685583e+47 -1.17801e+45 -4.569157e+44)
(-9.16968e+46 -2.0766522e+45 -1.6437937e+44)
(-9.2076343e+46 -8.4890442e+45 1.735971e+45)
(-1.3393271e+47 -1.1372204e+45 -1.5516704e+44)
(-9.311041e+46 8.0934119e+45 -2.0941792e+45)
(-9.3724633e+46 8.3255028e+45 1.3892329e+45)
(-9.1811009e+46 -8.0434234e+45 -1.711256e+45)
(-8.8978721e+46 -1.7231096e+45 -2.9555773e+44)
(-8.8936485e+46 -5.1897534e+44 -8.9375237e+44)
(-9.4110331e+46 -7.1390587e+44 -8.9695796e+43)
(-8.3694586e+46 -6.593338e+44 -2.4274175e+43)
(-8.0721056e+46 -6.8369067e+44 -3.3710487e+44)
(-8.1444696e+46 -7.2066064e+44 -1.0632951e+45)
(-7.9953736e+46 -6.8197577e+44 -7.8606883e+44)
(-7.7135639e+46 -7.5249397e+44 -7.7494814e+44)
(-7.986384e+46 -7.1755498e+44 -9.6737929e+44)
(-8.0934561e+46 -5.130134e+44 -1.87247e+45)
(-7.7470443e+46 -5.0439332e+44 -1.4941938e+45)
(-1.8636048e+47 1.3472233e+46 -5.360929e+45)
(-1.5514326e+47 8.6494475e+45 -2.0494625e+46)
(-1.0403921e+47 5.1632708e+45 1.6376681e+46)
(-9.3207507e+46 1.1930028e+46 -1.3993295e+46)
(-9.1589763e+46 6.3302086e+45 -1.1765235e+46)
(-1.0479377e+47 1.3770425e+46 1.9195968e+46)
(-1.3436672e+47 5.6234856e+45 -1.1376119e+46)
(-9.5537111e+46 9.3913182e+45 1.0103914e+46)
(-9.4063887e+46 4.6294547e+45 9.056171e+45)
(-1.0124634e+47 1.0124491e+46 -1.1648446e+46)
(-1.0182006e+47 4.6909616e+45 -1.0279729e+46)
(-9.5499185e+46 1.079613e+46 -9.5707001e+44)
(-9.8010438e+46 9.6478015e+45 -1.4814235e+45)
(-9.47243e+46 1.098639e+46 -1.8877442e+44)
(-9.3657404e+46 1.1442764e+46 5.6150566e+44)
(-1.3002567e+47 2.2274867e+45 -5.0057668e+45)
(-9.0971565e+46 3.4213218e+45 6.3953149e+45)
(-9.8428257e+46 3.5883584e+45 -9.9458489e+45)
(-9.6879276e+46 8.022742e+45 -1.0596018e+46)
(-9.2470895e+46 7.1048816e+45 7.0122075e+45)
(-9.0146595e+46 8.1429847e+45 -2.3196452e+45)
(-9.2973592e+46 8.1362766e+45 6.4646267e+44)
(-9.8253338e+46 8.1154644e+45 4.4644617e+43)
(-9.7888232e+46 7.0280229e+45 -2.8652585e+45)
(-7.1273999e+46 1.1423626e+46 7.2847809e+44)
(-7.1402081e+46 9.4717929e+45 1.2369639e+44)
(-6.8594016e+46 1.0049553e+46 7.8433003e+44)
(-9.4093969e+46 1.0967965e+46 4.4482338e+44)
(-1.3234619e+47 -1.3179936e+44 -2.1736398e+45)
(-9.2599143e+46 1.4987754e+45 7.2625859e+45)
(-9.2665766e+46 5.972211e+45 -9.4498795e+45)
(-9.1049771e+46 1.2155316e+45 -8.9597094e+45)
(-9.0423667e+46 4.6915947e+45 8.0674476e+45)
(-8.8377954e+46 5.1366874e+45 -1.3956198e+45)
(-8.9660875e+46 5.3709494e+45 -1.5163946e+44)
(-9.3172335e+46 4.0153749e+45 -6.2690364e+44)
(-8.9496845e+46 3.2666576e+45 -1.3480298e+45)
(-8.0665952e+46 5.3294534e+45 -4.121038e+44)
(-8.5490571e+46 6.1753371e+45 2.5518479e+43)
(-9.2983653e+46 6.9851864e+45 -3.7242243e+44)
(-9.441269e+46 5.6600042e+45 -1.0143298e+45)
(-8.1777356e+46 7.722178e+45 -7.8372351e+44)
(-8.7439304e+46 1.0253136e+46 -3.8702074e+44)
(-7.9005496e+46 1.2298989e+46 -1.1488536e+44)
(-8.7795142e+46 9.6871475e+45 -5.6669258e+44)
(-1.3346054e+47 -8.6273865e+44 -1.4703479e+45)
(-9.2751096e+46 -7.0633912e+44 8.0856074e+45)
(-9.1365288e+46 2.4037051e+45 8.7458299e+45)
(-9.0307462e+46 -8.4112796e+44 -7.8099262e+45)
(-9.152912e+46 3.4748695e+45 -8.3885446e+45)
(-8.833649e+46 2.158458e+45 -1.155101e+45)
(-8.7610581e+46 2.5170846e+45 -3.8120025e+44)
(-8.8087147e+46 2.3337928e+45 -5.748388e+44)
(-8.7841807e+46 1.1718643e+45 -1.3889558e+45)
(-8.1559857e+46 3.8385432e+45 -3.5873316e+44)
(-7.7691844e+46 5.0015043e+45 -2.4098728e+44)
(-8.5475934e+46 4.8769759e+45 -4.2559454e+44)
(-8.7429262e+46 3.4530645e+45 -4.7429009e+44)
(-7.8923754e+46 6.6968767e+45 -3.6728654e+43)
(-7.3968498e+46 6.9406365e+45 -3.0559588e+44)
(-7.9018655e+46 6.8797125e+45 -4.2788486e+44)
(-8.4153661e+46 6.0074369e+45 -4.6374059e+44)
(-8.638592e+46 7.0083145e+44 -5.3744923e+44)
(-9.3268855e+46 -7.2958181e+43 -4.4165788e+44)
(-1.3355743e+47 -8.4541964e+44 -1.2936007e+45)
(-9.2133595e+46 1.933825e+45 -8.3159531e+45)
(-9.2590877e+46 -2.1875096e+45 8.4108252e+45)
(-9.67014e+46 1.758859e+45 8.4919808e+45)
(-9.454182e+46 -1.5297342e+45 -7.9731742e+45)
(-9.0709683e+46 5.1450343e+44 -3.0264851e+44)
(-9.0919278e+46 -2.3358176e+44 -1.6124922e+45)
(-9.243953e+46 1.7360836e+43 -1.3895028e+45)
(-8.6299244e+46 1.531903e+45 -6.8518303e+44)
(-8.6910551e+46 1.6573403e+45 -8.0208737e+44)
(-8.5577853e+46 9.7846592e+44 -6.6598959e+44)
(-8.2500226e+46 3.355441e+45 -7.1945448e+44)
(-8.4078004e+46 2.4685672e+45 -6.4640805e+44)
(-8.4818196e+46 4.079511e+45 -7.0009297e+44)
(-8.4631224e+46 2.1686905e+45 -6.9489188e+44)
(-1.3070561e+47 -1.3870922e+45 -1.1436242e+45)
(-9.0979676e+46 -2.3651437e+45 8.5497554e+45)
(-9.2002013e+46 1.4496661e+45 8.9176808e+45)
(-9.1409062e+46 -1.6321485e+45 -8.5941833e+45)