/*--------------------------------*- C++ -*----------------------------------*\
  =========                 |
  \\      /  F ield         | OpenFOAM: The Open Source CFD Toolbox
   \\    /   O peration     | Website:  https://openfoam.org
    \\  /    A nd           | Version:  7
     \\/     M anipulation  |
\*---------------------------------------------------------------------------*/
FoamFile
{
    version     2.0;
    format      ascii;
    class       volScalarField;
    location    "3000";
    object      nut;
}
// * * * * * * * * * * * * * * * * * * * * * * * * * * * * * * * * * * * * * //

dimensions      [0 2 -1 0 0 0 0];

internalField   nonuniform List<scalar> 
34377
(
8.3454933e-19
4.9101173e-18
3.4697698e-19
3.1752804e-19
6.445234e-20
6.8012931e-19
5.1099965e-20
3.3486908e-20
3.2103549e-20
3.146828e-20
4.6896195e-20
1.5908705e-18
4.7303581e-20
6.79593e-18
1.7115319e-18
3.1600625e-19
1.5302645e-19
2.4125249e-19
2.2543881e-19
9.7028372e-20
2.4469338e-19
2.1059424e-19
8.7517017e-20
9.6094396e-20
6.395095e-20
3.4302156e-19
6.9851489e-20
3.4049085e-20
2.5363392e-20
1.3880611e-20
1.4314372e-20
2.9444447e-20
2.2158765e-20
2.2854337e-20
2.6412132e-20
2.9345196e-20
2.6137126e-20
4.8997037e-20
5.7831838e-20
2.6509075e-20
2.9304956e-20
5.39246e-20
5.2709281e-20
2.2499188e-19
1.8621103e-20
1.4783428e-20
1.2280812e-19
1.0468897e-19
9.2692899e-19
1.0928305e-19
8.4744384e-19
3.6646924e-20
2.77215e-19
2.0382448e-20
1.7851224e-20
1.540055e-19
4.1726495e-20
1.4177451e-18
1.2645488e-18
1.1284096e-19
9.2068276e-19
1.0849633e-19
8.7514011e-19
2.0868324e-19
2.6134115e-19
1.1443815e-19
9.3472363e-20
9.9197189e-20
1.0817933e-19
7.6995455e-20
8.2805873e-20
7.3789071e-20
1.0704161e-19
1.0380393e-19
6.5965799e-20
1.0643758e-19
8.6224304e-20
1.1372471e-19
8.2907278e-20
1.0764593e-19
7.5237735e-20
1.0025997e-19
7.677447e-20
1.4063894e-19
2.4315797e-19
2.3647893e-19
1.1293325e-19
1.3271084e-20
1.3289305e-20
2.2604635e-20
2.5493001e-20
3.1420923e-20
2.1851619e-20
2.063496e-20
2.8707588e-20
2.6617004e-20
3.4828973e-20
3.8769432e-20
3.8168969e-20
3.5414575e-20
2.5668289e-20
1.8213119e-20
1.7117385e-20
2.4284968e-20
6.4464101e-21
2.7436217e-20
1.9327918e-20
1.8349015e-20
2.660972e-20
6.6062486e-21
6.9137686e-21
6.2638526e-21
2.2114185e-20
2.8608831e-20
2.7696604e-20
2.2480484e-20
4.2692476e-20
3.9776209e-20
4.225162e-20
4.4053049e-20
4.1177204e-20
4.2266575e-20
4.4246491e-20
4.4539549e-20
5.7482916e-20
5.941077e-20
5.4725318e-20
4.7831614e-20
4.3035454e-20
3.9285521e-20
4.0472906e-20
4.0905755e-20
2.0504016e-20
2.1199242e-20
4.4787721e-20
3.3899832e-20
2.544977e-20
4.5844272e-20
6.3828853e-20
1.0143132e-19
1.0326482e-19
6.1234305e-20
9.4671973e-20
9.1388633e-20
3.9648339e-19
3.9122856e-19
6.1739443e-20
5.9373108e-20
1.0620099e-19
1.0146598e-19
9.3447621e-20
3.5549141e-19
4.0588097e-19
1.8886511e-19
1.5936258e-20
1.2705376e-20
1.1036835e-19
4.1556957e-20
2.7221211e-20
2.4075455e-20
3.9336918e-20
1.8413655e-20
1.9309658e-20
2.8651014e-19
1.7251455e-19
1.131667e-19
1.0559589e-19
8.9096978e-19
8.4591411e-19
9.9785683e-20
9.0906328e-20
8.590407e-19
7.5005586e-19
5.8564303e-20
5.739407e-20
9.9911094e-20
1.0475236e-19
8.8832229e-20
8.4972311e-20
3.8170054e-19
3.8049933e-19
5.6886039e-20
5.9056137e-20
1.010533e-19
1.0132148e-19
8.6119782e-20
8.0607845e-20
3.8846799e-19
3.3970226e-19
1.0774099e-19
1.0245639e-19
7.3076715e-20
7.8672266e-20
1.2355715e-19
1.2187769e-19
1.0599627e-19
1.0014966e-19
3.8148552e-20
4.1206625e-20
4.0582864e-20
3.8432556e-20
4.449462e-20
4.4187815e-20
3.9900692e-20
4.0945807e-20
4.4915868e-20
4.5459795e-20
3.8701315e-20
3.965974e-20
4.5263801e-20
4.306665e-20
3.8293218e-20
3.80852e-20
3.8618556e-20
4.0974286e-20
4.3462209e-20
4.0417777e-20
4.6258289e-20
4.5741973e-20
3.9156887e-20
3.9754704e-20
4.375879e-20
4.3692241e-20
3.9661591e-20
4.016751e-20
3.7164295e-20
4.3059468e-20
4.0868025e-20
3.8936904e-20
1.0931268e-19
9.2075881e-20
8.92338e-20
9.8292021e-20
1.0845529e-19
1.0739541e-19
7.0783979e-20
8.6096222e-20
2.7897115e-20
1.7509085e-20
1.9263395e-20
2.8431583e-20
6.4337186e-21
2.7395113e-20
1.8457271e-20
1.7880134e-20
6.3012627e-21
2.6420939e-20
3.9387033e-20
4.1841533e-20
4.1955474e-20
3.6949092e-20
4.3984815e-20
4.2786058e-20
4.0867467e-20
4.0823822e-20
6.5767095e-21
2.1408054e-20
2.598176e-20
2.7879463e-20
2.1541728e-20
3.6398602e-20
3.1627644e-20
3.4974025e-20
4.0142037e-20
3.6195092e-20
3.3934021e-20
3.6504345e-20
3.7864459e-20
2.4986347e-20
2.4141155e-20
2.4338637e-20
2.5004087e-20
2.2955577e-20
2.5418269e-20
2.3614326e-20
2.4884494e-20
1.7587666e-20
2.0415145e-20
1.9128251e-20
1.8708201e-20
1.7051859e-20
1.6519538e-20
1.4957221e-20
1.5189072e-20
9.3930342e-21
1.3892397e-20
1.3944049e-20
1.4823206e-20
8.7534978e-21
1.5315648e-20
1.9064144e-20
1.8349172e-20
1.7563079e-20
1.8291655e-20
8.9047673e-21
8.801276e-21
1.8549428e-20
2.2001295e-20
2.0042356e-20
2.0315938e-20
1.6545378e-20
1.5724385e-20
1.8151614e-20
1.6996906e-20
1.0372931e-20
1.5176791e-20
1.601822e-20
1.8004266e-20
1.8966498e-20
1.8958396e-20
1.1177049e-20
4.4556372e-21
5.9890744e-21
4.5264411e-21
4.6550762e-21
5.8219849e-21
6.644165e-21
4.8608437e-21
4.0005724e-20
4.397943e-20
3.4641247e-20
4.0265396e-20
2.4362653e-20
2.7168566e-20
2.4775245e-20
2.7230042e-20
2.5231063e-20
2.4555783e-20
2.5053521e-20
2.5734738e-20
3.7260993e-20
3.5034334e-20
3.8988193e-20
4.0439506e-20
2.3304759e-20
2.3390409e-20
2.3924316e-20
2.3133972e-20
2.2694616e-20
2.3038345e-20
2.5327038e-20
2.4650937e-20
4.3941501e-20
4.3258662e-20
4.2871082e-20
4.4337829e-20
4.915382e-20
4.7956262e-20
4.0659024e-20
4.0281942e-20
2.4966796e-20
2.4043247e-20
2.1788672e-20
2.229632e-20
2.3394263e-20
2.4619994e-20
2.3955096e-20
2.2779842e-20
2.0445117e-20
1.8898378e-20
3.3836915e-20
1.6908628e-19
7.6188626e-20
7.4352247e-20
7.6754594e-20
8.2048269e-20
3.9966803e-20
4.9429494e-20
5.2803548e-20
3.5183214e-20
3.5700403e-20
5.2532952e-20
5.2378594e-20
3.5786395e-20
3.5335713e-20
3.293366e-20
3.3903653e-20
9.9637143e-20
9.7364916e-20
1.0245578e-19
9.780123e-20
3.3904055e-20
3.2071855e-20
3.9230958e-20
3.9519165e-20
4.9968585e-20
5.3091144e-20
3.6738204e-20
3.6918471e-20
3.5120937e-20
1.0673483e-19
3.4406928e-20
1.0043784e-19
3.5119158e-20
1.0249766e-19
4.2461836e-20
3.1538479e-20
2.4659582e-20
4.1861921e-20
1.6384655e-19
7.1245236e-20
7.4769347e-20
3.2584438e-20
3.2483876e-20
1.2680516e-19
7.4674069e-20
7.3536292e-20
2.5712821e-20
2.6451368e-20
4.286552e-20
3.9887335e-20
1.0365953e-19
6.0903886e-20
6.2254576e-20
1.0752526e-19
1.0563321e-19
6.1216136e-20
5.8760117e-20
1.0456705e-19
9.2595227e-20
8.9635278e-20
3.6328208e-19
3.7321059e-19
8.7113906e-20
8.1777341e-20
3.7609957e-19
3.3667436e-19
1.025356e-19
5.9015373e-20
6.0850284e-20
1.079486e-19
1.0678653e-19
6.2036443e-20
5.8445556e-20
1.0441289e-19
9.0762296e-20
8.7223037e-20
3.9194875e-19
3.8549058e-19
7.858642e-20
3.7853557e-19
8.5617135e-20
3.22029e-19
3.8198674e-20
3.7715852e-20
4.783812e-20
5.1179498e-20
3.4058528e-20
3.3976304e-20
5.002031e-20
4.9933753e-20
3.398297e-20
3.3063622e-20
9.7682458e-20
1.011856e-19
3.164697e-20
3.2542693e-20
1.0230425e-19
9.7142417e-20
3.2513854e-20
3.0561492e-20
3.8023005e-20
3.8402415e-20
4.812648e-20
5.1331919e-20
3.4977108e-20
3.5045941e-20
5.0325304e-20
5.0152634e-20
3.4828252e-20
3.3882844e-20
3.2753207e-20
9.9816434e-20
3.3495826e-20
1.02482e-19
3.3035817e-20
3.0719307e-20
1.0344279e-19
9.5348683e-20
4.2528138e-20
4.2230962e-20
3.8219753e-20
3.9878932e-20
4.2603293e-20
3.7468801e-20
4.0122293e-20
3.7538774e-20
4.5848021e-20
4.6138433e-20
4.794054e-20
4.8356047e-20
4.3809609e-20
4.8034366e-20
4.5422078e-20
4.3581108e-20
4.1178205e-20
3.8884233e-20
1.2286006e-20
1.3802965e-20
4.1044916e-20
4.1721817e-20
1.3012692e-20
1.2831429e-20
4.6441185e-20
4.3275378e-20
1.357212e-20
1.4846249e-20
4.3717935e-20
4.6575184e-20
1.3688714e-20
1.3704958e-20
4.3365901e-20
4.1678362e-20
1.3131666e-20
1.4617104e-20
4.2899884e-20
4.4043185e-20
1.3147178e-20
1.3111671e-20
1.3373051e-20
4.2480107e-20
4.5148483e-20
1.4405364e-20
4.1445256e-20
4.413329e-20
1.3208726e-20
1.3262283e-20
3.9238074e-20
3.8581106e-20
1.264923e-20
1.3530989e-20
4.0141837e-20
4.0378576e-20
1.3067174e-20
1.3324039e-20
4.2840741e-20
1.3839226e-20
4.5811254e-20
1.4906387e-20
1.432628e-20
4.6341292e-20
4.3029774e-20
1.4255615e-20
3.9937268e-20
3.7591826e-20
1.2525986e-20
1.342377e-20
1.2552481e-20
4.0540439e-20
3.711362e-20
1.2748428e-20
4.1269596e-20
4.1682149e-20
1.2406409e-20
1.3221478e-20
3.6364276e-20
3.9789451e-20
1.2521352e-20
1.2699913e-20
4.219852e-20
4.133408e-20
3.9835428e-20
4.0468767e-20
3.6879271e-20
3.8844381e-20
3.562161e-20
3.6055373e-20
4.1253705e-20
4.3272866e-20
4.3426428e-20
3.9895168e-20
4.3832495e-20
4.3143541e-20
3.9569135e-20
3.8869819e-20
1.9525184e-20
1.8336588e-20
1.7729969e-20
1.6466467e-20
1.6200389e-20
1.5341992e-20
1.4041004e-20
1.4518151e-20
9.2972455e-21
1.8830838e-20
1.6590006e-20
1.7033889e-20
1.8378269e-20
9.7982669e-21
2.1967627e-20
2.1300149e-20
2.0003239e-20
2.1064823e-20
1.0723753e-20
1.0249122e-20
2.1044408e-20
1.8862896e-20
1.7677804e-20
1.594892e-20
1.4660604e-20
1.58515e-20
9.1678358e-21
1.4970777e-20
1.7231832e-20
9.4386867e-21
2.0876282e-20
1.9740465e-20
1.9492398e-20
1.857978e-20
4.5908909e-20
4.0740018e-20
4.5143454e-20
4.0914966e-20
3.8650241e-20
4.260805e-20
4.2639546e-20
2.5879277e-20
2.5300046e-20
2.7039129e-20
2.6308331e-20
2.5366795e-20
2.5265672e-20
2.7949042e-20
2.8023695e-20
2.9094714e-20
2.861283e-20
4.3083386e-20
4.0419098e-20
4.7351751e-20
4.8816271e-20
2.2976822e-20
2.253774e-20
2.366608e-20
2.3948047e-20
3.5944819e-20
3.3493204e-20
3.8504084e-20
4.0517645e-20
7.4030158e-21
4.8282566e-21
4.9819618e-21
7.8365505e-21
1.900956e-20
1.9152357e-20
1.7463088e-20
1.752805e-20
1.6133061e-20
1.4641799e-20
1.690675e-20
1.5236923e-20
1.7598643e-20
1.4566713e-20
1.9037127e-20
1.53614e-20
2.0728926e-20
1.6391665e-20
2.1284767e-20
1.656357e-20
1.8799275e-20
1.8505018e-20
1.7400716e-20
1.7029373e-20
1.8202089e-20
1.6378723e-20
1.8163328e-20
1.6321634e-20
1.9165287e-20
1.5375545e-20
1.9768694e-20
1.5529638e-20
2.0452712e-20
2.0610288e-20
1.5947475e-20
1.5869097e-20
1.8267069e-20
1.418405e-20
1.8569501e-20
1.4473629e-20
1.9132698e-20
1.9295285e-20
1.6508091e-20
1.6766518e-20
1.9397189e-20
1.9071937e-20
1.6704545e-20
1.6704445e-20
1.8356598e-20
1.8391581e-20
1.4399627e-20
1.4556965e-20
1.6301374e-20
1.2692285e-20
1.7446721e-20
1.3525297e-20
2.0139927e-20
2.0101152e-20
1.7237672e-20
1.7492479e-20
1.7503974e-20
1.4897355e-20
1.8603564e-20
1.589628e-20
1.8803611e-20
1.9224123e-20
1.4811028e-20
1.5202696e-20
1.8083239e-20
1.4717617e-20
1.9631487e-20
1.5943755e-20
1.8617899e-20
1.8342278e-20
1.6884823e-20
1.7026494e-20
1.6621557e-20
1.5149754e-20
1.7943879e-20
1.647582e-20
2.0234728e-20
2.0366475e-20
1.6536153e-20
1.6848757e-20
1.4582555e-20
1.3575874e-20
1.4706838e-20
1.3753043e-20
1.3022079e-20
1.2200693e-20
1.4662423e-20
1.3563381e-20
9.4024047e-21
1.0402001e-20
1.1879347e-20
1.1372971e-20
1.2613229e-20
1.0389396e-20
1.0326141e-20
1.2515338e-20
1.2315743e-20
1.2807556e-20
1.5090322e-20
1.3896843e-20
9.6126918e-21
9.5691349e-21
1.0799629e-20
1.1272608e-20
1.1618934e-20
9.354985e-21
9.9522412e-21
1.0408047e-20
1.1788073e-20
1.1537713e-20
1.2954707e-20
1.2425583e-20
1.3956959e-20
1.3266586e-20
1.1014431e-20
1.2029213e-20
1.3445873e-20
1.2829346e-20
1.3534682e-20
1.2944527e-20
1.7675829e-20
1.6333165e-20
1.7337915e-20
1.6323814e-20
1.7308331e-20
1.6047149e-20
1.7843339e-20
1.6599531e-20
1.923986e-20
1.5898748e-20
1.9843219e-20
1.6424428e-20
1.9762466e-20
1.6178708e-20
1.9607833e-20
1.6310371e-20
8.9276306e-21
9.3826172e-21
9.5318736e-21
1.0862483e-20
1.5142434e-20
1.1210701e-20
1.0016906e-20
1.194803e-20
1.8400247e-20
1.5043224e-20
2.0575886e-20
1.674115e-20
1.9651982e-20
2.0252913e-20
1.7977804e-20
1.8892145e-20
1.6632899e-20
1.5404097e-20
1.8927814e-20
1.7408626e-20
2.1325304e-20
2.2362238e-20
1.7423235e-20
1.8460273e-20
1.0947798e-20
1.1518524e-20
1.4183427e-20
1.3549286e-20
1.3275246e-20
9.0517734e-21
1.0921867e-20
1.2415312e-20
1.3076082e-20
1.1202572e-20
1.5027836e-20
1.4298651e-20
1.5918482e-20
1.5145164e-20
1.2450033e-20
1.2038312e-20
1.5108472e-20
1.4262661e-20
1.4425662e-20
1.5955667e-20
9.436157e-21
1.0410274e-20
1.2315278e-20
1.1472055e-20
1.2902164e-20
1.2356547e-20
1.4291043e-20
1.3508557e-20
1.6308149e-20
1.8956115e-20
1.5591972e-20
1.9859784e-20
1.624207e-20
1.7159041e-20
1.5816109e-20
1.8118151e-20
1.6666866e-20
1.9474554e-20
1.5814351e-20
2.0253734e-20
1.6624012e-20
1.7080518e-20
1.1827193e-20
1.1800839e-20
1.6337839e-20
2.2209235e-21
2.2748669e-21
3.2145852e-21
2.8121424e-21
3.2422176e-21
3.6373493e-21
2.5142588e-21
2.5022695e-21
3.8737905e-21
4.569167e-21
4.566132e-21
4.7205332e-21
4.4014436e-21
4.3870884e-21
4.7325273e-21
4.6328203e-21
3.9843575e-21
2.4276951e-21
3.7436576e-21
2.440896e-21
3.3190389e-21
2.7427759e-21
4.1494529e-21
2.5553546e-21
5.9891178e-21
6.6530476e-21
5.6027929e-21
5.3587791e-21
1.8991169e-20
1.524386e-20
2.0571822e-20
1.6145904e-20
2.1722559e-20
2.3088339e-20
1.6721834e-20
1.7193376e-20
1.7481344e-20
1.5826818e-20
1.8210312e-20
1.6542592e-20
1.9979053e-20
1.7989085e-20
2.0671131e-20
1.870262e-20
1.7240389e-20
1.8593223e-20
1.3704804e-20
1.4592645e-20
1.9964246e-20
2.1060433e-20
1.5703888e-20
1.6542171e-20
1.7948673e-20
1.5461224e-20
1.9491924e-20
1.6760095e-20
2.0989016e-20
2.180771e-20
1.8054131e-20
1.9000111e-20
1.8874769e-20
1.9351605e-20
1.6277705e-20
1.684367e-20
1.8625962e-20
1.8965605e-20
1.6043209e-20
1.6353748e-20
1.7674532e-20
1.8152924e-20
1.4075758e-20
1.44112e-20
1.7945623e-20
1.8582332e-20
1.4123737e-20
1.466778e-20
1.7974439e-20
1.6636202e-20
1.819201e-20
1.6836042e-20
1.8087227e-20
1.6722691e-20
1.8080711e-20
1.6567088e-20
1.9706087e-20
1.5869595e-20
2.0425266e-20
1.6045352e-20
1.9972744e-20
1.561118e-20
2.0749957e-20
1.6070469e-20
1.3066695e-20
1.319563e-20
1.2758231e-20
1.2601248e-20
1.2555073e-20
1.2524395e-20
1.3297733e-20
1.3136086e-20
1.3191729e-20
1.2662205e-20
1.3831677e-20
1.3862907e-20
1.4345442e-20
1.4575518e-20
1.5373132e-20
1.4536632e-20
2.5334446e-20
2.3070389e-20
2.5203148e-20
2.453893e-20
2.154596e-20
2.0994254e-20
2.4784876e-20
2.4015842e-20
2.7045702e-20
2.6243427e-20
2.6933506e-20
2.6261206e-20
2.3364193e-20
2.2371435e-20
2.340863e-20
2.199789e-20
1.5133585e-20
1.4890865e-20
1.5153546e-20
1.475959e-20
1.3347482e-20
1.3422081e-20
1.4688414e-20
1.351677e-20
1.4342615e-20
1.4068949e-20
1.4350974e-20
1.4475849e-20
1.360222e-20
1.4041378e-20
1.3584386e-20
1.4390829e-20
3.1602952e-20
3.381292e-20
2.0128679e-20
2.5195861e-20
2.436421e-20
2.8005397e-20
2.7352072e-20
7.4756188e-20
3.4305833e-20
3.5368324e-20
2.9518496e-20
4.7527585e-20
5.0883924e-20
4.9258067e-20
4.5959655e-20
3.0005162e-20
3.1241315e-20
2.8777284e-20
3.0192336e-20
1.9736784e-20
3.8112376e-20
1.968104e-20
3.7498152e-20
4.0092896e-20
3.896783e-20
2.0116339e-20
1.9530589e-20
3.0246259e-20
3.011445e-20
2.0353819e-20
3.952677e-20
2.0416367e-20
3.96055e-20
4.0561114e-20
3.9114872e-20
2.0290689e-20
1.9553867e-20
8.7284321e-21
1.1987819e-20
1.1878019e-20
8.2228753e-21
1.2379837e-20
1.2669371e-20
8.0148382e-21
9.3381745e-21
1.1391347e-20
1.3764245e-20
1.3688457e-20
1.1092499e-20
1.2828605e-20
1.0638689e-20
1.125796e-20
1.3438517e-20
1.1207908e-20
1.1673029e-20
1.4340304e-20
1.3664388e-20
1.4327086e-20
1.1393706e-20
1.0983275e-20
1.4059197e-20
1.2453907e-20
1.2419764e-20
8.7068715e-21
9.5579047e-21
1.2547788e-20
1.3005267e-20
8.2153005e-21
9.4032028e-21
4.8767873e-20
5.2872392e-20
5.1073634e-20
4.6003251e-20
4.7795862e-20
5.1023092e-20
4.9915896e-20
4.6379978e-20
3.8222156e-20
3.9080538e-20
2.0110982e-20
1.9998076e-20
2.0616635e-20
4.1153172e-20
4.0017701e-20
1.9883903e-20
8.9419491e-21
1.2796059e-20
1.2579849e-20
8.5933926e-21
1.3809441e-20
1.0891033e-20
1.1584113e-20
1.4322744e-20
1.2302228e-20
1.2507177e-20
8.8171225e-21
8.5075265e-21
1.3294063e-20
1.0678908e-20
1.1308348e-20
1.3930723e-20
9.2864647e-21
1.295306e-20
1.2823653e-20
8.3386621e-21
1.1068834e-20
1.1358321e-20
1.4253705e-20
1.4049059e-20
1.8518984e-19
7.5132975e-20
7.5476858e-20
4.3098628e-20
3.2971646e-20
2.2664325e-19
7.5537307e-20
7.4235255e-20
2.6812238e-20
2.58463e-20
7.6576251e-20
3.4540591e-20
3.4057243e-20
2.6701184e-20
2.6458871e-20
7.6745947e-20
3.3864762e-20
3.4355208e-20
3.5195632e-20
3.211755e-20
1.8482633e-19
7.8638423e-20
7.8349995e-20
1.289668e-19
7.3893906e-20
7.6557422e-20
3.9573575e-20
3.8801221e-20
3.9035651e-20
3.8323061e-20
3.509726e-20
3.5289164e-20
5.2573621e-20
4.8945628e-20
5.0979978e-20
5.1124427e-20
3.505522e-20
3.4203151e-20
3.0904906e-20
9.4331826e-20
3.1859364e-20
9.8837438e-20
3.1809657e-20
3.0280178e-20
1.0276287e-19
9.8354904e-20
3.506839e-20
5.193489e-20
4.8646043e-20
3.4842198e-20
5.0038111e-20
5.018468e-20
3.4703005e-20
3.3880107e-20
3.0879678e-20
3.1976556e-20
1.0054156e-19
1.0371224e-19
3.1521822e-20
1.0425766e-19
2.9642182e-20
9.8186556e-20
3.8849181e-20
3.8562207e-20
3.946134e-20
3.8211092e-20
4.8570717e-20
5.1982115e-20
3.4729367e-20
3.4852052e-20
5.099029e-20
5.0740086e-20
3.4655777e-20
3.3589033e-20
3.1370484e-20
3.2322724e-20
1.0218609e-19
1.0401334e-19
3.0645448e-20
3.2219042e-20
1.0497893e-19
1.0039558e-19
5.0412876e-20
5.0031683e-20
3.3095391e-20
3.4520465e-20
3.2213719e-20
3.2588116e-20
1.0073353e-19
1.027973e-19
5.2237557e-20
4.9046142e-20
3.4895006e-20
3.4964482e-20
3.1746653e-20
2.9325126e-20
1.0403653e-19
9.3511601e-20
4.5096546e-20
4.8435267e-20
4.6113228e-20
4.9833037e-20
2.7947494e-20
2.8925673e-20
4.6234531e-20
5.0192619e-20
4.5368796e-20
5.080769e-20
2.8480628e-20
2.8348251e-20
3.6648964e-20
3.7560209e-20
1.9374498e-20
1.9262598e-20
1.977924e-20
3.9054679e-20
3.8100001e-20
1.9056277e-20
1.9873991e-20
3.8045882e-20
1.9844399e-20
3.7883149e-20
3.9022601e-20
3.7765274e-20
1.9605034e-20
1.8858153e-20
1.2358873e-20
1.07498e-20
1.1326056e-20
1.2946698e-20
1.3297774e-20
1.1531531e-20
1.1380956e-20
1.3495177e-20
1.1254804e-20
1.1479114e-20
8.1582076e-21
8.9475701e-21
1.149605e-20
1.1876102e-20
8.0791689e-21
9.3452102e-21
1.3204441e-20
1.1234551e-20
1.1742234e-20
1.3863496e-20
1.3937734e-20
1.1483916e-20
1.1127646e-20
1.366398e-20
1.1737606e-20
1.1796111e-20
8.6271045e-21
9.5345944e-21
1.1733852e-20
1.2212476e-20
8.1636573e-21
9.4710038e-21
4.817072e-20
5.2272718e-20
5.1164377e-20
4.5522488e-20
2.8930968e-20
2.8635774e-20
4.4893548e-20
4.8539436e-20
4.5293657e-20
4.9427871e-20
2.8205107e-20
2.9225455e-20
3.7241197e-20
3.7898061e-20
1.9594559e-20
1.9528352e-20
2.0027935e-20
3.9596466e-20
3.8493702e-20
1.9291783e-20
2.0084666e-20
3.853591e-20
1.999854e-20
3.8250116e-20
3.9325216e-20
3.8012109e-20
1.9819931e-20
1.9072701e-20
1.1708027e-20
1.1893593e-20
8.9978915e-21
8.3388661e-21
1.3057479e-20
1.0815199e-20
1.147665e-20
1.3576446e-20
1.2046497e-20
1.2395582e-20
9.4686116e-21
8.2740723e-21
1.1401782e-20
1.1565913e-20
1.3904929e-20
1.3856876e-20
1.2025815e-20
1.2099165e-20
9.3210822e-21
8.5480347e-21
1.1984233e-20
1.2391232e-20
9.299634e-21
8.0024381e-21
1.1671632e-20
1.1199315e-20
1.3549273e-20
1.4069205e-20
1.0802075e-20
1.1314723e-20
1.3996102e-20
1.3525341e-20
4.2762074e-20
3.9914649e-20
1.2589134e-20
1.3853823e-20
4.1788344e-20
4.2562303e-20
1.2380545e-20
1.2353917e-20
4.4874973e-20
4.2644496e-20
1.2511475e-20
1.386286e-20
3.9868389e-20
4.2417973e-20
1.2695087e-20
1.3006973e-20
4.455737e-20
4.8755353e-20
1.4136038e-20
1.5743472e-20
4.5075128e-20
4.638439e-20
1.4289919e-20
1.3835233e-20
4.9993898e-20
4.662403e-20
1.4311519e-20
1.5541963e-20
4.6295002e-20
4.8370482e-20
1.4461884e-20
1.4115012e-20
1.602501e-20
1.5079901e-20
1.7207551e-20
1.7008843e-20
1.9080941e-20
1.8141938e-20
1.8485506e-20
1.8954577e-20
1.8547172e-20
1.7803436e-20
1.8849137e-20
1.8998421e-20
1.8768363e-20
1.936222e-20
1.7830404e-20
1.8678499e-20
1.6939448e-20
1.6502535e-20
1.8450226e-20
1.8304125e-20
1.9379367e-20
1.9946512e-20
2.0330928e-20
1.9485304e-20
1.7375454e-20
1.7157875e-20
1.820467e-20
1.8068714e-20
1.7821795e-20
1.7406232e-20
1.664369e-20
1.7572175e-20
4.5496919e-20
4.3819485e-20
1.2516663e-20
1.3549733e-20
4.4433538e-20
4.5639979e-20
1.2783694e-20
1.2886673e-20
4.0595859e-20
3.6507429e-20
1.1370782e-20
1.2750157e-20
1.1977445e-20
4.0526061e-20
3.9964344e-20
1.1833308e-20
4.324924e-20
4.1084884e-20
1.4320534e-20
1.3522366e-20
4.3481914e-20
4.5710142e-20
1.2601745e-20
1.2562414e-20
4.7174512e-20
4.3417393e-20
1.2870958e-20
1.4036042e-20
4.5217874e-20
4.7192857e-20
1.3263501e-20
1.3264184e-20
1.7338707e-20
1.6985351e-20
1.5757236e-20
1.5716506e-20
1.6624242e-20
1.509723e-20
1.6237665e-20
1.4995516e-20
1.8780951e-20
1.527044e-20
1.8593419e-20
1.530782e-20
1.7811267e-20
1.452043e-20
1.7652451e-20
1.4561898e-20
1.3623946e-20
1.2644611e-20
1.3677754e-20
1.2784441e-20
1.280392e-20
1.1968894e-20
1.2928516e-20
1.2157323e-20
9.1654041e-21
9.2414387e-21
1.1247079e-20
1.1135361e-20
1.0836198e-20
9.7254611e-21
9.7449416e-21
1.1893205e-20
1.1952127e-20
1.1492217e-20
1.1761702e-20
1.3135115e-20
1.5485619e-20
1.4255857e-20
1.5903041e-20
1.4739814e-20
1.1266549e-20
1.1317872e-20
1.3732167e-20
1.3823599e-20
1.3877608e-20
1.1332099e-20
1.1500071e-20
1.3860916e-20
1.3874615e-20
1.4107247e-20
1.5429177e-20
1.4644906e-20
1.5621986e-20
1.4983705e-20
1.5905526e-20
1.5960674e-20
2.0026668e-20
1.8402636e-20
1.9792635e-20
1.8562145e-20
1.9532116e-20
1.7830212e-20
1.9488136e-20
1.7975976e-20
2.1546176e-20
1.79082e-20
2.1525395e-20
1.7972133e-20
2.2018238e-20
1.8011239e-20
2.2029571e-20
1.8316968e-20
1.2153941e-20
1.177753e-20
1.5854436e-20
1.5678405e-20
9.7373385e-21
9.8691968e-21
1.0317488e-20
1.208252e-20
1.8383299e-20
1.848027e-20
1.6532576e-20
1.6921024e-20
1.9742964e-20
2.011253e-20
1.6089757e-20
1.6513146e-20
1.4447637e-20
1.3224037e-20
1.4904547e-20
1.3744415e-20
1.0754669e-20
1.2727908e-20
9.8766431e-21
1.0090132e-20
1.0368353e-20
1.2274458e-20
1.2421325e-20
1.3585889e-20
1.2947605e-20
1.3929316e-20
1.3236343e-20
1.2833237e-20
1.3083378e-20
1.0905511e-20
1.0349884e-20
1.0860552e-20
1.307574e-20
1.2450271e-20
1.4271293e-20
1.3367708e-20
1.5131331e-20
1.4166091e-20
1.0481313e-20
1.2831428e-20
1.1768093e-20
1.8200664e-20
1.6760984e-20
1.8681869e-20
1.7466376e-20
2.015349e-20
1.6483231e-20
2.0798127e-20
1.71577e-20
1.8081902e-20
1.662477e-20
1.7872735e-20
1.6590968e-20
1.9901855e-20
1.6406417e-20
1.9813218e-20
1.6410557e-20
1.8499705e-20
1.5221233e-20
1.9054565e-20
1.4859066e-20
1.8714547e-20
1.880224e-20
1.7068839e-20
1.7059552e-20
1.5494975e-20
2.0913855e-20
1.6476759e-20
2.1421639e-20
1.6511237e-20
1.913792e-20
1.9272783e-20
1.7349275e-20
1.7436243e-20
1.8884732e-20
1.7142143e-20
1.8329275e-20
1.674475e-20
2.0782235e-20
2.1535317e-20
1.6172556e-20
1.6370635e-20
1.6352961e-20
2.0149549e-20
2.0585848e-20
1.6008854e-20
1.8612522e-20
1.4673813e-20
1.8484516e-20
1.4540481e-20
1.9544939e-20
1.9185936e-20
1.6799201e-20
1.6646607e-20
1.8930232e-20
1.9413588e-20
1.4693157e-20
1.5075959e-20
1.976534e-20
2.0175045e-20
1.7039529e-20
1.7576993e-20
1.9629008e-20
1.9797728e-20
1.6731872e-20
1.7043378e-20
1.8591667e-20
1.8946736e-20
1.4632697e-20
1.4889228e-20
2.1409247e-20
1.8441329e-20
2.0883761e-20
1.8241749e-20
2.1306004e-20
1.829111e-20
2.1127417e-20
1.8526442e-20
2.0342092e-20
1.6083281e-20
2.0492273e-20
1.6367797e-20
2.0241505e-20
1.6161912e-20
2.0066167e-20
1.6048975e-20
2.0336416e-20
1.8619736e-20
2.0289184e-20
1.8769179e-20
2.0362001e-20
1.8832255e-20
1.9872516e-20
1.8421782e-20
2.2761478e-20
1.8649442e-20
2.3223121e-20
1.8478273e-20
2.2916074e-20
1.7996433e-20
2.3435405e-20
1.8111801e-20
1.699841e-20
1.3414658e-20
1.6864098e-20
1.3326483e-20
1.7814181e-20
1.5244723e-20
1.7356766e-20
1.5079681e-20
1.8526424e-20
1.5892904e-20
1.8164099e-20
1.580953e-20
1.7542762e-20
1.3724469e-20
1.7428292e-20
1.3738059e-20
1.7521184e-20
1.7172296e-20
1.6264097e-20
1.5987676e-20
1.6748246e-20
1.7155191e-20
1.583761e-20
1.5493078e-20
1.9071851e-20
1.9475697e-20
1.543998e-20
1.5495654e-20
1.9733214e-20
1.5557002e-20
1.9859116e-20
1.5500556e-20
2.4540048e-21
2.5053674e-21
4.2637779e-21
2.6546602e-21
6.1869667e-21
5.46841e-21
5.2903151e-21
5.2666497e-21
4.8239386e-21
5.0840648e-21
6.222977e-21
4.7550938e-21
2.451406e-21
3.9044101e-21
2.6648844e-21
3.9740705e-21
6.4458285e-21
6.0653606e-21
6.2533506e-21
6.5872942e-21
6.7544437e-21
6.7615932e-21
6.3494237e-21
6.3662549e-21
5.7387615e-21
6.2118371e-21
5.5896456e-21
6.6385605e-21
6.5853132e-21
5.8358668e-21
6.5015712e-21
5.7664767e-21
5.3312375e-21
5.4319391e-21
5.2090499e-21
5.5882194e-21
5.3706802e-21
4.9193967e-21
5.0051692e-21
5.6990657e-21
5.6669719e-21
5.8967128e-21
5.557278e-21
6.0031549e-21
5.7397633e-21
5.1791578e-21
5.9140311e-21
5.2504638e-21
6.4204076e-21
6.2062402e-21
6.4944274e-21
6.3491882e-21
6.5439064e-21
7.7476764e-21
8.1489264e-21
6.4517682e-21
6.5366167e-21
6.6644327e-21
6.4943455e-21
6.6804955e-21
6.4961711e-21
8.20118e-21
8.2306809e-21
6.4633509e-21
6.9656694e-21
7.1428729e-21
7.0867939e-21
7.1505637e-21
6.8586778e-21
6.8363684e-21
8.7977319e-21
8.4464628e-21
7.1415085e-21
7.3136221e-21
7.163481e-21
7.3085446e-21
8.9883189e-21
6.916162e-21
8.8966803e-21
6.9763072e-21
6.3274993e-21
5.9650819e-21
6.1120996e-21
6.4334526e-21
6.3608633e-21
6.466561e-21
6.1022287e-21
6.0469348e-21
5.6434574e-21
6.1308818e-21
5.5255407e-21
6.5127534e-21
6.2849451e-21
5.6072652e-21
6.2652923e-21
5.5878434e-21
5.9413443e-21
6.1850518e-21
5.8297217e-21
6.3011348e-21
5.9408531e-21
5.3819723e-21
5.4432524e-21
6.2538534e-21
6.0413718e-21
6.3607087e-21
5.9448392e-21
6.4241057e-21
6.0764567e-21
5.4481845e-21
6.2202572e-21
5.480417e-21
6.7834491e-21
6.7725251e-21
6.9101087e-21
6.8615035e-21
6.6619459e-21
8.1901541e-21
6.7833545e-21
8.4669454e-21
6.7952221e-21
6.7989252e-21
6.8119516e-21
6.8723642e-21
8.3596666e-21
6.5657397e-21
8.3276578e-21
6.4652622e-21
6.9384258e-21
7.0486896e-21
6.9594447e-21
7.0848563e-21
7.0011347e-21
7.1577733e-21
6.9595044e-21
7.0918719e-21
6.6833691e-21
6.6234881e-21
8.2974159e-21
8.6142131e-21
8.6659499e-21
8.6277779e-21
6.7209316e-21
6.6767108e-21
7.1605251e-21
7.6460464e-21
6.9305041e-21
7.8537216e-21
6.9182859e-21
5.7238019e-21
5.8963175e-21
7.3205405e-21
7.569794e-21
8.0110615e-21
7.2634829e-21
8.3017062e-21
7.2721902e-21
5.9493245e-21
7.7198694e-21
6.147146e-21
9.4236574e-21
8.4409506e-21
8.5789246e-21
9.4307761e-21
9.8703803e-21
8.8674257e-21
9.0853678e-21
9.9892053e-21
8.4200632e-21
6.9263622e-21
7.0834303e-21
8.6630599e-21
8.880846e-21
7.2795315e-21
7.5017713e-21
9.171319e-21
9.7804106e-21
8.7114458e-21
8.9165857e-21
9.8276199e-21
9.8029303e-21
9.9836502e-21
8.9844093e-21
8.8955874e-21
8.7066685e-21
7.1221718e-21
7.3080761e-21
8.9862594e-21
8.9149311e-21
8.9555695e-21
7.316863e-21
7.3239649e-21
7.9195165e-21
7.1204083e-21
7.3321828e-21
8.1487678e-21
7.9683695e-21
8.0754445e-21
7.3537214e-21
7.2905959e-21
5.8615025e-21
6.0479119e-21
7.160627e-21
7.4329027e-21
7.3517314e-21
7.4152515e-21
6.0579869e-21
6.0378863e-21
6.3061586e-21
6.6633235e-21
6.0236074e-21
6.9196521e-21
5.9720423e-21
4.9961146e-21
5.1938453e-21
6.4157858e-21
7.7305397e-21
7.0683475e-21
7.496597e-21
6.7631435e-21
6.7277999e-21
5.4940839e-21
7.0343801e-21
5.7039711e-21
1.0118131e-20
9.0292554e-21
9.342199e-21
1.0290574e-20
1.0519425e-20
9.4149513e-21
9.6095592e-21
1.0542294e-20
7.613644e-21
8.9748776e-21
7.3502802e-21
9.4641169e-21
7.8628676e-21
9.451029e-21
7.7251148e-21
9.6698758e-21
7.7400225e-21
8.3348025e-21
7.4664395e-21
8.5685762e-21
7.372325e-21
6.0509367e-21
6.2860067e-21
7.7921639e-21
8.7025041e-21
9.3632938e-21
8.3420888e-21
9.6438226e-21
8.3017827e-21
6.802211e-21
8.7079192e-21
7.092508e-21
8.1171129e-21
7.3565907e-21
7.5801229e-21
8.3862513e-21
8.5030718e-21
7.7867531e-21
8.6860603e-21
7.8873637e-21
6.0438862e-21
6.2435324e-21
7.3863882e-21
7.6755335e-21
7.9627054e-21
7.8592964e-21
6.3981025e-21
6.4878184e-21
9.8825793e-21
1.0822339e-20
9.5173361e-21
1.1152067e-20
9.5797506e-21
7.8226803e-21
8.0761478e-21
1.0084863e-20
1.2560511e-20
1.118439e-20
1.2283661e-20
1.0727548e-20
1.0869021e-20
8.7769353e-21
1.1337141e-20
9.1704282e-21
1.7914935e-20
1.5133679e-20
1.543533e-20
1.8019892e-20
1.7980537e-20
1.8020048e-20
1.5328213e-20
1.5541987e-20
1.186725e-20
1.472154e-20
1.158662e-20
1.5107158e-20
1.5396579e-20
1.2188089e-20
1.5239109e-20
1.1947559e-20
1.3379873e-20
1.5026211e-20
1.2705163e-20
1.5681151e-20
1.2364857e-20
9.7762242e-21
1.0171704e-20
1.3080907e-20
1.507024e-20
1.7139856e-20
1.4387083e-20
1.7541151e-20
1.4206522e-20
1.1152179e-20
1.4857558e-20
1.1595099e-20
1.2954978e-20
1.1390262e-20
1.1625669e-20
1.3217239e-20
1.3289709e-20
1.177452e-20
1.3336684e-20
1.1922983e-20
9.4328285e-21
9.6775365e-21
1.1639893e-20
1.1932438e-20
1.2279149e-20
1.2150748e-20
9.8415679e-21
9.9991695e-21
2.6418136e-20
2.6790141e-20
2.13193e-20
2.2063211e-20
2.1828449e-20
1.6075777e-20
1.6642288e-20
2.1160459e-20
2.5004936e-20
2.5243717e-20
2.1478041e-20
2.1090549e-20
2.1534315e-20
2.1736352e-20
1.6319774e-20
1.6650582e-20
1.9088304e-20
2.2551165e-20
1.8155487e-20
2.317197e-20
1.7966679e-20
1.3789405e-20
1.4468766e-20
1.8917801e-20
2.1645026e-20
2.5055109e-20
2.0745956e-20
2.5723953e-20
2.1012133e-20
1.5737188e-20
2.2219741e-20
1.650141e-20
3.938012e-20
3.827846e-20
2.5850886e-20
2.6589185e-20
3.0576312e-20
3.1417628e-20
4.8026175e-20
4.6120083e-20
2.1072198e-20
7.9576452e-21
9.7520347e-21
9.2164673e-21
8.5628815e-21
2.3798906e-20
4.401576e-20
4.3360052e-20
2.9807403e-20
3.0478168e-20
3.0125797e-20
3.0455426e-20
4.6329491e-20
4.3839596e-20
8.7788602e-21
9.7316357e-21
9.618347e-21
8.5100508e-21
2.2758481e-20
2.4511798e-20
8.5658947e-21
9.1204847e-21
9.3030296e-21
8.8796986e-21
8.3682046e-21
9.0853597e-21
8.5605911e-21
8.2964795e-21
4.2062405e-20
4.1483882e-20
2.8328024e-20
2.9038976e-20
2.8372889e-20
2.818551e-20
4.3181127e-20
4.0637046e-20
7.8945302e-21
8.7807575e-21
8.7772483e-21
7.7363331e-21
2.1564125e-20
2.3503031e-20
3.9622811e-20
3.9350937e-20
2.6711095e-20
2.7505206e-20
2.9803926e-20
3.0283037e-20
4.5861346e-20
4.4023566e-20
7.5821581e-21
8.6555956e-21
9.0991516e-21
7.9999264e-21
2.3199159e-20
2.1520882e-20
2.3490165e-20
2.4089404e-20
1.9731561e-20
1.8996218e-20
1.9260659e-20
1.9963779e-20
1.4832461e-20
1.5374753e-20
2.0900983e-20
2.4708221e-20
2.0228162e-20
2.5123272e-20
1.586337e-20
2.0846619e-20
2.1368096e-20
1.6353842e-20