/*--------------------------------*- C++ -*----------------------------------*\
  =========                 |
  \\      /  F ield         | OpenFOAM: The Open Source CFD Toolbox
   \\    /   O peration     | Website:  https://openfoam.org
    \\  /    A nd           | Version:  7
     \\/     M anipulation  |
\*---------------------------------------------------------------------------*/
FoamFile
{
    version     2.0;
    format      ascii;
    class       surfaceScalarField;
    location    "3000";
    object      phi;
}
// * * * * * * * * * * * * * * * * * * * * * * * * * * * * * * * * * * * * * //

dimensions      [0 3 -1 0 0 0 0];

internalField   nonuniform List<scalar> 
102259
(
8.4075016e+15
-6.9212207e+16
-7.3803224e+16
-6.6093262e+16
6.9446256e+16
-6.8170375e+16
-6.8908465e+16
-6.4019087e+16
-6.3929235e+16
7.8052269e+16
-5.8213991e+16
-1.101118e+16
-1.6214515e+16
6.9035697e+15
1.316479e+16
-1.6073952e+16
-1.3669083e+16
-1.4916623e+16
-1.7395193e+16
-1.5823456e+16
6.6009331e+15
-1.3808407e+16
-1.4090411e+16
-1.6120824e+16
-1.6293876e+16
-3.2518629e+15
-5.6135134e+16
3.7057926e+15
3.7628559e+15
-7.3832589e+16
-6.5853993e+16
-6.9567113e+16
-6.3032623e+16
-5.453459e+16
3.3816291e+16
2.1430744e+16
-1.341117e+16
-1.5317542e+16
-3.3163895e+17
-1.5573385e+16
-1.4791998e+16
1.2349572e+16
1.1624665e+16
1.935723e+16
5.6332881e+15
5.8076039e+15
6.4859843e+15
-7.0072763e+16
-9.480977e+14
-4.3636835e+14
6.4375721e+15
6.5139212e+15
-7.129779e+16
5.456664e+15
-3.4508896e+14
-8.0088447e+14
4.5230574e+15
1.1425461e+16
-1.3482203e+16
-1.4758794e+16
-1.4982098e+16
-1.3838665e+16
1.1904124e+16
-1.3284262e+16
-1.1129734e+16
-1.2733788e+16
-1.1580487e+16
4.8077459e+15
1.4816577e+16
-1.3287578e+16
-1.4638145e+16
-1.5845564e+16
-1.4397985e+16
-7.2745292e+16
-6.6577186e+16
-6.2697488e+16
-6.8503357e+16
1.5412833e+16
-1.2569737e+16
-1.1142958e+16
-1.3856461e+16
-1.2442223e+16
-1.7363884e+16
9.3305193e+15
7.8499672e+15
-1.4191841e+16
-1.3856182e+16
-1.626564e+16
-1.6170736e+16
3.4317904e+15
-6.5609609e+14
-1.3427571e+16
1.0154986e+15
-1.5017132e+15
2.2343453e+15
2.0178482e+15
-2.7471672e+15
-2.9555319e+15
-3.5104742e+15
-3.7745973e+15
-3.3917089e+15
-2.2102915e+15
2.1395675e+15
-3.6850348e+15
-2.8096569e+15
-2.8422202e+15
-3.6189868e+15
-1.3320118e+15
-1.3597063e+16
-1.9091273e+15
-3.217709e+15
2.058608e+15
-2.7394572e+15
-3.5248219e+15
-2.9335299e+15
-3.7526571e+15
-3.1205999e+15
1.8967289e+15
-2.7351388e+15
-3.5456836e+15
-2.7772808e+15
-3.4764079e+15
1.0375229e+15
-1.2991337e+16
-1.3320088e+16
1.1037687e+15
-5.4321002e+16
-1.6110679e+16
7.2141118e+15
-1.5683034e+16
-1.3806222e+16
-1.4809727e+16
-1.6848423e+16
-5.3765774e+16
-1.5252875e+16
-1.4195081e+16
2.0672553e+16
1.9962715e+16
-3.4192109e+17
-1.5593131e+16
-1.5613208e+16
1.2280799e+16
1.2267318e+16
-5.3136476e+16
-4.2793801e+15
4.1392079e+15
4.5888403e+15
4.4286102e+15
-3.0701862e+15
-2.537654e+15
-3.8696127e+15
4.6466388e+15
3.5810279e+15
-3.1588311e+15
-3.6480252e+15
3.3254723e+15
-6.7424313e+16
5.2757965e+16
3.6812209e+15
-3.249141e+15
-3.516067e+15
3.2891604e+15
-6.7038861e+16
2.803187e+16
1.7338106e+16
1.5800208e+16
-1.0946878e+16
-1.2137326e+16
-1.465377e+16
1.2909263e+16
1.322581e+16
-1.5302962e+16
3.3472157e+15
4.2863602e+16
-5.5562524e+16
4.14147e+16
3.9078316e+15
-5.4547042e+16
-4.0493822e+15
4.1309986e+15
4.6612539e+15
-2.5853946e+15
-3.014543e+15
4.1605668e+15
1.1754211e+15
1.3620073e+15
1.2206799e+15
-1.5935739e+16
-2.020815e+14
-1.0802318e+14
1.3670984e+15
1.3505996e+15
1.3239241e+15
-1.630299e+16
-1.0392143e+14
-2.1574385e+14
-3.8454249e+15
6.2404047e+15
6.4730092e+15
-7.0107968e+16
-7.2117077e+14
-4.3833291e+14
6.5517427e+15
6.20455e+15
-7.0512125e+16
-4.6266056e+14
-6.8692783e+14
-1.0528621e+15
1.3689849e+15
1.3872266e+15
-1.6290688e+16
1.0856543e+15
-1.8341047e+14
-8.7563161e+13
1.4247008e+15
1.3016705e+15
-1.6518556e+16
-1.8646376e+14
-1.0506171e+14
-2.1762952e+15
-1.5702307e+15
2.6120401e+15
1.8222e+15
-1.4169913e+16
-1.2763102e+15
1.6462348e+15
-5.5635812e+15
-1.1741431e+16
2.171594e+15
-5.0512839e+15
-1.1643484e+16
2.4487924e+15
-1.3833332e+16
1.9612925e+15
6.9432704e+14
-3.0256224e+15
-2.5214808e+15
-2.5621526e+15
-3.0131216e+15
-7.1611033e+14
-2.2252839e+15
2.724068e+15
-2.1819051e+15
-2.4068037e+15
-2.022588e+15
-2.2424995e+15
2.3885295e+15
-3.1635511e+15
-2.9608181e+15
-2.664902e+15
-2.4758223e+15
-2.1902913e+15
-2.0877259e+15
-2.0005326e+15
1.0200367e+16
4.810372e+15
-1.3779954e+16
-1.5332923e+16
-1.5468966e+16
-1.4027725e+16
-2.1852788e+15
-1.2302361e+15
2.6604851e+15
1.690095e+15
-1.422264e+16
-9.584514e+14
-5.544453e+15
1.5264169e+15
-1.1846934e+16
2.2899088e+15
-5.3810672e+15
-1.2066621e+16
2.5842721e+15
-1.4100383e+16
4.7315419e+15
-1.5989419e+16
-1.4851395e+16
-1.3416032e+16
-1.4340415e+16
-1.0755848e+16
-1.2896493e+16
-1.4029312e+16
-1.1502745e+16
-1.2682491e+16
-1.3191527e+16
-1.3682378e+16
-1.1842297e+16
-1.2469828e+16
6.7924661e+14
-1.673445e+15
2.3773606e+15
-3.1699788e+15
-2.964542e+15
-2.4837184e+15
-2.6741717e+15
-1.9714029e+15
2.6871924e+15
-2.1977633e+15
-2.4320875e+15
-2.0387978e+15
-2.276504e+15
6.7689236e+14
-3.0534382e+15
-3.040372e+15
-2.5941024e+15
-2.5460825e+15
-2.2517277e+15
-2.3387284e+15
-2.0959624e+15
-2.1866787e+15
1.7185847e+15
-3.450183e+15
2.2653083e+15
-2.7834595e+15
-2.7999045e+15
-3.5116437e+15
-3.6126947e+15
-3.3244678e+15
1.8061179e+15
2.2248734e+15
-2.7457588e+15
-2.9197552e+15
-3.4755574e+15
-3.7030487e+15
-7.2476679e+14
9.3769318e+14
-1.3251292e+16
-1.3125637e+16
-2.1397192e+14
-7.1867394e+14
6.1415972e+14
3.1339094e+14
-5.6903251e+14
-6.0412703e+14
-8.0986911e+14
-7.590427e+14
-7.1652917e+14
-3.2304661e+14
6.0742252e+14
-5.8202309e+14
-5.8343694e+14
-7.7693214e+14
-7.9495795e+14
-1.2575769e+14
-2.9450264e+15
2.1062099e+14
-2.41851e+14
-2.9878063e+15
6.9739761e+14
-1.908578e+14
-3.0087246e+15
-2.9178071e+14
6.0111741e+14
-5.6751613e+14
-5.9963072e+14
-8.1050951e+14
-7.6698584e+14
-6.8190382e+14
-3.3457835e+14
5.7462755e+14
-5.724194e+14
-5.7420503e+14
-7.8491969e+14
-7.606015e+14
-2.6000243e+14
-2.9300751e+15
-6.8699952e+14
-2.4624674e+14
5.9057673e+14
-7.5810088e+14
-5.6285733e+14
-6.0008044e+14
-8.1032664e+14
-1.6885587e+14
-2.9523682e+15
-6.7221463e+14
-3.7068712e+14
5.7274137e+14
-5.7205049e+14
-5.7870435e+14
-7.7064964e+14
-7.8821084e+14
-2.9736577e+14
-2.9724374e+15
-6.572221e+14
-3.2108556e+14
5.6961669e+14
-5.5602937e+14
-5.9484618e+14
-7.5054378e+14
-7.9571491e+14
-2.1906992e+14
-2.919194e+15
-6.5139002e+14
5.4146835e+14
-7.6909892e+14
-5.6148638e+14
-5.6844955e+14
-7.4866606e+14
-2.853332e+15
3.2950806e+15
-4.5639166e+14
-1.3033926e+16
-1.1431613e+15
2.1520934e+15
-2.9392246e+15
-3.7263338e+15
-3.5190396e+15
-2.7778884e+15
-3.4150257e+15
2.1862464e+15
-2.8385081e+15
-2.8334438e+15
-3.581185e+15
-3.6648539e+15
-1.3309137e+16
3.1487342e+15
5.2455226e+16
3.3124548e+15
-3.534932e+15
-3.3945084e+15
3.538277e+15
-6.6131484e+16
5.2640486e+16
3.6061087e+15
-3.206704e+15
-3.6353935e+15
-6.7355286e+16
3.3564598e+15
-2.8810662e+15
4.3344145e+15
4.3513095e+15
-2.9700065e+15
-2.5693294e+15
-2.8033581e+15
4.5161172e+15
-2.8700052e+15
4.3212051e+15
1.6296308e+16
1.7256366e+16
-1.1325474e+16
-1.5571291e+16
1.2731516e+16
1.2782612e+16
-1.6001354e+16
-2.4367489e+15
4.1297541e+16
-5.4607428e+16
4.264249e+16
-5.556028e+16
2.8125166e+15
-7.8655937e+14
-1.2753652e+16
8.1667886e+14
-5.9393425e+14
-4.9607808e+14
1.0731687e+15
1.0385295e+15
-1.2868485e+16
-1.0858889e+15
-5.7602127e+14
-5.011311e+14
1.1305512e+15
1.0244715e+15
9.0751241e+14
-1.5877163e+16
-1.1771737e+15
8.8744743e+14
-7.0826183e+14
-7.6174969e+14
7.9071815e+14
-1.5587969e+16
9.7086096e+14
8.732087e+14
-7.802973e+14
-6.7446172e+14
8.1486684e+14
-1.1739943e+16
-8.5829855e+14
9.2701602e+14
6.7731612e+14
-8.7492387e+14
-7.7180755e+14
6.3370075e+14
-8.2208654e+14
9.0614777e+14
6.0080179e+14
6.5624099e+14
-7.8853616e+14
-8.9151632e+14
-1.4559825e+16
1.2048084e+16
-9.245769e+14
-8.6870694e+14
-8.0994309e+14
6.9716327e+14
-1.5214041e+16
6.0190949e+14
-1.0246608e+15
-8.5796186e+14
-7.974871e+14
7.0333231e+14
6.1487339e+14
-3.4082067e+15
-5.025052e+16
4.1239626e+15
3.1151032e+15
3.1864563e+15
-3.5523404e+15
-3.3006575e+15
-1.1850788e+16
-8.9297727e+14
1.5790956e+16
6.7564277e+14
-8.9461e+14
-7.9244611e+14
6.2078564e+14
-8.1630691e+14
-9.111554e+14
-8.12005e+14
5.806759e+14
6.4150326e+14
-1.4707217e+16
1.1843263e+16
-8.0566444e+14
6.9275431e+14
1.5557435e+16
7.0870159e+14
-7.8423664e+14
6.0723884e+14
-4.9698402e+16
3.2891486e+15
-3.2719068e+15
-3.6004122e+15
3.7861061e+15
-6.4366969e+16
-1.8453954e+15
3.5157842e+15
3.4407514e+15
-2.127252e+15
-1.5216608e+15
3.4538118e+15
4.1499183e+16
-2.7788435e+15
2.7277218e+15
2.481473e+15
-4.2270943e+16
2.7263796e+15
-1.2779824e+16
-9.23061e+14
1.0675147e+15
1.0159045e+15
-5.0421937e+14
-6.0393774e+14
-9.3539134e+14
8.5873083e+14
7.8995902e+14
-6.7546284e+14
-7.8927182e+14
1.2566244e+16
-7.5445566e+14
-6.946085e+14
8.7067976e+14
7.6314958e+14
-5.8139787e+14
-5.0552484e+14
1.090755e+15
9.7488187e+14
2.2018049e+14
2.9633655e+14
2.6882586e+14
-3.5095032e+15
-4.042303e+13
-2.4465948e+13
2.8119158e+14
2.8685605e+14
2.8220181e+14
-3.5852178e+15
-2.539424e+13
-4.6673637e+13
-2.2366448e+14
2.4172962e+14
2.9250558e+14
2.9310744e+14
-3.5924524e+15
-2.3033817e+13
-4.4481045e+13
2.746951e+14
3.016721e+14
-3.6349821e+15
-2.7356002e+13
-4.468306e+13
8.2132374e+14
-1.0438388e+15
1.3136415e+15
1.4106172e+15
-1.6258862e+16
-1.0980711e+14
-1.6338205e+14
1.357192e+15
1.3431241e+15
-1.5905793e+16
-1.0034959e+14
-1.8311369e+14
-9.1455003e+14
1.3264265e+15
1.3400784e+15
-1.6204609e+16
-1.1619644e+14
-1.8894023e+14
1.2952019e+15
1.4154355e+15
-1.6108836e+16
-1.519824e+14
-9.1279618e+13
1.8762943e+14
-2.3911236e+14
2.8517349e+14
3.0758239e+14
-3.6516872e+15
-2.3142694e+13
-3.7659394e+13
3.0177459e+14
2.9736683e+14
-3.6001982e+15
2.0891974e+14
-1.7307867e+13
-3.5514776e+13
1.9420635e+14
3.0345234e+14
2.7635221e+14
-3.5855175e+15
-3.9010999e+13
-2.429128e+13
2.9384868e+14
2.9576462e+14
-3.6805905e+15
-2.4137763e+13
-4.3577074e+13
-8.5938201e+15
-5.1201141e+14
-1.164282e+15
7.6271959e+15
-6.6593835e+16
-4.6316675e+14
-1.1304629e+15
-2.2054377e+15
-1.7357937e+15
1.1439904e+15
1.1849488e+15
1.5839724e+15
-1.4105386e+16
-7.8146936e+13
4.1942626e+13
-1.4096263e+15
1.6397684e+15
2.1909569e+15
1.201741e+15
1.081842e+15
-8.6941175e+13
4.544827e+13
5.490145e+14
-2.5011778e+14
3.294751e+14
-2.4522525e+15
-2.5451441e+14
2.9475661e+14
5.6872205e+14
-2.5814295e+15
-5.4313145e+14
-2.4066203e+15
-2.8700795e+14
3.218617e+13
-5.8188543e+14
3.961345e+14
-4.6576796e+14
-4.91379e+14
-3.7440178e+14
-4.0978285e+14
3.424549e+13
-5.7511023e+14
-4.1639155e+14
-4.7911352e+14
-4.761538e+14
-3.8545693e+14
-3.9583019e+14
-3.1648606e+14
4.2537074e+14
-3.5257659e+14
-3.8733348e+14
-4.0042377e+14
-3.6837529e+14
-4.5983161e+14
-3.7400029e+14
-3.8527724e+14
-3.6054046e+14
-3.723485e+14
1.9240575e+14
5.6688238e+14
-2.4493733e+15
5.5052846e+14
3.0597187e+14
-2.4399635e+15
1.9727947e+14
-2.5756524e+15
2.7563092e+14
-2.5855305e+15
3.3767757e+13
-4.6643258e+14
-4.8946191e+14
-3.7082804e+14
-4.0583616e+14
3.7282941e+14
-3.5275299e+14
-3.6415356e+14
-3.4500654e+14
-3.6173366e+14
-3.826943e+14
-3.9471556e+14
-2.1671134e+15
-1.3567889e+15
1.4297056e+15
2.6964206e+15
-1.4382175e+16
-1.0819407e+15
1.2910839e+15
-5.693388e+15
-1.201579e+16
2.2217109e+15
-5.3357744e+15
-1.1910425e+16
2.5900965e+15
-1.4062803e+16
-2.2353019e+15
-1.6350126e+15
1.1706917e+15
1.1882764e+15
1.5013049e+15
-1.4197539e+16
4.1868462e+13
-5.6924664e+13
-1.3444607e+15
1.576832e+15
-1.4826617e+16
2.2980628e+15
-1.5233657e+16
1.1152901e+15
1.2085234e+15
-1.4153695e+16
4.5926176e+13
-6.94035e+13
7.5242175e+14
2.2618177e+15
-5.4741117e+15
-1.2238461e+16
2.0756092e+15
-5.4707372e+15
-1.1920699e+16
-9.424257e+14
2.6005766e+15
-1.4266896e+16
2.639419e+15
-1.4230735e+16
-1.3290636e+15
6.4351012e+14
-2.5082333e+15
-2.9809017e+15
-3.1728857e+15
-2.6660358e+15
6.5352089e+14
-2.0582255e+15
-2.5765778e+15
-3.0699324e+15
-3.0695049e+15
-2.5982353e+15
-1.3899741e+15
-2.2160663e+15
-2.3897833e+15
-2.083711e+15
-2.2583671e+15
-2.251159e+15
-2.2896499e+15
-2.3362749e+15
-2.1581759e+15
-2.1974367e+15
-1.8529322e+15
6.7800383e+14
-2.5182968e+15
-2.999299e+15
-3.1819886e+15
-2.6788178e+15
6.4677142e+14
-2.5486042e+15
-3.0430256e+15
-3.0412218e+15
-2.5817724e+15
-2.111836e+15
-2.2367735e+15
-2.4356515e+15
-2.1072552e+15
-2.2990622e+15
-2.3452981e+15
-2.1480157e+15
-2.2677489e+15
-2.2213285e+15
1.6419845e+14
5.7380495e+14
-2.8977991e+14
-2.4475098e+15
5.5116824e+14
-2.4443953e+15
2.8116031e+14
-1.722841e+14
5.9059517e+14
2.5324326e+14
-2.6041035e+15
5.8965195e+14
-2.5775543e+14
-2.6045465e+15
-2.6954129e+14
2.2816572e+13
3.8478381e+14
-4.6562401e+14
-4.8897725e+14
-3.7776085e+14
-4.1286411e+14
1.9749556e+13
-3.8386221e+14
-4.8088439e+14
-4.7507013e+14
-3.9173794e+14
-4.0017103e+14
-2.8229701e+14
4.0144396e+14
-3.6926198e+14
-4.0152862e+14
-3.5720656e+14
-3.9297065e+14
-4.0694547e+14
-3.8384935e+14
-3.9279434e+14
-3.6985078e+14
-3.781885e+14
2.2784867e+14
5.5835157e+14
-2.4183761e+15
5.4993348e+14
-2.443713e+15
2.3242019e+14
5.7434904e+14
-2.5668887e+15
5.8920915e+14
-2.610693e+15
-3.2319737e+14
2.731699e+13
-4.6874626e+14
-4.9084824e+14
-3.7874079e+14
-4.1216468e+14
3.7183029e+13
-4.779945e+14
-4.713225e+14
-3.8577187e+14
-3.9353614e+14
-3.4879693e+14
-3.5735387e+14
-3.7391477e+14
-3.9112924e+14
-4.0327826e+14
-3.6325519e+14
-3.7372258e+14
-3.7534303e+14
-3.8597332e+14
-2.9338826e+14
-7.0931656e+14
3.2672206e+14
6.314324e+14
-5.68743e+14
-5.9968496e+14
-8.0611701e+14
-7.6436415e+14
-7.0959196e+14
6.1909985e+14
-5.7252077e+14
-7.8294081e+14
-5.7595923e+14
-7.5798864e+14
1.7636653e+14
-2.8917792e+15
2.3449507e+14
-2.9647043e+15
-2.1619327e+14
-6.8670884e+14
2.7606244e+14
6.0551658e+14
-5.6634532e+14
-6.0079069e+14
-7.5346257e+14
-8.0383688e+14
-7.0017444e+14
6.0470134e+14
-7.8772083e+14
-5.7598675e+14
-5.8048693e+14
-7.6955877e+14
-1.2547973e+14
2.0208734e+14
-2.9124474e+15
-2.9541294e+15
-3.2486244e+13
-1.5674565e+14
1.7065957e+14
5.2554655e+13
-1.2484336e+14
-1.1744004e+14
-1.7479566e+14
-1.8593559e+14
-1.5602788e+14
-5.0192773e+13
1.7159694e+14
-1.2029545e+14
-1.2033263e+14
-1.8304264e+14
-1.7831868e+14
2.1786133e+13
-4.121799e+13
-6.4469047e+14
-6.3578792e+14
3.9152582e+13
-4.7955669e+13
-1.5222929e+14
1.7222384e+14
-1.2449678e+14
-1.174436e+14
-1.762469e+14
-1.860673e+14
-1.5202161e+14
-5.4458079e+13
1.6790186e+14
-1.1876628e+14
-1.1847999e+14
-1.8064437e+14
-1.7492396e+14
3.3848944e+13
-4.4203136e+13
-6.3342599e+14
-6.4697387e+14
-3.8619082e+13
-1.5182134e+14
1.693279e+14
-1.2437933e+14
-1.1656784e+14
-1.7400587e+14
-1.859085e+14
-1.4995637e+14
-5.9079924e+13
1.6632615e+14
-1.1911827e+14
-1.1853656e+14
-1.8106111e+14
-1.7682359e+14
2.7170584e+13
-4.9367227e+13
-6.4442051e+14
-6.4007507e+14
-5.2006521e+13
-1.4913976e+14
1.6806509e+14
-1.7460917e+14
-1.1609449e+14
-1.23328e+14
-1.8438633e+14
-1.4870072e+14
-5.4100225e+13
1.6423894e+14
-1.1795324e+14
-1.1735111e+14
-1.788909e+14
-1.7345409e+14
-3.7871471e+13
-6.4210282e+14
-4.5053274e+13
-6.2576815e+14
1.5047821e+14
-2.6953154e+13
-6.3417352e+14
-3.6661946e+13
1.6642175e+14
-1.2305382e+14
-1.1613609e+14
-1.7313737e+14
-1.8391173e+14
-1.4831795e+14
-5.6740363e+13
1.6462893e+14
-1.2003294e+14
-1.1883874e+14
-1.804775e+14
-1.7696366e+14
-5.0174412e+13
-6.4231588e+14
-5.2765193e+13
-1.4556166e+14
1.6430603e+14
-1.1557593e+14
-1.730655e+14
-1.2253321e+14
-1.8359526e+14
-1.4372756e+14
-6.0008645e+13
1.5720882e+14
-1.7787956e+14
-1.1683875e+14
-1.1759409e+14
-1.7262957e+14
3.987367e+13
-5.1993996e+13
-6.2756171e+14
-6.4240112e+14
-4.3261326e+13
-1.4443522e+14
1.6163935e+14
-1.2182806e+14
-1.1445294e+14
-1.7109213e+14
-1.8260747e+14
-1.4309854e+14
-6.4140392e+13
1.5938929e+14
-1.7880772e+14
-1.1708324e+14
-1.1889896e+14
-1.7546771e+14
-3.1552987e+13
-6.285639e+14
-5.4567153e+13
-6.3359742e+14
1.4418446e+14
-4.0384231e+13
-6.3112966e+14
-5.5281056e+13
1.6128838e+14
-1.2105837e+14
-1.1379627e+14
-1.7139563e+14
-1.8119923e+14
-1.4443013e+14
-1.1717589e+14
-1.1590526e+14
-1.7676766e+14
-1.7165581e+14
-6.1684851e+14
-6.9543396e+14
1.5129923e+14
-2.5250137e+14
5.9593204e+14
-5.8443628e+14
-5.8393496e+14
-7.9478333e+14
-7.7536562e+14
1.0574015e+14
-2.0546234e+14
-2.9648535e+15
6.9671368e+14
-2.9552433e+15
5.9770086e+14
-5.7452843e+14
-6.0179595e+14
-7.6542767e+14
-8.1378763e+14
-2.4659056e+14
-6.90332e+14
6.0372853e+14
-7.7189418e+14
-5.7536451e+14
-6.0064823e+14
-8.099083e+14
-6.914069e+14
5.8440902e+14
-5.7636933e+14
-5.7350402e+14
-7.8763718e+14
-7.5946329e+14
1.6310296e+14
-2.9199661e+15
-2.9869281e+15
-1.1930387e+16
7.6464823e+14
1.5679295e+16
-8.4127445e+14
-7.9072339e+14
6.3222378e+14
7.2569014e+14
7.8190016e+14
5.9944004e+14
6.9902351e+14
-8.1316808e+14
-8.6412405e+14
-1.4962243e+16
1.1853291e+16
8.2196486e+14
6.4259094e+14
-9.0950981e+14
-8.1881352e+14
5.9141087e+14
-1.4793542e+16
8.774942e+14
1.5713044e+16
-8.9290754e+14
-7.9793823e+14
6.4508866e+14
6.1143526e+14
2.9790456e+15
-4.8239962e+16
3.0970337e+15
3.1980191e+15
-3.3093251e+15
-3.4360213e+15
-1.1786831e+16
-7.6741183e+14
1.5631695e+16
-8.6027274e+14
6.5811126e+14
-7.653435e+14
6.2625035e+14
-8.8468229e+14
1.200551e+16
-8.1456911e+14
7.0190886e+14
-1.5192058e+16
-8.8371714e+14
6.0415396e+14
3.1950183e+15
-3.5368415e+15
1.5797728e+16
-8.5121844e+14
6.2496743e+14
-8.0040043e+14
7.0097543e+14
-5.490086e+14
-1.2661328e+16
1.0551785e+15
-5.7941808e+14
1.0287891e+15
-1.273936e+16
-7.7770392e+14
-5.5736239e+14
-5.18191e+14
1.0315067e+15
1.10455e+15
7.7510218e+14
-9.2081185e+14
8.7878062e+14
-7.0868727e+14
8.072655e+14
-7.4328705e+14
-7.6519457e+14
8.3134226e+14
1.2682088e+16
-8.0320329e+14
-7.1238124e+14
-7.9364429e+14
7.8985665e+14
8.2615876e+14
-7.1639884e+14
-5.9237017e+14
-5.2044008e+14
1.0298765e+15
1.0152257e+15
1.2735455e+16
8.9060408e+14
-7.038297e+14
-7.4352503e+14
7.9824351e+14
-5.6214475e+14
-5.1013224e+14
1.1056864e+15
1.0146957e+15
-1.3386185e+15
3.503209e+15
3.3217421e+15
-1.6566774e+15
4.1548208e+16
-2.2775538e+15
-1.787977e+15
-4.2175724e+16
1.721257e+14
2.8498715e+15
-2.1164113e+14
-3.5439723e+15
-1.2848879e+14
-1.373092e+14
2.1196782e+14
1.9351254e+14
2.8410437e+15
-3.5144138e+15
1.9728114e+14
-1.209357e+14
2.1146229e+14
-1.3992298e+14
2.0153334e+14
-1.6377869e+14
1.86368e+14
-8.5859718e+13
2.4366884e+14
-1.0399811e+14
2.3761412e+14
-2.1243077e+14
-9.2046427e+13
2.4995537e+14
-1.034296e+14
2.3088678e+14
1.7161342e+14
2.8130991e+15
-3.4845924e+15
-2.1461814e+14
-1.2792419e+14
-1.3585605e+14
2.1124847e+14
1.9100893e+14
2.8672667e+15
-3.5483403e+15
-1.2452056e+14
2.0926203e+14
-1.4269995e+14
1.9787355e+14
-1.7277233e+14
-9.0611617e+13
2.4267124e+14
-1.0845679e+14
2.3396625e+14
-2.0557019e+14
-9.1019474e+13
-1.0191118e+14
2.4968886e+14
2.2809304e+14
-2.7113942e+15
-1.6652412e+14
1.9830296e+14
-1.4749839e+14
1.6988907e+14
-1.644067e+14
1.607388e+14
-1.6299531e+14
1.9415761e+14
-3.4185015e+15
-1.5623771e+14
-1.7341172e+14
1.5405659e+14
1.4327623e+14
2.6760365e+15
-3.3605368e+15
-2.137489e+14
-1.583773e+14
-1.6604654e+14
1.587135e+14
1.392149e+14
-2.071923e+14
-1.492095e+14
-1.5776044e+14
1.7455012e+14
1.5525053e+14
-2.6913565e+15
-1.6166225e+14
1.8427218e+14
-1.4434505e+14
1.712411e+14
-1.6228365e+14
1.6292926e+14
1.6122596e+14
2.711386e+15
-3.4307205e+15
-1.5988239e+14
-1.6722576e+14
1.5813843e+14
1.4093889e+14
-3.3656819e+15
1.830822e+14
-1.5291837e+14
1.5613548e+14
-1.7093589e+14
1.4572647e+14
-1.509393e+14
-1.6000821e+14
1.7374828e+14
1.5612054e+14
-2.6410218e+15
-1.596815e+14
1.8652695e+14
-1.648849e+14
1.4108141e+14
-1.8289256e+14
1.3250688e+14
1.8212554e+14
2.6822161e+15
-3.43603e+15
-2.2492357e+14
-1.7193348e+14
-1.8062833e+14
1.4646499e+14
1.2778519e+14
-3.3626876e+15
2.1255797e+14
-1.6597851e+14
1.4133682e+14
-1.8580932e+14
1.298772e+14
-2.0046349e+14
-1.7050467e+14
-1.7875356e+14
1.4591492e+14
1.2932173e+14
1.8456708e+14
-2.6779727e+15
-2.4092495e+14
-1.7804105e+14
1.4364817e+14
-1.9011157e+14
1.2360707e+14
-2.6393939e+15
2.2150159e+14
-1.7245988e+14
1.3642733e+14
-1.9367673e+14
1.2572235e+14
-1.8729484e+14
2.2557253e+14
1.269273e+14
1.1181657e+14
-1.9041238e+14
-3.3001575e+15
-2.1438164e+14
-2.3851042e+14
1.3289033e+14
1.0964998e+14
-3.3565808e+15
-2.0856114e+14
-1.9567179e+14
-6.8420971e+14
-1.1047372e+16
7.9534914e+14
6.2606105e+14
5.6573927e+14
-7.7341985e+14
-9.2686859e+14
1.8522648e+14
2.6574026e+15
-2.2105334e+14
1.3505059e+14
1.1038332e+14
-3.3359016e+15
-2.0633769e+14
-1.9347722e+14
2.6857419e+15
1.2883413e+14
1.1257478e+14
-3.3827211e+15
-2.150608e+14
-1.9259588e+14
-1.8833342e+14
3.4358467e+15
-1.7402527e+14
1.370705e+14
-1.9444525e+14
1.2586709e+14
-1.1471295e+16
-7.3696571e+14
5.7951346e+14
6.6170787e+14
-8.4353181e+14
-9.0122264e+14
3.3843981e+15
-2.1917286e+14
-1.7533455e+14
1.4421602e+14
-1.8646553e+14
1.2333773e+14
1.7184201e+14
2.6404515e+15
-2.0961954e+14
-1.7002393e+14
1.456686e+14
-1.7801616e+14
1.2613393e+14
2.6702298e+15
-1.6807862e+14
1.4052236e+14
-1.8650891e+14
1.291135e+14
-1.6518308e+14
-1.6664814e+14
1.3970361e+14
-1.8389751e+14
1.3062236e+14
-1.9875019e+14
-1.6827085e+14
1.4623375e+14
-1.7685821e+14
1.2725069e+14
6.4385136e+14
-6.8444245e+14
-1.4595681e+16
-8.8687285e+14
-8.0542462e+14
7.0275712e+14
6.0217833e+14
-1.4131074e+16
9.589585e+14
6.2911943e+14
-8.2168874e+14
-9.1934102e+14
5.7984882e+14
-2.639688e+15
-1.7113109e+14
3.3642406e+15
-1.6410089e+14
1.4100072e+14
-1.839763e+14
1.3054788e+14
1.8239275e+14
2.664978e+15
-3.4218616e+15
-2.3602198e+14
-1.7100335e+14
-1.8184831e+14
1.4460829e+14
1.2414689e+14
-3.372919e+15
-1.6613283e+14
1.3950614e+14
-1.8699913e+14
1.2718412e+14
-2.1992323e+14
3.4103263e+15
-1.685781e+14
-1.7931149e+14
1.4550746e+14
1.2661205e+14
1.8311493e+14
2.6739096e+15
-2.4223024e+14
1.3160805e+14
1.0704227e+14
-3.3590125e+15
-2.1032975e+14
-1.9525723e+14
2.6532258e+15
1.2597805e+14
1.0987411e+14
-3.3310017e+15
-2.166508e+14
-1.9136867e+14
1.856949e+14
-2.4494534e+14
-1.7755872e+14
1.4096879e+14
-1.9118254e+14
1.1974721e+14
-1.7300007e+14
1.3400228e+14
-1.954065e+14
1.2273641e+14
-1.0852811e+16
5.4864145e+14
6.0888489e+14
-8.1550243e+14
-9.5133081e+14
2.669669e+15
1.2956441e+14
1.1160391e+14
-2.1460651e+14
-1.9001203e+14
3.4141835e+15
-1.7168097e+14
1.3815244e+14
-1.9359305e+14
1.2457923e+14
-2.6564286e+15
-1.7930858e+14
3.3996693e+15
-1.6369592e+14
1.4204981e+14
-1.8327117e+14
1.2976411e+14
-1.6518274e+14
1.4212181e+14
-1.8573743e+14
1.2801453e+14
3.3276644e+15
-1.6542631e+14
1.4624505e+14
-1.7647194e+14
1.2545306e+14
-1.3642194e+16
6.3962945e+14
-8.4513566e+14
-9.4550624e+14
5.4322317e+14
4.1137724e+15
4.1926716e+15
-1.9567633e+15
-2.125463e+15
1.0679921e+16
-7.2505536e+14
7.9958707e+14
-1.3328403e+16
-4.1475893e+14
8.3754165e+14
8.0915929e+14
-5.0338538e+14
-7.0240148e+14
1.0833217e+15
-8.2607293e+14
-7.4398832e+14
6.3188957e+14
6.2188329e+14
-1.0956927e+16
-7.7307705e+14
7.5125227e+14
-7.4940844e+14
-7.9362574e+14
6.6445565e+14
-8.1367571e+14
-1.3769097e+16
8.7913374e+14
-4.3186021e+14
8.0565954e+14
-4.7939335e+14
9.9814805e+15
7.8630279e+14
-3.8748769e+14
7.6849739e+14
6.1758235e+14
-7.7944614e+14
-8.3821906e+14
5.93579e+14
-1.8419242e+14
-2.8202447e+15
-8.8673781e+13
2.4009795e+14
-1.0858282e+14
2.3108811e+14
-2.8370331e+15
-2.4139552e+14
-9.2648025e+13
-1.0624342e+14
2.4835947e+14
2.2569102e+14
-1.8692117e+14
-3.4889445e+15
-1.2275708e+14
2.0704404e+14
-1.4304658e+14
1.9554355e+14
-3.5231399e+15
-2.3818721e+14
-1.2824562e+14
2.1095263e+14
-1.3896614e+14
1.8969468e+14
-1.7202835e+14
-2.6803566e+15
-1.4516827e+14
-1.6447567e+14
1.6696019e+14
1.5766303e+14
-2.6966046e+15
-2.2154229e+14
-1.5048374e+14
-1.6162812e+14
1.7239565e+14
1.5265433e+14
-1.7709374e+14
-1.5241579e+14
1.541337e+14
-1.7235428e+14
1.4240263e+14
-2.1945615e+14
-1.5888556e+14
-1.6846346e+14
1.5668588e+14
1.3747571e+14
1.7667156e+14
2.6437456e+15
-1.5586699e+14
-1.6524128e+14
1.5787829e+14
1.3664574e+14
2.6902484e+15
-1.5294099e+14
-1.7249129e+14
1.5563945e+14
1.4182094e+14
-1.8100205e+14
3.5045668e+15
-1.446504e+14
-1.6407993e+14
1.680944e+14
1.5645749e+14
3.4328027e+15
-1.4676976e+14
-1.5774449e+14
1.7307004e+14
1.5159746e+14
1.8506534e+14
2.7693866e+15
-1.2511034e+14
2.0939784e+14
-1.3552822e+14
1.8719477e+14
2.8123313e+15
-1.2237311e+14
2.0612154e+14
-1.4269005e+14
1.9253066e+14
-1.9107806e+14
-8.8111795e+13
2.3772561e+14
-1.0840536e+14
2.2634287e+14
-8.8999863e+13
2.4563036e+14
-1.0232937e+14
2.2216075e+14
3.7881952e+13
6.3869205e+13
5.8161241e+13
-7.4693022e+14
-1.0828609e+13
-1.3447469e+13
4.969431e+13
6.1437345e+13
6.1288377e+13
-7.6435597e+14
-1.0980457e+13
-1.4797154e+13
-4.0336493e+13
4.7204865e+13
6.0998712e+13
6.1892747e+13
-7.5790539e+14
-1.088417e+13
-1.4928294e+13
6.3596515e+13
5.8921959e+13
-7.6679587e+14
-1.1946559e+13
-1.4689217e+13
-3.7690029e+13
4.2207419e+13
6.2856058e+13
6.335685e+13
-7.6351001e+14
-1.028336e+13
-1.4144143e+13
-4.7183671e+13
6.4524947e+13
6.0173243e+13
-7.7578896e+14
-1.1794272e+13
-1.4418143e+13
-3.8121774e+13
6.1684443e+13
6.2466463e+13
-7.7617084e+14
-1.1554365e+13
-1.5244654e+13
6.3959641e+13
5.802984e+13
-7.5938733e+14
-1.1494085e+13
-1.4269694e+13
-1.6528916e+14
2.0151361e+14
2.9434501e+14
2.9273548e+14
-3.651241e+15
-2.6111436e+13
-4.2687569e+13
-1.9091636e+14
3.0341939e+14
2.7949795e+14
-3.5808281e+15
-2.4559731e+13
-3.5250263e+13
-1.7026313e+14
2.9381119e+14
2.9938308e+14
-3.5946416e+15
-2.2512444e+13
-3.9482633e+13
3.0089348e+14
2.8144676e+14
-3.6327551e+15
-2.7863183e+13
-3.843858e+13
-1.8213825e+14
2.8711004e+14
2.9293842e+14
-3.5534012e+15
-2.4077527e+13
-3.9991438e+13
-2.2549873e+14
3.0248178e+14
2.8149241e+14
-3.6220963e+15
-2.501482e+13
-3.6571995e+13
1.8016604e+14
3.0771707e+14
2.8259896e+14
-3.5551737e+15
-1.9174897e+13
-3.0975095e+13
2.9601457e+14
2.9638584e+14
-3.6349976e+15
-2.0870006e+13
-3.7849241e+13
-3.3423101e+13
4.0408359e+13
6.4024389e+13
6.4735132e+13
-7.8079909e+14
-1.098373e+13
-1.4078399e+13
-4.1084489e+13
6.5781058e+13
6.0352685e+13
-7.6551305e+14
-1.0910411e+13
-1.3134169e+13
-3.3576398e+13
6.4454725e+13
6.5662972e+13
-7.6545002e+14
3.7750759e+13
-9.3554299e+12
-1.2582271e+13
6.7178281e+13
6.2009748e+13
-7.7889303e+14
-1.0791936e+13
-1.2876294e+13
3.5059762e+13
6.5011883e+13
5.9340392e+13
-7.5784846e+14
-1.0903544e+13
-1.3231668e+13
4.4043362e+13
6.340643e+13
6.3574145e+13
-7.7695422e+14
-1.4403059e+13
-1.1000883e+13
-3.6299232e+13
6.2551922e+13
6.4566773e+13
-7.7135862e+14
-1.0660378e+13
-1.4097685e+13
6.514554e+13
6.0217206e+13
-7.7985977e+14
-1.4055026e+13
-1.1701341e+13
6.9371515e+15
-5.5864717e+14
-1.0557506e+15
-6.6727549e+16
-1.1566883e+15
-6.6452323e+14
-6.7320979e+16
4.7953655e+15
4.5239148e+15
6.7624369e+15
-6.6641595e+16
-1.9054607e+15
-2.3109173e+15
1.3367265e+15
1.1279223e+15
1.2270861e+15
-1.4340748e+16
-2.1920571e+14
-3.3092702e+14
2.3311934e+14
-3.0318715e+14
7.0053961e+14
-3.1579913e+15
6.9788684e+14
2.9222581e+14
-3.1550138e+15
2.5095084e+14
6.8470188e+14
-3.1437421e+15
3.1253059e+14
2.4487594e+14
2.3719343e+14
-7.1784933e+14
-6.9083076e+14
-5.2637954e+14
-5.3919069e+14
6.5635799e+13
4.9984555e+13
-1.7198928e+13
1.3934391e+14
-2.452749e+14
3.2747252e+13
-3.7538512e+14
1.4088867e+14
-3.383512e+13
-2.4102503e+14
-3.7460628e+14
-4.3772575e+13
6.7052193e+13
6.2531736e+13
-6.3943754e+13
-9.1647693e+13
-6.8430576e+13
-9.6846943e+13
-6.2125838e+13
6.7742755e+13
-9.4301427e+13
-9.2429084e+13
-6.5380836e+13
-6.6172152e+13
-2.6534645e+13
1.3834318e+14
-2.4891566e+14
-3.7584138e+14
1.3903064e+14
-2.3338155e+14
-3.6940149e+13
-3.7139723e+14
-5.4500372e+13
6.5752643e+13
-6.3838939e+13
-9.1584934e+13
-6.8474703e+13
-9.6593139e+13
7.2458419e+13
-6.627126e+13
-9.4283155e+13
-9.2174689e+13
-6.5046148e+13
-6.5982867e+13
-4.7598805e+13
-7.4724853e+13
6.6563541e+13
-4.8453232e+13
-6.1280874e+13
-6.6038577e+13
-5.3991362e+13
-7.3282798e+13
-6.7826107e+13
-6.3316669e+13
-6.195745e+13
-5.1297526e+13
-4.9508809e+13
3.4741753e+13
-5.4308298e+13
-5.0903377e+13
-9.3537047e+13
-9.4388849e+13
-5.0681669e+13
5.0295513e+13
-9.2292814e+13
-5.0382216e+13
-5.2092888e+13
-9.7464111e+13
-4.8941999e+13
7.5419609e+13
-4.8667884e+13
-5.2919669e+13
-9.8006961e+13
-9.088551e+13
6.5429093e+13
-5.6114334e+13
-9.2483326e+13
-5.1015629e+13
-5.043517e+13
-9.2390853e+13
-5.8900393e+13
-6.5968744e+13
-6.0876153e+13
-5.3717663e+13
-4.7731251e+13
-7.0240827e+13
-6.3078319e+13
-6.1537933e+13
-5.0353457e+13
-4.8150714e+13
3.1319547e+14
6.5469137e+13
5.2059894e+13
-7.0563081e+14
-7.0400924e+14
-5.2745579e+14
-5.3850769e+14
3.0717933e+14
6.6397794e+13
5.1918101e+13
-7.2032549e+14
-6.9373337e+14
-5.3024767e+14
-5.4193649e+14
-2.1035265e+13
1.3704161e+14
-3.7450301e+14
1.3743361e+14
-3.7127198e+14
-4.7811776e+13
6.6799395e+13
-9.6492781e+13
-9.1139911e+13
-6.3284928e+13
-6.8127552e+13
6.7094389e+13
-6.4522955e+13
-9.3338629e+13
-9.1730529e+13
-6.5604334e+13
-7.6041753e+13
7.5020805e+13
-4.7423367e+13
-6.0253892e+13
-6.5270513e+13
-5.3360328e+13
6.1724876e+13
-9.0726928e+13
-5.0351472e+13
-5.2640888e+13
-9.6041291e+13
-7.1333672e+13
-5.2365685e+13
-6.530823e+13
-6.020904e+13
-4.6373677e+13
-5.2857488e+13
-4.1262629e+13
-8.9441785e+13
-4.8406129e+13
-5.2053085e+13
-9.6378562e+13
-7.0238815e+13
-4.8566103e+13
-6.1283326e+13
-6.2730833e+13
-5.0125599e+13
-5.0161552e+13
-5.0909244e+13
-9.2253071e+13
-9.1778921e+13
-2.204658e+15
-1.550612e+15
1.3187951e+15
1.1888904e+15
1.170228e+15
-1.4273501e+16
-6.4265907e+13
3.2950404e+13
-1.2430983e+15
1.3632105e+15
-1.4899206e+16
2.254893e+15
-1.4887334e+16
1.2019239e+15
1.1150886e+15
-1.4141342e+16
3.4202254e+13
-6.7089674e+13
-1.51113e+15
-1.4406175e+15
1.3492583e+15
1.1413655e+15
1.240317e+15
-1.4455359e+16
-2.0253142e+14
-3.1884037e+14
-2.160029e+14
7.1247601e+14
2.7255174e+14
-3.171551e+15
-2.8368227e+14
7.2439647e+14
-3.1611511e+15
-1.1093651e+15
-1.1730966e+16
1.2979496e+15
1.6273595e+15
-1.2089514e+16
1.1280151e+15
1.2286269e+15
-1.4438887e+16
-2.1984484e+14
-3.2813624e+14
-2.3611931e+14
7.0307216e+14
-3.1484216e+15
7.1008012e+14
-3.141753e+15
1.1491909e+15
2.2802647e+15
-1.5461393e+16
2.128225e+15
-1.4886767e+16
-1.3609829e+15
1.1622888e+15
1.1652995e+15
-1.4263239e+16
-6.1867313e+13
1.5634899e+13
1.2003396e+15
1.1298912e+15
-1.4291061e+16