/*--------------------------------*- C++ -*----------------------------------*\
  =========                 |
  \\      /  F ield         | OpenFOAM: The Open Source CFD Toolbox
   \\    /   O peration     | Website:  https://openfoam.org
    \\  /    A nd           | Version:  7
     \\/     M anipulation  |
\*---------------------------------------------------------------------------*/
FoamFile
{
    version     2.0;
    format      ascii;
    class       volScalarField;
    location    "5000";
    object      k;
}
// * * * * * * * * * * * * * * * * * * * * * * * * * * * * * * * * * * * * * //

dimensions      [0 2 -2 0 0 0 0];

internalField   nonuniform List<scalar> 
33733
(
1.5215022
1.526797
1.5260841
1.5241137
1.5238237
1.5211938
1.5246563
1.5244354
1.5245886
1.5248502
1.5268098
1.5265039
1.5264155
1.5268731
1.5268976
1.5270382
1.5260316
1.5270651
1.5268585
1.526921
1.5268979
1.5251347
1.5248404
1.5252839
1.5250186
1.5252981
1.5245206
1.5243833
1.5252696
1.5252586
1.5252211
1.525109
1.5250121
1.5236879
1.5233751
1.523333
1.523641
1.5248548
1.5249367
1.5250278
1.5248549
1.5249618
1.5252162
1.5254815
1.5265202
1.526643
1.5269562
1.5269042
1.5256549
1.5255771
1.5259426
1.5266782
1.5268413
1.5270554
1.5269919
1.527041
1.5273574
1.5273551
1.5270687
1.5270404
1.5270816
1.5270263
1.5270629
1.527009
1.5269501
1.5269353
1.5269962
1.5263701
1.5263715
1.5262825
1.5263131
1.5262764
1.526336
1.526545
1.5255155
1.5251656
1.5254327
1.5251095
1.5255199
1.5255468
1.5251894
1.5251677
1.5252471
1.525238
1.525288
1.5252017
1.5251029
1.5252466
1.525377
1.5252149
1.5254275
1.5251965
1.525488
1.5255095
1.5252029
1.5251821
1.5207417
1.5203256
1.5202251
1.520412
1.5209182
1.5200455
1.5202404
1.5236303
1.5237169
1.5236047
1.523698
1.5231485
1.5234501
1.523133
1.5234457
1.523427
1.5231663
1.5231873
1.5234287
1.5234243
1.523586
1.5235648
1.5236515
1.5236525
1.5236706
1.523443
1.5235911
1.524813
1.5247725
1.5248606
1.524898
1.5249889
1.5250284
1.5250707
1.5251774
1.524958
1.5249287
1.5256415
1.5255626
1.5224691
1.5257379
1.5258999
1.5261467
1.5260183
1.5231464
1.5230567
1.5239063
1.5252917
1.5253433
1.5260515
1.5263236
1.5268798
1.5271102
1.5271127
1.527081
1.5263275
1.5265286
1.5271586
1.5273822
1.5271916
1.5271138
1.5271495
1.5271372
1.5270988
1.5266319
1.5267078
1.5266657
1.5266108
1.5267619
1.5268206
1.5267554
1.526833
1.5267136
1.5267267
1.5266386
1.52672
1.5268389
1.5267946
1.5267943
1.5267663
1.5265714
1.526507
1.526496
1.5265292
1.5264161
1.5264514
1.5264026
1.5263843
1.5263669
1.5263714
1.5266076
1.5266101
1.5264795
1.5266686
1.5265307
1.5266712
1.525401
1.5254471
1.5252632
1.5251265
1.5251928
1.5254802
1.5253928
1.5253401
1.525156
1.525338
1.5256099
1.5257312
1.5257155
1.5252925
1.5254867
1.5258411
1.5260977
1.5260441
1.5259578
1.5259566
1.5261263
1.5254675
1.5254246
1.5250986
1.5251249
1.5250447
1.5253298
1.525371
1.5250709
1.5255685
1.5255187
1.5251798
1.5251526
1.5256375
1.5252223
1.5252007
1.5256016
1.5235789
1.5235991
1.525209
1.5252703
1.5253203
1.5252262
1.5252131
1.5253795
1.5254493
1.5252124
1.5252128
1.525517
1.5255597
1.5252287
1.5252227
1.5256041
1.5256165
1.5252363
1.5252378
1.5256385
1.5256437
1.5252398
1.5252312
1.5201696
1.5199872
1.5200636
1.5202522
1.5211042
1.5210816
1.5211216
1.5211478
1.5207828
1.5210027
1.5208127
1.5210295
1.5211569
1.5211442
1.5211845
1.5203405
1.5213555
1.5212198
1.5204995
1.5203057
1.5201401
1.5199458
1.5198793
1.5199311
1.5201448
1.5200069
1.5202929
1.5200898
1.5200123
1.5201576
1.5202358
1.5193297
1.5192142
1.5236139
1.5236006
1.523634
1.5236204
1.5237155
1.5236591
1.5236745
1.5237316
1.5236562
1.5236427
1.5236348
1.523647
1.5237501
1.5236956
1.5236915
1.5237416
1.5233449
1.5230989
1.523316
1.5231072
1.5233901
1.5235024
1.5235146
1.5235432
1.5235298
1.5231273
1.5234147
1.5231189
1.5233854
1.5235599
1.5235457
1.5235359
1.5235483
1.5233244
1.5232574
1.5234356
1.5234384
1.523392
1.523139
1.5231342
1.5233891
1.5231787
1.5233674
1.5231523
1.5233609
1.5234644
1.5234824
1.523476
1.5234949
1.5235278
1.5235124
1.5235409
1.523527
1.5236318
1.5236184
1.5236456
1.5236332
1.5235826
1.5235713
1.5235914
1.5236031
1.5235785
1.5236829
1.5236268
1.5236495
1.5237042
1.5236447
1.523632
1.5235863
1.5237297
1.5236719
1.5237403
1.5236891
1.5234484
1.5245917
1.5245765
1.5245249
1.5245214
1.5246526
1.5246776
1.5247344
1.524768
1.524923
1.5249401
1.5250722
1.524967
1.5249965
1.5251392
1.5248913
1.524864
1.524833
1.5248131
1.5257067
1.5255249
1.5256951
1.5257798
1.5220672
1.5222899
1.5227684
1.5230442
1.5231784
1.5231334
1.523293
1.5254736
1.5238555
1.5255432
1.5238671
1.5253682
1.5253653
1.5239058
1.5239943
1.5238735
1.5240147
1.5240268
1.5239989
1.5246608
1.5246237
1.5246097
1.5246936
1.5232941
1.5235291
1.5265034
1.5269137
1.5269172
1.5267218
1.5238739
1.5258603
1.5257012
1.5239
1.5260713
1.526244
1.5238171
1.5237845
1.5238666
1.5269121
1.5269091
1.5268777
1.5268605
1.5268924
1.5268787
1.5268764
1.5268852
1.5268552
1.5268681
1.5258419
1.5258167
1.5258079
1.5258406
1.5257369
1.5257647
1.5257231
1.5256906
1.5258675
1.5261737
1.5259874
1.5258587
1.5258702
1.5259887
1.526045
1.5263965
1.5260794
1.5263952
1.5257439
1.5256724
1.5257146
1.5257434
1.5259548
1.5259632
1.5263385
1.5263449
1.5263818
1.5264975
1.5264524
1.5263478
1.5261319
1.5262806
1.5262298
1.5261103
1.5263165
1.5262609
1.5264364
1.5264292
1.5261949
1.52615
1.5264253
1.5264076
1.5256282
1.5254304
1.5256112
1.525474
1.5256638
1.525581
1.5256936
1.5255971
1.5255512
1.5255354
1.5253207
1.525339
1.5254652
1.5254737
1.5252095
1.5252268
1.5251452
1.525217
1.5256423
1.5255173
1.5252019
1.5252561
1.5255792
1.5254829
1.5260759
1.5259754
1.5260351
1.5260264
1.5260151
1.5259181
1.5261097
1.5261174
1.5253649
1.5255086
1.5253178
1.5255664
1.5258635
1.5262119
1.526196
1.5259636
1.5255122
1.5254995
1.5255696
1.5256194
1.5259289
1.5258736
1.5262748
1.5262733
1.5246844
1.5245606
1.5244737
1.5245717
1.5245185
1.5244103
1.5242421
1.5248852
1.5246715
1.5245323
1.5245961
1.5247496
1.5245765
1.5246836
1.5248487
1.5247414
1.5245781
1.524284
1.5246163
1.5247627
1.5249392
1.5247626
1.5247951
1.5245896
1.5251468
1.5252711
1.525506
1.52545
1.5255888
1.5254087
1.5255272
1.5252901
1.5254222
1.525501
1.5256482
1.5256072
1.5249674
1.5247639
1.5248797
1.5250608
1.5250894
1.5248848
1.5250307
1.5252042
1.5256026
1.5255131
1.5256693
1.5257272
1.5259239
1.5259632
1.5259384
1.5259037
1.5258219
1.5258712
1.5258648
1.5258296
1.5256349
1.5256594
1.5248276
1.5248138
1.5252681
1.5256812
1.5247659
1.5256136
1.5259124
1.5259269
1.5258547
1.525868
1.5247145
1.5246374
1.5245095
1.5245723
1.5241484
1.5241846
1.5247618
1.5248855
1.524814
1.5250089
1.5249527
1.5191712
1.5235988
1.5236431
1.5251786
1.5252501
1.5253116
1.5252119
1.5252041
1.5251324
1.5251446
1.5251634
1.5251832
1.5251675
1.5251172
1.5250774
1.5250962
1.5198806
1.5208872
1.520698
1.5206934
1.5208817
1.5206127
1.5206244
1.520778
1.5207735
1.5208409
1.5208277
1.5208321
1.5208442
1.5209549
1.5209499
1.520965
1.5209725
1.5224501
1.5225194
1.5222828
1.5222128
1.5224413
1.5224491
1.5222157
1.5222095
1.5227424
1.5227048
1.5227487
1.5227069
1.5227547
1.5227168
1.5228258
1.5227833
1.5217139
1.5220287
1.5215258
1.5218136
1.5222822
1.5223683
1.5220618
1.5221432
1.5219443
1.5219279
1.5223095
1.5222686
1.5225693
1.5225276
1.522664
1.5226175
1.5225131
1.5225611
1.5210249
1.5223301
1.522283
1.5224798
1.5224708
1.521021
1.5222344
1.5222445
1.5227819
1.5227424
1.5227691
1.5210146
1.5210104
1.5226402
1.5226817
1.5212103
1.5224627
1.5224092
1.5225628
1.5225332
1.5210941
1.5222999
1.5223319
1.5210667
1.5211867
1.5209503
1.5209254
1.52104
1.5210571
1.5208983
1.5208935
1.5208755
1.5208873
1.5205414
1.5205429
1.5206583
1.5206687
1.5198553
1.5205189
1.5204475
1.5204629
1.5205507
1.5205995
1.5205743
1.5205827
1.5206118
1.519892
1.5197246
1.5197477
1.520719
1.5207086
1.5207225
1.520733
1.5199899
1.5201062
1.5198384
1.5199206
1.5207851
1.5207714
1.520749
1.5207648
1.5206373
1.5206707
1.5206277
1.5206493
1.5206653
1.5207643
1.5207975
1.5207004
1.5207966
1.5209078
1.5209285
1.5208255
1.5197003
1.5195976
1.5235667
1.5235821
1.5235837
1.5235707
1.5235586
1.5235747
1.5235768
1.523563
1.523624
1.5236227
1.5236051
1.5236065
1.5236174
1.5236152
1.5235971
1.5235991
1.5236395
1.5236483
1.5236935
1.5236839
1.5235928
1.5236047
1.5236163
1.5236052
1.5236282
1.5236464
1.5236561
1.5236395
1.5237275
1.5236845
1.523672
1.5237117
1.5236888
1.5236885
1.5236749
1.5236753
1.523684
1.523678
1.5236651
1.5236699
1.5236528
1.5236356
1.5236378
1.5236578
1.5236623
1.5236616
1.523644
1.5236449
1.5237859
1.5237475
1.5237369
1.5237727
1.5237196
1.5237127
1.5237003
1.5237066
1.5236687
1.523686
1.5236932
1.5236774
1.523707
1.5237218
1.5237617
1.5237462
1.5234539
1.5234876
1.5234954
1.5234631
1.5249706
1.5249284
1.5233699
1.5233022
1.5232841
1.5233313
1.5249258
1.5234066
1.523313
1.5232902
1.5233627
1.5234973
1.5235294
1.5235352
1.5235044
1.5235155
1.5235373
1.5235324
1.5235131
1.5235371
1.5235346
1.5235159
1.5235185
1.5235766
1.5235747
1.5235539
1.5235557
1.5235723
1.5235763
1.5235549
1.5235506
1.5233051
1.5233257
1.523468
1.5234278
1.5235939
1.5235875
1.5235724
1.523566
1.5234422
1.5233215
1.5233026
1.5233988
1.5235681
1.5235367
1.5235418
1.5235753
1.5236395
1.5236381
1.523624
1.5236221
1.5236349
1.523635
1.5236188
1.5236194
1.5236129
1.5235916
1.5235882
1.5236123
1.5236135
1.5235919
1.5235931
1.5236166
1.5233699
1.5232837
1.5233641
1.5232204
1.5233776
1.5234668
1.5234594
1.5234724
1.5234771
1.5234676
1.523571
1.5235657
1.5235683
1.5235729
1.5234787
1.5233398
1.523321
1.5234569
1.5234833
1.5233339
1.5233164
1.5234504
1.5235777
1.5235914
1.5235968
1.5235826
1.5233301
1.5233303
1.5234346
1.5234312
1.5234953
1.5234786
1.5234932
1.5234817
1.5233473
1.5234624
1.5233306
1.5234477
1.523534
1.5235243
1.5235289
1.5235375
1.5235356
1.5235542
1.5235566
1.5235384
1.5235979
1.523583
1.5235865
1.5235986
1.5235418
1.5235618
1.5235628
1.523543
1.5235928
1.523591
1.5236052
1.5236054
1.5236341
1.523643
1.5236424
1.5236334
1.5236282
1.5236222
1.5236231
1.5236272
1.523639
1.5236485
1.5236478
1.523639
1.5236352
1.5236289
1.5236293
1.5236337
1.5236897
1.5236908
1.5236951
1.5236939
1.5236852
1.5236776
1.5236823
1.5236885
1.5237008
1.5237011
1.5236945
1.5236941
1.5236958
1.5236889
1.5236831
1.5236886
1.5235758
1.5236134
1.5236132
1.5236324
1.5236318
1.5235674
1.5236106
1.5236039
1.5236218
1.5236282
1.5236527
1.523645
1.5236592
1.5236657
1.5236724
1.5236563
1.5236561
1.5236703
1.5235837
1.5235892
1.5236696
1.5237254
1.5236895
1.5237062
1.523742
1.5236233
1.5236531
1.5236484
1.5236658
1.5236697
1.5236925
1.5236873
1.5237016
1.5237064
1.5237417
1.5237253
1.5237634
1.5237742
1.5236301
1.5236619
1.5237875
1.5237542
1.5237586
1.5237872
1.5237224
1.5237164
1.5237208
1.5237261
1.5237924
1.5237606
1.5237564
1.5237888
1.5237316
1.5237251
1.52372
1.5237258
1.5240499
1.5251029
1.5250417
1.5213971
1.5214676
1.5217948
1.521525
1.5233156
1.5222349
1.5235178
1.5225392
1.5231754
1.5233245
1.5264064
1.5244111
1.5234585
1.5233402
1.5241961
1.5262053
1.524177
1.5253346
1.5248717
1.5248439
1.5239004
1.5238373
1.5238293
1.5238822
1.5238611
1.5249785
1.5249408
1.5238448
1.5239289
1.5239475
1.5239784
1.5239621
1.5247721
1.5247746
1.5247104
1.5247071
1.5240497
1.5240012
1.5240198
1.5239813
1.5240014
1.5240124
1.5240306
1.5241481
1.5240302
1.5240281
1.5239832
1.5240797
1.5240572
1.5240378
1.5240605
1.5240147
1.5240246
1.524054
1.5240467
1.5239869
1.5239997
1.5239899
1.5239779
1.5241154
1.5241715
1.5241305
1.5241511
1.5241502
1.5242026
1.5241947
1.5242733
1.5235043
1.5238634
1.5238608
1.5264571
1.5238957
1.5266495
1.523861
1.5238469
1.5238164
1.5238377
1.5238229
1.5253748
1.5255829
1.5251935
1.5250877
1.5239451
1.5238938
1.5238511
1.5239023
1.5238581
1.5239929
1.523826
1.5238253
1.5298724
1.5238802
1.5239285
1.5238803
1.5239287
1.5266453
1.5265933
1.5265867
1.5264234
1.5265715
1.5265461
1.5265621
1.5265692
1.5263843
1.5263395
1.5264518
1.5264457
1.525253
1.5255193
1.5250513
1.5248957
1.5253678
1.5239016
1.5251479
1.5239506
1.5258716
1.5256139
1.5249493
1.5249214
1.5249506
1.5249509
1.5248537
1.5248289
1.5248197
1.5247327
1.5248209
1.5249634
1.5250241
1.5249234
1.5249193
1.5255014
1.5249679
1.5250092
1.5255363
1.5258411
1.5259846
1.5260056
1.5257743
1.5250716
1.525572
1.5255819
1.5250524
1.525878
1.52599
1.5260248
1.5258414
1.5248508
1.5249316
1.524922
1.52483
1.5248871
1.5248236
1.5246666
1.5247572
1.5246187
1.5245831
1.5248201
1.5247715
1.5247959
1.5247192
1.5248592
1.5246796
1.5254759
1.5249465
1.5250302
1.5255185
1.5254696
1.524965
1.5250528
1.5255239
1.5259327
1.5259405
1.5256467
1.5256078
1.5257589
1.5259675
1.5259891
1.525715
1.5256394
1.5255487
1.5256033
1.5255334
1.5254484
1.5251754
1.5253278
1.5254537
1.5253263
1.5250446
1.525191
1.5250902
1.5250171
1.525763
1.5255791
1.5256123
1.5259571
1.5259168
1.5254577
1.5259568
1.5253857
1.5260104
1.5261724
1.5259331
1.5258983
1.5261215
1.5261521
1.5259696
1.5259408
1.5251865
1.5252934
1.5258501
1.5257602
1.5256522
1.5251046
1.5251372
1.5256429
1.5260215
1.5260582
1.526003
1.5258925
1.5259901
1.5261003
1.5261212
1.5260123
1.5245717
1.5245959
1.52448
1.5246196
1.5245962
1.5246743
1.5247634
1.524599
1.5246273
1.5245223
1.5244518
1.5244684
1.5245975
1.524621
1.5244857
1.5244971
1.524467
1.52427
1.5243337
1.5244122
1.5245664
1.5244012
1.5245536
1.5243529
1.5245017
1.5245731
1.5243705
1.5243205
1.5242856
1.5246065
1.5245461
1.5249814
1.5251309
1.5254251
1.5253394
1.5252503
1.5248722
1.5253194
1.5249872
1.5243023
1.5243374
1.5244155
1.5244754
1.5244377
1.5243607
1.5244091
1.524537
1.5248906
1.5247428
1.5251286
1.525235
1.5247627
1.5246102
1.5250069
1.5251136
1.5258445
1.5258252
1.525752
1.525795
1.5257542
1.5256922
1.5257796
1.5258102
1.5256484
1.5256771
1.5248573
1.5248655
1.5249467
1.5256895
1.5249136
1.5257023
1.5256924
1.5255962
1.5257433
1.5257925
1.5255907
1.525486
1.5257213
1.5257558
1.5257411
1.5257146
1.5250209
1.5249948
1.5257725
1.5257475
1.5251096
1.5250793
1.5244768
1.5245225
1.524398
1.5244089
1.5245697
1.5245158
1.5248195
1.524903
1.5243436
1.5244097
1.5243635
1.5243294
1.5248762
1.5245073
1.5250029
1.5246433
1.525596
1.5251869
1.5253144
1.5256585
1.5254263
1.5259274
1.5259308
1.5253166
1.525185
1.5257905
1.5257919
1.5251396
1.5256647
1.5253202
1.5257281
1.5254718
1.5247181
1.524671
1.524655
1.5245727
1.5245745
1.5246114
1.5244357
1.5244678
1.5247347
1.5245194
1.5245901
1.5248117
1.5247559
1.5245225
1.5245955
1.5248702
1.5252051
1.5250609
1.5255124
1.5255911
1.525483
1.5249928
1.5251012
1.5255333
1.5259553
1.5259105
1.5255449
1.525479
1.5256023
1.5259008
1.5259357
1.5255848
1.5242701
1.5242383
1.5245996
1.5244287
1.5239349
1.5242386
1.5245247
1.5243074
1.5243531
1.5244714
1.5244067
1.5242972
1.5241106
1.5244133
1.5245069
1.5246783
1.5244336
1.5245913
1.5243627
1.5247017
1.5247956
1.5250523
1.524985
1.5251667
1.5249664
1.5251073
1.5248785
1.5250414
1.5251136
1.5252802
1.5252233
1.5247546
1.5244976
1.5245646
1.5248298
1.5249006
1.5246339
1.5247117
1.5249794
1.5252451
1.5251759
1.5253286
1.5253803
1.525294
1.5253565
1.525209
1.5251336
1.5249445
1.5250873
1.5251325
1.5248802
1.5248525
1.5245253
1.5245543
1.5247456
1.5248832
1.524986
1.5240986
1.5246972
1.5250347
1.525233
1.5249281
1.5251716
1.5238968
1.5243154
1.5243493
1.5238727
1.5242862
1.5242658
1.5238324
1.5242246
1.5242149
1.5238515
1.5242564
1.5242427
1.5238061
1.5237796
1.5237731
1.5237997
1.523792
1.5237996
1.5247179
1.5239451
1.5245584
1.5245421
1.5239225
1.5245583
1.5244923
1.5239769
1.5246139
1.5247067
1.5239657
1.5246511
1.5246379
1.5236064
1.5236087
1.5236489
1.5236845
1.5251408
1.5251373
1.5237699
1.5253784
1.5252701
1.5237952
1.5252549
1.5252056
1.5238238
1.525207
1.5251802
1.5251575
1.5251598
1.5238602
1.5251547
1.5251521
1.5238982
1.5239208
1.5248174
1.5248386
1.5239704
1.524737
1.5247488
1.5239417
1.5247699
1.5247683
1.520558
1.5208532
1.5204196
1.5206696
1.5205344
1.5203053
1.5220354
1.5219968
1.5219039
1.5219528
1.5217936
1.5215215
1.5214371
1.5216885
1.5214262
1.5215022
1.5217797
1.5216838
1.5220684
1.5220076
1.5219192
1.521986
1.5214562
1.521552
1.5218229
1.5217059
1.5214777
1.5215666
1.5218355
1.5217276
1.5219847
1.5219847
1.5218925
1.5219026
1.5218979
1.5220019
1.5220182
1.5219262
1.5220693
1.5220347
1.5219519
1.5219898
1.522051
1.5220516
1.5219684
1.5219695
1.5219902
1.5220864
1.5220906
1.5219958
1.5219779
1.5220699
1.522112
1.5220257
1.52205
1.5221298
1.5221361
1.5220574
1.5220159
1.5221004
1.5221074
1.5220225
1.5221453
1.52209
1.5220092
1.5220667
1.5220511
1.522126
1.5221901
1.5221148
1.5261963
1.5261956
1.5256061
1.5255913
1.5256457
1.5256487
1.5262291
1.5262294
1.5261793
1.5261459
1.526141
1.5261436
1.5255608
1.525549
1.5256056
1.5256087
1.5262005
1.5262015
1.5261517
1.5260923
1.5256049
1.5255905
1.5250954
1.5251214
1.5251806
1.5247695
1.5247329
1.5251487
1.5251509
1.5256513
1.5251535
1.5256495
1.5252134
1.5247895
1.5252028
1.5247792
1.5256535
1.5256332
1.5251609
1.5251295
1.5251821
1.5248056
1.5247584
1.5252225
1.5256955
1.5256945
1.5252053
1.5252067
1.525269
1.5252608
1.5248512
1.5248445
1.5246977
1.5247495
1.5241841
1.5242583
1.525035
1.5250676
1.5256334
1.5256511
1.5247
1.5256014
1.5259111
1.5259165
1.5253323
1.5253284
1.5254335
1.5254408
1.5260124
1.526015
1.5258666
1.5259635
1.5239092
1.5242006
1.5237902
1.5243113
1.5238252
1.5239758
1.523488
1.5236301
1.5246278
1.5250731
1.5245809
1.5251143
1.5242228
1.5246354
1.524687
1.5242714
1.5248822
1.5253755
1.5248936
1.5253712
1.524544
1.524952
1.5249372
1.5245225
1.5250023
1.5254809
1.5249974
1.5254848
1.5246469
1.5250587
1.5250575
1.5246448
1.5262741
1.5262728
1.5256769
1.5256587
1.5256755
1.5256754
1.5262624
1.5262619
1.5221255
1.5222092
1.522242
1.5221637
1.5262161
1.5262264
1.52626
1.5262604
1.5256525
1.5256349
1.5256777
1.5256773
1.5262979
1.5262984
1.5220925
1.5221816
1.52217
1.5220841
1.526252
1.5262143
1.5251534
1.5256925
1.5251869
1.5256706
1.525242
1.5248146
1.5247665
1.5252004
1.5251906
1.5257179
1.5251983
1.5257124
1.5220714
1.5221619
1.5221431
1.5220581
1.522184
1.5221664
1.5220879
1.5221135
1.5262361
1.5262354
1.5256643
1.5256492
1.5255727
1.5255526
1.526121
1.5261062
1.5222532
1.5223259
1.5223712
1.5222994
1.5260753
1.526191
1.5262253
1.5262237
1.5256451
1.5256247
1.5256193
1.5256183
1.5262092
1.5262088
1.5221748
1.5222543
1.5222205
1.5221453
1.5261638
1.5261799
1.5221343
1.5222091
1.5221712
1.5221007
1.5223081
1.5222701
1.5222036
1.5222425
1.5220893
1.5221677
1.5221299
1.5220524
1.5220427
1.5221092
1.5220795
1.5220088
1.5222145
1.5221768
1.5221086
1.5221407
1.5221525
1.5222271
1.5222635
1.5221865
1.5220528
1.5221522
1.5221274
1.5220326
1.5220349
1.5221205
1.5220899
1.5220091
1.5220799
1.52208
1.5220071
1.5220085
1.5220482
1.5221338
1.5221377
1.5220596
1.521502
1.5216086
1.5218664
1.5217476
1.5215384
1.5216309
1.5218625
1.5217699
1.5219446
1.5219468
1.5218787
1.5218717
1.5218883
1.5219914
1.5219825
1.5218867
1.5203703
1.5203792
1.5204094
1.5204151
1.5215924
1.5215835
1.5216931
1.5216917
1.5215238
1.5214211
1.521483
1.521617
1.5218059
1.5216212
1.5215564
1.5217475
1.5218327
1.5218785
1.5218781
1.5218318
1.5218948
1.5219592
1.5219533
1.5218919
1.5204732
1.5217814
1.5216867
1.5216733
1.5217707
1.5204763
1.5217
1.5216788
1.5217721
1.5218039
1.5218891
1.5219496
1.5219945
1.5219329
1.5204626
1.5204673
1.5202158
1.5202638
1.5219465
1.5220454
1.5220438
1.5219468
1.5219379
1.5220154
1.5220146
1.5219379
1.5220485
1.5220032
1.5219277
1.5219638
1.5219342
1.5220333
1.5220692
1.5219699
1.5205479
1.5205417
1.5205498
1.5205509
1.5205938
1.5206658
1.520586
1.520638
1.5203501
1.5204004
1.5220161
1.5221193
1.5220842
1.5219852
1.5220126
1.5220936
1.5220516
1.521975
1.5220066
1.5219437
1.5219432
1.5220293
1.5219699
1.5220588
1.5220603
1.5219711
1.5218466
1.5217483
1.5217227
1.521816
1.5220324
1.5219844
1.5219385
1.5220028
1.5217049
1.5217708
1.5216955
1.5217958
1.5219764
1.5219196
1.5219417
1.5218954
1.5217103
1.5217209
1.5218223
1.5217985
1.5219263
1.5217718
1.52188
1.521838
1.5220587
1.522019
1.5220583
1.5221172
1.5219802
1.5219278
1.5219974
1.5219511
1.5220618
1.5219916
1.5219636
1.522045
1.5221316
1.5220654
1.522095
1.5221785
1.522205
1.5221676
1.5220818
1.5221136
1.5220702
1.522094
1.5220102
1.5219803
1.5297213
1.5296117
1.5237457
1.5237668
1.5237595
1.5237398
1.5237895
1.5238105
1.5237831
1.5237638
1.5238076
1.5238144
1.5237907
1.5237837
1.5238294
1.5238556
1.5238336
1.5238066
1.5237722
1.5237917
1.5237423
1.5237354
1.5237317
1.5237391
1.5237466
1.5237678
1.5237812
1.5237617
1.5237272
1.5237211
1.5237161
1.523723
1.5237109
1.5237038
1.5236984
1.5237057
1.5237923
1.5238189
1.5238296
1.5238054
1.5238377
1.5238146
1.5238809
1.523885
1.5238769
1.5238722
1.5238943
1.5239113
1.5239079
1.5238887
1.5238961
1.5238783
1.5238537
1.5238747
1.5238554
1.5238608
1.5238397
1.5238337
1.5239132
1.5239035
1.5239032
1.5238965
1.5238872
1.5238945
1.5238456
1.5238698
1.5238776
1.5238557
1.5238632
1.5238865
1.5240413
1.5240553
1.5239898
1.5239727
1.5251315
1.5249376
1.5242712
1.5248624
1.5248911
1.5242716
1.5243371
1.5243778
1.5253325
1.5251952
1.5248942
1.5248379
1.5242661
1.5247958
1.5248302
1.5242701
1.5240692
1.5240813
1.5240254
1.524009
1.5238931
1.5239119
1.5238635
1.523845
1.5238393
1.5238463
1.5238268
1.5238196
1.5238842
1.5238907
1.5238693
1.5238625
1.5239049
1.5239498
1.5239319
1.523885
1.5246609
1.5246034
1.5241922
1.524222
1.5240389
1.5240719
1.5240484
1.5240864
1.5242435
1.524711
1.5247552
1.5242576
1.5240917
1.5240897
1.52404
1.5240485
1.5239348
1.5239389
1.5239337
1.5239379
1.5239459
1.5239785
1.5239473
1.5239828
1.5239782
1.5239669
1.5239247
1.5239399
1.5239282
1.5239122
1.5239062
1.5239238
1.5243501
1.5233958
1.5234493
1.5234667
1.5234605
1.5234683
1.5234621
1.5234114
1.5233584
1.5233202
1.5234222
1.5235244
1.5235223
1.523522
1.523525
1.5235184
1.5235214
1.5235169
1.5235235
1.5235193
1.5235205
1.5240887
1.5239017
1.5239203
1.5239668
1.5239464
1.524008
1.5243485
1.5244159
1.5240578
1.5241072
1.5244802
1.524542
1.5241522
1.524046
1.5240094
1.5239862
1.5240174
1.5239079
1.5241083
1.523803
1.5238924
1.5237865
1.5237403
1.5238044
1.5237289
1.5242075
1.5239288
1.5242827
1.5239645
1.5238746
1.5238373
1.5238189
1.5238566
1.5236917
1.5237357
1.5237177
1.523679
1.5238073
1.5237673
1.5237491
1.5237883
1.5236753
1.5237139
1.5237128
1.5236742
1.523745
1.5237453
1.5237843
1.5237844
1.5239629
1.5239351
1.5239089
1.5239328
1.5238967
1.5238515
1.5238314
1.5238727
1.5239285
1.5239051
1.5239022
1.5239242
1.5238701
1.5238273
1.5238273
1.5238677
1.5237997
1.5238025
1.5238392
1.5238362
1.5238038
1.5238138
1.5238528
1.5238417
1.5238633
1.5238665
1.5238819
1.5238783
1.5238708
1.5238834
1.5239031
1.5238885
1.5236001
1.5235998
1.5235978
1.5235977
1.5236615
1.5236622
1.5236875
1.5236866
1.5235943
1.5235897
1.5235944
1.523598
1.5236655
1.5236702
1.5236989
1.5236911
1.5237212
1.5237299
1.5237693
1.5237598
1.5237587
1.5237177
1.523717
1.5237561
1.5236795
1.5236788
1.5236956
1.5237053
1.5237327
1.5237524
1.5236362
1.5236409
1.523644
1.5236405
1.5236985
1.5236931
1.5237154
1.5237219
1.5237502
1.5237434
1.5237797
1.5237863
1.5238115
1.5237771
1.5238466
1.5238773
1.523825
1.5238186
1.5238538
1.5238598
1.5239
1.5239123
1.523886
1.5238799
1.5238944
1.5239007
1.5243546
1.5240887
1.5215584
1.5214186
1.5215497
1.5218901
1.5234942
1.5235105
1.5241877
1.5260361
1.5236904
1.5242824
1.5262889
1.5243881
1.5242796
1.5234351
1.5235592
1.5284293
1.5280314
1.5278252
1.5282206
1.5252552
1.5224243
1.5261346
1.5273302
1.5270002
1.5277748
1.5281874
1.5293735
1.5296019
1.524183
1.5242777
1.5242751
1.5241726
1.5258555
1.5258047
1.5249235
1.524814
1.5294299
1.5283482
1.5240412
1.5240677
1.5244796
1.5245228
1.5240693
1.5240406
1.5239345
1.5238216
1.5239716
1.5239717
1.5239348
1.5240982
1.5238643
1.5239071
1.5238656
1.5240116
1.5240374
1.524014
1.524038
1.5239589
1.5239589
1.5239947
1.5239914
1.5241183
1.5239479
1.5239924
1.5239571
1.5239131
1.5240597
1.5240575
1.5240621
1.5240635
1.5240924
1.524094
1.5241008
1.5241005
1.5240756
1.5240958
1.5241108
1.5240918
1.5240407
1.5240595
1.5240484
1.5240666
1.5244188
1.5244263
1.5243734
1.5243721
1.5242377
1.5242212
1.5243021
1.5243155
1.5240454
1.5240114
1.5240116
1.5240397
1.5239714
1.5239607
1.5238934
1.524012
1.523898
1.5239078
1.5239044
1.5240281
1.524008
1.5239945
1.5238929
1.523894
1.5238838
1.5239033
1.5239092
1.5238975
1.5239076
1.5239178
1.5239083
1.5239127
1.5239237
1.5239209
1.5241395
1.5241585
1.5242531
1.5242379
1.5241053
1.5240834
1.5240449
1.5240608
1.5240327
1.5240721
1.5240223
1.5240553
1.5239948
1.5239814
1.5239715
1.5239825
1.5239613
1.5239799
1.5239642
1.523977
1.5239278
1.5239531
1.5239331
1.5239502
1.5239386
1.5239186
1.523929
1.5239462
1.5239491
1.5239573
1.5239699
1.523965
1.5239266
1.5239298
1.5239152
1.5239389
1.5239263
1.5239172
1.5239406
1.5239345
1.5239682
1.5239531
1.523945
1.5239605
1.5239427
1.5239549
1.5239804
1.5239651
1.5238812
1.5238992
1.523891
1.5238919
1.5239068
1.5238963
1.5239058
1.5239144
1.5239047
1.5238957
1.5239068
1.5239137
1.5238806
1.5238919
1.5238981
1.523889
1.5239206
1.5239493
1.5239207
1.523917
1.5239852
1.5240351
1.5241
1.5241781
1.5239659
1.523843
1.5239312
1.5239217
1.52397
1.5238654
1.5238607
1.5238715
1.5238764
1.5238816
1.5239119
1.5238767
1.523911
1.5238
1.5238487
1.5238865
1.5238859
1.5238494
1.52409
1.5238048
1.5238491
1.5238439
1.5238263
1.5238281
1.5238301
1.5238286
1.5238931
1.5238623
1.5240691
1.5238977
1.5238744
1.5238341
1.5238519
1.5296385
1.5242628
1.5240239
1.5240254
1.5242512
1.5295294
1.523892
1.5239043
1.523892
1.5239038
1.5239706
1.5239311
1.5239069
1.5238933
1.5239063
1.5238933
1.5239318
1.5239739
1.5239322
1.5239762
1.5263093
1.5262799
1.5258828
1.5260526
1.5239827
1.5260983
1.5259826
1.5259593
1.5258394
1.5257819
1.5256823
1.5259598
1.5260174
1.5258998
1.5259831
1.5239001
1.524673
1.5247731
1.5238875
1.5239441
1.5245485
1.5245867
1.5240001
1.5244949
1.5244377
1.5238668
1.524852
1.5246787
1.5238849
1.5238731
1.5238435
1.5238886
1.5244999
1.5245335
1.5239348
1.5238936
1.5238633
1.5239057
1.5250471
1.5252818
1.5239289
1.5244482
1.5244253
1.5247026
1.5245699
1.5242692
1.5243906
1.5244003
1.5242177
1.5243778
1.5243287
1.5245734
1.524332
1.5243051
1.5245758
1.5251887
1.5251172
1.5243714
1.5246118
1.5245892
1.5243574
1.5251549
1.5251639
1.5252264
1.5252822
1.5245958
1.5243768
1.5242691
1.5243249
1.5240907
1.5240446
1.5241216
1.5241419
1.5241937
1.5242133
1.5241673
1.5241486
1.524593
1.5242814
1.5242607
1.5246214
1.5246347
1.5242461
1.5242358
1.5246364
1.5246695
1.5248078
1.5246704
1.5250343
1.5249393
1.5249491
1.5239231
1.5249459
1.5250703
1.5248164
1.524511
1.5246381
1.5244318
1.5244127
1.5249879
1.5258266
1.5250452
1.5249275
1.5251175
1.5249374
1.5244198
1.5250741
1.5243954
1.5253723
1.5254539
1.5254194
1.5254025
1.5243634
1.5243773
1.5248921
1.5247519
1.5246625
1.5243514
1.5243678
1.524626
1.5251782
1.5252069
1.5252564
1.5253325
1.5244588
1.5243062
1.5242336
1.5241074
1.5241914
1.5240883
1.5242925
1.5242868
1.5240527
1.524344
1.5243359
1.5242134
1.5242616
1.5243199
1.5241676
1.5241265
1.5239551
1.5239994
1.5240987
1.5240632
1.5239569
1.5241639
1.524217
1.5239695
1.5240109
1.5240395
1.5243416
1.5242749
1.5245539
1.5246277
1.5249232
1.5248535
1.5247227
1.5244277
1.5247961
1.5244912
1.5242613
1.5242988
1.5243143
1.5239782
1.5239606
1.524024
1.5240714
1.5239544
1.5239534
1.5241163
1.5243692
1.5243089
1.5245828
1.5246571
1.5242486
1.5241868
1.5244313
1.5245131
1.5248445
1.5250539
1.5250152
1.5248299
1.5249873
1.5249381
1.5248238
1.5248388
1.5245101
1.5245188
1.5245307
1.524528
1.5248919
1.5248343
1.5247932
1.5248174
1.5247794
1.5247073
1.5247258
1.5247795
1.5245498
1.5245671
1.524608
1.524567
1.5244212
1.5239501
1.5239309
1.5240442
1.5240203
1.5241951
1.5242495
1.523925
1.5241292
1.5239401
1.5240627
1.5243064
1.524083
1.5243679
1.5241316
1.5248076
1.5244946
1.5245653
1.5247767
1.5246697
1.5245602
1.5243999
1.5243635
1.5244623
1.5246972
1.5246006
1.5246697
1.5246529
1.5245851
1.5245294
1.5245498
1.5245645
1.5242068
1.5240146
1.5239797
1.5241143
1.5240105
1.5239988
1.5241144
1.5241274
1.524
1.524007
1.5241538
1.5244148
1.5243303
1.5247806
1.524809
1.5246579
1.5242383
1.5242699
1.5247368
1.5247542
1.524845
1.524738
1.5246873
1.5249164
1.5242305
1.5241955
1.5241933
1.5243599
1.5239387
1.5239078
1.5239128
1.5243525
1.524268
1.5243091
1.5244065
1.5243536
1.5241901
1.5242024
1.5241088
1.5239124
1.5243061
1.5243555
1.5244541
1.5243303
1.5244036
1.52427
1.5244092
1.5244516
1.524512
1.5244697
1.5246083
1.5245517
1.5245556
1.5244976
1.5246069
1.524662
1.5247161
1.5246592
1.5245013
1.5243809
1.5244305
1.5245505
1.5245992
1.5244794
1.5245341
1.5246564
1.5247734
1.5247138
1.5247658
1.5248185
1.5245964
1.5246631
1.5245178
1.5244308
1.5244207
1.5244499
1.5242199
1.5241985
1.523994
1.5240229
1.5247413
1.5242411
1.5243382
1.5240311
1.5237883
1.5237942
1.5241232
1.5243406
1.5245397
1.5242575
1.5244825
1.5238769
1.5238366
1.5238318
1.5238661
1.5239082
1.5243094
1.5244179
1.5241444
1.5238129
1.5238162
1.5238508
1.5238432
1.5238652
1.5238827
1.5237881
1.5237893
1.5238178
1.5238136
1.5238141
1.5238243
1.5238322
1.5238008
1.5237998
1.523827
1.5238371
1.5238476
1.5237724
1.5237612
1.5237553
1.5237679
1.5237672
1.5237578
1.5237554
1.5239406
1.5238949
1.523885
1.5239243
1.5241073
1.5241152
1.5238564
1.5238653
1.5239092
1.523896
1.5244354
1.5243186
1.5244687
1.5241502
1.5239685
1.5239529
1.5240106
1.5240563
1.5246466
1.5245857
1.5244373
1.5241322
1.5239175
1.5239325
1.5239868
1.5239619
1.5241223
1.5241181
1.523619
1.5236192
1.52362
1.5236192
1.5236621
1.5236597
1.523698
1.523716
1.5237472
1.5255671
1.5257838
1.5238826
1.5238765
1.5238545
1.5238594
1.5238763
1.5238617
1.5238626
1.5238742
1.5253369
1.5239209
1.5238837
1.523901
1.5239013
1.5253132
1.5252797
1.525183
1.525163
1.5239878
1.5252296
1.5239555
1.5239328
1.5239524
1.5250371
1.5246008
1.5251369
1.5251417
1.5251318
1.5239824
1.5239897
1.5240392
1.5240498
1.5240508
1.5240075
1.524002
1.5240269
1.5245194
1.5245959
1.5239835
1.5239956
1.5240706
1.5240829
1.5243804
1.5247018
1.5246652
1.524667
1.5239982
1.5240082
1.5240324
1.5240189
1.5243976
1.5244555
1.5217454
1.5217584
1.5215472
1.5215588
1.5222799
1.5223688
1.5221398
1.5220452
1.5219634
1.5219716
1.5217193
1.5217296
1.5222426
1.5223105