/*--------------------------------*- C++ -*----------------------------------*\
  =========                 |
  \\      /  F ield         | OpenFOAM: The Open Source CFD Toolbox
   \\    /   O peration     | Website:  https://openfoam.org
    \\  /    A nd           | Version:  7
     \\/     M anipulation  |
\*---------------------------------------------------------------------------*/
FoamFile
{
    version     2.0;
    format      ascii;
    class       volScalarField;
    location    "5000";
    object      omega;
}
// * * * * * * * * * * * * * * * * * * * * * * * * * * * * * * * * * * * * * //

dimensions      [0 0 -1 0 0 0 0];

internalField   nonuniform List<scalar> 
33733
(
302.01497
454.45766
306.27703
472.45821
364.25988
280.63946
430.89698
359.04358
466.14963
427.97943
418.49052
506.10923
505.18526
632.74266
635.48709
392.33968
280.59631
443.16391
517.94582
1051.0984
1937.2566
919.3075
590.23276
831.50284
582.46482
315.41332
371.54948
331.37015
311.59849
619.32586
710.58732
522.13219
537.22396
514.10468
509.0316
438.75831
447.73104
844.1174
772.87444
603.45143
372.42636
672.89974
315.31334
431.53196
482.45949
474.42473
563.67383
587.40706
553.91833
553.40215
1058.6536
449.98365
441.04664
353.04862
514.02929
479.20206
314.73229
318.48636
372.75805
679.81876
599.93209
897.26603
685.31293
786.14759
893.62802
1523.9409
1225.7401
1358.7836
1325.4981
2954.9722
3111.1211
6077.4199
6035.1707
5445.5698
2251.3516
1117.6549
2314.1615
1131.4889
1966.3266
1816.9318
988.90901
1024.7444
292.78149
373.06947
426.81496
532.12033
467.82436
413.3556
881.3545
714.8713
1069.7394
761.31938
1302.9841
1528.9101
847.20836
896.24559
518.81707
1284.007
1279.9071
1272.9436
522.26389
445.16354
448.38462
1012.4448
1020.3926
878.88132
895.7412
1040.5682
1012.6537
902.75902
880.96665
374.28801
750.17909
630.21598
626.51148
735.16052
737.96339
627.97233
642.43742
380.03557
748.95388
318.32147
321.45769
1803.8047
1861.0373
1592.5511
1481.4098
961.054
827.8975
518.90172
421.84014
1129.1371
1279.5137
373.58193
403.02977
446.16687
528.01163
512.98956
764.36327
901.20808
601.65097
593.69049
1452.4685
2529.9518
2753.22
477.98566
449.25367
411.02509
379.17321
383.42096
434.41454
654.33218
553.05541
352.00446
292.91501
374.64802
525.89191
426.57976
437.20699
556.35785
855.92422
789.51659
1122.1422
1314.1553
716.89946
678.27776
936.72188
779.55999
1710.5636
2351.6115
2337.449
2980.0544
959.24825
1253.3899
1181.7697
1678.4556
950.93445
1011.1825
1794.1976
1554.7059
1185.2931
1128.6686
2170.5954
2440.4227
5148.0577
4724.0142
4849.3499
4786.08
3802.545
4119.2933
3128.5351
3739.8723
3855.0914
3923.8205
8911.625
8991.2614
10086.621
4259.8191
4315.6342
10051.434
16025.156
15303.16
14246.151
13107.99
13628.593
16543.674
15252.043
12441.056
11267.831
11544.016
10434.129
10445.888
10760.934
4954.5071
4882.9734
2426.4964
2393.1447
2573.5021
5259.0022
5354.3391
2567.1883
4542.8873
4546.7441
2217.3674
2253.3794
4009.9504
1974.918
2058.5574
4077.2489
292.21745
380.59499
457.6431
556.81813
743.86149
529.50177
641.25045
1200.7979
1499.0077
1053.6797
950.13072
1869.7093
2204.3146
1303.7912
1191.1782
2614.5696
2868.0914
1557.4915
1445.1444
3550.3886
3331.0046
1715.1419
1819.4895
1061.1659
926.2674
913.92082
1054.6411
2880.2989
2863.4544
3216.1673
3239.1263
2787.8834
2853.0292
3095.289
3190.0137
2851.1922
2832.4574
3166.3701
1050.9449
2950.6049
2849.1383
1073.0575
934.71682
911.64096
773.51456
653.96176
644.37091
379.2154
761.37894
380.87105
763.48726
645.75248
658.27973
779.28003
321.69298
320.43931
2284.6067
2347.8035
2119.3831
2171.0701
2289.3156
2270.1264
2111.4714
2193.4953
1637.4423
1681.9747
1863.2255
1810.4124
1762.2016
1648.9276
1821.3517
1907.318
2368.2551
2406.9203
5538.9845
2242.739
2196.9339
2344.0881
2336.4377
2171.5359
2170.6261
1760.8671
1700.1763
1934.2386
1879.8406
1687.1284
1683.795
1861.635
1857.3571
435.68748
538.23951
537.1496
432.82404
1247.4429
1311.0013
1508.2095
1440.8401
923.43397
890.71484
1104.0711
1050.1661
891.21709
1052.3124
896.56964
1051.5202
1432.6906
1245.1093
1431.2081
1250.1146
1203.4887
1241.3805
1388.3432
1436.7298
866.29765
884.91982
1048.7683
1014.7775
538.79922
921.2787
892.06115
1046.8898
1097.3289
544.9139
436.4187
437.59807
1315.954
1227.7526
1500.5737
1411.5867
372.22641
3660.1386
3577.0168
3845.7335
3772.5551
3395.9484
3415.7282
3095.148
3043.4498
1795.0704
1550.7307
714.28075
1277.445
1062.567
551.5679
2082.0165
2250.0535
2567.0659
2740.6981
299.99502
315.43596
344.38605
305.03851
375.3402
413.77059
455.87191
609.69413
623.05756
564.62207
535.77303
1539.0144
888.54053
1347.7496
1136.3074
1843.6589
2095.7381
1854.9689
3625.4494
1522.4373
3358.9573
3696.464
3929.1302
7146.4492
6786.0682
8180.0996
8408.6908
489.06588
455.49066
410.81697
378.77249
398.53058
485.48219
716.30805
985.82725
1148.5686
586.06114
832.26306
733.49868
356.07212
289.75916
373.26699
459.75639
470.46707
525.67173
612.65132
667.34068
533.89875
580.53123
794.64623
894.9014
591.67269
1416.9652
1493.4643
1851.8595
1556.8244
1712.16
1617.6105
2172.2739
2542.1649
1332.9659
970.23872
2458.7417
3171.7145
6617.1829
5061.8996
8586.2441
5904.1013
7488.7324
5245.1759
3876.6953
4760.6393
9071.3272
8054.3409
9872.5595
10243.676
7235.6421
6822.2424
1245.5373
1052.8121
1499.5239
2113.8078
1907.679
1519.6331
2795.8111
3863.9127
2262.103
3361.5614
1885.7809
2546.7929
4547.419
6100.0827
4188.5057
3316.1874
2172.8003
4991.762
2335.8899
4184.3025
1988.9132
3498.205
1865.7478
3048.7614
2639.6637
2814.0582
5737.9332
6141.3732
3197.1482
3413.5674
8016.211
7015.9655
13330.964
14575.311
13534.108
14511.76
10826.951
11617.324
13528.734
14122.685
10985.427
11866.488
9760.6688
10062.003
11243.687
12011.331
9429.3711
9593.1736
8257.815
12532.678
9557.6496
12766.2
11973.113
8940.5984
8952.406
11320.951
6171.6617
6945.7239
10795.778
11044.086
11116.817
11363.313
8264.6168
8154.8319
23730.977
11869.419
11950.438
24352.07
11281.568
11771.201
22190.526
12974.656
25949.086
12576.681
12626.444
25521.593
13427.377
13256.686
26757.366
27885.42
28972.704
34038.293
34327.992
30402.306
27550.121
28285.858
30641.764
30314.593
24305.094
22098.876
18417.454
19257.671
17754.705
20264.431
18666.526
22214.847
20471.505
19124.327
17346.576
18018.955
27655.872
29670.305
27985.679
25411.673
25407.552
29081.886
26622.214
23146.671
18014.908
19392.052
17606.26
16749.132
15918.063
15235.738
15363.338
16018.525
16540.578
15824.202
15882.609
16464.35
16495.915
15949.95
16105.332
15681.294
14841.324
15847.951
17470.556
16652.398
15562.417
15459.634
16379.5
16303.004
11605.324
12342.889
13808.508
13091.616
25998.234
22931.039
17083.945
10215.623
11073.223
8647.1657
9460.6553
291.51044
474.41089
487.22441
590.83721
732.92536
974.61255
857.89504
692.24148
1692.777
2675.9378
3632.2607
4626.1823
5471.4562
6154.958
8058.446
7042.7052
2956.7805
2264.2605
2256.2233
2400.1678
2434.5541
1956.3796
1803.8306
1770.924
1946.0148
1771.3731
1761.4696
1939.0444
1947.3607
2435.8435
2258.0621
2268.1306
2447.3386
6794.1737
7001.4865
5857.3132
5680.1734
6921.9387
6884.3852
5757.2639
5802.8359
8126.1609
8308.909
8076.0471
8252.8099
7983.7228
8167.8985
8220.7741
8408.6157
6356.0615
6496.6363
5328.1904
5409.2907
6714.9962
6937.5186
5626.677
5808.1612
7458.2101
7617.6718
7639.498
7802.7732
7880.9604
8046.3845
8143.1225
8310.9991
6784.8035
6898.2222
2428.6441
5793.7987
5693.0626
6705.364
6700.301
2425.506
5595.1573
5619.0483
7872.7361
8039.9963
7870.4248
2258.4903
2250.2274
6945.7323
7147.5764
2517.7599
6003.025
5817.3223
6800.8996
6749.0086
2435.7138
5645.8556
5708.0281
2264.2607
2345.191
1952.2959
1775.8338
1845.5275
2019.7314
1945.1738
1772.337
1748.9586
1928.1443
1555.5879
1376.52
1319.3544
1511.451
555.71512
941.5921
983.52994
1164.9234
1114.7592
1104.9074
935.31446
943.16627
1113.3601
551.86375
443.90688
440.87051
1501.3337
1310.4143
1320.8685
1510.5875
553.68435
556.67136
442.44973
442.57668
1518.3143
1327.8672
1301.3111
1490.5949
947.49038
1122.5292
933.53076
1097.268
961.55559
987.49596
1169.5373
1135.4876
1337.6273
1390.0091
1580.3342
1525.5575
379.45885
377.76306
4776.8702
4704.7738
4691.2459
4754.4524
4958.1613
4864.6467
4676.565
4747.9736
4135.968
4155.3784
4251.7799
4222.7315
4135.9532
4281.2783
4394.9073
4223.5
4420.0077
4418.4525
4424.1979
4352.6425
4762.1716
4688.7026
4358.9744
4406.7555
4240.6069
4142.3877
3893.2321
3951.7717
4166.6415
4036.665
4053.4329
4080.4325
3043.2007
3077.1997
3239.043
3195.9554
3069.8112
3155.3057
3327.1845
3221.9639
3725.8718
3862.0346
3726.8775
3614.7484
3600.2202
3630.0743
3749.8857
3713.1732
3467.1614
3188.1368
3290.1151
3488.2476
2955.3815
3046.7692
3217.746
3078.418
3735.7818
3601.5013
3436.0492
3524.1647
3705.9739
3631.1352
3853.5561
3859.1941
4879.8684
4808.7208
4945.101
5023.9763
18451.009
18374.548
4775.3102
4856.9844
4931.192
4850.5845
17635.687
4241.6167
4329.3515
4412.2373
4329.1831
4351.2599
4259.5193
4360.2753
4454.233
4956.0221
4862.2879
4794.2584
4870.9992
4862.8001
4749.759
4829.9388
4930.9368
4296.3034
4196.1405
4290.5201
4379.2227
4235.968
4281.9306
4388.7842
4324.9375
3445.8022
3305.7116
3208.5035
3353.752
3225.736
3191.2461
3385.6186
3343.6661
3738.4444
3832.1225
3933.2342
3843.2672
3739.2584
3850.802
3921.8487
3801.711
3178.1742
3125.7043
3334.689
3282.1878
3132.9135
3170.9525
3294.6509
3335.761
3738.653
3863.893
3815.6143
3702.7843
3675.9185
3789.1309
3863.0768
3752.8275
485.24905
602.0583
781.91833
802.33632
589.48169
782.54758
781.91836
587.4419
586.26556
473.44771
2111.2806
2096.1953
2318.4141
2326.1085
2162.7512
2272.6881
2476.7235
2367.5888
2696.9255
2804.1327
2968.5574
2866.2779
2838.8543
2657.5157
2673.3585
2858.9768
1189.7318
1442.4372
1152.9166
1367.9566
1305.5387
1086.8999
1305.508
1087.9974
1734.3123
1638.0435
1972.8482
1867.4405
1803.7543
1567.6651
1577.0345
1809.9697
1083.8775
1307.9004
1295.6433
1091.345
1803.084
1570.8838
1547.8567
1765.1426
1090.9286
1309.73
1330.9107
1111.5262
1597.9992
1564.682
1790.6895
1815.6326
2814.542
2631.2286
2592.1722
2775.391
2301.7396
2088.9638
2052.3102
2260.7009
2776.034
2598.7876
2640.9563
2816.9829
2279.0439
2070.035
2107.1441
2308.7903
1970.2829
1982.3594
2210.2852
2178.631
2015.5112
2078.5444
2296.1543
2222.8155
2510.6092
2541.7997
2732.2743
2689.7013
2549.072
2620.2224
2810.656
2725.0467
764.03477
1022.1637
1027.3589
1228.7696
1215.4949
778.2152
1061.6189
1074.8046
1300.5368
1257.5451
1506.6932
1558.6585
1795.1767
1730.2222
1700.6338
1468.3328
1460.9513
1684.3304
587.72746
578.73226
792.31165
1247.3845
1174.8937
1445.8975
1549.7518
788.15309
1071.5127
1062.1815
1257.792
1271.748
1519.2819
1494.1965
1720.2864
1727.5945
1984.6268
1742.0295
1914.7176
2188.9898
600.57105
597.84931
2538.7441
2268.4183
2443.0572
2682.4594
1997.1996
1990.0616
2205.8702
2179.1
3033.064
2741.6689
2891.0117
3152.8413
2482.212
2518.0199
2711.9325
2636.6845
358.16708
718.18007
898.73549
298.65894
313.13627
343.78636
305.97488
492.72459
375.47896
453.08444
418.24004
581.7342
543.87076
464.59942
644.49504
640.18303
626.9477
629.517
462.20959
1908.1026
1930.9524
2971.537
3502.1714
1869.6068
1676.5988
909.29398
2028.7048
1585.0795
2399.7881
2621.2357
1183.9952
2513.8359
2323.8869
2713.6126
2949.7953
4149.1715
4508.629
5679.759
5211.749
4600.6389
4567.4382
8349.8703
3696.1108
8532.545
8307.7881
8101.5265
1570.8921
3773.702
4030.1482
3980.0874
7687.2197
7910.7696
8105.5545
7967.1269
8800.2438
8928.9167
8901.8606
9014.0081
9329.6008
9117.422
8974.1329
9121.7734
17818.858
18299.258
15747.052
15845.058
20389.887
20807.859
23170.464
23242.833
413.46053
382.48431
408.49223
634.86288
505.45665
539.37047
1084.3635
1303.3163
1375.0858
720.41747
1109.7565
1665.7242
1490.4398
1887.7558
2096.6351
778.92597
772.13778
587.25787
894.15686
914.47471
357.72952
411.73889
382.58152
289.95789
476.49588
482.26001
461.48937
487.53543
569.02175
623.41782
648.82947
763.5955
735.99397
922.05728
1100.8438
768.85998
1223.8026
1899.381
1089.8737
1628.4539
2490.3282
1894.7667
3135.3278
3841.149
2269.3363
1572.4262
3234.8122
1079.473
1220.6467
1722.0048
4290.8468
5349.3741
4520.5242
4828.9086
6903.706
19484.444
10320.111
12930.904
21075.306
15142.326
7128.4163
17163.802
8300.3434
18478.896
21975.522
22215.644
17931.995
8878.1728
15612.588
15199.933
8841.2108
19432.084
17116.78
16996.752
20325.868
8356.0353
15389.219
14569.856
8196.3125
7732.1723
5182.8019
5287.9004
8883.9403
5766.4928
6462.0217
12599.841
10418.355
18258.638
19778.21
23399.803
23396.123
22060.094
14313.849
21595.622
16647.02
19052.431
23411.308
22523.685
18255.334
19202.713
23690.487
22826.263
18325.67
17426.05
17020.717
10083.109
10470.443
9304.8206
16194.364
15683.626
9336.661
2663.8637
3712.5414
2988.9793
3239.9332
4889.0912
7911.4129
4154.2138
3634.7143
6026.7734
10107.263
5402.6952
6071.4299
12891.543
7824.3553
4663.0626
5427.7264
6179.7456
8069.6889
7644.2639
8227.0792
10183.599
4092.0547
3835.5665
2773.7985
2661.0672
5803.922
6534.3612
4468.8042
3910.1191
15070.557
12342.21
10427.257
12407.365
14752.015
17407.674
18089.633
15508.453
13943.106
11796.019
6447.4475
7523.0853
5697.6758
9950.4663
8330.9238
5098.9511
8196.1088
7397.3815
10806.147
7334.2967
7207.3622
6077.7054
5064.2284
7661.939
7399.5079
11606.838
11459.466
12500.603
7711.6406
7618.9953
13009.117
9587.5063
10055.87
19838.116
17360.459
14297.557
8340.1947
15292.827
8759.5834
23730.807
29004.904
29111.689
25074.55
27951.155
31445.005
32665.386
32169.668
26548.523
24111.513
19081.999
20293.456
21220.745
27690.126
20098.079
25792.304
16531.579
25311.506
19716.174
24654.849
26941.731
21448.682
22078.495
26694.279
26826.103
29077.822
22661.06
21024.725
28010.468
30115.613
24287.381
22494.188
15986.252
16078.701
17018.791
16765.638
16570.311
17400.203
16891.798
16279.887
16678.763
15861.758
15059.983
15130.175
14508.75
16850.557
14528.953
16064.482
17001.773
18173.346
17217.858
16419.506
17828.346
19109.63
17355.801
16702.629
16258.345
17230.311
14007.751
13941.265
16611.174
17605.105
13789.466
13347.162
11995.384
11152.759
20607.654
21251.583
26704.506
26073.692
26013.525
24793.532
23121.484
13555.945
24051.299
15900.563
25844.395
29066.1
23922.232
28491.61
17935.787
21909.704
20321.468
17130.717
11941.836
17095.996
16409.945
12076.954
13160.429
18462.496
17025.376
13306.024
17682.634
20630.928
16845.544
18875.853
8656.4
8987.9905
14705.046
14852.761
10208.428
9945.2701
18766.583
19200.964
25527.916
21120.035
21283.621
24797.522
26258.366
23638.494
24002.723
24726.297
21424.791
23258.229
18678.254
17567.418
19079.556
23940.771
22532.426
18125.245
16471.09
17626.093
11678.115
11514.094
11266.121
18228.706
17035.29
11124.624
55625.837
51509.28
19984.378
20001.502
35731.854
22342.227
25706.23
59127.185
62330.14
67465.758
65077.698
52640.475
55241.194
68027.322
66335.09
63590.826
60616.713
65328.153
57241.318
60258.24
57392.056
47452.694
48942.116
45333.655
52403.922
46468.761
55011.547
50276.444
48362.113
43093.826
44204.448
62242.165
63081.215
64567.255
60529.826
58940.071
65239.498
64689.67
56374.917
45168.403
46918.016
42339.276
41378.848
43937.008
42550.577
45317.272
47512.957
17129.097
47348.693
46718.175
53921.427
54149.394
61377.718
61480.23
17637.776
17693.778
46159.05
30109.577
57001.33
50242.984
45168.216
53038.215
46293.278
13347.984
19796.229
19700.109
13907.348
20228.114
20915.341
15070.662
21193.284
21665.43
14479.176
20660.022
21245.878
20986.836
20846.097
25016.747
24631.907
88833.688
81384.02
19494.199
11932.262
18532.713
17760.97
12756.397
16534.959
18532.748
10552.565
18984.221
17722.84
11228.605
18612.568
17644.113
632.04416
605.61905
627.94511
640.9389
841.93555
1247.7532
2354.4137
3401.8157
4434.4693
4236.0522
8735.7577
9909.9558
5496.0788
11740.477
12302.021
14130.881
13640.507
6642.5779
10711.588
14449.385
7748.016
8394.3898
15903.869
16813.819
9954.8517
17246.954
15881.51
9087.2918
16422.812
16983.499
8078.5389
8269.5144
6877.03
7064.0612
5941.7969
5769.0558
4438.6449
4376.5262
4452.0502
4539.1595
4264.1361
4228.5432
4271.6226
4321.9037
4745.8743
4683.9439
4749.2857
4815.5878
5027.9887
4912.5194
4993.9327
5130.9026
3856.271
3794.2244
3802.2651
3880.446
3430.3876
3330.4865
3311.1646
3428.4082
3325.4526
3334.328
3470.2345
3478.6933
3965.4103
3867.4015
3887.2921
4007.0003
3317.0122
3265.5646
3413.1161
3475.4214
3295.88
3359.7863
3505.1458
3453.1471
4023.1726
3914.9442
3865.0613
3980.9744
3921.3076
3809.6461
3885.1194
4010.7993
5127.6781
5026.348
4979.8539
5089.4668
4543.8975
4451.0733
4407.3302
4503.384
4448.6475
4338.7298
4435.0872
4555.0652
5017.9018
4906.106
5047.5772
5165.3577
19297.28
19272.663
17731.301
17654.017
18060.468
18071.304
19628.9
19630.989
18766.484
18450.955
19563.798
19540.532
17988.442
17904.129
18018.88
18024.922
19649.275
19651.862
18822.752
18714.178
18362.187
18258.177
16717.132
16859.786
17332.924
16096.458
15914.403
17163.636
16832.981
18390.586
16846.722
18378.747
17320.292
16049.275
17283.727
16018.908
18110.46
18009.716
16617.186
16480.73
16928.446
15875.361
15689.142
17097.331
18462.214
18464.447
16958.847
16953.678
17446.705
17437.478
16196.926
16195.278
18047.12
18012.636
16493.207
16404.849
17241.199
17277.187
18890.3
18905.115
17276.799
18081.593
19136.166
19129.289
17556.619
17508.43
18014.23
18043.449
19625.084
19637.602
18303.525
18771.327
15208.841
16821.534
15367.032
16696.288
15785.193
15585.996
14602.184
14396.21
16071.455
17589.871
16027.535
17622.919
15181.417
16459.629
16495.712
15220.121
16332.156
17922.393
16417.187
17862.909
15638.516
16876.787
16774.792
15521.354
16887.191
18398.24
16858.115
18419.95
16058.01
17332.756
17349.346
16078.065
19302.386
19276.767
17723.593
17637.579
17725.739
17738.836
19281.493
19290.046
5046.9662
4959.1741
5016.0716
5119.5851
18444.47
18462.477
19079.007
19049.111
17484.313
17385.901
17720.041
17728.81
19370.831
19380.498
4990.7013
4919.5498
4887.9283
4967.7534
18555.986
18266.079
16160.481
17831.772
16321.134
17709.17
16765.271
15528.725
15318.378
16571.748
16506.651
18079.129
16510.701
18077.488
4463.6832
4393.2764
4345.5476
4428.4779
4401.9624
4379.7126
4478.9864
4519.5909
19708.739
19714.921
18102.288
18066.916
18506.349
18487.25
20165.994
20151.192
5161.8736
5078.9278
5235.4905
5315.8399
19305.599
18838.903
19138.758
19120.663
17582.941
17501.313
17621.074
17633.925
19207.941
19218.727
5063.7213
4981.1171
4922.5954
5009.2698
18370.885
18308.826
4507.3405
4413.7564
4356.6668
4452.8094
4639.6637
4496.4503
4593.7335
4732.1994
3988.9375
3871.8683
3824.1714
3937.8019
3467.6391
3303.3092
3277.6152
3428.8823
3544.2817
3403.2242
3553.492
3680.6409
4068.7262
3954.4396
4097.3456
4199.7549
3983.7177
3890.8086
3831.9361
3934.5592
3493.2868
3357.1507
3289.3604
3433.8937
3260.3995
3272.0525
3428.0995
3419.8616
3953.8098
3835.24
3831.3775
3963.6773
3004.815
2880.5125
2828.6253
2975.828
2561.7235
2391.1883
2324.0219
2506.6534
2254.9913
2266.0062
2474.3807
2457.4369
2982.0257
2816.4125
2797.1048
2969.7127
849.68754
632.61255
622.69254
826.53043
1193.0899
1194.5782
1442.3827
1431.9412
1263.0611
1317.9047
1581.0495
1511.749
1806.1132
1880.6682
2101.1357
2028.7427
1965.0389
1728.5655
1720.6216
1954.6621
1965.0885
1735.4427
1685.9023
1915.5662
819.30629
1441.4704
1183.9385
1168.7631
1403.8494
822.26094
1193.188
1205.1479
1436.4881
1443.2917
1934.2868
1711.0505
1733.6147
1961.8482
613.35074
614.46824
504.94305
492.15417
2995.4795
2824.5147
2755.588
2934.9169
2480.5517
2275.6623
2214.0734
2418.9028
2258.8797
2224.9201
2422.711
2456.3303
2917.4378
2748.0167
2789.1682
2961.7672
827.20935
818.49653
618.77777
613.595
840.02531
848.93897
627.58115
630.30263
494.35277
503.07739
3002.0565
2839.9695
2769.073
2936.7442
2499.8884
2296.8912
2225.8384
2430.9875
2193.7309
2402.0918
2387.9518
2192.3853
2914.3744
2737.2488
2728.8107
2903.6925
1463.4997
1196.1975
1182.0539
1419.418
1759.7984
1996.5701
1928.7685
1700.3915
1160.4028
1402.2485
1173.7098
1393.068
1673.1615
1900.5835
1672.1381
1900.0652
1206.9455
1208.6239
1452.5281
1442.2471
1607.1423
1274.4015
1536.3831
1309.2757
1835.4308
2064.4294
2167.4151
1940.5524
1724.433
1950.494
1733.7842
1964.2593
2252.9715
2454.0184
2439.204
2245.0714
2361.2041
2559.0369
2673.4635
2489.1875
3025.8702
2889.4183
3056.4399
3181.0969
2766.7241
2778.2794
2956.3937
2933.1893
368.15851
364.90076
16338.683
15316.538
15317.203
16353.097
16594.825
15544.922
15322.477
16337.548
13328.32
13352.621
14331.319
14321.02
13371.725
13539.929
14535.949
14345.052
14302.121
13526.778
20917.17
21867.497
26936.948
25382.917
15959.662
14947.42
14030.938
14964.915
22792.047
24558.92
30198.612
27975.614
25580.589
26199.605
31882.695
31102.224
13974.128
13001.646
12251.84
13136.632
12067.312
12790.899
9447.893
9514.7557
10474.91
10415.809
9555.0392
9685.3247
10637.77
10508.001
11589.041
12562.94
12414.613
11453.515
11375.3
11425.172
12391.476
12353.416
9236.249
9924.7016
8821.3741
9221.5314
10159.852
9667.9515
12047.841
11093.91
10512.462
11379.858
11346.276
10617.392
16529.471
15523.35
15981.018
17044.3
24783.053
24477.303
15466.82
15331.755
16279.756
16461.741
26501.148
32216.333
31592.974
25990.807
30905.925
25394.091
13566.742
13534.634
14426.768
14512.153
14558.727
13599.498
13946.605
14959.488
16876.909
15819.654
15727.564
16794.347
15830.447
15654.002
16700.508
16899.7
13781.414
13652.237
14647.788
14802.669
13681.755
13811.794
14808.571
14701.775
10916.597
10044.006
9867.6859
10794.591
9990.6251
9844.4597
10975.798
10787.282
11710.321
11781.935
12660.257
12638.906
11716.719
12659.435
12950.495
11955.26
9804.2998
9750.2692
10789.916
10725.292
9683.8095
9921.229
10678.842
10893.749
11856.253
12834.774
12677.287
11670.406
11691.465
12673.911
12777.987
11774.049
463.33446
670.40613
633.9141
764.53831
959.5329
763.47914
959.52982
1013.4192
812.75315
1025.8633
798.56181
764.1556
963.78735
963.68121
759.27277
955.73338
759.99487
953.81661
754.41381
627.19292
625.80971
453.25793
5976.5511
5946.9556
6954.9357
6998.5739
6037.096
6348.8685
7317.1291
7020.1978
7980.8793
8248.368
9162.8618
8936.6319
8900.1559
7931.2524
8002.7478
9007.3619
1753.7734
3314.2487
1625.0315
3041.4155
2915.4877
1532.8602
2935.4542
1520.0576
4371.9403
4061.132
5381.6548
5062.9718
4958.0856
3954.6186
3949.8072
4971.9327
1518.4917
2930.5297
2821.1252
1490.4468
4954.9033
3946.5794
3794.6
4765.5587
1516.9233
2891.6029
2967.7715
1539.7739
3980.5894
3881.4227
4865.8014
4961.82
8952.0702
7957.118
7706.6191
8701.2048
6963.1158
5956.1881
5735.3249
6725.2123
8782.5567
7795.0396
7856.5275
8835.3854
6817.0234
5837.0437
5922.9335
6895.745
5538.8834
5588.4884
6592.8357
6527.3367
5673.0774
5847.1555
6824.9452
6661.5232
7503.6483
7574.3497
8556.3075
8485.0711
7633.5124
7783.1694
8742.4022
8604.9532
724.79205
731.0843
915.16062
907.35114
1383.9002
1393.5629
2668.8496
2640.9982
754.66654
946.93024
942.46212
747.35987
1439.1882
1505.625
2889.6762
2732.183
3714.6948
3893.581
4882.4844
4701.3314
4613.3549
3636.1132
3602.4283
4574.793
994.92741
792.02335
799.18058
1026.4277
2128.135
3865.0858
945.39428
760.0518
753.97286
940.01437
1599.3672
1447.6705
2703.6604
2947.4851
3834.6774
3625.218
4547.5309
4671.2044
5727.7032
4872.521
6495.2424
7188.8647
5489.9889
5465.9975
6406.4303
6318.176
7851.9764
8550.6224
7142.3001
7342.9213
8288.1795
7983.5811
485.4854
471.84442
303.98357
297.08929
311.50055
340.55887
412.9005
497.80042
501.49436
380.63233
456.26107
458.8201
424.75885
557.60976
600.50852
593.64723
554.02175
659.26282
643.67304
651.4217
667.99305
1596.2413
462.90818
423.04104
654.35321
634.74664
647.97821
666.04912
2001.4247
1959.0895
4573.2179
4715.7094
4619.7707
4635.3077
4765.667
4654.418
4579.6
4672.5742
1975.1821
1958.2958
3467.1319
4054.2707
8078.3172
7677.6056
4408.3508
3735.3201
3199.0368
1716.0417
3574.5472
3394.2244
3078.7728
933.68353
1772.4612
2157.5456
2073.6234
4044.1597
4745.1666
3877.326
4525.4382
2812.9702
2975.7282
3301.9223
3062.7989
1221.3624
3010.8077
3101.8994
2659.2302
2580.4145
5492.642
5933.454
5689.9323
5296.3549
5560.1478
5138.3356
4792.1333
5167.5394
6644.8221
6220.2567
5902.397
6389.8774
7046.0994
6596.4946
6791.1276
6371.2281
8513.1137
8608.5562
9027.0749
9201.7105
12357.491
12955.762
11085.157
10553.796
9766.1727
9635.0221
9256.0355
9331.2505
9763.419
9807.3645
15535.158
8297.7876
14971.579
14701.191
15273.689
8397.4049
8546.4544
8485.2498
14834.234
15262.212
15527.006
14574.356
15359.688
15438.282
14730.571
14693.209
15435.083
14858.531
14762.864
15328.983
3796.2892
4066.4111
4148.5793
3886.7299
8481.4188
8613.2062
8436.8959
8287.9616
9195.8296
9365.542
8953.4879
9092.9023
9314.0066
9277.6429
9082.8981
9058.8929
15119.11
15015.481
14548.164
15800.387
15307.594
14283.119
14722.674
14905.838
14916.753
15325.729
14645.841
14299.53
15204.279
14658.974
15637.093
15962.656
15052.422
15499.866
15641.602
15034.745
14852.922
15316.07
14662.683
15014.613
16896.54
15246.492
15488.773
16864.508
16286.995
15932.258
18410.744
18474.286
15426.499
14703.876
14901.676
15174.017
15352.288
15358.58
14863.558
14926.176
15684.542
15585.217
14960.63
15148.657
15564.573
14913.267
14804.55
15386.357
42026.771
44555.554
31569.849
40386.783
47133.18
50180.984
53526.835
57347.827
669.4365
506.44857
566.31079
668.0708
565.92947
1908.329
1975.9587
1732.6886
1711.7656
2180.1027
2571.1868
2251.996
2423.8756
1389.6816
2386.3684
2757.2715
2629.797
2308.0997
733.77916
1121.7956
1149.7955
1447.4053
2078.0551
1773.6982
1751.9502
2002.6617
1077.4271
762.583
595.5924
772.92568
939.01963
912.69558
1599.7124
363.09616
386.27333
382.60638
416.00004
420.20144
362.57333
549.79502
558.37682
596.19069
607.52861
606.64303
612.00233
666.15079
629.51298
647.35388
620.36439
656.62889
665.87463
652.86584
709.60293
776.31471
926.77022
1840.6389
1473.662
837.98293
979.82529
1597.8157
4109.8767
3188.673
2500.3437
3409.5135
2777.2176
1969.3003
2431.0805
3734.3998
2931.1033
5744.9035
4878.5127
2226.3981
3704.3409
6464.455
6306.763
4498.3618
7269.8815
8823.7249
2727.2961
4508.103
5604.0035
2346.1183
4184.2031
2799.743
3954.9471
8682.1905
8018.7485
1422.9381
2046.1106
2127.1925
1406.0893
3844.6593
3324.9183
5049.0355
10500.27
12494.885
7072.5313
9278.8342
35458.507
14957.795
18365.67
39946.636
28871.431
31931.039
44585.686
41631.184
45073.896
46648.991
45964.719
48939.315
36932.037
41021.207
42646.437
38709.142
15249.504
44274.169
43437.964
14431.44
10826.087
13760.911
18810.273
15927.381
33086.054
33776.715
50089.104
47164.551
43016.875
31170.407
44780.102
32454.591
48659.141
47916.264
49909.687
50517.4
52672.215
51774.629
53415.263
54715.149
62617.983
58233.142
18396.193
51891.751
54791.111
7180.6427
3465.935
8831.8409
5741.604
7190.4191
12026.684
9155.8722
15832.757
25511.972
26075.529
5385.5768
7379.4743
10558.107
26711.34
33417.867
14913.854
29408.325
23822.88
13588.334
15417.319
21451.128
27614.23
30853.276
27277.606
31083.795
33358.261
36302.307
35638.028
36372.292
38972.862
41340.251
36675.116
33520.181
30520.211
9863.2432
13785.67
15459.927
7891.1804
17245.513
6802.4444
13342.332
13835.344
5811.6884
12358.233
12225.569
15564.217
14373.834
16196.14
16886.701
18342.208
30589.684
25946.72
19810.722
21601.409
40444.804
62153.048
64423.23
42013.156
45368.884
50157.173
67560.01
66333.039
62921.793
61643.811
50085.1
51493.813
53820.19
64027.03
52261.067
63380.16
18745.185
17447.789
16218.788
47848.427
37006.679
52727.167
56600.034
38014.395
39178.548
59593.651
64264.003
64652.837
56511.982
54995.465
64780.082
64606.059
59895.912
57947.289
53822.453
47572.557
47860.86
53700.386
47830.99
48494.803
52620.169
52788.002
61074.254
61069.442
59756.09
60239.528
49127.861
50096.961
52335.961
52186.929
51199.791
52875.957
53770.436
52330.161
58625.346
57367.198
55270.709
55416.823
20028.093
32405.922
34278.635
56275.669
52197.233
62098.156
61970.105
37097.343
19943.957
41833.142
23717.579
61658.699
60115.206
60972.344
63047.146
52709.671
55031.042
54537.27
53822.973
58819.551
60417.993
61681.701
60298.456
19088.427
55756.589
54826.071
55754.677
54033.452
13969.192
16698.723
16235.797
15168.466
22328.446
30559.531
31293.878
54028.48
35490.349
39722.42
57677.309
60313.333
44250.043
48190.008
61535.927
55623.079
56074.501
52733.093
52418.995
55402.561
54964.47
55812.765
53506.785
57685.109
55981.534
19335.235
62340.677
54671.694
66248.32
43880.991
63573.83
24972.025
30781.867
46709.138
37911.604
24163.127
68872.128
71907.255
78849.995
74793.405
42876.645
66539.75
57444.713
51676.827
77158.549
82513.978
88168.955
77727.711
85968.542
73102.765
91703.838
92123.75
89218.979
89336.65
88437.104
91573.692
89070.229
92180.492
90736.653
89884.619
86966.841
87930.598
89402.965
80832.162
83479.178
90364.763
91014.34
85447.198
87424.431
91066.766
87897.475
89246.745
86275.378
85098.665
90633.762
89005.648
92934.421
96659.157
90518.893
91241.515
101246.51
100063.64
113074.08
113216.35
18516.862
40411.693
96367.4
41833.384
97586.356
29944.296
108221.36
99460.898
91287.589
101644.14
91934.427
20848.045
16933.096
16826.222
19095.966
72934.43
21325.697
19118.162
20673.331
17373.964
17448.128
19591.15
18717.53
74156.605
73781.234
18901.517
18745.715
19468.646
19195.11
77270.962
76091.254
19317.184
18030.248
18017.004
18773.437
75248.852
74988.409
74366.896
74601.693
82847.257
30819.457
82864.471
142496.44
141130.99
18984.74
15851.588
15697.457
18746.432
63433.475
60766.475
16283.236
16309.753
19556.563
19914.913
18926.512
19653.091
18724.231
54945.597
15591.975
15096.09
16305.745
16644.511
18779.989
20665.099
18666.078
68176.822
15295.691
15606.212
17750.089
17568.097
67115.913
65201.619
794.87513
811.42068
779.12746
769.85366
819.58563
814.26895
934.58098
978.48551
1524.0677
2910.5308
2367.8909
5027.0062
6662.2481
9456.8238
7423.7104
12445.344
14168.815
13503.489
12004.905
31578.823
13184.323
14382.151
13323.267
13896.691
34656.68
37651.621
41864.596
14238.32
14164.045
40430.8
14397.471
14701.467
14265.383
14737.295
15839.498
15709.833
15614.967
15121.631
15013.673
14198.073
14877.515
15886.523
15570.872
14583.515
13877.306
14402.939
57054.199
55711.296
15010.938
15223.156
15809.054
15718.699
59641.549
17431.738
18587.819
18464.01
14197.003
14406.214
14949.397
14422.062
60079.264
58603.237
18261.414
18198.295
16725.653
16637.842
18567.014
18517.854
16944.844
16983.98
19479.396
19470.36
17865.249
17831.062
18179.65
18163.758
19849.782
19819.996
5195.5115
5268.06
19001.343