/*--------------------------------*- C++ -*----------------------------------*\
  =========                 |
  \\      /  F ield         | OpenFOAM: The Open Source CFD Toolbox
   \\    /   O peration     | Website:  https://openfoam.org
    \\  /    A nd           | Version:  7
     \\/     M anipulation  |
\*---------------------------------------------------------------------------*/
FoamFile
{
    version     2.0;
    format      ascii;
    class       volScalarField;
    location    "5000";
    object      p;
}
// * * * * * * * * * * * * * * * * * * * * * * * * * * * * * * * * * * * * * //

dimensions      [0 2 -2 0 0 0 0];

internalField   nonuniform List<scalar> 
33733
(
-8.4379633e+61
-8.8674712e+61
-8.4223237e+61
-8.6185114e+61
-8.6124679e+61
-7.9730625e+61
-8.34586e+61
-8.3487522e+61
-8.6631417e+61
-8.3790258e+61
-8.610945e+61
-8.8739487e+61
-9.0167598e+61
-9.0307656e+61
-8.8928582e+61
-8.3351779e+61
-7.9551644e+61
-8.3418892e+61
-8.6177129e+61
-8.8991946e+61
-8.8985551e+61
-8.7664896e+61
-8.7436811e+61
-8.6295857e+61
-8.601821e+61
-7.7935742e+61
-8.0917567e+61
-8.1040351e+61
-7.826671e+61
-8.3529487e+61
-8.4998844e+61
-8.3295859e+61
-8.4719699e+61
-8.7018684e+61
-8.7321245e+61
-8.412744e+61
-8.3987745e+61
-8.7985891e+61
-8.6609879e+61
-8.3754888e+61
-8.1104756e+61
-8.5271323e+61
-7.7975112e+61
-8.9456989e+61
-8.7422391e+61
-8.5947979e+61
-8.6236591e+61
-8.7649397e+61
-8.9370038e+61
-9.081503e+61
-8.9724666e+61
-8.4599413e+61
-8.3142002e+61
-8.0773029e+61
-8.4889428e+61
-8.3336011e+61
-7.7794074e+61
-7.7805964e+61
-8.0825398e+61
-8.5039728e+61
-8.3484037e+61
-8.5107943e+61
-8.359816e+61
-8.6353845e+61
-8.7731037e+61
-8.7763458e+61
-8.6408802e+61
-8.9959452e+61
-8.931898e+61
-8.9328588e+61
-8.9934022e+61
-8.9288058e+61
-8.9870356e+61
-8.922082e+61
-8.7963838e+61
-8.7777763e+61
-8.8568217e+61
-8.8429746e+61
-8.7392349e+61
-8.6795559e+61
-8.6507557e+61
-8.7166317e+61
-7.4182054e+61
-7.7370259e+61
-8.0048741e+61
-8.2024644e+61
-8.1911117e+61
-8.0127348e+61
-8.4117601e+61
-8.3735565e+61
-8.490812e+61
-8.4514813e+61
-8.5561719e+61
-8.6199641e+61
-8.5178056e+61
-8.5879771e+61
-8.7661247e+61
-9.0739458e+61
-9.0843968e+61
-9.0618718e+61
-8.7514308e+61
-8.4267868e+61
-8.4215528e+61
-8.8667843e+61
-8.8373738e+61
-8.7301981e+61
-8.701463e+61
-8.9049023e+61
-8.8879952e+61
-8.7608873e+61
-8.7459153e+61
-8.1081764e+61
-8.6126673e+61
-8.434155e+61
-8.4253514e+61
-8.6005923e+61
-8.5891363e+61
-8.415224e+61
-8.4015125e+61
-8.1083135e+61
-8.5635481e+61
-7.7582448e+61
-7.7757463e+61
-8.8165458e+61
-8.8765772e+61
-8.7597221e+61
-8.6994439e+61
-8.5107667e+61
-8.429131e+61
-8.2179133e+61
-8.0132135e+61
-8.5757584e+61
-8.6393194e+61
-8.3697222e+61
-8.6583608e+61
-9.0280007e+61
-8.8004222e+61
-8.6522519e+61
-8.7029374e+61
-8.8399542e+61
-8.9896295e+61
-9.1388429e+61
-9.0451406e+61
-8.9822582e+61
-9.0442542e+61
-8.5085029e+61
-8.3510597e+61
-8.1767989e+61
-8.0021851e+61
-7.9902382e+61
-8.1827393e+61
-8.5533357e+61
-8.3885846e+61
-7.7305054e+61
-7.3912274e+61
-7.7168678e+61
-8.1909985e+61
-7.9874013e+61
-7.997951e+61
-8.2027071e+61
-8.6050045e+61
-8.5281701e+61
-8.5578976e+61
-8.6259523e+61
-8.4524431e+61
-8.3684007e+61
-8.4841348e+61
-8.3966078e+61
-8.5717901e+61
-8.5745363e+61
-8.6369033e+61
-8.6362682e+61
-8.4138586e+61
-8.5006192e+61
-8.4244011e+61
-8.5070722e+61
-8.6712679e+61
-8.7406115e+61
-8.752384e+61
-8.6890154e+61
-8.8707059e+61
-8.8034691e+61
-8.8114823e+61
-8.8738049e+61
-8.8725945e+61
-8.8129461e+61
-8.86632e+61
-8.8071912e+61
-8.7563019e+61
-8.751506e+61
-8.6970591e+61
-8.6938413e+61
-8.9590607e+61
-8.988277e+61
-8.9827866e+61
-8.9549998e+61
-9.0104126e+61
-9.0471359e+61
-9.0166416e+61
-9.039881e+61
-8.9470946e+61
-8.9743615e+61
-8.9395094e+61
-8.9661083e+61
-8.9931656e+61
-9.0019545e+61
-9.0314107e+61
-9.0225092e+61
-8.9892391e+61
-8.9357734e+61
-8.9328023e+61
-8.9597984e+61
-8.9621644e+61
-8.8216635e+61
-8.8474874e+61
-8.8387088e+61
-8.8114635e+61
-8.8952165e+61
-8.9016805e+61
-8.873952e+61
-8.8657539e+61
-8.7704664e+61
-8.7961847e+61
-8.7572982e+61
-8.7850743e+61
-8.7205713e+61
-8.7032572e+61
-8.7310304e+61
-8.7456412e+61
-7.3532476e+61
-7.7003761e+61
-7.9991076e+61
-8.1871912e+61
-8.318136e+61
-8.1749663e+61
-8.2910547e+61
-8.4889829e+61
-8.5321464e+61
-8.492551e+61
-8.4483724e+61
-8.5647386e+61
-8.5929754e+61
-8.5599863e+61
-8.5267987e+61
-8.6194516e+61
-8.6437766e+61
-8.6184557e+61
-8.5896818e+61
-8.6945123e+61
-8.668137e+61
-8.6454092e+61
-8.6752575e+61
-8.9419248e+61
-8.7872118e+61
-8.7794439e+61
-8.9324263e+61
-9.0807119e+61
-9.086824e+61
-9.1539423e+61
-9.1472376e+61
-9.0955652e+61
-9.0907012e+61
-9.163441e+61
-9.158475e+61
-9.0673808e+61
-9.0738555e+61
-9.1393762e+61
-8.9238342e+61
-9.0585726e+61
-9.0626513e+61
-8.9164175e+61
-8.7678765e+61
-8.7737925e+61
-8.6318151e+61
-8.4470144e+61
-8.4411988e+61
-8.1027534e+61
-8.6256596e+61
-8.1049554e+61
-8.6223325e+61
-8.439344e+61
-8.4401024e+61
-8.6182128e+61
-7.742911e+61
-7.730732e+61
-8.9402923e+61
-8.9547558e+61
-8.8844072e+61
-8.8980238e+61
-8.9021156e+61
-8.9244714e+61
-8.8686215e+61
-8.8442674e+61
-8.7762371e+61
-8.7889345e+61
-8.844125e+61
-8.8311945e+61
-8.7332862e+61
-8.759964e+61
-8.8153046e+61
-8.7899963e+61
-8.9841811e+61
-8.9939415e+61
-9.0546825e+61
-8.9346256e+61
-8.9251835e+61
-8.9749267e+61
-8.9652394e+61
-8.9075494e+61
-8.9163105e+61
-8.8203806e+61
-8.8122015e+61
-8.8783907e+61
-8.8693388e+61
-8.7974345e+61
-8.8046791e+61
-8.8609183e+61
-8.852815e+61
-7.9949158e+61
-8.2423711e+61
-8.2346526e+61
-7.9888999e+61
-8.6845362e+61
-8.6914133e+61
-8.7589574e+61
-8.7516929e+61
-8.5112909e+61
-8.5023562e+61
-8.6148578e+61
-8.6076484e+61
-8.4989277e+61
-8.6010295e+61
-8.4969941e+61
-8.5963767e+61
-8.7437603e+61
-8.6753095e+61
-8.7371287e+61
-8.6694316e+61
-8.6545152e+61
-8.6650939e+61
-8.7185787e+61
-8.7303736e+61
-8.4808771e+61
-8.4906434e+61
-8.5908109e+61
-8.5807495e+61
-8.2293985e+61
-8.4593107e+61
-8.4727902e+61
-8.5681703e+61
-8.5457023e+61
-8.2278262e+61
-8.0048643e+61
-7.991824e+61
-8.6123659e+61
-8.6386337e+61
-8.6752546e+61
-8.7022068e+61
-7.6772341e+61
-8.8325326e+61
-8.8584638e+61
-8.8845697e+61
-8.9126415e+61
-8.8076825e+61
-8.7822513e+61
-8.758076e+61
-8.7329166e+61
-8.6050965e+61
-8.5766929e+61
-8.3316866e+61
-8.5430255e+61
-8.498463e+61
-8.1951554e+61
-8.6309178e+61
-8.6560041e+61
-8.6808229e+61
-8.7073688e+61
-7.7896262e+61
-8.0775707e+61
-8.0797687e+61
-7.7627545e+61
-8.3999484e+61
-8.7164503e+61
-9.0998026e+61
-9.1984765e+61
-9.0426956e+61
-8.8474625e+61
-8.6931621e+61
-8.7981878e+61
-8.7680648e+61
-8.7324156e+61
-8.9098057e+61
-8.8586267e+61
-8.9218536e+61
-9.2487932e+61
-9.0696942e+61
-9.1091145e+61
-9.0250895e+61
-9.0871689e+61
-9.1329529e+61
-9.0160522e+61
-8.9876443e+61
-9.0442016e+61
-9.0745438e+61
-8.5404964e+61
-8.3715873e+61
-8.1960162e+61
-8.0038323e+61
-7.9943369e+61
-8.2084788e+61
-8.6067386e+61
-8.5856334e+61
-8.6642412e+61
-8.4233228e+61
-8.503615e+61
-8.4137251e+61
-7.6975377e+61
-7.3187126e+61
-7.6759748e+61
-7.9840136e+61
-7.9903942e+61
-8.1669624e+61
-8.2825576e+61
-8.3015598e+61
-8.1697862e+61
-8.1761198e+61
-8.3137706e+61
-8.3247217e+61
-8.18766e+61
-8.5915819e+61
-8.62884e+61
-8.6516724e+61
-8.6168965e+61
-8.6934661e+61
-8.6605466e+61
-8.6807114e+61
-8.7095989e+61
-8.5523156e+61
-8.4600057e+61
-8.6295322e+61
-8.6601894e+61
-8.6646087e+61
-8.6388147e+61
-8.6638639e+61
-8.6582026e+61
-8.6411832e+61
-8.6361755e+61
-8.6886595e+61
-8.7159554e+61
-8.714145e+61
-8.6891025e+61
-8.6862614e+61
-8.7102192e+61
-8.7052256e+61
-8.6804713e+61
-8.5054059e+61
-8.4538062e+61
-8.485655e+61
-8.5354846e+61
-8.5898621e+61
-8.5474677e+61
-8.5737893e+61
-8.6073352e+61
-8.4984604e+61
-8.5467193e+61
-8.503509e+61
-8.5476331e+61
-8.5829839e+61
-8.6130854e+61
-8.6099751e+61
-8.5815324e+61
-8.7821033e+61
-8.816694e+61
-8.8117714e+61
-8.790336e+61
-8.7544582e+61
-8.7647723e+61
-8.724609e+61
-8.7389848e+61
-8.8402811e+61
-8.8691982e+61
-8.8436131e+61
-8.8697841e+61
-8.898371e+61
-8.9294833e+61
-8.9276905e+61
-8.8974907e+61
-8.8933301e+61
-8.9215664e+61
-8.9135134e+61
-8.8873913e+61
-8.8426829e+61
-8.8671295e+61
-8.8622736e+61
-8.8377808e+61
-8.9099159e+61
-8.8836865e+61
-8.9066895e+61
-8.879911e+61
-8.858632e+61
-8.8336397e+61
-8.8542744e+61
-8.829105e+61
-8.7923676e+61
-8.7883663e+61
-8.8174057e+61
-8.8127251e+61
-8.7837634e+61
-8.7787112e+61
-8.8038518e+61
-8.8084245e+61
-8.7441616e+61
-8.7682429e+61
-8.7410503e+61
-8.7641809e+61
-8.7595667e+61
-8.7357185e+61
-8.7544202e+61
-8.7304772e+61
-9.0061501e+61
-9.0139325e+61
-9.0006751e+61
-8.9953304e+61
-8.9879926e+61
-8.9727456e+61
-8.9663923e+61
-8.9818649e+61
-9.0184355e+61
-9.0269661e+61
-9.0404908e+61
-9.0316318e+61
-9.0551201e+61
-9.0705035e+61
-9.0611513e+61
-9.0459673e+61
-8.9715568e+61
-8.9592522e+61
-8.9504423e+61
-8.9629981e+61
-8.9900774e+61
-8.9986694e+61
-8.9764651e+61
-8.985831e+61
-8.9453039e+61
-8.9579796e+61
-8.9545033e+61
-8.9418096e+61
-8.9810421e+61
-8.9846057e+61
-8.9672987e+61
-8.9708801e+61
-8.9980774e+61
-9.0122757e+61
-9.0087103e+61
-8.994537e+61
-9.0034913e+61
-9.0114809e+61
-9.0248539e+61
-9.0173971e+61
-9.0316298e+61
-9.0390238e+61
-9.0541339e+61
-9.0466779e+61
-9.0417253e+61
-9.0266011e+61
-9.0230811e+61
-9.0381149e+61
-8.9930815e+61
-9.0072619e+61
-9.0066481e+61
-8.9923555e+61
-8.9402333e+61
-8.9529113e+61
-8.9517707e+61
-8.9391441e+61
-8.9390715e+61
-8.9516734e+61
-8.9495982e+61
-8.9375736e+61
-8.9793735e+61
-8.9793507e+61
-8.9627148e+61
-8.9647425e+61
-8.9785665e+61
-8.9795457e+61
-8.9646499e+61
-8.9657449e+61
-8.8432997e+61
-8.8677468e+61
-8.9187224e+61
-8.8931112e+61
-8.9562101e+61
-8.9446317e+61
-8.9840727e+61
-8.795682e+61
-8.819342e+61
-8.7515016e+61
-8.7731129e+61
-7.3088375e+61
-7.971123e+61
-7.9865907e+61
-8.2110214e+61
-8.3442271e+61
-8.4288012e+61
-8.3963804e+61
-8.3212634e+61
-8.5566481e+61
-8.5994992e+61
-8.6273942e+61
-8.6483445e+61
-8.6678914e+61
-8.6867304e+61
-8.729496e+61
-8.7071749e+61
-9.099687e+61
-8.9608575e+61
-8.9658207e+61
-9.0311724e+61
-9.0262481e+61
-8.9051318e+61
-8.8432264e+61
-8.8384745e+61
-8.8998976e+61
-8.8314221e+61
-8.8341681e+61
-8.8955737e+61
-8.8927296e+61
-9.0223792e+61
-8.9560726e+61
-8.9523264e+61
-9.0171197e+61
-9.1151422e+61
-9.1107809e+61
-9.0782387e+61
-9.0822977e+61
-9.1208331e+61
-9.1181773e+61
-9.0854607e+61
-9.0883026e+61
-9.1524905e+61
-9.1865376e+61
-9.1496258e+61
-9.1831506e+61
-9.1464928e+61
-9.1798956e+61
-9.1422558e+61
-9.1757518e+61
-9.128932e+61
-9.1267983e+61
-9.0955795e+61
-9.0930743e+61
-9.1246071e+61
-9.122587e+61
-9.0910502e+61
-9.0895474e+61
-9.1611202e+61
-9.1953737e+61
-9.1591515e+61
-9.1934317e+61
-9.1569179e+61
-9.1912017e+61
-9.1546998e+61
-9.1888672e+61
-9.098643e+61
-9.0960118e+61
-9.0065777e+61
-9.0652845e+61
-9.0674654e+61
-9.1063638e+61
-9.1019387e+61
-9.0116516e+61
-9.0702013e+61
-9.0742654e+61
-9.1377109e+61
-9.1711952e+61
-9.1329053e+61
-8.9481561e+61
-8.9449876e+61
-9.0894314e+61
-9.0871437e+61
-9.0004488e+61
-9.0580179e+61
-9.0600608e+61
-9.0938282e+61
-9.0914871e+61
-9.0034842e+61
-9.0615521e+61
-9.0635287e+61
-8.9431483e+61
-8.9408673e+61
-8.8858584e+61
-8.8250477e+61
-8.8242701e+61
-8.8835106e+61
-8.889539e+61
-8.8291367e+61
-8.8264985e+61
-8.8867127e+61
-8.7788077e+61
-8.7062742e+61
-8.7032691e+61
-8.774056e+61
-8.2445745e+61
-8.5120885e+61
-8.5225024e+61
-8.6275473e+61
-8.6230342e+61
-8.6192378e+61
-8.509148e+61
-8.5105742e+61
-8.6170387e+61
-8.2381259e+61
-7.9808637e+61
-7.9742156e+61
-8.7691497e+61
-8.6972469e+61
-8.6950062e+61
-8.7668236e+61
-8.2377718e+61
-8.2434254e+61
-7.9763496e+61
-7.9894824e+61
-8.7658426e+61
-8.6944749e+61
-8.692223e+61
-8.7627291e+61
-8.5106476e+61
-8.6166011e+61
-8.5088549e+61
-8.6152638e+61
-8.5105649e+61
-8.5158697e+61
-8.6182457e+61
-8.6158172e+61
-8.6913192e+61
-8.6929101e+61
-8.7616544e+61
-8.7613031e+61
-7.6576236e+61
-7.6442774e+61
-8.9764317e+61
-8.9523745e+61
-8.9448375e+61
-8.9687716e+61
-8.9896487e+61
-8.9650712e+61
-8.9588348e+61
-8.9830666e+61
-8.8988346e+61
-8.9057278e+61
-8.9290412e+61
-8.9217376e+61
-8.9118213e+61
-8.9177059e+61
-8.9412983e+61
-8.9353388e+61
-8.9389815e+61
-8.9138723e+61
-8.8993742e+61
-8.9260528e+61
-8.9610552e+61
-8.9373216e+61
-8.9259529e+61
-8.9502274e+61
-8.9142687e+61
-8.8911965e+61
-8.8787737e+61
-8.9022951e+61
-8.8487841e+61
-8.8653192e+61
-8.8895319e+61
-8.8741034e+61
-8.8098574e+61
-8.8161791e+61
-8.8379808e+61
-8.8315608e+61
-8.8220787e+61
-8.828159e+61
-8.8497985e+61
-8.8439001e+61
-8.8711635e+61
-8.8942156e+61
-8.8883355e+61
-8.8653697e+61
-8.8529964e+61
-8.8595022e+61
-8.882372e+61
-8.875873e+61
-8.7540393e+61
-8.7733603e+61
-8.795785e+61
-8.7776193e+61
-8.7885293e+61
-8.8019104e+61
-8.823697e+61
-8.8105254e+61
-8.8681569e+61
-8.845218e+61
-8.8323007e+61
-8.8554559e+61
-8.84156e+61
-8.8180178e+61
-8.800207e+61
-8.8246273e+61
-9.0192817e+61
-8.993778e+61
-8.9886968e+61
-9.0141924e+61
-9.0834286e+61
-9.0810448e+61
-8.9985673e+61
-9.0039206e+61
-9.0294538e+61
-9.0241211e+61
-9.0593514e+61
-8.9491798e+61
-8.9546074e+61
-8.9792782e+61
-8.9739294e+61
-8.9689264e+61
-8.9441437e+61
-8.9391822e+61
-8.9639091e+61
-9.0095595e+61
-8.9839322e+61
-8.9781659e+61
-9.0035826e+61
-8.969377e+61
-8.9735549e+61
-8.9987032e+61
-8.9941346e+61
-8.9214515e+61
-8.9247413e+61
-8.9491887e+61
-8.945362e+61
-8.9288822e+61
-8.9344488e+61
-8.9591962e+61
-8.9535615e+61
-8.8835644e+61
-8.8607677e+61
-8.8557088e+61
-8.8782785e+61
-8.846631e+61
-8.8510906e+61
-8.8688315e+61
-8.8735839e+61
-8.9006768e+61
-8.906022e+61
-8.9301456e+61
-8.9246358e+61
-8.8957509e+61
-8.9196638e+61
-8.9147887e+61
-8.8908404e+61
-8.8318698e+61
-8.8345264e+61
-8.8533331e+61
-8.855934e+61
-8.8378341e+61
-8.8428017e+61
-8.85947e+61
-8.8645195e+61
-8.8861125e+61
-8.910007e+61
-8.9044578e+61
-8.8809299e+61
-8.8771629e+61
-8.9005315e+61
-8.8976955e+61
-8.8745182e+61
-7.9713101e+61
-8.2114393e+61
-8.3734389e+61
-8.383339e+61
-8.1987466e+61
-8.3689313e+61
-8.3691322e+61
-8.1941344e+61
-8.1972633e+61
-7.9654041e+61
-8.7527127e+61
-8.7571741e+61
-8.7819398e+61
-8.7777675e+61
-8.7614356e+61
-8.7659735e+61
-8.7905171e+61
-8.7860865e+61
-8.8086537e+61
-8.8132436e+61
-8.8369629e+61
-8.8320285e+61
-8.8275549e+61
-8.8043208e+61
-8.8002939e+61
-8.8234816e+61
-8.5985286e+61
-8.6598904e+61
-8.5890547e+61
-8.6529178e+61
-8.6441281e+61
-8.5821274e+61
-8.6469021e+61
-8.5800468e+61
-8.7017039e+61
-8.695543e+61
-8.7363418e+61
-8.7313066e+61
-8.7266751e+61
-8.6904763e+61
-8.6870763e+61
-8.7224671e+61
-8.5783446e+61
-8.6410383e+61
-8.6383435e+61
-8.576134e+61
-8.7181801e+61
-8.6831651e+61
-8.6783174e+61
-8.7123733e+61
-8.5752691e+61
-8.6371307e+61
-8.6378271e+61
-8.5791092e+61
-8.676128e+61
-8.6773698e+61
-8.7103613e+61
-8.7088898e+61
-8.8199202e+61
-8.7965281e+61
-8.7912677e+61
-8.8147645e+61
-8.7731342e+61
-8.7480645e+61
-8.7421757e+61
-8.7675907e+61
-8.8115641e+61
-8.7879438e+61
-8.7855986e+61
-8.8090568e+61
-8.7643186e+61
-8.7393983e+61
-8.7377161e+61
-8.7623693e+61
-8.7195515e+61
-8.7256329e+61
-8.7493476e+61
-8.7432536e+61
-8.7309154e+61
-8.7358633e+61
-8.7599664e+61
-8.754714e+61
-8.7648987e+61
-8.771003e+61
-8.7933638e+61
-8.78733e+61
-8.7766064e+61
-8.7823351e+61
-8.8053027e+61
-8.7991746e+61
-8.35809e+61
-8.5581132e+61
-8.5605401e+61
-8.6211578e+61
-8.6168944e+61
-8.3650063e+61
-8.5666808e+61
-8.5750113e+61
-8.6341005e+61
-8.6273174e+61
-8.6678532e+61
-8.6739056e+61
-8.7070904e+61
-8.7018914e+61
-8.6964688e+61
-8.66216e+61
-8.657134e+61
-8.6909096e+61
-8.1962611e+61
-8.1904324e+61
-8.3509581e+61
-8.5263454e+61
-8.5404054e+61
-8.5919637e+61
-8.5728608e+61
-8.3547826e+61
-8.5475713e+61
-8.5543958e+61
-8.6114413e+61
-8.6029986e+61
-8.6401632e+61
-8.6505192e+61
-8.6833036e+61
-8.6712344e+61
-8.6564723e+61
-8.6268714e+61
-8.6058418e+61
-8.6340836e+61
-8.1923027e+61
-8.1999152e+61
-8.6592934e+61
-8.6825486e+61
-8.7051039e+61
-8.682684e+61
-8.6982502e+61
-8.7113522e+61
-8.734952e+61
-8.7213182e+61
-8.7057564e+61
-8.7272803e+61
-8.7502985e+61
-8.7303465e+61
-8.7431777e+61
-8.7568198e+61
-8.7793505e+61
-8.7657899e+61
-7.6519957e+61
-8.3507866e+61
-8.4391548e+61
-7.7751319e+61
-8.0800313e+61
-8.080912e+61
-7.7419686e+61
-8.5655746e+61
-8.4217285e+61
-8.3828914e+61
-8.7635693e+61
-8.8931603e+61
-8.7280365e+61
-9.1600082e+61
-9.1187714e+61
-9.0826635e+61
-9.244229e+61
-9.2887548e+61
-9.2113314e+61
-9.306558e+61
-9.3564517e+61
-8.8167967e+61
-8.8443899e+61
-8.8440041e+61
-8.8211908e+61
-8.8152631e+61
-8.8852251e+61
-8.7800077e+61
-8.7648069e+61
-8.7914523e+61
-8.9667023e+61
-8.9449417e+61
-8.9027413e+61
-8.9648935e+61
-9.0086628e+61
-8.8720325e+61
-8.8997492e+61
-8.9581255e+61
-8.9281828e+61
-9.2693123e+61
-9.2326839e+61
-9.0842328e+61
-9.1052701e+61
-9.1122159e+61
-9.0880374e+61
-9.0598333e+61
-9.1602452e+61
-9.1393224e+61
-9.2046174e+61
-9.1691711e+61
-9.0103998e+61
-9.0364405e+61
-9.064692e+61
-9.0386908e+61
-9.1239325e+61
-9.0933785e+61
-9.0669819e+61
-9.0975525e+61
-9.1411116e+61
-9.1168577e+61
-9.147863e+61
-9.1730579e+61
-9.0163502e+61
-9.0288852e+61
-8.9855908e+61
-9.0023855e+61
-9.0416991e+61
-9.0550901e+61
-9.0697734e+61
-9.0849064e+61
-8.2039209e+61
-7.9986508e+61
-7.987419e+61
-8.3175527e+61
-8.2225268e+61
-8.1880677e+61
-8.6244299e+61
-8.7104491e+61
-8.7492494e+61
-8.6402278e+61
-8.655792e+61
-8.6707525e+61
-8.6272313e+61
-8.7050956e+61
-8.7354699e+61
-8.4392811e+61
-8.4529609e+61
-8.4402978e+61
-8.5355188e+61
-8.5589646e+61
-7.6760293e+61
-7.9743385e+61
-7.9865044e+61
-7.2730072e+61
-7.958213e+61
-7.9736231e+61
-7.9608878e+61
-7.9773929e+61
-8.1958824e+61
-8.2006781e+61
-8.2112823e+61
-8.3454924e+61
-8.3215295e+61
-8.3984606e+61
-8.4211094e+61
-8.331391e+61
-8.3470051e+61
-8.4388892e+61
-8.3568309e+61
-8.4454943e+61
-8.701693e+61
-8.6597844e+61
-8.7330944e+61
-8.7584569e+61
-8.6083617e+61
-8.6061997e+61
-8.6480526e+61
-8.5014913e+61
-8.5029934e+61
-8.5612928e+61
-8.6843155e+61
-8.702558e+61
-8.694088e+61
-8.7119194e+61
-8.7178792e+61
-8.7045547e+61
-8.706678e+61
-8.7171137e+61
-8.7132902e+61
-8.6839478e+61
-8.6801996e+61
-8.6937477e+61
-8.6929618e+61
-8.6958733e+61
-8.7003605e+61
-8.7085785e+61
-8.7039788e+61
-8.6885513e+61
-8.6930569e+61
-8.7011897e+61
-8.6969289e+61
-8.6828893e+61
-8.6806222e+61
-8.6879606e+61
-8.6910608e+61
-8.6717269e+61
-8.6786098e+61
-8.6853201e+61
-8.6801146e+61
-8.7298574e+61
-8.7265727e+61
-8.7389396e+61
-8.7424061e+61
-8.7501984e+61
-8.7617595e+61
-8.7627687e+61
-8.7530586e+61
-8.7488594e+61
-8.7589236e+61
-8.7521297e+61
-8.7418587e+61
-8.7230699e+61
-8.7281598e+61
-8.7313791e+61
-8.7378939e+61
-8.7128812e+61
-8.7181691e+61
-8.7268231e+61
-8.7218087e+61
-8.7320338e+61
-8.7370393e+61
-8.7476433e+61
-8.7432481e+61
-8.7417596e+61
-8.7301036e+61
-8.7269833e+61
-8.7385287e+61
-8.7063506e+61
-8.7102174e+61
-8.7194538e+61
-8.7157299e+61
-8.5559477e+61
-8.6075714e+61
-8.5749761e+61
-8.5994765e+61
-8.6277625e+61
-8.6526811e+61
-8.6349703e+61
-8.6193415e+61
-8.643343e+61
-8.6629944e+61
-8.6509971e+61
-8.6659302e+61
-8.6719794e+61
-8.619515e+61
-8.5746305e+61
-8.5921527e+61
-8.6111398e+61
-8.6208324e+61
-8.6171769e+61
-8.6320797e+61
-8.6315219e+61
-8.6082473e+61
-8.6076236e+61
-8.5852333e+61
-8.5646223e+61
-8.6179337e+61
-8.6318836e+61
-8.6207186e+61
-8.6044439e+61
-8.6552585e+61
-8.6460101e+61
-8.6424622e+61
-8.6524368e+61
-8.6622584e+61
-8.6651874e+61
-8.6725226e+61
-8.6706772e+61
-8.6689146e+61
-8.6599049e+61
-8.6512729e+61
-8.6615592e+61
-8.6422382e+61
-8.6508683e+61
-8.6416899e+61
-8.6324725e+61
-8.8365163e+61
-8.8352651e+61
-8.8506191e+61
-8.8484299e+61
-8.8259631e+61
-8.8054103e+61
-8.7844725e+61
-8.8621616e+61
-8.8747108e+61
-8.8755874e+61
-8.8646194e+61
-8.8875571e+61
-8.8875958e+61
-8.9007399e+61
-8.8992277e+61
-8.9434018e+61
-8.9575823e+61
-8.9527751e+61
-8.9387935e+61
-8.9121425e+61
-8.9149485e+61
-8.9245747e+61
-8.9287168e+61
-8.9070696e+61
-8.9007703e+61
-8.912216e+61
-8.9189932e+61
-8.9326352e+61
-8.9461284e+61
-8.9376206e+61
-8.9248998e+61
-8.9200906e+61
-8.9327515e+61
-8.9293685e+61
-8.9166741e+61
-8.8931054e+61
-8.8963349e+61
-8.9046619e+61
-8.9078767e+61
-8.8596484e+61
-8.8567712e+61
-8.8734954e+61
-8.8674763e+61
-8.8782791e+61
-8.8839435e+61
-8.8948658e+61
-8.8890952e+61
-8.885007e+61
-8.8738607e+61
-8.8705377e+61
-8.8818856e+61
-8.8629353e+61
-8.8520008e+61
-8.8483836e+61
-8.8595538e+61
-8.9266631e+61
-8.9278268e+61
-8.9150502e+61
-8.9138842e+61
-8.9029271e+61
-8.8912455e+61
-8.8898062e+61
-8.9016198e+61
-8.9138114e+61
-8.9267027e+61
-8.9253558e+61
-8.9125548e+61
-8.8877442e+61
-8.8894554e+61
-8.8999243e+61
-8.9015213e+61
-8.880035e+61
-8.8685654e+61
-8.8669902e+61
-8.8783954e+61
-8.8574315e+61
-8.8459933e+61
-8.8442172e+61
-8.8558015e+61
-8.8779417e+61
-8.8663849e+61
-8.8637412e+61
-8.875652e+61
-8.8551353e+61
-8.843259e+61
-8.8395868e+61
-8.851978e+61
-8.8264171e+61
-8.8168883e+61
-8.8139909e+61
-8.8235106e+61
-8.8190753e+61
-8.8093524e+61
-8.804554e+61
-8.8149714e+61
-8.8342245e+61
-8.837128e+61
-8.8449737e+61
-8.8485931e+61
-8.825812e+61
-8.8298403e+61
-8.8371025e+61
-8.8405803e+61
-8.7977855e+61
-8.8009444e+61
-8.8116325e+61
-8.8088609e+61
-8.7916264e+61
-8.7957248e+61
-8.8067813e+61
-8.8027389e+61
-8.8153212e+61
-8.8189631e+61
-8.8318844e+61
-8.8283937e+61
-8.8202668e+61
-8.8226438e+61
-8.8323969e+61
-8.8344162e+61
-8.7765566e+61
-8.7881445e+61
-8.7778191e+61
-8.7750806e+61
-8.8067395e+61
-8.7972977e+61
-8.7952169e+61
-8.8034198e+61
-8.7633423e+61
-8.7709226e+61
-8.7801607e+61
-8.7729825e+61
-8.7831283e+61
-8.7892727e+61
-8.7985385e+61
-8.7937737e+61
-8.7900978e+61
-8.7790577e+61
-8.775329e+61
-8.7867509e+61
-8.754159e+61
-8.7586252e+61
-8.7686635e+61
-8.7646781e+61
-8.7846682e+61
-8.773448e+61
-8.769949e+61
-8.7806056e+61
-8.749319e+61
-8.7527723e+61
-8.762667e+61
-8.7597139e+61
-9.0117668e+61
-9.0013834e+61
-8.9909071e+61
-8.9902951e+61
-8.9753206e+61
-8.9830528e+61
-8.9836458e+61
-9.0236003e+61
-9.0364432e+61
-9.0655068e+61
-9.05077e+61
-8.9746374e+61
-8.9628216e+61
-8.9534966e+61
-8.9655701e+61
-8.9926625e+61
-9.0014764e+61
-8.9792007e+61
-8.9886911e+61
-8.9477781e+61
-8.9602438e+61
-8.9570384e+61
-8.944546e+61
-8.9835175e+61
-8.9868692e+61
-8.9700108e+61
-8.9733439e+61
-9.0006991e+61
-9.0146762e+61
-9.0113642e+61
-8.9973536e+61
-9.0063567e+61
-9.0144168e+61
-9.0275956e+61
-9.020094e+61
-9.0345144e+61
-9.0418793e+61
-9.0566256e+61
-9.0492233e+61
-9.0439353e+61
-9.0291843e+61
-9.0258828e+61
-9.0405436e+61
-8.9962608e+61
-9.0101912e+61
-9.0104655e+61
-8.9964112e+61
-8.9877428e+61
-8.9432331e+61
-8.9557285e+61
-8.9554689e+61
-8.9431159e+61
-8.9451251e+61
-8.9573346e+61
-8.980115e+61
-8.9828807e+61
-8.9849728e+61
-8.9686037e+61
-8.9705799e+61
-8.9823685e+61
-8.9824156e+61
-8.9685782e+61
-8.9688111e+61
-8.860561e+61
-8.8621266e+61
-8.8477556e+61
-8.8844883e+61
-8.8855113e+61
-8.8736175e+61
-8.9327208e+61
-8.9332354e+61
-8.9211196e+61
-8.9086457e+61
-8.9092745e+61
-8.8971716e+61
-8.9501567e+61
-8.9562565e+61
-8.9674221e+61
-8.9616644e+61
-8.9569587e+61
-8.9456484e+61
-8.989224e+61
-8.8153183e+61
-8.8031177e+61
-8.8137774e+61
-8.8374848e+61
-8.8390612e+61
-8.8244611e+61
-8.7743666e+61
-8.7606222e+61
-8.773488e+61
-8.7941701e+61
-8.7827173e+61
-8.7928748e+61
-8.2121181e+61
-8.2078195e+61
-8.2109598e+61
-8.2185839e+61
-8.3778871e+61
-8.4852782e+61
-8.5990716e+61
-8.6067143e+61
-8.628911e+61
-8.6453118e+61
-8.6482322e+61
-8.6622883e+61
-8.6694725e+61
-8.670743e+61
-8.6768432e+61
-8.6870119e+61
-8.6822781e+61
-8.6865845e+61
-8.7036425e+61
-8.6934217e+61
-8.7028946e+61
-8.7181556e+61
-8.7189627e+61
-8.7113384e+61
-8.7551328e+61
-8.7450687e+61
-8.753772e+61
-8.7359228e+61
-8.7360434e+61
-8.7274444e+61
-9.1627766e+61
-9.1622093e+61
-9.1306986e+61
-9.1298978e+61
-9.0969504e+61
-9.0980322e+61
-8.9753643e+61
-8.9771109e+61
-9.004777e+61
-9.0033123e+61
-8.9788987e+61
-8.9820425e+61
-9.0093152e+61
-9.0063498e+61
-9.0666141e+61
-9.0370354e+61
-9.034137e+61
-9.0637633e+61
-9.0312086e+61
-9.0324111e+61
-9.0618904e+61
-9.0606898e+61
-8.9555105e+61
-8.9290679e+61
-8.9257108e+61
-8.9521067e+61
-8.9047072e+61
-8.8805704e+61
-8.8773789e+61
-8.9013811e+61
-8.8729534e+61
-8.8751861e+61
-8.8995547e+61
-8.8974424e+61
-8.9501163e+61
-8.9236013e+61
-8.9215855e+61
-8.948276e+61
-8.8662386e+61
-8.8671264e+61
-8.8917043e+61
-8.8904209e+61
-8.86823e+61
-8.8708711e+61
-8.8951544e+61
-8.8926402e+61
-8.946024e+61
-8.9192024e+61
-8.9167599e+61
-8.9432282e+61
-8.9419969e+61
-8.9157572e+61
-8.9143405e+61
-8.9403316e+61
-9.0597022e+61
-9.0299691e+61
-9.0269998e+61
-9.0566756e+61
-9.0014932e+61
-8.9732412e+61
-8.9703713e+61
-8.9985348e+61
-8.966427e+61
-8.968575e+61
-8.9962702e+61
-8.9935263e+61
-9.0536196e+61
-9.0242025e+61
-9.0210153e+61
-9.0499845e+61
-9.1137311e+61
-9.1117027e+61
-9.1319711e+61
-9.1297829e+61
-9.1276767e+61
-9.1251077e+61
-9.1093423e+61
-9.1066564e+61
-9.082352e+61
-9.0869703e+61
-9.1186064e+61
-9.1175313e+61
-9.1370532e+61
-9.1357182e+61
-9.134797e+61
-9.1335893e+61
-9.1165216e+61
-9.1153052e+61
-9.0902875e+61
-9.0923804e+61
-9.1530254e+61
-9.1515172e+61
-9.1674118e+61
-9.168991e+61
-9.1854526e+61
-9.2021391e+61
-9.2004069e+61
-9.1837745e+61
-9.1647603e+61
-9.1504332e+61
-9.1660292e+61
-9.1492296e+61
-9.182243e+61
-9.1987634e+61
-9.1808947e+61
-9.1972443e+61
-9.1475787e+61
-9.1452583e+61
-9.1632042e+61
-9.1608946e+61
-9.1770139e+61
-9.1957128e+61
-9.1933857e+61
-9.1793425e+61
-9.1432223e+61
-9.1407892e+61
-9.1562348e+61
-9.1586427e+61
-9.1747309e+61
-9.1723607e+61
-9.1911009e+61
-9.188736e+61
-9.1260968e+61
-9.1256061e+61
-9.1447767e+61
-9.1442151e+61
-9.1436551e+61
-9.1428368e+61
-9.1247496e+61
-9.1237997e+61
-9.0994503e+61
-9.0976861e+61
-9.1227962e+61
-9.121649e+61
-9.1417341e+61
-9.1404262e+61
-9.1394481e+61
-9.1383424e+61
-9.1206451e+61
-9.1196431e+61
-9.0958788e+61
-9.0941227e+61
-9.1762556e+61
-9.1608404e+61
-9.1768727e+61
-9.16019e+61
-9.1933726e+61
-9.1927579e+61
-9.2100376e+61
-9.2094366e+61
-9.1748322e+61
-9.159666e+61
-9.1754923e+61
-9.1589724e+61
-9.2086654e+61
-9.1919559e+61
-9.1912954e+61
-9.207923e+61
-9.1725882e+61
-9.1579289e+61
-9.1739272e+61
-9.156539e+61
-9.2070759e+61
-9.1904038e+61
-9.1890445e+61
-9.2056789e+61
-9.1701761e+61
-9.1554559e+61
-9.1712899e+61
-9.1543429e+61
-9.2044152e+61
-9.1877295e+61
-9.1866193e+61
-9.2032524e+61
-9.096593e+61
-9.0951211e+61
-9.1141253e+61
-9.1124194e+61
-9.1113237e+61
-9.1101903e+61
-9.0939565e+61
-9.0928716e+61
-9.0403134e+61
-9.0128836e+61
-9.0117993e+61
-9.0386289e+61
-9.0693514e+61
-9.0714345e+61
-9.1041362e+61
-9.1017719e+61
-9.1224126e+61
-9.1197489e+61
-9.1178246e+61
-9.1159646e+61
-9.0998779e+61
-9.0981701e+61
-9.0463424e+61
-9.0178062e+61
-9.0145726e+61
-9.0425548e+61
-9.0741093e+61
-9.0775903e+61
-9.1510689e+61
-9.1382013e+61
-9.153891e+61
-9.1353556e+61
-9.1700608e+61
-9.1864292e+61
-9.1834814e+61
-9.1671912e+61
-9.1465806e+61
-9.1332689e+61
-9.1486639e+61
-9.1313644e+61
-8.990603e+61
-8.9638399e+61
-8.9612727e+61
-8.9877362e+61
-8.9608128e+61
-8.9606262e+61
-8.9867268e+61
-8.9861904e+61
-9.0883523e+61
-9.0874048e+61
-9.1048224e+61
-9.1036313e+61
-9.102764e+61
-9.1015425e+61
-9.0864508e+61
-9.0852103e+61
-9.0344016e+61
-9.0086606e+61
-9.0071334e+61
-9.0326576e+61
-9.0629376e+61
-9.0649229e+61
-9.0917746e+61
-9.0907343e+61
-9.1089185e+61
-9.1076655e+61
-9.1068735e+61
-9.105997e+61
-9.0899785e+61
-9.0892472e+61
-9.0372175e+61
-9.0107149e+61
-9.0094103e+61
-9.0354945e+61
-9.0663101e+61
-9.0675354e+61
-8.9854368e+61
-8.9606634e+61
-8.9598447e+61
-8.9843961e+61
-8.95785e+61
-8.9593188e+61
-8.9839933e+61
-8.9825094e+61
-8.936441e+61
-8.9118292e+61
-8.9110803e+61
-8.9355113e+61
-8.8881392e+61
-8.8640713e+61
-8.863696e+61
-8.8875754e+61
-8.8631118e+61
-8.8634808e+61
-8.8870123e+61
-8.8862032e+61
-8.9346576e+61
-8.9101392e+61
-8.9088508e+61
-8.9332975e+61
-8.9378892e+61
-8.9120989e+61
-8.9097695e+61
-8.9353372e+61
-8.8881932e+61
-8.8644418e+61
-8.8621872e+61
-8.8859132e+61
-8.8632856e+61
-8.8620402e+61
-8.8860255e+61
-8.8873879e+61
-8.9349001e+61
-8.9095155e+61
-8.9107311e+61
-8.9357333e+61
-8.8561869e+61
-8.8314107e+61
-8.8281313e+61
-8.8527747e+61
-8.8063986e+61
-8.7795101e+61
-8.7770303e+61
-8.8035311e+61
-8.7713437e+61
-8.7744464e+61
-8.8010615e+61
-8.7981828e+61
-8.8500901e+61
-8.8250813e+61
-8.8224419e+61
-8.8477698e+61
-8.3891154e+61
-8.2083083e+61
-8.1949034e+61
-8.3773067e+61
-8.5860057e+61
-8.5891221e+61
-8.6571816e+61
-8.6542107e+61
-8.5965563e+61
-8.6068097e+61
-8.6686791e+61
-8.6631615e+61
-8.7076245e+61
-8.7107812e+61
-8.7476618e+61
-8.7450971e+61
-8.7421847e+61
-8.7032034e+61
-8.7007714e+61
-8.7394476e+61
-8.7365915e+61
-8.6995863e+61
-8.6962906e+61
-8.733647e+61
-8.3729236e+61
-8.6529301e+61
-8.584117e+61
-8.5814296e+61
-8.6500185e+61
-8.3751851e+61
-8.5881896e+61
-8.5838949e+61
-8.649781e+61
-8.6531411e+61
-8.7321428e+61
-8.6939657e+61
-8.6970995e+61
-8.733834e+61
-8.189835e+61
-8.1943438e+61
-7.954015e+61
-7.9463376e+61
-8.8455981e+61
-8.8197418e+61
-8.8169262e+61
-8.8427315e+61
-8.794544e+61
-8.7677031e+61
-8.76477e+61
-8.7915861e+61
-8.7652295e+61
-8.764006e+61
-8.7908945e+61
-8.7917855e+61
-8.8416756e+61
-8.8160071e+61
-8.8164025e+61
-8.8414894e+61
-8.3756207e+61
-8.3737193e+61
-8.1950721e+61
-8.1913443e+61
-8.3768843e+61
-8.3856972e+61
-8.1960874e+61
-8.2107725e+61
-7.9493614e+61
-7.9640166e+61
-8.8403915e+61
-8.8159896e+61
-8.8135902e+61
-8.8378933e+61
-8.7913781e+61
-8.7648871e+61
-8.7632763e+61
-8.7893643e+61
-8.7615891e+61
-8.7880809e+61
-8.789381e+61
-8.7631527e+61
-8.8371163e+61
-8.8123807e+61
-8.8136055e+61
-8.8383887e+61
-8.654353e+61
-8.5888286e+61
-8.5843906e+61
-8.6514147e+61
-8.6979346e+61
-8.7335095e+61
-8.7319931e+61
-8.6954569e+61
-8.5850254e+61
-8.6500017e+61
-8.5839462e+61
-8.650836e+61
-8.6950519e+61
-8.7319213e+61
-8.6930863e+61
-8.7299262e+61
-8.5880289e+61
-8.5865472e+61
-8.6520061e+61
-8.6538152e+61
-8.6626112e+61
-8.5930092e+61
-8.6575197e+61
-8.600681e+61
-8.7005435e+61
-8.7355515e+61
-8.7375446e+61
-8.7039504e+61
-8.6975805e+61
-8.73369e+61
-8.6962332e+61
-8.7329253e+61
-8.7639618e+61
-8.7900758e+61
-8.7902067e+61
-8.764395e+61
-8.765669e+61
-8.7908525e+61
-8.7916378e+61
-8.7670688e+61
-8.8150543e+61
-8.8146424e+61
-8.8389624e+61
-8.8390753e+61
-8.8143216e+61
-8.8142673e+61
-8.8392165e+61
-8.8389066e+61
-7.6322719e+61
-7.6194518e+61
-8.9836513e+61
-8.9622475e+61
-8.9547095e+61
-8.9759674e+61
-8.9955634e+61
-8.9736291e+61
-8.9682389e+61
-8.9899307e+61