/*--------------------------------*- C++ -*----------------------------------*\
  =========                 |
  \\      /  F ield         | OpenFOAM: The Open Source CFD Toolbox
   \\    /   O peration     | Website:  https://openfoam.org
    \\  /    A nd           | Version:  7
     \\/     M anipulation  |
\*---------------------------------------------------------------------------*/
FoamFile
{
    version     2.0;
    format      ascii;
    class       surfaceScalarField;
    location    "5000";
    object      phi;
}
// * * * * * * * * * * * * * * * * * * * * * * * * * * * * * * * * * * * * * //

dimensions      [0 3 -1 0 0 0 0];

internalField   nonuniform List<scalar> 
100464
(
-1.671607e+25
1.0104767e+27
8.78273e+26
-1.6618823e+28
-2.3992425e+26
-9.6825033e+25
-3.6532393e+27
-1.021183e+26
1.8240735e+26
2.2869385e+26
-1.8033526e+26
1.0874869e+27
-2.8311542e+26
-1.6213597e+28
-3.0590063e+26
9.8268477e+26
-5.7956095e+25
-2.4922635e+27
4.3418978e+25
1.8454537e+26
1.4923157e+26
-1.6925794e+26
-1.1020554e+26
-2.0538651e+27
2.6280043e+26
-1.5390603e+26
-1.9783217e+26
1.111687e+27
8.8365457e+26
-9.7081874e+25
-2.9058836e+25
5.4700649e+25
-3.0311618e+27
-6.8889848e+25
1.9989798e+26
-3.439217e+25
1.7671728e+26
2.1452313e+26
-2.813009e+27
-2.6803476e+27
1.3214858e+26
-1.3076785e+26
2.0416038e+26
1.6929399e+26
-1.8617434e+26
-6.821673e+25
1.5046203e+26
1.9326564e+26
-9.5965088e+25
-3.3039516e+27
1.7999567e+26
-2.6691899e+27
-7.1460606e+25
1.5580597e+26
-1.046784e+26
-1.7805453e+26
1.8859249e+26
6.629232e+26
-2.8369026e+25
1.7978948e+26
-9.2349332e+26
7.0319988e+24
-1.7319468e+25
-1.0348431e+26
2.9568669e+25
-7.0127215e+26
-5.0493588e+25
-8.7459615e+26
1.511344e+25
-3.7132552e+25
1.7236763e+26
-5.9596621e+25
-3.1920345e+27
1.9754151e+26
-1.0082114e+26
1.0865893e+27
-2.7501867e+26
-2.5990203e+26
1.1196647e+27
2.4592703e+27
-2.9978848e+27
2.2359674e+26
-7.3780914e+25
1.9188526e+26
-9.1418196e+25
-1.7399402e+26
1.9491909e+26
1.767014e+26
-1.9176165e+26
-1.7255158e+25
-9.2666036e+26
3.3184961e+25
-3.4438219e+25
-4.9653075e+25
4.1358562e+25
-8.5808584e+26
-4.2805542e+25
4.473074e+25
-4.2455517e+25
4.2011091e+22
-6.9199242e+26
5.964613e+24
-4.6793306e+25
-3.9905319e+25
3.8577945e+25
2.6451924e+25
-5.9380291e+26
4.3454307e+24
1.1361207e+25
-8.4157669e+26
-2.41046e+23
3.619558e+25
-5.2615407e+25
-4.0613184e+25
2.623959e+25
-8.1824051e+26
-5.1744232e+24
2.3658307e+27
-3.7417357e+25
2.7679789e+25
-2.6421411e+27
8.8216963e+25
-1.4338333e+26
4.6690744e+25
3.2156765e+25
2.6425107e+26
2.1536057e+26
3.1280966e+25
-1.8140597e+27
3.9157425e+26
2.662721e+26
-2.6096133e+27
6.1249217e+26
-1.3941432e+25
1.4369061e+25
-7.0822607e+26
-2.9946314e+25
-1.8785854e+25
3.9150915e+25
3.5998108e+25
-8.9673276e+24
7.8204424e+24
-5.1893048e+25
3.3640091e+25
-3.6685726e+25
2.6899299e+25
5.2446499e+26
3.3176072e+25
-6.7419115e+26
2.4436546e+25
1.3461114e+26
-2.6097452e+27
1.7386287e+26
1.6832048e+26
-2.0351432e+26
-1.9578408e+26
-2.6425657e+27
1.5574758e+26
1.749959e+26
1.7528611e+26
-1.9142221e+26
-1.9539424e+26
-1.236138e+26
1.4499538e+26
-3.3555299e+27
1.9766324e+26
-8.4119317e+25
-9.7398062e+25
2.0424928e+26
1.8961361e+26
-9.3894392e+25
-1.0252326e+26
-3.2850811e+27
1.7921973e+26
-6.8172733e+26
-3.5206065e+25
2.9835137e+25
-8.6618996e+24
-4.7560944e+25
3.614183e+25
-8.3564453e+26
-3.7077447e+25
2.9068557e+25
-1.0838446e+25
3.4197722e+25
-5.2781725e+25
6.1018259e+26
-2.1551744e+25
3.4257704e+25
2.6506875e+25
3.9094051e+25
-3.1481419e+25
-7.1979674e+26
-2.5013578e+27
1.6836898e+26
-4.0846668e+25
2.8479533e+26
2.4008274e+26
-2.2235432e+25
-3.5314148e+25
2.7683613e+25
6.2238224e+24
-5.1808675e+25
3.2185798e+25
-2.7485402e+27
-1.7460003e+26
2.7732019e+26
-2.1875486e+26
1.6358501e+26
-3.5302172e+27
3.0538821e+26
-6.4792258e+26
-2.3459493e+25
-1.037444e+26
7.4393791e+24
-2.8568985e+25
-9.0000105e+26
1.7631225e+26
-3.4263083e+23
6.6955487e+26
-8.1537517e+26
-5.9436842e+25
-1.3660718e+24
-4.4064066e+25
4.1559307e+24
7.2521995e+26
-2.8390196e+25
-9.0592339e+26
-2.629148e+24
1.8748569e+25
2.2945555e+25
-3.9854961e+25
-8.2417775e+26
1.2302613e+25
-5.4024674e+25
3.1131373e+25
-6.1032449e+26
-9.3561882e+24
-1.2730096e+26
1.9348574e+25
-3.5622825e+24
1.0608889e+26
1.7170117e+25
-7.8961736e+26
-2.4266733e+27
5.3495953e+24
1.9377685e+26
4.7301291e+24
-1.1772402e+25
2.4007914e+26
-6.0736514e+26
-3.2126484e+25
1.230212e+25
-1.9657176e+25
-7.2666017e+26
3.456911e+25
-2.8637586e+25
1.1887762e+26
-2.7674846e+27
2.3744224e+27
-2.69243e+27
5.7148788e+25
2.6478414e+26
9.6770013e+24
1.5726319e+25
2.580554e+26
-6.5009057e+26
-1.4491428e+25
8.9408631e+26
2.5236533e+25
-3.7846366e+25
-5.771401e+25
3.2290174e+25
-8.3980145e+24
-7.4528235e+26
3.1641918e+25
-2.1904986e+25
3.5581815e+25
-3.5166815e+25
-5.9906261e+26
8.2471895e+26
-5.5101043e+25
-5.3844106e+25
3.3557205e+25
3.4946096e+25
-6.9519978e+26
-3.1308173e+25
4.0804617e+25
-3.5240345e+25
3.6434029e+25
7.2256785e+26
-1.1878776e+25
-4.1944854e+25
2.3716567e+25
3.1456273e+25
-6.3261393e+25
-1.5534018e+25
2.5081716e+25
-4.0034606e+25
-5.7194902e+25
3.4444462e+25
-6.659318e+26
3.8784376e+25
-5.2292495e+25
3.7104403e+25
-4.86182e+25
3.2633246e+25
3.4573322e+25
-5.9200895e+25
-5.3099923e+25
-1.4392127e+26
-6.4446748e+24
1.9186631e+24
-8.7362634e+24
-5.1652158e+24
-2.043129e+26
1.6371775e+26
-5.50862e+24
-2.1053557e+26
-8.6961095e+24
6.2222335e+24
7.7803503e+24
-1.1369299e+25
-7.3003049e+24
-9.3590944e+24
6.8769125e+24
-7.1580974e+24
8.4155237e+24
1.4980605e+26
-3.1953256e+24
-1.9475984e+26
-9.1675375e+24
8.8156826e+24
-8.7664483e+24
8.9533217e+24
-8.1412897e+24
-7.6586297e+24
9.1177328e+24
8.8320547e+24
-1.8993695e+26
-8.2496945e+24
-9.605522e+24
7.8479761e+24
9.5356386e+24
2.6807282e+24
1.6243072e+26
-2.0827847e+26
2.0281076e+24
-1.0650131e+25
8.0952772e+24
5.754696e+24
-8.8541236e+24
1.4657542e+26
-2.1146702e+26
-7.5389691e+24
2.2679012e+23
3.002023e+24
5.446701e+24
7.6771575e+24
-1.0315259e+25
-8.4445335e+24
-4.6869688e+24
-1.6606656e+26
1.5973974e+24
-2.7990407e+23
-1.1493832e+25
7.8542436e+24
-9.2644531e+24
5.5703075e+24
5.5452848e+24
-2.1157938e+26
-3.2933497e+24
-1.2448029e+25
-9.8866802e+24
5.2558904e+24
7.7243596e+24
1.4909935e+26
-2.1173973e+26
-9.5049048e+24
-5.4621109e+24
2.4705376e+27
-4.7751825e+26
-2.6110426e+26
5.5369917e+26
5.5111295e+26
5.8553325e+26
-2.255722e+25
1.5624576e+26
5.6012139e+26
5.2795207e+26
-3.4295152e+25
1.9804814e+25
7.2394357e+25
-5.1138956e+25
2.2217109e+25
4.0281863e+24
5.7708523e+25
2.9404019e+24
4.8221992e+25
-4.3054435e+26
8.8943924e+25
7.6707791e+25
2.1868603e+23
1.5362097e+26
-1.6086671e+24
-1.8165504e+26
-9.4733739e+24
8.3528353e+24
7.4215549e+24
-6.823213e+24
1.3692612e+26
2.230445e+24
-1.7927545e+26
3.077859e+23
2.0611838e+26
-2.9976238e+24
-1.3306289e+25
7.1425872e+24
5.5846975e+24
-1.0077576e+25
2.0603388e+26
1.4558962e+24
1.6547095e+26
5.7938525e+24
-3.4702834e+24
-1.4016661e+25
6.5715973e+24
4.8345354e+24
-1.0958587e+25
3.795621e+24
-4.0056154e+24
6.7590164e+24
-1.3472609e+25
-1.049906e+25
4.9543711e+24
1.4731662e+26
-7.4887229e+24
-6.0445602e+24
-1.1722785e+26
-2.7031539e+27
1.7364891e+26
-1.9629521e+26
-2.0885449e+26
1.6558235e+26
1.2333413e+24
-1.4988897e+24
-8.5096549e+26
-5.0732634e+25
-5.1573265e+25
3.4928058e+25
3.3113871e+25
-8.5268402e+26
-4.7877215e+25
-5.0348481e+25
3.6088049e+25
3.6914188e+25
-5.0268894e+25
-4.9028622e+25
3.5107737e+25
-8.7082405e+26
-2.6743714e+27
1.7507854e+26
1.6016197e+26
-2.1113487e+26
-2.0899065e+26
-1.0735117e+26
2.0066772e+26
-9.4028616e+25
-1.037474e+26
-3.4552428e+27
1.9650357e+26
-3.4153771e+27
1.9779193e+26
-9.8405802e+25
-1.0246833e+26
1.8465828e+26
1.0153098e+25
-6.5566953e+26
-1.0294016e+25
3.6643018e+25
3.2403952e+25
-5.0314968e+25
-5.2533015e+25
-6.3961093e+26
3.6063074e+25
3.3076815e+25
-5.4060793e+25
-4.7924709e+25
1.3660574e+25
-2.1472947e+25
-8.1398261e+26
-5.1954752e+25
-5.4949989e+25
3.2240072e+25
3.7276039e+25
-7.9234702e+26
-5.006982e+25
-5.6641257e+25
3.1183198e+25
3.5302096e+25
6.7969441e+24
-6.4909291e+26
2.6670909e+22
3.5937727e+25
3.2978041e+25
-5.1781917e+25
-5.1657369e+25
-6.4338759e+26
3.3181533e+25
3.4317768e+25
-4.9728374e+25
-5.3466217e+25
6.2874038e+24
-8.0293169e+26
-8.0999038e+24
-5.3374617e+25
-5.2793062e+25
3.3817954e+25
3.6579119e+25
-8.2111726e+26
-5.0047177e+25
-5.4586707e+25
3.5026759e+25
3.6757114e+25
-2.1710748e+26
-2.6686385e+27
2.1740757e+26
-3.7831131e+25
2.5970112e+26
2.5351264e+26
-6.285275e+25
-5.8217384e+26
-1.3428966e+23
-1.519809e+24
-4.7386378e+25
-4.8973568e+25
3.5410973e+25
3.9508728e+25
-3.9741791e+24
1.4812689e+25
-7.0900394e+26
-2.7744769e+25
-2.7796669e+25
4.2242746e+25
4.5171223e+25
6.0554326e+26
-3.8911019e+24
-7.363727e+26
-3.0062903e+25
4.4973183e+25
-2.7979262e+25
4.6417466e+25
1.4706066e+25
3.5833136e+25
-5.179303e+25
3.7215253e+25
-4.7420328e+25
-5.8728078e+26
1.3124741e+24
-4.6978462e+25
-5.0812441e+25
3.9751217e+25
3.4345175e+25
-8.5166964e+24
-2.8475795e+25
-2.9504158e+25
4.092729e+25
4.5084028e+25
-7.045808e+26
5.7134012e+26
-3.0233241e+25
-3.057603e+25
3.9913194e+25
4.0951735e+25
-6.7592872e+26
-2.6181811e+27
2.6045572e+26
2.3088244e+26
-5.1061868e+25
-3.9531417e+25
-4.8643472e+25
-5.3135828e+25
3.5061717e+25
3.2466736e+25
-2.1910131e+26
-2.9347723e+27
2.6569811e+26
-3.155825e+26
-2.8904225e+27
-2.8525924e+26
1.5961476e+26
-2.0447523e+26
7.1829302e+24
-7.2252232e+24
-7.8832541e+24
-1.0363683e+25
8.049841e+24
6.9213086e+24
-6.9872109e+24
-6.2601729e+24
-1.0294195e+25
7.6686313e+24
-1.6317479e+26
-7.7766024e+24
6.8878989e+24
-8.5032482e+24
7.7810429e+24
-1.0953869e+25
-2.0891781e+26
-8.5272146e+24
6.6239906e+24
-9.7606706e+24
7.2448989e+24
-1.2124577e+25
-1.5399105e+26
2.0671331e+26
6.388192e+24
-9.1077723e+24
-4.5081469e+24
7.665153e+24
-1.2609677e+25
7.5894428e+24
-6.8487664e+24
7.4085411e+22
-1.8272606e+26
8.3122486e+24
-9.6429218e+24
-5.4221685e+26
-7.9926304e+24
4.1191833e+25
6.7520166e+25
5.4072194e+25
-3.3446309e+24
2.2405356e+25
7.5383422e+25
1.6562671e+26
6.2347402e+24
-9.4124069e+24
-8.9068913e+24
-1.3101592e+25
6.9753968e+24
-9.1258844e+24
6.083573e+24
-8.022392e+24
-1.2944021e+25
6.8588858e+24
3.4013242e+27
1.70165e+26
-1.2191546e+26
-3.2713917e+27
2.2364431e+26
1.5385873e+26
-2.1113444e+26
2.4851982e+26
-2.1250877e+26
1.801259e+26
-3.4219848e+27
2.308317e+26
1.822456e+26
-2.1630527e+26
-7.0523861e+26
-3.2693649e+25
-6.692702e+24
-3.9267128e+25
-8.6037698e+26
-1.7071463e+25
7.9490166e+26
-7.5899887e+26
-4.3885731e+25
2.0068125e+25
2.3200699e+25
-1.2245541e+25
-6.367326e+25
2.1908264e+25
-4.2293687e+25
-5.8363835e+24
-5.8501282e+25
2.6909387e+25
7.2808972e+26
-3.2006407e+25
-4.0387709e+24
-9.0718229e+26
1.1821207e+25
-7.7168158e+26
-5.6241991e+25
1.4190641e+25
-5.3241322e+25
3.1249008e+25
2.9749633e+25
1.5734398e+26
-8.8722818e+24
4.9559469e+24
-2.0170174e+26
-5.2068563e+24
6.1593863e+24
-1.1868256e+25
4.9028704e+24
-8.69782e+24
5.1124553e+23
-1.0700268e+25
6.5343039e+24
-6.3943527e+26
-2.8598457e+25
-2.8292377e+24
-2.5565995e+24
3.9139037e+24
-7.4553766e+26
-4.8476046e+26
1.6906721e+25
-1.6515479e+26
3.7168199e+25
2.2390047e+25
-5.8696484e+26
4.0683403e+25
4.3861162e+25
5.6463597e+26
-6.266822e+26
6.6431068e+24
6.6020956e+25
2.3024964e+25
7.1936854e+25
-7.161707e+26
2.1556082e+25
-4.1556642e+25
-3.3778891e+24
-5.8972845e+25
2.3227046e+25
2.8187496e+25
-2.6149201e+25
-6.9607143e+26
1.5188514e+25
3.1042241e+25
-3.6355641e+25
-2.6340597e+27
-1.2161883e+26
2.4326865e+26
6.2030353e+26
6.4265998e+26
1.5467855e+26
2.5110301e+27
-4.2732365e+26
5.93853e+26
5.6147386e+26
1.2055873e+26
5.8838456e+26
5.5973323e+26
-5.4880903e+26
2.1166561e+24
-1.7901625e+24
4.2582709e+25
5.270599e+25
-4.2792342e+24
-7.2299247e+24
6.8594102e+25
5.2557653e+26
6.4198637e+25
-1.0601385e+24
5.920842e+25
5.504165e+25
-4.2398081e+23
-1.4634039e+26
-7.7059445e+24
2.0932391e+26
-8.4848665e+24
-7.0569659e+24
-2.0906717e+26
-9.6191806e+24
1.7109831e+26
-2.0550956e+26
-1.1431271e+25
-1.2061391e+25
3.2364269e+24
4.8105842e+24
-1.4913965e+25
-3.6418012e+24
2.2073292e+26
2.9975825e+24
-1.2814466e+25
-1.6076153e+25
4.48453e+24
-1.4658221e+26
-1.1231567e+24
-1.5323224e+24
-2.0380534e+24
-2.5620473e+24
-1.9003622e+26
-1.4810618e+26
-1.2207047e+25
-1.0737613e+25
-7.7719809e+24
-1.760388e+26
-1.5002063e+24
1.4021895e+24
1.5883018e+26
-2.0563309e+26
-1.4726883e+25
5.2067357e+24
5.0091752e+24
-1.6620551e+25
1.5534622e+26
-1.9569769e+26
5.5075052e+24
7.477779e+24
-1.5375912e+25
-1.317006e+25
2.4726538e+24
2.0574611e+26
-1.5804604e+25
4.5227954e+24
5.9511194e+24
-1.4142431e+25
2.0002092e+26
-1.3178933e+25
6.3441201e+24
7.461215e+24
-1.1887929e+25
1.5821439e+26
4.5448638e+22
-1.8867381e+26
4.5486618e+24
-8.4884569e+24
-1.1696187e+25
6.969847e+24
-1.879433e+23
4.3776478e+24
-1.21037e+25
-1.6197026e+25
5.2899235e+24
1.4707734e+26
-1.7686051e+26
-1.2031235e+25
6.7117057e+24
-1.0104591e+25
8.4037512e+24
-1.5747227e+25
5.7234598e+24
7.6090983e+24
-1.2957208e+25
1.4731227e+26
-1.0656068e+25
-1.3162834e+25
-7.6383799e+24
2.0670426e+26
-7.9688656e+24
-1.7141574e+26
2.1726546e+26
-3.8068463e+24
-1.1923901e+25
5.3108212e+24
3.7150607e+24
-1.5326884e+25
-2.823069e+24
2.8576072e+24
4.376598e+24
-1.2729791e+25
-1.6281595e+25
-1.4423972e+26
-7.1371267e+24
-5.9460303e+24
-9.6805338e+24
-1.0183188e+25
1.6709957e+26
-2.1697506e+24
-1.0975557e+25
3.9916967e+24
-1.3503773e+25
5.9478929e+24
-3.9996835e+24
-1.0130241e+25
4.5769954e+24
6.2696549e+24
-1.2845367e+25
-1.5310167e+26
-2.6746682e+24
-1.0762545e+25
7.5456367e+24
8.3792331e+24
-9.3610861e+24
-9.5644972e+23
-1.9918956e+26
-1.1775858e+25
6.6376317e+24
7.9031944e+24
-1.0182815e+25
-1.5056687e+26
9.1250404e+24
-8.7392001e+24
7.6033105e+24
-9.9274393e+24
-1.941968e+26
8.7371341e+24
-9.5233335e+24
7.4427291e+24
-1.0573101e+25
-3.936973e+23
-1.5784051e+26
-1.3578984e+25
-1.1271998e+25
5.6018136e+24
7.1202629e+24
-1.5438825e+26
-1.0431947e+25
-1.0998218e+25
7.3461997e+24
8.1751606e+24
1.9977992e+24
-1.5177112e+25
5.0606379e+24
-1.2686234e+25
6.6865705e+24
7.1364736e+24
-1.1998574e+25
7.3778003e+24
-1.1278488e+25
3.1699873e+25
-2.3454139e+24
-1.6134841e+24
-4.5309349e+25
-1.9461136e+24
4.510976e+25
-2.8557288e+23
-3.5113597e+25
4.2977109e+25
-3.4405375e+24
1.6988936e+24
1.524731e+24
-1.0938235e+24
-7.1851815e+23
-2.4208891e+24
-4.7416233e+25
1.9145283e+24
-1.2208427e+24
-1.5647163e+24
1.8798556e+24
2.0782048e+24
3.3859075e+25
-1.8485503e+24
-2.0088973e+24
-1.5614602e+24
1.5085361e+24
1.5911284e+24
-3.1439438e+25
-1.8915225e+24
3.0351209e+23
-1.0738538e+23
-2.0808763e+24
-1.4861922e+24
1.6590792e+24
1.6662277e+24
-2.0039859e+24
3.0587707e+25
-1.0800843e+24
-4.2629656e+25
2.6427801e+24
-1.3965374e+24
-1.4912287e+24
1.7786091e+24
-1.6432905e+24
3.6959395e+25
1.5920527e+24
1.7389701e+24
-1.7153532e+24
-9.6890889e+23
2.992585e+25
-1.3770445e+24
-3.8875571e+25
-1.6280743e+24
2.0152574e+24
1.8205535e+24
-1.7274891e+24
3.8113322e+25
-1.5622635e+24
1.7996902e+24
2.0133819e+24
-1.6721073e+24
-1.4561294e+24
1.4843027e+24
2.9364315e+25
-1.6996358e+24
-1.3935608e+24
2.0213491e+24
1.7765674e+24
-1.5812872e+24
2.8871227e+25
-1.6719257e+24
-1.5784664e+24
1.7201603e+24
1.595528e+24
-1.5256689e+24
-1.6825593e+24
-1.5821876e+24
1.8442176e+24
1.6870915e+24
2.0513628e+24
-1.40084e+24
-1.6158534e+24
1.7629302e+24
-3.8659106e+25
-1.3305305e+24
2.1216814e+24
1.9513282e+24
-1.5522768e+24
-1.2710246e+24
3.0682817e+25
-3.9935499e+25
-1.4431929e+24
2.1642341e+24
1.9940019e+24
-1.8180606e+24
3.1933643e+25
-4.2226075e+25
-1.7145644e+24
2.050545e+24
8.1866672e+23
-1.9778847e+24
1.0552122e+24
9.2725176e+23
2.1789085e+24
-2.8436873e+24
-1.9573939e+24
2.0634229e+24
2.1164624e+24
-1.721642e+24
-1.4059445e+24
3.349189e+25
-3.0134546e+23
-4.3129083e+25
9.3350718e+23
-1.6450716e+24
-4.822885e+23
4.1837771e+25
1.4779237e+24
-1.2462164e+24
-3.4502303e+25
4.8241381e+25
-1.2837244e+24
-4.9288153e+25
-1.5948321e+24
2.6907236e+23
-3.3560799e+25
-1.4863246e+24
-3.2531309e+25
1.3446174e+24
-1.5481684e+24
-5.3007325e+23
1.0276847e+24
-1.5063921e+24
-1.2812334e+24
3.4568182e+25
3.0427802e+23
-4.437617e+25
-1.4454496e+23
-1.8455486e+24
5.2612811e+22
8.73599e+23
-1.6328542e+24
3.5181731e+25
-5.012358e+25
-1.7949145e+24
-1.5955959e+24
8.1787931e+23
3.5656333e+25
-4.5797845e+25
-1.4573456e+24
-1.6670288e+24
3.5979242e+25
-5.146098e+25
-2.1142642e+24
-3.8756349e+23
-1.8768861e+24
-2.4923208e+23
-1.1338013e+24
2.4973056e+27
2.5807966e+27
-6.5769462e+26
2.8015001e+26
5.6245807e+26
6.0551444e+26
1.867822e+26
-6.5192121e+25
5.578069e+26
5.2092307e+26
1.4328994e+26
1.4291226e+26
1.4770747e+26
1.39076e+25
6.5614422e+25
1.4148956e+26
1.3389792e+26
-7.6660438e+24
4.3552803e+24
1.6731012e+25
-9.7760475e+24
2.4996389e+24
-2.2086856e+24
1.1653368e+25
9.7672915e+24
-1.9841448e+24
1.1573904e+26
1.4454958e+25
1.6101393e+25
3.5360803e+25
9.2678506e+23
-2.2583636e+24
-4.3045182e+25
-4.5740883e+23
1.0315966e+24
4.7014033e+25
-2.8487158e+24
-1.4832634e+24
-3.6261549e+25
5.3405809e+25
-1.1016543e+24
-9.3148714e+23
-4.807525e+25
3.7787617e+25
1.7092666e+24
-3.2343548e+24
-2.5547686e+24
1.4889207e+24
4.8335236e+25
-2.247788e+24
-2.6461435e+24
-3.8454249e+25
5.4191008e+25
-2.2749306e+24
-2.5245201e+24
3.7790685e+25
1.3658348e+24
-2.019405e+24
-2.8185193e+24
1.1599532e+24
4.6920331e+25
-1.4822844e+24
-2.2356964e+24
-3.8034356e+25
5.2740892e+25
-2.4772909e+24
-2.8485041e+24
-3.6675547e+25
1.3471752e+24
-1.8104523e+24
-1.899986e+24
1.2607149e+24
-2.2101148e+24
-2.2784092e+24
3.6829802e+25
-2.453132e+24
-2.246057e+24
-6.5272982e+26
-6.336359e+23
-5.2869803e+25
-4.8982509e+25
3.4182132e+25
3.4680702e+25
-2.3537308e+23
-8.2212608e+26
3.6830494e+25
-4.90706e+25
-5.3350185e+25
3.6264909e+25
6.4387149e+26
9.0155727e+24
-8.2190273e+26
-5.3018451e+25
-5.4607404e+25
3.5005426e+25
3.2546254e+25
2.6363904e+24
3.1245657e+25
-5.3937015e+25
-5.261238e+25
3.052212e+25
7.7105795e+23
1.4955936e+26
-1.4714896e+24
-1.8943928e+26
6.9473437e+24
6.3898925e+24
-1.1648138e+25
-1.1841383e+25
1.5174572e+26
1.4459955e+23
-1.9294471e+26
6.77791e+24
6.863041e+24
-1.1980227e+25
-1.1408542e+25
-1.1279596e+24
8.3334751e+23
-1.0225931e+25
7.3145014e+24
-1.0560262e+25
7.5772698e+24
-1.833418e+24
-1.0423223e+25
7.5598898e+24
-1.0204624e+25
7.2327373e+24
-1.1213416e+24
1.5039912e+26
2.4229731e+24
-1.9073712e+26
7.1069522e+24
7.0383414e+24
-1.1185548e+25
-1.1800534e+25
1.5305311e+26
-1.9467787e+26
7.0577796e+24
6.7452112e+24
-1.1831091e+25
-1.1672358e+25
-1.3788808e+24
-9.844897e+24
7.6258212e+24
-1.0355371e+25
7.8018667e+24
-1.0327163e+25
7.8607991e+24
-1.026584e+25
7.5408883e+24
6.3112439e+23
-4.1517669e+23
7.0775095e+24
6.7191039e+24
-1.9445554e+26
-1.1602345e+25
-1.1642319e+25
1.5145042e+26
6.8954993e+24
6.9794615e+24
-1.921842e+26
-1.1819228e+25
-1.1190922e+25
-1.005157e+25
7.3810352e+24
-1.050467e+25
2.6994537e+24
-6.5935771e+26
3.4403413e+25
3.3512975e+25
-5.0931168e+25
-5.343598e+25
4.0228902e+22
7.0195767e+24
6.624877e+24
-1.8841681e+26
-1.1341002e+25
-1.1495225e+25
6.759612e+24
6.8554219e+24
-1.9390208e+26
-1.1885028e+25
-1.1376578e+25
-6.3885321e+26
3.2093119e+25
3.3891929e+25
-5.1578872e+25
-5.2243812e+25
-5.6222146e+24
-8.0715576e+26
3.2174673e+25
-5.6207328e+25
-5.3063524e+25
3.17863e+25
-8.3089854e+26
3.5373671e+25
-5.1232553e+25
-5.3831639e+25
3.5634125e+25
-6.000513e+26
-5.6857035e+24
3.7116557e+25
-4.9060284e+25
-4.8707637e+25
3.8577588e+25
-9.3428717e+24
-7.2705887e+26
-2.9916906e+25
-2.9385385e+25
4.3712262e+25
4.3404774e+25
6.0577469e+26
-2.8864339e+24
4.5382954e+25
-3.0908146e+25
-2.9644356e+25
4.4575594e+25
-7.4538445e+26
-1.8479228e+26
-2.7702005e+27
2.5631282e+26
2.4881652e+26
-5.6383294e+25
-8.0273418e+25
4.2635204e+24
3.6008474e+25
-5.1277757e+25
-4.9358067e+25
3.5053703e+25
-2.7628038e+27
2.6256777e+26
2.4062246e+26
-6.2168395e+25
-6.7383023e+25
-6.0522137e+26
1.6157217e+24
3.6173733e+25
-5.0307723e+25
-4.9542637e+25
3.8439297e+25
-2.4490121e+24
-7.3305774e+26
-3.0107826e+25
4.3107457e+25
-2.9681076e+25
4.5674702e+25
5.9066806e+26
-7.0946634e+26
-3.0152036e+25
-2.914982e+25
4.4062626e+25
4.3933038e+25
-5.2027957e+25
-4.8704843e+25
3.4713631e+25
3.4285684e+25
1.9884738e+26
-2.995814e+27
-3.9701969e+26
-3.0630241e+27
-3.9549406e+26
-4.3783502e+24
-1.5171069e+26
6.446238e+24
7.2005663e+24
-1.146056e+25
-1.0497818e+25
7.7015152e+24
-1.4913765e+26
-4.2749414e+24
6.7043564e+24
-1.1124252e+25
-1.0771432e+25
7.6296841e+24
-5.4254958e+24
8.5430694e+24
-1.9756499e+26
-1.0749336e+25
-1.1840529e+25
7.1704489e+24
7.8411891e+24
-1.9341469e+26
-5.7972151e+24
-1.1042279e+25
-1.1499985e+25
6.7110036e+24
7.9470182e+24
-4.8182741e+24
-1.4896384e+26
7.3379366e+24
-1.1037733e+25
-9.5283834e+24
8.3582903e+24
-1.4994683e+26
6.92569e+24
-1.0864858e+25
-1.0296462e+25
8.0738068e+24
6.7701931e+24
-1.9525383e+26
7.0391613e+24
-1.1495383e+25
-1.071534e+25
8.1906545e+24
-1.9260459e+26
-9.8386781e+24
-1.1479629e+25
7.481855e+24
8.4394452e+24
-7.5484268e+24
1.5512302e+26
1.0654691e+25
-2.0114888e+26
-1.1507243e+25
-1.2865732e+25
7.2265478e+24
8.1112963e+24
1.5226773e+26
-8.0733802e+24
-1.9703455e+26
-1.190853e+25
-1.2491611e+25
6.7339485e+24
8.0080015e+24
6.3821392e+24
-6.9027384e+24
-1.175021e+25
6.7313682e+24
7.8952043e+24
-1.1262643e+25
9.0028396e+24
-1.0882667e+25
-1.2098814e+25
7.2250079e+24
7.9698525e+24
-8.1973757e+24
1.5228717e+26
-1.9552818e+26
-1.0879269e+25
-1.2839294e+25
7.023311e+24
8.303172e+24
1.5335954e+26
-1.9812056e+26
-1.159379e+25
-1.2722767e+25
6.622729e+24
8.2709155e+24
6.4110957e+24
6.6622323e+24
-1.2014335e+25
-1.0961682e+25
8.1944526e+24
7.0462971e+24
-1.2081097e+25
-1.0276787e+25
8.2041224e+24
-1.362366e+24
-1.5259043e+26
2.70271e+24
7.4965917e+24
-1.1060911e+25
-1.0841326e+25
7.3326195e+24
-1.4962772e+26
-3.5080747e+23
-1.1220088e+25
-1.0995125e+25
6.9658216e+24
7.4118078e+24
2.0135585e+23
-4.1875984e+25
-2.2915439e+24
1.9358733e+24
-1.9387629e+26
-1.2488468e+24
-1.1522889e+25
-1.1290153e+25
7.0485961e+24
7.5441216e+24
3.9425817e+24
-1.9833191e+26
7.3478293e+24
-1.1800524e+25
-1.1106563e+25
7.6366918e+24
2.5645869e+24
-1.5147781e+26
6.8630514e+24
-1.1206201e+25
-1.103699e+25
7.434731e+24
-1.4969931e+26
-1.0556707e+25
-1.1363927e+25
7.1890328e+24
7.2996642e+24
-4.0275355e+24
-1.9351689e+26
-1.0771379e+25
-1.1709006e+25
7.1751871e+24
7.6247358e+24
-1.968705e+26
-1.1285817e+25
-1.1518081e+25
6.886443e+24
7.7589837e+24
3.8287809e+24
1.5242047e+26
-1.9578085e+26
-4.106442e+24
7.0475303e+24
-1.2302221e+25
-1.2244091e+25
7.7622583e+24
1.5517846e+26
6.3790097e+24
-2.0118594e+26
-1.2025103e+25
-1.2635157e+25
7.5917158e+24
7.7327672e+24
2.6880642e+24
-2.4798745e+24
-1.1613727e+25
-1.1096388e+25
7.1883698e+24
7.6757152e+24
4.556603e+24
-1.1917596e+25
7.4010104e+24
7.4821658e+24
-1.1408434e+25
-5.8885751e+24
1.5143928e+26
-1.9514373e+26
-1.1604651e+25
-1.2227647e+25
7.7614326e+24
7.5433434e+24
1.5353638e+26
-1.9878798e+26
-1.2098861e+25
-1.2010573e+25
7.9779466e+24
7.2868312e+24
4.4387689e+24
-1.1591857e+25
7.0184357e+24
7.7656966e+24
-1.1381798e+25
-1.17854e+25
7.3087156e+24
7.5718154e+24
-1.0879601e+25
5.6110306e+26
-3.9619947e+25
-6.1254069e+26
5.3095786e+25
1.3091723e+23
-2.9336468e+25
3.7701179e+25
-4.9134442e+24
5.8872475e+25
5.8593037e+25
-9.1163436e+24
-5.7384137e+26
-4.1550009e+25
5.7896856e+25
6.0465554e+25
-7.2784225e+24
-7.8890175e+24
-6.5458831e+25
-6.1247294e+26
1.6178211e+24
-5.4507949e+24
1.5355494e+26
-1.9323875e+26
6.3514455e+24
-1.2093739e+25
-1.3047461e+25
8.2668236e+24
8.2711956e+24
1.5042351e+26
-1.8877873e+26
-7.1810062e+24
-1.2165927e+25
-1.2629324e+25
7.425221e+24
8.4819301e+24
4.7305738e+24
-5.1851979e+24
-1.2169468e+25
-1.2428451e+25
7.1074384e+24
7.9987516e+24
6.3080038e+24
7.47598e+24
-1.2878124e+25
-1.2046851e+25
7.7492972e+24
1.7210528e+24
1.4074927e+26
-1.3049891e+24
-1.7183682e+26
-8.6709383e+24
9.3905988e+24
-8.3385676e+24
1.0545679e+25
1.442061e+26
5.0900477e+24
-1.7743998e+26
1.0241711e+25
-9.3144165e+24
9.5159121e+24
-8.3749736e+24
3.8574298e+24
-4.9717557e+24
-1.150043e+25
-1.0890103e+25
8.280747e+24
9.437414e+24
5.4638463e+24
8.4553459e+24
-1.2179507e+25
-1.080333e+25
9.0596637e+24
1.4791075e+26
4.5952334e+24
-1.8047967e+26
-9.0933542e+24
9.277899e+24
1.1207951e+25
-8.3916385e+24
6.1943558e+24
1.9695735e+26
8.3157504e+24
-1.1775696e+25
-1.0951435e+25
9.6074775e+24
1.4567229e+26
5.0035048e+24
-1.7708963e+26
-9.3026226e+24
9.4948798e+24
1.0894501e+25
-8.0569333e+24
1.9402788e+26
9.2595754e+24
-1.0526383e+25
-1.2138987e+25
8.4079238e+24
9.2541303e+24
-1.5347119e+26
5.9285238e+24
7.5669567e+24
-1.2471446e+25
-1.2209969e+25
8.0102985e+24
7.2256806e+24
7.3134662e+24
-1.2667304e+25
-1.2167411e+25
8.3401496e+24
-1.5173725e+26
9.1434797e+24
7.7473735e+24
-1.2987802e+25
-1.182993e+25
7.6641961e+24
1.1660846e+25
7.3405533e+24
-1.320214e+25
-1.1732408e+25
8.0291421e+24
-9.098863e+24
1.5411863e+26
-1.9453684e+26
1.0951494e+25
-1.1713581e+25
-1.3285081e+25
7.9940053e+24
8.5918064e+24
1.5206073e+26
-1.9101533e+26
-1.1983582e+25
-1.3012376e+25
7.036263e+24
8.6638535e+24
-8.1955042e+24
1.0143201e+25
-1.1631653e+25
-1.3073984e+25
7.2967269e+24
8.1821867e+24
-1.1948519e+25
-1.2755145e+25
6.8120151e+24
8.2109779e+24
-4.2960804e+24
1.4518892e+26
5.428359e+24
-1.7678448e+26
-8.2404893e+24
-9.5196307e+24
9.4022268e+24
1.0345421e+25
1.4287729e+26
-1.7402922e+26
-8.2853112e+24
-9.1099519e+24
9.0441912e+24
1.0706296e+25
7.4102334e+24
-1.0781177e+25
-1.199738e+25
7.8657913e+24
9.5513647e+24
8.8623684e+24
8.2336199e+24
-1.2465467e+25
-1.071903e+25
9.234862e+24
-3.9058476e+25
-5.495879e+26
5.7692323e+25
5.7985342e+25
-4.6178647e+24
-8.0883762e+24
-3.2114329e+24
1.4201778e+26
-1.6969018e+26
-8.5671581e+24
-9.3870284e+24
9.1603229e+24
9.5185698e+24
1.4456884e+26
-1.7548255e+26
-8.2437388e+24
-9.1377678e+24
9.2697116e+24
1.066643e+25
5.4003239e+24
1.9336688e+26
-1.0769678e+25
-1.2145619e+25
7.900279e+24
9.5922279e+24
1.9102452e+26
7.8058309e+24
-1.2567438e+25
-1.1002951e+25
8.6017336e+24
-5.1921705e+26
5.3260725e+25
5.8767765e+25
-3.6531586e+24
-5.7428309e+24
5.616171e+25
1.1400931e+25
7.0980008e+24
-8.2499845e+24
1.5166358e+26
-1.16378e+25
-1.3477697e+25
7.0042674e+24
8.171804e+24
1.5253976e+26
-1.1887147e+25
-1.3226484e+25
6.8674611e+24
8.6389733e+24
-6.8952549e+24
-1.1380324e+25
-1.336401e+25
6.8358895e+24
7.9784237e+24
-1.1789479e+25
-1.3082208e+25
6.6785961e+24
8.3269782e+24
1.9183664e+26
5.612009e+26
5.5110426e+26
-7.715799e+25
3.5661624e+25
-4.5247281e+25
1.6642287e+23
-2.5392625e+24
4.4168894e+25
3.9749332e+23
-2.1386383e+24
3.4599788e+25
1.5639416e+23
-2.1627118e+24
-4.5461373e+22
-2.0710297e+24
-3.6444197e+25
-1.863315e+23
-2.4312924e+24
-4.6065326e+25
-4.5119252e+23
-2.676447e+24
-3.7408517e+25
-5.3891519e+23
-2.749874e+24
-4.7602618e+25
-1.0725495e+24
-2.9721847e+24
-4.0219738e+25
5.0643142e+25
-1.8959856e+24
-3.1371834e+24
-4.9383208e+25
-2.3371638e+24
-3.6335522e+24
-1.3546662e+26
8.6895806e+24
-3.8774249e+24
1.0731084e+25
-3.5274755e+24
1.0898401e+25
-3.7804207e+25
-2.043335e+24
-2.3250641e+24
-1.3596757e+24
-1.8388592e+24
-4.5180077e+25
8.5529399e+24
1.4798253e+25
3.9990293e+25
-1.599804e+24
-3.6974348e+24
4.9094731e+25
-1.2470085e+24
-3.3593135e+24
3.8590277e+25
-1.5756433e+24
-3.3170486e+24
-1.5803968e+24
-2.819109e+24
2.9091058e+27
-2.1854872e+25
2.268836e+26
2.1900261e+26
1.7980433e+26
-3.1619859e+27
2.1819291e+26
-3.7454966e+25
2.5336667e+26
2.4452141e+26
3.2889247e+27
1.8259342e+26
-1.1255737e+26
-3.2251961e+27
1.7523866e+26
1.587062e+26
-1.0855042e+26
1.6540143e+26
-2.0368191e+26
1.7157678e+26
1.486568e+26
-2.1052064e+26
-3.3734413e+27
1.600869e+26
-2.1449812e+26
-2.0716267e+26
1.9392214e+26
1.7880572e+26
-7.21711e+26
-5.2426742e+24
-1.0595483e+24
-3.6563116e+25
-8.9056028e+26
-1.4931644e+25
-6.9842504e+26
-4.2210995e+25
-7.8375045e+24
-5.4658351e+25
-8.4752261e+26
-1.6997234e+25
-1.6258706e+26
2.055514e+26
-9.6719292e+24
4.8206129e+24
-1.4719559e+25
4.5502032e+24
-1.2711777e+25
7.4086523e+26
-7.1028745e+26
2.6130292e+25
-6.6637318e+25
-1.7457018e+25
1.978768e+25
-5.9305238e+25
-2.0820918e+26
5.0372934e+24
-9.90882e+24
-1.5870959e+25
-1.5061632e+25
4.5902003e+24
-6.5184931e+24
-6.4737133e+25
-5.6878686e+25
2.7553706e+25
2.1716934e+25
1.6041388e+26
-9.1117015e+24
4.941966e+24
-1.1141368e+25
-1.337394e+25
5.138141e+24
-9.1057188e+24
4.618544e+24
-8.0399898e+24
5.0193037e+24
-1.2816612e+25
-7.9092519e+26
2.5676947e+25
-4.416255e+25
-4.4408804e+25
2.2622649e+24
1.4696881e+26
-1.9041299e+26
-1.2739391e+25
-2.7121771e+24
6.2528521e+24
6.5942348e+24
-1.2455549e+25
-7.7530469e+26
-5.4030742e+25
5.4817825e+24
-5.6133432e+25
3.2884217e+25
3.3805225e+25
1.4518895e+26
-1.8948823e+26
-1.1497287e+25
-1.251611e+25
6.0470699e+24
6.0797379e+24
1.915557e+24
6.7104044e+24
-1.0604695e+25
-1.049826e+25
6.3195959e+24
8.3442669e+23
-1.0514774e+25
-1.0548106e+25
7.1778362e+24
6.950374e+24
-3.3819648e+25
4.2282604e+25
1.0356545e+24
-2.0772161e+24
-5.0226861e+23
-2.2994814e+24
1.2541883e+24
9.931132e+23
-2.1892356e+24
-4.2436807e+25
-1.9129563e+24
-2.8270805e+24
1.0715883e+24
3.304609e+25
-2.0737879e+24
9.372315e+23
5.2423767e+23
-2.1937516e+24
1.2349407e+24
-2.101455e+24
8.9527599e+23
6.906686e+23
-2.1333445e+24
1.2782465e+24
-6.1896772e+26
-4.0570039e+25
-8.220645e+24
-9.752836e+24
-5.9030508e+24
-7.1195522e+26
-5.5217784e+26
3.1263713e+25
3.0737707e+25
2.7553619e+25
4.6978353e+25
7.0153003e+26
-1.2504512e+25
4.7209195e+25
-9.6026454e+24
3.7068725e+25
4.7828204e+25
4.1674277e+25
-8.3093144e+24
-6.718377e+26
-5.4750602e+25
2.7517346e+25
2.0946419e+25
-1.4874652e+25
-6.123616e+25
1.6485695e+26
-2.047691e+26
-1.0330981e+25
5.5717835e+24
-1.5703212e+25
4.7535574e+24
-1.2970936e+25
4.9947773e+24
-1.0100045e+25
-1.3232631e+25
-1.4904571e+25
4.632434e+24
-6.5277753e+26
-3.3136016e+25
-3.6530064e+25
-2.7439039e+24
3.2605317e+25
2.6180223e+25
-1.5534657e+26
-8.9140101e+24
-1.0998541e+25
-4.3875649e+24
-1.8228298e+26
-7.5936495e+24
-2.6799466e+27
-1.7290782e+26
3.4325879e+26
5.9410944e+26
6.1054223e+26
1.8037552e+26
6.522462e+26
6.2700225e+26
2.4858558e+27
2.5494444e+27
2.7102057e+27
1.7726571e+26
1.7450261e+26
5.8924118e+26
5.4816184e+26
5.4768912e+26
5.0872056e+26
-7.414092e+24
1.4312263e+26
1.508608e+26
1.4796456e+26
5.9963746e+25
1.4997666e+26
1.4964535e+26
1.416197e+26
5.6530137e+25
1.4508398e+26
1.3754632e+26
1.1960561e+26
3.6574441e+24
8.4668115e+24
3.1214501e+24
6.0993993e+24
-1.3442436e+26