/*--------------------------------*- C++ -*----------------------------------*\
  =========                 |
  \\      /  F ield         | OpenFOAM: The Open Source CFD Toolbox
   \\    /   O peration     | Website:  https://openfoam.org
    \\  /    A nd           | Version:  7
     \\/     M anipulation  |
\*---------------------------------------------------------------------------*/
FoamFile
{
    version     2.0;
    format      ascii;
    class       volScalarField;
    location    "5000";
    object      pMean;
}
// * * * * * * * * * * * * * * * * * * * * * * * * * * * * * * * * * * * * * //

dimensions      [0 2 -2 0 0 0 0];

internalField   nonuniform List<scalar> 
33733
(
-4.2092965e+58
-4.3903429e+58
-4.2077215e+58
-4.2957957e+58
-4.2810469e+58
-4.0906944e+58
-4.2183412e+58
-4.2203921e+58
-4.3080813e+58
-4.2306655e+58
-4.2894257e+58
-4.4083076e+58
-4.4656789e+58
-4.4879479e+58
-4.4275915e+58
-4.2253499e+58
-4.0851143e+58
-4.2171138e+58
-4.2967784e+58
-4.4308903e+58
-4.4308085e+58
-4.3503231e+58
-4.3374037e+58
-4.300791e+58
-4.2847363e+58
-4.0916546e+58
-4.1813045e+58
-4.1606029e+58
-4.081622e+58
-4.2320606e+58
-4.2700077e+58
-4.2252722e+58
-4.2626868e+58
-4.3290318e+58
-4.3372703e+58
-4.2270236e+58
-4.236301e+58
-4.3553337e+58
-4.3052878e+58
-4.2364148e+58
-4.1816248e+58
-4.2701134e+58
-4.0926e+58
-4.4343062e+58
-4.3441338e+58
-4.282937e+58
-4.3001041e+58
-4.3611455e+58
-4.4385999e+58
-4.4983511e+58
-4.4719226e+58
-4.2489753e+58
-4.2215266e+58
-4.1774242e+58
-4.26353e+58
-4.2241342e+58
-4.0916557e+58
-4.0958932e+58
-4.17988e+58
-4.2665088e+58
-4.2329259e+58
-4.2689252e+58
-4.230547e+58
-4.3011062e+58
-4.3635265e+58
-4.3621757e+58
-4.3061169e+58
-4.4857497e+58
-4.4576593e+58
-4.4612465e+58
-4.4856264e+58
-4.4586434e+58
-4.4805162e+58
-4.4430877e+58
-4.3678837e+58
-4.3540845e+58
-4.3914199e+58
-4.3827619e+58
-4.3350493e+58
-4.3119251e+58
-4.2989364e+58
-4.3244573e+58
-3.9078498e+58
-4.0513672e+58
-4.2182443e+58
-4.2366112e+58
-4.2127035e+58
-4.1897404e+58
-4.2394286e+58
-4.2340869e+58
-4.2491726e+58
-4.2493337e+58
-4.2645213e+58
-4.283019e+58
-4.2555897e+58
-4.2767398e+58
-4.3519729e+58
-4.4830488e+58
-4.4850022e+58
-4.4775136e+58
-4.3488134e+58
-4.2288125e+58
-4.2328254e+58
-4.3810641e+58
-4.3713575e+58
-4.3270554e+58
-4.319779e+58
-4.3920878e+58
-4.389292e+58
-4.3367998e+58
-4.3322491e+58
-4.1565842e+58
-4.2958192e+58
-4.2388345e+58
-4.2416416e+58
-4.2907183e+58
-4.2882165e+58
-4.2403575e+58
-4.2438107e+58
-4.1758094e+58
-4.281718e+58
-4.1026994e+58
-4.1107205e+58
-4.3675245e+58
-4.3904701e+58
-4.3343292e+58
-4.312408e+58
-4.2530431e+58
-4.2444338e+58
-4.2314117e+58
-4.2094671e+58
-4.2666777e+58
-4.2851023e+58
-4.2486378e+58
-4.3243498e+58
-4.4654208e+58
-4.3679523e+58
-4.3041607e+58
-4.3308781e+58
-4.3971335e+58
-4.4676317e+58
-4.5305808e+58
-4.5112339e+58
-4.4825289e+58
-4.5127683e+58
-4.2576526e+58
-4.2296734e+58
-4.2178719e+58
-4.1953144e+58
-4.1904653e+58
-4.2174603e+58
-4.2734236e+58
-4.232755e+58
-4.0565804e+58
-3.9089501e+58
-4.0415905e+58
-4.226702e+58
-4.1982466e+58
-4.2209269e+58
-4.2366364e+58
-4.2756312e+58
-4.2432051e+58
-4.2482075e+58
-4.2778416e+58
-4.2295281e+58
-4.2185621e+58
-4.2271776e+58
-4.2186286e+58
-4.2593738e+58
-4.2705587e+58
-4.2873038e+58
-4.2932237e+58
-4.2271961e+58
-4.2362835e+58
-4.2333382e+58
-4.2461873e+58
-4.3106154e+58
-4.3474939e+58
-4.3529372e+58
-4.3209431e+58
-4.4171871e+58
-4.3827287e+58
-4.3915267e+58
-4.4182809e+58
-4.417581e+58
-4.3941737e+58
-4.4042398e+58
-4.3826186e+58
-4.3565232e+58
-4.3491521e+58
-4.3279909e+58
-4.3263145e+58
-4.47803e+58
-4.4878244e+58
-4.4845549e+58
-4.4796757e+58
-4.5073828e+58
-4.5199237e+58
-4.5091987e+58
-4.5142015e+58
-4.47059e+58
-4.4784871e+58
-4.4621286e+58
-4.4694274e+58
-4.4892714e+58
-4.501041e+58
-4.5080859e+58
-4.4966847e+58
-4.4799583e+58
-4.4533051e+58
-4.4441011e+58
-4.4545108e+58
-4.4608135e+58
-4.3785024e+58
-4.3854364e+58
-4.3800848e+58
-4.3719421e+58
-4.4067514e+58
-4.4112052e+58
-4.4046916e+58
-4.3974389e+58
-4.3532023e+58
-4.3594595e+58
-4.3445573e+58
-4.3528961e+58
-4.3279546e+58
-4.3188308e+58
-4.3268117e+58
-4.3348539e+58
-3.9149322e+58
-4.0503642e+58
-4.2294047e+58
-4.2909737e+58
-4.2498473e+58
-4.2661254e+58
-4.2396602e+58
-4.2435562e+58
-4.2436892e+58
-4.2352407e+58
-4.2321339e+58
-4.2526419e+58
-4.2580652e+58
-4.2495599e+58
-4.2402247e+58
-4.275331e+58
-4.2837024e+58
-4.2758795e+58
-4.2655374e+58
-4.30893e+58
-4.3013507e+58
-4.2912088e+58
-4.3000588e+58
-4.4086999e+58
-4.3478457e+58
-4.3445632e+58
-4.4066363e+58
-4.4770262e+58
-4.4801169e+58
-4.5084675e+58
-4.5053495e+58
-4.4820209e+58
-4.4806378e+58
-4.5109186e+58
-4.5094488e+58
-4.4725415e+58
-4.4744722e+58
-4.502953e+58
-4.4037033e+58
-4.4683362e+58
-4.4701309e+58
-4.3988106e+58
-4.3389866e+58
-4.343975e+58
-4.3045673e+58
-4.2440005e+58
-4.2427185e+58
-4.1414209e+58
-4.3019627e+58
-4.1515946e+58
-4.3006416e+58
-4.241554e+58
-4.2427479e+58
-4.2972153e+58
-4.100122e+58
-4.0953432e+58
-4.4054961e+58
-4.4090954e+58
-4.3829592e+58
-4.3861121e+58
-4.39619e+58
-4.4015947e+58
-4.3785668e+58
-4.373235e+58
-4.3288479e+58
-4.3321556e+58
-4.354412e+58
-4.3511996e+58
-4.3181195e+58
-4.3237019e+58
-4.346669e+58
-4.3407033e+58
-4.4189206e+58
-4.4210945e+58
-4.4574514e+58
-4.3966128e+58
-4.3946737e+58
-4.416504e+58
-4.4130472e+58
-4.3894372e+58
-4.3921187e+58
-4.339631e+58
-4.338573e+58
-4.3634508e+58
-4.361686e+58
-4.3366652e+58
-4.33923e+58
-4.3603219e+58
-4.3575259e+58
-4.1867284e+58
-4.2074764e+58
-4.2187419e+58
-4.1876359e+58
-4.2943836e+58
-4.2933379e+58
-4.3099232e+58
-4.3100746e+58
-4.2528214e+58
-4.2527708e+58
-4.2807847e+58
-4.2815206e+58
-4.248872e+58
-4.2758313e+58
-4.2484848e+58
-4.2718124e+58
-4.3082946e+58
-4.2907938e+58
-4.3046157e+58
-4.2873245e+58
-4.284922e+58
-4.2861816e+58
-4.3006668e+58
-4.3024145e+58
-4.2521139e+58
-4.250938e+58
-4.2749914e+58
-4.2738113e+58
-4.2214675e+58
-4.2517476e+58
-4.250895e+58
-4.2712199e+58
-4.2643877e+58
-4.2339428e+58
-4.2136724e+58
-4.1936724e+58
-4.2754749e+58
-4.2810157e+58
-4.2917269e+58
-4.2977277e+58
-4.0325783e+58
-4.3766287e+58
-4.3850811e+58
-4.4027826e+58
-4.4116766e+58
-4.3592113e+58
-4.3523146e+58
-4.3347821e+58
-4.3272952e+58
-4.2558873e+58
-4.2486498e+58
-4.2453859e+58
-4.2389511e+58
-4.2370012e+58
-4.282517e+58
-4.2759462e+58
-4.2860906e+58
-4.3022189e+58
-4.3102548e+58
-4.0471963e+58
-4.1709462e+58
-4.1960373e+58
-4.088086e+58
-4.2541275e+58
-4.3487179e+58
-4.4918004e+58
-4.5555012e+58
-4.4891134e+58
-4.3919422e+58
-4.3232625e+58
-4.3629729e+58
-4.3501712e+58
-4.3275493e+58
-4.4285694e+58
-4.40547e+58
-4.4404638e+58
-4.6144203e+58
-4.5344477e+58
-4.5406315e+58
-4.5107078e+58
-4.5432144e+58
-4.5715567e+58
-4.5021959e+58
-4.4915955e+58
-4.5267844e+58
-4.5380862e+58
-4.2741398e+58
-4.2442755e+58
-4.2245289e+58
-4.2040723e+58
-4.2045695e+58
-4.2320399e+58
-4.284247e+58
-4.2384671e+58
-4.285324e+58
-4.2348137e+58
-4.2107122e+58
-4.2049138e+58
-4.0510443e+58
-3.8926218e+58
-4.0225386e+58
-4.2090695e+58
-4.2230393e+58
-4.2589548e+58
-4.225645e+58
-4.2258996e+58
-4.2581167e+58
-4.2732814e+58
-4.2340641e+58
-4.2434081e+58
-4.2938822e+58
-4.240465e+58
-4.2452154e+58
-4.2595453e+58
-4.2581245e+58
-4.2962946e+58
-4.277447e+58
-4.2883596e+58
-4.3042889e+58
-4.2178214e+58
-4.2054494e+58
-4.2611449e+58
-4.2701855e+58
-4.2847352e+58
-4.2726892e+58
-4.2980157e+58
-4.2913978e+58
-4.2922829e+58
-4.2848168e+58
-4.2954518e+58
-4.3071993e+58
-4.3219888e+58
-4.3131435e+58
-4.3198916e+58
-4.3239254e+58
-4.3172991e+58
-4.3102552e+58
-4.2099756e+58
-4.1997994e+58
-4.2133244e+58
-4.2162021e+58
-4.2351616e+58
-4.2204992e+58
-4.2297364e+58
-4.2416687e+58
-4.2172073e+58
-4.2329482e+58
-4.2414089e+58
-4.2461384e+58
-4.2549082e+58
-4.2653929e+58
-4.2643998e+58
-4.2585087e+58
-4.3628011e+58
-4.3778459e+58
-4.3756295e+58
-4.3692059e+58
-4.3391397e+58
-4.3456014e+58
-4.3247013e+58
-4.3338389e+58
-4.4019584e+58
-4.4146025e+58
-4.403976e+58
-4.4148557e+58
-4.4370177e+58
-4.4508575e+58
-4.4540412e+58
-4.4383963e+58
-4.4382953e+58
-4.4500824e+58
-4.4396027e+58
-4.4321951e+58
-4.4079639e+58
-4.4155829e+58
-4.4112895e+58
-4.4058586e+58
-4.4312832e+58
-4.4239018e+58
-4.4207681e+58
-4.413996e+58
-4.4043236e+58
-4.3977919e+58
-4.394361e+58
-4.3879241e+58
-4.3737808e+58
-4.3788415e+58
-4.3829727e+58
-4.3832056e+58
-4.3717077e+58
-4.3624118e+58
-4.3677029e+58
-4.3768234e+58
-4.3398187e+58
-4.3488449e+58
-4.3531126e+58
-4.3567253e+58
-4.3514635e+58
-4.3473526e+58
-4.3443816e+58
-4.3379863e+58
-4.5025508e+58
-4.5071037e+58
-4.5025198e+58
-4.4983268e+58
-4.4899872e+58
-4.4922566e+58
-4.4858922e+58
-4.4622667e+58
-4.5146965e+58
-4.5216733e+58
-4.5240681e+58
-4.5167159e+58
-4.5357411e+58
-4.5388556e+58
-4.5308722e+58
-4.5287852e+58
-4.4784925e+58
-4.4842581e+58
-4.4780237e+58
-4.4780999e+58
-4.4928383e+58
-4.499047e+58
-4.490192e+58
-4.4952521e+58
-4.4715179e+58
-4.4725062e+58
-4.4641584e+58
-4.4610507e+58
-4.4770972e+58
-4.4855106e+58
-4.4740387e+58
-4.4824737e+58
-4.4961077e+58
-4.5001288e+58
-4.4918188e+58
-4.4875441e+58
-4.5041368e+58
-4.511106e+58
-4.5138081e+58
-4.5074876e+58
-4.5173628e+58
-4.5249449e+58
-4.5276191e+58
-4.5201136e+58
-4.512926e+58
-4.5098982e+58
-4.5018759e+58
-4.5051661e+58
-4.4819456e+58
-4.4862797e+58
-4.480327e+58
-4.4746929e+58
-4.4547019e+58
-4.4585812e+58
-4.451515e+58
-4.4473616e+58
-4.4463092e+58
-4.4520438e+58
-4.4410983e+58
-4.4373331e+58
-4.4433065e+58
-4.4606404e+58
-4.4536429e+58
-4.4622777e+58
-4.4633355e+58
-4.4714774e+58
-4.4617511e+58
-4.4688504e+58
-4.3784814e+58
-4.3904928e+58
-4.4167762e+58
-4.4052926e+58
-4.4402378e+58
-4.4337228e+58
-4.4526545e+58
-4.3572532e+58
-4.3675421e+58
-4.3311909e+58
-4.3437932e+58
-3.9127705e+58
-4.199916e+58
-4.2280409e+58
-4.3079322e+58
-4.2912423e+58
-4.2397183e+58
-4.2294443e+58
-4.2727124e+58
-4.2573537e+58
-4.2584336e+58
-4.2629933e+58
-4.2712431e+58
-4.2840284e+58
-4.294393e+58
-4.3189659e+58
-4.3076279e+58
-4.4853816e+58
-4.4096659e+58
-4.410999e+58
-4.4377432e+58
-4.4363193e+58
-4.3763162e+58
-4.3531639e+58
-4.350787e+58
-4.3745975e+58
-4.3478772e+58
-4.350569e+58
-4.3739945e+58
-4.3712276e+58
-4.4358652e+58
-4.407778e+58
-4.4059351e+58
-4.4327132e+58
-4.4807569e+58
-4.4794515e+58
-4.4690433e+58
-4.4703436e+58
-4.4828401e+58
-4.4817408e+58
-4.4714562e+58
-4.4724982e+58
-4.5064007e+58
-4.5181629e+58
-4.5054484e+58
-4.5170983e+58
-4.5042511e+58
-4.5161345e+58
-4.5031605e+58
-4.5147933e+58
-4.4849221e+58
-4.484232e+58
-4.474521e+58
-4.4734894e+58
-4.4836383e+58
-4.4831609e+58
-4.4730656e+58
-4.4727762e+58
-4.5088501e+58
-4.520893e+58
-4.5085673e+58
-4.5204587e+58
-4.5078131e+58
-4.5195773e+58
-4.5072475e+58
-4.5188314e+58
-4.474984e+58
-4.473866e+58
-4.4286007e+58
-4.463848e+58
-4.4647015e+58
-4.4776272e+58
-4.476072e+58
-4.4305444e+58
-4.4657751e+58
-4.4672759e+58
-4.501277e+58
-4.5130414e+58
-4.4997575e+58
-4.4048619e+58
-4.4041729e+58
-4.4702187e+58
-4.468914e+58
-4.4251582e+58
-4.4593061e+58
-4.460285e+58
-4.4726607e+58
-4.4712226e+58
-4.4278189e+58
-4.4611841e+58
-4.4624917e+58
-4.4039803e+58
-4.4009458e+58
-4.3684596e+58
-4.3451511e+58
-4.3423018e+58
-4.3659744e+58
-4.3709206e+58
-4.3488147e+58
-4.3469611e+58
-4.3699005e+58
-4.3185184e+58
-4.3001652e+58
-4.3028797e+58
-4.3193747e+58
-4.2032765e+58
-4.2529475e+58
-4.255097e+58
-4.284499e+58
-4.2867418e+58
-4.2831192e+58
-4.2525653e+58
-4.2512504e+58
-4.2803964e+58
-4.2062648e+58
-4.1705845e+58
-4.1685395e+58
-4.318841e+58
-4.2993981e+58
-4.2969493e+58
-4.3158779e+58
-4.2085366e+58
-4.2120452e+58
-4.1734835e+58
-4.1847392e+58
-4.3148587e+58
-4.2966551e+58
-4.295921e+58
-4.3147226e+58
-4.2509109e+58
-4.2799374e+58
-4.2499313e+58
-4.279404e+58
-4.2486372e+58
-4.2514135e+58
-4.2768976e+58
-4.2787165e+58
-4.2947548e+58
-4.2926384e+58
-4.3111896e+58
-4.3141861e+58
-4.0228176e+58
-4.0128029e+58
-4.4212793e+58
-4.4142848e+58
-4.4125037e+58
-4.419737e+58
-4.4251281e+58
-4.4177075e+58
-4.4156572e+58
-4.4232768e+58
-4.3875122e+58
-4.3889501e+58
-4.3968152e+58
-4.3950743e+58
-4.3900673e+58
-4.3920121e+58
-4.40004e+58
-4.3981085e+58
-4.4140323e+58
-4.4067927e+58
-4.4049033e+58
-4.4133673e+58
-4.4181752e+58
-4.4109334e+58
-4.4086815e+58
-4.4161923e+58
-4.3934717e+58
-4.385951e+58
-4.3830585e+58
-4.3913082e+58
-4.3782833e+58
-4.3813951e+58
-4.3894516e+58
-4.3873506e+58
-4.3388117e+58
-4.3399365e+58
-4.3475186e+58
-4.3466436e+58
-4.341479e+58
-4.3437581e+58
-4.3510485e+58
-4.3489529e+58
-4.367624e+58
-4.3741088e+58
-4.3722647e+58
-4.3658934e+58
-4.3634901e+58
-4.3646139e+58
-4.3710302e+58
-4.3700687e+58
-4.3296785e+58
-4.3324717e+58
-4.3402215e+58
-4.3374404e+58
-4.3339497e+58
-4.3369746e+58
-4.3451695e+58
-4.3420786e+58
-4.3685936e+58
-4.3617419e+58
-4.3588504e+58
-4.3658443e+58
-4.3637547e+58
-4.3569392e+58
-4.3538668e+58
-4.3607798e+58
-4.4346306e+58
-4.4263823e+58
-4.4252408e+58
-4.4333466e+58
-4.4795466e+58
-4.4797465e+58
-4.4278995e+58
-4.4297626e+58
-4.4381829e+58
-4.4363051e+58
-4.457277e+58
-4.4008815e+58
-4.4028185e+58
-4.411469e+58
-4.4094473e+58
-4.407683e+58
-4.3994633e+58
-4.398487e+58
-4.4068888e+58
-4.4315907e+58
-4.4236583e+58
-4.4218525e+58
-4.4298523e+58
-4.4191471e+58
-4.4204707e+58
-4.4283126e+58
-4.4267762e+58
-4.393e+58
-4.3938201e+58
-4.4022354e+58
-4.4011494e+58
-4.3949709e+58
-4.3967705e+58
-4.4053772e+58
-4.4034213e+58
-4.3594353e+58
-4.3515104e+58
-4.3497254e+58
-4.3577841e+58
-4.3480122e+58
-4.348686e+58
-4.3558469e+58
-4.3565249e+58
-4.3755681e+58
-4.3774686e+58
-4.3850486e+58
-4.38276e+58
-4.3741223e+58
-4.3811329e+58
-4.3799564e+58
-4.3731463e+58
-4.3455744e+58
-4.3459137e+58
-4.3522637e+58
-4.3529729e+58
-4.3468899e+58
-4.3476362e+58
-4.3535982e+58
-4.3552013e+58
-4.3715245e+58
-4.3783907e+58
-4.3763801e+58
-4.3701036e+58
-4.3689763e+58
-4.3754052e+58
-4.3746661e+58
-4.3684878e+58
-4.181662e+58
-4.2618099e+58
-4.2329789e+58
-4.2306205e+58
-4.2559908e+58
-4.2348569e+58
-4.2340926e+58
-4.2610419e+58
-4.2700767e+58
-4.1855583e+58
-4.3004659e+58
-4.301831e+58
-4.3095402e+58
-4.3089811e+58
-4.3019772e+58
-4.3023541e+58
-4.311725e+58
-4.3104686e+58
-4.3251574e+58
-4.3264727e+58
-4.3340348e+58
-4.3322374e+58
-4.3306698e+58
-4.3239996e+58
-4.3234619e+58
-4.3301377e+58
-4.267599e+58
-4.2751734e+58
-4.2704351e+58
-4.2795975e+58
-4.2774074e+58
-4.2682292e+58
-4.2791089e+58
-4.2670174e+58
-4.2794935e+58
-4.2812631e+58
-4.2846916e+58
-4.2858996e+58
-4.2852622e+58
-4.2809449e+58
-4.2802872e+58
-4.2842821e+58
-4.2624907e+58
-4.2727188e+58
-4.2691803e+58
-4.2610488e+58
-4.2839574e+58
-4.2793284e+58
-4.2770455e+58
-4.2840126e+58
-4.2579563e+58
-4.2701883e+58
-4.2661075e+58
-4.2596424e+58
-4.2740124e+58
-4.2774366e+58
-4.2830351e+58
-4.2808587e+58
-4.3297326e+58
-4.3236377e+58
-4.3225721e+58
-4.3288244e+58
-4.3092848e+58
-4.3011557e+58
-4.3007105e+58
-4.3082619e+58
-4.327767e+58
-4.3221469e+58
-4.3207888e+58
-4.3275566e+58
-4.3073973e+58
-4.299974e+58
-4.2980144e+58
-4.3059497e+58
-4.2915736e+58
-4.2938733e+58
-4.3012948e+58
-4.3001997e+58
-4.2941548e+58
-4.296272e+58
-4.3044996e+58
-4.3021372e+58
-4.3149217e+58
-4.3160685e+58
-4.3225691e+58
-4.3217895e+58
-4.3174417e+58
-4.3194369e+58
-4.3264041e+58
-4.3241743e+58
-4.2411826e+58
-4.2598653e+58
-4.2607241e+58
-4.2707266e+58
-4.2679135e+58
-4.2357938e+58
-4.2622652e+58
-4.2609364e+58
-4.2698144e+58
-4.2711834e+58
-4.2743244e+58
-4.2749792e+58
-4.2800973e+58
-4.2787052e+58
-4.2778403e+58
-4.2738175e+58
-4.271245e+58
-4.2753063e+58
-4.272054e+58
-4.271853e+58
-4.2497254e+58
-4.2486269e+58
-4.2565068e+58
-4.2589886e+58
-4.250106e+58
-4.244498e+58
-4.2596694e+58
-4.2603634e+58
-4.2666664e+58
-4.2638144e+58
-4.2652621e+58
-4.2690317e+58
-4.2735593e+58
-4.2700257e+58
-4.2656879e+58
-4.2596355e+58
-4.2551889e+58
-4.2623659e+58
-4.28028e+58
-4.2937357e+58
-4.2804028e+58
-4.2832148e+58
-4.2939616e+58
-4.2905256e+58
-4.2865688e+58
-4.2898664e+58
-4.299233e+58
-4.2961589e+58
-4.3056064e+58
-4.3085689e+58
-4.3160934e+58
-4.3136757e+58
-4.3105851e+58
-4.3133997e+58
-4.3206722e+58
-4.3178213e+58
-4.0009853e+58
-4.2785638e+58
-4.2310697e+58
-4.0432466e+58
-4.1613747e+58
-4.1943107e+58
-4.0945692e+58
-4.2901311e+58
-4.2530113e+58
-4.2432631e+58
-4.3683187e+58
-4.4120763e+58
-4.3383752e+58
-4.5100512e+58
-4.5158339e+58
-4.5062285e+58
-4.5754372e+58
-4.5889724e+58
-4.5200505e+58
-4.641783e+58
-4.6585041e+58
-4.3689128e+58
-4.383261e+58
-4.3825174e+58
-4.3503265e+58
-4.3672988e+58
-4.3975999e+58
-4.3418323e+58
-4.3298228e+58
-4.3460371e+58
-4.453574e+58
-4.4433069e+58
-4.4279752e+58
-4.4655115e+58
-4.4864894e+58
-4.4098834e+58
-4.423601e+58
-4.4637061e+58
-4.448947e+58
-4.6554818e+58
-4.6376519e+58
-4.5526311e+58
-4.5553533e+58
-4.5661626e+58
-4.5515589e+58
-4.5398298e+58
-4.5637289e+58
-4.5704163e+58
-4.6107731e+58
-4.5936019e+58
-4.5099312e+58
-4.5255785e+58
-4.5371812e+58
-4.520971e+58
-4.5760418e+58
-4.5620934e+58
-4.5459187e+58
-4.5579244e+58
-4.5919807e+58
-4.5774933e+58
-4.5922791e+58
-4.6086786e+58
-4.509688e+58
-4.5122945e+58
-4.4964293e+58
-4.4928074e+58
-4.5266366e+58
-4.5300835e+58
-4.5441749e+58
-4.5478831e+58
-4.2309922e+58
-4.2061231e+58
-4.2079074e+58
-4.2218768e+58
-4.2410569e+58
-4.2714686e+58
-4.2414298e+58
-4.2968692e+58
-4.300478e+58
-4.2943797e+58
-4.245144e+58
-4.2444858e+58
-4.2355182e+58
-4.2828788e+58
-4.3038393e+58
-4.2054495e+58
-4.1983187e+58
-4.2310611e+58
-4.2114033e+58
-4.2103568e+58
-4.0260881e+58
-4.1847783e+58
-4.1835185e+58
-3.8846792e+58
-4.1760825e+58
-4.2074494e+58
-4.1802146e+58
-4.2123895e+58
-4.2669507e+58
-4.2813399e+58
-4.289834e+58
-4.2257798e+58
-4.253765e+58
-4.2028287e+58
-4.2116585e+58
-4.2558868e+58
-4.2473964e+58
-4.2092396e+58
-4.280436e+58
-4.2347685e+58
-4.2598438e+58
-4.2418577e+58
-4.2921107e+58
-4.3118302e+58
-4.2119097e+58
-4.2124641e+58
-4.2296479e+58
-4.1949213e+58
-4.1748564e+58
-4.1926906e+58
-4.249457e+58
-4.2834009e+58
-4.2675395e+58
-4.2799134e+58
-4.2945144e+58
-4.3232692e+58
-4.3042062e+58
-4.3144374e+58
-4.3272164e+58
-4.2964698e+58
-4.2760739e+58
-4.304328e+58
-4.2842258e+58
-4.3215003e+58
-4.3294259e+58
-4.3296202e+58
-4.3227402e+58
-4.2980247e+58
-4.3078612e+58
-4.3101415e+58
-4.302403e+58
-4.3130443e+58
-4.3125412e+58
-4.3123022e+58
-4.3144554e+58
-4.293079e+58
-4.3025473e+58
-4.2996151e+58
-4.2925787e+58
-4.3140722e+58
-4.3037346e+58
-4.3098566e+58
-4.3226412e+58
-4.3231077e+58
-4.3298757e+58
-4.3463252e+58
-4.3389816e+58
-4.356199e+58
-4.3621618e+58
-4.3592402e+58
-4.3591544e+58
-4.3403148e+58
-4.3298242e+58
-4.3474293e+58
-4.3387623e+58
-4.3329011e+58
-4.3432174e+58
-4.3452806e+58
-4.3339776e+58
-4.3425825e+58
-4.3560765e+58
-4.357588e+58
-4.3460918e+58
-4.336429e+58
-4.3307172e+58
-4.3241784e+58
-4.3276047e+58
-4.3131392e+58
-4.3204472e+58
-4.3215189e+58
-4.314099e+58
-4.1848078e+58
-4.2209796e+58
-4.1978729e+58
-4.1944065e+58
-4.2105055e+58
-4.2468461e+58
-4.2276268e+58
-4.2164547e+58
-4.2337186e+58
-4.268809e+58
-4.2481038e+58
-4.256056e+58
-4.2708072e+58
-4.2051379e+58
-4.2072657e+58
-4.1946308e+58
-4.218953e+58
-4.2432586e+58
-4.216877e+58
-4.2532879e+58
-4.2178326e+58
-4.2347166e+58
-4.2445683e+58
-4.2493779e+58
-4.2454354e+58
-4.2614219e+58
-4.2648461e+58
-4.2576503e+58
-4.2561713e+58
-4.2638486e+58
-4.24897e+58
-4.2680006e+58
-4.2775954e+58
-4.2935329e+58
-4.2883215e+58
-4.2893412e+58
-4.296454e+58
-4.2896632e+58
-4.2864921e+58
-4.2740798e+58
-4.2782879e+58
-4.2671792e+58
-4.2747619e+58
-4.2678841e+58
-4.2645878e+58
-4.3870191e+58
-4.3848571e+58
-4.3986431e+58
-4.3921874e+58
-4.3720529e+58
-4.3537929e+58
-4.33623e+58
-4.4113409e+58
-4.4154937e+58
-4.4190264e+58
-4.4162533e+58
-4.4312724e+58
-4.4279068e+58
-4.4317843e+58
-4.4341863e+58
-4.4679207e+58
-4.4721371e+58
-4.4711998e+58
-4.4691687e+58
-4.4490674e+58
-4.448531e+58
-4.4533211e+58
-4.4534069e+58
-4.4511345e+58
-4.4490709e+58
-4.4512064e+58
-4.4545841e+58
-4.4688675e+58
-4.4686047e+58
-4.464421e+58
-4.4630696e+58
-4.4591425e+58
-4.460615e+58
-4.4505595e+58
-4.4483952e+58
-4.4359382e+58
-4.4453614e+58
-4.439054e+58
-4.4481815e+58
-4.4097358e+58
-4.4254457e+58
-4.4252695e+58
-4.4240965e+58
-4.4344195e+58
-4.4356305e+58
-4.4374798e+58
-4.4361135e+58
-4.4335449e+58
-4.4312479e+58
-4.4242443e+58
-4.4261898e+58
-4.4203941e+58
-4.4201406e+58
-4.4150237e+58
-4.4156321e+58
-4.4362054e+58
-4.4437687e+58
-4.4411168e+58
-4.4335323e+58
-4.4312616e+58
-4.4276752e+58
-4.4203199e+58
-4.4238955e+58
-4.4307713e+58
-4.4346206e+58
-4.4249644e+58
-4.4222561e+58
-4.4098668e+58
-4.4170136e+58
-4.4123569e+58
-4.4211735e+58
-4.4177552e+58
-4.4156368e+58
-4.4085323e+58
-4.4105892e+58
-4.4065085e+58
-4.4044614e+58
-4.3960326e+58
-4.3992268e+58
-4.4068977e+58
-4.4047978e+58
-4.396789e+58
-4.3986089e+58
-4.3953564e+58
-4.3908242e+58
-4.3825517e+58
-4.3871609e+58
-4.3894681e+58
-4.3868892e+58
-4.398739e+58
-4.3998333e+58
-4.3978592e+58
-4.3984448e+58
-4.3959421e+58
-4.3966027e+58
-4.4125926e+58
-4.4006914e+58
-4.413686e+58
-4.4059309e+58
-4.4058122e+58
-4.4096127e+58
-4.4058255e+58
-4.4084457e+58
-4.3756736e+58
-4.3872486e+58
-4.3876721e+58
-4.3779296e+58
-4.3577659e+58
-4.3659264e+58
-4.3677004e+58
-4.3594556e+58
-4.3706025e+58
-4.3790435e+58
-4.3821325e+58
-4.3729177e+58
-4.3860954e+58
-4.3955656e+58
-4.3869825e+58
-4.3955291e+58
-4.355397e+58
-4.357768e+58
-4.3566725e+58
-4.3696037e+58
-4.3730528e+58
-4.3696783e+58
-4.3838988e+58
-4.3838139e+58
-4.3748852e+58
-4.3842492e+58
-4.3783394e+58
-4.373526e+58
-4.383181e+58
-4.385869e+58
-4.3846631e+58
-4.3842678e+58
-4.3776567e+58
-4.3776185e+58
-4.3646064e+58
-4.3667873e+58
-4.3560515e+58
-4.3705389e+58
-4.369621e+58
-4.3565567e+58
-4.3567063e+58
-4.354456e+58
-4.3464175e+58
-4.3479456e+58
-4.3375612e+58
-4.3468038e+58
-4.3442038e+58
-4.3370347e+58
-4.505937e+58
-4.5015661e+58
-4.4795055e+58
-4.4887727e+58
-4.4928373e+58
-4.4957026e+58
-4.4828034e+58
-4.5137869e+58
-4.5187433e+58
-4.5336039e+58
-4.5284468e+58
-4.4812918e+58
-4.4821081e+58
-4.4765938e+58
-4.4790977e+58
-4.4952787e+58
-4.5007185e+58
-4.4894164e+58
-4.4941591e+58
-4.4712615e+58
-4.4754057e+58
-4.4683792e+58
-4.4633111e+58
-4.4812314e+58
-4.4889232e+58
-4.4757428e+58
-4.4832313e+58
-4.4969688e+58
-4.5028772e+58
-4.4951331e+58
-4.4891711e+58
-4.5042752e+58
-4.5099389e+58
-4.5154777e+58
-4.5100589e+58
-4.5183238e+58
-4.5246184e+58
-4.5303557e+58
-4.5238433e+58
-4.5162144e+58
-4.5106646e+58
-4.503067e+58
-4.5087637e+58
-4.4833836e+58
-4.4892471e+58
-4.4843554e+58
-4.4769546e+58
-4.4530365e+58
-4.4562464e+58
-4.4620479e+58
-4.4562672e+58
-4.4505385e+58
-4.4556597e+58
-4.4635199e+58
-4.4573499e+58
-4.4566666e+58
-4.4714401e+58
-4.449471e+58
-4.4720711e+58
-4.4685778e+58
-4.4754121e+58
-4.464152e+58
-4.4699738e+58
-4.378387e+58
-4.3868791e+58
-4.3753014e+58
-4.3920608e+58
-4.3974665e+58
-4.3936054e+58
-4.4174189e+58
-4.4241016e+58
-4.4198122e+58
-4.4057593e+58
-4.4113461e+58
-4.4067504e+58
-4.4313232e+58
-4.4305933e+58
-4.4373416e+58
-4.4380125e+58
-4.4396919e+58
-4.4331156e+58
-4.4558548e+58
-4.3549104e+58
-4.3577218e+58
-4.3605485e+58
-4.3654967e+58
-4.3740312e+58
-4.3666801e+58
-4.3293487e+58
-4.3295597e+58
-4.3449222e+58
-4.3423339e+58
-4.3498605e+58
-4.3508668e+58
-4.290013e+58
-4.2946285e+58
-4.3050904e+58
-4.3214683e+58
-4.2993294e+58
-4.2518564e+58
-4.2826139e+58
-4.2486224e+58
-4.2596725e+58
-4.282879e+58
-4.2777815e+58
-4.2730711e+58
-4.2718174e+58
-4.2792293e+58
-4.2813854e+58
-4.2846197e+58
-4.2860467e+58
-4.2740486e+58
-4.312509e+58
-4.2874156e+58
-4.2861915e+58
-4.2964814e+58
-4.3112464e+58
-4.3096418e+58
-4.3180184e+58
-4.3269932e+58
-4.3252466e+58
-4.3078484e+58
-4.3199967e+58
-4.3184174e+58
-4.5101656e+58
-4.5098376e+58
-4.4866059e+58
-4.4860962e+58
-4.4758941e+58
-4.4763158e+58
-4.4138001e+58
-4.4142435e+58
-4.4236614e+58
-4.4231678e+58
-4.4147503e+58
-4.4157623e+58
-4.4251506e+58
-4.4240119e+58
-4.4540836e+58
-4.4442414e+58
-4.4433158e+58
-4.453077e+58
-4.4425998e+58
-4.4429309e+58
-4.4525853e+58
-4.4522143e+58
-4.3958107e+58
-4.3880574e+58
-4.387114e+58
-4.3948097e+58
-4.3705707e+58
-4.3629498e+58
-4.3620101e+58
-4.3696491e+58
-4.3601357e+58
-4.3607268e+58
-4.3690866e+58
-4.3685773e+58
-4.3945672e+58
-4.3867391e+58
-4.3863078e+58
-4.3941871e+58
-4.3578201e+58
-4.3588607e+58
-4.3666395e+58
-4.3656904e+58
-4.35948e+58
-4.3599696e+58
-4.3682162e+58
-4.3670334e+58
-4.3931904e+58
-4.3854335e+58
-4.3845276e+58
-4.3920771e+58
-4.3916726e+58
-4.3839928e+58
-4.3830974e+58
-4.3908191e+58
-4.4519246e+58
-4.4421669e+58
-4.440861e+58
-4.4508868e+58
-4.4224878e+58
-4.4128596e+58
-4.4116261e+58
-4.421176e+58
-4.4102492e+58
-4.4110094e+58
-4.4205674e+58
-4.4193351e+58
-4.4498384e+58
-4.4397762e+58
-4.4385661e+58
-4.4484762e+58
-4.4929051e+58
-4.4927067e+58
-4.4912411e+58
-4.490912e+58
-4.4899022e+58
-4.489302e+58
-4.4916091e+58
-4.4908876e+58
-4.4681367e+58
-4.469574e+58
-4.4946984e+58
-4.4948967e+58
-4.4931151e+58
-4.4929532e+58
-4.4921529e+58
-4.4919619e+58
-4.4941953e+58
-4.4939462e+58
-4.4706366e+58
-4.4714288e+58
-4.5070267e+58
-4.5066534e+58
-4.5090645e+58
-4.509527e+58
-4.5225533e+58
-4.5262665e+58
-4.5257312e+58
-4.5221281e+58
-4.5082028e+58
-4.5060478e+58
-4.5085113e+58
-4.5058224e+58
-4.521523e+58
-4.5251173e+58
-4.5211356e+58
-4.52474e+58
-4.5049608e+58
-4.5044327e+58
-4.5075101e+58
-4.5069383e+58
-4.5198541e+58
-4.5241406e+58
-4.5235515e+58
-4.5204544e+58
-4.5036633e+58
-4.503124e+58
-4.5057125e+58
-4.5062661e+58
-4.5190022e+58
-4.5183946e+58
-4.5227594e+58
-4.5221155e+58
-4.4973811e+58
-4.4984709e+58
-4.4958778e+58
-4.4964103e+58
-4.4956412e+58
-4.4953038e+58
-4.4977707e+58
-4.4971253e+58
-4.4738015e+58
-4.4730251e+58
-4.4964559e+58
-4.496366e+58
-4.4948747e+58
-4.4946241e+58
-4.4938954e+58
-4.4936211e+58
-4.4956822e+58
-4.4953024e+58
-4.4724934e+58
-4.4718109e+58
-4.5120221e+58
-4.5097047e+58
-4.5120522e+58
-4.5099086e+58
-4.5252865e+58
-4.5252318e+58
-4.5289385e+58
-4.5288086e+58
-4.5114296e+58
-4.5095301e+58
-4.5116616e+58
-4.5093377e+58
-4.5282873e+58
-4.5247945e+58
-4.5245173e+58
-4.5280522e+58
-4.5106475e+58
-4.5088966e+58
-4.5110763e+58
-4.5085047e+58
-4.5276999e+58
-4.5241459e+58
-4.5237387e+58
-4.5273184e+58
-4.5100199e+58
-4.507925e+58
-4.5103066e+58
-4.5076407e+58
-4.5269057e+58
-4.5233119e+58
-4.5229718e+58
-4.52664e+58
-4.4873869e+58
-4.4869749e+58
-4.4852335e+58
-4.4847424e+58
-4.4837224e+58
-4.4833954e+58
-4.4858863e+58
-4.4853812e+58
-4.4441047e+58
-4.4354733e+58
-4.4347538e+58
-4.4434106e+58
-4.4628521e+58
-4.4640012e+58
-4.4898736e+58
-4.4899869e+58
-4.4882101e+58
-4.4878724e+58
-4.4867123e+58
-4.4860713e+58
-4.4890729e+58
-4.4883667e+58
-4.4467212e+58
-4.4372824e+58
-4.4361133e+58
-4.4453006e+58
-4.4652063e+58
-4.4665447e+58
-4.5038383e+58
-4.5020919e+58
-4.5045585e+58
-4.5015126e+58
-4.5175097e+58
-4.5211226e+58
-4.5203753e+58
-4.5168806e+58
-4.50224e+58
-4.5005637e+58
-4.5029564e+58
-4.4999225e+58
-4.4181684e+58
-4.4092706e+58
-4.4082958e+58
-4.417121e+58
-4.4075564e+58
-4.407947e+58
-4.4166772e+58
-4.4160403e+58
-4.4822889e+58
-4.4821804e+58
-4.480171e+58
-4.4798573e+58
-4.4788594e+58
-4.4783373e+58
-4.4813368e+58
-4.480732e+58
-4.4403116e+58
-4.4323102e+58
-4.4314735e+58
-4.4396283e+58
-4.4587012e+58
-4.4597557e+58
-4.4843762e+58
-4.4843842e+58
-4.4826153e+58
-4.4824037e+58
-4.4813987e+58
-4.4810259e+58
-4.4836358e+58
-4.4832263e+58
-4.4422928e+58
-4.4335753e+58
-4.4325657e+58
-4.4411247e+58
-4.460769e+58
-4.4617317e+58
-4.4153558e+58
-4.4072804e+58
-4.4063819e+58
-4.4144849e+58
-4.4044833e+58
-4.4057326e+58
-4.4140023e+58
-4.4129881e+58
-4.3882366e+58
-4.3812029e+58
-4.3801271e+58
-4.3873868e+58
-4.3631759e+58
-4.3553585e+58
-4.3543299e+58
-4.3622022e+58
-4.3527789e+58
-4.3538972e+58
-4.3617366e+58
-4.3607285e+58
-4.3868564e+58
-4.3793795e+58
-4.3783742e+58
-4.3858688e+58
-4.3893905e+58
-4.3818921e+58
-4.3810739e+58
-4.3885328e+58
-4.3645787e+58
-4.3571816e+58
-4.3565272e+58
-4.3637503e+58
-4.3556592e+58
-4.3562458e+58
-4.3636549e+58
-4.3636306e+58
-4.3884828e+58
-4.3811657e+58
-4.3810785e+58
-4.3883841e+58
-4.3443123e+58
-4.3375764e+58
-4.3364268e+58
-4.3432843e+58
-4.3211454e+58
-4.3119979e+58
-4.3115065e+58
-4.320532e+58
-4.3100137e+58
-4.3109809e+58
-4.3201331e+58
-4.3195271e+58
-4.3422248e+58
-4.3345702e+58
-4.3338199e+58
-4.3416591e+58
-4.2318196e+58
-4.2584617e+58
-4.247522e+58
-4.2308107e+58
-4.2712195e+58
-4.2724489e+58
-4.2838021e+58
-4.2823043e+58
-4.2715858e+58
-4.2705914e+58
-4.2772802e+58
-4.2824826e+58
-4.2881884e+58
-4.2852271e+58
-4.2927436e+58
-4.293693e+58
-4.2934512e+58
-4.2869777e+58
-4.2860327e+58
-4.2919409e+58
-4.2891781e+58
-4.285635e+58
-4.2862678e+58
-4.291178e+58
-4.2308747e+58
-4.2806028e+58
-4.2691628e+58
-4.2667556e+58
-4.2799612e+58
-4.2297978e+58
-4.264977e+58
-4.2671165e+58
-4.2768862e+58
-4.2760355e+58
-4.2912604e+58
-4.2840205e+58
-4.2837488e+58
-4.2897403e+58
-4.2474107e+58
-4.2553219e+58
-4.1578849e+58
-4.1546851e+58
-4.3408583e+58
-4.3336794e+58
-4.3334166e+58
-4.3406482e+58
-4.3193019e+58
-4.3095665e+58
-4.310411e+58
-4.3190841e+58
-4.3083941e+58
-4.3097971e+58
-4.3187043e+58
-4.3173292e+58
-4.3404719e+58
-4.3331274e+58
-4.3322556e+58
-4.3396394e+58
-4.2290701e+58
-4.2316188e+58
-4.2561334e+58
-4.2527767e+58
-4.2322592e+58
-4.2336881e+58
-4.2563199e+58
-4.2674575e+58
-4.1607583e+58
-4.1753276e+58
-4.3386714e+58
-4.3319486e+58
-4.3310942e+58
-4.3379991e+58
-4.3156604e+58
-4.3068646e+58
-4.3074688e+58
-4.3153581e+58
-4.3072765e+58
-4.3153848e+58
-4.314771e+58
-4.3066065e+58
-4.3378657e+58
-4.3308075e+58
-4.330674e+58
-4.3383589e+58
-4.2763636e+58
-4.2655129e+58
-4.264996e+58
-4.2774643e+58
-4.2828614e+58
-4.2886753e+58
-4.2898512e+58
-4.2842978e+58
-4.2632067e+58
-4.2748193e+58
-4.2657093e+58
-4.2747071e+58
-4.2824099e+58
-4.2884339e+58
-4.2819738e+58
-4.2897905e+58
-4.2632112e+58
-4.2627038e+58
-4.2747241e+58
-4.27474e+58
-4.2723713e+58
-4.263974e+58
-4.2748978e+58
-4.2651545e+58
-4.2812129e+58
-4.286683e+58
-4.283746e+58
-4.2786541e+58
-4.2816476e+58
-4.2873492e+58
-4.2819401e+58
-4.2877071e+58
-4.3062903e+58
-4.3152587e+58
-4.3143867e+58
-4.305732e+58
-4.3052688e+58
-4.3140755e+58
-4.3124061e+58
-4.3026937e+58
-4.3276528e+58
-4.3291328e+58
-4.3362493e+58
-4.3352676e+58
-4.3293678e+58
-4.3302994e+58
-4.3378744e+58
-4.3367415e+58
-3.9890887e+58
-3.9779537e+58
-4.4258177e+58
-4.4135564e+58
-4.4117684e+58
-4.4240167e+58
-4.4290867e+58
-4.4165675e+58
-4.4150258e+58
-4.4274848e+58
-4.386198e+58