/*--------------------------------*- C++ -*----------------------------------*\
  =========                 |
  \\      /  F ield         | OpenFOAM: The Open Source CFD Toolbox
   \\    /   O peration     | Website:  https://openfoam.org
    \\  /    A nd           | Version:  7
     \\/     M anipulation  |
\*---------------------------------------------------------------------------*/
FoamFile
{
    version     2.0;
    format      ascii;
    class       surfaceScalarField;
    location    "0";
    object      phi;
}
// * * * * * * * * * * * * * * * * * * * * * * * * * * * * * * * * * * * * * //

dimensions      [0 3 -1 0 0 0 0];

internalField   nonuniform List<scalar> 
101811
(
0.00082226354
-1.9607294e-06
5.4272406e-05
5.4583593e-05
-4.9532632e-05
-4.98264e-05
0.00080585015
-2.2040106e-06
5.3002244e-05
5.2671741e-05
-4.6706147e-05
-4.6380076e-05
0.00082211345
-1.1762869e-06
-4.9755732e-05
5.4512581e-05
5.431318e-05
-4.9568469e-05
6.1636432e-07
-0.00019536707
0.0002482046
-6.2392112e-07
1.442132e-06
-0.00019540938
0.00024823093
1.4415163e-06
-5.7884716e-07
6.0333248e-07
-5.882062e-07
6.0184226e-07
-2.0562254e-06
0.00080465541
-5.1792722e-05
5.1414507e-05
5.1726921e-05
-5.14682e-05
0.00080589381
-1.3336702e-06
-4.6644767e-05
5.2727859e-05
5.2942197e-05
-4.6434458e-05
-6.4240178e-07
-0.00020016279
0.00025181668
1.017203e-06
-0.00020015709
0.00025182848
-6.5903171e-07
1.0168768e-06
6.3730741e-07
-6.5116827e-07
1.355168e-06
1.3557652e-06
1.705412e-05
0.00082201249
-5.1499552e-07
-4.9701651e-05
5.4349226e-05
5.4456815e-05
-4.9600793e-05
0.00019531282
3.6868753e-07
-3.524196e-07
6.0252222e-07
-3.9508191e-07
-0.00019534214
0.0002481835
1.4419501e-06
0.0002481637
-3.7525581e-07
1.44223e-06
6.0372378e-07
5.7350214e-07
-0.00018130532
0.00018255956
-4.6489173e-07
7.9080074e-08
-0.00018133865
0.00018257766
7.840187e-08
-5.4243255e-07
5.3063579e-08
-4.3867317e-07
5.3295316e-08
-2.6794072e-07
0.00022843561
0.00022831739
-5.9583287e-07
0.00024297577
0.00024288382
-1.255723e-06
0.00080483693
-5.1744429e-05
5.1475716e-05
5.1681109e-05
-5.1532409e-05
-1.8669707e-06
5.093667e-05
-5.209331e-05
-5.1797772e-05
5.1216549e-05
0.00020004535
6.3230441e-07
-6.4960581e-07
7.5986417e-09
6.0608878e-07
-6.2719287e-07
0.00025138907
9.1713499e-08
-0.00020002263
0.00025135289
9.2826313e-08
7.4415132e-09
-4.6915987e-05
-4.7005425e-05
0.00080590917
4.8398487e-05
4.8281219e-05
-5.8136289e-07
5.2891079e-05
5.2774988e-05
-4.6593804e-05
-4.6480089e-05
0.00020014595
4.1075596e-07
-3.9336414e-07
1.3555277e-06
4.169157e-07
0.00025183926
-3.9978869e-07
1.017249e-06
-0.00020015244
0.00025183496
1.017345e-06
1.3561031e-06
-5.9071856e-07
-0.00018375412
0.00018457551
7.4309229e-08
-0.00018374977
0.00018458373
-4.823951e-07
7.4461981e-08
5.8876825e-07
-4.7915115e-07
5.516262e-08
5.4736553e-08
1.7048979e-05
0.00082197053
5.4385337e-05
5.4412156e-05
-4.9633778e-05
-4.9659344e-05
0.00019528065
1.9855947e-07
-1.5439557e-07
6.0320317e-07
2.1324033e-07
0.00024813817
-1.6414999e-07
1.4423695e-06
-0.00019529688
0.00024814936
1.4420008e-06
6.0365132e-07
0.00018125375
3.4568384e-07
-2.6282723e-07
5.2897988e-08
-3.6764333e-07
-0.000181277
0.00018254296
7.869378e-08
0.00018252924
-2.7966446e-07
7.8682055e-08
5.3105061e-08
4.7284891e-08
-1.4915993e-05
1.4951357e-05
-3.8356263e-08
3.4178227e-08
-1.4918751e-05
1.4952857e-05
3.4253102e-08
-4.4960439e-08
2.4203472e-08
-3.6369672e-08
2.4069264e-08
0.00022986188
0.00023028558
0.0002297435
-5.7174907e-07
0.00023016518
-2.3044777e-07
3.0908818e-06
-5.7854861e-06
5.3606103e-05
5.9659035e-05
5.5133753e-05
6.2556802e-05
3.0962922e-06
-5.7853707e-06
5.5162404e-05
5.3576131e-05
5.9634573e-05
-1.7661744e-07
6.2579415e-05
-2.6857887e-07
0.00022837811
0.00022834941
0.00024292783
0.00024290562
1.0484392e-07
-1.9373746e-07
0.00019895738
0.0001989499
-1.6885671e-07
-5.3096063e-05
5.3400045e-05
-5.4238647e-07
5.3286593e-05
0.00080493902
-5.1700056e-05
5.1526742e-05
5.1638174e-05
-5.1585078e-05
-5.3213854e-05
-1.1491153e-06
5.1183908e-05
5.0997516e-05
-5.2059075e-05
-5.1863363e-05
0.00020007009
4.1288571e-07
-3.958722e-07
7.6161563e-09
3.9877527e-07
-3.8378633e-07
0.00025143879
9.1895166e-08
-0.00020005822
0.00025141809
9.2573347e-08
7.5643774e-09
-0.00019957727
5.3989067e-07
-5.6438542e-07
-9.4479109e-08
5.7843419e-07
-5.9745326e-07
-2.6252937e-07
0.00019953831
-2.6322169e-07
-9.2651127e-08
0.00018447607
5.7998397e-07
-4.7538081e-07
1.0556733e-08
5.5889233e-07
-4.6018453e-07
0.00018445222
1.6779558e-08
-0.00018445718
0.0001844253
1.6184008e-08
1.011172e-08
-2.3244501e-07
-1.2519071e-05
-1.3216323e-05
0.00025025043
1.1134029e-05
1.1526899e-05
-1.2542569e-05
-1.3193145e-05
0.00025025261
1.1556466e-05
1.1104439e-05
-1.7931184e-07
-4.6948829e-05
-4.6970565e-05
0.00080592055
4.8353056e-05
4.8324983e-05
1.167409e-07
5.281842e-05
5.2846266e-05
-4.6522122e-05
-4.6549869e-05
-2.2586893e-07
-0.00020014194
0.00025184143
1.0174834e-06
-0.00020013799
0.00025184344
-1.7391851e-07
1.0175815e-06
2.2208872e-07
-1.7167455e-07
1.3559186e-06
1.356082e-06
0.00018373953
3.7965273e-07
-2.8948017e-07
5.4888667e-08
3.8325533e-07
0.0001845916
-2.926524e-07
7.4483065e-08
-0.00018374461
0.00018458876
7.407164e-08
5.4918556e-08
-4.8094503e-08
-1.4971262e-05
1.5000339e-05
3.5328975e-08
-1.4970899e-05
1.5001018e-05
-3.9290139e-08
3.5278633e-08
4.820609e-08
-3.9247932e-08
2.5778494e-08
2.5879021e-08
5.2982307e-08
-0.00019527026
0.00024813032
1.4422104e-06
-0.00019527384
0.00024813228
1.4422361e-06
-5.0497556e-08
6.0366819e-07
6.0350593e-07
0.00018122302
1.8603026e-07
-1.1516943e-07
5.3307707e-08
1.9826193e-07
0.00018251044
-1.2236888e-07
7.8958824e-08
-0.00018123573
0.00018251807
7.8284138e-08
5.2704167e-08
1.4911738e-05
2.8660984e-08
-2.1791931e-08
2.4177164e-08
-3.0323908e-08
-1.4913664e-05
1.4950003e-05
3.4249847e-08
1.4948872e-05
-2.3078216e-08
3.4252113e-08
2.4232324e-08
4.3022736e-08
-1.3566253e-05
1.3592316e-05
-3.4898338e-08
-1.3568763e-05
1.359368e-05
-4.0919896e-08
-3.3099982e-08
-2.889482e-06
-2.3010203e-07
2.2135587e-06
5.6207169e-05
6.0720204e-05
5.8664291e-05
5.4772959e-05
-2.210523e-07
5.5333501e-05
5.3933774e-05
5.6791279e-05
5.5383613e-05
-2.8894468e-06
2.2170415e-06
-1.757862e-07
5.4742411e-05
5.8641616e-05
6.0741527e-05
5.6235957e-05
0.00022980442
0.0002297758
1.0109514e-07
0.00023019798
0.00023022712
-1.6986834e-07
5.5302312e-05
5.6820624e-05
5.3903318e-05
5.5412883e-05
1.7496132e-06
-7.3351995e-07
-3.2559295e-06
1.2753856e-05
1.313089e-05
1.5317453e-05
1.4541347e-05
-1.7576059e-06
-2.5698667e-08
3.0260204e-06
3.1183583e-06
3.8167934e-06
3.6198165e-06
-6.662718e-07
4.9454726e-05
1.634952e-06
-7.290951e-08
-3.2868197e-06
1.4721615e-05
1.2830047e-05
1.3190433e-05
1.5382893e-05
-7.1659021e-08
5.0380853e-05
6.1759629e-07
1.6336591e-06
-3.2868771e-06
1.3183131e-05
1.2837316e-05
1.5377103e-05
1.4727501e-05
1.7510226e-06
-3.2559564e-06
1.274645e-05
1.3138175e-05
1.4535359e-05
1.5323224e-05
-4.4579778e-08
-5.6616849e-07
4.9453216e-05
-4.4014196e-08
-5.6145918e-08
3.0933746e-06
-5.7854118e-06
5.3593076e-05
5.96478e-05
5.5143836e-05
6.2564743e-05
5.0382073e-05
3.0946513e-06
-5.7853379e-06
3.4028471e-08
5.9642247e-05
5.3586156e-05
6.2570448e-05
5.5150972e-05
-4.7247932e-08
0.00019895065
0.00019894995
3.2667207e-08
-2.6795176e-07
0.00022834081
0.00024290039
0.00024294559
0.00022839853
0.0001999939
-2.2017747e-07
-1.4391976e-05
1.3052852e-05
-1.4960563e-05
1.3287892e-05
-2.1166137e-07
1.4060231e-05
-1.3067106e-05
-1.3374966e-05
1.4538396e-05
0.00025107044
5.333294e-05
-5.3170872e-05
5.3358423e-05
1.2998107e-07
-5.1658126e-05
5.1572058e-05
0.00080499134
5.1597178e-05
-5.1631436e-05
-5.3143531e-05
-0.00020000035
-1.6287467e-07
-1.3097397e-05
1.4032618e-05
-1.3346208e-05
1.4567081e-05
0.00025108194
-5.0587641e-05
-4.8778531e-07
-5.0695744e-05
5.1149521e-05
5.1048611e-05
-5.2023324e-05
-5.1917218e-05
0.00020008312
2.239272e-07
-1.7141559e-07
7.7905557e-09
2.1637818e-07
-1.6513874e-07
0.0002514665
9.2162567e-08
-0.00020007679
0.00025145514
9.2314284e-08
7.6142307e-09
-1.6990356e-07
-1.4421935e-05
-1.4930911e-05
1.3318023e-05
1.3022929e-05
-3.5981908e-07
-0.00019960348
-9.3409124e-08
-0.00019962686
-3.4773385e-07
-9.4500195e-08
3.828966e-07
-3.6700561e-07
-2.6308296e-07
-2.6338516e-07
0.00018449928
3.7881342e-07
-2.8971321e-07
1.0714855e-08
3.6763641e-07
-2.8164777e-07
0.00018448836
1.6733689e-08
-0.00018448952
0.00018447299
1.6568835e-08
1.0258994e-08
-0.00018414804
4.975756e-07
-4.1295183e-07
-3.7162653e-08
5.3113745e-07
-4.3872686e-07
-5.0872178e-08
0.00018411436
-5.1601363e-08
-3.7325634e-08
1.4997883e-05
4.7108151e-08
-3.8631345e-08
4.9550982e-09
4.5394083e-08
-3.7397219e-08
1.499861e-05
7.7849994e-09
-1.499634e-05
1.4996417e-05
7.9691546e-09
5.0333116e-09
-1.8217308e-07
-3.8328028e-06
-3.5987591e-06
6.3561133e-05
2.2245943e-06
2.3131656e-06
-1.2025349e-06
-1.1356572e-06
1.6042981e-05
-2.5722435e-08
3.649456e-07
3.8706821e-07
-7.3552614e-08
-3.6628119e-06
-3.815268e-06
6.4697243e-05
2.3356755e-06
2.2442337e-06
6.5438499e-08
-3.8210185e-06
-3.6569124e-06
6.4697463e-05
2.2515592e-06
2.3283847e-06
-3.6046854e-06
-3.8269907e-06
6.3561907e-05
2.3205497e-06
2.2172419e-06
-4.5002463e-08
-5.5530345e-08
-1.2527963e-05
-1.3207442e-05
0.00025025429
1.1122658e-05
1.153816e-05
-1.2533683e-05
-1.320196e-05
0.00025025673
1.1115617e-05
3.7464964e-08
1.1545093e-05
-4.6982571e-05
-4.6939021e-05
0.00080593877
4.8311087e-05
4.8369237e-05
-4.6564838e-05
-4.6509591e-05
5.2862385e-05
5.2804757e-05
5.3959133e-08
-0.00020013676
0.00025184713
3.6506045e-08
1.0174301e-06
-0.00020013665
0.00025184517
1.0175567e-06
-5.4355015e-08
1.3560731e-06
3.3366502e-08
1.3559789e-06
-2.0751585e-07
-0.00018373523
0.00018459336
7.4206245e-08
-0.00018373228
0.00018459486
-1.2741742e-07
7.478684e-08
2.0517152e-07
-1.2640022e-07
5.5155588e-08
5.4583568e-08
1.4970072e-05
3.109309e-08
-2.3716151e-08
2.5844067e-08
3.1194573e-08
1.5001663e-05
-2.3837196e-08
3.5302655e-08
-1.4970475e-05
1.5001428e-05
3.5389683e-08
2.5889159e-08
-4.3726257e-08
-1.3610273e-05
1.36366e-05
-1.3609943e-05
1.3637217e-05
-3.5721002e-08
4.3840457e-08
-3.5692825e-08
4.9356502e-08
-0.00018121182
0.00018250385
7.8660329e-08
-0.0001812151
0.00018250563
7.8686371e-08
-4.73363e-08
5.3164454e-08
5.3090827e-08
1.4909216e-05
1.5403202e-08
-9.5502335e-09
2.416667e-08
1.6333333e-08
1.4947346e-05
-1.0101069e-08
3.4242604e-08
-1.4910254e-05
1.4947962e-05
3.4320424e-08
2.4300843e-08
1.3562382e-05
2.6084917e-08
-1.9832586e-08
-2.759028e-08
-1.3564134e-05
1.3591085e-05
1.3590057e-05
-2.0997496e-08
2.1503616e-07
0.00022218339
0.00022218601
4.1121119e-06
6.6912236e-07
-1.7847751e-06
-6.9123593e-08
5.3279794e-05
7.3764368e-07
-7.4427971e-08
1.3360494e-05
5.0808641e-05
-4.1176081e-06
1.2888019e-05
5.0527015e-05
-1.7976039e-06
5.3024778e-05
2.0994042e-07
-7.050341e-07
1.4259941e-05
1.3135953e-05
1.2786626e-05
1.3744711e-05
2.7206663e-06
2.7990584e-06
2.9121952e-06
-2.4708081e-08
2.9982975e-06
-6.7825282e-07
1.2735286e-05
1.2649292e-05
1.3082349e-05
1.3000255e-05
2.1203072e-07
-7.3718084e-08
1.4300416e-05
1.382623e-05
1.2848368e-05
1.3188126e-05
-7.0382933e-08
1.2797149e-05
1.3135689e-05
1.2713244e-05
1.3054852e-05
-5.5912751e-08
-2.889594e-06
5.6216747e-05
6.0726291e-05
5.8655267e-05
5.4760293e-05
4.1180326e-06
-5.5939289e-07
-1.7985647e-06
-4.2307968e-08
5.3024596e-05
-6.3196751e-07
1.2910682e-05
-4.542282e-08
5.0526362e-05
-4.1115957e-06
1.3337501e-05
5.0809199e-05
-1.7839466e-06
5.3279742e-05
-2.8896662e-06
3.4117967e-08
6.073168e-05
5.8650198e-05
5.4753278e-05
5.6223902e-05
0.00022976714
0.00022982509
0.00023024791
0.00023018908
5.380354e-08
3.2779841e-08
5.5312772e-05
5.680891e-05
5.3913593e-05
5.5401073e-05
5.68016e-05
5.5319949e-05
5.3920628e-05
5.5393793e-05
-5.8782684e-07
2.0982494e-07
-4.5156182e-08
1.4265389e-05
1.3739129e-05
1.277902e-05
1.3143328e-05
2.1202113e-07
1.3831634e-05
1.429493e-05
1.3180705e-05
1.2855806e-05
-5.6664269e-07
-4.3032459e-08
1.2727509e-05
1.3089868e-05
1.2641748e-05
1.300771e-05
1.2804785e-05
1.3128155e-05
1.3047382e-05
1.2720648e-05
-2.0723868e-07
1.1120168e-06
-1.7576146e-06
3.1157641e-06
3.0285899e-06
3.8147517e-06
3.6218764e-06
1.0969125e-06
-7.1124519e-08
-1.7826211e-06
3.045005e-06
3.1322203e-06
3.8330507e-06
3.6702019e-06
1.8246894e-07
-6.526046e-08
1.2464355e-05
1.221179e-05
-4.123835e-08
5.7811001e-07
-9.6239361e-07
-6.5791781e-09
7.4955369e-07
7.28359e-07
9.6425575e-07
1.0159413e-06
5.796004e-07
-9.7763385e-07
7.3324737e-07
7.5208721e-07
1.0193801e-06
9.7800311e-07
3.3936159e-08
3.1658651e-06
3.1025804e-06
-6.3778042e-09
-1.1138198e-06
-1.0187039e-07
-1.8047369e-08
1.2292536e-05
-1.119813e-07
-1.8315642e-08
-1.7673026e-06
3.0298042e-06
3.1229436e-06
3.828482e-06
3.6325825e-06
1.0944495e-06
-1.7848769e-06
3.1307398e-06
3.0522076e-06
3.6763654e-06
3.8384297e-06
1.2494942e-05
1.4102711e-07
1.0947792e-06
3.4465431e-08
-1.7848808e-06
3.050377e-06
3.1325721e-06
3.839873e-06
3.6748948e-06
1.1134913e-06
-1.7673094e-06
3.1211059e-06
3.0316346e-06
3.6340522e-06
3.8270346e-06
1.2684488e-07
2.9375282e-08
1.2494645e-05
1.229287e-05
-1.7812148e-07
1.1123776e-06
-1.757649e-06
3.0267525e-06
3.1176205e-06
3.8162212e-06
3.6204086e-06
-1.1177825e-08
1.0965991e-06
-1.7826516e-06
3.1303939e-06
3.0468476e-06
3.6716889e-06
3.8316206e-06
-1.5747779e-07
1.2211513e-05
-1.0987275e-08
1.2464721e-05
1.750221e-06
-6.886701e-07
-3.255946e-06
1.2750982e-05
1.453897e-05
1.5319362e-05
1.3133535e-05
-6.2722072e-07
4.9453232e-05
1.6345547e-06
-1.7542358e-08
-3.2868594e-06
1.318783e-05
1.2832506e-05
1.472378e-05
1.5380862e-05
-1.7224554e-08
5.0381877e-05
3.0953267e-06
1.1183278e-07
-5.7852958e-06
5.3583157e-05
5.5155456e-05
6.2574288e-05
5.9639991e-05
-1.7505598e-06
-6.0315863e-07
4.9453317e-05
8.9791035e-09
-6.6081824e-07
-3.2559338e-06
9.0686432e-09
1.2749324e-05
1.4537667e-05
1.3135386e-05
1.5320866e-05
-1.6342549e-06
5.0382313e-05
-3.2868623e-06
1.3186136e-05
1.2834278e-05
1.5379536e-05
1.4725225e-05
9.3946924e-08
0.00019895178
-3.092645e-06
0.00019895815
-5.785287e-06
5.3598642e-05
5.5141936e-05
5.9652854e-05
6.2563789e-05
-1.3180695e-05
1.6662755e-05
-2.4523128e-08
7.6405249e-07
8.0118998e-07
-1.0550896e-06
-1.0776338e-06
5.7892517e-07
-1.205359e-06
5.9615346e-07
-1.2470839e-06
-2.4413836e-08
5.1586579e-05
-3.8438638e-08
2.9305849e-06
-4.1179439e-06
2.9948215e-06
-4.2853824e-06
-1.3110672e-05
1.6357649e-05
9.1220799e-07
-8.2334254e-07
9.5071947e-07
-8.4120839e-07
-2.4027086e-08
-4.8569224e-08
6.4811474e-05
3.4459609e-06
-3.5759051e-06
3.5794351e-06
-3.6717587e-06
-2.447505e-08
8.8285455e-07
-8.9181107e-07
9.0660162e-07
-9.2671409e-07
5.2250617e-05
-7.016192e-08
3.0109039e-06
-4.2822124e-06
2.9493144e-06
-4.1602663e-06
6.5828766e-05
-6.990742e-08
-3.625935e-06
3.4565444e-06
3.5828024e-06
-3.6823977e-06
-5.0887272e-05
-9.2028e-08
3.8279942e-06
3.6945653e-06
-3.1481058e-06
-3.0607975e-06
6.3631812e-05
-1.6103472e-05
-2.4002161e-08
9.4807285e-07
9.7362675e-07
-7.5447504e-07
-7.8453174e-07
-8.7064636e-08
3.7315618e-06
-3.341383e-06
-3.1959407e-06
3.6524924e-06
-1.2826731e-05
-2.4166098e-08
9.7341881e-07
9.3356142e-07
-7.6030003e-07
-7.757564e-07
-2.3929559e-08
9.4126349e-07
-7.7560425e-07
9.6774745e-07
-8.0527477e-07
5.154334e-05
-6.8875833e-08
-3.2236818e-06
-3.3276022e-06
3.6839104e-06
3.7596184e-06
-6.6582177e-08
3.7174413e-06
3.84396e-06
-3.0974001e-06
-3.1461839e-06
6.473844e-05
-2.0313795e-07
-1.2283991e-05
-1.2785309e-05
1.4601528e-05
-0.00020000737
4.7393253e-08
1.4043825e-05
1.4557157e-05
-1.3357985e-05
-1.308668e-05
0.00025109541
4.1049301e-08
5.128141e-08
-1.4942218e-05
-1.441125e-05
1.3034689e-05
1.3307077e-05
3.8861447e-08
-0.000200004
-1.3364347e-05
1.4550659e-05
1.4049823e-05
-1.3079672e-05
0.00025109032
5.3316594e-05
-5.3188609e-05
-5.3128211e-05
0.00080500713
5.3376748e-05
5.1615301e-05
-5.1616327e-05
-5.1675488e-05
5.1556134e-05
0.00020008993
5.219449e-08
3.9279263e-08
7.6472659e-09
4.8508192e-08
4.1711432e-08
9.2093444e-08
0.00025147966
-5.0657545e-05
-5.0634459e-05
1.4563783e-07
-5.1986163e-05
5.1113548e-05
5.1093032e-05
-5.1963468e-05
-0.00020008678
0.00025147488
9.2300399e-08
7.6474958e-09
1.3299992e-05
1.304149e-05
-1.494925e-05
-1.4404174e-05
5.0890229e-05
2.1834266e-08
-6.4814294e-05
-4.2004019e-08
-3.2033098e-06
3.7391055e-06
3.6452681e-06
-3.3342689e-06
1.3283865e-08
-4.0363677e-08
-3.1410691e-06
-3.0683412e-06
3.6878195e-06
3.8352163e-06
6.363626e-05
5.1544158e-05
-6.58297e-05
-3.3348754e-06
3.6913132e-06
3.7523723e-06
-3.2165838e-06
-3.0901622e-06
-3.1534331e-06
3.8371003e-06
3.7244472e-06
6.4739947e-05
-1.5435542e-07
-1.2312077e-05
-1.2758374e-05
1.4305789e-05
1.4629909e-05
-1.9482841e-07
-0.0001996422
-9.3874549e-08
-0.0001996552
-1.4668158e-07
-9.4198049e-08
2.0766764e-07
-1.5655499e-07
-2.6315841e-07
-2.6361807e-07
0.00018451173
2.0534266e-07
-1.255412e-07
1.0970154e-08
1.9932216e-07
-1.2124258e-07
0.00018450874
1.6979955e-08
-0.00018450629
0.00018450007
1.6260145e-08
1.0321265e-08
7.2560237e-08
5.1588162e-05
-4.2893086e-08
3.0024152e-06
2.9230784e-06
-4.1254193e-06
-4.2779902e-06
5.2251013e-05
-4.2896111e-06
2.9568983e-06
3.003505e-06
-4.1529153e-06
-6.1711359e-08
-3.6898515e-06
3.5756084e-06
3.463797e-06
-3.6184683e-06
-4.2705402e-08
-3.5835631e-06
3.586882e-06
3.4388286e-06
-3.6643816e-06
-3.3147639e-07
-0.00018417388
-3.7366738e-08
-0.00018419423
-2.544412e-07
-3.7214688e-08
3.517333e-07
-2.6952392e-07
-5.1220645e-08
-5.1256571e-08
1.4999764e-05
3.0763877e-08
-2.3549479e-08
4.9308726e-09
2.9866642e-08
-2.2898308e-08
1.500154e-05
7.7997485e-09
-1.4998977e-05
1.5000294e-05
7.895549e-09
5.0238578e-09
-1.4964117e-05
4.0368934e-08
-3.3512975e-08
-1.7764023e-08
4.3119967e-08
-3.5646206e-08
-2.4381249e-08
1.4961399e-05
-2.4280347e-08
-1.7612179e-08
1.3634465e-05
4.2822592e-08
-3.5116461e-08
4.1263727e-08
-3.3993503e-08
1.363498e-05
-1.3633063e-05
1.3632986e-05
-4.6207699e-08
-1.2045707e-06
-1.1336011e-06
1.6043014e-05
3.8450015e-07
3.6750363e-07
-3.6321188e-08
-1.1999521e-06
-1.1559507e-06
1.636166e-05
3.7194187e-07
3.8991394e-07
9.8228905e-10
-3.639717e-07
-3.8479067e-07
4.0872292e-06
-6.4585682e-09
6.4904525e-08
6.9615304e-08
-3.8483974e-07
-3.6970303e-07
4.1683239e-06
6.710227e-08
6.9537039e-08
-3.0479937e-09
-1.1524239e-06
-1.2063119e-06
1.6392032e-05
3.8928241e-07
3.7473983e-07
-1.832239e-08
-1.2059941e-06
-1.1407294e-06
1.6142244e-05
3.6777615e-07
3.8871969e-07
-2.5969137e-08
-1.1392653e-06
-1.2074407e-06
1.6142266e-05
3.8689415e-07
3.6959539e-07
-3.3747589e-10
-1.2048822e-06
-1.1539015e-06
1.6392146e-05
3.7291656e-07
3.9109779e-07
1.7125425e-08
-1.1544852e-06
-1.2013978e-06
1.6361806e-05
3.8809434e-07
3.7376676e-07
-1.2031328e-06
-1.1350929e-06
1.6043244e-05
-1.1166758e-08
3.6566986e-07
3.8633438e-07
-1.3831334e-07
-3.6010508e-06
-3.8304703e-06
6.3563002e-05
2.2216839e-06
2.3159711e-06
-1.748594e-08
-3.6606619e-06
-3.8175433e-06
6.4697335e-05
2.3330228e-06
2.2469982e-06
-1.1063868e-07
-3.6025002e-06
-3.8291155e-06
6.3563838e-05
9.5727263e-09
2.2199562e-06
2.317746e-06
1.1552807e-07
-1.3199172e-05
-1.2536788e-05
0.00025025941
1.1111963e-05
1.1549248e-05
-3.818924e-06
-3.6592666e-06
6.4697366e-05
2.3313032e-06
2.2487425e-06
-1.2525391e-05
-1.3210833e-05
0.00025026234
1.1126871e-05
1.1534632e-05
1.0738818e-07
0.00020013913
1.3557023e-06
0.00020014429
1.3560899e-06
-1.125933e-07
0.00025185376
1.0174005e-06
0.00025185034
1.0172902e-06
4.9694398e-08
-0.00018373024
0.00018459697
2.659292e-08
7.4334299e-08
-0.00018373057
0.00018459603
7.4381126e-08
-5.0240557e-08
5.4911713e-08
2.4454139e-08
5.4811703e-08
-1.6880168e-08
-1.4969723e-05
1.5001802e-05
3.5382527e-08
-1.4969498e-05
1.5001941e-05
-1.0386881e-08
3.529812e-08
1.6786269e-08
-1.0358165e-08
2.5846891e-08
2.5944533e-08
1.3609191e-05
2.827715e-08
-2.1567788e-08
2.8361513e-08
1.3637803e-05
-2.1671777e-08
-1.3609557e-05
1.363759e-05
4.0721058e-09
-1.4908245e-05
1.4946756e-05
3.4276832e-08
-1.4908548e-05
1.4946938e-05
3.4299571e-08
-3.9255737e-09
2.4238057e-08
2.4234796e-08
1.3560087e-05
1.4019108e-08
-8.6915077e-09
1.4861199e-08
1.3588669e-05
-9.19027e-09
-1.3561032e-05
1.3589229e-05
2.6045223e-07
1.1188235e-05
1.1182653e-05
-1.5918537e-07
1.1153252e-05
1.1217759e-05
3.5311761e-06
1.9165602e-07
-3.6274665e-06
-3.536014e-06
-6.4075463e-08
5.3178957e-05
1.801575e-06
1.8039291e-06
1.7951258e-07
-7.3722797e-08
6.538728e-05
-3.526224e-06
6.5346769e-05
-3.6453651e-06
-3.505773e-06
5.3151588e-05
1.8101442e-06
1.7894738e-06
-1.3241235e-06
2.0121558e-07
-6.6460188e-08
1.1803937e-05
1.8295768e-07
-4.9212435e-07
-6.0006707e-08
1.2180979e-05
1.3192959e-06
-4.9410809e-07
1.2119852e-05
1.1733542e-05
3.818168e-07
-1.8871707e-07
3.2120685e-06
3.0955864e-06
2.8947866e-06
2.819292e-06
-9.6488943e-08
-6.5789585e-09
7.0176649e-07
7.3526831e-07
5.943924e-07
5.771953e-07
-2.9162374e-08
4.7384742e-07
5.4213305e-07
5.5850397e-07
5.3429886e-07
-6.1621501e-09
5.5071938e-07
4.7957208e-07
5.6053127e-07
5.4575527e-07
5.5298808e-07
5.382587e-07
-3.1676642e-08
5.1694741e-07
-5.991522e-09
6.9537177e-07
7.1614138e-07
5.3286789e-07
-1.8136269e-07
2.7233384e-06
2.9147614e-06
2.7963737e-06
2.9956823e-06
5.2047542e-07
5.3508596e-07
7.1820292e-07
7.0000145e-07
3.8722524e-07
-6.450031e-08
3.1143066e-06
3.222844e-06
2.8324375e-06
2.9091859e-06
-6.311102e-08
2.8111611e-06
3.0103074e-06
2.7359895e-06
2.92916e-06
1.1958437e-07
-1.326101e-06
1.1812989e-05
-1.3252764e-06
-1.843093e-08
1.1753502e-05
-1.0167349e-07
-4.9466952e-07
-1.7465864e-08
1.2136869e-05
-4.9135432e-07
1.2191679e-05
-1.0223351e-07
3.8571703e-07
-1.8761838e-08
2.8200155e-06
2.9018184e-06
3.2180079e-06
3.0978994e-06
3.8850982e-07
3.2231733e-06
3.1194262e-06
2.8388179e-06
2.9076639e-06
-9.7779608e-08
-1.7598201e-08
2.7244263e-06
2.8033881e-06
2.9165595e-06
3.0026687e-06
2.8097672e-06
3.0092515e-06
2.7426076e-06
2.9359764e-06
4.1118784e-06
6.2719603e-07
-1.6589017e-08
-1.7845104e-06
5.3278713e-05
6.9626843e-07
-1.7821638e-08
1.3351443e-05
5.0808273e-05
-4.1178979e-06
1.289689e-05
5.0527118e-05
-1.7981523e-06
5.3025405e-05
3.5263719e-06
-6.3372191e-08
-3.63972e-06
-3.5114141e-06
-3.9130057e-08
5.3152246e-05
1.8029287e-06
1.7966269e-06
-6.1487386e-08
-4.5032631e-08
6.5347492e-05
-3.5311268e-06
6.538774e-05
-3.5304182e-06
-3.6331365e-06
5.3179178e-05
1.7967824e-06
1.8087224e-06
1.1192646e-07
-2.8897598e-06
5.6228463e-05
6.073538e-05
5.8648132e-05
5.4750198e-05
6.7097719e-07
-4.1117872e-06
1.3346043e-05
5.0808571e-05
-4.1180546e-06
1.2902403e-05
9.3783633e-09
5.0527453e-05
-6.0091573e-07
-1.7984453e-06
8.665082e-09
5.3025865e-05
-1.7843244e-06
5.3278884e-05
-2.8899541e-06
5.4766002e-05
5.8660174e-05
6.0725494e-05
5.6214835e-05
-1.0732858e-07
5.5325777e-05
5.6799693e-05
5.3926276e-05
5.5391827e-05
5.5309651e-05
5.5405656e-05
5.391054e-05
5.6813546e-05
-6.3178209e-07
2.0977196e-07
9.21578e-09
1.426328e-05
1.3741585e-05
1.2782207e-05
1.3140005e-05
2.1196326e-07
1.7703572e-08
1.3183596e-05
1.4296907e-05
1.3829468e-05
1.2853102e-05
-6.0833279e-07
8.7593921e-09
1.2730405e-05
1.3086949e-05
1.2644257e-05
1.3005371e-05
1.6921802e-08
1.2801861e-05
1.3050324e-05
1.3131133e-05
1.2717558e-05
6.5989148e-07
2.1197587e-07
1.2851291e-05
1.3828139e-05
1.4298156e-05
1.3185312e-05
2.0984618e-07
1.313813e-05
1.426185e-05
1.3742781e-05
1.2783903e-05
-6.351413e-07
1.273214e-05
1.3003484e-05
1.3085034e-05
1.2645951e-05
1.2799999e-05
1.3132878e-05
1.2715754e-05
1.3052059e-05
1.7504173e-07
-1.3239863e-06
-2.9530127e-08
1.180411e-05
-1.3194522e-06
1.1733474e-05
-1.1270866e-08
-1.5531374e-07
-4.9435243e-07
-1.0675684e-08
1.2119878e-05
-2.51019e-08
-4.9191495e-07
1.2181015e-05
-1.4567035e-07
-1.3251591e-06
1.1753598e-05
-1.3262731e-06
1.1812862e-05
1.2923159e-07
-4.9159941e-07
1.2191672e-05
-4.9445971e-07
1.2136856e-05
-1.5896282e-07
3.8184725e-07
-1.1458205e-08
3.0941941e-06
3.2134679e-06
2.8173705e-06
2.8966816e-06
3.8719422e-07
-2.7030903e-08
3.2214645e-06
3.1156864e-06
2.907305e-06
2.8343471e-06
-1.5346981e-07
-1.0745427e-08
2.7214143e-06
2.7982805e-06
2.9129226e-06
2.9975488e-06
-2.7889571e-08
2.8092808e-06
2.7379136e-06
3.008474e-06
2.9310066e-06
-1.3190285e-07
3.8569972e-07
3.2166198e-06
3.0992798e-06
2.8219184e-06
2.8999319e-06
3.8855027e-07
3.224554e-06
3.1180534e-06
2.8369128e-06
2.9095415e-06
1.2559139e-07
2.7406936e-06
2.8116475e-06
2.9341458e-06
3.0110922e-06
2.8014939e-06
3.0008219e-06
2.7263331e-06
2.9183895e-06
5.1722317e-08
5.7970455e-07
-2.0754455e-08
-9.7764104e-07
7.527529e-07
7.3258512e-07
9.7748241e-07
1.0198983e-06
5.7801623e-07
-9.6240292e-07
7.2902224e-07
7.4888541e-07
1.0154232e-06
9.6477991e-07
4.2758523e-08
-1.8662258e-08
3.1657863e-06
3.1026711e-06
-2.3417867e-08
5.8063272e-07
-1.1084855e-08
-9.6776375e-07
9.6768479e-07
7.2895731e-07
7.5075184e-07
1.019227e-06
5.7970395e-07
-9.7911308e-07
7.3450971e-07
7.5228037e-07
1.0215056e-06
9.7915162e-07
1.9958471e-08
3.1741786e-06
-1.0275932e-08
3.1251171e-06
1.0258383e-08
2.4286843e-07
-1.7681019e-09
-5.4566545e-07
1.0438596e-06
2.399619e-07
-5.3576913e-07
-1.835711e-09
1.0362631e-06
-7.7984501e-09
8.4979001e-07
-1.7487796e-09
-1.339297e-09
8.6755823e-07
-8.6401239e-09
2.4126678e-07
-5.3870905e-07
1.0389224e-06
2.4310569e-07
-5.4639785e-07
1.0449731e-06
6.8266928e-09
8.6948075e-07
8.5582224e-07
-4.0407403e-08
5.7890839e-07
-4.6789858e-09
-9.6402653e-07
9.6493788e-07
7.2863131e-07
7.497905e-07
1.0166253e-06
5.8009887e-07
-3.4209827e-09
-9.7891009e-07
1.0202485e-06
7.5231924e-07
7.3356787e-07
9.7861639e-07
3.339653e-08
-2.26878e-09
3.1714543e-06
-4.5416608e-09
3.1086982e-06
3.8278153e-08
5.803713e-07
-9.7993217e-07
9.7908623e-07
7.3398632e-07
7.5308395e-07
1.0224315e-06
5.802835e-07
-9.6811279e-07
1.0187767e-06
7.5010468e-07
7.2998351e-07
9.6835438e-07
-3.2681916e-08
3.1266295e-06
3.1775407e-06
-3.0800272e-08
5.8035589e-07
1.6831341e-09
-9.6811393e-07
7.5058395e-07
7.2951387e-07
9.6798433e-07
1.01915e-06
5.8030707e-07
1.2781702e-08
-9.7994215e-07
7.3446065e-07
7.5261382e-07
1.0220677e-06
9.7946212e-07
2.6372318e-08
1.1310931e-08
3.1776093e-06
1.1447168e-09
3.1265774e-06
4.7857441e-08
5.8016802e-07
-9.7890619e-07
7.5279237e-07
7.3309761e-07
9.7824446e-07
1.0206155e-06
5.7884212e-07
-9.6403064e-07
1.0162574e-06
7.4931644e-07
7.2910213e-07
9.6530974e-07
-3.9678168e-08
3.1087617e-06
3.1713973e-06
-4.4221896e-08
5.7809714e-07
-9.6241775e-07
7.4937022e-07
7.285529e-07
-2.8665593e-09
9.6441234e-07
1.0158038e-06
5.7964533e-07
-1.1351837e-08
-9.7766125e-07
7.3306336e-07
7.5228233e-07
1.0195374e-06
9.7786399e-07
3.6445468e-08
-9.5889694e-09
3.1658732e-06
3.1026361e-06
-2.7779586e-09
1.1122038e-06
-1.9565208e-07
-1.7576562e-06
3.0278144e-06
3.6210108e-06
3.116504e-06
3.815564e-06
3.0911669e-08
5.7977802e-07
-9.7911827e-07
7.527576e-07
7.3403848e-07
9.7878169e-07
1.0218786e-06
5.8056973e-07
-9.6777381e-07
7.2943265e-07
7.502776e-07
1.0188608e-06
9.6806192e-07
-2.6279106e-08
3.1251959e-06
3.1741374e-06
-1.7273374e-07
1.2211862e-05
-1.0967863e-06
-5.1036399e-08
1.2463985e-05
-5.6768467e-08
-1.7826736e-06
3.0458502e-06
3.1314882e-06
3.8326449e-06
3.67055e-06
1.2340434e-07
1.0946024e-06
-1.7848436e-06
3.1314737e-06
3.0514366e-06
3.676025e-06
3.8389474e-06
1.1137177e-06
-4.3698695e-09
-1.7673256e-06
3.0305068e-06
3.1222524e-06
3.8279437e-06
3.6331674e-06
-1.1179615e-07
-4.3060038e-09
1.2292933e-05
1.249508e-05
-6.4620621e-07
1.7507305e-06
-3.2559317e-06
1.3136425e-05
1.5321723e-05
1.2748465e-05
1.4536993e-05
1.6340636e-06
3.5929405e-08
-3.2868406e-06
1.3185404e-05
1.5379023e-05
1.2835441e-05
1.4726231e-05
5.9056021e-07
3.5347382e-08
5.0383321e-05
4.9453446e-05
1.1122972e-06
-1.8869674e-07
-1.7576632e-06
2.3393679e-09
3.6207132e-06
3.0274136e-06
3.1169696e-06
3.8159345e-06
-1.6676618e-07
1.2211925e-05
2.3055461e-09
1.096716e-06
-4.801666e-08
-1.7826813e-06
3.131077e-06
3.0463103e-06
3.8323325e-06
3.6709294e-06
-4.2478655e-08
1.2464164e-05
1.3032526e-07
1.0946791e-06
-1.7848422e-06
3.0510149e-06
3.131923e-06
3.6756915e-06
3.8393062e-06
1.1136392e-06
-1.7673241e-06
3.8276076e-06
3.1218233e-06
3.030947e-06
3.6335218e-06
1.1774839e-07
1.2495068e-05
1.2293032e-05
-7.0341475e-07
1.7500311e-06
-3.2558971e-06
1.4540275e-05
1.2752428e-05
1.3133085e-05
1.5319157e-05
1.6347231e-06
-3.2868128e-06
1.3189161e-05
1.2831916e-05
1.5382037e-05
1.4723399e-05
-6.3993498e-07
4.9455258e-05
5.0383062e-05
-1.3180714e-05
-8.5923918e-09
1.6662829e-05
7.9866037e-07
-1.0802207e-06
7.6656636e-07
-1.0524967e-06
4.1848749e-09
-3.3280009e-06
4.161974e-06
-5.8258497e-09
1.9895934e-07
-2.3532757e-07
-2.4056131e-07
2.0863786e-07
-3.3774831e-06
4.2442605e-06
2.0849412e-07
-2.4192272e-07
2.0177556e-07
-2.3706583e-07
6.6889877e-09
-4.2176311e-06
-5.911453e-09
-2.7031815e-07
1.7960283e-07
-2.5970943e-07
1.8417303e-07
-4.2932256e-06
1.831292e-07
-2.607189e-07
1.8493561e-07
-2.7082129e-07
-3.3325269e-06
8.9808819e-09
-5.9182783e-09
1.4651236e-07
-3.0203651e-07
-3.088474e-07
1.5511543e-07
1.0528142e-08
-5.9517595e-09
1.1044368e-07
-3.3384985e-07
-3.45623e-07
1.1378619e-07
-3.3810523e-06
1.5408385e-07
1.4833086e-07
-3.1115154e-07
-3.0479609e-07
1.1356489e-07
1.1296368e-07
-3.4692543e-07
-3.3601664e-07
-2.7042484e-09
5.8153049e-07
-1.2028091e-06
5.9357425e-07
-1.2496649e-06
-1.337279e-05
1.6961431e-05
-2.1097879e-08
7.6980229e-07
-1.0670977e-06
7.9946908e-07
-1.0835287e-06
-1.9946563e-08
5.8688465e-07
-1.2150455e-06
5.9782054e-07
-1.2489451e-06
-3.2002086e-06
2.4954791e-09
4.038251e-06
-5.8655085e-09
2.2679484e-07
2.3676642e-07
-1.9098025e-07
-1.9505673e-07
3.4911289e-09
-4.0864236e-06
2.3232037e-07
-5.9569883e-09
-2.008926e-07
2.2636296e-07
-1.9245945e-07
-3.2468733e-06
4.1169613e-06
-1.9239404e-07
2.3669086e-07
-1.9634716e-07
2.296751e-07
-4.1602858e-06
2.3319121e-07
-2.0121908e-07
-1.9328581e-07
2.2985942e-07
-1.311075e-05
-2.3484987e-08
1.6357789e-05
9.1470411e-07
-8.2076203e-07
9.4820695e-07
-8.4379843e-07
-1.9224918e-08
9.0401455e-07
8.8545156e-07
-9.2925251e-07
-8.8930935e-07
-1.3303134e-05
-1.9834899e-08
1.66809e-05
9.2107036e-07
9.5258376e-07
-8.3169058e-07
-8.4397638e-07
-1.5106667e-08
8.9437992e-07
-8.9772396e-07
9.1188828e-07
-9.2614527e-07
-3.2570099e-06
4.5451519e-09
-5.9478135e-09
2.2260134e-07
-1.9843595e-07
-2.0240556e-07
2.3307525e-07
6.3207035e-09
-5.8352593e-09
-2.1891642e-07
2.178252e-07
-2.1008027e-07
2.2383092e-07
-3.3049815e-06
-2.0074449e-07