/*--------------------------------*- C++ -*----------------------------------*\
  =========                 |
  \\      /  F ield         | OpenFOAM: The Open Source CFD Toolbox
   \\    /   O peration     | Website:  https://openfoam.org
    \\  /    A nd           | Version:  7
     \\/     M anipulation  |
\*---------------------------------------------------------------------------*/
FoamFile
{
    version     2.0;
    format      ascii;
    class       volVectorField;
    location    "0";
    object      U;
}
// * * * * * * * * * * * * * * * * * * * * * * * * * * * * * * * * * * * * * //

dimensions      [0 1 -1 0 0 0 0];

internalField   nonuniform List<vector> 
34222
(
(0.090265267 -0.00027382588 -0.00072218381)
(0.090941623 -0.000292163 -0.00085703463)
(0.090236723 -0.00017469351 -0.00072289201)
(0.090519745 -0.00023742675 -0.00030889117)
(0.090532677 -0.00032010201 -0.00030668169)
(0.090311239 -0.00030528085 -0.00023811904)
(0.090289382 -0.00021778655 -0.00023571761)
(0.091335539 -0.00028264533 -0.00016186308)
(0.09093572 -0.00018878392 -0.00085731213)
(0.090913845 -0.00033759299 -0.00037694473)
(0.090915561 -0.00024180396 -0.000377068)
(0.090640433 -0.00024400541 -0.000257689)
(0.090646186 -0.0003314132 -0.00025802184)
(0.090218617 -9.4183574e-05 -0.0007232347)
(0.090257914 -0.00012924813 -0.0002364284)
(0.090509494 -0.00021353861 -0.00030730377)
(0.090500174 -0.00014360351 -0.00030880339)
(0.090272711 -0.00020384349 -0.0002381356)
(0.090524955 -0.00025025912 -0.00012327218)
(0.090537753 -0.0003063419 -0.00012301518)
(0.090411106 -0.00028784816 -6.4787781e-05)
(0.090390717 -0.00023427347 -6.4533252e-05)
(0.088914529 -9.5253111e-05 -0.00066512859)
(0.091348379 -0.0001852932 -0.00016179699)
(0.09096772 -0.00025424287 0.00060520973)
(0.090990867 -0.00025528427 -2.1973168e-05)
(0.091001481 -0.00024159177 -0.000110092)
(0.090989708 -0.00030966482 -0.00011163829)
(0.09098382 -0.00031538876 -2.0925675e-05)
(0.090930958 -0.00010219275 -0.00085742969)
(0.090629786 -0.00014773727 -0.00025796152)
(0.090915428 -0.00014551066 -0.00037732983)
(0.090915532 -0.00023039726 -0.0003770748)
(0.090634625 -0.00022313227 -0.00025835417)
(0.090827111 -0.00031747906 -0.00012950353)
(0.090828064 -0.00026148847 -0.00012946659)
(0.090675143 -0.0002591029 -8.61426e-05)
(0.0906807 -0.00031590729 -8.6172669e-05)
(0.090210862 -2.3630843e-05 -0.00072336898)
(0.090239354 -5.6159954e-05 -0.00023702406)
(0.090488252 -6.5168375e-05 -0.00030861558)
(0.09049347 -0.00012761826 -0.00030773176)
(0.090247486 -0.0001232812 -0.00023791651)
(0.090359482 -0.0001453034 -6.4568162e-05)
(0.090513781 -0.00020064592 -0.00012316948)
(0.090504582 -0.00015600504 -0.00012322762)
(0.09037334 -0.0001872928 -6.4844858e-05)
(0.090520618 -0.00025017398 -2.0925049e-05)
(0.090533522 -0.00030624793 -2.0810056e-05)
(0.090401432 -0.00028757671 -1.0352992e-05)
(0.090380803 -0.00023405248 -1.0370149e-05)
(0.088695788 -9.5330063e-05 0.00021542693)
(0.087800472 -0.00019068806 -0.0020013145)
(0.087799611 -1.0284518e-05 -0.0020017132)
(0.088906704 -2.3872861e-05 -0.0006652605)
(0.088837781 -0.00012569752 -0.0023796974)
(0.088835092 -7.5431663e-05 -0.0023816314)
(0.091355075 -0.00010059538 -0.00016177015)
(0.090993037 -0.00016906543 0.0006056273)
(0.090998018 -0.00016104671 -2.171313e-05)
(0.091016514 -0.00015120143 -0.00011043879)
(0.091009997 -0.00021143924 -0.00011128626)
(0.090994683 -0.00021172738 -2.1185698e-05)
(0.090625993 -0.00022849412 0.00017280145)
(0.090908764 -0.00024841217 0.00027490095)
(0.09089382 -0.00027567434 0.00027687815)
(0.090608531 -0.00026135923 0.00017025209)
(0.090910412 -0.00025819536 -1.2628144e-05)
(0.090903764 -0.00025018649 -3.3399897e-05)
(0.090892477 -0.00030108472 -3.3500212e-05)
(0.090903735 -0.00031210026 -1.2506617e-05)
(0.090836868 -0.00023949556 -0.0019592854)
(0.090836461 3.5634195e-05 -0.0019593266)
(0.090929275 -2.4785781e-05 -0.00085747502)
(0.090914806 -0.00014096449 -0.00037722435)
(0.090914598 -6.2704261e-05 -0.0003774172)
(0.090622908 -6.6176234e-05 -0.0002582217)
(0.090625707 -0.00013440652 -0.00025841668)
(0.090665102 -0.00016234771 -8.6168522e-05)
(0.09082748 -0.00016470024 -0.00012954234)
(0.090828032 -0.00021093535 -0.0001294806)
(0.090669756 -0.00020836645 -8.6282549e-05)
(0.090823078 -0.00031749524 -2.1650914e-05)
(0.090824036 -0.00026150873 -2.1670998e-05)
(0.090673476 -0.00025908079 -1.5814085e-05)
(0.09067912 -0.00031588165 -1.5751121e-05)
(0.090484498 5.5419683e-06 -0.00030829691)
(0.090485432 -5.3498872e-05 -0.0003081434)
(0.090234849 -5.4502893e-05 -0.00023765364)
(0.090233059 9.2239581e-06 -0.00023745324)
(0.09034099 -7.1921854e-05 -6.476681e-05)
(0.090492169 -7.7273575e-05 -0.00012331757)
(0.090497322 -0.00011518311 -0.00012311181)
(0.09034861 -0.0001071805 -6.4740693e-05)
(0.090349456 -0.00014519382 -1.0313365e-05)
(0.090509457 -0.00020062774 -2.0863384e-05)
(0.090500194 -0.00015599768 -2.0860745e-05)
(0.090363475 -0.00018714577 -1.0363889e-05)
(0.0905285 -0.00025016558 -6.5536168e-06)
(0.090541412 -0.00030623796 -6.569364e-06)
(0.090438168 -0.00028753941 -2.8638338e-06)
(0.090417515 -0.00023402137 -2.8366532e-06)
(0.087967614 -0.00014095476 0.0016767782)
(0.086643266 -0.0002365675 -0.00022331046)
(0.08796666 -5.989742e-05 0.0016769642)
(0.088687896 -2.3852408e-05 0.00021544051)
(0.086642243 3.56765e-05 -0.00022337713)
(0.085839455 -0.00025704958 -0.004524879)
(0.084030532 -4.4046273e-05 -0.0099522938)
(0.08780854 -0.00019115736 -0.0044921634)
(0.085966015 -7.2654671e-05 -0.0044261123)
(0.088232492 -0.00015925744 -0.0043963337)
(0.085965437 -0.00012997661 -0.0044259016)
(0.085838576 5.3339668e-05 -0.0045254959)
(0.087805583 -1.3150065e-05 -0.0044942296)
(0.087796969 -0.00011294701 -0.0020016678)
(0.088233556 -4.3479427e-05 -0.0043948554)
(0.087797025 6.3803322e-05 -0.0020017598)
(0.088833506 -4.7850568e-05 -0.0023803189)
(0.088833151 -1.344616e-06 -0.0023807111)
(0.088909156 4.454114e-05 -0.00066521911)
(0.092313668 -0.00019121821 -0.001182502)
(0.092440432 -7.1539443e-05 0.00052745665)
(0.091358718 -2.3067888e-05 -0.00016176399)
(0.092444083 -0.00012514558 0.00052678645)
(0.091007849 -9.175066e-05 0.00060583027)
(0.091001473 -7.8697216e-05 -2.162758e-05)
(0.091024735 -7.0787208e-05 -0.00011066364)
(0.091021199 -0.00012605976 -0.00011106807)
(0.090999748 -0.00012353392 -2.1311973e-05)
(0.092315331 -1.1039941e-05 -0.0011824365)
(0.090640222 -0.00017739918 0.00017098391)
(0.090650908 -0.00014910879 0.00017252025)
(0.090928832 -0.00016298094 0.00027557412)
(0.090920071 -0.00018410997 0.00027673137)
(0.090918068 -0.00016355519 -1.2665563e-05)
(0.090918386 -0.00015940126 -3.3430966e-05)
(0.090912195 -0.00020323257 -3.3531539e-05)
(0.090914962 -0.0002089789 -1.2563627e-05)
(0.090612672 -0.00022371378 5.9828615e-05)
(0.090800612 -0.00023839867 9.2533206e-05)
(0.090785683 -0.00028554125 9.2813299e-05)
(0.090595124 -0.00026679151 5.94907e-05)
(0.090905767 -0.00025817701 -3.0824269e-06)
(0.090898466 -0.0002501493 -4.8986673e-06)
(0.090887147 -0.00030107035 -4.8165229e-06)
(0.090899035 -0.00031210513 -3.0094308e-06)
(0.091322712 -0.00039476467 -0.005036942)
(0.09219763 0.00021898434 -0.0099169928)
(0.091462062 1.0609536e-05 -0.0049212036)
(0.09146249 -0.00021343378 -0.0049212728)
(0.091322676 0.00019068928 -0.0050371437)
(0.090836545 -0.00016042233 -0.001959292)
(0.090837013 0.0001116124 -0.0019593743)
(0.090931459 4.9911649e-05 -0.0008574778)
(0.090915116 1.3231059e-05 -0.00037731039)
(0.090914569 -6.1964829e-05 -0.00037736675)
(0.090621284 -5.7008204e-05 -0.00025837669)
(0.090621062 7.925527e-06 -0.00025837349)
(0.090826854 -0.00012187733 -0.00012953371)
(0.090826405 -8.1613811e-05 -0.00012966749)
(0.090658566 -8.0446926e-05 -8.6304193e-05)
(0.090661275 -0.00012001438 -8.6221303e-05)
(0.090663442 -0.00016237128 -1.577234e-05)
(0.090823485 -0.00016468898 -2.1679702e-05)
(0.090823993 -0.00021093372 -2.1615719e-05)
(0.090668088 -0.00020838387 -1.578744e-05)
(0.090822923 -0.00031749387 -6.9736723e-06)
(0.090823882 -0.00026150792 -6.9635992e-06)
(0.09067419 -0.00025908007 -5.0280764e-06)
(0.090679835 -0.00031588053 -5.0483309e-06)
(0.090488161 -6.5673159e-06 -0.000123232)
(0.090489094 -4.1386112e-05 -0.00012324124)
(0.090336289 -3.8717213e-05 -6.4825621e-05)
(0.090334621 -6.5217876e-06 -6.4779118e-05)
(0.09033092 -7.1811207e-05 -1.0388175e-05)
(0.090487742 -7.721988e-05 -2.0911205e-05)
(0.090492937 -0.00011512858 -2.0796623e-05)
(0.090338611 -0.00010704047 -1.0299458e-05)
(0.090386136 -0.00014517285 -2.854696e-06)
(0.090517333 -0.00020061968 -6.5663855e-06)
(0.090508065 -0.00015599103 -6.5659866e-06)
(0.09040017 -0.00018711908 -2.8661652e-06)
(0.08975694 -0.00011729319 0.0016214839)
(0.089757795 -8.3265726e-05 0.001621162)
(0.087730958 -0.0001175479 0.0039162783)
(0.088153066 -0.00018479059 0.003673336)
(0.087721742 -0.00021185379 0.0037137864)
(0.087649921 -0.00017797439 0.0039856635)
(0.084156597 -0.00026396902 0.0028982844)
(0.075420027 0.00026182061 -0.006567769)
(0.082246245 -0.00040220512 -0.0017531217)
(0.084278673 -3.1246787e-05 0.0028926783)
(0.082409347 9.2244741e-05 -0.0017438941)
(0.087964108 -6.3193171e-05 0.00167679)
(0.08764891 -2.5577039e-05 0.0039859094)
(0.087720228 8.1346522e-06 0.0037147575)
(0.088153247 -1.8033422e-05 0.0036720738)
(0.087730179 -8.4809761e-05 0.0039161883)
(0.087964157 1.4199456e-05 0.0016768547)
(0.088690367 4.4649207e-05 0.00021550595)
(0.086639664 0.00010974913 -0.00022314396)
(0.086639643 -0.00015883049 -0.00022317857)
(0.084155376 6.029988e-05 0.00289854)
(0.084277911 -0.0001712007 0.0028924948)
(0.082245232 0.00019862805 -0.0017529869)
(0.082408938 -0.00029485903 -0.001743973)
(0.084030446 -0.00024159562 -0.0099516285)
(0.084133935 -0.00013261245 -0.0098446069)
(0.087107273 -0.00018334198 -0.0087156553)
(0.086704808 -0.00018654497 -0.0087871239)
(0.084117278 -0.00018044553 -0.019471865)
(0.084177912 -2.4156245e-05 -0.019355991)
(0.086640561 -9.6600525e-05 -0.015416682)
(0.086265746 -0.00010448237 -0.015494329)
(0.086762228 -5.1189601e-05 -0.0087744682)
(0.084078805 -1.0244816e-05 -0.009922946)
(0.084204417 -0.00017352873 -0.009820829)
(0.087169453 -8.4543089e-05 -0.0086699914)
(0.084204401 -2.9500844e-05 -0.0098212477)
(0.084078855 -0.00019263488 -0.0099224707)
(0.087167812 -0.00011863542 -0.0086715492)
(0.086764347 -0.00015240371 -0.0087723717)
(0.084030152 3.707502e-05 -0.0099524212)
(0.084133716 -7.0838285e-05 -0.0098444831)
(0.086702508 -1.8664645e-05 -0.0087894112)
(0.08710872 -2.024521e-05 -0.008714276)
(0.085838006 -0.00017747559 -0.0045252566)
(0.087806278 -0.00011126766 -0.0044929482)
(0.085964774 4.8430269e-06 -0.0044261614)
(0.088231849 -8.1718212e-05 -0.0043957113)
(0.0877986 -3.9944179e-05 -0.0020017732)
(0.087806214 6.201959e-05 -0.0044934244)
(0.085838407 0.0001283642 -0.0045254049)
(0.088232424 3.2982031e-05 -0.0043954151)
(0.085964963 -5.3563522e-05 -0.004426107)
(0.088834487 2.5212909e-05 -0.0023811202)
(0.088836525 7.1940226e-05 -0.002379996)
(0.087799673 0.0001370279 -0.0020015954)
(0.098870974 -0.0001519001 -0.0041053488)
(0.09642698 4.7741685e-05 -0.0076759116)
(0.094039636 -0.00023646766 -0.0034603818)
(0.09671161 -0.00020230921 0.0009109815)
(0.094979502 -9.2980014e-05 -0.00085345347)
(0.098359529 -0.00020084776 -0.00016360035)
(0.094090975 7.3696578e-05 -0.0035392273)
(0.094919346 -0.00020068526 -0.00096648708)
(0.093161224 -0.00010439144 0.0016132596)
(0.093860828 -0.00018916354 0.0023976785)
(0.094278144 -8.5407694e-05 0.0011362741)
(0.09448862 -0.00017610473 0.0022252983)
(0.09563443 -0.00023050576 0.0019628579)
(0.094222112 -0.00010097724 0.0012375634)
(0.093204712 -0.0002155712 0.0017001157)
(0.091768983 -8.4567141e-05 0.0011542147)
(0.092448297 -5.0077514e-05 0.00052702294)
(0.092317614 6.5160105e-05 -0.0011824372)
(0.092446574 5.904037e-06 0.00052728442)
(0.091360617 5.2328718e-05 -0.00016178655)
(0.09100366 -2.5076061e-06 -2.1534664e-05)
(0.091028869 4.3435369e-06 -0.00011074327)
(0.091015363 -1.917301e-05 0.00060591846)
(0.091027186 -4.8560383e-05 -0.00011097689)
(0.091002536 -4.4601209e-05 -2.1378154e-05)
(0.092316498 -0.00011227634 -0.0011825553)
(0.094282772 -0.00011332181 0.0011360713)
(0.093167184 -9.0494537e-05 0.0016127513)
(0.094223636 -9.6401703e-05 0.0012370927)
(0.093206633 2.1646836e-05 0.0017003939)
(0.091773969 -0.0001034627 0.0011547612)
(0.090659381 -0.00010103226 0.00017144382)
(0.090665378 -7.587375e-05 0.00017222905)
(0.090940166 -8.5621956e-05 0.00027591726)
(0.09093532 -0.00010272523 0.00027663449)
(0.090921844 -8.0950813e-05 -1.2752331e-05)
(0.090926383 -7.8699558e-05 -3.3535595e-05)
(0.090922998 -0.00011807953 -3.3421476e-05)
(0.090920227 -0.00012111554 -1.2587826e-05)
(0.094041562 3.3271639e-05 -0.0034604964)
(0.094091453 -0.00027572725 -0.0035392324)
(0.094920293 5.919467e-07 -0.00096645861)
(0.094983175 -0.00010844204 -0.0008539882)
(0.090626507 -0.00018290372 5.965971e-05)
(0.090637287 -0.00014395814 5.9850387e-05)
(0.090820891 -0.00015270902 9.271793e-05)
(0.090812094 -0.00019430002 9.2783496e-05)
(0.090913421 -0.00016354727 -3.1091797e-06)
(0.090913046 -0.00015942635 -4.8926327e-06)
(0.090906887 -0.000203234 -4.8787876e-06)
(0.090910326 -0.00020896147 -3.036999e-06)
(0.090611551 -0.00022374138 1.0984712e-05)
(0.090796158 -0.00023837549 1.5038242e-05)
(0.090781276 -0.00028554506 1.5163844e-05)
(0.090594074 -0.00026682897 1.0987018e-05)
(0.090905609 -0.00025817636 -9.8450987e-07)
(0.090898151 -0.00025014976 -1.5526914e-06)
(0.090886833 -0.00030106985 -1.5893227e-06)
(0.09089888 -0.000312104 -9.999668e-07)
(0.092198508 -0.00050453801 -0.0099167259)
(0.092331372 4.8048443e-05 -0.0097859195)
(0.093780616 0.00029351057 -0.016555515)
(0.093905985 -0.0003840142 -0.016412112)
(0.09235573 -0.00037054335 -0.0097735923)
(0.092230591 0.0002345831 -0.0098896806)
(0.092231224 -0.00043733664 -0.0098895707)
(0.092355768 0.00016770516 -0.0097736617)
(0.092332299 -0.00025133972 -0.0097861702)
(0.092198844 0.00030020803 -0.0099171703)
(0.091323099 -0.00031489473 -0.0050370706)
(0.091462811 8.8529732e-05 -0.0049213403)
(0.09132396 0.00026628507 -0.0050371915)
(0.090838049 -8.5577363e-05 -0.0019592984)
(0.091463209 -0.00013675823 -0.0049213486)
(0.090839595 0.00018665679 -0.0019594637)
(0.090622178 1.5903692e-05 -0.00025817255)
(0.090624697 8.1055782e-05 -0.00025849002)
(0.090917717 8.8293197e-05 -0.00037718258)
(0.090916175 1.2885762e-05 -0.00037740766)
(0.090826837 -5.6338387e-06 -0.00012954791)
(0.090826363 -4.3156771e-05 -0.0001295822)
(0.090657042 -4.2856612e-05 -8.628813e-05)
(0.090656837 -6.2564489e-06 -8.6250219e-05)
(0.090822846 -0.00012185145 -2.1640734e-05)
(0.090822406 -8.1599813e-05 -2.1738643e-05)
(0.090656894 -8.0414843e-05 -1.5824474e-05)
(0.090659624 -0.00011998761 -1.573199e-05)
(0.090664153 -0.00016237014 -5.0400087e-06)
(0.09082333 -0.00016468914 -6.968158e-06)
(0.090823838 -0.00021093345 -6.9854261e-06)
(0.090668801 -0.00020838252 -5.0492106e-06)
(0.090483716 -6.6029741e-06 -2.0860039e-05)
(0.090484663 -4.140252e-05 -2.0869442e-05)
(0.090326228 -3.8695049e-05 -1.0374307e-05)
(0.090324531 -6.5516457e-06 -1.0359621e-05)
(0.090367582 -7.1801921e-05 -2.8513865e-06)
(0.090495606 -7.7217231e-05 -6.5630935e-06)
(0.090500804 -0.00011512433 -6.5785413e-06)
(0.090375281 -0.00010702557 -2.8773533e-06)
(0.090785392 -7.8975534e-05 0.0021747074)
(0.090785554 -0.00012468442 0.0021747317)
(0.088669612 -0.00012237818 0.0061656931)
(0.089928089 4.881037e-06 0.0038924697)
(0.089845687 -0.00028525559 0.0038801239)
(0.088629103 -0.00014811527 0.0061788545)
(0.083331659 -0.00022607807 0.0074959872)
(0.081469312 -9.0973373e-06 0.0058771424)
(0.081396068 -0.0003222265 0.0059516488)
(0.082910517 -0.00021726674 0.0075309634)
(0.076163782 -0.00045284465 0.002348864)
(0.068260087 0.00026969225 0.0043951538)
(0.062963906 0.000599583 -0.00440765)
(0.063152352 -0.00081715396 -0.0043912542)
(0.068546242 0.00022071592 -0.018369729)
(0.075419814 -0.00054738039 -0.0065678649)
(0.068701468 -0.0003982174 -0.018313369)
(0.076292913 0.00011746923 0.0023460403)
(0.075591387 0.00018220313 -0.0065446748)
(0.083380352 -7.4295151e-05 0.007484339)
(0.082964161 -3.6874926e-05 0.0075181973)
(0.081422268 7.5726453e-05 0.005934723)
(0.081525409 -0.00027155668 0.0058690771)
(0.07620796 0.00020439059 0.0023472676)
(0.076356184 -0.00040274768 0.0023479564)
(0.075481233 0.00029531651 -0.006554121)
(0.075663961 -0.00048175775 -0.0065389377)
(0.087729728 -4.0011303e-05 0.003916413)
(0.08815222 -0.00010703187 0.0036728525)
(0.087720134 -0.00013200377 0.0037141427)
(0.087648515 -9.82656e-05 0.0039859727)
(0.08862935 -5.5870006e-05 0.0061790486)
(0.089846075 8.1390237e-05 0.0038802782)
(0.089928375 -0.0002076205 0.0038924915)
(0.088669675 -8.0588547e-05 0.0061657138)
(0.087965752 9.8116144e-06 0.0016769686)
(0.088152613 5.8471623e-05 0.0036726229)
(0.087720463 8.310342e-05 0.0037143881)
(0.087648963 4.9318674e-05 0.0039861317)
(0.087729892 -8.5158544e-06 0.00391642)
(0.087966874 8.7430926e-05 0.0016769179)
(0.086642383 0.00018294521 -0.00022302801)
(0.086641234 -8.5850419e-05 -0.00022315711)
(0.084155301 0.00013533395 0.0028986032)
(0.08427747 -9.4797519e-05 0.0028926033)
(0.082245033 0.00027359742 -0.0017528938)
(0.082408316 -0.0002184476 -0.0017438364)
(0.084277307 4.6211153e-05 0.0028926164)
(0.084154959 -0.00018436516 0.0028984584)
(0.082244671 -0.00032265775 -0.0017530048)
(0.082408085 0.00016975942 -0.001743835)
(0.083332283 2.2254448e-05 0.0074945976)
(0.082909346 1.2484203e-05 0.0075323552)
(0.081395577 0.00011762941 0.0059520838)
(0.081468842 -0.00019428814 0.0058769911)
(0.082964869 -0.00016615547 0.0075169757)
(0.083379324 -0.0001291107 0.0074859199)
(0.081525487 6.8598427e-05 0.0058695064)
(0.081422347 -0.0002786222 0.005934562)
(0.076163022 0.00024824248 0.0023490631)
(0.076292448 -0.00032084235 0.0023458463)
(0.075419333 0.00034294242 -0.0065679381)
(0.075591293 -0.00038566821 -0.0065448026)
(0.076208289 -0.00040736003 0.0023470925)
(0.076356263 0.00019980653 0.0023481898)
(0.07566374 0.00027872054 -0.0065389492)
(0.075481325 -0.00049812021 -0.0065542032)
(0.084178249 -0.00026129257 -0.019356612)
(0.084117576 -0.00010526913 -0.019471265)
(0.086638998 -0.00018917904 -0.015418388)
(0.08626845 -0.00018234705 -0.015491706)
(0.084152409 -0.00018746531 -0.019433816)
(0.084248409 -7.3532358e-05 -0.019327454)
(0.086697208 -9.8621756e-05 -0.015363179)
(0.086319303 -8.9366196e-05 -0.015480953)
(0.090282048 0.00024624558 -0.032460449)
(0.090330696 -0.00049645742 -0.032551076)
(0.08826141 -0.00011998233 -0.02391261)
(0.088588771 -9.3362535e-05 -0.023840837)
(0.090336403 0.00022946995 -0.032513043)
(0.090334634 -0.00048539428 -0.032428131)
(0.088632922 -0.00017548897 -0.023791387)
(0.088302538 -0.00016273103 -0.023895977)
(0.084145954 -0.0001408071 -0.019460197)
(0.084211242 3.8244489e-06 -0.019343412)
(0.08667509 -5.4148521e-05 -0.015401427)
(0.086299785 -6.1373045e-05 -0.015488277)
(0.084268911 -0.00019059026 -0.019322552)
(0.084186858 -0.0001005769 -0.019424212)
(0.086353964 -0.00018214274 -0.015460114)
(0.086723975 -0.00014596848 -0.015370392)
(0.084186961 -0.0001026589 -0.019424781)
(0.084269071 -1.2120463e-05 -0.019322361)
(0.086725411 -5.6991713e-05 -0.015369209)
(0.086352306 -2.1854615e-05 -0.015462035)
(0.084211458 -0.0002064091 -0.01934367)
(0.084146185 -6.2030278e-05 -0.019459743)
(0.086301709 -0.00014230936 -0.015486441)
(0.086674001 -0.00014875171 -0.015402595)
(0.084117848 -9.9552618e-05 -0.01947217)
(0.084178474 5.7386252e-05 -0.01935671)
(0.08664061 -1.4974263e-05 -0.015417504)
(0.086266999 -2.3304466e-05 -0.015493924)
(0.084030181 -0.00016130835 -0.0099521654)
(0.0842487 -0.00013004291 -0.019327987)
(0.084152736 -1.5980362e-05 -0.019433533)
(0.086321433 -0.0001148316 -0.015479315)
(0.086696247 -0.00010520722 -0.015364645)
(0.086703803 -0.00010583622 -0.0087881126)
(0.087107654 -0.00010392107 -0.0087152687)
(0.084133721 -5.3608595e-05 -0.0098447222)
(0.084204435 -9.5266266e-05 -0.0098210728)
(0.084078765 6.7228914e-05 -0.0099228929)
(0.086763133 2.6694928e-05 -0.0087737444)
(0.087168843 -5.7601093e-06 -0.0086706006)
(0.085839176 -0.00010298841 -0.0045254496)
(0.085966255 7.9132271e-05 -0.0044260442)
(0.088234004 -7.3904145e-06 -0.0043951896)
(0.087806721 -3.6575872e-05 -0.0044937798)
(0.084030894 0.00011235687 -0.0099523853)
(0.086704094 5.6750251e-05 -0.0087887155)
(0.084134318 5.0193073e-06 -0.0098447089)
(0.087108685 5.5337723e-05 -0.0087150055)
(0.084204762 4.683868e-05 -0.0098211649)
(0.084078977 -0.00011560372 -0.0099227645)
(0.087168809 -4.2684555e-05 -0.0086709633)
(0.086763832 -7.5251281e-05 -0.0087732714)
(0.085841116 0.00020312896 -0.004525158)
(0.08596735 2.0792996e-05 -0.0044261548)
(0.087809731 0.00013700098 -0.0044927237)
(0.088234254 0.0001073822 -0.0043960674)
(0.098871115 -0.00013215904 -0.0041046655)
(0.10250829 -0.00020593425 -0.0023387261)
(0.10254393 4.291223e-05 -0.0022376613)
(0.10351097 -0.00013526248 -0.0045401577)
(0.10343354 -0.00027160491 -0.0044064941)
(0.10303403 -9.0010992e-05 -0.0098214604)
(0.099090909 0.00010993021 -0.013497841)
(0.10295596 -9.231045e-05 -0.0099196083)
(0.099129956 -0.00050954641 -0.013552633)
(0.096427185 -0.00033255505 -0.0076756314)
(0.098804026 -0.00021829291 -0.0042061717)
(0.09647024 0.00016652215 -0.0077326724)
(0.096882953 -0.00015894654 0.0025677521)
(0.098246097 -0.0002186159 0.0023591955)
(0.096925553 -1.0175509e-05 0.0026537038)
(0.098187707 -0.00016229412 0.0024580365)
(0.09671237 -7.8942923e-05 0.00091138775)
(0.098360078 -8.2049957e-05 -0.00016315338)
(0.096749151 -0.00028767669 0.00099897928)
(0.098296446 -8.4275025e-05 -5.4919624e-05)
(0.099474462 -0.00022351044 0.0015890284)
(0.10129415 -0.00024087156 0.00064575243)
(0.099408316 3.9966829e-05 0.0014537649)
(0.10133323 -0.00017802664 0.00052611922)
(0.098814354 -6.0698027e-05 -0.0042096041)
(0.096479363 -0.00038432871 -0.0077202901)
(0.098884435 -0.00012439385 -0.0041137305)
(0.096442212 0.00010070373 -0.0076627341)
(0.098365934 -0.00014251573 -0.00020545086)
(0.096679404 -0.00017480411 0.00086575127)
(0.096725715 3.4937967e-05 0.00095329722)
(0.098304006 -8.9264662e-05 -9.39205e-05)
(0.093188294 -0.00022111734 0.0026292081)
(0.093146157 -0.00014203477 0.0025449896)
(0.093812505 -9.6860831e-05 0.0024903379)
(0.093862281 -8.5823377e-05 0.0023980543)
(0.092469777 -5.7180493e-05 0.0019341235)
(0.09339908 -0.00018231374 0.002985254)
(0.093635991 -0.00013917759 0.0030187072)
(0.093584308 -5.0724253e-05 0.002905191)
(0.094090483 -0.00020039628 0.0028877494)
(0.094132147 -0.00018784238 0.0027856134)
(0.094435972 -0.00024667873 0.0021080161)
(0.095675811 -0.00010792405 0.0018566949)
(0.095635185 -4.8937301e-05 0.0019629471)
(0.094489565 -0.00010127383 0.0022259326)
(0.094431304 -0.00021663351 0.0030652556)
(0.094909663 -0.00017202819 0.0029103699)
(0.095350171 -0.00020670118 0.0027772722)
(0.094455715 -5.6165875e-05 0.0031123557)
(0.094415627 -0.00012354972 0.0030150774)
(0.094957329 -0.00018221703 0.0028419826)
(0.09490253 -0.00020380511 0.0029490467)
(0.095396698 -0.00015916188 0.0028902558)
(0.096205122 -0.00021730461 0.0026940855)
(0.095341469 -4.7790818e-05 0.0027818758)
(0.096248455 -0.00019207879 0.0025966696)
(0.095604334 -0.00017733842 0.0020009724)
(0.095652883 -0.00012055616 0.0018980142)
(0.09449812 -0.00015257146 0.0022613413)
(0.094443423 -5.7135442e-05 0.0021436537)
(0.093159233 -0.00010457896 0.0025437509)
(0.093192762 -4.6891032e-05 0.0026248789)
(0.093878562 -0.00013883901 0.0024057586)
(0.09382261 -0.0001122868 0.0024939581)
(0.092516197 -8.4903034e-05 0.0018351516)
(0.091586786 -0.00017484148 0.0019950676)
(0.093171405 -1.6344594e-05 0.0016129631)
(0.093211832 9.6637409e-05 0.0017003794)
(0.094227792 -2.0526393e-05 0.0012372612)
(0.094286244 -3.8216394e-05 0.0011361882)
(0.091779436 -3.0603425e-05 0.0011547366)
(0.092449208 8.0093014e-05 0.00052706784)
(0.094093509 -0.00019897138 -0.0035393722)
(0.094043425 0.00010901673 -0.0034605561)
(0.094985923 -3.2885557e-05 -0.00085385415)
(0.094923631 7.7023919e-05 -0.00096646574)
(0.092318591 -3.7111113e-05 -0.0011826806)
(0.09422701 -2.4182829e-05 0.001237449)
(0.093210943 -0.00013963653 0.0017002512)
(0.093168645 -2.699152e-05 0.0016130998)
(0.09428387 -6.9259007e-06 0.0011361646)
(0.091777306 -9.7462611e-06 0.0011544413)
(0.092319443 0.00014051581 -0.0011825037)
(0.091017004 5.1990199e-05 0.00060591181)
(0.092449349 2.4296809e-05 0.00052710994)
(0.091029926 7.8836641e-05 -0.00011084136)
(0.091005489 7.291692e-05 -2.1494993e-05)
(0.091004653 3.0608919e-05 -2.134001e-05)
(0.091029771 2.5751511e-05 -0.00011081527)
(0.090924214 -4.7135671e-06 -1.2639207e-05)
(0.09093044 -3.539755e-06 -3.3450859e-05)
(0.090945542 -1.2674242e-05 0.0002761901)
(0.090669627 -2.9686605e-05 0.00017170607)
(0.090672062 -6.0997011e-06 0.00017205525)
(0.090943467 -2.7803189e-05 0.00027646555)
(0.090928815 -4.0772948e-05 -3.3502201e-05)
(0.090923121 -4.2423427e-05 -1.2653812e-05)
(0.094923012 -0.00012319647 -0.00096652843)
(0.094983867 -1.3674449e-05 -0.00085366414)
(0.094093059 0.00015159689 -0.0035393085)
(0.094041944 -0.00015676437 -0.0034605302)
(0.095640397 -0.00015067676 0.0019628534)
(0.09443998 4.9566597e-05 0.0021080081)
(0.094495546 -9.6861913e-05 0.002225423)
(0.095679277 -9.0901858e-05 0.0018566755)
(0.093817225 -9.8429831e-05 0.0024898961)
(0.093868704 -0.00011048315 0.0023976745)
(0.093153411 -5.1981256e-05 0.0025445062)
(0.093193538 2.7798453e-05 0.0026292998)
(0.092476903 -0.00013329445 0.0019343187)
(0.095655145 -7.7829737e-05 0.0018978769)
(0.094498752 -4.407406e-05 0.0022616718)
(0.09444592 -0.00013958401 0.0021434822)
(0.095604904 -2.074047e-05 0.0020009006)
(0.093879558 -5.6188527e-05 0.0024059534)
(0.093825157 -8.2648978e-05 0.0024941483)
(0.093195787 -0.00014614949 0.0026245297)
(0.09316037 -8.8400422e-05 0.0025440201)
(0.09251843 -0.00010484344 0.0018349549)
(0.091646363 -8.9226728e-05 0.00210612)
(0.091589491 -9.631396e-06 0.0019954176)
(0.090645502 -0.00010656636 5.9820836e-05)
(0.090651541 -7.0438622e-05 5.9720736e-05)
(0.090832376 -7.5110856e-05 9.266852e-05)
(0.090827502 -0.00011308853 9.2941406e-05)
(0.090917195 -8.0922423e-05 -3.1587592e-06)
(0.09092105 -7.8663781e-05 -4.9412018e-06)
(0.09091764 -0.00011805659 -4.8226897e-06)
(0.090915559 -0.00012109137 -3.0485711e-06)
(0.098805771 1.6261201e-05 -0.004206336)
(0.098874241 -7.1011783e-05 -0.0041052604)
(0.096429049 0.00012870134 -0.0076760096)
(0.096471385 -0.00036939634 -0.0077327686)
(0.096480183 0.00018191061 -0.0077204827)
(0.098884569 -7.7302176e-05 -0.0041132777)
(0.098815871 -0.00014091945 -0.0042096246)
(0.096442345 -0.00030296245 -0.0076626228)
(0.09830569 -0.00011145039 -9.3784286e-05)
(0.096727754 -0.00023463273 0.00095304098)
(0.096679995 -2.4639369e-05 0.00086594632)
(0.098366405 -5.8209247e-05 -0.00020522456)
(0.098363707 -0.00012013358 -0.00016348302)
(0.096752173 8.7537078e-05 0.00099916438)
(0.096716823 -0.00012211062 0.00091110696)
(0.098298887 -0.00011686949 -5.5167542e-05)
(0.090625403 -0.00018292715 1.100638e-05)
(0.090636201 -0.00014400031 1.1002712e-05)
(0.090816437 -0.00015276047 1.5105205e-05)
(0.090807646 -0.00019433596 1.5110053e-05)
(0.090913267 -0.00016354697 -9.7983361e-07)
(0.090912734 -0.00015942575 -1.5557912e-06)
(0.090906572 -0.00020323348 -1.5748286e-06)
(0.09091017 -0.00020896124 -9.9825334e-07)
(0.090612038 -0.00022374537 3.5574974e-06)
(0.090795956 -0.00023837734 4.8764428e-06)
(0.090781074 -0.00028554739 4.8563766e-06)
(0.09059456 -0.00026683348 3.5272236e-06)
(0.093906271 9.8902384e-05 -0.016412042)
(0.093781297 -0.0005789313 -0.016555152)
(0.093813769 0.00025850851 -0.016523845)
(0.093929649 -0.00047009394 -0.016403598)
(0.096581455 0.00030533594 -0.023863824)
(0.096700387 -0.0004080185 -0.023733748)
(0.096610257 -0.0005414185 -0.023830065)
(0.0967204 0.00021513622 -0.023727057)
(0.093946887 0.0001906996 -0.016396958)
(0.093826803 -0.00055518672 -0.016522018)
(0.093804882 0.00032868769 -0.016550892)
(0.093929276 -0.00036616834 -0.016410402)
(0.093929399 0.00016366954 -0.016410363)
(0.093805327 -0.00053140517 -0.016550654)
(0.093826953 0.00035211913 -0.016522321)
(0.093947388 -0.00039331507 -0.016397011)
(0.093930302 0.00026668729 -0.016403943)
(0.093814761 -0.00046179768 -0.01652395)
(0.092199201 -0.00042411888 -0.0099170304)
(0.093782063 0.00037443036 -0.016555837)
(0.093907352 -0.00030265109 -0.016412508)
(0.092332554 0.00012736884 -0.009786211)
(0.092356536 -0.00029207254 -0.0097738126)
(0.09223182 0.00031223636 -0.0098898945)
(0.091324436 -0.00023984908 -0.0050371896)
(0.09220027 0.00037555884 -0.0099172653)
(0.092333485 -0.00017561837 -0.0097863329)
(0.091464709 0.00016327577 -0.004921484)
(0.092356982 0.00024397793 -0.0097738742)
(0.092232131 -0.00036029364 -0.0098898649)
(0.091326514 0.00034160862 -0.0050372785)
(0.09146519 -6.1926071e-05 -0.0049214216)
(0.090657962 3.0093756e-05 -8.6110321e-05)
(0.090660426 6.6915581e-05 -8.6270682e-05)
(0.090829528 6.9430617e-05 -0.00012952702)
(0.090827887 3.1674436e-05 -0.00012942662)
(0.09082283 -5.6775588e-06 -2.1656948e-05)
(0.090822353 -4.3197584e-05 -2.1673135e-05)
(0.090655358 -4.2882145e-05 -1.5787538e-05)
(0.090655147 -6.3019952e-06 -1.5765676e-05)
(0.090822692 -0.00012185157 -6.9838708e-06)
(0.090822252 -8.1599974e-05 -6.9671401e-06)
(0.090657603 -8.0415131e-05 -5.0400427e-06)
(0.090660334 -0.00011998722 -5.0593454e-06)
(0.090491578 -6.6018807e-06 -6.5693402e-06)
(0.090492525 -4.140069e-05 -6.5738055e-06)
(0.090362885 -3.8689052e-05 -2.8645814e-06)
(0.090361187 -6.5491907e-06 -2.8638063e-06)
(0.090785264 -4.5708193e-05 0.0021747704)
(0.090785798 -2.7997041e-06 0.0021748014)
(0.092246642 -0.00011456729 0.0082777081)
(0.085366483 0.00011507243 0.0090978334)
(0.085441996 -0.0003240206 0.009111193)
(0.091903719 2.7742711e-05 0.0048094607)
(0.091883596 -0.00027988482 0.0048115286)
(0.09223488 -0.00013563161 0.0082804744)
(0.085343283 -0.00036859008 0.0091057852)
(0.085424265 4.6012101e-05 0.0091172079)
(0.080322183 -0.00015119809 0.01123411)
(0.080280598 -0.00015321632 0.011250656)
(0.072800941 4.2241317e-05 0.013828123)
(0.072668721 -0.00023491785 0.010216984)
(0.072248187 -0.00022113438 0.010257741)
(0.068373263 0.00020120972 0.0043070822)