/*--------------------------------*- C++ -*----------------------------------*\
  =========                 |
  \\      /  F ield         | OpenFOAM: The Open Source CFD Toolbox
   \\    /   O peration     | Website:  https://openfoam.org
    \\  /    A nd           | Version:  7
     \\/     M anipulation  |
\*---------------------------------------------------------------------------*/
FoamFile
{
    version     2.0;
    format      ascii;
    class       volScalarField;
    location    "2000";
    object      k;
}
// * * * * * * * * * * * * * * * * * * * * * * * * * * * * * * * * * * * * * //

dimensions      [0 2 -2 0 0 0 0];

internalField   nonuniform List<scalar> 
34356
(
1.5206398
1.5176976
1.5194853
1.5201783
1.5214513
1.5209206
1.5223635
1.5205232
1.5211042
1.5174274
1.5169185
1.5179141
1.5174329
1.5190333
1.5187892
1.5196641
1.5198924
1.5192708
1.5202612
1.5197616
1.5206101
1.5210892
1.5207533
1.5202244
1.5205783
1.5224432
1.5230128
1.5232975
1.5231447
1.5228887
1.5185148
1.5191606
1.5182181
1.5180662
1.5194545
1.5197111
1.520018
1.5204121
1.5167632
1.51797
1.5178526
1.5166952
1.5163808
1.5167995
1.5164254
1.5168949
1.5184616
1.5182284
1.5169327
1.5173851
1.517052
1.5165579
1.5175346
1.5170233
1.5192688
1.5186343
1.5185809
1.519233
1.5185103
1.5190867
1.5183147
1.5189215
1.5188086
1.5187596
1.5195145
1.5194646
1.5201088
1.5195402
1.5190195
1.5198026
1.5204021
1.5200584
1.5198271
1.5202035
1.5202283
1.5201379
1.5197961
1.5198997
1.5207508
1.5196128
1.5195509
1.519299
1.519375
1.5202952
1.5195102
1.5197437
1.519551
1.5192922
1.5203359
1.5199153
1.5229946
1.5232255
1.5234045
1.5231546
1.517734
1.5177483
1.5185441
1.5179024
1.5179732
1.5178394
1.5177675
1.5177979
1.5179374
1.5181061
1.5179788
1.5177597
1.5175597
1.5176852
1.5175996
1.5177153
1.5176782
1.5175539
1.5174855
1.5189813
1.5187918
1.5191424
1.5191045
1.5193696
1.5193164
1.5199828
1.5196201
1.518446
1.5188552
1.5166143
1.5178124
1.5176971
1.516559
1.5163075
1.516383
1.5163736
1.5162943
1.5162933
1.5168705
1.5169594
1.5163128
1.5163395
1.516423
1.5164131
1.5163253
1.5163442
1.5163258
1.5170202
1.5169722
1.5183075
1.5180326
1.5167676
1.5172185
1.5171381
1.5169003
1.5167115
1.517079
1.5164623
1.5165645
1.5165299
1.5164197
1.5170969
1.5166541
1.5179111
1.5173068
1.5164618
1.5171388
1.5164134
1.5170731
1.5182641
1.5182246
1.5188375
1.5188521
1.5188081
1.518197
1.5181862
1.5187894
1.5187285
1.5181697
1.5181338
1.518706
1.5180507
1.5179205
1.5185722
1.5184596
1.518372
1.5184054
1.5190392
1.5190244
1.5189946
1.5183582
1.518342
1.5189708
1.5193972
1.5189161
1.5198311
1.5196066
1.5186009
1.518522
1.5192758
1.519221
1.5175106
1.5174912
1.5199751
1.5194346
1.5198269
1.5196453
1.5191552
1.5192071
1.5193438
1.5193923
1.519249
1.5191619
1.5191108
1.5192011
1.5198385
1.5193599
1.5197641
1.5194809
1.5197962
1.5193317
1.5197389
1.5194281
1.5194143
1.519783
1.5197599
1.519366
1.520161
1.5191477
1.519196
1.519224
1.5198573
1.5191784
1.5191009
1.5191504
1.5192246
1.519177
1.5197406
1.5200605
1.5190196
1.5189277
1.5189587
1.5189898
1.518976
1.5190046
1.519
1.5190281
1.5196062
1.5186644
1.5188843
1.5188935
1.5193786
1.5186951
1.5186217
1.5188817
1.5188337
1.5186905
1.5192933
1.5195198
1.5189982
1.5186573
1.5188554
1.5188252
1.5191621
1.5189678
1.5190031
1.5191283
1.5190406
1.5189634
1.518931
1.5190089
1.5186271
1.5188325
1.5188881
1.5187054
1.5197533
1.5202889
1.5195679
1.519971
1.5199956
1.5200665
1.5197785
1.519709
1.5195032
1.5195501
1.5193612
1.5193323
1.5174821
1.5175487
1.5174408
1.5174899
1.5173559
1.5174124
1.5176778
1.5179068
1.5177992
1.5177395
1.517685
1.5177059
1.5177184
1.517598
1.5175931
1.5176803
1.5176705
1.5175551
1.5175775
1.517505
1.5174889
1.5174887
1.517506
1.5175287
1.5175222
1.5175205
1.5174731
1.5174729
1.5174898
1.5174881
1.517651
1.5175409
1.5176696
1.5175639
1.5176469
1.517529
1.5177035
1.5175908
1.5174599
1.517457
1.5175175
1.5175129
1.5173977
1.5174536
1.5173128
1.5173765
1.5172297
1.5172077
1.5172644
1.5173817
1.5174154
1.5172967
1.5173378
1.5172426
1.51723
1.5172604
1.5172083
1.5172391
1.5173857
1.5174101
1.5172977
1.5173315
1.5174328
1.51735
1.5174669
1.5173758
1.5172762
1.5172548
1.517279
1.5173013
1.5172154
1.5172117
1.517238
1.5172344
1.5171718
1.5186482
1.518623
1.5183678
1.5185
1.5187617
1.5187434
1.5187188
1.5186981
1.5189208
1.5189375
1.5188689
1.5188957
1.5197564
1.5194813
1.519164
1.5191003
1.5184602
1.5188265
1.5165052
1.5163465
1.5163577
1.5178189
1.5177198
1.5164587
1.5163231
1.5163151
1.5162927
1.5162801
1.5162903
1.516282
1.5162899
1.516305
1.5163587
1.5169281
1.5163888
1.5170061
1.5164096
1.5170673
1.5164011
1.517034
1.5163009
1.5163028
1.5163174
1.5163147
1.5163218
1.516308
1.5163257
1.5163342
1.5163515
1.5163376
1.5163135
1.5163157
1.5163294
1.5163257
1.5164518
1.5164311
1.5170833
1.5171308
1.517063
1.5170437
1.5164235
1.5164108
1.5182894
1.5180389
1.5166454
1.5164544
1.5164896
1.5170875
1.5167927
1.5170759
1.5166735
1.5170436
1.5164397
1.5164004
1.5188193
1.5172621
1.5169288
1.5171631
1.5168771
1.516615
1.5166537
1.5166499
1.5165889
1.5174693
1.5183917
1.5169766
1.5177369
1.5167488
1.517427
1.5173077
1.5166672
1.5164515
1.5164361
1.5164701
1.5164461
1.5165752
1.5172437
1.5165402
1.5171878
1.5163974
1.5164089
1.5164252
1.5164065
1.5165211
1.5164918
1.5171789
1.5171502
1.517601
1.51765
1.5186203
1.5186124
1.5175634
1.5175552
1.5185939
1.5185895
1.5175446
1.5185676
1.5175251
1.5185624
1.5185494
1.5175242
1.5175487
1.5185443
1.5175369
1.5175631
1.518516
1.5185116
1.5175074
1.5175042
1.5184916
1.5184774
1.5174877
1.5174474
1.5183867
1.518369
1.5173926
1.5173339
1.5182662
1.5181995
1.517684
1.5176761
1.5187539
1.5187498
1.5177179
1.517756
1.5187762
1.51877
1.517688
1.5176688
1.5187343
1.5187304
1.5176843
1.5176698
1.518714
1.5187042
1.5186639
1.5190669
1.5197315
1.5196181
1.5193239
1.5182651
1.5181207
1.5192769
1.5178574
1.5179334
1.5189947
1.5189727
1.5178061
1.5178111
1.5189178
1.5189016
1.5196257
1.5172538
1.5172231
1.5172068
1.5172386
1.5172464
1.5172283
1.5172325
1.5219992
1.5226408
1.5220208
1.521941
1.522594
1.5232084
1.5231265
1.5230573
1.5226572
1.5226504
1.5196409
1.5197433
1.5193363
1.5194942
1.5189176
1.5188471
1.5190271
1.5189647
1.5195529
1.5196287
1.5192224
1.5193496
1.5190168
1.5191741
1.5189494
1.5191159
1.5186856
1.5186528
1.5187811
1.5187518
1.5187218
1.5188208
1.5187046
1.5188051
1.5187679
1.518738
1.5189086
1.5188824
1.5189499
1.5188078
1.5187909
1.5189348
1.5186344
1.5187428
1.5186165
1.5187267
1.5185845
1.5185661
1.5186653
1.5186482
1.5185515
1.5185149
1.51863
1.5185953
1.5185995
1.5185645
1.5187067
1.5186743
1.5194624
1.5195474
1.5191146
1.5192456
1.518755
1.5186839
1.5188436
1.5187771
1.5194006
1.5194665
1.5190431
1.5191494
1.5188144
1.5187429
1.5189371
1.5188716
1.5193426
1.5194147
1.5189749
1.5190881
1.5186718
1.5186036
1.5187379
1.5186727
1.5193198
1.5193669
1.5189455
1.5190304
1.5186907
1.5186208
1.5187935
1.5187271
1.5186857
1.5187386
1.5186177
1.5186745
1.5193358
1.5193627
1.5189553
1.5190206
1.5194151
1.5190692
1.5194864
1.5197939
1.5191219
1.5187879
1.5187228
1.5194448
1.5187793
1.5188493
1.5197515
1.5193903
1.5186059
1.5185712
1.5192225
1.5186295
1.518665
1.5186376
1.5186199
1.5192664
1.5186769
1.518695
1.5185394
1.5185854
1.51852
1.5185675
1.5192273
1.5191823
1.5185083
1.5185538
1.5184721
1.5185182
1.5184888
1.5185472
1.5184519
1.5185113
1.5185202
1.5185802
1.5185008
1.518562
1.5185323
1.5186238
1.518513
1.518606
1.5184996
1.5185905
1.5184626
1.5185544
1.5192618
1.5192995
1.519297
1.5192583
1.519783
1.5197701
1.5194511
1.5194676
1.5183863
1.5184711
1.5183619
1.518449
1.5183459
1.5183176
1.5184
1.5183717
1.5183752
1.5184307
1.5183496
1.5184072
1.518355
1.5183269
1.5184392
1.5184111
1.5184595
1.5184299
1.5190446
1.5184851
1.5185168
1.5184889
1.5184637
1.5190696
1.5185192
1.5185463
1.518367
1.5184078
1.518338
1.5183792
1.5183958
1.5184367
1.5183691
1.5184126
1.5190373
1.519014
1.5183027
1.5181387
1.5187363
1.5181873
1.5183663
1.5184276
1.5184
1.5189408
1.5184562
1.5184862
1.5183405
1.5183727
1.5183115
1.5183459
1.5189192
1.5186986
1.5182235
1.5182488
1.5180503
1.5180931
1.5181976
1.5182341
1.5180321
1.518084
1.5183232
1.5183965
1.518295
1.5183699
1.5183159
1.518364
1.5182877
1.5183373
1.5181978
1.5182637
1.5180372
1.5181172
1.5190009
1.5187932
1.5189806
1.5187824
1.5191054
1.5191149
1.5190932
1.519085
1.5185448
1.5186563
1.5185188
1.5186334
1.518335
1.5181883
1.5184031
1.5182753
1.5184741
1.5185534
1.5184476
1.5185292
1.5183965
1.5185058
1.5182571
1.5183862
1.5186455
1.5187722
1.5186257
1.5187552
1.5185264
1.5186158
1.5185008
1.5185925
1.5185651
1.5186561
1.518544
1.5186373
1.5186038
1.5185804
1.5187307
1.5187098
1.5184834
1.5184616
1.5185832
1.5185633
1.5184355
1.5185106
1.5184128
1.5184899
1.5184026
1.5183748
1.5184763
1.5184493
1.5184475
1.5184207
1.5185465
1.5185207
1.5182347
1.518078
1.5182898
1.518148
1.5183637
1.5183361
1.5184301
1.5184041
1.5184049
1.5184904
1.5183777
1.5184652
1.5182682
1.518116
1.5183483
1.5182123
1.5196028
1.5197388
1.5199312
1.5197188
1.5196255
1.5193829
1.5195031
1.5193731
1.5194114
1.5193149
1.519818
1.5198182
1.5195552
1.5195528
1.5198015
1.5197919
1.5194993
1.5195188
1.5193619
1.5193592
1.5193286
1.5193299
1.5194101
1.5193861
1.5194036
1.5193778
1.5192206
1.5192372
1.519233
1.5192166
1.5191872
1.5191682
1.5191784
1.51916
1.5190775
1.5188947
1.5190607
1.5188784
1.5189997
1.5191353
1.5191212
1.518969
1.5173354
1.5172896
1.5173273
1.51737
1.5173743
1.517422
1.5173799
1.5173264
1.5172197
1.5172585
1.5172948
1.5172573
1.5172501
1.5172928
1.5173345
1.5172942
1.517168
1.5171474
1.5171844
1.5171304
1.5172226
1.5171775
1.5171604
1.5172059
1.5176318
1.5175702
1.5177411
1.5176434
1.517691
1.517637
1.5175628
1.517556
1.5174783
1.5174795
1.5173841
1.5173948
1.5175206
1.517549
1.5174537
1.5174275
1.5174048
1.5174079
1.5173827
1.5173792
1.517351
1.517348
1.5173426
1.5173449
1.5174568
1.5174367
1.5173475
1.5173725
1.5174591
1.5174513
1.5173641
1.5173781
1.5173159
1.5173249
1.5173295
1.5173194
1.5173179
1.5173027
1.5172895
1.5173041
1.51725
1.5172357
1.5172326
1.5172475
1.5172662
1.5172654
1.5172624
1.5172633
1.5172678
1.5172699
1.517271
1.5172694
1.5172553
1.5172412
1.5172389
1.5172529
1.5173298
1.5173518
1.5173503
1.5173285
1.5172938
1.5172954
1.5172939
1.5172927
1.5172991
1.5172967
1.517239
1.5172561
1.5172274
1.5172307
1.5172462
1.5172422
1.5172215
1.5172255
1.5172424
1.517238
1.5172461
1.517221
1.5172152
1.5172407
1.5172484
1.5172242
1.5172197
1.5172433
1.5174615
1.5174404
1.5173459
1.517371
1.5172768
1.5172931
1.5173083
1.5172918
1.5173464
1.517447
1.5174724
1.5173791
1.5173107
1.5172856
1.517267
1.5172923
1.5174792
1.5174587
1.5173576
1.5173881
1.5172709
1.517291
1.5173134
1.5172937
1.5173679
1.5174649
1.5174916
1.5174051
1.5173276
1.5172955
1.5172742
1.5173065
1.5172498
1.5172277
1.5172221
1.5172447
1.5172251
1.5172302
1.5172515
1.5172461
1.5172275
1.5172324
1.517263
1.5172586
1.5172651
1.5172349
1.5172298
1.5172593
1.5171847
1.5171735
1.5172153
1.5171425
1.5172123
1.5172602
1.5172265
1.5171773
1.5170532
1.517095
1.5170697
1.5171115
1.517104
1.5171544
1.5170873
1.5171377
1.5169224
1.5169765
1.5169689
1.516915
1.5168969
1.5169104
1.5169621
1.5169482
1.5170153
1.5169697
1.5170219
1.5169627
1.5170983
1.517063
1.5171229
1.517038
1.5171196
1.5171759
1.5171489
1.517092
1.517009
1.5169654
1.5170252
1.5169498
1.5170185
1.5170765
1.5170023
1.5170602
1.5170152
1.5170532
1.5170476
1.5170093
1.5167677
1.5167642
1.5168552
1.5168493
1.5168448
1.5169278
1.5169203
1.5168512
1.5167615
1.5167545
1.5168347
1.5168459
1.5168418
1.5168303
1.516916
1.5169023
1.5169629
1.5168817
1.5169813
1.5168667
1.5169806
1.5170648
1.5170426
1.516959
1.5168765
1.5167906
1.516889
1.5167825
1.5168853
1.5169708
1.5168723
1.5169555
1.5167581
1.5167532
1.5168801
1.5168685
1.5167915
1.5167836
1.5166691
1.5166684
1.5167531
1.5166679
1.5166607
1.5166605
1.516769
1.5167654
1.5167627
1.5167555
1.5166574
1.5166568
1.516657
1.5166604
1.5166411
1.5166405
1.5167402
1.5167367
1.5167352
1.5167293
1.516633
1.5166331
1.5166404
1.5166328
1.516814
1.5167389
1.5168194
1.5167355
1.5184711
1.5184661
1.5184467
1.5184328
1.5182264
1.5181517
1.5183257
1.5183454
1.5185717
1.5185624
1.5185435
1.5185407
1.5185184
1.5185123
1.5184992
1.518496
1.5186992
1.518697
1.5187151
1.5187227
1.5186614
1.5186525
1.5186773
1.5186816
1.5195637
1.5196979
1.5192129
1.5192647
1.5189359
1.5189109
1.518841
1.5188564
1.5195695
1.5185309
1.5176215
1.5175233
1.5188548
1.5178049
1.5180947
1.5163558
1.5163656
1.5164162
1.5163138
1.5163026
1.5163244
1.5163314
1.5163742
1.5162846
1.5162771
1.5162878
1.5162892
1.5162895
1.5162874
1.516306
1.5163036
1.5162751
1.5162802
1.5162792
1.5162699
1.5162949
1.5162827
1.5162922
1.5162876
1.5162919
1.5163013
1.516315
1.5163053
1.516304
1.516313
1.5163136
1.5163069
1.516295
1.516298
1.5168796
1.5165098
1.5164642
1.5168286
1.5163219
1.5163192
1.5163279
1.516332
1.5165308
1.5165189
1.516908
1.5169357
1.5163311
1.5163319
1.5163422
1.5163417
1.5169818
1.5165563
1.5165483
1.5169649
1.5163279
1.51633
1.5163414
1.5163383
1.5165328
1.5165455
1.5169416
1.516938
1.5163156
1.516316
1.5163254
1.5163248
1.5163232
1.5163136
1.5163129
1.5163218
1.5163138
1.5163195
1.5163092
1.5163189
1.5163376
1.5163254
1.5163037
1.5163052
1.5163014
1.5162989
1.5163175
1.5163143
1.5163639
1.5163513
1.5163555
1.5163466
1.5163354
1.5163342
1.5163449
1.5163426
1.5163369
1.5163275
1.5163359
1.5163269
1.516324
1.5163233
1.5163332
1.5163318
1.5163864
1.516373
1.5163622
1.5163738
1.5163486
1.5163518
1.5163586
1.5163635
1.5165656
1.5169726
1.5169687
1.5165556
1.517058
1.5166161
1.5165837
1.5170114
1.5165541
1.5165482
1.5169513
1.5169639
1.5169494
1.516551
1.5165419
1.5169603
1.5163421
1.5163436
1.5163524
1.5163547
1.5163378
1.5163398
1.5163477
1.51635
1.5196126
1.5193557
1.5191177
1.5164666
1.5164956
1.5165441
1.5164358
1.5164032
1.5168049
1.5170556
1.5169743
1.5170112
1.5166998
1.5189043
1.5166633
1.516694
1.5166367
1.5166352
1.5165918
1.5165834
1.5169384
1.5170974
1.5171421
1.5168679
1.5172044
1.5168626
1.5164274
1.5164403
1.5164331
1.5164154
1.5164531
1.5164326
1.516395
1.516403
1.5163945
1.5163809
1.5164121
1.5163954
1.518755
1.5190313
1.5191219
1.5186797
1.5187516
1.5195813
1.517309
1.5171845
1.5171779
1.5174048
1.5168738
1.5168366
1.5168195
1.5168868
1.5166458
1.5166313
1.5166307
1.5166564
1.5165919
1.5165868
1.5165758
1.5165726
1.5174756
1.5171824
1.5175597
1.5172046
1.5186538
1.5180188
1.5175794
1.5181777
1.5169016
1.5169332
1.5168139
1.5168197
1.5170667
1.5172578
1.5177691
1.5175438
1.5166666
1.5166335
1.5166442
1.5166863
1.5173812
1.516935
1.5168583
1.5172836
1.5172263
1.516818
1.5167708
1.5171931
1.5165975
1.5165733
1.5165792
1.5166089
1.5164616
1.5164693
1.5164844
1.516471
1.5164415
1.5164437
1.5164549
1.5164507
1.5164783
1.5164956
1.5165116
1.516491
1.5171623
1.5167296
1.5167009
1.5171279
1.5164577
1.5164632
1.5164769
1.5164697
1.5166644
1.5166824
1.5170895
1.5170806
1.5164369
1.5164246
1.5164225
1.5164332
1.5164202
1.5164078
1.516402
1.5164095
1.5164409
1.5164457
1.5164593
1.5164532
1.5164153
1.5164291
1.5164414
1.5164246
1.5166559
1.516666
1.5170894
1.5170752
1.5166271
1.5166473
1.5170701
1.5170684
1.5163097
1.5174989
1.5175463
1.5174615
1.5174537
1.5174446
1.5174228
1.5174234
1.5174505
1.5174401
1.5174678
1.5174133
1.5174086
1.5173982
1.5173576
1.5173038
1.5172479
1.5175816
1.5175725
1.517612
1.5176531
1.5175848
1.5175634
1.5175807
1.5175656
1.5185563
1.5189798
1.5181526
1.5180028
1.5177471
1.5178235
1.5176971
1.5176998
1.523227
1.5166096
1.51661
1.5165914
1.5165894
1.5166138
1.5166223
1.5165968
1.5217387
1.5213427
1.5220615
1.5214153
1.5218357
1.5224619
1.5224464
1.5220212
1.5216511
1.5216491
1.5212187
1.5212591
1.5215932
1.5211688
1.521226
1.5220794
1.5224644
1.5224622
1.5220887
1.5228674
1.5229239
1.5227025
1.5227035
1.5228209
1.5226668
1.5224811
1.5224777
1.5221536
1.5221504
1.5222605
1.5225022
1.5224959
1.5222295
1.5195008
1.5195905
1.519623
1.5194427
1.5196417
1.5196854
1.519571
1.5195062
1.5190686
1.5191384
1.5191263
1.5191875
1.5191937
1.5192733
1.5191401
1.5192278
1.518647
1.5187145
1.5186918
1.5186214
1.5185411
1.518562
1.5186308
1.5186108
1.5187786
1.5187188
1.5187998
1.5186939
1.5186117
1.5186992
1.5186331
1.518719
1.5193579
1.5194624
1.5195038
1.5192909
1.5195231
1.5195694
1.5194358
1.5193632
1.5189692
1.5189577
1.5190264
1.5188922
1.5190325
1.5191186
1.5189708
1.5190655
1.5188051
1.518864
1.5188445
1.518782
1.5189468
1.5188681
1.5188462
1.5189261
1.5187226
1.5187016
1.5187842
1.5187657
1.5188702
1.5187675
1.5188541
1.5187869
1.5184294
1.5184905
1.5184854
1.5184242
1.5183897
1.5184047
1.5184642
1.5184497
1.5185613
1.518492
1.5185655
1.518487
1.5184508
1.5185261
1.5184659
1.5185402
1.5185194
1.5184636
1.518526
1.5184566
1.5185282
1.5186028
1.518597
1.5185213
1.5184978
1.518443
1.5185056
1.5184354
1.5185073
1.5185834
1.5184998
1.5185761
1.518568
1.5186212
1.5186182
1.5185642
1.5185434
1.5185965
1.5185288
1.5185836
1.518694
1.5186907
1.5186229
1.5186199
1.518586
1.5185993
1.5186719
1.5186613
1.518662
1.5187343
1.5187284
1.5186566
1.5186548
1.5186056
1.5186597
1.5185998
1.5185792
1.518586
1.5186407
1.5186345
1.5186367
1.5186422
1.5187135
1.5187097
1.5183729
1.5183199
1.5183801
1.5183124
1.5183757
1.5184606
1.5184538
1.518368
1.5183528
1.5183011
1.5183611
1.5182919
1.5183554
1.5184414
1.5183485
1.5184332
1.5182087
1.5182713
1.5182637
1.5182012
1.5181901
1.5182534
1.5182412
1.518178
1.5182565
1.5183308
1.5183235
1.5182491
1.5182381
1.5183131
1.5183024
1.5182272
1.5181776
1.518241
1.5182352
1.5181725
1.5181367
1.5181531
1.5182151
1.5181988
1.5182261
1.5183003
1.5182948
1.5182209
1.5181857
1.5182012
1.5182752
1.5182598
1.5182893
1.5183493
1.5183439
1.5182842
1.5182509
1.5182653
1.5183246
1.518311
1.5184281
1.5184226
1.5183447
1.5183392
1.5183078
1.518321
1.5184037
1.5183891
1.5191995
1.5193193
1.5193657
1.519131
1.5193822
1.5194405
1.5192846
1.5191992
1.5187182
1.5187935
1.5187876
1.5188562
1.518856
1.5189512
1.5187884
1.518891
1.5183657
1.5184336
1.5184126
1.5183441
1.5182864
1.518353
1.5183308
1.5182635
1.5184777
1.5184201
1.5184998
1.5183971
1.5183971
1.518337
1.518418
1.5183152
1.519075
1.519189
1.5192417
1.5190072
1.5192491
1.5193068
1.5191386
1.5190617
1.518656
1.5186481
1.5187201
1.5185792
1.5187082
1.5187952
1.5186387
1.5187313
1.5184902
1.5185549
1.5185311
1.5184656
1.5184059
1.5184707
1.5183851
1.5184512
1.5186427
1.5186191
1.5185519
1.5185252
1.5184458
1.5184653
1.5185599
1.5185396
1.5189571
1.5190382
1.519105
1.5188837
1.5191098
1.519181
1.5190223
1.5189391
1.5184278
1.5185151
1.5184912
1.518576
1.5185619
1.5186609
1.5184951
1.5185978
1.5180346
1.5181473
1.5181271
1.5180146
1.5179451
1.5179718
1.5180805
1.5180531
1.5182208
1.5181329
1.5182403
1.5181122
1.5180375
1.5181438
1.518064
1.5181701
1.5188188
1.5188307
1.5189347
1.5187109
1.5189394
1.5190318
1.5189009
1.5188033
1.5183428
1.5182708
1.5183964
1.5182175
1.518384
1.5185043
1.5183254
1.5184469
1.5182262
1.5183038
1.5182843
1.5182061
1.5181536
1.5182293
1.5181284
1.5182049
1.5183795
1.5183594
1.5182885
1.5182678
1.518188
1.5182118
1.5183028
1.5182793
1.5177059
1.5176953
1.5178932
1.5178783
1.5178681
1.5180461
1.5180273
1.5178851
1.5176581
1.517643
1.517816
1.5178386
1.5178287
1.5178054
1.5179856
1.5179586
1.5185749
1.5184715
1.5186596
1.5183939
1.5186715
1.5188217
1.5187203
1.5185678
1.5180619
1.517887
1.5181013
1.5178559
1.5180971
1.5182795
1.5180522
1.5182315
1.5182044
1.5181728
1.5184496
1.518395
1.5178824
1.517857
1.5176055
1.5175975
1.5181664
1.5195243
1.5194893
1.5191094
1.5191869
1.5175912
1.5174697
1.5174673
1.5177063
1.5176972
1.5176598
1.517645
1.5174308
1.5174288
1.5189097
1.518853
1.5187857
1.5188455
1.5174273
1.5174635
1.5195112
1.5194804
1.5190933
1.5191614
1.5188027
1.5188635
1.5189031
1.5188421
1.5173333
1.5173326
1.517561
1.5175539
1.5175472
1.5175323
1.5173215
1.5173197
1.5187202
1.518665
1.5186317
1.5186876
1.5173179
1.5173298
1.5173774
1.5173757
1.5176009
1.5175934
1.517573
1.5175608
1.5173424
1.5173418
1.5187526
1.5186964
1.518678
1.5187355
1.5173386
1.5173727
1.5175988
1.517591
1.5177651
1.5177764
1.5177677
1.5177555
1.5179192
1.5179057
1.5177344
1.5175709
1.5177523
1.5175595
1.5178973
1.5177426
1.517725
1.5178765
1.5187441
1.5187033
1.5186862
1.5187283
1.5186425
1.518672
1.5187117
1.5186811
1.5177291
1.5175589
1.5177398
1.5175522
1.5178842
1.5177303
1.5177192
1.5178714
1.5177016
1.5175455
1.517723
1.5175311
1.5178648
1.5177135
1.517692
1.5178398
1.517967
1.5178714
1.5179792
1.5178592
1.5179635
1.5180658
1.5180557
1.5179526
1.5178278
1.5179325
1.5178519
1.5179572
1.5179415
1.5180425
1.5179184
1.5180197
1.5179995
1.5179067
1.5180125
1.5178934
1.5179971
1.517985
1.518098
1.518087
1.5179716
1.5178839
1.5179917
1.5178644
1.5180788
1.5179757
1.5179574
1.5180608
1.5181462
1.5180828
1.5181555
1.5180729
1.5182239
1.5181392
1.5181308
1.5182156
1.5180469
1.5181213
1.5180629
1.5181367
1.5182059
1.5181199
1.5181061
1.5181921
1.5181163
1.5180505
1.5181242
1.518042
1.5181929
1.5181076
1.5181011
1.5181865
1.5180063
1.5180793
1.5180273
1.5180994
1.5181677
1.5180833
1.5180648
1.5181496
1.5187112
1.5187331
1.5187533
1.5187301
1.518745
1.5187611
1.518784
1.5187686
1.5187588
1.5187203
1.5187013
1.5187436
1.5187264
1.5186892
1.5186626
1.5187004
1.519504
1.5194697
1.5190867
1.519152
1.5194965
1.5194672
1.5191086
1.5191553
1.5188834
1.5189306
1.5189496
1.5189006
1.5189216
1.5188857
1.5188301
1.5188673
1.5180187
1.5179566
1.5180273
1.5179471
1.5180124
1.5180939
1.5180867
1.5180048
1.5179131
1.5179854
1.5179276
1.5179997
1.5179842
1.5180679
1.5179714
1.5180549
1.5177499
1.5178525
1.5178398
1.5177379
1.5177183
1.5177357
1.517835
1.5178163
1.5179239
1.5178367
1.5179342
1.5178256
1.5178031
1.5178981
1.517819
1.5179146
1.5178744
1.5177849
1.5178878
1.5177708
1.5178734
1.5179707
1.5179599
1.5178612
1.5178389
1.517753
1.5178578
1.5177352
1.5178427
1.5179427
1.5178259
1.517926
1.5179189
1.5179895
1.5179813
1.5179104
1.517899
1.5179678
1.5178854
1.5179544
1.5180547
1.5180477
1.5179731
1.5179663
1.5179404
1.5179513
1.518032
1.5180203
1.5172453
1.5172452
1.5174592
1.5174522
1.5174539
1.5174419
1.5172454
1.5172458
1.5185694
1.5185187
1.51849
1.5185397
1.5172441
1.5172435
1.5172708
1.5172688
1.5174874
1.5174791
1.5174541
1.517443
1.517233
1.5172331
1.5185991
1.5185455
1.5185184
1.5185738
1.5172303
1.5172662
1.5174561
1.5174499
1.5176274
1.5176167
1.5176068
1.5177632
1.5177503
1.5176176
1.517451
1.5174409
1.5176
1.5176173
1.5176074
1.5175916
1.5177492
1.5177295
1.5176457
1.5174848
1.517658
1.5174763
1.5176499
1.5177965
1.5177822
1.5176367
1.51761
1.5174509
1.5176263
1.5174411
1.5176168
1.5177661
1.517601
1.5177468
1.5185878
1.5185467
1.5185214
1.5185639
1.5185006
1.5185238
1.5185618
1.518536
1.5171884
1.5171836
1.5173925
1.5173777
1.5172665
1.5172339
1.5170674
1.5170552
1.5184041
1.5183658
1.5181855
1.5182388
1.5170609
1.5171849
1.5172538
1.5172523
1.5174629
1.517454
1.5174358
1.5174209
1.517222
1.5172206
1.5185332
1.5184884
1.5184573
1.5185044
1.5172196
1.5172513
1.5174603
1.5174516
1.517615
1.5176282
1.5176199
1.5176064
1.5177608
1.5177456
1.5175812
1.5174334
1.5176031
1.5174189
1.517737
1.5175943
1.5175725
1.5177115
1.5185265
1.518493
1.5184613
1.5184977
1.5181918
1.5183711
1.5183955
1.5182297
1.5175325
1.5173911
1.5175546
1.5173742
1.5176829
1.5175476
1.5175232
1.5176565
1.5173709
1.5172669
1.5174228
1.5172256
1.517551
1.5174183
1.5173577
1.5174856
1.5177409
1.5176729
1.5177677
1.5176456
1.5177548
1.5178409
1.5178155
1.5177277
1.5174713
1.5175615
1.5175434
1.5176332
1.5176227
1.5177077
1.5175454
1.5176334
1.51797
1.5179121
1.5179794
1.5179019
1.5180405
1.5179641
1.5179564
1.518033
1.5178673
1.5179351
1.5178897
1.5179574
1.5180193
1.5179424
1.5179211
1.5179981
1.5178336
1.5177491
1.5178481
1.5177347
1.5178335
1.5178205
1.5179264
1.5179142
1.5177994
1.517725
1.5178248
1.5177005
1.5179042
1.5178102
1.5177862
1.5178801
1.5178668
1.5178281
1.5178906
1.5178028
1.5179466
1.5178769
1.5178527
1.5179237
1.5176178
1.5176809
1.5176972
1.5177559
1.5178141
1.5177445
1.5176644
1.5177387
1.5185579
1.518539
1.518506
1.5185279
1.5182422
1.5184143
1.5184258
1.5182646
1.5184715
1.5185039
1.5185368
1.5185076
1.518407
1.5183798
1.5182034
1.5182435
1.5185969
1.5185581
1.5185343
1.5185752
1.5186218
1.5186046
1.518578
1.5185995
1.5185613
1.5185735
1.5185943
1.5185795
1.5185732
1.5185359
1.5185181
1.5185532
1.5184173
1.5183743
1.5184203
1.5183706
1.5184217
1.5184805
1.5184769
1.5184187
1.5183347
1.5183822
1.5183524
1.518398
1.5183999
1.5184576
1.5183834
1.5184437
1.5181429
1.5181911
1.5181709
1.5181201
1.5179339
1.5180145
1.5180596
1.5179871
1.5182313
1.518194
1.5182496
1.5181724
1.5179838
1.5180518
1.5180637
1.5181224
1.5183015
1.5182534
1.5183071
1.5182475
1.5183088
1.5183717
1.5183673
1.5183035
1.5182657
1.5182299
1.5182831
1.5182117
1.5182852
1.5183489
1.5182669
1.518332
1.5182535
1.5182944
1.5182779
1.5182339
1.5183524
1.5182795
1.5182979
1.5183353
1.5181277
1.5180494
1.5181668
1.5180985
1.518231
1.518095
1.5181635
1.5181719
1.5184638
1.5184571
1.5185134
1.5185076
1.5185813
1.5185093
1.5185741
1.5185157
1.5184378
1.5184888
1.5184821
1.5184298
1.5185518
1.5184907
1.5185561
1.5184846
1.5182795
1.5183387
1.5182732
1.5183326
1.5183344
1.5183405
1.5184105
1.5184052
1.5182486
1.5183066
1.5182554
1.5183144
1.5183877
1.5183162
1.5183084
1.5183794
1.5183302
1.5183227
1.5183888
1.5183814
1.5183841
1.5184535
1.5183919
1.5184603
1.5183012
1.5183607
1.5183514
1.5182917
1.5184259
1.5183632
1.5184343
1.518354
1.5184132
1.518464
1.5184598
1.5184081
1.5183827
1.5183908
1.5184423
1.5184346
1.5185259
1.5184655
1.5185304
1.5184612
1.5184374
1.5185051
1.5184445
1.5185107
1.5181902
1.5182485
1.5182409
1.5181824
1.5181525
1.518163
1.5182212
1.5182111
1.5183188
1.5182463
1.5183257
1.5182381
1.5182078
1.5182886
1.5182172
1.5182984
1.5181341
1.5180805
1.5181411
1.5180738
1.5181282
1.518199
1.5181916
1.5181209
1.5181037
1.5180537
1.5181154
1.518042
1.5181013
1.5181735
1.5180905
1.5181622
1.5180399
1.5181007
1.5180941
1.5180339
1.5180169
1.5180766
1.5180668
1.5180075
1.5181499
1.5180857
1.5181566
1.5180796
1.5181233
1.5180616
1.5181322
1.5180536
1.5181455
1.5182033
1.5181962
1.5181388
1.518121
1.5181783
1.5181138
1.518171
1.518271
1.5181983
1.5182778
1.5181908
1.5181675
1.5181731
1.5182537
1.5182459
1.5179345
1.5179869
1.5179645
1.517911
1.5177236
1.5178041
1.5178532
1.5177782
1.5179751
1.5180345
1.5180121
1.5179514
1.517763
1.5178435
1.5179034
1.5178288
1.5180266
1.5180836
1.5180771
1.5180203
1.5180057
1.5180624
1.5180424
1.5179852
1.51807
1.5181364
1.5181298
1.518064
1.5180489
1.5181151
1.5180957
1.5180292
1.5181747
1.5181267
1.5181815
1.5181204
1.5181781
1.518251
1.5182448
1.518171
1.5181407
1.5181052
1.5181587
1.5180861
1.5181547
1.5182279
1.5181368
1.5182098
1.5180267
1.518076
1.5180538
1.5180029
1.5178174
1.5178975
1.5179438
1.5178704
1.5181399
1.5181183
1.5180741
1.5180501
1.517864
1.5179437
1.5180104
1.5179366
1.5164569
1.5195287
1.519388
1.5198034
1.5195991
1.519674
1.5195633
1.5194306
1.5194101
1.519391
1.5193761
1.5163321
1.5191848
1.519086
1.5192439
1.5192284
1.5191915
1.5191822
1.5191515
1.5190497
1.5191169
1.5190409
1.5194719
1.5194462
1.51916
1.5191967
1.5194867
1.5195114
1.5192668
1.5192273
1.5191443
1.5191542
1.5191133
1.5191023
1.5190705
1.5190548
1.5190369
1.5190484
1.5194927
1.5194606
1.5191274
1.5191748
1.5194838
1.5194522
1.5191479
1.5191876
1.5189941
1.5190243
1.5190359
1.5190032
1.5189969
1.518978
1.5189369
1.5189559
1.5188295
1.5188118
1.5187972
1.5188175
1.5188826
1.5188801
1.5188662
1.5188693
1.5188293
1.518853
1.5188542
1.5188334
1.5188014
1.5187854
1.5187634
1.5187823
1.5189983
1.5190317
1.5190266
1.5189894
1.5189989
1.5190121
1.518972
1.5189579
1.5189229
1.5189341
1.5189355
1.5189264
1.5189099
1.518907
1.5188886
1.5188909
1.5188647
1.5188677
1.5188268
1.5188247
1.5188698
1.5188757
1.518837
1.518831
1.5187592
1.5187716
1.5187721
1.5187587
1.5187538
1.5187578
1.5187537
1.5187496
1.518718
1.5187147
1.5186943
1.5186976
1.5186847
1.5186918
1.5186912
1.5186836
1.5186278
1.5186534
1.5186697
1.5186462
1.5186384
1.5186246
1.5186139
1.518628
1.5186438
1.5186441
1.518616
1.5186161
1.5183698
1.5185323
1.5185203
1.5183672
1.5185494
1.5185799
1.518596
1.5185674
1.5184669
1.5184596
1.5182932
1.5183123
1.518612
1.5187188
1.5186729
1.5185519
1.5187958
1.5188062
1.5187692
1.5187574
1.5187015
1.5187056
1.5186876
1.5186808
1.5185913
1.5186065
1.5184636
1.5184497
1.5167608
1.5166924
1.5166919
1.5167617
1.5167632
1.5167685
1.5166951
1.516692
1.5166999
1.5167603
1.5167604
1.5166977
1.5166956
1.5167605
1.5167606
1.5166939
1.5166346
1.516648
1.5166469
1.5166365
1.5166445
1.5166457
1.5166327
1.5166308
1.5161472
1.5161467
1.5175346
1.5174861
1.5174102
1.5175277
1.5175711
1.5175859
1.5175087
1.5174535
1.5174722
1.5174683
1.5174499
1.5173926
1.5173946
1.5173868
1.5173842
1.5168996
1.5169637
1.5169012
1.5168428
1.5170459
1.5171727
1.5171047
1.5169792
1.5170826
1.5170797
1.5169605
1.5169618
1.51683
1.5168874
1.5168877
1.5168304
1.5167732
1.5167915
1.5167345
1.5167131
1.5168179
1.5168541
1.5167982
1.5167631
1.5167858
1.5167868
1.5167524
1.5167503
1.5167028
1.5167249
1.516722
1.5167001
1.5166714
1.5166925
1.5166925
1.5166711
1.5167205
1.5167558
1.5167571
1.5167216
1.5167534
1.5167552
1.5167204
1.5167179
1.5166716
1.5166929
1.51669
1.516669
1.5169255
1.5170366
1.5170384
1.5169277
1.516858
1.5168551
1.5168
1.5168024
1.5167996
1.5168558
1.5166574
1.5166369
1.5166543
1.5166573
1.5166479
1.5166448
1.5166557
1.5166572
1.5166478
1.5166453
1.5166393
1.5166421
1.5166387
1.516635
1.5166395
1.5166423
1.5166394
1.5166367
1.5167542
1.5167618
1.516697
1.5166853
1.516684
1.516687
1.5166758
1.5166728
1.5166772
1.51675
1.5167478
1.5166721
1.5166637
1.5166683
1.5166655
1.5166612
1.5167482
1.5167473
1.5166692
1.5166679
1.5166589
1.5166614
1.5166605
1.5166581
1.5166678
1.5167499
1.5167521
1.5166684
1.5166614
1.5166606
1.5166581
1.5166584
1.5166389
1.5166384
1.5166333
1.5166329
1.5166358
1.5166385
1.5166385
1.5166333
1.5166399
1.516641
1.5166338
1.5166397
1.516639
1.5167086
1.5167587
1.5167593
1.5167115
1.5167596
1.5167601
1.5167027
1.5167054
1.5166435
1.516642
1.5166512
1.5166507
1.5166499
1.5166491
1.5166402
1.5166386
1.5166384
1.5166381
1.5166356
1.5166359
1.5166305