/*--------------------------------*- C++ -*----------------------------------*\
  =========                 |
  \\      /  F ield         | OpenFOAM: The Open Source CFD Toolbox
   \\    /   O peration     | Website:  https://openfoam.org
    \\  /    A nd           | Version:  7
     \\/     M anipulation  |
\*---------------------------------------------------------------------------*/
FoamFile
{
    version     2.0;
    format      ascii;
    class       volScalarField;
    location    "2000";
    object      nut;
}
// * * * * * * * * * * * * * * * * * * * * * * * * * * * * * * * * * * * * * //

dimensions      [0 2 -1 0 0 0 0];

internalField   nonuniform List<scalar> 
34356
(
8.9291438e-90
1.7766865e-89
3.4698013e-90
3.5271134e-90
1.5097382e-90
1.0388165e-90
5.5041529e-91
2.6815811e-91
3.2511674e-91
5.582931e-91
1.2258412e-89
5.3274589e-91
1.1107629e-89
1.4885429e-90
1.3635707e-90
5.9108131e-91
6.3206759e-91
1.3064134e-90
5.5964024e-91
1.288167e-90
5.1102318e-91
3.6440597e-91
1.9048499e-91
1.9148157e-91
2.5564292e-91
5.9753514e-91
4.4708911e-91
4.3593173e-91
6.6335157e-91
5.6521879e-91
1.0609613e-91
8.8005057e-92
1.5234924e-91
1.0742625e-91
2.3071505e-91
2.4088643e-91
2.2950282e-91
2.3462482e-91
4.9875092e-91
2.0868332e-91
1.9993037e-91
4.9091992e-91
7.0024471e-91
5.4759015e-90
6.9342713e-91
5.3169223e-90
1.7705692e-91
1.9404409e-91
4.8725782e-91
4.8139156e-91
6.184332e-91
6.1948798e-91
4.7212555e-90
5.0822597e-90
3.1552676e-91
4.9138712e-91
5.1891962e-91
3.2000842e-91
5.0410627e-91
3.0823032e-91
4.8091399e-91
2.9380775e-91
5.3736488e-91
5.1055458e-91
3.1373335e-91
2.9375785e-91
2.7247504e-91
4.6450821e-91
5.1838209e-91
3.0818311e-91
2.0121549e-91
2.0598363e-91
1.9109793e-91
1.9555495e-91
1.3639835e-91
1.075314e-91
1.0083321e-91
1.2416604e-91
8.7452207e-92
1.3882273e-91
1.0745308e-91
1.0143819e-91
1.2502268e-91
8.6618254e-92
1.9911674e-91
2.0314269e-91
1.915781e-91
1.8196012e-91
1.0452002e-91
1.0362062e-91
6.1580855e-91
6.6888989e-91
4.5320516e-91
4.2928064e-91
1.1847888e-91
2.528427e-91
6.2404968e-92
5.9682922e-92
4.3273215e-92
4.2910946e-92
6.6267727e-92
7.5038085e-92
7.2365547e-92
7.0641034e-92
6.8323716e-92
8.5257938e-92
9.8757244e-92
9.5718627e-92
7.5295519e-92
7.4894764e-92
6.6403003e-92
6.7313346e-92
6.673986e-92
1.8884197e-91
1.7692295e-91
1.9071579e-91
1.8817451e-91
1.8862598e-91
1.8634988e-91
1.712946e-91
1.8757264e-91
2.241664e-91
2.4323318e-91
2.0336287e-91
1.4988094e-91
1.2645512e-91
2.0268555e-91
3.9515231e-91
2.8936323e-91
2.8962013e-91
3.9405321e-91
5.3031985e-91
2.5131089e-90
2.6959885e-90
5.461025e-91
3.80289e-91
2.7829733e-91
2.8552524e-91
3.8377555e-91
5.033704e-91
5.0792464e-91
2.4868474e-90
2.7356502e-90
1.4883682e-91
1.2731881e-91
1.9382208e-91
2.0407587e-91
2.7890118e-91
2.8331175e-91
3.8979595e-91
3.8765755e-91
3.8638701e-91
2.763259e-91
2.7337259e-91
3.7695868e-91
4.9873441e-91
4.9811247e-91
2.328551e-90
2.6115196e-90
5.3035217e-91
2.671361e-90
5.108454e-91
2.5181379e-90
2.0724899e-91
2.1906505e-91
1.7132523e-91
1.6057107e-91
1.7302145e-91
2.3475598e-91
2.2664261e-91
1.6765717e-91
1.5505494e-91
2.0734866e-91
2.0848438e-91
1.5932043e-91
2.0765103e-91
1.9307253e-91
1.5305871e-91
1.5104308e-91
2.2234257e-91
2.2381164e-91
1.6783914e-91
1.6573747e-91
1.642785e-91
2.2215071e-91
2.1355716e-91
1.5922184e-91
1.8938537e-91
2.0536101e-91
1.4761531e-91
1.6163791e-91
2.3051429e-91
2.2935208e-91
1.7254709e-91
1.7317863e-91
4.7683863e-92
4.1205087e-92
1.2926574e-91
1.571512e-91
1.4317501e-91
1.4179883e-91
1.5944887e-91
1.5946714e-91
1.4128573e-91
1.4192748e-91
1.2299415e-91
1.2219308e-91
1.2277169e-91
1.1955453e-91
1.0802132e-91
1.230569e-91
1.1445295e-91
1.1495847e-91
8.221338e-92
9.3724307e-92
8.8888922e-92
8.5452939e-92
7.391538e-92
7.139471e-92
6.6748245e-92
7.039543e-92
7.534744e-92
6.7380144e-92
6.5896126e-92
6.8840985e-92
6.9548285e-92
6.9758441e-92
8.8959797e-92
8.8537745e-92
8.5673046e-92
8.5059932e-92
7.7883258e-92
7.4970418e-92
8.7402979e-92
9.2911477e-92
9.1745716e-92
8.7090227e-92
6.9359671e-92
6.7098942e-92
7.1399521e-92
7.1214598e-92
7.3749429e-92
6.7828411e-92
6.6110275e-92
6.8827466e-92
6.9872185e-92
6.8768504e-92
8.7537819e-92
8.5174509e-92
8.7679962e-92
8.3894741e-92
7.6944289e-92
7.7163833e-92
1.5127986e-91
1.6015963e-91
1.6184709e-91
1.4277292e-91
1.4996963e-91
1.67071e-91
1.5967881e-91
1.4666029e-91
1.1518993e-91
1.2019282e-91
1.2345984e-91
1.1762237e-91
1.1996728e-91
1.2001131e-91
1.1927658e-91
1.1764377e-91
2.5175673e-91
6.020015e-92
2.344429e-91
5.8277067e-92
6.1608038e-92
4.3459672e-92
4.1304692e-92
5.9218902e-92
5.7324712e-92
4.3049544e-92
4.0620584e-92
5.3918795e-92
8.3842167e-92
6.412064e-92
9.1702664e-92
7.6691389e-92
1.0149042e-91
8.4642275e-92
5.878891e-92
1.8572053e-92
1.8282903e-92
3.2157586e-92
3.145304e-92
2.0830327e-92
2.4361694e-92
2.8617933e-92
2.1161437e-92
2.7392609e-92
2.7205624e-92
3.1065105e-92
2.7467841e-92
2.8457899e-92
3.0235706e-92
3.0536693e-92
2.5470687e-92
2.5377444e-92
2.1313602e-92
2.0306887e-92
3.6186113e-92
3.9536322e-92
4.0838694e-92
4.0753525e-92
4.0643607e-92
4.0895768e-92
4.4458139e-92
4.5605128e-92
5.2123287e-92
5.3653334e-92
4.9748098e-92
4.9567367e-92
5.129632e-92
5.0069537e-92
4.8359117e-92
4.705926e-92
9.0942502e-92
7.2449398e-92
1.0130033e-91
8.0123894e-92
9.3319993e-92
9.6240508e-92
8.578392e-92
8.4605659e-92
7.6849936e-92
9.4297347e-92
8.4843021e-92
9.997752e-92
6.7704545e-92
6.5311994e-92
7.3197683e-92
6.6749466e-92
6.3703916e-92
5.9985502e-92
7.2746381e-92
6.627811e-92
4.3692932e-92
4.8213818e-92
4.7593852e-92
5.2400284e-92
4.782246e-92
4.9067968e-92
5.3789827e-92
5.2408455e-92
4.8522571e-92
4.990789e-92
5.3066638e-92
5.3777658e-92
7.0086721e-92
1.1888512e-91
1.182601e-91
1.1446904e-91
1.1653237e-91
1.1586763e-91
1.2092563e-91
1.3099128e-91
1.2765771e-91
1.2120354e-91
1.2574111e-91
1.2234673e-91
1.2493996e-91
1.0470775e-91
1.1236133e-91
1.2827049e-91
1.2906694e-91
5.1052753e-91
4.7925799e-91
2.5209036e-91
2.9658908e-91
3.0116295e-91
1.4190311e-91
1.311975e-91
2.5545459e-91
3.159261e-91
3.0578733e-91
1.815475e-91
1.8384689e-91
2.5734695e-91
2.3965337e-91
2.0560998e-91
2.0706198e-91
1.7810989e-91
6.0847704e-91
1.8008598e-91
6.3444078e-91
1.6693833e-91
6.0143722e-91
1.7921651e-91
6.4486079e-91
2.5142061e-91
2.569396e-91
1.9831308e-91
2.0780832e-91
1.7602065e-91
1.7946295e-91
2.4418038e-91
2.5020365e-91
1.9056259e-91
2.0073645e-91
2.3407842e-91
2.519623e-91
2.0434176e-91
2.0838766e-91
1.6419764e-91
1.7617687e-91
6.374671e-91
5.9034417e-91
6.6566971e-91
6.6150076e-91
1.7961129e-91
1.7779369e-91
1.3903153e-91
1.2438058e-91
2.3797257e-91
2.8827156e-91
2.9966636e-91
2.5801575e-91
2.9571067e-91
3.018001e-91
1.8122893e-91
1.7955342e-91
1.7814442e-91
1.7694579e-91
4.9405739e-91
1.908045e-91
2.4704823e-91
2.5315147e-91
1.9755937e-91
2.3439844e-91
2.5111637e-91
1.996386e-91
2.0115996e-91
1.6308201e-91
5.6531962e-91
1.7668849e-91
6.2328476e-91
1.8019187e-91
6.6450903e-91
6.5440822e-91
1.757912e-91
2.5093626e-91
2.4583677e-91
1.9040079e-91
2.0101474e-91
1.6566795e-91
6.1314172e-91
1.7794808e-91
6.6153596e-91
2.3087225e-91
2.4640366e-91
1.9906101e-91
2.0164335e-91
1.7777328e-91
1.7235377e-91
6.6136196e-91
6.3796098e-91
2.3096772e-91
2.1790963e-91
5.7838992e-92
6.0902224e-92
2.3513861e-91
2.3975777e-91
6.1357349e-92
6.2131337e-92
2.3792011e-91
5.9376379e-92
2.3592833e-91
6.3062321e-92
6.155665e-92
2.4684201e-91
2.3652478e-91
5.9423786e-92
2.1655315e-91
2.0904819e-91
5.4167089e-92
5.8669918e-92
2.1594483e-91
2.309452e-91
5.6885667e-92
5.5914904e-92
2.0662054e-91
2.1113382e-91
5.3161024e-92
5.5382705e-92
2.1336979e-91
2.0570327e-91
5.5022942e-92
5.402822e-92
2.3892625e-91
2.5063028e-91
6.1098462e-92
5.9497479e-92
2.253039e-91
2.2580882e-91
6.4298239e-92
6.5259079e-92
2.2499992e-91
2.3178747e-91
5.7954392e-92
6.1328791e-92
2.3136797e-91
2.3401917e-91
5.9433708e-92
5.8097437e-92
2.1372201e-91
1.9806696e-91
5.3837173e-92
5.9461219e-92
5.9869759e-92
2.3017614e-91
2.2979924e-91
5.9555054e-92
2.4670557e-91
2.4122156e-91
6.1736244e-92
6.4497626e-92
2.5683069e-91
2.6442578e-91
6.5754471e-92
6.3720776e-92
2.6129493e-91
2.6271896e-92
3.0270738e-92
3.4074001e-92
2.7786809e-92
2.678787e-92
2.5545319e-92
2.8880645e-92
6.7638476e-92
6.7948004e-92
6.9221213e-92
8.7429135e-92
7.3687272e-92
5.5969478e-92
2.3515883e-91
2.336049e-91
4.018737e-92
5.3624353e-92
8.8316992e-92
6.4388712e-92
9.5982683e-92
7.0308286e-92
1.0346695e-91
1.0752619e-91
9.4854494e-92
9.6615154e-92
8.4795568e-92
7.423961e-92
9.2930811e-92
8.0030429e-92
1.091109e-91
7.9246753e-92
1.1159465e-91
8.1153603e-92
1.0184821e-91
1.0082679e-91
9.5177295e-92
9.212399e-92
9.8772708e-92
8.7281284e-92
1.019966e-91
8.8871908e-92
1.0954365e-91
1.0686148e-91
7.87793e-92
7.7966033e-92
7.4875176e-92
1.0249407e-91
1.0509123e-91
7.5673269e-92
9.4931859e-92
7.4214296e-92
9.9208721e-92
7.6717451e-92
9.8671627e-92
1.0348782e-91
8.5385752e-92
8.8402448e-92
1.0115209e-91
1.005544e-91
8.8555698e-92
8.7613355e-92
9.6167009e-92
9.5257588e-92
7.6574713e-92
7.5237195e-92
8.1206587e-92
6.2151297e-92
8.9957107e-92
6.824156e-92
1.0362281e-91
1.0793384e-91
8.9676715e-92
9.2087294e-92
8.829496e-92
7.4429393e-92
9.8253907e-92
8.1851807e-92
9.71064e-92
1.0053504e-91
7.6221905e-92
7.815033e-92
8.874416e-92
7.1088415e-92
9.9029657e-92
7.866181e-92
9.3886209e-92
9.7667028e-92
8.6440041e-92
8.9143623e-92
8.1293092e-92
7.4476318e-92
9.056296e-92
8.2334217e-92
1.0187887e-91
1.053888e-91
8.2595611e-92
8.4770102e-92
6.977892e-92
6.6892198e-92
7.4500803e-92
6.8931726e-92
6.0273328e-92
5.7928347e-92
6.8505297e-92
6.4073521e-92
4.161528e-92
4.6308035e-92
4.5728982e-92
5.0734326e-92
4.9761065e-92
4.89953e-92
5.1652992e-92
5.4154804e-92
5.6012188e-92
5.3424789e-92
5.4282901e-92
5.7383206e-92
4.7250711e-92
4.7735191e-92
4.9976721e-92
5.1249485e-92
5.1071755e-92
4.5446551e-92
4.7874955e-92
4.864772e-92
5.1190596e-92
4.9827447e-92
6.4699931e-92
6.3244804e-92
6.9206866e-92
6.6110432e-92
4.9848506e-92
5.2364387e-92
6.660155e-92
6.5025655e-92
6.7459345e-92
6.4339152e-92
9.0646008e-92
8.4340642e-92
9.0276285e-92
8.3382587e-92
8.7992176e-92
8.2006277e-92
9.2901147e-92
8.546938e-92
9.835778e-92
8.0628056e-92
1.0332173e-91
8.3818561e-92
1.0086599e-91
8.2955436e-92
9.9727256e-92
8.1945796e-92
4.00942e-92
4.1090989e-92
4.1048491e-92
4.3756376e-92
5.0486684e-92
4.4006357e-92
4.2643803e-92
4.8127277e-92
9.6133899e-92
7.6800676e-92
1.0540207e-91
8.3642921e-92
9.2436184e-92
9.6350658e-92
8.5748704e-92
8.8437439e-92
8.7561127e-92
8.0323262e-92
9.6112444e-92
8.7157315e-92
1.0147956e-91
1.0479852e-91
8.2730369e-92
8.4409206e-92
4.8133636e-92
5.1203882e-92
5.3322353e-92
5.5829965e-92
5.2736769e-92
4.5551254e-92
4.9739858e-92
5.0333917e-92
5.3658893e-92
5.0402426e-92
6.7291305e-92
6.5267376e-92
7.1758452e-92
6.7416211e-92
6.4539017e-92
6.218659e-92
7.1685563e-92
6.76059e-92
5.8230144e-92
5.6568333e-92
4.4070534e-92
4.5059552e-92
5.1080573e-92
4.9248843e-92
4.8248906e-92
4.4277784e-92
4.6707551e-92
5.0026253e-92
5.0736407e-92
4.8873431e-92
6.254793e-92
6.0588643e-92
6.6970249e-92
6.3582726e-92
5.292434e-92
5.4331743e-92
6.1893629e-92
6.0725805e-92
6.3534155e-92
6.083096e-92
8.5709459e-92
8.0056954e-92
8.6435017e-92
7.9870271e-92
9.4781016e-92
7.7513882e-92
1.004834e-91
8.1248772e-92
8.4690907e-92
7.850643e-92
8.987916e-92
8.2250908e-92
9.5512728e-92
7.9124831e-92
9.5156337e-92
7.8229772e-92
4.077679e-92
4.1208243e-92
4.4228475e-92
4.5549725e-92
5.2217687e-92
4.4861227e-92
4.3762423e-92
4.7763022e-92
1.0371652e-91
7.356659e-92
1.0809771e-91
7.566689e-92
9.6597008e-92
9.4749386e-92
8.9545674e-92
8.6252643e-92
9.635468e-92
8.6907835e-92
1.0046495e-91
8.8291074e-92
1.0563892e-91
7.5703658e-92
1.0347542e-91
7.497704e-92
9.8420533e-92
7.0644866e-92
1.0712707e-91
7.6105367e-92
1.0461025e-91
9.6037071e-92
1.0732461e-91
9.6203917e-92
9.4389772e-92
8.3311727e-92
1.0176288e-91
8.8721235e-92
1.1177141e-91
1.1339763e-91
8.0297683e-92
8.0327306e-92
8.9690187e-92
9.7624976e-92
6.9426637e-92
7.4568028e-92
9.4916384e-92
8.0910748e-92
1.0366118e-91
8.7369139e-92
1.0291869e-91
1.0641606e-91
8.9441047e-92
9.1080839e-92
9.8097112e-92
1.0055252e-91
7.7626825e-92
7.8412472e-92
9.6389704e-92
9.5969309e-92
8.4415094e-92
8.3025043e-92
9.4219748e-92
9.983144e-92
8.1429589e-92
8.4861578e-92
9.061844e-92
7.1877632e-92
9.552814e-92
7.4673233e-92
9.2241428e-92
9.1002982e-92
7.3358027e-92
7.1999349e-92
5.2028396e-92
3.6340917e-92
1.889214e-92
1.8349587e-92
3.5052036e-92
4.760424e-92
1.8268596e-92
1.7939441e-92
3.9352832e-92
3.9330358e-92
2.1714583e-92
2.6309296e-92
2.9219083e-92
2.1777452e-92
2.928123e-92
2.913812e-92
3.2702344e-92
2.9118559e-92
2.9407694e-92
3.1897415e-92
3.4160089e-92
2.8054943e-92
2.6546402e-92
2.641758e-92
2.1836641e-92
2.1373548e-92
2.9010719e-92
2.6795218e-92
2.1510592e-92
2.170749e-92
3.0670482e-92
3.2954275e-92
2.9474358e-92
2.9416068e-92
3.5292077e-92
3.7004029e-92
2.878494e-92
3.0066795e-92
2.4795417e-92
2.7041951e-92
2.2432931e-92
2.1755958e-92
3.7405024e-92
3.8571576e-92
3.4545572e-92
3.3483522e-92
3.2954409e-92
2.6596083e-92
2.7545635e-92
3.428468e-92
4.7099736e-92
4.5299973e-92
4.0457221e-92
4.1752973e-92
4.159435e-92
4.0337555e-92
3.2899764e-92
3.3839636e-92
4.582894e-92
4.9156341e-92
4.4102669e-92
5.0775906e-92
3.5920416e-92
4.3644763e-92
4.5295587e-92
3.6635878e-92
2.5854387e-92
2.459502e-92
7.2089187e-93
7.1945235e-93
1.1755066e-92
1.2067576e-92
7.0625532e-93
1.2420353e-92
1.5558412e-92
1.7124006e-92
1.7709545e-92
1.6198757e-92
2.1347735e-92
1.5901411e-92
1.8439051e-92
2.0504157e-92
1.7392154e-92
1.4905333e-92
2.0831536e-92
2.2722847e-92
1.5712583e-92
1.4944548e-92
1.697924e-92
1.5869201e-92
2.1178139e-92
2.3986713e-92
2.4651105e-92
2.1806451e-92
1.9104606e-92
1.8191443e-92
1.9435399e-92
1.9973302e-92
1.9042563e-92
1.9078736e-92
1.9629846e-92
1.9778083e-92
2.1694515e-92
2.3149075e-92
2.3181862e-92
2.151814e-92
2.1905216e-92
2.499147e-92
2.4487655e-92
2.1837791e-92
2.2210918e-92
2.0010784e-92
1.9698064e-92
2.0678205e-92
1.9737679e-92
1.9212494e-92
1.8933289e-92
1.9727987e-92
2.1077326e-92
2.1964142e-92
2.2453984e-92
2.0475641e-92
2.1919643e-92
1.6412721e-92
1.7311805e-92
2.0271333e-92
1.6531313e-92
1.6345841e-92
1.5203661e-92
1.5584096e-92
1.5331379e-92
1.5165374e-92
2.4614203e-92
2.0916304e-92
2.6734152e-92
2.7383157e-92
2.6854721e-92
2.6483227e-92
2.779515e-92
2.7731438e-92
2.7003671e-92
2.729933e-92
2.8551219e-92
3.2277426e-92
3.2395812e-92
2.8358617e-92
2.8351651e-92
3.1882864e-92
3.1488625e-92
2.7760879e-92
2.5225392e-92
2.5607216e-92
2.7978431e-92
2.7395375e-92
2.7277307e-92
2.7176197e-92
2.6983763e-92
2.7531421e-92
3.2646944e-92
2.9799515e-92
2.5919139e-92
2.8347007e-92
2.8448221e-92
3.2137067e-92
3.3013905e-92
2.8744683e-92
3.0944846e-92
3.2746552e-92
3.6258023e-92
3.3584359e-92
3.6288269e-92
3.5434927e-92
3.3110606e-92
3.405143e-92
3.8778334e-92
3.5282912e-92
3.1896733e-92
3.4687593e-92
3.432404e-92
3.7957837e-92
3.9263702e-92
3.5165009e-92
3.4326665e-92
3.628817e-92
3.6313481e-92
3.3942447e-92
3.5077652e-92
3.5537094e-92
3.3578761e-92
3.3441301e-92
3.9355538e-92
3.9265064e-92
3.5080794e-92
3.5479113e-92
3.4984033e-92
3.8443648e-92
3.83678e-92
3.4574943e-92
5.2175174e-92
5.684398e-92
4.9963842e-92
5.967741e-92
5.0543875e-92
4.1039804e-92
4.2173764e-92
5.3263279e-92
6.4753224e-92
5.7211182e-92
6.3111134e-92
5.544875e-92
5.537499e-92
4.487513e-92
5.7081235e-92
4.604685e-92
8.362776e-92
7.1096098e-92
7.3364535e-92
8.5327037e-92
8.7977066e-92
8.5900789e-92
7.3773274e-92
7.5505067e-92
5.6653622e-92
6.9746043e-92
5.5750686e-92
7.2437272e-92
6.6721413e-92
7.382395e-92
6.2625795e-92
7.9446716e-92
6.222671e-92
4.9439261e-92
5.1208704e-92
6.6212104e-92
7.5163883e-92
8.4428689e-92
7.1613486e-92
8.7801728e-92
7.0011436e-92
5.5484364e-92
7.2633456e-92
5.6202589e-92
6.2647625e-92
5.5443453e-92
5.6674625e-92
6.4805956e-92
1.1877158e-91
1.2056748e-91
9.7385891e-92
9.9070391e-92
9.9479588e-92
7.5029614e-92
7.6270122e-92
9.7229788e-92
1.1801637e-91
1.1787886e-91
1.0191259e-91
1.0123054e-91
9.9542852e-92
1.0115773e-91
7.6829311e-92
7.8078984e-92
8.9159811e-92
1.0493862e-91
8.5847578e-92
1.0732758e-91
8.5220793e-92
6.5439967e-92
6.8310056e-92
8.9426041e-92
1.0429352e-91
1.1971667e-91
1.0133405e-91
1.2146316e-91
9.8547405e-92
7.5329341e-92
1.0430844e-91
7.7136237e-92
1.719829e-91
1.7432488e-91
1.1990575e-91
1.2149205e-91
1.4095633e-91
1.4438792e-91
1.9911665e-91
2.0875345e-91
1.033421e-91
1.1928713e-91
1.8778782e-91
1.8998982e-91
1.2915798e-91
1.3082715e-91
1.4054243e-91
1.3970024e-91
1.9621037e-91
1.9654735e-91
1.1219463e-91
1.1497026e-91
1.9685407e-91
1.9569702e-91
1.3692144e-91
1.3766707e-91
1.4721096e-91
1.4911625e-91
2.0670506e-91
2.120813e-91
1.1434032e-91
1.2153999e-91
1.0349641e-91
1.2062596e-91
1.0050244e-91
1.2278324e-91
5.6805417e-92
6.3111231e-92
5.9840202e-92
5.8887279e-92
5.9087837e-92
5.7049948e-92
5.8259139e-92
5.7635519e-92
6.2885046e-92
6.2639191e-92
6.3773125e-92
6.8308864e-92
6.4166517e-92
6.6709024e-92
6.5638211e-92
6.4449892e-92
6.5721292e-92
6.4990861e-92
7.2914706e-92
6.3336823e-92
6.3769966e-92
6.3450656e-92
6.7869135e-92
6.4147922e-92
6.5934158e-92
5.8085673e-92
6.4164759e-92
6.3632652e-92
6.946005e-92
6.9208769e-92
6.939179e-92
7.2196629e-92
4.2635845e-91
3.9946563e-91
1.437955e-91
1.5886133e-91
3.3181633e-91
1.5401642e-91
1.3659887e-91
1.2210247e-91
1.2474129e-91
2.2119487e-91
1.5072211e-91
1.4799408e-91
1.251499e-91
1.2971843e-91
2.4764733e-91
1.5605286e-91
1.5179587e-91
1.8802536e-91
1.7540941e-91
1.7875631e-91
1.917292e-91
1.6284387e-91
1.6427785e-91
1.8939043e-91
1.8787868e-91
1.8686697e-91
1.8872845e-91
1.6673131e-91
1.5911604e-91
2.0301522e-91
2.0128844e-91
9.9331876e-92
9.8374447e-92
9.6217231e-92
2.0356074e-91
2.0620458e-91
9.9066932e-92
8.6513027e-92
5.3841224e-92
5.4386503e-92
7.890278e-92
7.0428721e-92
5.9073717e-92
5.5936476e-92
6.7823491e-92
5.3747051e-92
5.592252e-92
8.8643639e-92
8.5789961e-92
5.6956185e-92
5.7778047e-92
7.1921698e-92
6.863682e-92
5.6315285e-92
5.363329e-92
7.3430393e-92
8.2263765e-92
6.6487446e-92
5.4035334e-92
5.5517362e-92
7.0730426e-92
5.5430338e-92
5.4619613e-92
9.0063259e-92
8.9492132e-92
5.7491606e-92
6.0284145e-92
7.2709041e-92
7.1930314e-92
2.0681603e-91
2.0709742e-91
9.6758557e-92
1.0091304e-91
1.0218712e-91
2.0830644e-91
2.0843627e-91
1.0338544e-91
1.7969788e-91
1.6732529e-91
1.8608942e-91
1.7287729e-91
1.59177e-91
1.6092011e-91
1.8389546e-91
1.8000351e-91
1.7975583e-91
1.8420401e-91
1.6484928e-91
1.5893161e-91
9.4741634e-92
2.0211624e-91
9.8813073e-92
2.0175713e-91
2.0456558e-91
2.0478082e-91
9.9832533e-92
1.0232065e-91
9.6186566e-92
2.0570119e-91
1.0077897e-91
2.0844448e-91
2.0286825e-91
1.9941594e-91
9.8932992e-92
9.9983886e-92
6.5872327e-92
5.1818463e-92
5.4554684e-92
7.5082371e-92
5.4693065e-92
5.3402826e-92
7.943887e-92
7.7275418e-92
5.8098304e-92
7.1248722e-92
7.0525993e-92
5.4792263e-92
6.4263785e-92
5.2769233e-92
5.3913427e-92
6.9012577e-92
5.6111871e-92
5.6438408e-92
7.3428946e-92
6.9669291e-92
7.3425996e-92
5.8328789e-92
5.5143869e-92
7.200124e-92
5.5608894e-92
5.2969096e-92
7.859656e-92
7.3133321e-92
5.4135721e-92
5.3637287e-92
7.9134102e-92
7.6752701e-92
1.3180746e-91
1.289828e-91
2.6285537e-91
1.1936493e-91
1.2430675e-91
2.1341825e-91
1.5017672e-91
1.4424106e-91
1.2176006e-91
1.2558093e-91
2.388195e-91
1.5229517e-91
1.4706952e-91
1.8466275e-91
1.8356487e-91
1.8138467e-91
1.8206903e-91
1.6438501e-91
1.8485205e-91
1.5867843e-91
1.8154332e-91
1.6801118e-91
1.760693e-91
1.8795302e-91
1.6108149e-91
1.6355251e-91
1.8251989e-91
1.7272167e-91
1.7769902e-91
1.8735142e-91
1.609985e-91
1.6189202e-91
1.8157758e-91
1.7898702e-91
1.7883054e-91
1.8110533e-91
1.6231191e-91
1.5579578e-91
2.3954226e-91
2.5521119e-91
2.003869e-91
1.9858294e-91
1.6735061e-91
6.1425784e-91
1.9996647e-91
1.9975323e-91
9.7333256e-92
9.4533112e-92
2.0596417e-91
2.0386034e-91
1.0094868e-91
1.0042085e-91
2.0268983e-91
2.0431798e-91
9.9463564e-92
9.6097061e-92
9.8694651e-92
1.9956899e-91
1.9639387e-91
9.8457888e-92
5.173918e-92
5.3715662e-92
5.910166e-92
6.8848459e-92
6.3605509e-92
5.1907376e-92
5.3186511e-92
6.695537e-92
5.3161216e-92
6.9129373e-92
5.3718017e-92
7.2353126e-92
5.4457655e-92
5.6657044e-92
6.9694328e-92
6.9950542e-92
5.2745545e-92
5.4735671e-92
7.0503577e-92
6.5736007e-92
6.8678573e-92
5.4172451e-92
5.4729392e-92
7.2821994e-92
7.3320166e-92
5.714227e-92
5.4236165e-92
7.1756137e-92
5.2681146e-92
5.2520505e-92
6.8872827e-92
6.7448447e-92
1.9986986e-91
2.0027089e-91
9.4606909e-92
9.7383376e-92
2.0186122e-91
2.0226685e-91
9.9464375e-92
1.0150796e-91
5.3767597e-92
5.1609154e-92
6.5014129e-92
7.5930402e-92
6.6351136e-92
5.2578317e-92
5.4143406e-92
7.0498825e-92
5.4301491e-92
5.3191428e-92
7.5182565e-92
7.7101832e-92
5.5289885e-92
5.7595991e-92
7.3266951e-92
7.2789902e-92
9.5130903e-92
1.9916687e-91
2.0210839e-91
9.896935e-92
9.7469173e-92
1.9511362e-91
1.9314981e-91
9.8035525e-92
5.5071632e-92
5.2626326e-92
6.842584e-92
7.299502e-92
5.30958e-92
5.2899864e-92
6.8187798e-92
6.8439409e-92
5.5425508e-92
5.4849254e-92
6.9233403e-92
7.2462164e-92
5.3239782e-92
5.6540986e-92
7.1756496e-92
6.9090045e-92
2.7955095e-91
8.5825399e-92
8.1676702e-92
9.0681185e-92
9.1081335e-92
9.1278601e-92
9.4869402e-92
9.3692709e-92
8.8238528e-92
8.5924193e-92
8.2614835e-92
8.6249585e-92
8.8843742e-92
8.2153412e-92
8.4802402e-92
8.0255247e-92
7.5128762e-92
9.1703648e-92
9.3878096e-92
9.3678517e-92
9.0976377e-92
8.9343525e-92
9.2301648e-92
8.2438451e-92
8.7115238e-92
7.8655003e-92
7.4133936e-92
8.6075425e-92
8.6902861e-92
9.5774482e-92
9.0799942e-92
9.246939e-92
9.5622163e-92
2.6472768e-91
8.6281359e-92
8.8515462e-92
1.0061637e-91
9.2267134e-92
7.3849778e-92
6.7790899e-92
8.1383293e-92
4.4750446e-92
4.5499683e-92
5.1098026e-92
4.9395838e-92
4.8769827e-92
4.8295514e-92
4.9524614e-92
5.3896908e-92
6.3398569e-92
6.1851403e-92
6.479776e-92
6.1926047e-92
8.5790915e-92
8.6212132e-92
7.9327995e-92
4.1608921e-92
4.1620662e-92
4.2024588e-92
4.5883438e-92
3.8096861e-92
1.8505046e-92
3.7808076e-92
1.8024069e-92
4.7899571e-92
2.8118114e-92
3.1491731e-92
3.5249728e-92
3.6626732e-92
3.0405504e-92
2.4923663e-92
2.6464562e-92
2.2040796e-92
2.1794896e-92
3.200626e-92
3.1001987e-92
3.0525769e-92
3.2199795e-92
3.4902154e-92
2.8988183e-92
2.980459e-92
3.8450952e-92
3.3589511e-92
3.3609777e-92
3.2725147e-92
3.2153846e-92
3.7592321e-92
3.0465376e-92
3.8618181e-92
3.115542e-92
3.2183885e-92
2.9993943e-92
3.1313717e-92
3.3212922e-92
3.4460052e-92
3.4213125e-92
3.2208556e-92
3.2448774e-92
2.8524489e-92
3.0901993e-92
2.7790137e-92
3.3192168e-92
3.3241425e-92
2.9610498e-92
3.2930102e-92
2.9291443e-92
2.6575856e-92
2.7240353e-92
2.5641805e-92
2.8348252e-92
2.6286531e-92
2.3403243e-92
2.4045893e-92
2.796343e-92
2.8684623e-92
2.9531601e-92
2.7710334e-92
3.0479758e-92
2.8415453e-92
2.5235403e-92
2.9406284e-92
2.5802237e-92
3.5119009e-92
3.463947e-92
3.4890272e-92
3.6363276e-92
3.2809235e-92
4.0098908e-92
4.1241665e-92
3.2749822e-92
3.6761128e-92
3.7194557e-92
3.636978e-92
3.6803123e-92
3.4134006e-92
4.2771589e-92
3.44006e-92
4.2549706e-92
3.0909717e-92
2.8908476e-92
2.9843482e-92
3.1555462e-92
3.084877e-92
3.0805248e-92
2.9344888e-92
2.9385002e-92
2.7427593e-92
2.9899315e-92
2.6974724e-92
3.176941e-92
3.0301564e-92
2.7273179e-92
3.0149717e-92
2.7129891e-92
3.0455482e-92
3.1547682e-92
2.9348596e-92
3.2760609e-92
2.9737687e-92
2.6324501e-92
2.6930864e-92
3.1599369e-92
3.0700006e-92
3.1992315e-92
2.9925571e-92
3.2656686e-92
3.0294534e-92
2.6859721e-92
3.0997736e-92
2.7053652e-92
3.3930286e-92
3.3326469e-92
3.3307661e-92
3.4821756e-92
3.4089104e-92
3.3940371e-92
3.4259339e-92
3.4008408e-92
3.1354987e-92
3.1518293e-92
3.837237e-92
3.9378351e-92
3.946981e-92
3.953198e-92
3.207095e-92
3.2363181e-92
3.905603e-92
3.1388559e-92
3.3435069e-92
4.0799689e-92
3.3756848e-92
3.4157078e-92
3.3509269e-92
3.5183199e-92
3.4901478e-92
3.448296e-92
3.3714105e-92
3.4002568e-92
3.9688005e-92
3.9425852e-92
3.1450175e-92
3.1809467e-92
3.7305069e-92
3.9836815e-92
3.6098284e-92
4.1455315e-92
3.5608875e-92
2.9007844e-92
2.9778731e-92
3.7604532e-92
3.8020948e-92
4.0475655e-92
3.6840224e-92
4.2011831e-92
3.6048641e-92
2.9499965e-92
3.7802745e-92
3.0081588e-92
4.838249e-92
4.3436047e-92
4.4607802e-92
4.9304278e-92
4.9113562e-92
4.4391606e-92
4.5554241e-92
5.0099883e-92
4.3553544e-92
3.5815588e-92
3.6461602e-92
4.5113252e-92
4.419379e-92
3.6510926e-92
3.6936997e-92
4.5452667e-92
4.7688183e-92
4.278247e-92
4.3655974e-92
4.8196801e-92
4.7048465e-92
4.7371292e-92
4.293867e-92
4.2659485e-92
4.283941e-92
3.537628e-92
3.5804606e-92
4.4009222e-92
4.2382376e-92
4.2477214e-92
3.5274166e-92
3.5044707e-92
3.8703833e-92
3.4966414e-92
3.5730693e-92
3.9945089e-92
3.8342476e-92
3.8550645e-92
3.5159621e-92
3.4756016e-92
2.8746126e-92
2.9203636e-92
3.4833254e-92
3.5757201e-92
3.4290356e-92
3.4639198e-92
2.877215e-92
2.8665144e-92
3.1905045e-92
3.4024649e-92
3.0606958e-92
3.5491104e-92
3.004092e-92
2.4606374e-92
2.5447865e-92
3.2037252e-92
3.8619362e-92
3.5019838e-92
3.7444795e-92
3.3771046e-92
3.3100243e-92
2.7021811e-92
3.4248062e-92
2.7741336e-92
5.0024284e-92
4.4775227e-92
4.6440502e-92
5.1438407e-92
5.3227829e-92
4.8164955e-92
4.9086153e-92
5.3956918e-92
3.7949379e-92
4.4738871e-92
3.6990643e-92
4.7207106e-92
3.9575819e-92
4.7899306e-92
3.9514009e-92
4.8572532e-92
3.8695309e-92
4.1712729e-92
3.7328188e-92
4.3353273e-92
3.7045414e-92
3.0337794e-92
3.1242623e-92
3.9046417e-92
4.2781347e-92
4.6077649e-92
4.1192336e-92
4.7674395e-92
4.0850239e-92
3.3521664e-92
4.2401976e-92
3.4342806e-92
4.0684786e-92
3.6891326e-92
3.789931e-92
4.2313975e-92
4.3559129e-92
3.9795427e-92
4.4466464e-92
3.9865788e-92
3.0013898e-92
3.0740285e-92
3.6630041e-92
3.7941147e-92
3.9324349e-92
3.9280934e-92
3.2155723e-92
3.2238782e-92
4.8973551e-92
5.3515532e-92
4.7075839e-92
5.595984e-92
4.7310179e-92
3.8352468e-92
3.9376349e-92
4.9723694e-92
6.1646744e-92
5.4416247e-92
5.9863761e-92
5.2554294e-92
5.252105e-92
4.2499144e-92
5.42541e-92
4.3671792e-92
8.5665398e-92
7.3065577e-92
7.5001398e-92
8.7629683e-92
9.2050218e-92
9.0589806e-92
7.7620118e-92
7.86215e-92
5.8348547e-92
7.2285806e-92
5.7539136e-92
7.4644478e-92
7.7472516e-92
6.1414733e-92
7.6501016e-92
6.0988289e-92
6.3913679e-92
7.1281814e-92
6.0447894e-92
7.5951226e-92
5.9927153e-92
4.7518205e-92
4.9105409e-92
6.3532157e-92
7.1722275e-92
8.0635891e-92
6.8426954e-92
8.4071836e-92
6.7492608e-92
5.3505888e-92
7.0106485e-92
5.4562148e-92
6.3681508e-92
5.622521e-92
5.7432755e-92
6.5811319e-92
6.7789191e-92
6.0193117e-92
6.8833073e-92
6.0818014e-92
4.6610174e-92
4.7441335e-92
5.7289977e-92
5.8723379e-92
6.135773e-92
6.0761917e-92
4.9609581e-92
4.9903596e-92
1.2561367e-91
1.2743957e-91
1.0255846e-91
1.0417151e-91
1.0423674e-91
7.829719e-92
7.9576946e-92
1.0202444e-91
1.277437e-91
1.2728774e-91
1.0839907e-91
1.0806541e-91
1.0736537e-91
1.084817e-91
8.2222844e-92
8.280385e-92
8.7487335e-92
1.047503e-91
8.4900639e-92
1.0679892e-91
8.4350001e-92
6.4448075e-92
6.6839628e-92
8.7590065e-92
1.0099549e-91
1.1722196e-91
9.7846968e-92
1.194848e-91
9.6133496e-92
7.3177533e-92
1.0196069e-91
7.5378146e-92
1.6724167e-91
1.6672607e-91
1.1518184e-91
1.1607623e-91
1.335913e-91
1.3555865e-91
1.8952516e-91
1.9736655e-91
1.0622321e-91
3.1424638e-92
3.5875958e-92
3.8398682e-92
3.3692497e-92
1.2393615e-91
1.9441968e-91
1.9832026e-91
1.3821074e-91
1.3882399e-91
1.450994e-91
1.4512071e-91
2.0256449e-91
2.0562357e-91
3.7110395e-92
4.0989166e-92
4.329399e-92
3.7880267e-92
1.2530797e-91
1.2699548e-91
3.2127676e-92
3.466077e-92
3.6705776e-92
3.3723631e-92
3.9498652e-92
3.9183414e-92
3.6242447e-92
3.7198957e-92
1.9231646e-91
1.956962e-91
1.3497706e-91
1.3595127e-91
1.3291547e-91
1.3325489e-91
1.8668144e-91
1.8991242e-91
3.5740132e-92
3.9564577e-92
4.0443628e-92
3.5232468e-92
1.1615058e-91
1.2345299e-91
1.8250612e-91
1.8402201e-91
1.2686403e-91
1.2820153e-91
1.3800399e-91
1.3953901e-91
1.9482579e-91
2.0104194e-91
3.4249118e-92
3.895301e-92
4.0120911e-92
3.5015732e-92
1.2374248e-91
1.137901e-91
1.159815e-91
1.1801508e-91
9.68826e-92
9.5006913e-92
9.5939778e-92
9.896809e-92
7.3755566e-92
7.5794242e-92
1.0310347e-91
1.2249979e-91
1.0074731e-91
1.2372326e-91
7.7287693e-92
1.0039649e-91
1.0380523e-91
7.8928324e-92
3.461412e-92
3.7215296e-92
3.7578992e-92
3.4679313e-92
3.7490109e-92
3.8518732e-92
3.5437196e-92
3.5387906e-92
1.0103492e-91
1.2289437e-91
9.9346306e-92
1.2428446e-91
7.6858428e-92
1.0062443e-91
1.0295238e-91
7.7881789e-92
9.7941223e-92
1.1794706e-91
9.7487636e-92
1.1748861e-91
7.5614056e-92
9.7776182e-92
9.8927748e-92
7.5779334e-92
7.1328329e-92
8.3000975e-92
7.0083967e-92
8.4942871e-92
7.0193269e-92
5.5638013e-92
5.6556487e-92
7.1636732e-92
8.2633162e-92
7.0080767e-92
8.1958181e-92
6.9796728e-92
6.8987587e-92
5.496084e-92
6.9161244e-92
5.4971425e-92
7.0580852e-92
8.0336297e-92
6.8610492e-92
8.3309804e-92
6.8864335e-92
7.1039188e-92
5.4728448e-92
5.5920891e-92
7.3428e-92
8.405983e-92
7.1381593e-92
8.6718773e-92
5.6431469e-92
7.081333e-92
7.2948191e-92
5.7458301e-92
5.4787906e-92
6.0783178e-92
5.3716772e-92
6.2426675e-92
4.4590072e-92
5.4765382e-92
5.6016377e-92
4.5303978e-92
6.4154156e-92
5.6377672e-92
6.2535982e-92
5.5179376e-92
4.5426707e-92
5.5537216e-92
5.6792744e-92
4.6103641e-92
5.4395512e-92
6.1161529e-92
5.3774225e-92
6.2429518e-92
4.447961e-92
5.4545262e-92
5.5570741e-92
4.4849542e-92
6.0600884e-92
5.3538267e-92
6.0355745e-92
5.3619074e-92
4.4378117e-92
5.3909878e-92
5.3746977e-92
4.4145377e-92
2.8667494e-92
3.068663e-92
2.9378005e-92
2.8576042e-92
2.9583983e-92
2.8840177e-92
2.7726658e-92
2.8697037e-92
2.8333084e-92
3.1673077e-92
3.2642858e-92
2.8725913e-92
3.0086374e-92
3.3250156e-92
3.3120761e-92
2.9217466e-92
2.7847815e-92
3.2260021e-92
3.3525141e-92
2.901908e-92
2.7533964e-92
2.7867309e-92
2.9220921e-92
2.8361198e-92
2.8691417e-92
3.0141947e-92
2.9209801e-92
2.9203664e-92
3.0749781e-92
3.339755e-92
3.4766416e-92
3.0870161e-92
5.4266718e-92
5.9572062e-92
5.2347765e-92
6.2061273e-92
5.2645201e-92
4.2631882e-92
4.3585634e-92
5.5111339e-92
6.6245272e-92
5.84753e-92
6.4823306e-92
5.6942581e-92
5.6710337e-92
4.5907723e-92
5.8112083e-92
4.6770068e-92
8.4450891e-92
7.1567339e-92
7.4217744e-92
8.6492334e-92
9.0204934e-92
8.8843943e-92
7.6156869e-92
7.7037291e-92
5.7817369e-92
7.1154084e-92
5.6801132e-92
7.3963025e-92
7.5929549e-92