/*--------------------------------*- C++ -*----------------------------------*\
  =========                 |
  \\      /  F ield         | OpenFOAM: The Open Source CFD Toolbox
   \\    /   O peration     | Website:  https://openfoam.org
    \\  /    A nd           | Version:  7
     \\/     M anipulation  |
\*---------------------------------------------------------------------------*/
FoamFile
{
    version     2.0;
    format      ascii;
    class       volScalarField;
    location    "2000";
    object      omega;
}
// * * * * * * * * * * * * * * * * * * * * * * * * * * * * * * * * * * * * * //

dimensions      [0 0 -1 0 0 0 0];

internalField   nonuniform List<scalar> 
34356
(
2400.2448
4622.6986
4277.0496
4277.577
957.62417
958.73581
542.73375
965.53527
963.72012
1343.577
9470.238
1336.4032
9425.6456
8064.0152
7837.6747
2038.3117
2061.2516
8023.9775
2041.5753
7943.902
2055.7461
868.08463
796.52746
795.45455
870.64784
505.79837
504.94475
504.54119
519.28837
519.59026
613.80095
684.98126
1669.9863
1494.7218
2199.1497
2224.2979
2212.8563
2236.0118
2076.9996
755.04086
757.2002
2101.633
4727.3062
18821.717
4676.0503
18792.497
761.64439
754.85243
2064.2426
2092.4234
4707.8422
4655.2378
18768.918
18753.082
4654.575
13597.385
13960.651
4724.5464
13513.376
4562.4106
13201.317
4558.6159
13899.217
13649.846
4666.6555
4656.8211
4562.4969
13167.005
13973.433
4729.9987
2047.3453
2021.404
1996.4348
2036.6423
1714.8988
1542.2614
1505.9223
1680.4584
692.27314
1694.9605
1519.6604
1514.1485
1683.0829
693.2191
2015.4084
2033.2021
2013.4962
1990.043
619.28802
618.05111
498.72129
498.25802
488.94497
489.68145
4952.0311
501.61929
551.05783
835.66059
954.19393
943.23984
824.82304
1102.4006
1117.508
1260.34
1249.583
4346.718
4194.8452
4168.6629
3536.3201
3523.7832
3189.5612
3177.8607
3213.7561
5051.5607
5044.5708
5157.1243
5227.2772
5167.2152
5164.7728
5078.94
5266.8037
648.52407
649.37637
2244.0206
774.654
776.88536
2276.2009
6919.5044
3674.3827
3675.9039
6875.3375
13249.028
32813.103
33141.405
13361.714
6817.5141
3622.2694
3625.687
6817.7857
13250.196
13216.876
33020.569
33224.736
781.57959
773.67488
2232.0945
2260.6965
3667.7186
3639.6286
6840.319
6898.5018
6839.1161
3614.0197
3598.2058
6754.9114
13344.354
13253.974
32742.809
33231.59
13292.743
33237.91
13140.418
32948.883
21536.286
22378.827
8463.1894
8320.9147
8546.6801
22624.039
22522.177
8628.0502
8256.0162
21680.274
22113.785
8324.9212
21520.883
20932.267
8128.2426
8145.6108
22732.496
22366.65
8504.2994
8548.5565
8402.7614
22307.628
21810.8
8397.3348
20702.045
21773.967
8078.5275
8276.7758
22558.385
22760.365
8570.1918
8697.3394
2249.9416
2089.2417
4831.9422
5520.9958
5330.5895
5005.5695
5392.4447
5389.0206
4910.443
4900.5286
4925.2085
5000.3017
5018.1075
4941.9623
4893.2899
5145.8514
4995.03
5054.5226
4405.7753
4350.1548
4247.8158
4526.5434
3680.7886
3610.7286
3300.9977
3335.0423
1301.3713
3270.5407
3244.8635
3568.8892
1274.3005
3596.2231
4240.3113
4212.5631
4392.3897
4420.0124
1127.8
1155.2389
4437.5894
4281.7825
4265.8117
4466.1706
3288.402
3290.6307
3626.2268
3615.86
1282.9889
3243.1805
3225.3119
3531.1212
1287.652
3548.2126
4167.6651
4318.7142
4153.567
4339.1195
1142.4463
1136.2752
4794.5066
5264.8625
5262.3857
4807.1851
4900.9227
5452.4507
5395.4471
4967.4016
4944.3011
5038.4059
5072.6949
4993.161
4914.7601
4903.0589
4818.5668
4835.961
502.67125
554.49274
502.59321
554.0709
852.42275
981.02661
963.95268
841.16626
840.60813
965.85558
975.48416
847.72963
10304.244
9635.9563
10133.251
9717.4218
10532.199
10076.651
547.36273
734.41379
731.36819
619.86068
617.96938
1417.8207
1245.4826
1207.5053
1375.5675
1840.9246
1648.3962
1592.6634
1789.8938
1807.1122
1604.6999
1599.4846
1802.9073
1204.7952
1378.7984
1377.8471
2078.8204
2087.4133
2266.4769
2253.3961
2118.8502
2063.488
2282.4802
2240.0421
2604.5641
2565.9344
2755.6333
2734.9415
2597.6814
2577.9183
2766.3026
2746.3015
9863.9911
9482.365
10281.867
9861.1826
9582.4944
9785.7104
9432.4765
9278.1868
9137.734
9696.7265
9528.1499
10190.862
8524.4141
8673.2433
8684.2926
8861.8267
8279.8776
8414.9929
8650.1631
8789.0408
7107.1642
7395.9542
6000.1004
6201.0991
7288.0107
7436.3842
6253.2295
6126.5391
7490.1723
7605.2473
6322.7694
6389.1244
8739.4438
9021.834
9099.8561
8913.6515
8889.7647
9089.0416
9275.5128
9320.5249
9429.862
9345.3295
9298.7368
9189.0256
9188.1798
8830.5932
9082.5601
9353.7874
9536.7279
633.62794
635.35022
2322.107
4128.3811
4126.0389
764.07191
767.11813
2359.6029
4200.0943
4181.0357
7596.8241
7545.1714
12657.667
12552.727
18363.429
18603.667
28952.275
48236.747
29488.009
48869.546
29494.176
48778.216
29660.869
49330.981
12752.758
12658.418
18494.274
18694.934
7478.3798
7477.6646
12611.063
12516.61
18337.561
18554.136
12524.494
12585.196
18529.84
18374.397
29401.604
29639.123
49127.493
48509.156
49508.832
49289.84
29614.728
28998.631
770.85887
763.55297
2311.9593
4088.4592
4128.8
2340.9599
4145.503
4180.3697
7504.5381
7566.921
7512.1493
7409.801
13323.418
18442.097
12709.507
12623.87
18648.2
12554.162
12633.634
18568.803
18387.256
29289.87
47727.707
29735.789
48859.701
29742.586
49429.438
49348.287
29120.089
12590.261
12663.096
18433.615
18611.812
29538.887
49010.818
29688.757
49589.7
12431.165
12511.223
18451.817
18264.022
29506.403
28852.575
49362.103
48858.455
38349.007
37137.923
11821.292
11919.109
39411.003
39822.844
12162.012
12179.365
39680.124
12251.404
40300.132
12340.256
12342.088
40314.538
39129.144
12282.102
38573.363
37875.164
11826.989
11864.98
38895.331
39543.194
11982.275
11989.971
37939.019
38285.176
11674.193
11702.043
37471.097
36179.248
11543.506
11537.725
40028.481
40601.033
12340.065
12333.148
39575.577
39102.161
12232.372
12236.201
39374.015
39662.667
12110.516
12126.773
37727.539
39031.98
11968.669
11918.508
36540.219
35607.282
11465.412
11526.512
11869.097
38410.446
38521.8
11946.644
40232.432
39329.598
12263.727
12361.478
39790.929
40628.132
12485.742
12459.581
477.59378
4271.2471
4229.1784
4407.2649
4457.4247
3842.5947
3734.2802
3980.3456
3294.4134
1292.2986
3596.9401
4222.9628
1148.423
555.90015
502.75519
503.37459
980.29753
850.7355
9456.2289
8529.5093
9775.7987
8774.8498
10548.541
10826.251
9726.155
9970.9846
9902.4673
9150.9258
10289.866
9467.7061
10050.006
9033.0064
10291.446
9228.9062
10333.47
10353.399
9531.5642
9568.7258
10440.35
9633.4722
10525.896
9707.0318
9859.8737
9882.0207
8868.8084
8896.2109
8970.6792
9973.3661
10038.576
9022.2649
10673.392
9975.171
10780.606
10066.099
10501.499
10633.209
10058.102
10172.025
10460.556
10473.075
9993.0476
10030.163
10587.445
10603.813
9879.0315
9914.4989
10166.283
9489.6041
10597.097
9860.9338
10681.629
10969.324
10211.038
10494.253
10064.74
9619.8307
10509.789
10020.131
10815.724
11108.729
10092.426
10366.611
9870.6375
9450.5288
10315.966
9857.5229
9898.2388
10133.167
9705.5088
9959.1821
9347.6035
9171.381
9772.611
9569.9738
10452.401
10724.41
10008.257
10283.463
8862.0156
8985.8986
9042.105
9195.0825
8370.1296
8488.8195
8748.6212
8859.9387
7183.1568
7483.3619
6087.0177
2875.3741
6324.0144
7595.5119
7753.2812
2880.7415
6562.38
6413.4322
2740.0697
2711.5427
7449.32
7433.4241
2838.0794
6287.1689
6282.3219
7387.7376
7512.9809
2814.1649
6346.3495
6258.2292
8612.374
8746.1615
8772.4226
8906.1031
2657.9907
2680.0505
8700.0441
8820.8641
8665.0318
8813.1405
9719.9735
9516.0416
9700.483
9526.8218
9645.573
9478.7542
9819.5618
9635.9123
10229.536
9821.7873
10388.278
9958.7751
10247.928
9802.4365
10246.343
9831.9032
2148.8848
2132.4485
2319.5592
2337.7568
2403.5417
2226.0723
2166.1848
2361.6278
10115.192
9697.5616
10497.514
10036.945
9747.9756
9979.7479
9574.2228
9816.562
9561.3833
9390.4565
9948.5304
9750.5174
10321.836
10562.88
9894.3893
10136.259
7469.9202
7666.4512
2845.7572
6511.011
6319.8175
7355.7644
7628.3784
2854.536
6448.248
6238.0686
8704.7382
8840.5491
8913.2135
9065.1582
8557.3461
8683.6007
8899.8426
9027.7324
2699.9228
2676.665
7208.6106
7268.0074
2830.9526
6151.6253
6084.374
7248.251
7406.6809
2807.2948
6277.9681
6152.8541
8435.9199
8551.1629
8630.3793
8752.4567
2659.2772
2690.0709
8416.1921
8528.9829
8461.395
8594.668
9402.0011
9208.1965
9453.8766
9284.1706
9962.8983
9550.1899
10176.415
9746.6419
9418.3177
9240.0152
9637.2079
9448.4483
9924.7095
9498.9438
9983.63
9581.5315
2144.4477
2190.6399
2327.1014
2363.2715
2355.8014
2163.1159
2139.8157
2333.3226
9654.2914
8703.579
9765.7151
8792.058
9993.0405
10042.718
9218.9363
9283.7
10102.984
9326.2411
10243.809
9450.4015
9533.4061
8587.772
9581.5007
8639.0554
9742.0407
8778.7961
9982.1371
8964.2642
10472.251
9662.7629
10667.272
9840.5147
10211.685
9426.6703
10501.392
9668.9561
9992.9166
10154.678
8995.9585
9131.6134
10472.686
10794.736
9779.404
10060.863
10342.461
9896.3913
10692.976
10205.82
10565.588
10799.117
10107.479
10336.726
10714.558
10932.678
10009.858
10218.344
10135.669
10194.086
9678.984
9754.8254
10197.949
10388.583
9752.4052
9926.0977
10337.191
9656.4476
10504.057
9805.397
10247.941
10299.453
9559.4102
9628.3174
552.48661
626.09771
746.52086
743.33071
623.84766
554.49984
741.35919
745.48714
620.58986
622.73125
1475.0233
1293.6065
1249.9678
1424.3691
1926.4996
1717.0274
1654.2776
1868.1815
1842.5144
1633.3608
1642.0713
1855.949
1230.9542
1234.8273
1404.8972
1412.7773
1225.1199
1243.8816
1420.8862
1399.5545
1653.561
1629.5213
1868.148
1845.2807
1649.472
1694.9094
1858.0557
1903.6014
1269.3805
1243.4814
1420.1682
1458.9711
15139.764
15330.505
14693.099
14495.232
14848.966
13904.584
14071.698
15061.32
15492.511
15328.625
14783.241
14951.41
15515.492
15341.033
14657.585
14836.063
15636.358
16032.809
15429.901
16225.403
15265.395
16013.297
16208.582
15468.429
697.94331
695.43611
1099.2233
1077.2406
860.1235
849.37519
1071.3417
840.60915
2514.9846
2280.4207
2221.7604
2465.2175
1963.1811
1707.8844
1668.4026
1913.9721
1582.0777
1588.7769
1822.6579
1812.1252
2358.4463
2116.2512
2100.6661
2339.2583
3535.3324
3400.8356
3385.5137
3550.2058
3041.7385
2852.6988
2798.8467
3007.3602
2655.3129
2674.5313
2889.6735
2870.6603
3427.8032
3250.439
3236.6892
3424.2223
3550.2757
3374.2677
3379.9197
3562.9973
2977.5493
2747.0331
2750.7603
2988.5953
2697.0887
2697.9565
2922.9694
2901.3792
3474.6729
3304.9233
3268.6198
3436.7087
1843.4877
1599.3427
1593.9761
1838.3205
2144.8423
2153.554
2413.8619
2405.5687
2365.93
2131.5662
3229.3442
3376.9483
3809.5435
3859.641
3988.4461
3940.425
3971.0943
3948.7557
4068.8053
4100.3816
4557.6452
4487.5081
4534.3027
4609.3232
4475.3304
4402.101
4344.0106
4432.1265
3995.6203
3909.6994
3945.473
4063.2636
3811.803
3811.4405
3949.8034
3959.9318
4485.2488
4383.04
4422.8109
4543.4304
4433.6175
4358.4406
4378.2754
4472.9784
4845.2874
4821.3934
4970.7503
4999.8208
4907.5505
4857.045
4906.7518
4975.6869
5461.8612
5283.3683
5341.3356
5515.2873
5436.0535
5364.9016
5452.3611
5545.6643
5047.2878
4996.1386
5052.0812
5105.4918
4850.5556
4905.1891
4962.9943
4922.7312
5594.1629
5530.936
5608.6401
5673.0198
5515.0579
5434.2885
5382.274
5480.6528
15151.491
15557.687
14958.525
15769.85
15513.909
14792.904
14960.966
15693.87
16549.802
15886.431
16360.94
15685.496
16266.033
15466.776
16453.722
15669.92
17093.804
16132.832
16302.166
17247.062
17466.55
17224.808
16303.629
16565.414
15933.03
16690.454
15787.188
16841.869
15596.387
16194.99
15323.959
16489.945
15854.664
15033.588
15261.844
16112.669
16432.697
17195.112
16200.178
17406.488
16746.014
15812.941
16948.864
16024.044
16338.943
15688.852
15811.641
16461.293
19205.288
19293.372
17505.919
17645.844
18111.841
16592.362
16752.854
17968.743
19232.894
19367.691
17796.448
17571.427
18048.111
18264.311
16702.271
16965.004
16869.636
18207.167
16601.658
18430.257
17015.121
15728.577
16021.46
17308.216
17926.405
19510.546
17717.025
19637.36
18155.094
16707.747
18350.555
16940.344
19658.758
19758.658
17889.765
18085.541
19177.903
19318.764
21150.976
21161.284
18965.789
20338.602
20704.011
20721.379
18849.124
18939.596
18871.367
19019.833
20686.744
20699.407
19845.709
19869.039
20943.904
21001.69
19119.676
19265.134
19733.925
19889.733
21680.91
21692.175
20138.999
20804.87
18016.177
19475.037
17811.893
19631.256
12482.977
12527.125
12669.825
12631.778
12193.554
12135.359
12351.051
12327.321
12468.772
12585.47
12858.344
12832.537
12927.298
13031.795
13048.364
12924.776
13046.509
12987.762
12923.486
12913.203
12633.621
12527.085
12796.801
12784.319
12153.601
12070.025
12584.822
12538.149
12937.193
13051.477
13112.096
13201.72
633.11378
613.49665
783.61422
786.27521
615.27427
781.30414
789.69425
4113.3082
4109.9295
2305.6169
4776.2939
4765.8832
4172.2065
4188.2621
2343.7007
4868.4255
4839.7615
6377.1132
6363.8427
10487.955
10575.65
15844.198
16013.628
6333.5059
6334.0967
10516.44
10377.466
15943.436
15675.129
18794.493
18795.115
22954.971
23063.789
23288.281
19074.183
19145.302
23441.938
41421.373
27096.315
26909.52
40764.589
53914.717
66399.955
65600.723
53197.178
27306.907
27453.646
41814.944
41668.031
66383.915
66589.484
54561.556
54302.117
27279.819
27023.466
41435.915
41926.079
53959.81
65897.14
66503.062
54460.635
27349.872
27444.216
42333.49
41863.335
66609.293
67063.388
55015.625
54921.988
19015.188
18904.237
23041.92
23278.11
23415.916
19156.905
19190.008
23384.39
6267.2799
6253.4724
10432.911
10332.069
15674.891
15863.856
6276.637
6238.3557
10385.529
10331.772
15850.08
15666.806
22865.236
18736.626
23100.549
18842.244
19018.022
19047.234
23280.974
23248.1
23202.756
18988.71
23350.353
19057.461
18800.539
18808.724
23071.319
22978.647
41259.946
26835.939
27096.35
41812.793
27204.522
27297.767
41529.988
42208.121
66634.717
54926.991
54914.886
65851.435
53379.639
65610.03
66169.687
54137.728
66523.977
66482.129
55176.097
54846.002
55182.599
66199.756
65834.272
54781.071
27352.243
27216.889
41663.178
41659.653
26921.324
27085.33
40834.209
41136.008
762.39333
769.07138
2347.4239
4074.77
4114.6297
2297.3997
4783.0325
4720.6957
4130.3878
4163.9896
2325.9727
4844.9272
4784.094
7571.7201
6289.9792
6272.2117
10438.741
15909.747
10353.331
15703.757
6339.885
6345.5742
10460.984
10532.555
15799.382
15979.279
6271.9926
6296.8039
10424.358
10450.034
15779.957
15920.724
6200.8192
6194.3902
10331.948
10216.13
15779.477
15551.184
12607.396
12698.613
18639.508
18421.579
29025.763
48407.365
18855.277
18963.588
23205.003
22964.218
19132.696
19152.961
23327.389
23370.718
19050.463
19101.641
23357.284
23237.181
23068.506
18837.715
18834.979
22971.329
26879.06
27165.234
41142.66
41946.795
52523.018
64814.454
65603.041
53055.436
27337.13
42589.872
27252.363
42122.912
65953.379
66323.138
54231.948
54642.895
27193.28
27309.54
42054.042
42077.878
54805.065
66000.55
66114.427
55247.301
55314.174
65906.43
65477.482
55069.491
27030.2
26865.081
40899.66
41369.515
18952.397
18851.163
22976.254
23203.016
19110.718
19087.099
23346.482
23301.381
27172.484
26910.407
41221.266
41847.787
54464.844
65290.913
66044.528
54820.989
27229.889
27336.707
42385.241
41906.797
66121.056
66657.801
55424.387
55387.21
23135.503
18927.933
18979.451
23256.233
22959.778
18694.978
18690.872
22847.568
27227.069
27127.66
41902.916
41761.768
26761.425
26956.638
41221.295
40594.748
66169.109
66248.961
54877.004
55123.513
65238.3
65954.939
54864.781
54233.92
473.86983
40488.61
39322.907
41612.259
42026.771
41858.848
42558.493
42601.15
41309.409
40725.578
39983.42
41023.049
41728.144
40025.895
40387.013
39631.555
38172.865
42174.09
42812.394
41802.598
41262.188
41541.111
41888.597
39856.597
41246.504
38574.307
37571.165
40549.572
40636.643
42435.449
41503.558
42004.436
42946.833
478.1746
13909.734
13097.136
13685.62
14607.436
12267.227
11383.606
12741.21
7328.0511
7370.1663
2872.8053
6247.0763
6188.8724
2799.9436
2654.9232
2731.1288
8544.9972
8654.2656
8579.9063
8701.7508
9525.6663
9563.059
9369.8872
2208.7949
2144.3135
2324.8141
2389.8128
623.09693
741.62818
625.52845
746.22543
554.55949
1227.0007
1856.4143
1648.9864
1698.3257
1910.8933
1267.8327
1238.591
1419.6332
1459.2584
12084.937
12701.089
12055.295
12739.643
12248.645
11581.202
11625.613
12276.298
13287.921
12573.772
13142.442
12451.072
12639.808
11974.058
12748.711
12044.09
14858.239
14085.302
14203.772
14990.794
15314.767
15278.414
14469.764
14531.335
13492.552
14311.027
13401.111
14426.322
14753.695
13801.12
14697.037
13734.43
13138.863
13718.636
13059.857
13806.139
13303.497
12508.415
12559.49
13372.451
13800.4
14348.799
13619.096
14543.771
13844.894
12969.222
14021.221
13124.564
13578.505
12858.709
12925.216
13662.211
12359.006
13052.072
13121.059
12441.398
13905.849
13959.867
13146.741
13198.941
12605.457
13355.313
12592.891
13327.989
14655.512
13900.633
13923.548
14667.018
14521.198
14518.83
13799.806
13831.532
13249.999
14147.279
13242.138
14158.106
14070.084
13193.72
14049.343
13156.542
14031.767
14783.025
14016.835
14788.982
14263.45
13364.181
13361.668
14265.314
14212.805
14918.214
14137.163
14975.283
14378.391
13450.109
14443.532
13519.138
13434.068
12712.518
12705.33
13425.299
13340.63
12626.208
13362.854
12655.181
12217.383
12219.702
12915.87
12900.397
12819.314
12809.739
12107.209
12085.615
13050.329
12342.305
12344.927
13024.689
12824.948
13561.22
12842.583
13542.045
13689.127
13635.362
12900.762
12952.659
13134.157
13105.814
12431.46
12426.013
15186.365
15833.801
15158.296
15854.397
15548.215
14549.086
14565.35
15571.736
15365.191
15968.605
15288.658
16059.527
15694.864
14671.567
15736.693
14744.375
16041.8
15459.269
15496.834
16066.817
16205.377
15596.474
15742.739
16337.076
16047.52
15314.757
15345.686
16070.264
16186.445
15435.934
15560.148
16307.96
15985.768
15367.149
15385.349
15976.937
15746.555
15762.538
15176.347
15188.558
15937.054
15183.666
15203.94
15941.094
15709.813
15734.417
15007.284
15007.97
15687.264
14997.803
15020.88
15693.744
15452.854
15493.63
14823.194
14801.867
14397.44
14423.243
15378.458
15397.522
15135.854
15188.097
14244.158
14257.339
14162.294
14678.839
14045.731
14795.388
14362.894
13496.468
13585.576
14487.364
15647.047
14951.879
15430.006
14749.228
15092.248
14128.699
15287.595
14316.783
16233.451
15616.214
15734.699
16344.184
16681.665
16066.346
16144.912
16740.364
15560.407
16188.326
15430.929
16308.012
15951.225
16670.092
15893.593
16714.615
14538.075
14994.7
14431.319
15100.809
14935.704
14246.61
14354.763
15041.172
15406.101
15796.389
15178.338
16024.067
15714.613
14959.16
15939.107
15177.904
15933.274
15239.467
15394.907
16075.903
16424.022
15708.928
16449.348
15743.933
14624.412
14764.335
15616.521
15789.566
16106.039
16105.64
15042.712
15095.566
14896.769
15413.48
14766.787
15556.384
15267.492
14513.57
14624.873
15385.978
16489.582
15785.343
16267.888
15562.666
16103.1
15276.217
16325.113
15501.509
17556.149
16525.269
16688.912
17714.026
17991.683
17883.493
16877.059
17008.999
16228.246
17054.242
16090.366
17203.984
17533.032
16588.298
17437.366
16473.256
15539.203
16296.47
15347.917
16503.647
15832.321
14942.747
15099.83
16010.698
16453.721
17239.872
16204.766
17479.237
16726.919
15752.529
16958.266
15982.079
16612.022
15919.963
16040.803
16734.365
17021.035
16326.757
17102.405
16423.721
15679.993
15795.883
16489.973
16603.491
16987.636
16922.132
16099.609
16187.579
19930.464
20026.588
18119.77
18258.674
18709.177
17083.946
17243.134
18559.595
20061.779
20109.47
18447.151
18323.863
18810.323
18906.735
17370.628
17511.128
17011.467
18516.168
16820.757
18667.565
17229.426
15856.257
16064.414
17437.537
18056.749
19670.054
17824.077
19834.515
18259.908
16763.021
18489.678
17012.745
20100.103
20169.407
18193.415
18326.388
19343.728
19506.472
21431.673
21473.309
19403.556
5469.3434
5481.9779
5672.135
5663.237
20665.67
21595.055
21620.047
19594.852
19684.833
19676.89
19757.177
21554.215
21527.906
5734.1857
5710.587
5784.9721
5846.0757
20651.044
20781.026
5059.0677
5076.39
5216.8628
5209.7464
5201.5816
5201.7631
5236.1273
5279.3235
21533.294
21527.011
19522.297
19580.47
18932.712
19022.156
20805.339
20785.655
5630.1732
5618.1911
5597.7534
5632.9899
19947.979
20694.291
20787.677
20828.002
18910.171
19013.933
19522.493
19683.4
21544.658
21574.96
5598.1322
5583.5982
5654.6204
5677.0628
20725.133
19996.813
19250.652
19358.402
17691.14
17548.152
17997.562
18147.146
16614.571
16770.684
18258.264
19853.87
18028.207
20006.217
17003.689
18478.819
18700.901
17248.208
5121.3488
5095.1821
5137.8725
5175.1937
5081.1859
5127.6572
5155.833
5134.2869
18120.268
19862.132
18030.428
19902.1
16980.679
18476.108
18555.111
17073.033
17681.763
19280.685
17553.134
19331.644
16595.194
18004.854
18098.841
16721.22
16463.361
17442.916
16385.237
17512.763
16901.713
15907.765
15959.926
16952.589
17142.57
16165.859
17057.372
16057.454
16568.831
15624.022
16633.318
15707.959
16284.397
17100.794
16146.329
17246.054
16693.919
16809.467
15784.887
15884.52
16686.207
17485.689
16454.23
17706.995
16028.607
16996.367
17199.046
16228.307
15734.173
16321.84
15666.478
16394.775
15472.685
16246.414
16292.917
15520.591
16732.308
16036.368
16560.961
15862.458
15635.744
16442.238
16592.13
15791.584
15724.017
16412.423
15695.86
16434.54
15438.462
16254.46
16257.167
15452.998
16164.86
15502.124
16123.832
15446.4
15222.465
15996.584
16009.195
15251.603
3995.4172
4067.9577
4199.009
4137.8009
4048.8163
4053.6546
4173.1151
4181.0779
4661.801
4603.4579
4631.5346
4695.0569
4695.3192
4636.8693
4571.0448
4650.0916
4678.4853
4668.9439
4756.8325
4784.1519
4255.5075
4164.5506
4185.6183
4305.8491
4026.4373
4106.0645
4247.326
4189.3653
4756.6346
4688.0537
4635.3553
4739.1732
15452.445
15945.604
15301.253
16116.211
15844.416
15080.603
15204.269
15978.926
16848.115
16136.761
16694.945
15972.835
16530.818
15686.016
16677.183
15846.635
17359.082
16360.841
16535.959
17522.555
17717.803
17639.273
16653.619
16761.617
16099.778
16900.924
15954.274
17054.581
17264.664
16340.032
17210.41
16260.164
16053.428
16755.419
15812.703
17021.334
16326.943
15439.035
15629.775
16548.637
16843.053
17696.021
16640.703
17876.404
17170.578
16172.431
17340.571
16350.973
16482.667
15799.723
15920.233
16603.44
16800.46
16111.307
16828.695
16160.315
15573.541
15683.816
16375.36
16479.533
16695.281
16696.777
15881.717
15911.397
21148.626
21173.508
19235.801
19343.595
19394.843
19487.188
21237.549
21207.776
5655.5429
5625.5413
5765.1418
5819.2881
20356.494
20328.333
20536.617
20623.638
18644.533
18819.06
19757.166
19881.327
21787.608
21786.872
5587.353
5577.9615
5744.6873
5763.1587
20950.557
19828.19
19578.213
19682.525
17830.81
17987.343
18444.231
16867.486
17043.975
18285.686
19763.12
19808.865
18176.091
18050.432
18531.262
18611.623
17128.363
17257.309
17494.454
18953.431
17254.444
19148.868
17666.754
16298.747
16565.657
17930.359
18444.686
20103.88
18259.498
20205.138
18713.333
17210.153
18880.825
17415.957
5123.2203
5104.532
5223.2978
5256.7296
5193.8623
5107.9237
5155.7601
5269.0406
20847.343
20860.53
18840.863
18943.916
18472.316
18541.489
20366.316
20321.975
5468.7323
5473.2249
5499.0573
5520.2197
19562.425
20071.834
20361.058
20421.091
18494.27
18649.13
19148.888
19294.509
21133.313
21139.232
5517.5773
5507.5527
5623.4068
5634.0417
20319.127
19603.89
18812.943
18975.217
17330.453
17118.86
17540.673
17760.467
16167.698
16399.995
17894.16
19484.381
17684.863
19605.999
16670.569
18130.971
18314.607
16888.119
5050.6894
5016.6722
5125.2173
5156.837
5028.3068
5036.8221
5041.0898
5058.3041
17515.63
19171.879
17368.662
19259.997
16341.208
17803.155
17940.245
16498.74
17206.512
18817.965
17100.06
18839.675
16151.686
17545.407
17607.644
16258.697
15918.702
16793.982
15767.486
16931.651
16276.946
15318.848
15448.617
16403.676
16671.3
15725.316
16608.397
15627.276
16134.812
15209.734
16186.443
15292.509
15297.503
15805.685
15155.85
15957.194
14938.529
15704.161
15819.912
15051.735
16330.982
15648.017
16193.463
15490.068
15234.321
16042.427
16171.063
15382.977
15894.586
16625.545
15677.204
16848.698
16195.971
16392.786
15296.141
15476.513
16318.298
17141.151
16114.967
17322.248
15675.856
16640.952
16804.74
15852.186
15231.745
15815.981
15124.789
15917.826
14879.947
15668.18
15751.071
14970.634
15739.801
15094.213
15700.851
15031.701
14794.395
15562.656
15581.633
14841.508
4102.8216
3975.3304
4063.9389
4196.76
4048.641
4102.6633
4204.7851
4164.0087
4637.2335
4533.3973
4596.6732
4694.3778
4637.5155
4611.7909
4571.6595
4622.2767
4675.9034
4621.8862
4689.7476
4763.9221
4176.605
4030.3238
4075.0759
4229.1309
4038.1631
4024.5097
4170.2626
4197.5288
4673.1487
4603.0687
4643.2491
4740.0808
12439.354
13112.161
12429.492
13129.202
12647.277
11970.341
11990.097
12645.239
13324.884
12615.551
13259.548
12552.902
12761.878
12104.618
12800.116
12118.238
14096.84
13388.136
13447.49
14155.605
14049.573
14007.739
13324.208
13390.424
12813.186
13638.608
12780.779
13680.455
13624.214
12784.752
13568.474
12717.01
13581.365
14224.428
13509.404
14300.615
13761.085
12910.043
12949.987
13815.821
13813.915
14463.417
13721.646
14538.314
13964.401
13073.954
14043.543
13158.035
12976.623
12286.385
12297.375
12989.462
11814.962
12493.101
12491.71
11833.94
12900.264
12954.287
12216.647
12274.362
11719.994
12442.245
11735.402
12400.015
13116.982
13175.479
12440.23
12490.481
11962.574
12693.542
12036.381
12642.56
13476.821
12757.264
12842.196
13579.294
12304.513
12958.419
12281.591
13019.189
14826.286
14051.388
14929.842
14149.715
14379.669
14286.034
13376.476
13456.894
15047.495
14297.269
15084.689
14290.281
13578.803
14523.332
14519.937
13601.81
14269.236
14358.293
13542.004
13630.211
13855.584
12997.771
13771.439
12929.027
14769.651
13992.452
14126.134
14895.796
13422.312
14215.819
13303.487
14344.239
13562.196
12841.613
12899.623
13632.719
13759.892
13754.817
13004.995
13022.297
12431.804
13048.741
12364.619
13103.86
13183.501
12450.842
13195.045
12488.549
15331.048
14666.216
14783.877
15455.217
16034.897
15890.064
15191.706
15335.458
14153.567
15008.854
14064.456
15130.137
15687.69
14682.727
15562.961
14548.889
15149.662
15601.572
15028.424
15719.199
15572.909
14862.126
14985.147
15696.765
15749.517
16221.916
15591.362
16368.867
16157.275
15390.157
16304.103
15549.587
16126.03
15517.663
15631.603
16225.829
16444.819
15830.311
15843.62
16429.805
15477.218
16100.531
15354.102
16211.572
15666.469
16424.226
15662.282
16394.985
15866.548
15178.021
15312.364
15990.249
16184.106
15479.748
16143.075
15458.85
14702.154
15569.352
14582.318
15709.662
15805.835
15876.167
14841.94
14835.889
15400.496
14801.538
14889.7
15472.199
15309.043
15301.196
14719.115
14753.175
15347.396
14616.138
14708.391
15425.236
15245.121
15248.22
14530.432
14558.482
15467.692
14894.494
14999.203
15564.198
15769.177
15165.188
15302.678
15890.96
15450.644
14735.51
14843.319
15548.196
15730.798
14989.373
15118.86
15842.225
14670.315
15219.064
14557.428
15323.298
14919
13984.074
14074.363
15033.686
14912.862
15487.536
14811.317
15587.855
15190.276
14215.241
15261.116
14316.68
15088.449
14414.817
14506.868
15170.96
14977.967
14985.297
14324.424
14342.271
13843.974
13922.346
14771.433
14858.411
14654.541
14661.555
13750.81
13806.593
544.36871
708.63197
702.57308
1138.2778
1114.4588
883.08295
873.55658
1097.2994
1098.1747
860.04346
860.40079
546.69864
698.96049
709.91448
1102.7382
1092.4944
863.7075
859.01011
1105.5937
1120.6304
865.02604
871.5095
2667.4414
2424.1877
2356.0747
2608.551
2099.2049
1832.9449
1788.5632
2044.5129
1663.9905
1685.4996
1933.0234
1904.6123
2503.0381
2241.3274
2206.4201
2459.441
3764.8402
3620.2775
3589.1595
3761.638
3232.094
3025.2248
2961.0944
3183.5314
2796.2209
2849.0944
3089.0199
3026.8257
3683.214
3487.1961
3416.7289
3614.1358
3647.8224
3472.1047
3433.7804
3623.2612
3062.1988
2821.8236
2782.8582
3026.9312
2813.4886
2814.8466
3062.026
3034.005
3656.1003
3471.2388
3418.5198
3595.7619
1887.9408
1639.0412
1627.0819
1867.6018
1647.1234
1642.3852
1892.1129
1905.1849
2172.217
2204.0837
2475.0621
2433.2278
2467.8215
2203.3751
2219.2051
2475.0888
1617.2849
1614.789
1857.1459
1864.2414
1654.0475
1675.4386
1932.2802
1897.9079
2205.3144
2243.4119
2497.7053
2461.7192
2425.5911
2161.8297
2172.0028
2432.745
3054.6998
2832.8635
2812.2811
3050.3598
2781.5781
2772.1702
3016.3707
3023.9195
3455.5137
3439.3148
3623.6059
3650.2169
3612.0831
3412.499
3423.9055
3625.4818
3019.9264
2792.5187
2835.9956
3070.4712
2952.0023
2923.7416
3157.3249
3153.311
3474.6988
3416.1486
3586.0927
3652.8231
3715.3527
3556.4354
3522.8115
3673.293
1736.6734
1717.8159
1981.9972
2022.2458
1647.172
1650.2671
1899.5555
1898.9824
2458.5398
2206.5542
2216.7678
2480.1812
2575.3104
2312.4121
2359.702
2613.9679
37845.1
38836.892
39401.739
38373.292
38798.119
39034.156
40126.571
39855.114
35967.304
35116.96
35793.653
36672.65
37384.577
36472.664
37169.227
38117.128
38492.207
37767.143
38461.358
37746.067
39873.054
39158.716
39229.099
39981.469
686.7776
713.83076
999.82707
969.19633
968.72391
1215.7707
1229.349
1509.4901
1490.0127
1426.3687
1169.1869
1165.0928
1415.4496
1169.1619
1173.5818
1429.8041
1425.4078
6561.0725
5451.0219
5259.9966
6429.3365
4311.7471
2772.9398
2597.9041
4103.773
2385.1623
2407.5763
3861.3444
3844.5562
6065.9235
4958.9374
4930.0966
6015.8232
10892.745
9867.3264
9974.64
11090.268
8785.9896
7660.3172
7603.0078
8800.2408
7121.2703
7185.2963
8332.7866
8256.8827
10561.388
9458.8634
9374.4671
10462.742
10935.487
9811.2284
9814.7466
10975.718
8636.0428
7432.1313
7371.8684
8600.5883
7335.8839
7367.7661
8561.8192
8458.1219
10814.102
9707.7132
9536.7063
10566.974
4001.5052
2494.257
2475.6798
3940.7938
5049.2246
5138.8044
6273.2014
6185.4799
6209.0425
5084.0934
9424.7497
10442.749
11528.565
11835.771
12818.113
12448.876
12055.121
11962.89
12943.348
13092.412
14812.995
13880.781
14092.968
15091.255
14723.616
13770.048
13335.59
14222.382
12691.425
11818.79
12133.688
13135.854
11495.655
11590.732
12581.686
12489.585
14096.369
13504.734
14309.691
15046.545
14485.114
13536.029
13445.456
14393.787
15912.309
15103.38
15978.11
16920.843
15332.39
15414.515
16362.869
16293.319
17865.801
16733.488
17615.067
18857.177
18346.451
17324.988
17267.548
18301.756
16668.752
15729.511
16079.78
17091.62
15107.169
15669.612
16642.468
18117.848
17617.47
18624.799
19202.126
18699.999
17636.793
33840.487
32351.099
33043.236
33149.088
33754.489
34421.716
35242.028
34561.659
34753.472
35479.63
34920.384
35626.558
36356.141
37043.714
36242.862
36970.13
31551.736
32295.681
32535.736
31793.955
31750.603