/*--------------------------------*- C++ -*----------------------------------*\
  =========                 |
  \\      /  F ield         | OpenFOAM: The Open Source CFD Toolbox
   \\    /   O peration     | Website:  https://openfoam.org
    \\  /    A nd           | Version:  7
     \\/     M anipulation  |
\*---------------------------------------------------------------------------*/
FoamFile
{
    version     2.0;
    format      ascii;
    class       volScalarField;
    location    "2000";
    object      p;
}
// * * * * * * * * * * * * * * * * * * * * * * * * * * * * * * * * * * * * * //

dimensions      [0 2 -2 0 0 0 0];

internalField   nonuniform List<scalar> 
34356
(
-1.458161e+183
-1.4700564e+183
-1.4246576e+183
-1.4176201e+183
-1.3956838e+183
-1.4024817e+183
-1.271904e+183
-1.3560172e+183
-1.3501214e+183
-1.4335195e+183
-1.4343478e+183
-1.426806e+183
-1.4274502e+183
-1.4042454e+183
-1.407494e+183
-1.3905657e+183
-1.3874047e+183
-1.4012644e+183
-1.3843263e+183
-1.3981973e+183
-1.3812436e+183
-1.3044246e+183
-1.258215e+183
-1.2627152e+183
-1.3095253e+183
-1.185214e+183
-1.2502825e+183
-1.2461036e+183
-1.2879243e+183
-1.2927259e+183
-1.1754409e+183
-1.2227121e+183
-1.2876699e+183
-1.2653146e+183
-1.3617939e+183
-1.3584783e+183
-1.3556338e+183
-1.3528041e+183
-1.4090966e+183
-1.4026897e+183
-1.4056659e+183
-1.4121851e+183
-1.4161541e+183
-1.4150067e+183
-1.4130067e+183
-1.4118207e+183
-1.397046e+183
-1.3999591e+183
-1.4064354e+183
-1.4034227e+183
-1.4072629e+183
-1.410271e+183
-1.4058573e+183
-1.4089075e+183
-1.3804704e+183
-1.3924862e+183
-1.3942053e+183
-1.3822157e+183
-1.3957339e+183
-1.3838396e+183
-1.397165e+183
-1.3852302e+183
-1.3896743e+183
-1.3911543e+183
-1.3775479e+183
-1.3790895e+183
-1.3749254e+183
-1.3870416e+183
-1.3883287e+183
-1.3761583e+183
-1.3259363e+183
-1.3286139e+183
-1.3019072e+183
-1.2992422e+183
-1.2775778e+183
-1.2563616e+183
-1.2586131e+183
-1.2800956e+183
-1.2150196e+183
-1.2825786e+183
-1.2609597e+183
-1.2633554e+183
-1.2852621e+183
-1.2190929e+183
-1.3345085e+183
-1.3312396e+183
-1.3043541e+183
-1.3074471e+183
-1.1680365e+183
-1.1717824e+183
-1.2092693e+183
-1.2052632e+183
-1.1632798e+183
-1.167086e+183
-1.3084828e+183
-1.0782073e+183
-1.1294298e+183
-1.1774397e+183
-1.2021231e+183
-1.204302e+183
-1.1793249e+183
-1.2249571e+183
-1.222927e+183
-1.2445823e+183
-1.246663e+183
-1.2974166e+183
-1.2876499e+183
-1.2862993e+183
-1.2775991e+183
-1.2762385e+183
-1.2660363e+183
-1.2672629e+183
-1.2682329e+183
-1.365793e+183
-1.3672832e+183
-1.3624913e+183
-1.3641597e+183
-1.3594052e+183
-1.3611189e+183
-1.3569592e+183
-1.3580776e+183
-1.3853351e+183
-1.3797427e+183
-1.3872067e+183
-1.3804984e+183
-1.3833851e+183
-1.3900411e+183
-1.4033422e+183
-1.4000185e+183
-1.4014225e+183
-1.4047966e+183
-1.4058666e+183
-1.4031443e+183
-1.4016926e+183
-1.4044087e+183
-1.4004249e+183
-1.3971248e+183
-1.3986456e+183
-1.4019911e+183
-1.4014073e+183
-1.4029975e+183
-1.3985645e+183
-1.4002059e+183
-1.3753937e+183
-1.3779751e+183
-1.3847065e+183
-1.3821046e+183
-1.391918e+183
-1.3933215e+183
-1.3965613e+183
-1.3951389e+183
-1.3978199e+183
-1.3945994e+183
-1.3959107e+183
-1.3991976e+183
-1.3960015e+183
-1.397399e+183
-1.3931084e+183
-1.3944496e+183
-1.3986954e+183
-1.3957941e+183
-1.4001024e+183
-1.3972297e+183
-1.3852299e+183
-1.3860148e+183
-1.3779511e+183
-1.3771983e+183
-1.3787559e+183
-1.3867972e+183
-1.387659e+183
-1.3796742e+183
-1.3804041e+183
-1.3883469e+183
-1.3891643e+183
-1.3811898e+183
-1.3898608e+183
-1.3904925e+183
-1.3818884e+183
-1.3825506e+183
-1.3831514e+183
-1.3823412e+183
-1.3742223e+183
-1.3749907e+183
-1.3757667e+183
-1.3838744e+183
-1.3846176e+183
-1.3765646e+183
-1.3800111e+183
-1.3805367e+183
-1.3719182e+183
-1.3723729e+183
-1.381107e+183
-1.3817787e+183
-1.3729245e+183
-1.3736171e+183
-1.2417018e+183
-1.2324219e+183
-1.3401215e+183
-1.3246312e+183
-1.32341e+183
-1.3412227e+183
-1.3275916e+183
-1.3260263e+183
-1.3442018e+183
-1.3425667e+183
-1.3124983e+183
-1.2996484e+183
-1.3012867e+183
-1.3140309e+183
-1.3098068e+183
-1.2982113e+183
-1.2970504e+183
-1.3110309e+183
-1.2860132e+183
-1.2763369e+183
-1.2751552e+183
-1.2871203e+183
-1.2667631e+183
-1.2655269e+183
-1.2559459e+183
-1.2571842e+183
-1.2364804e+183
-1.2597034e+183
-1.2582815e+183
-1.2678967e+183
-1.2385522e+183
-1.2693077e+183
-1.2790467e+183
-1.2775254e+183
-1.2884701e+183
-1.2901073e+183
-1.2174505e+183
-1.215331e+183
-1.2913247e+183
-1.2816709e+183
-1.2802783e+183
-1.2926689e+183
-1.2621921e+183
-1.2608157e+183
-1.2718756e+183
-1.2704681e+183
-1.2407915e+183
-1.264863e+183
-1.2633862e+183
-1.2731889e+183
-1.242929e+183
-1.2748334e+183
-1.2848259e+183
-1.2941895e+183
-1.2830372e+183
-1.2960461e+183
-1.2216664e+183
-1.219383e+183
-1.3488617e+183
-1.3337481e+183
-1.3321022e+183
-1.3503924e+183
-1.3455768e+183
-1.3304521e+183
-1.3288454e+183
-1.3471924e+183
-1.3151876e+183
-1.302393e+183
-1.3038202e+183
-1.3167461e+183
-1.3072938e+183
-1.3054459e+183
-1.3184225e+183
-1.3201327e+183
-1.072336e+183
-1.1226607e+183
-1.0751769e+183
-1.1259498e+183
-1.169734e+183
-1.1944544e+183
-1.19658e+183
-1.1711771e+183
-1.1731226e+183
-1.1983561e+183
-1.2008454e+183
-1.1758365e+183
-1.3194956e+183
-1.3264122e+183
-1.3074258e+183
-1.3133739e+183
-1.3079315e+183
-1.3138269e+183
-1.0674604e+183
-1.1498709e+183
-1.1512758e+183
-1.1140325e+183
-1.1144641e+183
-1.199956e+183
-1.1867082e+183
-1.1866062e+183
-1.2001493e+183
-1.2194539e+183
-1.2100254e+183
-1.2104153e+183
-1.220107e+183
-1.2209731e+183
-1.2113209e+183
-1.2125365e+183
-1.222019e+183
-1.1874764e+183
-1.2009578e+183
-1.2024292e+183
-1.2311167e+183
-1.2299102e+183
-1.2391447e+183
-1.2404442e+183
-1.2284799e+183
-1.2292088e+183
-1.2375405e+183
-1.2384117e+183
-1.2465776e+183
-1.2475239e+183
-1.2563423e+183
-1.2574082e+183
-1.2483341e+183
-1.249638e+183
-1.2583183e+183
-1.2595037e+183
-1.2961616e+183
-1.3018133e+183
-1.2967812e+183
-1.3023511e+183
-1.2871257e+183
-1.2878145e+183
-1.2922021e+183
-1.2857471e+183
-1.2908894e+183
-1.2864727e+183
-1.2915736e+183
-1.2973549e+183
-1.2772049e+183
-1.282221e+183
-1.2778766e+183
-1.2829214e+183
-1.2757311e+183
-1.2808055e+183
-1.2765694e+183
-1.2815715e+183
-1.2707679e+183
-1.2715886e+183
-1.2657062e+183
-1.2664366e+183
-1.2722472e+183
-1.2728632e+183
-1.2676667e+183
-1.2670578e+183
-1.2732889e+183
-1.2737527e+183
-1.2680845e+183
-1.2685244e+183
-1.2782918e+183
-1.3691632e+183
-1.3699123e+183
-1.3713337e+183
-1.3706112e+183
-1.3658538e+183
-1.3665656e+183
-1.3673877e+183
-1.3684145e+183
-1.3635468e+183
-1.3628378e+183
-1.3652402e+183
-1.3643512e+183
-1.3605271e+183
-1.3608938e+183
-1.3614469e+183
-1.3622229e+183
-1.3403279e+183
-1.3353426e+183
-1.3646851e+183
-1.3879315e+183
-1.3865175e+183
-1.3589537e+183
-1.3617449e+183
-1.3673597e+183
-1.3891929e+183
-1.3905871e+183
-1.3934656e+183
-1.3948595e+183
-1.3986769e+183
-1.3993173e+183
-1.4002019e+183
-1.3995258e+183
-1.3990978e+183
-1.3955316e+183
-1.3984593e+183
-1.3949305e+183
-1.3970429e+183
-1.3934599e+183
-1.3978181e+183
-1.394259e+183
-1.3979983e+183
-1.3972515e+183
-1.3981094e+183
-1.398886e+183
-1.3907751e+183
-1.3921869e+183
-1.3951765e+183
-1.3944371e+183
-1.3952111e+183
-1.3959857e+183
-1.3965933e+183
-1.3958926e+183
-1.3966775e+183
-1.3974391e+183
-1.3940697e+183
-1.3948572e+183
-1.3911942e+183
-1.3904007e+183
-1.3919424e+183
-1.3927201e+183
-1.3955654e+183
-1.3963268e+183
-1.3541869e+183
-1.3565782e+183
-1.3623462e+183
-1.3853482e+183
-1.3840619e+183
-1.36012e+183
-1.3829164e+183
-1.3816263e+183
-1.3870962e+183
-1.3858114e+183
-1.3882738e+183
-1.389582e+183
-1.3948995e+183
-1.3900398e+183
-1.3899944e+183
-1.3893425e+183
-1.3906958e+183
-1.3912419e+183
-1.3906221e+183
-1.3912815e+183
-1.391941e+183
-1.3888537e+183
-1.3851777e+183
-1.3894916e+183
-1.3857558e+183
-1.3900729e+183
-1.3863351e+183
-1.3869625e+183
-1.3907101e+183
-1.3918419e+183
-1.3925448e+183
-1.3925401e+183
-1.3932795e+183
-1.3913471e+183
-1.3875993e+183
-1.392095e+183
-1.3883652e+183
-1.3938267e+183
-1.3931992e+183
-1.3939135e+183
-1.394596e+183
-1.392747e+183
-1.39342e+183
-1.3890608e+183
-1.389743e+183
-1.3794246e+183
-1.3790521e+183
-1.3748703e+183
-1.3752139e+183
-1.3801247e+183
-1.3797728e+183
-1.3755677e+183
-1.3759474e+183
-1.3805146e+183
-1.3763229e+183
-1.381007e+183
-1.3768153e+183
-1.3772767e+183
-1.3814505e+183
-1.3818564e+183
-1.3777376e+183
-1.3825559e+183
-1.3821754e+183
-1.3780587e+183
-1.3784154e+183
-1.383327e+183
-1.3829491e+183
-1.3787872e+183
-1.379202e+183
-1.3836602e+183
-1.3840577e+183
-1.3795187e+183
-1.3799033e+183
-1.3843821e+183
-1.3846334e+183
-1.3802361e+183
-1.3805129e+183
-1.3772766e+183
-1.3768924e+183
-1.3726285e+183
-1.3730546e+183
-1.376505e+183
-1.37619e+183
-1.3719684e+183
-1.3722695e+183
-1.3776233e+183
-1.3780513e+183
-1.3734028e+183
-1.3738155e+183
-1.3787775e+183
-1.3784368e+183
-1.3742142e+183
-1.3746004e+183
-1.3741266e+183
-1.3739343e+183
-1.3697094e+183
-1.369872e+183
-1.3700824e+183
-1.3743658e+183
-1.3746141e+183
-1.3703543e+183
-1.3752439e+183
-1.3748714e+183
-1.3706074e+183
-1.3709725e+183
-1.3759295e+183
-1.3755957e+183
-1.3713361e+183
-1.3717023e+183
-1.0135313e+183
-1.2480906e+183
-1.2440158e+183
-1.2446177e+183
-1.2485404e+183
-1.2400932e+183
-1.236181e+183
-1.2407645e+183
-1.2548579e+183
-1.2344156e+183
-1.2643783e+183
-1.274009e+183
-1.213704e+183
-1.1198397e+183
-1.0672338e+183
-1.0697234e+183
-1.1929978e+183
-1.1682639e+183
-1.3391646e+183
-1.3498052e+183
-1.3395655e+183
-1.3501451e+183
-1.3230798e+183
-1.323907e+183
-1.3313827e+183
-1.3321429e+183
-1.3220229e+183
-1.3303329e+183
-1.3224621e+183
-1.3307848e+183
-1.3401038e+183
-1.3506887e+183
-1.3408651e+183
-1.3514571e+183
-1.3261026e+183
-1.3269251e+183
-1.3343331e+183
-1.3351537e+183
-1.3245838e+183
-1.3327777e+183
-1.3253404e+183
-1.3335522e+183
-1.3430171e+183
-1.3438961e+183
-1.3536002e+183
-1.3545069e+183
-1.3520801e+183
-1.3414756e+183
-1.3422298e+183
-1.3527915e+183
-1.3104602e+183
-1.3174695e+183
-1.3112996e+183
-1.3182377e+183
-1.298167e+183
-1.2990398e+183
-1.3042371e+183
-1.3051152e+183
-1.2998378e+183
-1.3006159e+183
-1.3058918e+183
-1.3066208e+183
-1.3120337e+183
-1.3127944e+183
-1.3189939e+183
-1.3198024e+183
-1.3078263e+183
-1.3148406e+183
-1.3082927e+183
-1.3152721e+183
-1.2966526e+183
-1.2974353e+183
-1.3027059e+183
-1.3035011e+183
-1.2956112e+183
-1.3016206e+183
-1.2960757e+183
-1.3021079e+183
-1.3088812e+183
-1.3097154e+183
-1.3158961e+183
-1.3167522e+183
-1.2843784e+183
-1.2899841e+183
-1.2848579e+183
-1.2904325e+183
-1.2752018e+183
-1.275878e+183
-1.2802303e+183
-1.2809028e+183
-1.2741031e+183
-1.2791621e+183
-1.2746341e+183
-1.2796785e+183
-1.2853792e+183
-1.2860977e+183
-1.2909855e+183
-1.2917475e+183
-1.265595e+183
-1.2704008e+183
-1.266283e+183
-1.2710746e+183
-1.2643846e+183
-1.2692607e+183
-1.2650267e+183
-1.2698249e+183
-1.259698e+183
-1.2603445e+183
-1.254963e+183
-1.2468617e+183
-1.2555673e+183
-1.2609524e+183
-1.2616337e+183
-1.2480428e+183
-1.2569016e+183
-1.2562057e+183
-1.2377011e+183
-1.2388422e+183
-1.2635241e+183
-1.2642526e+183
-1.2505203e+183
-1.2595368e+183
-1.2588079e+183
-1.2621603e+183
-1.2628536e+183
-1.2490762e+183
-1.2581136e+183
-1.2574494e+183
-1.266795e+183
-1.2716484e+183
-1.2674893e+183
-1.2723534e+183
-1.239764e+183
-1.2412669e+183
-1.2681477e+183
-1.2730561e+183
-1.2689027e+183
-1.273832e+183
-1.2779791e+183
-1.2831583e+183
-1.2787746e+183
-1.2839551e+183
-1.2764937e+183
-1.2815659e+183
-1.2772415e+183
-1.2823861e+183
-1.2868075e+183
-1.2924864e+183
-1.2876618e+183
-1.2933539e+183
-1.2884509e+183
-1.2941633e+183
-1.2892662e+183
-1.2949713e+183
-1.2236007e+183
-1.2222637e+183
-1.2310441e+183
-1.2324808e+183
-1.2290636e+183
-1.2203262e+183
-1.2213236e+183
-1.2301507e+183
-1.2898108e+183
-1.2954633e+183
-1.2904316e+183
-1.2960364e+183
-1.2806852e+183
-1.2814943e+183
-1.285855e+183
-1.2866497e+183
-1.2793548e+183
-1.2845231e+183
-1.2800054e+183
-1.2851786e+183
-1.2910859e+183
-1.2919303e+183
-1.2967293e+183
-1.2976316e+183
-1.266133e+183
-1.2669059e+183
-1.2529713e+183
-1.262174e+183
-1.2614088e+183
-1.2647686e+183
-1.2654525e+183
-1.2516862e+183
-1.2607056e+183
-1.2600584e+183
-1.270776e+183
-1.2757196e+183
-1.2715786e+183
-1.2765311e+183
-1.2694339e+183
-1.2743888e+183
-1.2701177e+183
-1.2750399e+183
-1.2424604e+183
-1.2436973e+183
-1.2690442e+183
-1.2699904e+183
-1.2553448e+183
-1.2650052e+183
-1.2641609e+183
-1.2675054e+183
-1.2682752e+183
-1.254045e+183
-1.2634368e+183
-1.2627574e+183
-1.2722099e+183
-1.2772042e+183
-1.2730216e+183
-1.2780242e+183
-1.2446363e+183
-1.2457808e+183
-1.2738282e+183
-1.2789002e+183
-1.2748762e+183
-1.2799781e+183
-1.2839352e+183
-1.2892104e+183
-1.2849922e+183
-1.2902106e+183
-1.2927072e+183
-1.298441e+183
-1.2936458e+183
-1.2993735e+183
-1.2821744e+183
-1.2873727e+183
-1.2830294e+183
-1.2882865e+183
-1.2945592e+183
-1.3003047e+183
-1.2955431e+183
-1.301263e+183
-1.226861e+183
-1.2279539e+183
-1.2358116e+183
-1.2368415e+183
-1.2337089e+183
-1.2246767e+183
-1.2258964e+183
-1.2349047e+183
-1.3479e+183
-1.3584852e+183
-1.3487497e+183
-1.3592441e+183
-1.332504e+183
-1.3332015e+183
-1.3407683e+183
-1.3413914e+183
-1.3308085e+183
-1.3391108e+183
-1.3317124e+183
-1.3400151e+183
-1.3494486e+183
-1.3599623e+183
-1.3501064e+183
-1.3606701e+183
-1.344526e+183
-1.3551316e+183
-1.3452836e+183
-1.3558408e+183
-1.3289899e+183
-1.3373179e+183
-1.329999e+183
-1.3383102e+183
-1.3274776e+183
-1.3357337e+183
-1.3281796e+183
-1.3364974e+183
-1.3460724e+183
-1.3470991e+183
-1.3566575e+183
-1.3577096e+183
-1.3133052e+183
-1.3139589e+183
-1.3203319e+183
-1.3209945e+183
-1.3010711e+183
-1.3070864e+183
-1.3016626e+183
-1.3077273e+183
-1.3023893e+183
-1.3033181e+183
-1.3084834e+183
-1.3094098e+183
-1.3147151e+183
-1.3156829e+183
-1.3217925e+183
-1.3227934e+183
-1.3059903e+183
-1.3069171e+183
-1.3120878e+183
-1.3129375e+183
-1.3041162e+183
-1.3050652e+183
-1.3102109e+183
-1.3111804e+183
-1.3164932e+183
-1.3236161e+183
-1.3174467e+183
-1.3245333e+183
-1.3183003e+183
-1.3191129e+183
-1.3253606e+183
-1.326112e+183
-1.0612415e+183
-1.1072385e+183
-1.1425441e+183
-1.1434825e+183
-1.1074371e+183
-1.0641894e+183
-1.1453979e+183
-1.1482106e+183
-1.1090416e+183
-1.1122575e+183
-1.1920125e+183
-1.178794e+183
-1.1786043e+183
-1.1922309e+183
-1.2113579e+183
-1.2020344e+183
-1.2025579e+183
-1.2122537e+183
-1.2132817e+183
-1.2034916e+183
-1.2047372e+183
-1.2144989e+183
-1.1791389e+183
-1.1804978e+183
-1.1928912e+183
-1.1941002e+183
-1.1826171e+183
-1.181435e+183
-1.1949809e+183
-1.1963313e+183
-1.2055419e+183
-1.2068236e+183
-1.2154444e+183
-1.2166813e+183
-1.2082424e+183
-1.209631e+183
-1.2178386e+183
-1.2189967e+183
-1.1861709e+183
-1.1841995e+183
-1.1977639e+183
-1.1993549e+183
-1.3185904e+183
-1.3187786e+183
-1.3221154e+183
-1.3219366e+183
-1.3252939e+183
-1.3289944e+183
-1.3291142e+183
-1.3254425e+183
-1.3068483e+183
-1.3066142e+183
-1.3095186e+183
-1.3097414e+183
-1.312605e+183
-1.3123984e+183
-1.3154997e+183
-1.3156893e+183
-1.3102658e+183
-1.3070903e+183
-1.3099781e+183
-1.3074083e+183
-1.3158948e+183
-1.3128274e+183
-1.3130838e+183
-1.3161194e+183
-1.1116551e+183
-1.1119384e+183
-1.1697229e+183
-1.1692868e+183
-1.1459727e+183
-1.1448489e+183
-1.1700628e+183
-1.1452716e+183
-1.21339e+183
-1.2090669e+183
-1.2087558e+183
-1.2133036e+183
-1.2039419e+183
-1.1967341e+183
-1.1959442e+183
-1.2035007e+183
-1.1959383e+183
-1.1956388e+183
-1.2032137e+183
-1.2035246e+183
-1.2132505e+183
-1.2085146e+183
-1.2088356e+183
-1.2135877e+183
-1.2285782e+183
-1.224769e+183
-1.224949e+183
-1.2287843e+183
-1.221089e+183
-1.2174067e+183
-1.2174418e+183
-1.2212238e+183
-1.2179392e+183
-1.2175489e+183
-1.2214333e+183
-1.221917e+183
-1.2290977e+183
-1.2252067e+183
-1.2257044e+183
-1.2295935e+183
-1.2298638e+183
-1.2260437e+183
-1.2263667e+183
-1.2301313e+183
-1.2222533e+183
-1.2182772e+183
-1.218823e+183
-1.2226833e+183
-1.2202063e+183
-1.2194035e+183
-1.2231583e+183
-1.2239491e+183
-1.2305953e+183
-1.2267852e+183
-1.2276239e+183
-1.2314875e+183
-1.2039421e+183
-1.1963539e+183
-1.1969713e+183
-1.2045862e+183
-1.2097822e+183
-1.2092167e+183
-1.2139006e+183
-1.2144949e+183
-1.2151484e+183
-1.2105276e+183
-1.2283533e+183
-1.2322563e+183
-1.235439e+183
-1.2345405e+183
-1.2384917e+183
-1.239392e+183
-1.2339692e+183
-1.2336568e+183
-1.2375198e+183
-1.2378664e+183
-1.245777e+183
-1.2415051e+183
-1.2418776e+183
-1.2461481e+183
-1.2467601e+183
-1.2425014e+183
-1.2433701e+183
-1.2475603e+183
-1.2361673e+183
-1.2323883e+183
-1.2326541e+183
-1.2365041e+183
-1.2334651e+183
-1.2330164e+183
-1.2369069e+183
-1.2373446e+183
-1.2404079e+183
-1.2400145e+183
-1.2441334e+183
-1.2445621e+183
-1.2450148e+183
-1.2408297e+183
-1.2412822e+183
-1.2455073e+183
-1.2525503e+183
-1.2482818e+183
-1.2487616e+183
-1.2530847e+183
-1.2497399e+183
-1.2492349e+183
-1.2535834e+183
-1.25411e+183
-1.2574294e+183
-1.2568442e+183
-1.2613151e+183
-1.2619659e+183
-1.2625356e+183
-1.2579498e+183
-1.2585133e+183
-1.2631334e+183
-1.2544599e+183
-1.2500568e+183
-1.2504575e+183
-1.254882e+183
-1.2517337e+183
-1.2510391e+183
-1.2554296e+183
-1.2560129e+183
-1.2593252e+183
-1.2588959e+183
-1.2635341e+183
-1.2639548e+183
-1.2644307e+183
-1.2598275e+183
-1.2603459e+183
-1.2648779e+183
-1.2985162e+183
-1.2955224e+183
-1.2982279e+183
-1.2958193e+183
-1.3009491e+183
-1.3038079e+183
-1.3040422e+183
-1.3012076e+183
-1.2964495e+183
-1.2990985e+183
-1.2961086e+183
-1.2987817e+183
-1.3014568e+183
-1.3042971e+183
-1.3017753e+183
-1.3046155e+183
-1.2867993e+183
-1.2892032e+183
-1.2895292e+183
-1.2871263e+183
-1.2877873e+183
-1.2874472e+183
-1.2898492e+183
-1.2901763e+183
-1.2944757e+183
-1.2916249e+183
-1.2941689e+183
-1.291945e+183
-1.2882127e+183
-1.285388e+183
-1.2878489e+183
-1.2857759e+183
-1.290326e+183
-1.2929162e+183
-1.2932181e+183
-1.2906582e+183
-1.2889079e+183
-1.2861125e+183
-1.2885383e+183
-1.2864869e+183
-1.2909762e+183
-1.2935346e+183
-1.291338e+183
-1.2938884e+183
-1.2967132e+183
-1.299357e+183
-1.2996396e+183
-1.2970055e+183
-1.2772994e+183
-1.277619e+183
-1.2796518e+183
-1.2799787e+183
-1.2823362e+183
-1.2843986e+183
-1.2847241e+183
-1.2820045e+183
-1.2779722e+183
-1.2782506e+183
-1.2805856e+183
-1.2803003e+183
-1.2826421e+183
-1.2829548e+183
-1.2850428e+183
-1.2853809e+183
-1.2785816e+183
-1.2757055e+183
-1.278093e+183
-1.2762119e+183
-1.280501e+183
-1.282942e+183
-1.2833473e+183
-1.2809511e+183
-1.2793706e+183
-1.2766648e+183
-1.2789866e+183
-1.2770466e+183
-1.2813141e+183
-1.2837031e+183
-1.2816987e+183
-1.2840759e+183
-1.270358e+183
-1.2707992e+183
-1.2732418e+183
-1.2737124e+183
-1.2741772e+183
-1.2745702e+183
-1.2712327e+183
-1.2716235e+183
-1.2665717e+183
-1.2673761e+183
-1.2719543e+183
-1.2722183e+183
-1.274857e+183
-1.2751455e+183
-1.2754838e+183
-1.2757601e+183
-1.2725108e+183
-1.2727742e+183
-1.2685533e+183
-1.2680133e+183
-1.2729908e+183
-1.2731781e+183
-1.2759404e+183
-1.2761348e+183
-1.2763945e+183
-1.2765899e+183
-1.2734187e+183
-1.2736349e+183
-1.2689748e+183
-1.2694154e+183
-1.2810265e+183
-1.2784137e+183
-1.2807918e+183
-1.2786348e+183
-1.3710918e+183
-1.371428e+183
-1.3717793e+183
-1.3722287e+183
-1.3732121e+183
-1.373526e+183
-1.3729032e+183
-1.3725455e+183
-1.3678192e+183
-1.3681355e+183
-1.3684731e+183
-1.3688981e+183
-1.3692763e+183
-1.369778e+183
-1.3702417e+183
-1.3707671e+183
-1.3655108e+183
-1.3659608e+183
-1.365212e+183
-1.3649147e+183
-1.3671013e+183
-1.3675429e+183
-1.3667223e+183
-1.3663098e+183
-1.3627567e+183
-1.3626399e+183
-1.3632235e+183
-1.3629325e+183
-1.3634795e+183
-1.3638228e+183
-1.3646176e+183
-1.3641827e+183
-1.3308085e+183
-1.2926935e+183
-1.3357451e+183
-1.3384848e+183
-1.2883243e+183
-1.3336031e+183
-1.3312815e+183
-1.3766951e+183
-1.375381e+183
-1.3426271e+183
-1.363456e+183
-1.3647091e+183
-1.3792309e+183
-1.3779338e+183
-1.3452167e+183
-1.3659144e+183
-1.3671498e+183
-1.3847329e+183
-1.3841207e+183
-1.3862435e+183
-1.3869077e+183
-1.3923384e+183
-1.3930334e+183
-1.3860942e+183
-1.3853806e+183
-1.3875433e+183
-1.3882094e+183
-1.3936814e+183
-1.3943158e+183
-1.39631e+183
-1.3965777e+183
-1.3970216e+183
-1.3967175e+183
-1.3960458e+183
-1.3956138e+183
-1.3959958e+183
-1.3964102e+183
-1.3953279e+183
-1.3964114e+183
-1.3967177e+183
-1.3956275e+183
-1.3884584e+183
-1.3930463e+183
-1.3933086e+183
-1.3887171e+183
-1.3957538e+183
-1.3961155e+183
-1.3950186e+183
-1.3946466e+183
-1.3923315e+183
-1.3927133e+183
-1.3881343e+183
-1.3877466e+183
-1.3948113e+183
-1.3943983e+183
-1.3932539e+183
-1.3936472e+183
-1.3862686e+183
-1.3908688e+183
-1.391277e+183
-1.3866568e+183
-1.3954723e+183
-1.3951441e+183
-1.3940047e+183
-1.39434e+183
-1.3920036e+183
-1.3916568e+183
-1.3870319e+183
-1.3874008e+183
-1.3946736e+183
-1.3942457e+183
-1.3946825e+183
-1.3950999e+183
-1.3954385e+183
-1.3950212e+183
-1.3953194e+183
-1.3957668e+183
-1.3821514e+183
-1.381573e+183
-1.384304e+183
-1.3836948e+183
-1.3896465e+183
-1.3903164e+183
-1.3835487e+183
-1.3827977e+183
-1.3849305e+183
-1.3856616e+183
-1.3909915e+183
-1.3916949e+183
-1.3918647e+183
-1.3914768e+183
-1.3922569e+183
-1.391883e+183
-1.3922228e+183
-1.3925316e+183
-1.3925915e+183
-1.3929399e+183
-1.3932531e+183
-1.3928503e+183
-1.3936691e+183
-1.3932802e+183
-1.3936245e+183
-1.3939312e+183
-1.3940109e+183
-1.3943627e+183
-1.3903635e+183
-1.3915308e+183
-1.3919178e+183
-1.3907246e+183
-1.3926126e+183
-1.3922559e+183
-1.3914296e+183
-1.3910826e+183
-1.3886479e+183
-1.3839371e+183
-1.3842964e+183
-1.389004e+183
-1.3832271e+183
-1.3879158e+183
-1.388285e+183
-1.3835873e+183
-1.3893483e+183
-1.3897795e+183
-1.3851359e+183
-1.3846761e+183
-1.3855522e+183
-1.3901633e+183
-1.3905207e+183
-1.385939e+183
-1.3933455e+183
-1.3929365e+183
-1.3921699e+183
-1.3917675e+183
-1.3940523e+183
-1.3936893e+183
-1.3928979e+183
-1.39254e+183
-1.3492437e+183
-1.3519138e+183
-1.357789e+183
-1.3742288e+183
-1.3730461e+183
-1.3404592e+183
-1.361281e+183
-1.3623514e+183
-1.3719853e+183
-1.3708054e+183
-1.3384463e+183
-1.3592007e+183
-1.3603121e+183
-1.384686e+183
-1.3786968e+183
-1.3780543e+183
-1.3801608e+183
-1.385927e+183
-1.3807829e+183
-1.3865487e+183
-1.3774708e+183
-1.3769385e+183
-1.3790283e+183
-1.3795944e+183
-1.3847312e+183
-1.3853351e+183
-1.3797452e+183
-1.3791886e+183
-1.3813052e+183
-1.3819062e+183
-1.3871419e+183
-1.3877906e+183
-1.3810505e+183
-1.3803562e+183
-1.3825134e+183
-1.3831815e+183
-1.3884212e+183
-1.3890578e+183
-1.3888055e+183
-1.3882266e+183
-1.3889273e+183
-1.3895213e+183
-1.3883383e+183
-1.3847217e+183
-1.3864764e+183
-1.38683e+183
-1.3871504e+183
-1.3868184e+183
-1.3871326e+183
-1.3873869e+183
-1.3877274e+183
-1.3874418e+183
-1.3876562e+183
-1.3880319e+183
-1.3883497e+183
-1.3879921e+183
-1.38865e+183
-1.3883379e+183
-1.3886024e+183
-1.3889495e+183
-1.3864445e+183
-1.3867673e+183
-1.385274e+183
-1.3855632e+183
-1.3781355e+183
-1.3828146e+183
-1.3830955e+183
-1.3783534e+183
-1.3870501e+183
-1.3858481e+183
-1.3873399e+183
-1.38612e+183
-1.3836197e+183
-1.3833623e+183
-1.3785888e+183
-1.3788396e+183
-1.3876111e+183
-1.3879599e+183
-1.3867295e+183
-1.3863973e+183
-1.3791081e+183
-1.3838823e+183
-1.3842362e+183
-1.3794629e+183
-1.3798024e+183
-1.3845488e+183
-1.3848324e+183
-1.3801106e+183
-1.388254e+183
-1.3885548e+183
-1.387327e+183
-1.3870347e+183
-1.3892843e+183
-1.3888921e+183
-1.3892367e+183
-1.3896134e+183
-1.3899038e+183
-1.3896106e+183
-1.3899376e+183
-1.3902687e+183
-1.3892356e+183
-1.3888585e+183
-1.387636e+183
-1.3879968e+183
-1.3803673e+183
-1.3851222e+183
-1.3855023e+183
-1.3807158e+183
-1.3898988e+183
-1.3895609e+183
-1.3883463e+183
-1.3886835e+183
-1.3862076e+183
-1.3858603e+183
-1.3810899e+183
-1.3814626e+183
-1.3905598e+183
-1.3901983e+183
-1.3905982e+183
-1.3909462e+183
-1.3912605e+183
-1.3909127e+183
-1.3911854e+183
-1.3915735e+183
-1.3905836e+183
-1.3902029e+183
-1.3890106e+183
-1.3893918e+183
-1.3912197e+183
-1.3909011e+183
-1.3897339e+183
-1.3900531e+183
-1.3869476e+183
-1.38654e+183
-1.3818152e+183
-1.3822316e+183
-1.3876174e+183
-1.3873035e+183
-1.3826113e+183
-1.3829443e+183
-1.0076152e+183
-1.3709293e+183
-1.3705734e+183
-1.3716319e+183
-1.3712734e+183
-1.3720455e+183
-1.37254e+183
-1.3729915e+183
-1.3734455e+183
-1.3741572e+183
-1.3738075e+183
-1.374922e+183
-1.3745301e+183
-1.3752688e+183
-1.3756325e+183
-1.3759217e+183
-1.376186e+183
-1.3687376e+183
-1.3683467e+183
-1.3680257e+183
-1.3677422e+183
-1.3691075e+183
-1.3695134e+183
-1.3702529e+183
-1.3698721e+183
-1.3655674e+183
-1.3654179e+183
-1.3657814e+183
-1.3660331e+183
-1.3666569e+183
-1.3663086e+183
-1.3673971e+183
-1.367003e+183
-1.0089784e+183
-1.2499513e+183
-1.2462625e+183
-1.246866e+183
-1.2504043e+183
-1.2426643e+183
-1.2391851e+183
-1.2434171e+183
-1.258428e+183
-1.259175e+183
-1.2457772e+183
-1.2544475e+183
-1.2537187e+183
-1.2442371e+183
-1.2350492e+183
-1.2366442e+183
-1.263043e+183
-1.2679348e+183
-1.2638252e+183
-1.2687173e+183
-1.272829e+183
-1.2735876e+183
-1.2786875e+183
-1.2194038e+183
-1.2178546e+183
-1.2264605e+183
-1.2280203e+183
-1.1030512e+183
-1.1386401e+183
-1.1058628e+183
-1.1411398e+183
-1.058626e+183
-1.1748173e+183
-1.2091278e+183
-1.1998219e+183
-1.2014183e+183
-1.2106201e+183
-1.1782412e+183
-1.1762986e+183
-1.189626e+183
-1.1912757e+183
-1.3443038e+183
-1.3386471e+183
-1.3441365e+183
-1.3387981e+183
-1.3497219e+183
-1.356216e+183
-1.3563031e+183
-1.3498382e+183
-1.3392582e+183
-1.3446969e+183
-1.3389813e+183
-1.3444582e+183
-1.3499854e+183
-1.3564626e+183
-1.3502457e+183
-1.3567435e+183
-1.3219762e+183
-1.3260513e+183
-1.326438e+183
-1.3223654e+183
-1.323201e+183
-1.3227481e+183
-1.3268065e+183
-1.3272415e+183
-1.335147e+183
-1.3301242e+183
-1.3348251e+183
-1.330476e+183
-1.3312872e+183
-1.3359642e+183
-1.3308419e+183
-1.3355246e+183
-1.3252818e+183
-1.321006e+183
-1.3250895e+183
-1.3211779e+183
-1.3291877e+183
-1.3339231e+183
-1.3340684e+183
-1.3293545e+183
-1.3257689e+183
-1.3213777e+183
-1.3254751e+183
-1.3216841e+183
-1.3295576e+183
-1.3342764e+183
-1.3298523e+183
-1.3345643e+183
-1.3394944e+183
-1.3449321e+183
-1.3452755e+183
-1.339814e+183
-1.356996e+183
-1.3504908e+183
-1.3508234e+183
-1.3573242e+183
-1.3401857e+183
-1.3406219e+183
-1.3456484e+183
-1.3460594e+183
-1.3576893e+183
-1.3516254e+183
-1.3581421e+183
-1.3511861e+183
-1.3249904e+183
-1.32902e+183
-1.3294507e+183
-1.3254132e+183
-1.3261938e+183
-1.3257857e+183
-1.3298209e+183
-1.3302234e+183
-1.3381107e+183
-1.3330504e+183
-1.3377171e+183
-1.3334593e+183
-1.3342669e+183
-1.3389554e+183
-1.333839e+183
-1.3385149e+183
-1.3279265e+183
-1.3235201e+183
-1.3275554e+183
-1.3238815e+183
-1.3315939e+183
-1.3362517e+183
-1.3365735e+183
-1.3319365e+183
-1.3286771e+183
-1.3242281e+183
-1.3282625e+183
-1.3246411e+183
-1.3322831e+183
-1.3369366e+183
-1.3327053e+183
-1.3373677e+183
-1.3423576e+183
-1.3477861e+183
-1.3482129e+183
-1.342759e+183
-1.3431684e+183
-1.3486306e+183
-1.3436205e+183
-1.3490661e+183
-1.3598392e+183
-1.3602493e+183
-1.3533406e+183
-1.3537564e+183
-1.354624e+183
-1.3541641e+183
-1.3606527e+183
-1.3611142e+183
-1.3519141e+183
-1.3584363e+183
-1.3587529e+183
-1.3522467e+183
-1.3466841e+183
-1.340904e+183
-1.346339e+183
-1.3412282e+183
-1.3420172e+183
-1.3415835e+183
-1.3470349e+183
-1.3474474e+183
-1.3529963e+183
-1.3525614e+183
-1.3590383e+183
-1.3594872e+183
-1.3131743e+183
-1.3093549e+183
-1.3127483e+183
-1.3097824e+183
-1.3161415e+183
-1.3198695e+183
-1.3202312e+183
-1.3165324e+183
-1.3139692e+183
-1.3101791e+183
-1.3135551e+183
-1.3106238e+183
-1.3168994e+183
-1.3205955e+183
-1.3173056e+183
-1.3209934e+183
-1.2971556e+183
-1.3001248e+183
-1.3005639e+183
-1.2975893e+183
-1.2980118e+183
-1.3009801e+183
-1.3014323e+183
-1.2984763e+183
-1.3030646e+183
-1.3062227e+183
-1.306647e+183
-1.3034954e+183
-1.3039054e+183
-1.3070557e+183
-1.307515e+183
-1.3043615e+183
-1.2988336e+183
-1.301784e+183
-1.3021791e+183
-1.2992289e+183
-1.2999409e+183
-1.2995876e+183
-1.3025229e+183
-1.3028532e+183
-1.3047057e+183
-1.3078428e+183
-1.3082094e+183
-1.3050849e+183
-1.3057585e+183
-1.3054105e+183
-1.3085392e+183
-1.308896e+183
-1.3109337e+183
-1.3142764e+183
-1.3146687e+183
-1.3113019e+183
-1.3120145e+183
-1.3116423e+183
-1.3150321e+183
-1.3154084e+183
-1.3213533e+183
-1.3217708e+183
-1.3176377e+183
-1.3180418e+183
-1.3188077e+183
-1.3184096e+183
-1.3221503e+183
-1.3225509e+183
-1.3103641e+183
-1.3067589e+183
-1.3101589e+183
-1.3069564e+183
-1.3135631e+183
-1.3173166e+183
-1.3174783e+183
-1.3137417e+183
-1.3074747e+183
-1.3108478e+183
-1.3071749e+183
-1.3105657e+183
-1.3139393e+183
-1.3176866e+183
-1.3142337e+183
-1.3179876e+183
-1.2956268e+183
-1.2985838e+183
-1.2989489e+183
-1.2959795e+183
-1.2963461e+183
-1.2993186e+183
-1.2997706e+183
-1.2967966e+183
-1.3049888e+183
-1.3015019e+183
-1.304634e+183
-1.3018615e+183
-1.3058735e+183
-1.3022509e+183
-1.3053984e+183
-1.3027094e+183
-1.2977881e+183
-1.2946322e+183
-1.2975701e+183
-1.2948344e+183
-1.3004877e+183
-1.3036243e+183
-1.3038139e+183
-1.3006911e+183
-1.2983037e+183
-1.2950513e+183
-1.2980044e+183
-1.2953495e+183
-1.300918e+183
-1.3040494e+183
-1.3012213e+183
-1.3043528e+183
-1.3077457e+183
-1.3111264e+183
-1.3115147e+183
-1.3081114e+183
-1.3085236e+183
-1.3119271e+183
-1.3089976e+183
-1.3123844e+183
-1.318292e+183
-1.3186837e+183
-1.3145306e+183
-1.3149207e+183
-1.3157904e+183
-1.3153237e+183
-1.3190852e+183
-1.319542e+183
-1.2864581e+183
-1.2835531e+183
-1.2862402e+183
-1.2837636e+183
-1.2889518e+183
-1.2918088e+183
-1.2919978e+183
-1.2891509e+183
-1.2842674e+183
-1.2869338e+183
-1.283988e+183
-1.2866684e+183
-1.2893583e+183
-1.2922182e+183
-1.2896349e+183
-1.2925062e+183
-1.2745932e+183
-1.2769809e+183
-1.2772923e+183
-1.2749021e+183
-1.2755817e+183
-1.2752219e+183
-1.277618e+183
-1.2779879e+183
-1.282255e+183
-1.2794035e+183
-1.2819496e+183
-1.2797116e+183
-1.2804267e+183
-1.2829939e+183
-1.2800331e+183
-1.2825853e+183
-1.2761998e+183
-1.2735283e+183
-1.2759533e+183
-1.2737864e+183
-1.2784053e+183
-1.2809673e+183
-1.2811731e+183
-1.2786291e+183
-1.2767248e+183
-1.2740301e+183
-1.2764366e+183
-1.2743211e+183
-1.2788669e+183
-1.2814146e+183
-1.2791517e+183
-1.281699e+183
-1.2845097e+183
-1.287182e+183
-1.2875077e+183
-1.2848198e+183
-1.2851616e+183
-1.2878662e+183
-1.2855814e+183
-1.2882875e+183
-1.2927823e+183
-1.2931247e+183
-1.2899e+183