/*--------------------------------*- C++ -*----------------------------------*\
  =========                 |
  \\      /  F ield         | OpenFOAM: The Open Source CFD Toolbox
   \\    /   O peration     | Website:  https://openfoam.org
    \\  /    A nd           | Version:  7
     \\/     M anipulation  |
\*---------------------------------------------------------------------------*/
FoamFile
{
    version     2.0;
    format      ascii;
    class       surfaceScalarField;
    location    "2000";
    object      phi;
}
// * * * * * * * * * * * * * * * * * * * * * * * * * * * * * * * * * * * * * //

dimensions      [0 3 -1 0 0 0 0];

internalField   nonuniform List<scalar> 
102230
(
5.509427e+87
-1.2585559e+88
-1.2487615e+88
-1.3870457e+88
-1.398962e+88
-1.308433e+88
-1.1389569e+88
-1.2835489e+88
-1.1293794e+88
1.721506e+86
-2.2120719e+87
1.7345219e+87
-2.6237497e+87
-2.5633781e+87
-3.2603383e+87
-3.3685685e+87
-2.5658871e+87
2.0445428e+87
-2.6484274e+87
-3.518089e+87
-2.5910633e+87
-3.3468164e+87
-8.3276251e+86
-1.2233236e+88
-1.1998797e+88
3.9626944e+87
-3.2971584e+87
-3.7660625e+87
3.3874128e+87
-6.2183619e+88
-2.6265121e+87
-1.9848643e+87
3.7432678e+87
3.045191e+87
7.4798018e+86
9.481573e+86
1.0966961e+87
-1.528948e+88
-4.5127655e+86
-3.467954e+86
1.0891254e+87
1.1440921e+87
-1.5538161e+88
-4.0378105e+86
-2.9138066e+86
2.3062612e+86
3.3642538e+86
-2.9139269e+87
-3.3450324e+87
-3.3009228e+87
-2.897769e+87
4.0007927e+86
-2.4633847e+87
-2.027998e+87
-2.5097495e+87
-2.0510114e+87
1.5713417e+86
-3.2833504e+87
-3.4150592e+87
-2.991901e+87
-2.873848e+87
-2.4797788e+87
-2.5593425e+87
-2.0466867e+87
-2.1096849e+87
-4.3729795e+85
-5.4627146e+86
1.9065728e+85
4.8379703e+86
-7.1678889e+86
-5.3600884e+86
-5.4325352e+86
-7.405596e+86
-5.1343517e+86
4.5414239e+86
-5.408194e+86
-7.336202e+86
-5.2413147e+86
-6.9736256e+86
1.5628227e+86
-2.7729664e+87
1.6625913e+86
-2.82812e+87
-5.5161289e+86
-3.3007097e+85
4.9532149e+86
-5.4716114e+86
-5.2953511e+86
-7.4478191e+86
-7.1858453e+86
7.8349671e+85
-2.8926666e+87
-5.97745e+86
5.1378173e+86
-7.1831047e+86
-5.3775093e+86
-5.4763961e+86
-7.5208169e+86
-2.8644925e+87
-1.1916387e+88
-6.6598162e+86
9.5213435e+86
8.6676984e+86
-7.7661197e+86
-6.5850301e+86
-6.3644979e+86
7.3491829e+86
-8.1993554e+86
-9.2779528e+86
6.6048229e+86
-1.4837776e+88
1.1804323e+88
7.2257898e+86
-8.5570507e+86
-9.1464266e+86
6.097142e+86
-1.4767754e+88
7.6726595e+86
9.1102152e+86
-6.8955028e+86
-7.7554094e+86
3.3660166e+87
2.8946521e+87
-2.5428072e+87
-3.0616278e+87
3.0135222e+87
3.5885984e+87
-2.2252267e+87
-2.6760035e+87
9.6717077e+86
9.7989058e+87
-1.2398356e+88
9.7825809e+87
-1.225146e+88
-1.087649e+87
1.0679286e+88
1.2400269e+87
-1.3425839e+88
-5.5262975e+86
7.0223842e+86
6.0751844e+86
-7.221613e+86
1.0985562e+87
-9.9195565e+86
-8.6383176e+86
6.1266212e+86
5.3975174e+86
-2.6589217e+87
1.1040848e+86
1.5181198e+86
-1.8477702e+86
-1.6515519e+86
1.0549636e+86
-3.3716699e+87
1.2671261e+86
1.3614629e+86
-1.8458302e+86
-2.0346578e+86
1.264152e+86
2.4396635e+86
2.102034e+86
-3.4465649e+87
-6.0277511e+85
-8.1044758e+85
1.4672595e+86
2.4632182e+86
2.3137811e+86
-3.5421703e+87
-5.2817352e+85
-7.7937521e+85
9.3817716e+85
2.514411e+86
2.2676408e+86
-3.5873423e+87
-6.045672e+85
-7.3944868e+85
2.5289575e+86
2.4705584e+86
-3.5781967e+87
-4.6784535e+85
-6.8272769e+85
-2.5873032e+86
-1.4490944e+86
2.4083927e+86
1.4959175e+86
-2.9007187e+87
-2.124039e+86
2.3322297e+86
-8.6507881e+86
-2.7595037e+87
2.1765582e+86
-7.0905039e+86
-2.7513171e+87
2.2849499e+86
-2.8758925e+87
4.1650408e+85
6.1828608e+85
-5.1496871e+86
-6.2780582e+86
-6.1561107e+86
-5.1098001e+86
7.1859521e+85
-3.9695851e+86
-3.5659401e+86
-3.6193961e+86
-3.9982668e+86
3.4319754e+85
5.2545599e+85
-5.0826191e+86
-6.1591245e+86
-6.401425e+86
-5.2963033e+86
6.9438606e+85
-3.9533835e+86
-4.1009297e+86
-3.5805384e+86
-3.6698861e+86
-1.231114e+86
2.5924821e+86
-8.535991e+86
-2.7609917e+87
2.2169186e+86
-7.5099267e+86
-2.7756472e+87
6.5732127e+85
2.2313865e+86
-2.9094884e+87
2.3592061e+86
-2.9055833e+87
1.0486694e+85
1.6146096e+85
-6.1587052e+86
-6.4044075e+86
-5.3063855e+86
-5.0864864e+86
2.5204364e+85
-5.2274024e+86
-6.3400464e+86
-6.2296811e+86
-5.1866299e+86
-1.9749988e+85
-3.9751832e+86
-4.1370616e+86
-3.6320872e+86
-3.7285155e+86
-4.0657678e+86
-3.6711477e+86
-4.0262927e+86
-3.6314973e+86
1.2225523e+86
-1.7323589e+85
2.8501768e+85
-6.0390033e+86
2.2823872e+84
5.1280597e+84
1.1535344e+86
-1.1105827e+86
-1.1448648e+86
-1.5967769e+86
-1.5129497e+86
-1.0850255e+86
-1.0036842e+85
1.0538624e+86
-1.5556755e+86
-1.1251213e+86
-1.0965483e+86
-1.5008323e+86
-3.2671848e+85
-6.0233567e+86
-1.1209397e+86
-1.4863736e+85
1.0993399e+86
-1.5148829e+86
-1.1041608e+86
-1.1361567e+86
-1.5831228e+86
-3.0506176e+85
-6.0391341e+86
-1.0458617e+86
1.0167179e+86
-1.1174682e+86
-1.0971622e+86
-1.5363278e+86
-1.474022e+86
-5.865491e+86
-7.554472e+84
-1.2083382e+86
2.1834859e+84
1.1797944e+86
-1.1403812e+86
-1.1199197e+86
-1.5343049e+86
-1.5947519e+86
-1.1395578e+86
1.1110588e+86
-1.5653221e+86
-1.1305451e+86
-1.0978318e+86
-1.497417e+86
-2.2973479e+85
2.2268181e+85
-6.1346926e+86
-6.0024791e+86
1.2921295e+86
-9.6375255e+84
-6.0773171e+86
5.9386733e+84
1.2216615e+86
-1.1199206e+86
-1.151339e+86
-1.5239936e+86
-1.6082045e+86
-1.1947079e+86
1.1540804e+86
-1.1386963e+86
-1.1103442e+86
-1.5808564e+86
-1.5246501e+86
-6.1186595e+86
-8.7035076e+85
-2.8409052e+87
2.2581258e+86
-1.3637962e+86
-1.1613679e+86
2.1321218e+86
-2.8225037e+87
-1.4082579e+86
-1.3897559e+86
-1.2527859e+86
1.9853979e+86
2.2143663e+86
6.2943515e+85
-3.5496914e+87
-1.0128631e+86
1.7301658e+86
-1.6618926e+86
-1.7347514e+86
1.5556671e+86
-3.5329666e+87
1.8210481e+86
-1.7115344e+86
-1.5135448e+86
1.7013816e+86
-2.7320116e+87
-5.8006565e+85
1.5218306e+86
-1.8853117e+86
-1.7178284e+86
1.4402161e+86
-5.0172265e+85
1.3609347e+86
1.4167034e+86
-1.8338898e+86
-1.9780782e+86
-3.4439422e+87
2.7616378e+87
-6.5252732e+85
-1.9820374e+86
-1.9607899e+86
1.3940552e+86
-3.5472519e+87
1.2777638e+86
-8.1660776e+85
-1.9150738e+86
-1.8612914e+86
1.4465573e+86
1.2906355e+86
-7.2702294e+86
-1.0908715e+88
6.4328067e+86
6.0712128e+86
-9.8282236e+86
-8.7378342e+86
-2.7437184e+87
-7.4915963e+85
3.5421953e+87
1.4884261e+86
-1.9345228e+86
-1.7649407e+86
1.3846126e+86
-6.6136174e+85
-1.992257e+86
-1.856818e+86
1.3372021e+86
1.408083e+86
-3.488161e+87
2.707174e+87
-1.9408202e+86
-1.9266277e+86
1.4099604e+86
-3.4637423e+87
1.2703466e+86
3.4514523e+87
-1.8817472e+86
1.4488957e+86
-1.8274051e+86
1.2695432e+86
-1.0850723e+88
6.533586e+86
5.6275498e+86
-9.6955197e+86
-8.9740677e+86
1.1854083e+86
-2.7362346e+87
2.1211399e+86
-1.4299051e+86
-1.2723551e+86
1.8364145e+86
-2.8087735e+87
2.1727495e+86
-1.4195353e+86
-1.1978049e+86
1.9979913e+86
-7.2647693e+85
1.7737209e+86
-1.5210543e+86
-1.7308655e+86
1.6305311e+86
-1.7223026e+86
-1.6281047e+86
1.7073457e+86
1.4961047e+86
-9.0088374e+86
-1.3612072e+88
-5.6724564e+86
6.9442231e+86
6.1318693e+86
-7.1700803e+86
-1.3555288e+88
-5.8111953e+86
6.8342666e+86
5.765886e+86
-6.9681628e+86
9.8942376e+86
-9.3324806e+87
-9.2594723e+87
-8.2467543e+86
-7.206524e+86
2.4975182e+85
-3.1603955e+85
3.296486e+85
-3.5847893e+85
3.0831408e+85
1.0578373e+88
1.5014726e+87
-1.0271993e+87
1.2014344e+87
9.0011089e+86
7.6268192e+86
-3.3965683e+86
-5.1074352e+86
2.5216079e+87
-2.1820378e+86
2.898071e+86
-3.0743186e+87
1.5169819e+86
-1.6115723e+86
-1.9441582e+86
1.3235321e+86
-1.4277463e+86
3.3457589e+87
2.1823354e+86
1.3063491e+86
-2.1151964e+86
-2.3511516e+86
1.1862873e+86
-2.5673487e+87
3.4379938e+87
1.3327048e+86
-2.2516432e+86
-2.3255696e+86
1.1937801e+86
-3.1515304e+87
-1.7171479e+86
1.4567991e+86
1.2957876e+86
1.0933455e+86
2.6934404e+87
-2.2857007e+86
-2.1914602e+86
1.2594884e+86
1.1001336e+86
2.6207061e+87
1.6789839e+86
-2.0847476e+86
-2.3018087e+86
1.2589584e+86
1.154173e+86
-1.0048e+86
1.3438813e+86
-1.9802568e+86
-2.1671021e+86
1.2528133e+86
1.1724494e+86
-2.1193461e+86
-2.1718103e+86
1.2528357e+86
1.0910733e+86
-5.6380623e+86
2.1711584e+85
-3.3934997e+85
3.1012448e+85
-3.795637e+85
2.9208844e+85
1.1858119e+85
-7.3028485e+86
-3.6922993e+85
-3.8348159e+85
2.9711141e+85
-7.1853871e+86
1.4717601e+85
-3.4261097e+85
3.0338133e+85
-3.8066933e+85
2.8707812e+85
1.0069644e+85
-5.7691922e+86
-3.8080916e+85
2.9745979e+85
-3.9339807e+85
2.6601274e+85
-5.6878346e+86
1.1742587e+85
-3.5478852e+85
3.0022426e+85
-3.8723343e+85
2.8897926e+85
-7.5336235e+84
9.6856666e+84
-7.2241992e+86
2.6651836e+85
2.5406728e+85
-4.0935933e+85
-4.4221156e+85
-1.1411664e+85
-7.3807999e+86
2.6847078e+85
2.3250269e+85
-4.4857947e+85
-4.3666347e+85
-7.4194887e+86
2.5913553e+85
2.4326961e+85
-4.2524419e+85
-4.5740387e+85
-2.6397078e+85
3.0366045e+85
5.3783774e+85
5.2072742e+85
-7.5067994e+86
-9.5150236e+84
-1.3821151e+85
5.304354e+85
4.7486447e+85
-7.3093767e+86
-1.378754e+85
-1.0816533e+85
-2.3329166e+85
2.8828127e+85
5.4345987e+85
5.4914731e+85
-7.5041919e+86
-8.454354e+84
-1.2603587e+85
5.3950339e+85
4.8567874e+85
-7.5086847e+86
-1.0873285e+85
-1.4012656e+85
-1.8198604e+85
2.3257889e+85
5.5395038e+85
5.3983995e+85
-7.6648161e+86
-1.2819312e+85
-9.0632008e+84
5.5334631e+85
5.0148345e+85
-7.4621158e+86
-1.2670366e+85
-1.0164232e+85
-1.7706038e+85
5.6467327e+85
5.694728e+85
-7.5772431e+86
-7.2132171e+84
-1.0577736e+85
5.6327498e+85
5.1990315e+85
-7.6117204e+86
-9.7721931e+84
-1.1960381e+85
8.8985305e+86
-5.0454782e+86
-6.5289716e+86
-1.4032795e+88
-5.1024808e+86
-6.3990605e+86
-1.4144826e+88
-2.2401465e+86
-9.8846712e+85
1.9327745e+86
1.7952064e+86
9.7206477e+85
-2.9368521e+87
-6.4464905e+85
-4.6544742e+85
-1.7002786e+86
1.9322941e+86
-3.5112681e+87
1.8287937e+86
-3.5291458e+87
1.9446158e+86
1.7087493e+86
-2.9218186e+87
-4.8090086e+85
-6.7146895e+85
-7.5251938e+85
-2.0250065e+85
6.298174e+85
2.063535e+85
-5.0308353e+86
-3.3101679e+85
3.6524174e+85
-5.120186e+86
6.9302027e+85
-5.0826372e+86
6.1152709e+85
-5.0135449e+86
-1.1988663e+85
1.8699509e+85
-8.9218741e+85
-8.853893e+85
-7.1642173e+85
-7.2375385e+85
2.2339526e+85
-6.3327036e+85
-6.7516559e+85
-6.3313764e+85
-6.7110286e+85
1.5603209e+85
2.130374e+85
-6.3766319e+85
-6.7904443e+85
-6.5687512e+85
-6.9214678e+85
1.8911637e+85
-9.0916795e+85
-8.6458449e+85
-7.0444224e+85
-7.3634338e+85
-7.6586182e+85
-8.4020123e+84
6.2093048e+85
1.8439525e+85
-5.0380631e+86
-1.9806496e+85
3.3984845e+85
-5.1339949e+86
7.0491468e+85
-5.1439557e+86
6.0212426e+85
-5.0711791e+86
-7.895346e+84
-1.7493634e+85
1.6585505e+85
-9.1825688e+85
-8.7109205e+85
-7.1285344e+85
-7.4221606e+85
-1.3916244e+85
-8.9522893e+85
-9.0053189e+85
-7.3172031e+85
-7.2199878e+85
-1.0839534e+85
2.1101014e+85
-6.4313768e+85
-6.6246835e+85
-7.0770686e+85
-6.9124239e+85
-6.8839833e+85
-6.7458399e+85
-6.5117327e+85
-6.363884e+85
-1.3860353e+86
2.2234994e+86
-3.5227645e+87
1.9059946e+86
-3.5515268e+87
6.7349535e+85
1.9422034e+86
1.7395412e+86
-2.9416013e+87
-6.5844648e+85
-4.9760226e+85
1.9103361e+86
1.8094129e+86
-2.9515555e+87
-6.3339163e+85
-4.8594551e+85
-1.3671664e+85
7.502872e+85
-5.135813e+86
6.9800382e+85
-2.8335436e+85
-5.146361e+86
3.5279013e+84
-1.439428e+85
5.7354876e+85
-5.0732669e+86
5.9226878e+85
-5.0299434e+86
-7.4839644e+85
-1.6122759e+85
5.9610308e+85
-5.0578252e+86
-2.7740042e+85
-5.1521933e+86
6.9430885e+85
-5.122001e+86
5.8369618e+85
-5.05285e+86
-4.4163336e+84
-2.0583002e+85
1.2893722e+85
-7.1962419e+85
-9.1972851e+85
-8.7477483e+85
-7.4773117e+85
-1.8357703e+85
-1.4344211e+85
-9.0234677e+85
-9.0968327e+85
-7.3925376e+85
-7.2937402e+85
-1.1141174e+85
-6.4372836e+85
-6.8891573e+85
-6.6762366e+85
-7.1019321e+85
-1.9212418e+85
-6.5352401e+85
-6.9346906e+85
-6.8537294e+85
-6.4493413e+85
-1.9360678e+85
-1.495994e+85
-8.7982364e+85
-9.2418398e+85
-7.1840437e+85
-7.4748923e+85
-1.8667331e+85
-6.4165014e+85
-6.8759119e+85
-6.6204966e+85
-6.991204e+85
-1.6009236e+85
-8.984234e+85
-9.0794271e+85
-7.3436284e+85
-7.2551976e+85
-6.4876028e+85
-6.4278943e+85
-6.8264177e+85
-6.8200289e+85
7.4498491e+83
-2.840719e+85
8.1578492e+83
3.3703005e+85
-2.3747375e+85
-2.2906823e+85
-3.4733419e+85
-3.6527216e+85
-2.7081136e+85
-1.3975893e+84
3.3160295e+85
-2.3300888e+85
-2.3522393e+85
-3.6318671e+85
-3.5281085e+85
2.4967472e+84
-5.416975e+84
-1.294926e+86
5.0429263e+84
-1.2733359e+86
2.6487812e+85
-5.2216602e+84
-1.2830032e+86
-2.3143774e+84
3.2913369e+85
-2.2780726e+85
-3.4880626e+85
-2.3734145e+85
-3.6625389e+85
-2.5359206e+85
-2.4105439e+84
3.1658692e+85
-3.577868e+85
-2.3068011e+85
-2.26871e+85
-3.4324328e+85
-6.3218661e+84
-1.2577433e+86
2.691432e+85
-3.58958e+84
-1.273511e+86
-6.7388192e+83
3.2312817e+85
-2.3754193e+85
-2.2664965e+85
-3.4514473e+85
-3.6617578e+85
-2.5568274e+85
-2.9424482e+84
3.1312881e+85
-2.2943423e+85
-2.3177863e+85
-3.6066574e+85
-3.4903772e+85
-6.6739412e+84
-1.2872343e+86
-3.2695307e+84
-2.5704343e+85
3.1706195e+85
-2.2644841e+85
-2.3682776e+85
-3.4775415e+85
-3.6318475e+85
-2.5201899e+85
3.1105743e+85
-2.316144e+85
-2.2868445e+85
-3.582973e+85
-3.4332004e+85
-5.7226136e+84
-1.2724489e+86
-1.2453325e+86
-5.7553278e+83
-2.7097511e+85
-1.5997161e+84
3.3088741e+85
-2.298452e+85
-2.3333573e+85
-3.6397761e+85
-3.5138251e+85
-2.8568301e+85
1.3414481e+84
3.4165048e+85
-2.4175572e+85
-2.3331485e+85
-3.4878569e+85
-3.7120058e+85
-2.3721329e+84
4.3275316e+84
-1.2855914e+86
-5.1881164e+84
-1.2977273e+86
2.746953e+85
-4.7881012e+84
-1.2906712e+86
-1.882332e+84
3.3513588e+85
-2.292385e+85
-2.3863077e+85
-3.5205656e+85
-3.6823378e+85
-2.706249e+85
3.3391886e+85
-2.2968108e+85
-2.3368041e+85
-3.619418e+85
-3.4648795e+85
-1.2640102e+86
9.3823963e+83
-2.9575236e+85
3.4658712e+85
-2.4031066e+85
-2.305964e+85
-3.4913186e+85
-3.6958652e+85
-2.8792002e+85
-6.8406339e+83
3.4454748e+85
-3.6685926e+85
-2.3741972e+85
-2.3311611e+85
-3.5434818e+85
-1.4623288e+84
-1.2808958e+86
-3.5868677e+84
-1.3054063e+86
-1.5646509e+84
-2.8232158e+85
3.4366293e+85
-2.3921145e+85
-2.3071324e+85
-3.5336896e+85
-3.6793812e+85
-2.7645392e+85
3.3828149e+85
-2.293549e+85
-2.3363466e+85
-3.6384156e+85
-3.4757265e+85
-3.76548e+84
-1.2981168e+86
-1.2755803e+86
-5.9082683e+86
4.8864801e+84
2.9586183e+85
-4.0818668e+85
-4.3295822e+85
2.8803854e+85
2.4238278e+84
2.8340378e+85
-4.4331712e+85
2.6705981e+85
-5.9671252e+86
-1.6863867e+85
-1.9355829e+85
4.997108e+85
-2.2901384e+85
4.8602485e+85
1.3400212e+85
5.9417932e+86
-1.5106357e+85
-7.493999e+86
-2.874751e+85
-3.0239736e+85
4.1430713e+85
3.8103794e+85
-7.4619767e+86
-2.6171928e+85
4.2493507e+85
-2.9775386e+85
4.1062111e+85
-2.0008625e+85
-2.1520268e+85
4.9077918e+85
-2.3440243e+85
4.524688e+85
1.2817238e+85
5.8580528e+86
-7.3401885e+86
-2.2735323e+85
-2.8837866e+85
-3.0459308e+85
4.1206505e+85
3.7246906e+85
5.9808317e+86
-7.489139e+86
-2.7356581e+85
4.149476e+85
-3.0770591e+85
3.9895504e+85
1.6659821e+85
-2.5674347e+85
-2.1725884e+85
-2.3788243e+85
4.8621078e+85
4.4041199e+85
4.8519253e+85
-2.1031021e+85
-2.4406589e+85
4.6607767e+85
-5.7773307e+86
-1.3754554e+85
1.3718785e+85
-3.1750742e+85
3.5033232e+85
-3.5038287e+85
3.3627358e+85
-1.1156864e+85
1.1652942e+85
-7.3654949e+86
-3.3448306e+85
-3.6662851e+85
3.1866723e+85
3.0375531e+85
5.6801439e+86
-7.2205109e+86
-2.0443402e+85
-3.4568514e+85
-3.6025606e+85
3.2093757e+85
2.834851e+85
-2.3443464e+85
-3.2631563e+85
-3.4342719e+85
3.5128513e+85
3.1097016e+85
-5.7743266e+86
-1.2242048e+85
-3.0359717e+85
3.626449e+85
-3.3796294e+85
3.5016337e+85
1.0393685e+85
5.784361e+86
-7.3930179e+86
-3.4621664e+85
-3.5780988e+85
3.2171334e+85
2.9202817e+85
-7.3028228e+86
-3.1979704e+85
3.3168142e+85
-3.530431e+85
3.1953847e+85
-3.2668427e+85
-3.4145027e+85
3.5411962e+85
3.2052585e+85
-5.7271216e+86
-8.6076428e+84
-3.4169697e+85
3.1291762e+85
-3.7346815e+85
3.0353186e+85
5.6944633e+84
5.7695515e+86
-7.4463245e+86
-7.630252e+84
-3.7392231e+85
-3.8248804e+85
2.9682239e+85
2.7040601e+85
-7.3335906e+86
6.7405637e+84
-3.4618397e+85
3.0477496e+85
-3.7714235e+85
2.9673111e+85
-1.0729528e+85
-3.6603521e+85
-3.767344e+85
3.0497497e+85
2.7576325e+85
2.934798e+84
-5.8464763e+86
-5.8119671e+84
-3.8637109e+85
2.9818244e+85
-3.9420438e+85
2.7225005e+85
-5.7928797e+86
4.4180988e+84
-3.5894646e+85
3.0436679e+85
-3.8482e+85
3.0055922e+85
-2.7176769e+83
1.8364569e+84
2.7527503e+85
2.7005838e+85
-4.0509253e+85
-7.3483425e+86
-4.3431483e+85
-2.3912553e+84
2.6717971e+85
2.4236988e+85
-7.4371779e+86
-4.4230507e+85
-4.3342681e+85
-6.3331103e+85
-2.6530988e+87
7.1479089e+85
1.3295161e+86
1.2542983e+86
-1.963389e+86
-2.1775336e+86
1.3436346e+84
5.788406e+86
-6.6093031e+84
2.6912598e+85
2.4018523e+85
-7.3514667e+86
-4.4242134e+85
-4.3321048e+85
5.8682614e+86
2.6681586e+85
2.5880858e+85
-7.4965375e+86
-4.4869259e+85
-4.1992275e+85
-4.4562956e+84
7.4518776e+86
-3.7653576e+85
2.9042396e+85
-4.0075989e+85
2.8375334e+85
-2.7418912e+87
-8.5688303e+85
1.2069212e+86
1.3244414e+86
-2.1320509e+86
-2.1581342e+86
7.3373626e+86
-9.5448724e+84
-3.8760995e+85
2.9597524e+85
-3.9418274e+85
2.6551013e+85
5.7419476e+84
5.6836031e+86
-1.2095611e+85
-3.7416358e+85
2.9522744e+85
-3.8285599e+85
2.6401412e+85
5.7527498e+86
-3.6217441e+85
2.9072777e+85
-3.9035788e+85
2.8075788e+85
-1.1309265e+85
-3.5691295e+85
2.9786488e+85
-3.8660732e+85
2.85265e+85
-1.8092074e+85
-3.6610777e+85
3.0226806e+85
-3.8017146e+85
2.6556701e+85
7.6302077e+85
-1.2279605e+86
-3.4726054e+87
-2.3045142e+86
-2.2244911e+86
1.3132064e+86
1.1596548e+86
-3.3603295e+87
1.1066068e+86
1.2990806e+86
-2.1493403e+86
-2.3237924e+86
1.1649387e+86
-5.7042182e+86
-1.2215354e+85
7.2558478e+86
-3.4348922e+85
3.0843927e+85
-3.8039924e+85
2.9347915e+85
9.2888055e+84
5.7399442e+86
-7.437886e+86
-1.2559554e+85
-3.7446062e+85
-3.8772063e+85
2.9524437e+85
2.6306374e+85
-7.3433273e+86
-3.5083981e+85
2.9848863e+85
-3.8633802e+85
2.8478974e+85
-1.6142136e+85
7.3355235e+86
-3.6418811e+85
-3.8033652e+85
3.0380898e+85
2.6901804e+85
2.5418708e+84
5.8398172e+86
-5.1873038e+84
2.6745154e+85
2.3922887e+85
-7.4342104e+86
-4.4483433e+85
-4.3325565e+85
5.7997722e+86
2.7134572e+85
2.6123999e+85
-7.3775302e+86
-4.4337955e+85
-4.0894027e+85
5.4283229e+84
-8.7075254e+84
-3.8823521e+85
2.9476467e+85
-3.9839768e+85
2.6379371e+85
-3.6484221e+85
2.9631562e+85
-3.9474674e+85
2.866358e+85
-9.2716968e+85
-2.6721048e+87
1.2480132e+86
1.3458954e+86
-1.9628534e+86
-2.1877441e+86
3.5240432e+84
5.7443562e+86
2.7714519e+85
2.4650343e+85
-7.2864756e+86
-4.3554778e+85
-4.2518551e+85
5.8411538e+86
2.7132325e+85
2.595158e+85
-7.4541578e+86
-4.4570207e+85
-4.153932e+85
-6.5839967e+84
7.4241388e+86
-3.7257607e+85
2.9449771e+85
-3.9894942e+85
2.8276849e+85
-2.6902409e+87
1.1912248e+86
1.3431092e+86
-2.1003326e+86
-2.1247535e+86
7.2636821e+86
-3.7996488e+85
3.0152971e+85
-3.8779602e+85
2.6883816e+85
8.4773653e+84
5.6270604e+86
-3.6740736e+85
3.006032e+85
-3.8061593e+85
2.6469743e+85
-5.7252026e+86
-1.4938728e+85
7.3132591e+86
-3.5112792e+85
3.0259852e+85
-3.8626332e+85
2.8359916e+85
-3.5682731e+85
2.965862e+85
-3.8934381e+85
2.8029434e+85
7.1383973e+86
-3.605724e+85
3.0455095e+85
-3.803911e+85
2.6234812e+85
9.6920667e+85
-3.3792726e+87
-2.2573219e+86
-2.2754727e+86
1.2886167e+86
1.1487525e+86
-3.387678e+87
1.2479293e+86
-2.1767838e+86
-2.3199195e+86
1.1716857e+86
-5.8833042e+86
-2.6022327e+85
2.8204613e+85
-2.0664636e+85
4.7931844e+85
-2.4934885e+85
4.5250054e+85
1.9189482e+85
5.7753015e+86
-7.2483581e+86
-2.8441665e+85
-3.0830032e+85
4.1039798e+85
3.6202359e+85
2.3144641e+85
-7.4110481e+86
-2.7035298e+85
4.1225281e+85
-3.1223981e+85
3.8617959e+85
-2.1698537e+85
4.7466131e+85
-2.4557886e+85
4.216129e+85
-5.8920543e+86
-2.1191727e+85
-1.9887043e+85
4.8705002e+85
-2.3954399e+85
4.6715143e+85
1.7491198e+85
5.8893893e+86
-7.4340522e+86
-2.876984e+85
4.0984059e+85
-3.0897648e+85
3.6849867e+85
-7.3826742e+86
-2.654977e+85
4.1584429e+85
-3.0636656e+85
3.9639486e+85
-2.1830584e+85
-2.4475096e+85
4.7950752e+85
4.3237424e+85
-5.715256e+86
-1.6668744e+85
-3.0557126e+85
-3.4512863e+85
3.5377368e+85
3.3548284e+85
-1.3683828e+85
-3.209098e+85
3.2509532e+85
-3.5899881e+85
3.067558e+85
5.7416076e+86
-1.6935112e+85
-3.4521437e+85
-3.6205064e+85
3.1985165e+85
2.8297792e+85
-2.1390344e+85
-3.2663668e+85
-3.4827973e+85
3.5082703e+85
3.0939289e+85
1.4694318e+85
5.6199321e+86
-3.4101345e+85
-3.6122124e+85
3.2260327e+85
2.7860365e+85
5.7334641e+86
-3.2838496e+85
-3.6574597e+85
3.2309031e+85
3.0032388e+85
-1.9331674e+85
-3.1303616e+85
3.4904153e+85
-3.5246272e+85
3.2563324e+85
-3.2234404e+85
-3.4747443e+85
3.5116065e+85
3.0262188e+85
1.0769365e+88
-1.048287e+87
-1.2354767e+88
1.3285827e+87
-1.0908208e+87
-9.3648805e+86
1.0987678e+87
-3.3692294e+86
8.803195e+86
7.5970044e+86
-4.961706e+86
1.0787867e+88
-1.1983387e+88
-1.1272526e+87
9.0223064e+86
7.4035382e+86
-3.734572e+86
-4.5786053e+86
2.5109878e+87
-1.986076e+86
2.4935078e+86
-3.0408669e+87
1.4542959e+86
-1.6733634e+86
-1.962228e+86
1.3002002e+86
-1.0809463e+86
1.6639187e+86
1.2620699e+86
-2.1989684e+86
-2.3813965e+86
1.1861274e+86
-2.5723477e+87
-1.7588666e+86
1.3185884e+86
-2.3091547e+86
-2.3652649e+86
1.1630457e+86
-2.6372706e+86
-3.1173732e+87
-1.7631959e+86
-1.9583883e+86
1.4247234e+86
1.2282322e+86
2.5349803e+87
-2.0765259e+86
-3.0822605e+87
-1.9685494e+86
-1.6640494e+86
1.4371335e+86
1.2963295e+86
-1.2345479e+86
-2.2180875e+86
-2.3867292e+86
1.2223907e+86
1.1653968e+86
-2.4990249e+87
-2.2323872e+86
-2.3207967e+86
1.3205814e+86
1.1437993e+86
-3.0178164e+87
-1.9114269e+86
-1.6908312e+86
1.4430358e+86
1.2005206e+86
1.126293e+86
-1.4375491e+86
6.1943948e+84
-6.3704011e+84
-7.2351856e+84
6.1924369e+84
6.6468989e+84
6.7536134e+84
-6.1390005e+84
7.077009e+84
6.6766103e+84
-6.9947059e+84
1.1183058e+86
-3.8532972e+84
-1.4355948e+86
5.7121999e+84
-7.4512499e+84
-6.5960053e+84
6.3716593e+84
5.941645e+84
-3.9709819e+84
6.2489284e+84
-7.3357535e+84
-6.475586e+84
6.501361e+84
6.0725705e+84
1.1347112e+86
-1.4657895e+86
5.7352293e+84
-7.0150326e+84
6.4789424e+84
-7.3931603e+84
6.6488986e+84
-6.8501534e+84
-7.2337857e+84
5.8757176e+84
2.7268987e+87
2.6881395e+87
1.4961132e+87
2.5436085e+87
2.4011773e+87
-2.8037734e+86
-2.3792194e+87
3.5495926e+86
1.8960337e+86
1.5921012e+86
-8.818997e+85
-1.3019343e+86
-2.4552746e+87
1.9017484e+86
-1.0332826e+86
-3.0852161e+86
4.2571862e+86
-1.0917456e+86
-1.2374746e+86
-5.9610292e+86
-2.588379e+85
7.8503483e+86
3.1616241e+85
3.1238684e+85
-5.0203593e+85
-5.3918826e+85
2.9917661e+85
-4.3365699e+85
5.63253e+85
-7.3035022e+86
3.0515513e+85
-4.6306518e+85
-5.2232175e+85
2.8153822e+85
6.0532085e+86
-5.1637287e+85
-7.4879926e+86
-5.1893988e+85
-4.8897453e+85
3.1038583e+85
2.7087203e+85
7.9223235e+86
-2.8523189e+85
2.8988546e+85
-5.4031275e+85
-5.4028559e+85
2.7152477e+85
-6.1158643e+86
-4.3720425e+84
7.7261333e+86
1.1840135e+85
2.9582314e+85
-4.6755822e+85
-4.9300622e+85
2.861413e+85
-1.2284795e+85
2.0151016e+85
2.7916565e+85
-4.9408496e+85
-5.2273143e+85
2.7827647e+85
6.1221402e+86
-1.2836543e+85
-5.2816076e+85
-5.3642053e+85
2.6533665e+85
2.5379462e+85
-6.1033315e+84
7.8214086e+86
2.6649982e+85
-5.1295931e+85
-5.0293517e+85
2.5372719e+85
-6.184663e+86
-6.7841171e+84
7.9223697e+86
2.9438298e+85
-4.7511357e+85
-5.070233e+85
2.8956152e+85
-1.1210981e+85
-7.9298164e+86
2.7004491e+85
-5.231132e+85
-5.4050032e+85
2.7082376e+85
6.1569323e+86
-7.9416698e+86
-5.1961601e+85
-5.1583803e+85
2.9526833e+85
2.675834e+85
7.797585e+86
2.8104437e+85
-4.9821876e+85
-4.9052876e+85
2.6252074e+85
6.0326902e+86
-7.4522158e+86
3.0543035e+85
-4.7148604e+85
-5.3062033e+85
2.8013305e+85
-2.1383013e+85
-5.558502e+85
-5.2058734e+85
2.8477869e+85
2.7992998e+85
3.0818061e+85
-5.3261562e+85
6.4208867e+83
5.9652093e+86
-4.7571067e+85
-4.7705898e+85
2.6905685e+85
2.4820615e+85
6.0725315e+86
3.2632481e+84
-4.7456766e+85
-4.4874638e+85
2.7989318e+85
2.7558832e+85
-2.620475e+84
6.2847494e+84
7.6561362e+86
2.7265459e+85
-4.3952843e+85
-4.6178899e+85
2.6790518e+85
7.4859028e+86
2.6988188e+85
-4.5461211e+85
-4.5700949e+85
2.4384047e+85
-1.5420423e+84
5.9314529e+86
6.4999419e+84
2.8277779e+85
-4.3169117e+85
-4.6692669e+85
2.7619423e+85
5.9951596e+86
-4.8280039e+85
-4.8478369e+85
2.6254061e+85
2.4669606e+85
-2.3477949e+84
7.4550701e+86
6.4833124e+84
-4.4651513e+85
-4.1486201e+85
2.8057307e+85
2.7479056e+85
7.5888573e+86
2.695841e+85
-4.5853275e+85
-4.597566e+85
2.4855038e+85
-3.2691906e+84
5.7229333e+86
7.067253e+84
2.7916474e+85
-4.0336377e+85
-4.3313751e+85
2.7123622e+85
5.8075721e+86
-5.7747208e+84
-4.4267249e+85
-4.3686537e+85
2.7112778e+85
2.4764915e+85
-6.1816007e+84
1.0106214e+85
-4.2606094e+85
-3.9340618e+85
2.7089228e+85
2.6087617e+85
-1.0955933e+85
2.6683847e+85
-4.2498245e+85
-4.3413111e+85
2.3924056e+85
-2.7199044e+84
5.8435475e+86
2.7120126e+85
-4.2121992e+85
-4.485683e+85
2.6128226e+85
5.7345484e+86
-4.4465585e+85
-4.3634061e+85
2.6680386e+85
2.3764504e+85
-9.8205989e+84
-4.4225818e+85
-4.0821816e+85
2.6521901e+85
2.5079858e+85
2.6057397e+85
-4.2623177e+85
-4.3815229e+85
2.2632298e+85
1.1258404e+86
-3.3590931e+84
-1.4559437e+86
4.940317e+84
5.8428677e+84
-6.8653579e+84
6.2171144e+84
-7.7004648e+84
-3.5309203e+84
5.6605408e+84
-6.7755432e+84
6.3428279e+84
5.9355284e+84
-7.5954201e+84
1.1409379e+86
-1.4836909e+86
-3.9070807e+84
-7.6720537e+84
5.5615784e+84
-7.3146974e+84
6.2921241e+84
-7.1778463e+84
6.4742147e+84
-7.5835185e+84
5.718326e+84
-2.6762658e+84
1.1656122e+86
3.331831e+84
-1.5121921e+86
-7.1840709e+84
6.3128287e+84
5.8710937e+84
-7.9203618e+84
-1.4828909e+86
-7.7950044e+84
-7.4861353e+84
6.2245158e+84
5.4433905e+84
3.480518e+84
1.485114e+86
5.9117362e+84
-7.1694536e+84
6.2468484e+84
-7.8122309e+84
1.1478721e+86
-2.9019748e+84
-1.4812529e+86
4.152579e+84
6.0501746e+84
-6.8915784e+84
6.3792203e+84
-7.7114066e+84
-2.9199487e+84
4.6229197e+84
-6.8696319e+84
6.3575415e+84
5.9942121e+84
-7.6541071e+84
1.1636707e+86
-1.5101525e+86
5.6968254e+84
-7.371626e+84
6.4156577e+84
-7.7297345e+84
-7.3083777e+84
6.4534474e+84
-7.607495e+84
5.7287949e+84
-7.1313002e+84
6.098938e+84
5.6870379e+84
-7.8669085e+84
1.1914189e+86
-2.0709561e+84
2.7865784e+84
-1.5575074e+86
-7.0569646e+84
-7.7853372e+84
6.5123436e+84
6.1423182e+84
-2.639103e+84
3.1352417e+84
-7.9515938e+84
6.3555132e+84
5.987851e+84
-7.2192332e+84
1.171859e+86
-1.5248831e+86
-3.523565e+84
-7.2605174e+84
-7.5954018e+84
5.7465742e+84
6.524577e+84
-7.5364435e+84
-7.8719651e+84
6.3393608e+84
5.5539751e+84
1.1731282e+86
-2.136181e+84
-1.5214745e+86
2.8273745e+84
6.2786946e+84
-6.7225418e+84
6.6360704e+84
-7.5276052e+84
-2.36436e+84
3.635578e+84
-6.9244707e+84
6.4676522e+84
6.1232458e+84
-7.7276808e+84
1.185573e+86
-1.5475329e+86
5.9957391e+84
-7.096432e+84
6.7099865e+84
-7.4862225e+84
-7.381252e+84
6.5309266e+84
-7.7476654e+84
5.808856e+84
-1.7223605e+84
-1.2259269e+86
2.630558e+84
-7.4531064e+84
-8.1668585e+84
6.0735244e+84
5.7353465e+84
-1.2405239e+86
-2.332545e+84
6.1647834e+84
5.4400247e+84
-7.9932976e+84
-8.2954842e+84
-1.7470416e+84
2.4451839e+84
-1.5616886e+86
-8.0578972e+84
-2.0042686e+84
-1.5905842e+86
-8.9578622e+84
-2.3401503e+84
-1.2470125e+86
-7.6457711e+84
-8.2870877e+84
6.0510045e+84
5.6870802e+84
-1.2282446e+86
-3.4335245e+84
6.0120358e+84
5.2232621e+84
-8.1540223e+84
-8.4014884e+84
1.8578689e+84
-2.7867282e+84
-1.5690971e+86
-9.8438021e+84
-1.5975283e+86
-8.7611544e+84
-2.3922926e+84
-1.2321861e+86
1.5288449e+86
-7.7405053e+84
-8.4493806e+84
5.8747532e+84
5.5215783e+84
-1.2427713e+86
5.9883209e+84
5.2103701e+84
-8.0974687e+84
-8.4068212e+84
-2.1643256e+84
-1.5726101e+86
-9.1044029e+84
-1.5957763e+86
-9.7811105e+84
5.9462843e+84
-6.9807414e+84
6.2989932e+84
-7.7673667e+84
-5.093945e+84
6.4745295e+84
1.1912778e+85
1.2077865e+85
-1.5595013e+86
-2.7270726e+84
-3.5601168e+84
-6.4293673e+84
1.2178608e+85
1.1108108e+85
-1.5772921e+86
-3.115905e+84
-3.650733e+84
4.9107962e+84
1.2288821e+85
1.0966e+85
-1.5295026e+86
-2.955396e+84
-3.4688056e+84
1.2017773e+85
1.1748706e+85
-1.5690192e+86
-3.6082974e+84
-2.8362281e+84
-4.3910424e+84
5.7680771e+84
1.2275895e+85
1.2247303e+85
-1.5591886e+86
-2.4911302e+84
-3.2781612e+84
-5.5543996e+84
1.248131e+85
1.1626537e+85
-1.5870249e+86
-2.9239099e+84
-3.4142526e+84
-4.4574921e+84
1.1980711e+85
1.2076229e+85
-1.5790993e+86
-2.8385637e+84
-3.5789393e+84
1.2192204e+85
1.0969517e+85
-1.544102e+86
-2.985695e+84
-3.5357542e+84
3.9393691e+84
-4.8704052e+84
1.2508514e+85
1.1511949e+85
-1.5930265e+86
-2.9789154e+84
-3.3998823e+84
4.7796172e+84
1.225739e+85
1.2555074e+85
-1.5747842e+86
-3.1986431e+84
-2.5979626e+84
3.8724743e+84
1.2508048e+85
1.1378947e+85
-1.5494901e+86
-2.8414256e+84
-3.272326e+84
1.2378381e+85
1.2358721e+85
-1.5886663e+86
-3.3810509e+84
-2.7187023e+84
-3.5486716e+84
1.2396384e+85
1.2834602e+85
-1.5666793e+86
-2.9530106e+84
-2.3517279e+84
-3.9583564e+84
1.2844813e+85
1.1993873e+85
-1.5974109e+86
-3.0670217e+84
-2.739235e+84
-3.1090779e+84
1.2454515e+85
1.2382778e+85
-1.5927251e+86
-2.6981311e+84
-3.2997904e+84
1.2792905e+85
1.1563029e+85
-1.562293e+86
-3.1774626e+84
-2.7970336e+84
7.9550976e+86
8.499494e+86
7.3705501e+86
-1.4135653e+88
-6.912259e+86
-7.8624622e+86
8.5520432e+86
7.4946461e+86
7.0673974e+86
-1.4200042e+88
-7.9209441e+86
-6.9483792e+86
-1.5236001e+86
-7.1874185e+85
7.3426802e+85
2.0643498e+86
2.2472238e+86
-3.0478587e+87
-7.6681766e+85
-9.2661274e+85
1.9266351e+85
-2.7218002e+85
8.8556465e+85
-6.5946508e+86
9.4365924e+85
2.5693276e+85
-6.6073701e+86
-1.6452348e+86
1.982658e+86
-2.8474209e+87
1.2781502e+86
-2.8507372e+87
2.0172155e+86
2.2103541e+86
-3.0168353e+87
-7.9427842e+85
-9.615307e+85
-2.2767435e+85
9.2779737e+85
-6.5733885e+86
8.7640134e+85
-6.5537451e+86
-2.4361199e+84
3.5962536e+85
3.8046678e+85
3.9986772e+84
-1.4387364e+86
-1.4102089e+86
-1.0455338e+86
-1.0560853e+86
5.3826467e+84
3.7984295e+84
3.8731166e+85
3.5278622e+85
-1.4035518e+86
-1.4229811e+86
-1.0458876e+86
-1.0545378e+86
5.1313152e+84
3.8363175e+84
-5.8592661e+84
1.8855394e+85
6.9240053e+84
-7.0407641e+85
1.8245427e+85
-7.0432345e+85
3.82628e+84
5.9426154e+84
-1.7404209e+85
-1.7108789e+85
-1.2336006e+85
-1.2119722e+85
5.3088324e+84
4.285217e+84
-1.1850451e+85
-1.6911452e+85
-1.7861732e+85
-1.2664025e+85
-1.8548176e+85
2.9788218e+84
-8.3768183e+84
-1.0802551e+85
-1.1189407e+85
-8.7838945e+84
4.3571702e+84
-1.9414549e+85
-7.9053759e+84
-8.8742412e+84
-1.9249387e+85
-1.9548102e+85
2.8160521e+84
-1.0522752e+85
-1.1330067e+85
-8.6382299e+84
-7.8029251e+84
4.7504203e+84