/*--------------------------------*- C++ -*----------------------------------*\
  =========                 |
  \\      /  F ield         | OpenFOAM: The Open Source CFD Toolbox
   \\    /   O peration     | Website:  https://openfoam.org
    \\  /    A nd           | Version:  7
     \\/     M anipulation  |
\*---------------------------------------------------------------------------*/
FoamFile
{
    version     2.0;
    format      ascii;
    class       volScalarField;
    location    "2000";
    object      pMean;
}
// * * * * * * * * * * * * * * * * * * * * * * * * * * * * * * * * * * * * * //

dimensions      [0 2 -2 0 0 0 0];

internalField   nonuniform List<scalar> 
34356
(
-1.9791478e+179
-1.9968486e+179
-1.9664771e+179
-1.9643017e+179
-1.9511811e+179
-1.9536327e+179
-1.8453331e+179
-1.9450264e+179
-1.9448733e+179
-1.9696836e+179
-1.9734976e+179
-1.9693021e+179
-1.9727459e+179
-1.9876933e+179
-1.9875933e+179
-1.9902004e+179
-1.9909898e+179
-1.9872679e+179
-1.9905605e+179
-1.9880557e+179
-1.9889629e+179
-1.8892754e+179
-1.8488533e+179
-1.8487929e+179
-1.8886344e+179
-1.7441959e+179
-1.8171293e+179
-1.8186293e+179
-1.842779e+179
-1.8413989e+179
-1.7266359e+179
-1.7859224e+179
-1.8779968e+179
-1.8491919e+179
-1.9841784e+179
-1.9843552e+179
-1.984335e+179
-1.9831339e+179
-1.981457e+179
-1.9782844e+179
-1.9766772e+179
-1.9816674e+179
-1.9748262e+179
-1.985786e+179
-1.9738888e+179
-1.9856802e+179
-1.9793957e+179
-1.9786566e+179
-1.9821606e+179
-1.9826487e+179
-1.9754643e+179
-1.9750162e+179
-1.9869059e+179
-1.9861342e+179
-2.0009277e+179
-1.9977227e+179
-1.9981876e+179
-2.0024601e+179
-1.9978299e+179
-2.0021311e+179
-1.9973261e+179
-2.0004214e+179
-1.9980632e+179
-1.9976519e+179
-2.0020022e+179
-2.0009849e+179
-2.00083e+179
-1.9982616e+179
-1.9984462e+179
-2.0023406e+179
-1.9416816e+179
-1.9428945e+179
-1.9102906e+179
-1.9093782e+179
-1.8779339e+179
-1.8498643e+179
-1.8484891e+179
-1.8781549e+179
-1.7879279e+179
-1.8781312e+179
-1.8497558e+179
-1.8482864e+179
-1.8779057e+179
-1.7888697e+179
-1.9429605e+179
-1.9432053e+179
-1.9097366e+179
-1.9097044e+179
-1.7294316e+179
-1.7296758e+179
-1.7618958e+179
-1.7614843e+179
-1.7363535e+179
-1.7382975e+179
-1.9175608e+179
-1.6440087e+179
-1.67466e+179
-1.7373642e+179
-1.7667746e+179
-1.7668485e+179
-1.7368712e+179
-1.783235e+179
-1.7831697e+179
-1.8130493e+179
-1.8134258e+179
-1.8940152e+179
-1.8801268e+179
-1.879694e+179
-1.8604742e+179
-1.8602731e+179
-1.8463825e+179
-1.8465398e+179
-1.8463289e+179
-2.0048964e+179
-2.0036693e+179
-2.0039969e+179
-2.0045934e+179
-2.0038178e+179
-2.0036234e+179
-2.0032261e+179
-2.0037707e+179
-1.9505946e+179
-1.9513065e+179
-1.9834932e+179
-1.9738435e+179
-1.9713846e+179
-1.9824242e+179
-1.9900277e+179
-1.9829855e+179
-1.9824673e+179
-1.9900688e+179
-1.9849074e+179
-1.989809e+179
-1.9901121e+179
-1.9848465e+179
-1.9907993e+179
-1.9833237e+179
-1.9833531e+179
-1.9904022e+179
-1.9856058e+179
-1.9852669e+179
-1.9906306e+179
-1.9904798e+179
-1.9743769e+179
-1.9731434e+179
-1.9835925e+179
-1.9840373e+179
-1.9840213e+179
-1.9842447e+179
-1.9913469e+179
-1.9917033e+179
-1.9911681e+179
-1.9840726e+179
-1.9836671e+179
-1.9911697e+179
-1.9866603e+179
-1.9863194e+179
-1.9915823e+179
-1.9912727e+179
-1.9859336e+179
-1.9909937e+179
-1.9859898e+179
-1.9908158e+179
-2.003918e+179
-2.0043098e+179
-2.007438e+179
-2.0062565e+179
-2.0074283e+179
-2.0045665e+179
-2.0042621e+179
-2.006515e+179
-2.0063747e+179
-2.00429e+179
-2.0044602e+179
-2.0072899e+179
-2.0043821e+179
-2.0039727e+179
-2.0070984e+179
-2.0061067e+179
-2.0042244e+179
-2.0037731e+179
-2.0064462e+179
-2.0072298e+179
-2.0071786e+179
-2.0039663e+179
-2.0034052e+179
-2.0060435e+179
-2.0037659e+179
-2.0042191e+179
-2.006549e+179
-2.0077972e+179
-2.0042872e+179
-2.0040119e+179
-2.0076889e+179
-2.0066782e+179
-1.7955834e+179
-1.7839772e+179
-1.9769681e+179
-1.9601962e+179
-1.9595057e+179
-1.9779129e+179
-1.9606725e+179
-1.9609506e+179
-1.9778215e+179
-1.9784348e+179
-1.9357633e+179
-1.9169289e+179
-1.9170833e+179
-1.935628e+179
-1.9348692e+179
-1.9162691e+179
-1.9161905e+179
-1.9352346e+179
-1.892142e+179
-1.8778467e+179
-1.8776684e+179
-1.8924466e+179
-1.8594871e+179
-1.8592788e+179
-1.8456961e+179
-1.8461816e+179
-1.8137437e+179
-1.8458611e+179
-1.8460402e+179
-1.8595407e+179
-1.814116e+179
-1.8594521e+179
-1.8779762e+179
-1.8779998e+179
-1.8929473e+179
-1.8929795e+179
-1.788109e+179
-1.7861453e+179
-1.892747e+179
-1.8782591e+179
-1.8780689e+179
-1.8930419e+179
-1.8462448e+179
-1.8456738e+179
-1.8598675e+179
-1.8595257e+179
-1.8147963e+179
-1.8464625e+179
-1.846354e+179
-1.8600486e+179
-1.8133313e+179
-1.860239e+179
-1.8788161e+179
-1.8935136e+179
-1.8784967e+179
-1.8937151e+179
-1.786857e+179
-1.7872273e+179
-1.979396e+179
-1.9607871e+179
-1.9615391e+179
-1.9780766e+179
-1.9781721e+179
-1.9611354e+179
-1.9606376e+179
-1.979058e+179
-1.935785e+179
-1.9169203e+179
-1.9170052e+179
-1.9363118e+179
-1.9173808e+179
-1.9173004e+179
-1.9365581e+179
-1.9361498e+179
-1.6441724e+179
-1.6762012e+179
-1.6440499e+179
-1.6759133e+179
-1.7394406e+179
-1.769027e+179
-1.7712211e+179
-1.7399922e+179
-1.73874e+179
-1.7696684e+179
-1.7705178e+179
-1.7399527e+179
-1.9386938e+179
-1.9495186e+179
-1.9163214e+179
-1.9245835e+179
-1.9161829e+179
-1.9245358e+179
-1.6051957e+179
-1.710694e+179
-1.7106354e+179
-1.6828393e+179
-1.6806596e+179
-1.7589064e+179
-1.7475179e+179
-1.7462411e+179
-1.7595628e+179
-1.7710447e+179
-1.7638199e+179
-1.7641698e+179
-1.7718625e+179
-1.7711332e+179
-1.7639394e+179
-1.7625075e+179
-1.7701236e+179
-1.7454339e+179
-1.7589202e+179
-1.7567612e+179
-1.783436e+179
-1.784445e+179
-1.7964013e+179
-1.7956326e+179
-1.7842023e+179
-1.78449e+179
-1.7963192e+179
-1.7964877e+179
-1.8120955e+179
-1.8124926e+179
-1.8258647e+179
-1.8261918e+179
-1.8121422e+179
-1.8120802e+179
-1.8258339e+179
-1.8250876e+179
-1.8947878e+179
-1.9019753e+179
-1.8947474e+179
-1.9018824e+179
-1.8775466e+179
-1.8776803e+179
-1.8834976e+179
-1.8773657e+179
-1.8833566e+179
-1.8773656e+179
-1.8833746e+179
-1.8948074e+179
-1.8590415e+179
-1.865205e+179
-1.8591863e+179
-1.8652528e+179
-1.8589409e+179
-1.8650244e+179
-1.8590532e+179
-1.8651337e+179
-1.8478376e+179
-1.8479027e+179
-1.8427871e+179
-1.8427938e+179
-1.848071e+179
-1.848108e+179
-1.8429992e+179
-1.8430081e+179
-1.8479635e+179
-1.8476131e+179
-1.8429158e+179
-1.8425102e+179
-1.8590303e+179
-2.0118434e+179
-2.0122182e+179
-2.0114893e+179
-2.0120528e+179
-2.0114772e+179
-2.0121053e+179
-2.0122726e+179
-2.0118383e+179
-2.0117732e+179
-2.0115765e+179
-2.0113189e+179
-2.0119196e+179
-2.0112299e+179
-2.0117813e+179
-2.0119384e+179
-2.0114952e+179
-1.9215449e+179
-1.9221045e+179
-1.9818978e+179
-1.9943307e+179
-1.9942177e+179
-1.9557738e+179
-1.9549731e+179
-1.9809451e+179
-1.9939476e+179
-1.9933044e+179
-2.0019104e+179
-2.0016882e+179
-1.9934324e+179
-1.9933381e+179
-1.9945456e+179
-1.9943946e+179
-1.9972564e+179
-1.9998778e+179
-1.9975733e+179
-2.0008207e+179
-1.9979687e+179
-2.0010804e+179
-1.997878e+179
-2.0011693e+179
-1.9938017e+179
-1.9938175e+179
-1.9947151e+179
-1.994718e+179
-2.002405e+179
-2.002187e+179
-1.9941732e+179
-1.9941707e+179
-1.9948263e+179
-1.9948216e+179
-1.9939127e+179
-1.9939872e+179
-1.9946247e+179
-1.9950324e+179
-1.9980767e+179
-1.9981284e+179
-2.0011134e+179
-2.0005086e+179
-2.0010968e+179
-2.0005791e+179
-1.9979835e+179
-1.9979138e+179
-1.9563325e+179
-1.9559204e+179
-1.981592e+179
-1.9944886e+179
-1.9949506e+179
-1.982505e+179
-1.9951612e+179
-1.9947848e+179
-2.0029974e+179
-2.003052e+179
-2.0027775e+179
-2.0025495e+179
-1.9872347e+179
-1.9956043e+179
-1.9950785e+179
-1.9950803e+179
-1.9954212e+179
-1.9947341e+179
-1.9948613e+179
-1.9951477e+179
-1.9954143e+179
-1.9989638e+179
-2.0009557e+179
-1.9989735e+179
-2.0013877e+179
-1.9987375e+179
-2.0013055e+179
-2.0007597e+179
-1.9985337e+179
-1.9946034e+179
-1.994566e+179
-1.9950995e+179
-1.9951087e+179
-1.9985377e+179
-2.0009457e+179
-1.9984383e+179
-2.001139e+179
-1.9941794e+179
-1.9942994e+179
-1.9948514e+179
-1.9951567e+179
-1.9981579e+179
-1.9979531e+179
-2.0007242e+179
-1.9998474e+179
-2.0072147e+179
-2.0073976e+179
-2.0109409e+179
-2.0118264e+179
-2.0067902e+179
-2.0071989e+179
-2.0119072e+179
-2.0111638e+179
-2.0073284e+179
-2.0112197e+179
-2.0075628e+179
-2.0119147e+179
-2.0116326e+179
-2.0075176e+179
-2.0070672e+179
-2.0106833e+179
-2.0072736e+179
-2.0072161e+179
-2.0107826e+179
-2.0115623e+179
-2.0069069e+179
-2.0073186e+179
-2.0113873e+179
-2.0106773e+179
-2.0069307e+179
-2.0070485e+179
-2.0106868e+179
-2.0114037e+179
-2.0075292e+179
-2.0067654e+179
-2.0114131e+179
-2.010406e+179
-2.0064407e+179
-2.0068295e+179
-2.0116654e+179
-2.0109418e+179
-2.0064221e+179
-2.0063697e+179
-2.0111165e+179
-2.0118258e+179
-2.006589e+179
-2.0068281e+179
-2.0109443e+179
-2.0116083e+179
-2.0067302e+179
-2.0069402e+179
-2.0113141e+179
-2.0104325e+179
-2.0064954e+179
-2.0062955e+179
-2.0108095e+179
-2.0118535e+179
-2.0119998e+179
-2.006784e+179
-2.0063555e+179
-2.0112744e+179
-2.0067858e+179
-2.0066767e+179
-2.0113847e+179
-2.0120816e+179
-2.0065005e+179
-2.0070263e+179
-2.0119951e+179
-2.0110033e+179
-1.5697214e+179
-1.8040568e+179
-1.7997684e+179
-1.7997598e+179
-1.8037616e+179
-1.7912017e+179
-1.7871398e+179
-1.7909124e+179
-1.8458571e+179
-1.8126976e+179
-1.8591222e+179
-1.87758e+179
-1.7868375e+179
-1.6775987e+179
-1.6456246e+179
-1.6454916e+179
-1.7688838e+179
-1.7387473e+179
-1.9907093e+179
-1.9958719e+179
-1.9911474e+179
-1.9966157e+179
-1.9663411e+179
-1.9664712e+179
-1.9774777e+179
-1.9773032e+179
-1.9660095e+179
-1.9768725e+179
-1.9661187e+179
-1.9772742e+179
-1.9913399e+179
-1.9968399e+179
-1.9911895e+179
-1.9962635e+179
-1.9670108e+179
-1.9669955e+179
-1.9780308e+179
-1.977742e+179
-1.9666531e+179
-1.977424e+179
-1.9669494e+179
-1.977946e+179
-1.9918398e+179
-1.991519e+179
-1.9971381e+179
-1.9964616e+179
-1.9963342e+179
-1.9912012e+179
-1.9916211e+179
-1.9968771e+179
-1.9382138e+179
-1.9493209e+179
-1.9385349e+179
-1.9497404e+179
-1.9154153e+179
-1.9156745e+179
-1.9238266e+179
-1.9241697e+179
-1.9158407e+179
-1.9159335e+179
-1.9243116e+179
-1.9242515e+179
-1.9385844e+179
-1.93852e+179
-1.9498595e+179
-1.9496709e+179
-1.9375659e+179
-1.9485951e+179
-1.9376777e+179
-1.9488284e+179
-1.9149565e+179
-1.9151856e+179
-1.923507e+179
-1.9236469e+179
-1.9149561e+179
-1.923337e+179
-1.9148546e+179
-1.9233855e+179
-1.9378518e+179
-1.9380039e+179
-1.949096e+179
-1.9491294e+179
-1.8933036e+179
-1.9004977e+179
-1.893237e+179
-1.9004126e+179
-1.8755566e+179
-1.8757475e+179
-1.8816777e+179
-1.8818272e+179
-1.8755966e+179
-1.8816776e+179
-1.8754225e+179
-1.8815474e+179
-1.8933481e+179
-1.893539e+179
-1.9005502e+179
-1.9007253e+179
-1.8571929e+179
-1.8630754e+179
-1.8574191e+179
-1.8632133e+179
-1.8571804e+179
-1.8631143e+179
-1.8571149e+179
-1.8629779e+179
-1.8464559e+179
-1.846294e+179
-1.8414063e+179
-1.8251844e+179
-1.8413093e+179
-1.8465804e+179
-1.8467817e+179
-1.8254852e+179
-1.8418782e+179
-1.8415283e+179
-1.8120612e+179
-1.8126147e+179
-1.8468981e+179
-1.8469388e+179
-1.8250373e+179
-1.8420135e+179
-1.8418521e+179
-1.8467808e+179
-1.8467433e+179
-1.8251712e+179
-1.8418135e+179
-1.8418334e+179
-1.8574215e+179
-1.8632998e+179
-1.8575308e+179
-1.8633909e+179
-1.8122142e+179
-1.8127283e+179
-1.8576167e+179
-1.8635413e+179
-1.8577175e+179
-1.8635872e+179
-1.8760495e+179
-1.8822998e+179
-1.8761273e+179
-1.8823284e+179
-1.8758308e+179
-1.881944e+179
-1.8758946e+179
-1.8821037e+179
-1.8937473e+179
-1.9009886e+179
-1.8939763e+179
-1.9012828e+179
-1.8941722e+179
-1.901503e+179
-1.894178e+179
-1.9015137e+179
-1.7860665e+179
-1.7865705e+179
-1.7975562e+179
-1.7973264e+179
-1.7967645e+179
-1.7851329e+179
-1.7855389e+179
-1.7972842e+179
-1.8941505e+179
-1.9013493e+179
-1.8941375e+179
-1.9013292e+179
-1.8761739e+179
-1.8764284e+179
-1.8823823e+179
-1.8825575e+179
-1.8761767e+179
-1.8823423e+179
-1.8760464e+179
-1.882259e+179
-1.8942413e+179
-1.8944478e+179
-1.9014677e+179
-1.9016685e+179
-1.8470903e+179
-1.8472988e+179
-1.8257861e+179
-1.8423925e+179
-1.8420289e+179
-1.8470105e+179
-1.8468307e+179
-1.8256059e+179
-1.8418154e+179
-1.8419429e+179
-1.8578105e+179
-1.863663e+179
-1.8580817e+179
-1.8639068e+179
-1.8577323e+179
-1.8636521e+179
-1.8577216e+179
-1.8635708e+179
-1.8135237e+179
-1.8133726e+179
-1.8474734e+179
-1.8476065e+179
-1.825381e+179
-1.8426931e+179
-1.8424014e+179
-1.8472688e+179
-1.8472655e+179
-1.8255581e+179
-1.8423118e+179
-1.8423012e+179
-1.8580617e+179
-1.8639333e+179
-1.858219e+179
-1.8641143e+179
-1.8130208e+179
-1.8125537e+179
-1.8583714e+179
-1.8644e+179
-1.8586827e+179
-1.8646964e+179
-1.8768794e+179
-1.8831029e+179
-1.8771264e+179
-1.8832065e+179
-1.8945397e+179
-1.9017853e+179
-1.8947657e+179
-1.9020323e+179
-1.8764821e+179
-1.8826257e+179
-1.8766264e+179
-1.8828395e+179
-1.8949479e+179
-1.9022242e+179
-1.8949538e+179
-1.902193e+179
-1.7857677e+179
-1.7850708e+179
-1.7972043e+179
-1.7965816e+179
-1.7974971e+179
-1.7860759e+179
-1.7862411e+179
-1.7977544e+179
-1.9921214e+179
-1.9972086e+179
-1.9925085e+179
-1.9978185e+179
-1.9675168e+179
-1.9672596e+179
-1.9784791e+179
-1.9778781e+179
-1.9674394e+179
-1.9781857e+179
-1.9677059e+179
-1.9786786e+179
-1.9922519e+179
-1.9977275e+179
-1.9916709e+179
-1.9968972e+179
-1.9914708e+179
-1.9964902e+179
-1.9920454e+179
-1.9974063e+179
-1.9672542e+179
-1.9783133e+179
-1.9674312e+179
-1.9781952e+179
-1.9669058e+179
-1.9776747e+179
-1.9671501e+179
-1.9782203e+179
-1.9921518e+179
-1.9920861e+179
-1.9975998e+179
-1.9971819e+179
-1.9383619e+179
-1.9385467e+179
-1.9495243e+179
-1.9498405e+179
-1.9157422e+179
-1.9241531e+179
-1.915718e+179
-1.9242681e+179
-1.9158187e+179
-1.9160699e+179
-1.9243631e+179
-1.9244957e+179
-1.9387205e+179
-1.9388871e+179
-1.9500191e+179
-1.95009e+179
-1.9164683e+179
-1.9165412e+179
-1.9249206e+179
-1.9247946e+179
-1.9161397e+179
-1.9163704e+179
-1.9244917e+179
-1.9248294e+179
-1.9388617e+179
-1.95012e+179
-1.9391869e+179
-1.9505063e+179
-1.939209e+179
-1.9390417e+179
-1.9504719e+179
-1.950045e+179
-1.601838e+179
-1.6834814e+179
-1.7123013e+179
-1.713397e+179
-1.6804542e+179
-1.6016978e+179
-1.7131579e+179
-1.7132085e+179
-1.6797448e+179
-1.6830624e+179
-1.7612442e+179
-1.7495916e+179
-1.7490891e+179
-1.7627946e+179
-1.7716674e+179
-1.7647618e+179
-1.7658768e+179
-1.773154e+179
-1.7730161e+179
-1.7660242e+179
-1.7655383e+179
-1.7726622e+179
-1.7483845e+179
-1.7482464e+179
-1.7620981e+179
-1.7615837e+179
-1.7484229e+179
-1.747898e+179
-1.7610318e+179
-1.761904e+179
-1.7649421e+179
-1.7657578e+179
-1.7728006e+179
-1.7735692e+179
-1.7657319e+179
-1.7649911e+179
-1.7729498e+179
-1.7718144e+179
-1.7489395e+179
-1.7487257e+179
-1.7619533e+179
-1.7610209e+179
-1.9363996e+179
-1.9363381e+179
-1.9426671e+179
-1.9427164e+179
-1.9509355e+179
-1.9574901e+179
-1.9575342e+179
-1.9509457e+179
-1.9130523e+179
-1.9131313e+179
-1.9170748e+179
-1.9169972e+179
-1.9237336e+179
-1.9237694e+179
-1.9280594e+179
-1.9280094e+179
-1.9168621e+179
-1.9129837e+179
-1.9169345e+179
-1.9129735e+179
-1.9279529e+179
-1.9236754e+179
-1.9236204e+179
-1.9278636e+179
-1.6767144e+179
-1.6727759e+179
-1.733754e+179
-1.733606e+179
-1.734213e+179
-1.7286408e+179
-1.7326946e+179
-1.7274315e+179
-1.7552604e+179
-1.7556177e+179
-1.7567439e+179
-1.7571889e+179
-1.757567e+179
-1.7555912e+179
-1.7556882e+179
-1.7590162e+179
-1.7538611e+179
-1.7547872e+179
-1.7580132e+179
-1.7572008e+179
-1.7574477e+179
-1.7563729e+179
-1.7560254e+179
-1.7571458e+179
-1.779221e+179
-1.7758849e+179
-1.7760903e+179
-1.7794596e+179
-1.7693451e+179
-1.7647196e+179
-1.7657174e+179
-1.7696242e+179
-1.7648267e+179
-1.7652066e+179
-1.7694929e+179
-1.7690201e+179
-1.7795058e+179
-1.7759537e+179
-1.775805e+179
-1.7794147e+179
-1.7790623e+179
-1.7758047e+179
-1.7756171e+179
-1.7786298e+179
-1.7682448e+179
-1.764163e+179
-1.7645899e+179
-1.768542e+179
-1.7647611e+179
-1.7651388e+179
-1.7686409e+179
-1.7683744e+179
-1.7785691e+179
-1.775485e+179
-1.775468e+179
-1.7786939e+179
-1.7570965e+179
-1.7534659e+179
-1.7537398e+179
-1.7578593e+179
-1.7561531e+179
-1.7557924e+179
-1.7567129e+179
-1.7571569e+179
-1.7570109e+179
-1.7565948e+179
-1.7753232e+179
-1.778814e+179
-1.7872041e+179
-1.7871868e+179
-1.7914815e+179
-1.7914291e+179
-1.7873702e+179
-1.7876064e+179
-1.7919237e+179
-1.791432e+179
-1.80453e+179
-1.7999446e+179
-1.7996748e+179
-1.8040782e+179
-1.8041999e+179
-1.7999531e+179
-1.7999293e+179
-1.804218e+179
-1.7925299e+179
-1.7881412e+179
-1.7881852e+179
-1.7923044e+179
-1.7877247e+179
-1.7879302e+179
-1.7922216e+179
-1.7920013e+179
-1.8006147e+179
-1.8006257e+179
-1.8051776e+179
-1.8049362e+179
-1.8049012e+179
-1.8005777e+179
-1.8003854e+179
-1.8048942e+179
-1.8189217e+179
-1.8140845e+179
-1.8140279e+179
-1.818817e+179
-1.8141025e+179
-1.8141108e+179
-1.8189275e+179
-1.8188884e+179
-1.8279425e+179
-1.8279663e+179
-1.8334745e+179
-1.8333754e+179
-1.8333709e+179
-1.8279643e+179
-1.8279843e+179
-1.8334776e+179
-1.8187274e+179
-1.8139287e+179
-1.81352e+179
-1.8182766e+179
-1.8134221e+179
-1.8135559e+179
-1.8182632e+179
-1.8179221e+179
-1.8274562e+179
-1.8279096e+179
-1.8334405e+179
-1.8328126e+179
-1.8325842e+179
-1.8272522e+179
-1.8268719e+179
-1.8322742e+179
-1.8958648e+179
-1.892667e+179
-1.895994e+179
-1.8926204e+179
-1.9022891e+179
-1.9057812e+179
-1.905722e+179
-1.9022158e+179
-1.8926483e+179
-1.8958791e+179
-1.8925978e+179
-1.8958759e+179
-1.9021807e+179
-1.9056759e+179
-1.9021701e+179
-1.9056038e+179
-1.8751678e+179
-1.8776726e+179
-1.8776104e+179
-1.8751793e+179
-1.8752719e+179
-1.8752304e+179
-1.8777144e+179
-1.8777439e+179
-1.8861393e+179
-1.8835993e+179
-1.8861689e+179
-1.8836036e+179
-1.8774869e+179
-1.8749976e+179
-1.8775693e+179
-1.8749848e+179
-1.8834906e+179
-1.8861222e+179
-1.8860984e+179
-1.883468e+179
-1.8776162e+179
-1.8750454e+179
-1.8775709e+179
-1.8751351e+179
-1.8835273e+179
-1.8861304e+179
-1.8835918e+179
-1.8861915e+179
-1.8926376e+179
-1.8958804e+179
-1.8958433e+179
-1.8926199e+179
-1.8593326e+179
-1.8593047e+179
-1.8607289e+179
-1.8606981e+179
-1.8666034e+179
-1.8685968e+179
-1.8685711e+179
-1.8666078e+179
-1.8594679e+179
-1.8593639e+179
-1.8607317e+179
-1.8608167e+179
-1.8665996e+179
-1.866543e+179
-1.86863e+179
-1.8686347e+179
-1.8605811e+179
-1.8592685e+179
-1.8605675e+179
-1.8593617e+179
-1.866356e+179
-1.8683822e+179
-1.8683887e+179
-1.8664153e+179
-1.8607046e+179
-1.8594615e+179
-1.8607315e+179
-1.8594167e+179
-1.8665011e+179
-1.8684931e+179
-1.8665247e+179
-1.8685672e+179
-1.8529704e+179
-1.8530806e+179
-1.8531057e+179
-1.8532038e+179
-1.8533281e+179
-1.8532218e+179
-1.8532433e+179
-1.8531138e+179
-1.8424051e+179
-1.8424742e+179
-1.8532445e+179
-1.8532339e+179
-1.8533337e+179
-1.8532886e+179
-1.8534205e+179
-1.853237e+179
-1.8532403e+179
-1.852926e+179
-1.842313e+179
-1.8424936e+179
-1.8529484e+179
-1.8528314e+179
-1.8532986e+179
-1.8530945e+179
-1.8531071e+179
-1.8528569e+179
-1.8528895e+179
-1.8526788e+179
-1.8420942e+179
-1.8419044e+179
-1.8605174e+179
-1.8593616e+179
-1.8606952e+179
-1.8592198e+179
-2.0152642e+179
-2.0158322e+179
-2.0157555e+179
-2.015366e+179
-2.0155665e+179
-2.0148207e+179
-2.0157627e+179
-2.0153367e+179
-2.0150389e+179
-2.0156506e+179
-2.0157611e+179
-2.0153711e+179
-2.0155383e+179
-2.0161377e+179
-2.0158219e+179
-2.0152333e+179
-2.0154615e+179
-2.015111e+179
-2.0156605e+179
-2.0150489e+179
-2.0152951e+179
-2.0147469e+179
-2.0156359e+179
-2.0151318e+179
-2.0152811e+179
-2.014565e+179
-2.0149806e+179
-2.0153982e+179
-2.0152014e+179
-2.0157086e+179
-2.0149001e+179
-2.0155274e+179
-1.9220297e+179
-1.8705011e+179
-1.9410509e+179
-1.9429186e+179
-1.8706351e+179
-1.9420086e+179
-1.9431373e+179
-1.9949678e+179
-1.994815e+179
-1.9680407e+179
-2.0017814e+179
-2.0016239e+179
-1.9937693e+179
-1.9945032e+179
-1.969289e+179
-2.0013168e+179
-2.0005688e+179
-2.0092962e+179
-2.0085277e+179
-2.0152257e+179
-2.0153654e+179
-2.0063309e+179
-2.0062122e+179
-2.0080624e+179
-2.0090565e+179
-2.0152364e+179
-2.0150051e+179
-2.0060501e+179
-2.0059201e+179
-2.0020805e+179
-2.0017637e+179
-2.0030796e+179
-2.0031548e+179
-2.0033384e+179
-2.0020077e+179
-2.0022217e+179
-2.0033264e+179
-1.9990251e+179
-2.0005922e+179
-2.0006083e+179
-1.9988939e+179
-1.9953553e+179
-1.9984786e+179
-1.9977874e+179
-1.9947076e+179
-2.0011044e+179
-2.0010028e+179
-1.9994663e+179
-1.9995993e+179
-1.9983651e+179
-1.9984248e+179
-1.9950022e+179
-1.9949153e+179
-2.001426e+179
-2.0014357e+179
-1.9997553e+179
-1.99982e+179
-1.9951748e+179
-1.9985581e+179
-1.9987712e+179
-1.9951978e+179
-2.0011825e+179
-2.0012415e+179
-1.999871e+179
-1.9997144e+179
-1.9985117e+179
-1.9988649e+179
-1.9951791e+179
-1.9948884e+179
-2.0024949e+179
-2.0022252e+179
-2.0035725e+179
-2.0036241e+179
-2.0035226e+179
-2.0024292e+179
-2.0021653e+179
-2.0034572e+179
-2.0095892e+179
-2.0086916e+179
-2.0157535e+179
-2.0156144e+179
-2.0068509e+179
-2.0067834e+179
-2.0087121e+179
-2.0094902e+179
-2.015676e+179
-2.0155534e+179
-2.0066957e+179
-2.00654e+179
-2.0039119e+179
-2.0025096e+179
-2.0039946e+179
-2.0028045e+179
-2.0027535e+179
-2.0024997e+179
-2.0039265e+179
-2.0038796e+179
-2.0037842e+179
-2.0024168e+179
-2.0038282e+179
-2.0026905e+179
-2.0025497e+179
-2.0023151e+179
-2.0036945e+179
-2.0036761e+179
-1.9998735e+179
-2.0017302e+179
-2.00178e+179
-2.000012e+179
-2.0017106e+179
-2.0017125e+179
-1.9999133e+179
-2.0001206e+179
-1.998804e+179
-1.995017e+179
-1.9948137e+179
-1.9985147e+179
-1.9951721e+179
-1.9987024e+179
-1.9986439e+179
-1.9949411e+179
-1.9984114e+179
-1.9985155e+179
-1.9952889e+179
-1.9950993e+179
-1.9952058e+179
-1.9984124e+179
-1.9980413e+179
-1.9949023e+179
-2.0016199e+179
-2.0016559e+179
-1.9997413e+179
-1.9998562e+179
-2.0013113e+179
-2.0012915e+179
-1.9993866e+179
-1.9994771e+179
-1.9555931e+179
-1.9565371e+179
-1.9825337e+179
-1.9950435e+179
-1.9954727e+179
-1.9683989e+179
-2.0021522e+179
-2.0016641e+179
-1.995634e+179
-1.9951267e+179
-1.9698185e+179
-2.0018826e+179
-2.0020631e+179
-2.003082e+179
-2.0093467e+179
-2.0100386e+179
-2.0163011e+179
-2.0075806e+179
-2.0162175e+179
-2.0074524e+179
-2.0099678e+179
-2.0091147e+179
-2.0160857e+179
-2.0162585e+179
-2.0076707e+179
-2.0076482e+179
-2.0099426e+179
-2.0092061e+179
-2.0161157e+179
-2.0161142e+179
-2.0073266e+179
-2.0071902e+179
-2.0088713e+179
-2.0098517e+179
-2.0160819e+179
-2.015891e+179
-2.0071044e+179
-2.0069472e+179
-1.9952039e+179
-1.99507e+179
-1.9953859e+179
-1.9959631e+179
-1.998822e+179
-2.0006136e+179
-2.0031977e+179
-2.0034286e+179
-2.0046533e+179
-2.0045991e+179
-2.0034521e+179
-2.003139e+179
-2.0045715e+179
-2.0046465e+179
-2.0030899e+179
-2.0033171e+179
-2.004539e+179
-2.0045262e+179
-2.0044264e+179
-2.0032122e+179
-2.0029146e+179
-2.0043619e+179
-2.0024261e+179
-2.0024871e+179
-2.0004019e+179
-2.0005263e+179
-1.9942067e+179
-1.9986374e+179
-1.9988875e+179
-1.9942758e+179
-2.0024743e+179
-2.0007289e+179
-2.0024982e+179
-2.0006338e+179
-1.9987387e+179
-1.9990869e+179
-1.9944348e+179
-1.994187e+179
-2.0024781e+179
-2.0024193e+179
-2.0005306e+179
-2.0006246e+179
-1.9944854e+179
-1.9988519e+179
-1.9988922e+179
-1.9945338e+179
-1.9946188e+179
-1.9986717e+179
-1.9982378e+179
-1.9942624e+179
-2.0021046e+179
-2.0020918e+179
-1.9999972e+179
-2.0001215e+179
-2.0030558e+179
-2.0028809e+179
-2.0043261e+179
-2.0043217e+179
-2.0027922e+179
-2.0030202e+179
-2.0042654e+179
-2.0042235e+179
-2.0021814e+179
-2.0022073e+179
-2.0002654e+179
-2.0003238e+179
-1.9942279e+179
-1.9985726e+179
-1.9988015e+179
-1.9943205e+179
-2.0020462e+179
-2.002058e+179
-2.000446e+179
-2.000349e+179
-1.9986186e+179
-1.9989023e+179
-1.9945327e+179
-1.9943297e+179
-2.004105e+179
-2.0026719e+179
-2.0029345e+179
-2.0041478e+179
-2.0040039e+179
-2.0027735e+179
-2.0025456e+179
-2.0039794e+179
-2.0019215e+179
-2.0019712e+179
-2.0003051e+179
-2.0001983e+179
-2.0015952e+179
-2.0015991e+179
-1.9999113e+179
-1.9997318e+179
-1.9987668e+179
-1.9985999e+179
-1.9944032e+179
-1.9946683e+179
-1.9982246e+179
-1.9985511e+179
-1.9946481e+179
-1.9945412e+179
-1.5600739e+179
-2.0153757e+179
-2.0152344e+179
-2.0152124e+179
-2.0155226e+179
-2.0155774e+179
-2.0157843e+179
-2.0155657e+179
-2.0151714e+179
-2.0154887e+179
-2.0153727e+179
-2.0152479e+179
-2.0155726e+179
-2.0152529e+179
-2.0153726e+179
-2.0152476e+179
-2.0147272e+179
-2.0148816e+179
-2.0151123e+179
-2.015061e+179
-2.0149835e+179
-2.0150323e+179
-2.0152386e+179
-2.0147514e+179
-2.0150185e+179
-2.0147361e+179
-2.0144693e+179
-2.0150873e+179
-2.0147928e+179
-2.0152739e+179
-2.0150296e+179
-2.0147285e+179
-2.0151278e+179
-1.5698171e+179
-1.8049187e+179
-1.7991684e+179
-1.7990728e+179
-1.8047143e+179
-1.7921894e+179
-1.7862523e+179
-1.7920744e+179
-1.8464817e+179
-1.8464417e+179
-1.8246811e+179
-1.8415123e+179
-1.8414189e+179
-1.8249065e+179
-1.811893e+179
-1.8119763e+179
-1.8571734e+179
-1.8631085e+179
-1.8571762e+179
-1.8630752e+179
-1.8755524e+179
-1.8755578e+179
-1.8816664e+179
-1.7845361e+179
-1.7852513e+179
-1.7968223e+179
-1.7962507e+179
-1.6805671e+179
-1.7093149e+179
-1.684999e+179
-1.7123411e+179
-1.6024695e+179
-1.746234e+179
-1.7719111e+179
-1.7650594e+179
-1.7646675e+179
-1.7713934e+179
-1.7488835e+179
-1.7473081e+179
-1.7608681e+179
-1.7608184e+179
-2.0021008e+179
-1.9967931e+179
-2.0016012e+179
-1.9971047e+179
-2.0069084e+179
-2.0070252e+179
-2.0076734e+179
-2.0073342e+179
-1.9969378e+179
-2.0016925e+179
-1.9970923e+179
-2.0020647e+179
-2.0073105e+179
-2.0077003e+179
-2.0070668e+179
-2.0072337e+179
-1.9662359e+179
-1.9732059e+179
-1.9734766e+179
-1.9664804e+179
-1.9665631e+179
-1.9665102e+179
-1.9735703e+179
-1.9735088e+179
-1.9885304e+179
-1.9815763e+179
-1.9882583e+179
-1.9818025e+179
-1.9818144e+179
-1.9883544e+179
-1.9818882e+179
-1.9886017e+179
-1.9732417e+179
-1.9660954e+179
-1.9730611e+179
-1.9661863e+179
-1.9813506e+179
-1.9879623e+179
-1.988326e+179
-1.9815516e+179
-1.9730946e+179
-1.9661579e+179
-1.9732581e+179
-1.966121e+179
-1.981615e+179
-1.9883932e+179
-1.9814982e+179
-1.9881449e+179
-1.9970217e+179
-2.0017817e+179
-2.0021778e+179
-1.9972412e+179
-2.0073186e+179
-2.0071275e+179
-2.0074698e+179
-2.0078488e+179
-1.9972528e+179
-1.9971287e+179
-2.0021854e+179
-2.0018489e+179
-2.0077285e+179
-2.0071438e+179
-2.0072174e+179
-2.0074221e+179
-1.9669042e+179
-1.9738057e+179
-1.9740557e+179
-1.9671045e+179
-1.9670017e+179
-1.9670588e+179
-1.9740803e+179
-1.9739075e+179
-1.9890495e+179
-1.9821531e+179
-1.988767e+179
-1.9823585e+179
-1.9821786e+179
-1.9886925e+179
-1.9823633e+179
-1.9890487e+179
-1.9738326e+179
-1.9666262e+179
-1.9735681e+179
-1.9668302e+179
-1.9818651e+179
-1.9883949e+179
-1.9887926e+179
-1.9821392e+179
-1.9738319e+179
-1.966866e+179
-1.973904e+179
-1.9668967e+179
-1.9822467e+179
-1.9889031e+179
-1.9822156e+179
-1.9887543e+179
-1.9974797e+179
-2.0021475e+179
-2.0026072e+179
-1.9977102e+179
-1.9976507e+179
-2.0025871e+179
-1.9974319e+179
-2.0021804e+179
-2.0075067e+179
-2.0080865e+179
-2.0074358e+179
-2.0078366e+179
-2.0074567e+179
-2.007798e+179
-2.0080205e+179
-2.0075199e+179
-2.0071784e+179
-2.0073056e+179
-2.0080853e+179
-2.0078093e+179
-2.0024561e+179
-1.9971773e+179
-2.0018907e+179
-1.9975051e+179
-1.9974882e+179
-1.9975479e+179
-2.0024104e+179
-2.0021543e+179
-2.0074363e+179
-2.0075886e+179
-2.0077827e+179
-2.0074794e+179
-1.9420761e+179
-1.9355192e+179
-1.9419417e+179
-1.9356876e+179
-1.9503155e+179
-1.9569644e+179
-1.9572148e+179
-1.9504922e+179
-1.9421757e+179
-1.9357393e+179
-1.9421785e+179
-1.9358593e+179
-1.9506152e+179
-1.9573162e+179
-1.9505819e+179
-1.957258e+179
-1.9118653e+179
-1.9158815e+179
-1.9160107e+179
-1.9120216e+179
-1.912095e+179
-1.9161144e+179
-1.9161998e+179
-1.9122261e+179
-1.9227324e+179
-1.9271102e+179
-1.9272927e+179
-1.9229124e+179
-1.9229895e+179
-1.9273599e+179
-1.9274524e+179
-1.9231115e+179
-1.9122317e+179
-1.916232e+179
-1.9163074e+179
-1.9123449e+179
-1.9123903e+179
-1.9123724e+179
-1.9163754e+179
-1.9163547e+179
-1.9230896e+179
-1.9274271e+179
-1.9275335e+179
-1.923191e+179
-1.9231336e+179
-1.9231656e+179
-1.9275482e+179
-1.9274954e+179
-1.9358061e+179
-1.9421933e+179
-1.9423449e+179
-1.9359011e+179
-1.9358994e+179
-1.9358872e+179
-1.9423601e+179
-1.9423095e+179
-1.9572775e+179
-1.9574857e+179
-1.9505866e+179
-1.9507366e+179
-1.9506046e+179
-1.9506984e+179
-1.9574644e+179
-1.9573001e+179
-1.9413907e+179
-1.9349654e+179
-1.9413669e+179
-1.9350079e+179
-1.9496603e+179
-1.956371e+179
-1.9565147e+179
-1.949743e+179
-1.9350103e+179
-1.9413799e+179
-1.9349965e+179
-1.9414207e+179
-1.9497909e+179
-1.9565457e+179
-1.9497623e+179
-1.956426e+179
-1.9114481e+179
-1.9154809e+179
-1.9155451e+179
-1.9115683e+179
-1.9116458e+179
-1.9156806e+179
-1.9157994e+179
-1.9117965e+179
-1.9268515e+179
-1.9223389e+179
-1.9267349e+179
-1.9224281e+179
-1.9270592e+179
-1.9225539e+179
-1.9269906e+179
-1.922681e+179
-1.9153941e+179
-1.9114297e+179
-1.9154388e+179
-1.9114253e+179
-1.922224e+179
-1.9265926e+179
-1.9266399e+179
-1.9222343e+179
-1.9153732e+179
-1.9113797e+179
-1.9153954e+179
-1.911381e+179
-1.9222507e+179
-1.9266621e+179
-1.9222588e+179
-1.9266456e+179
-1.9351092e+179
-1.9415077e+179
-1.9416851e+179
-1.9352396e+179
-1.9353528e+179
-1.9418078e+179
-1.9354316e+179
-1.9418639e+179
-1.9565846e+179
-1.9568548e+179
-1.9499e+179
-1.9501132e+179
-1.9501999e+179
-1.950186e+179
-1.9569288e+179
-1.9568732e+179
-1.8941077e+179
-1.8908607e+179
-1.8941994e+179
-1.890832e+179
-1.9005325e+179
-1.9040349e+179
-1.904027e+179
-1.9004946e+179
-1.8908363e+179
-1.8941068e+179
-1.8908182e+179
-1.894124e+179
-1.9004826e+179
-1.9040023e+179
-1.9004622e+179
-1.9039345e+179
-1.873181e+179
-1.875708e+179
-1.8756943e+179
-1.8732113e+179
-1.873435e+179
-1.8732998e+179
-1.8758392e+179
-1.8759763e+179
-1.8843499e+179
-1.8817082e+179
-1.8843219e+179
-1.8817567e+179
-1.8819451e+179
-1.8845775e+179
-1.8818253e+179
-1.8844486e+179
-1.8755882e+179
-1.8731579e+179
-1.8756933e+179
-1.8731036e+179
-1.88167e+179
-1.8842853e+179
-1.8842575e+179
-1.8816298e+179
-1.8756158e+179
-1.873113e+179
-1.8756267e+179
-1.8731341e+179
-1.8816574e+179
-1.8842704e+179
-1.8816661e+179
-1.8842738e+179
-1.8908896e+179
-1.8942016e+179
-1.8942541e+179
-1.8909242e+179
-1.8910202e+179
-1.8943717e+179
-1.891186e+179
-1.8945097e+179
-1.9040264e+179
-1.9041274e+179
-1.9005322e+179