/*--------------------------------*- C++ -*----------------------------------*\
  =========                 |
  \\      /  F ield         | OpenFOAM: The Open Source CFD Toolbox
   \\    /   O peration     | Website:  https://openfoam.org
    \\  /    A nd           | Version:  7
     \\/     M anipulation  |
\*---------------------------------------------------------------------------*/
FoamFile
{
    version     2.0;
    format      ascii;
    class       volVectorField;
    location    "2000";
    object      U;
}
// * * * * * * * * * * * * * * * * * * * * * * * * * * * * * * * * * * * * * //

dimensions      [0 1 -1 0 0 0 0];

internalField   nonuniform List<vector> 
34356
(
(-5.6473807e+90 7.5079723e+89 5.3749461e+89)
(-5.1252572e+90 1.1226614e+90 4.0301596e+89)
(-4.8846153e+90 3.397025e+89 6.5642069e+89)
(-5.2119964e+90 -1.5111418e+89 7.1289839e+89)
(-5.3708563e+90 3.5437305e+89 1.0936628e+90)
(-5.1236782e+90 4.8411849e+89 9.8254772e+89)
(-6.7689693e+90 2.1963922e+89 2.505221e+89)
(-5.4045726e+90 4.2003129e+89 7.7396018e+88)
(-5.5845333e+90 2.1815316e+89 1.7325683e+89)
(-5.3099616e+90 4.350065e+89 -2.3912492e+89)
(-4.0283816e+90 5.895256e+89 5.3917317e+89)
(-5.613918e+90 -1.0987228e+89 -2.9734162e+89)
(-4.4724821e+90 -1.8516112e+89 7.0130306e+89)
(-4.2067277e+90 -8.1258042e+88 6.7473523e+89)
(-4.0897375e+90 1.4894433e+89 6.6689467e+89)
(-4.7810151e+90 2.4156902e+89 9.4423245e+89)
(-4.84913e+90 2.7586635e+89 9.6202552e+89)
(-4.1018572e+90 1.1270261e+89 7.2072059e+89)
(-4.9321617e+90 1.9866382e+89 1.0174172e+90)
(-4.2751026e+90 -1.2416704e+89 7.5975024e+89)
(-5.0153876e+90 2.0253958e+89 1.0779843e+90)
(-5.7638249e+90 4.2885086e+89 5.7767204e+89)
(-5.5242727e+90 1.8841206e+89 -6.3634347e+89)
(-5.43976e+90 3.8456674e+89 -6.3762858e+89)
(-5.7510245e+90 1.5131807e+89 5.7392137e+89)
(-6.6660165e+90 2.1098485e+89 3.1419796e+89)
(-4.7329077e+90 5.6563617e+89 2.8012796e+89)
(-4.7290928e+90 2.6833656e+89 2.6852356e+89)
(-4.5274722e+90 5.4716158e+89 -7.0481744e+89)
(-4.5281827e+90 3.9947415e+89 -6.994553e+89)
(-4.790494e+90 3.5717164e+89 -1.3964072e+89)
(-5.2941488e+90 5.5137548e+89 3.7886463e+89)
(-5.0408754e+90 2.8454786e+89 1.0163542e+89)
(-4.8770937e+90 1.306997e+89 -5.5304718e+89)
(-4.9078043e+90 2.5705019e+89 3.5639766e+89)
(-4.9649395e+90 2.2102131e+89 3.9202202e+89)
(-5.0040831e+90 1.669013e+89 4.3653559e+89)
(-5.0876961e+90 1.5794391e+89 4.943884e+89)
(-4.3145513e+90 1.1137103e+89 -8.4526672e+88)
(-4.7539628e+90 3.2035853e+89 -5.5656627e+89)
(-4.6896906e+90 3.4549872e+89 -5.0381134e+89)
(-4.2148134e+90 3.3696559e+89 -8.6177374e+88)
(-3.8885181e+90 1.9779134e+89 -3.7675632e+89)
(-2.971867e+90 3.5046795e+89 5.8424862e+89)
(-4.019231e+90 -7.6533752e+88 -4.05726e+89)
(-3.1544771e+90 -1.5935882e+89 6.4503989e+89)
(-4.775666e+90 2.6731639e+89 -5.6786955e+89)
(-4.6931869e+90 2.971708e+89 -5.0863138e+89)
(-4.2349811e+90 2.9322402e+89 -8.0058723e+88)
(-4.3388098e+90 6.6967892e+88 -8.5827261e+88)
(-4.0445723e+90 -1.1178986e+89 -3.9050316e+89)
(-3.9116247e+90 1.7364589e+89 -3.5924505e+89)
(-3.1855621e+90 -1.8108037e+89 6.7933793e+89)
(-2.9684664e+90 3.3511867e+89 6.1985744e+89)
(-4.2880159e+90 1.7263319e+89 8.9422309e+89)
(-3.5106745e+90 -6.9999698e+88 6.6237203e+89)
(-3.3455208e+90 1.1038365e+89 5.9424947e+89)
(-4.170189e+90 1.6985981e+89 8.1324606e+89)
(-3.4389485e+90 -2.1642311e+88 5.9229189e+89)
(-4.2366319e+90 1.9295856e+89 8.1813787e+89)
(-3.3341222e+90 1.3173028e+89 5.758871e+89)
(-4.1360686e+90 1.7823973e+89 7.9068352e+89)
(-3.4812949e+90 -4.8623507e+88 6.4294117e+89)
(-3.3732642e+90 9.1612979e+88 6.3311404e+89)
(-4.2738418e+90 1.569946e+89 8.6730293e+89)
(-4.2212532e+90 1.3499193e+89 8.5048769e+89)
(-4.3181135e+90 1.2512302e+89 9.3384976e+89)
(-3.5515626e+90 -8.0704291e+88 7.2303077e+89)
(-3.4082763e+90 8.5405759e+88 6.6080516e+89)
(-4.2370432e+90 1.1861697e+89 8.7793338e+89)
(-5.3480088e+90 2.6707644e+89 5.9588189e+89)
(-5.2738596e+90 4.5483229e+88 5.4921962e+89)
(-5.0912645e+90 1.6966469e+89 -2.8653325e+89)
(-5.1943244e+90 5.5940595e+88 -2.1141087e+89)
(-5.227742e+90 1.9218871e+89 1.3295357e+89)
(-4.9923081e+90 4.625472e+88 -4.9897066e+89)
(-5.0013802e+90 1.181134e+89 -5.2737532e+89)
(-5.1997191e+90 1.2970561e+88 1.0866564e+89)
(-5.4114826e+90 4.555817e+89 3.8835768e+89)
(-5.1632835e+90 2.1959401e+89 1.0357542e+89)
(-4.9628369e+90 7.9042412e+88 -5.1266763e+89)
(-4.9696138e+90 1.5445794e+89 -5.2395721e+89)
(-5.1496422e+90 3.4054884e+88 1.026463e+89)
(-5.4435671e+90 2.1127847e+89 4.0884353e+89)
(-5.1400807e+90 1.3564249e+89 4.7033936e+89)
(-5.1834403e+90 3.3901007e+89 4.9896677e+89)
(-5.1249027e+90 9.1268315e+88 -2.3847988e+89)
(-5.0303901e+90 1.9806266e+89 -2.9883521e+89)
(-4.8525965e+90 2.9803276e+89 -1.4179568e+89)
(-4.7779289e+90 5.1886524e+89 -1.3588583e+89)
(-4.3145518e+90 3.4275569e+89 -7.2124127e+89)
(-4.1970274e+90 5.3302028e+89 -7.3382567e+89)
(-4.5480069e+90 2.1580911e+89 4.4020555e+89)
(-4.5037768e+90 5.2565829e+89 3.9778214e+89)
(-4.1999179e+90 1.1251608e+89 -1.7430093e+89)
(-3.8510934e+90 7.0723416e+89 -7.561443e+89)
(-5.2774263e+90 5.0796881e+89 8.1646292e+89)
(-4.403715e+90 3.5063851e+89 -1.7229573e+89)
(-5.0375975e+90 3.9507249e+89 7.4101283e+88)
(-5.0841815e+90 1.6193704e+89 5.8204426e+88)
(-4.4008933e+90 4.147377e+89 -2.1125837e+89)
(-4.9077408e+90 2.2880886e+89 -6.5747818e+89)
(-4.8266105e+90 1.8655117e+89 -6.4556035e+89)
(-4.9595412e+90 2.855877e+89 -1.3184906e+89)
(-5.029226e+90 8.9983783e+88 -1.3961135e+89)
(-4.2711075e+90 1.6779659e+89 4.568368e+88)
(-4.1180731e+90 1.1221413e+89 -2.8920427e+89)
(-4.149169e+90 6.0866879e+88 -2.5439915e+89)
(-4.2786344e+90 3.1442692e+88 -5.002237e+88)
(-4.2730094e+90 1.2903184e+89 -2.428839e+88)
(-4.1968713e+90 4.0424013e+88 -3.4713165e+89)
(-4.1921089e+90 7.9115745e+88 -3.8373767e+89)
(-4.2079843e+90 4.206319e+88 -3.9061861e+89)
(-4.2212858e+90 1.7793234e+89 4.6210104e+89)
(-4.1759439e+90 1.9386367e+89 4.2445621e+89)
(-4.2797757e+90 1.6029211e+89 5.1473114e+89)
(-4.18928e+90 1.6280778e+89 4.3782995e+89)
(-4.2899006e+90 1.4227231e+89 4.9635029e+89)
(-4.2361312e+90 1.3246353e+89 4.7766788e+89)
(-4.3405673e+90 1.2599184e+89 5.8187671e+89)
(-4.2708828e+90 1.1106492e+89 5.1209141e+89)
(-5.7247913e+90 3.7227157e+89 -1.6764559e+89)
(-5.759221e+90 3.3727378e+89 -1.8595375e+89)
(-4.8154684e+90 1.6194574e+89 -4.8750649e+89)
(-4.8653556e+90 2.378686e+89 5.0910395e+88)
(-4.854002e+90 3.2089583e+89 1.1111263e+89)
(-4.786152e+90 1.6089924e+89 -4.6908146e+89)
(-2.9706813e+90 3.4958073e+88 -2.9330722e+89)
(-3.5722913e+90 1.8695605e+89 -5.8647627e+89)
(-3.5396335e+90 2.0427511e+89 -5.5957908e+89)
(-2.9377011e+90 1.8635343e+89 -2.9823582e+89)
(-2.2864943e+90 1.8639187e+89 -2.6805862e+89)
(-2.0082752e+90 3.3629005e+89 6.0658026e+89)
(-2.1405822e+90 -8.0239555e+88 6.7234674e+89)
(-2.3536075e+90 -7.4394406e+87 -2.7923761e+89)
(-3.0043578e+90 2.2000008e+88 -3.0399266e+89)
(-3.5985965e+90 1.7924052e+89 -5.9960814e+89)
(-3.5619175e+90 1.8986376e+89 -5.6331312e+89)
(-2.9568537e+90 1.7400135e+89 -2.9498725e+89)
(-2.383447e+90 -2.17016e+88 -2.7123926e+89)
(-2.2815928e+90 1.7692823e+89 -2.5326559e+89)
(-2.1579716e+90 -1.0138323e+89 6.8628592e+89)
(-1.9775752e+90 3.0775843e+89 6.1183226e+89)
(-4.8832856e+90 2.025705e+89 5.0349418e+88)
(-4.8823589e+90 2.7646513e+89 9.9838711e+88)
(-4.8214388e+90 1.2372735e+89 -4.7437945e+89)
(-4.8430118e+90 1.2572347e+89 -4.8959062e+89)
(-3.604366e+90 1.4308485e+89 -5.8905218e+89)
(-3.5650814e+90 1.6204224e+89 -5.5433657e+89)
(-2.9721421e+90 1.4973207e+89 -2.8881064e+89)
(-3.0042222e+90 -3.3891812e+87 -2.9788015e+89)
(-3.0050603e+90 1.7097523e+88 -2.8632243e+89)
(-3.5940229e+90 1.6029387e+89 -5.8157593e+89)
(-3.5620172e+90 1.7895096e+89 -5.5399915e+89)
(-2.9734494e+90 1.6813624e+89 -2.9165231e+89)
(-2.4036587e+90 -3.5896769e+88 -2.5373202e+89)
(-2.3145141e+90 1.6081454e+89 -2.3231639e+89)
(-2.2046902e+90 -9.722064e+88 7.2539536e+89)
(-2.0304856e+90 3.1139255e+89 6.6715571e+89)
(-2.3882187e+90 -1.6413377e+88 -2.5684379e+89)
(-2.1660722e+90 -8.2866435e+88 7.1452222e+89)
(-2.3130547e+90 1.6809625e+89 -2.472882e+89)
(-2.0368598e+90 3.1145527e+89 6.5533801e+89)
(-3.038774e+90 -4.8240799e+88 6.9939362e+89)
(-2.9756601e+90 8.0092648e+88 6.7062027e+89)
(-3.6040042e+90 1.1578559e+89 7.7983359e+89)
(-3.6335195e+90 1.1528316e+89 8.1597665e+89)
(-3.5789349e+90 1.3866267e+89 7.4026626e+89)
(-2.982492e+90 -1.4177406e+88 6.3628388e+89)
(-2.9257101e+90 9.4258701e+88 6.3732398e+89)
(-3.5394211e+90 1.3271953e+89 7.2516303e+89)
(-3.6272006e+90 1.3624294e+89 7.7643832e+89)
(-3.0041786e+90 -1.8619907e+88 6.5248644e+89)
(-2.9313921e+90 1.0606106e+89 6.2727662e+89)
(-3.5897882e+90 1.3540999e+89 7.4119759e+89)
(-2.9706473e+90 2.1099393e+86 6.2272758e+89)
(-2.9625447e+90 1.0162234e+89 6.3923582e+89)
(-3.5527156e+90 1.4499051e+89 7.1953415e+89)
(-3.5287212e+90 1.3310906e+89 7.2040132e+89)
(-2.9576403e+90 8.1349987e+88 6.694819e+89)
(-3.045302e+90 -4.2238175e+88 6.9902805e+89)
(-3.6507397e+90 1.0054827e+89 8.1631583e+89)
(-3.599366e+90 1.0781053e+89 7.6925562e+89)
(-3.6007599e+90 1.1723671e+89 7.6475037e+89)
(-3.0088118e+90 -2.9729048e+88 6.6516752e+89)
(-2.981912e+90 6.097546e+88 6.9083026e+89)
(-3.5729068e+90 1.0159763e+89 7.675183e+89)
(-3.0690233e+90 -5.0149038e+88 7.405431e+89)
(-3.0088887e+90 7.4263826e+88 7.1367303e+89)
(-3.6461163e+90 8.774418e+88 8.4310151e+89)
(-3.6297374e+90 8.1334935e+88 8.1891229e+89)
(-3.0170334e+90 -2.9694131e+88 6.8267545e+89)
(-2.9870608e+90 7.7932032e+88 6.9392379e+89)
(-3.6179268e+90 1.0019908e+89 7.8865004e+89)
(-3.5890977e+90 9.1010533e+88 7.8165825e+89)
(-4.4600372e+90 8.2208527e+88 -1.3107674e+89)
(-4.3279153e+90 -1.5525225e+86 -4.9422375e+89)
(-4.5654979e+90 2.1095752e+89 6.3142704e+89)
(-4.337231e+90 1.1564295e+89 1.5893253e+87)
(-4.4174994e+90 6.7286495e+88 5.4852998e+88)
(-4.5017719e+90 2.2269713e+88 5.8862563e+89)
(-4.3201086e+90 1.3827163e+89 -2.0578595e+88)
(-4.3530572e+90 6.4382246e+88 1.3240577e+88)
(-4.4715903e+90 4.5482489e+88 5.5893924e+89)
(-4.531081e+90 2.1175341e+89 5.6882387e+89)
(-4.3747701e+90 1.5367435e+89 1.8602065e+89)
(-4.204913e+90 5.8909687e+88 -2.2503542e+89)
(-4.1767281e+90 1.2937541e+89 -2.3769426e+89)
(-4.3613367e+90 4.9715454e+88 1.810848e+89)
(-4.4594748e+90 1.531285e+89 2.51825e+89)
(-4.2036406e+90 8.6680879e+88 -2.1203126e+89)
(-4.2550025e+90 4.4901102e+88 -1.6388519e+89)
(-4.4040539e+90 1.779594e+88 2.1733924e+89)
(-4.3231487e+90 1.0937196e+89 4.6985603e+88)
(-4.2052096e+90 6.5896286e+88 -2.8955148e+89)
(-4.2317403e+90 6.2825629e+87 -2.5065425e+89)
(-4.3055841e+90 3.4508191e+87 1.8338184e+88)
(-4.358302e+90 -1.9034322e+88 -2.4756166e+88)
(-4.3649165e+90 7.0499017e+88 6.2297426e+87)
(-4.2687276e+90 -1.8133659e+88 -2.9845164e+89)
(-4.2386222e+90 2.7051665e+88 -3.378288e+89)
(-5.0634168e+90 2.0293655e+89 -1.3313719e+89)
(-4.2402653e+90 5.0891152e+88 -3.5005736e+89)
(-4.2606224e+90 -1.5267672e+88 -3.3572008e+89)
(-4.3552912e+90 7.1535376e+88 -3.7457867e+88)
(-5.1722052e+90 1.7490194e+88 -1.0235178e+89)
(-4.3544704e+90 -4.2385962e+87 -4.0767847e+88)
(-4.197042e+90 8.8788825e+88 -3.1556044e+89)
(-4.2053499e+90 1.0474549e+88 -3.088383e+89)
(-4.2591138e+90 1.2431393e+89 -2.5696283e+88)
(-4.2490655e+90 5.388764e+88 -2.9444015e+88)
(-4.9577696e+90 1.8240749e+89 -6.6684876e+89)
(-4.8434139e+90 1.1680922e+89 -6.6863333e+89)
(-4.2734129e+90 1.3753973e+89 2.4456326e+88)
(-4.1805797e+90 9.5787843e+88 -3.1531818e+89)
(-4.2004478e+90 3.49675e+88 -2.8606633e+89)
(-4.267359e+90 3.303382e+88 3.1382284e+87)
(-4.2261997e+90 4.3434306e+88 -3.4478519e+89)
(-4.2552066e+90 5.3732651e+87 -3.1635851e+89)
(-4.3528333e+90 -3.2755353e+87 -3.0056746e+88)
(-4.3524338e+90 9.5113279e+88 -1.0518154e+88)
(-5.0485654e+90 2.4654796e+89 -1.3235956e+89)
(-4.2251727e+90 6.3123208e+88 -3.331995e+89)
(-4.2464504e+90 -6.8707238e+86 -3.2891056e+89)
(-4.3446246e+90 8.7686484e+88 -2.9847993e+88)
(-5.1287124e+90 7.1486018e+88 -9.837066e+88)
(-4.3407822e+90 5.8743814e+87 -2.3095809e+88)
(-4.1737224e+90 1.093835e+89 -3.0445755e+89)
(-4.2371177e+90 1.534261e+89 -2.4078531e+88)
(-4.1954927e+90 3.1473601e+88 -3.0177937e+89)
(-4.2293561e+90 7.9538268e+88 -2.4924522e+88)
(-4.9335925e+90 2.2832122e+89 -6.5654435e+89)
(-4.8109704e+90 1.514889e+89 -6.6569713e+89)
(-4.430358e+90 2.7467329e+89 5.2529913e+89)
(-4.2976202e+90 1.9694826e+89 -3.4373664e+88)
(-4.3153088e+90 1.2281514e+89 -1.568553e+88)
(-4.4120024e+90 1.2626623e+89 5.1450902e+89)
(-4.4828689e+90 2.3718897e+89 5.8127101e+89)
(-4.300431e+90 1.522672e+89 -1.9752548e+88)
(-4.3510991e+90 9.8751578e+88 1.8209029e+88)
(-4.4458514e+90 6.7952856e+88 5.4402144e+89)
(-4.3783221e+90 1.8906708e+89 2.1577426e+89)
(-4.2066475e+90 7.4960532e+88 -1.7737933e+89)
(-4.1705718e+90 1.1710036e+89 -2.230363e+89)
(-4.3582424e+90 5.889894e+88 1.8871529e+89)
(-4.1564847e+90 1.6150714e+89 -2.3644306e+89)
(-4.1891183e+90 8.4924539e+88 -2.1718994e+89)
(-4.3384705e+90 1.9814621e+89 1.7181814e+89)
(-4.3282936e+90 1.0323975e+89 1.6572599e+89)
(-3.9613625e+90 6.3570107e+89 -7.6727665e+89)
(-5.3569597e+90 4.7184776e+89 7.8502945e+89)
(-4.0229774e+90 4.1333038e+89 -7.1985561e+89)
(-5.3831657e+90 3.2326874e+89 8.132149e+89)
(-4.3494945e+90 3.0580457e+89 -1.7816944e+89)
(-5.0375443e+90 3.212467e+89 6.8926682e+88)
(-5.1057133e+90 1.1391145e+89 4.9841569e+88)
(-4.3625538e+90 3.8909651e+89 -2.0727355e+89)
(-4.3541575e+90 3.632209e+89 -1.8006848e+89)
(-4.998952e+90 3.4786375e+89 3.6798622e+88)
(-5.0254814e+90 1.4680389e+89 5.8020006e+88)
(-4.3087776e+90 4.4212249e+89 -1.8134431e+89)
(-3.4461578e+90 1.1251645e+89 -1.3925433e+89)
(-3.5668534e+90 1.7821669e+89 1.1062434e+89)
(-3.3842477e+90 1.0493461e+89 -1.6277381e+89)
(-3.5059478e+90 1.5997939e+89 4.2816578e+88)
(-3.3858837e+90 1.2140708e+89 -1.7794692e+89)
(-3.5086107e+90 8.3850156e+88 2.9517099e+88)
(-4.2752885e+90 7.8180106e+89 -8.3029193e+88)
(-4.7597648e+90 5.0180897e+89 5.5942143e+89)
(-4.8431099e+90 3.7404043e+89 5.5143535e+89)
(-3.4746267e+90 6.0276152e+89 -4.7828775e+89)
(-3.4939885e+90 4.5074175e+89 -4.895798e+89)
(-4.7242129e+90 2.561471e+89 -6.7482089e+88)
(-4.2067719e+90 2.7994741e+89 -3.1557729e+89)
(-4.2098216e+90 3.0020951e+89 -3.4154525e+89)
(-4.7357362e+90 9.0974166e+88 -1.0012515e+89)
(-4.6223338e+90 9.6804251e+88 -2.1687351e+89)
(-4.5239724e+90 7.2488731e+88 -5.246879e+89)
(-4.4254858e+90 9.3255317e+88 -5.8817775e+89)
(-4.5961995e+90 -1.4668991e+88 -2.70896e+89)
(-4.6579008e+90 9.0465247e+88 -2.2907604e+89)
(-4.4380547e+90 6.4242229e+88 -5.7845499e+89)
(-4.4963253e+90 1.010785e+89 -5.4431659e+89)
(-4.6688306e+90 -1.9483215e+88 -2.0529079e+89)
(-4.211927e+90 2.9660698e+89 -3.4095188e+89)
(-4.7011431e+90 2.3365688e+89 -1.1688284e+89)
(-4.7990093e+90 8.6683176e+88 -7.6144507e+88)
(-4.3838255e+90 3.1562984e+88 -5.1683804e+89)
(-4.4184662e+90 -2.2375241e+88 -4.4181765e+89)
(-4.5204383e+90 6.1648162e+88 -1.6005911e+89)
(-4.4900412e+90 -2.0394394e+88 -1.9179218e+89)
(-4.3943122e+90 -2.5293392e+87 -4.5549469e+89)
(-4.3643951e+90 4.023708e+88 -5.3577878e+89)
(-4.4851377e+90 7.9930862e+88 -1.3569576e+89)
(-4.4809555e+90 -1.8799555e+88 -1.897191e+89)
(-4.2904079e+90 4.9742248e+87 -3.9369506e+89)
(-4.2848818e+90 5.4249304e+88 -4.4255177e+89)
(-4.3286621e+90 1.0370427e+89 -1.2996774e+89)
(-4.347507e+90 5.0204056e+87 -1.5875729e+89)
(-4.3068124e+90 -1.2018452e+88 -4.3230623e+89)
(-4.2712608e+90 7.313886e+88 -4.6149231e+89)
(-4.3622355e+90 1.0860132e+89 -1.6402789e+89)
(-4.3326737e+90 4.6945909e+88 -1.8656638e+89)
(-3.3805965e+90 8.0284025e+88 -1.9020637e+89)
(-3.4579853e+90 1.4087404e+89 -2.3195213e+87)
(-3.3766755e+90 1.1256131e+89 -2.0698728e+89)
(-3.4631076e+90 7.1815421e+88 -1.3631463e+88)
(-3.3993165e+90 6.0161831e+88 -2.0750184e+89)
(-3.3753151e+90 1.0660061e+89 -2.2326139e+89)
(-3.4868072e+90 1.0270744e+89 -4.0647835e+88)
(-3.400829e+90 7.1428199e+88 -1.8039668e+89)
(-3.4916724e+90 1.1808498e+89 -9.4304609e+87)
(-3.395586e+90 9.2775873e+88 -1.997106e+89)
(-3.4932749e+90 5.7218325e+88 -2.2319375e+88)
(-3.3796225e+90 6.8306721e+88 -2.1390995e+89)
(-3.4515603e+90 3.9391592e+88 -1.7470065e+89)
(-3.5059133e+90 9.739038e+88 -5.0271892e+88)
(-3.4151215e+90 9.1382005e+88 -1.8971631e+89)
(-3.4983489e+90 5.9965788e+88 -6.1930174e+88)
(-3.4419634e+90 4.5564412e+88 -1.4219497e+89)
(-3.5126756e+90 9.944025e+88 -1.9986164e+88)
(-3.423498e+90 7.6995852e+88 -1.610389e+89)
(-3.515075e+90 4.2977439e+88 -3.3621386e+88)
(-3.6113732e+90 8.0578752e+88 -8.7188692e+87)
(-3.6109878e+90 2.4410872e+88 -2.6891353e+88)
(-3.5950096e+90 4.3814336e+88 -2.5731425e+89)
(-3.5805953e+90 6.1571257e+88 -2.8158497e+89)
(-3.6214141e+90 7.3306834e+88 -2.2483319e+88)
(-3.6070367e+90 4.7638349e+88 -5.9679539e+88)
(-3.5776139e+90 8.3482824e+88 -3.1795103e+89)
(-3.589039e+90 3.387665e+88 -2.8980626e+89)
(-3.6166836e+90 8.9106028e+88 -3.5138599e+88)
(-3.6092996e+90 5.0585411e+88 -5.5231428e+88)
(-3.5845069e+90 4.2377338e+88 -2.9142838e+89)
(-3.5766463e+90 8.5327472e+88 -3.1505613e+89)
(-3.427931e+90 5.2914467e+88 -1.7427846e+89)
(-3.5618583e+90 1.4610687e+89 4.6215479e+89)
(-3.5439144e+90 1.2743749e+89 4.3286447e+89)
(-3.5183312e+90 1.3618775e+89 4.3536074e+89)
(-3.545552e+90 1.4992665e+89 4.4191274e+89)
(-3.5787124e+90 1.3113971e+89 4.9938045e+89)
(-3.5690213e+90 1.0428756e+89 4.6804552e+89)
(-3.5563483e+90 1.3899361e+89 4.4718556e+89)
(-3.5230491e+90 1.2577679e+89 4.3361021e+89)
(-3.5776743e+90 9.4147505e+88 4.6589325e+89)
(-3.5968281e+90 1.1199973e+89 4.9770588e+89)
(-3.5596185e+90 1.0348174e+89 4.7026713e+89)
(-3.5830938e+90 1.1958084e+89 4.7541437e+89)
(-3.6093952e+90 1.1027738e+89 5.4160538e+89)
(-3.608615e+90 7.2243695e+88 5.1605909e+89)
(-3.5944885e+90 1.0315436e+89 4.9084907e+89)
(-3.5709276e+90 8.4705937e+88 4.8477086e+89)
(-5.7740518e+90 3.4041469e+89 -6.8649956e+88)
(-5.8143865e+90 3.2778831e+89 -8.5406336e+88)
(-5.0067705e+90 1.3487117e+89 -4.1748471e+89)
(-3.7173418e+90 1.6782129e+89 -2.7283251e+89)
(-3.7429948e+90 1.3796076e+89 -3.0312259e+89)
(-4.9775362e+90 3.7695652e+89 -3.328519e+89)
(-5.0394383e+90 1.8256138e+89 -3.2755663e+89)
(-4.9895557e+90 1.3734043e+89 -3.9435843e+89)
(-3.7236461e+90 1.4301525e+89 -2.8673975e+89)
(-3.6940545e+90 1.8506101e+89 -2.6069024e+89)
(-3.5830241e+90 1.6857227e+88 -7.0345791e+89)
(-3.5759865e+90 2.12913e+88 -6.9542e+89)
(-1.9467481e+90 1.5574836e+89 -5.0808407e+89)
(-1.9357885e+90 1.5211568e+89 -5.107355e+89)
(-1.7206123e+90 1.4350355e+89 -3.0308303e+89)
(-1.7703807e+90 1.328767e+88 -2.874221e+89)
(-1.4503392e+90 1.2026516e+89 2.2509738e+89)
(-1.8711933e+90 2.1575924e+89 7.2342009e+89)
(-1.5208012e+90 -5.0547465e+87 2.5116179e+89)
(-1.9209657e+90 -1.7464379e+88 7.3101939e+89)
(-1.5815255e+90 -6.1310286e+88 2.7837455e+89)
(-1.9826194e+90 -6.4975262e+88 7.4129486e+89)
(-1.4686141e+90 1.0890396e+89 2.8820192e+89)
(-1.848335e+90 2.2780302e+89 6.9769692e+89)
(-1.9163945e+90 1.5244718e+89 -4.9396537e+89)
(-1.9363873e+90 1.532218e+89 -5.0906704e+89)
(-1.7607116e+90 2.7629789e+87 -2.9231153e+89)
(-1.7007033e+90 1.4153246e+89 -2.8601713e+89)
(-3.5923549e+90 1.0225927e+88 -7.1059765e+89)
(-3.5913991e+90 9.6734859e+87 -6.9627157e+89)
(-1.938918e+90 1.4082004e+89 -4.9426038e+89)
(-1.9568446e+90 1.4002347e+89 -5.0826278e+89)
(-1.7842714e+90 -8.2571248e+87 -2.9296012e+89)
(-1.7150435e+90 1.3011169e+89 -2.8807864e+89)
(-1.9493624e+90 1.4763495e+89 -5.0218785e+89)
(-1.9645468e+90 1.4763607e+89 -5.0480041e+89)
(-1.7808695e+90 -5.6508034e+85 -2.8736628e+89)
(-1.7170368e+90 1.3495354e+89 -3.0319242e+89)
(-1.5959319e+90 -7.3921858e+88 3.0624685e+89)
(-1.4940274e+90 8.0251635e+88 3.1808465e+89)
(-1.9086979e+90 1.8602207e+89 7.3925632e+89)
(-2.0198379e+90 -1.0074236e+89 7.7279023e+89)
(-1.9756503e+90 -5.2208957e+88 7.6552096e+89)
(-1.8776462e+90 1.9280619e+89 7.3956114e+89)
(-1.5774289e+90 -4.7112907e+88 2.8657339e+89)
(-1.4705531e+90 8.2281911e+88 2.5098492e+89)
(-4.9900026e+90 3.4535834e+89 -3.3789091e+89)
(-5.0657353e+90 1.4883684e+89 -3.3096579e+89)
(-5.0149782e+90 1.0572464e+89 -4.0320149e+89)
(-3.7195562e+90 1.5685978e+89 -2.666564e+89)
(-3.743537e+90 1.1588608e+89 -2.8920645e+89)
(-5.0375953e+90 1.0429224e+89 -4.225619e+89)
(-3.7216153e+90 1.3901494e+89 -2.7454345e+89)
(-3.7467065e+90 1.0740809e+89 -2.9975428e+89)
(-3.5884072e+90 -7.6244324e+87 -6.9425409e+89)
(-3.588593e+90 -8.4967731e+87 -7.1064118e+89)
(-3.5887764e+90 2.4940761e+87 -6.9998267e+89)
(-3.5917419e+90 5.4036412e+87 -6.9756026e+89)
(-2.3493943e+90 1.3734465e+89 -2.3924651e+89)
(-1.7875803e+90 -1.2560815e+88 -2.7277627e+89)
(-1.9392198e+90 1.229059e+89 -4.8293813e+89)
(-1.9538557e+90 1.2067839e+89 -4.977199e+89)
(-1.7256189e+90 1.2541276e+89 -2.6635775e+89)
(-1.9631846e+90 1.2669304e+89 -4.9601569e+89)
(-1.974868e+90 1.272067e+89 -4.9680752e+89)
(-1.7805927e+90 -2.0383431e+87 -2.6562359e+89)
(-1.7282335e+90 1.2808464e+89 -2.8395228e+89)
(-1.5770286e+90 -4.9959016e+88 3.2844549e+89)
(-1.9895342e+90 -7.4978152e+88 7.8652531e+89)
(-1.4893662e+90 9.8305884e+88 3.4867634e+89)
(-1.902495e+90 2.011273e+89 7.6722568e+89)
(-1.5634317e+90 -2.5724042e+88 3.3328812e+89)
(-1.9706691e+90 -4.9673293e+88 7.9460475e+89)
(-1.9027108e+90 1.8981146e+89 7.8847362e+89)
(-1.481005e+90 8.7005544e+88 3.0153745e+89)
(-1.9629381e+90 1.3427332e+89 -4.998947e+89)
(-1.9511255e+90 1.3460814e+89 -4.8831848e+89)
(-1.7790298e+90 -5.6751826e+87 -2.7643482e+89)
(-1.722061e+90 1.2827174e+89 -2.7715268e+89)
(-1.5781191e+90 -5.7048726e+88 3.3423177e+89)
(-1.9959536e+90 -7.7221027e+88 7.8171148e+89)
(-1.476179e+90 9.2241157e+88 3.2549911e+89)
(-1.868437e+90 2.0982213e+89 7.4466467e+89)
(-1.96816e+90 1.3413737e+89 -5.0321083e+89)
(-1.9784623e+90 1.3776352e+89 -5.0382507e+89)
(-1.780269e+90 -6.0680456e+85 -2.8082329e+89)
(-1.7369664e+90 1.254118e+89 -3.0108973e+89)
(-1.5538262e+90 -3.46703e+88 3.0047017e+89)
(-1.4870134e+90 7.3991399e+88 2.7152765e+89)
(-1.9456781e+90 -4.9247693e+88 7.7149691e+89)
(-1.9069344e+90 1.6911886e+89 7.7515619e+89)
(-2.4056997e+90 1.0256313e+89 7.3095973e+89)
(-2.4380901e+90 -1.5798508e+88 7.5082629e+89)
(-3.1499448e+90 7.4461884e+88 7.3285307e+89)
(-3.1291492e+90 8.2549359e+88 6.9638338e+89)
(-2.425598e+90 1.1190553e+89 7.3783388e+89)
(-2.4200191e+90 1.896812e+87 7.182038e+89)
(-3.1460151e+90 8.7038737e+88 6.8915712e+89)
(-3.1400903e+90 7.9490382e+88 6.9813784e+89)
(-2.4168043e+90 -7.8441839e+87 7.3307242e+89)
(-3.1495616e+90 9.4291853e+88 6.9051401e+89)
(-2.4018708e+90 1.1914748e+89 7.1843398e+89)
(-3.1462859e+90 8.9137313e+88 6.9375778e+89)
(-3.1171132e+90 1.0434733e+89 6.6865311e+89)
(-2.3890598e+90 1.1033723e+88 7.0937932e+89)
(-2.3744349e+90 1.2090381e+89 7.2392075e+89)
(-3.0974011e+90 1.0234439e+89 6.5814441e+89)
(-2.39868e+90 1.1928223e+89 7.0759066e+89)
(-2.4141645e+90 4.7532187e+87 7.2399352e+89)
(-3.1452734e+90 9.9030886e+88 6.9085768e+89)
(-3.1459727e+90 9.2605083e+88 6.9226758e+89)
(-2.3784178e+90 1.299117e+89 7.1022859e+89)
(-2.3890309e+90 1.5834915e+88 6.9652045e+89)
(-3.1389816e+90 1.0039375e+89 6.6512148e+89)
(-3.1204721e+90 1.0421279e+89 6.5488896e+89)
(-2.4015925e+90 9.4236445e+87 7.1739758e+89)
(-2.396257e+90 1.2004219e+89 7.0275179e+89)
(-3.1423189e+90 9.6067321e+88 6.9704078e+89)
(-3.126218e+90 1.0223142e+89 6.6426869e+89)
(-2.3906201e+90 1.7167093e+88 7.0136101e+89)
(-2.3935477e+90 1.2314733e+89 7.1748486e+89)
(-3.1165949e+90 9.4665376e+88 6.8426577e+89)
(-3.0989077e+90 1.0088186e+89 6.6043651e+89)
(-2.3946284e+90 1.1011642e+89 7.4871257e+89)
(-2.4034068e+90 -5.7911039e+87 7.2802026e+89)
(-3.1545864e+90 8.2443379e+88 6.8990995e+89)
(-3.13536e+90 8.2618138e+88 6.8065244e+89)
(-2.4594796e+90 1.0576869e+89 7.4164805e+89)
(-2.5012994e+90 -1.3998938e+88 7.5777949e+89)
(-3.1609118e+90 7.1917243e+88 7.2133611e+89)
(-3.1869448e+90 7.0879563e+88 7.1919952e+89)
(-2.4324289e+90 -1.397e+88 7.5144172e+89)
(-2.426604e+90 1.0136746e+89 7.4314448e+89)
(-3.1694896e+90 7.5772508e+88 7.2516862e+89)
(-3.1629465e+90 7.4316834e+88 7.1236127e+89)
(-2.4213111e+90 9.7142756e+88 7.5550919e+89)
(-2.4150324e+90 -7.2320788e+87 7.3271167e+89)
(-3.1390233e+90 8.3550974e+88 6.9365773e+89)
(-3.1237347e+90 7.8745873e+88 6.8811003e+89)
(-2.4486843e+90 9.0813175e+88 7.5874435e+89)
(-2.4471583e+90 -2.6344598e+88 7.6780279e+89)
(-3.1514469e+90 6.5846896e+88 7.3277281e+89)
(-3.1604223e+90 5.8791369e+88 7.4009251e+89)
(-3.1626783e+90 6.5027311e+88 7.1635221e+89)
(-2.4468922e+90 -1.3823254e+88 7.5317642e+89)
(-2.4425646e+90 9.843432e+88 7.741514e+89)
(-3.1490515e+90 6.268719e+88 7.0966631e+89)
(-2.4370777e+90 9.9907527e+88 7.5546833e+89)
(-2.4476692e+90 -2.5752233e+88 7.6949698e+89)
(-3.1726958e+90 6.1638183e+88 7.357497e+89)
(-3.1527881e+90 7.2837559e+88 7.0199926e+89)
(-2.4124601e+90 1.0396127e+89 7.6356042e+89)
(-2.4128228e+90 -6.0415023e+87 7.4314252e+89)
(-3.1459232e+90 7.100344e+88 7.1911513e+89)
(-3.1247566e+90 7.3036719e+88 6.938136e+89)
(-5.7393702e+90 3.480138e+89 -6.0374688e+89)
(-3.8233744e+90 4.4206387e+88 -1.2430287e+89)
(-3.7466691e+90 -6.4216814e+87 -2.7018874e+89)
(-3.6920959e+90 4.5030526e+87 -3.0271786e+89)
(-3.7931105e+90 -1.9203635e+88 -1.5691596e+89)
(-3.9131225e+90 1.46553e+88 -1.626146e+89)
(-3.8324169e+90 -3.3155327e+88 -3.3489091e+89)
(-3.8707101e+90 -4.2637011e+88 -2.267171e+89)
(-4.2490777e+90 1.8089474e+88 -3.3709076e+89)
(-5.1959506e+90 -1.3378225e+88 -1.1427765e+89)
(-4.3542711e+90 -3.5074393e+88 -2.8476726e+88)
(-4.2100907e+90 5.8720132e+88 -2.9184998e+89)
(-4.9542044e+90 1.4105364e+89 -6.7831573e+89)
(-5.4681415e+90 2.7396834e+89 7.9795765e+89)
(-4.0223282e+90 5.5049142e+89 -7.5227359e+89)
(-4.0788925e+90 3.491404e+89 -7.2286155e+89)
(-5.0830812e+90 8.3893183e+88 3.9060181e+88)
(-4.3652488e+90 3.8125238e+89 -1.9898443e+89)
(-3.6931672e+90 9.1457444e+88 2.1587644e+89)
(-3.7846429e+90 1.7870057e+89 6.3319696e+89)
(-3.6878542e+90 9.1454892e+88 1.957186e+89)
(-3.7850394e+90 1.2775243e+88 6.1466936e+89)
(-3.5812733e+90 7.3446674e+88 -4.3200543e+88)
(-3.5551214e+90 1.0351844e+89 -5.3811619e+88)
(-3.7087055e+90 1.3456127e+89 2.8914317e+89)
(-3.6939881e+90 3.8007951e+88 2.8599488e+89)
(-3.59039e+90 8.6355563e+88 -1.2391932e+88)
(-3.7388787e+90 1.5640913e+89 3.3231315e+89)
(-3.5927213e+90 8.7954263e+88 -2.6720079e+88)
(-3.7357699e+90 3.1934687e+88 3.1854197e+89)
(-3.6775699e+90 7.5640248e+88 1.7983294e+89)
(-3.7627421e+90 1.7224436e+89 5.789661e+89)
(-3.6618318e+90 9.5660419e+88 1.7346821e+89)
(-3.7504142e+90 3.230924e+88 5.7657843e+89)
(-3.5853214e+90 9.0944771e+88 -4.6349513e+88)
(-3.5599906e+90 1.2346083e+89 -5.5878655e+88)
(-3.7069193e+90 1.4983849e+89 2.7962328e+89)
(-3.6959214e+90 5.8445775e+88 2.7855158e+89)
(-3.5795832e+90 8.0608839e+88 -3.662692e+88)
(-3.739658e+90 1.4579651e+89 3.0180485e+89)
(-3.5792295e+90 1.0018471e+89 -4.82452e+88)
(-3.7394597e+90 4.0306077e+88 2.9277264e+89)
(-3.6802373e+90 8.9483585e+88 1.7527485e+89)
(-3.6616834e+90 1.1259492e+89 1.7037013e+89)
(-3.7574145e+90 1.9071194e+89 5.6531381e+89)
(-3.7398286e+90 5.6159557e+88 5.6326103e+89)
(-3.7783318e+90 1.7904085e+89 5.9063723e+89)
(-3.6905577e+90 8.6054429e+88 1.8627288e+89)
(-3.6801597e+90 9.9983309e+88 1.7255943e+89)
(-3.7725753e+90 3.3576802e+88 5.7344134e+89)
(-3.4738641e+90 6.5884034e+88 -1.5687351e+89)
(-3.5861682e+90 1.2413262e+89 9.5762049e+88)
(-3.4698657e+90 1.1104698e+89 -1.654097e+89)
(-3.5903462e+90 4.9432781e+88 8.9379948e+88)
(-3.4066918e+90 6.3518911e+88 -1.8067953e+89)
(-3.4087482e+90 9.7817358e+88 -1.8830857e+89)
(-3.5146725e+90 1.1492478e+89 2.2819947e+88)
(-3.5200168e+90 5.6335502e+88 1.8344697e+88)
(-3.4142596e+90 7.6033022e+88 -1.8341808e+89)
(-3.3925671e+90 1.2231689e+89 -1.9532685e+89)
(-3.5114928e+90 1.2576616e+89 1.0428244e+88)
(-3.5009555e+90 7.7831806e+88 4.8088224e+87)
(-3.4773764e+90 7.5733825e+88 -1.5938101e+89)
(-3.4607076e+90 1.2390987e+89 -1.6844783e+89)
(-3.5753249e+90 1.4777258e+89 7.1457368e+88)
(-3.562588e+90 8.4833191e+88 6.7383725e+88)
(-3.4836571e+90 6.9873585e+88 -1.3188283e+89)
(-3.6021224e+90 1.3458353e+89 1.2255976e+89)
(-3.4843827e+90 9.4306389e+88 -1.4373057e+89)
(-3.605195e+90 3.8098937e+88 1.1240905e+89)
(-3.407424e+90 5.3187688e+88 -1.8124137e+89)
(-3.3826898e+90 9.3714362e+88 -1.9287725e+89)
(-3.5081831e+90 1.0139659e+89 1.7458556e+88)
(-3.4944056e+90 4.4967132e+88 1.4042249e+88)
(-3.4167517e+90 6.5072424e+88 -1.5142137e+89)
(-3.5341583e+90 1.1796208e+89 5.4147872e+88)
(-3.424252e+90 8.0119269e+88 -1.6261726e+89)
(-3.538107e+90 3.7769983e+88 4.5465825e+88)
(-3.4704691e+90 5.405594e+88 -1.60348e+89)
(-3.4500554e+90 1.0063007e+89 -1.6853638e+89)
(-3.573684e+90 1.2787913e+89 8.0924242e+88)
(-3.5577997e+90 6.092719e+88 7.4887329e+88)
(-3.4028041e+90 4.4827412e+88 -1.761715e+89)
(-3.4802952e+90 1.016244e+89 1.0877263e+88)
(-3.4091258e+90 7.7962468e+88 -1.8945605e+89)
(-3.4896492e+90 3.2085008e+88 1.4860177e+87)
(-3.4136701e+90 2.9312973e+88 -1.9623723e+89)
(-3.3931171e+90 7.2781785e+88 -2.1343231e+89)
(-3.4893737e+90 6.9561057e+88 -3.373252e+88)
(-3.4765939e+90 2.9089617e+88 -4.3048274e+88)
(-3.4206432e+90 3.6315556e+88 -1.635748e+89)
(-3.5030499e+90 8.2128147e+88 1.631331e+87)
(-3.4297312e+90 6.0876196e+88 -1.8152022e+89)
(-3.5104301e+90 2.5289249e+88 -1.0966424e+88)
(-3.3928142e+90 3.3657105e+88 -2.0335852e+89)
(-3.372735e+90 8.1586007e+88 -2.1553784e+89)
(-3.4595589e+90 9.7126096e+88 -2.8765815e+88)
(-3.4449219e+90 4.8384903e+88 -3.6248988e+88)
(-3.4594342e+90 6.1063422e+87 -1.6925525e+89)
(-3.51433e+90 6.290411e+88 -4.7585426e+88)
(-3.4366825e+90 6.1719188e+88 -1.9023865e+89)
(-3.5059521e+90 3.0302577e+88 -6.2376044e+88)
(-3.4681216e+90 1.0929009e+88 -1.3170907e+89)
(-3.5253276e+90 6.394574e+88 -8.9955378e+87)
(-3.4636557e+90 4.4438344e+88 -1.5039758e+89)
(-3.5365499e+90 1.2104068e+88 -2.5128108e+88)
(-3.6425049e+90 3.8938922e+88 1.114449e+88)
(-3.6333196e+90 -1.0750257e+88 -1.027183e+88)
(-3.6244677e+90 -2.7519833e+87 -2.1552649e+89)
(-4.4077615e+90 3.7582633e+88 -7.4409268e+88)
(-3.6047374e+90 2.2746552e+88 -2.5375788e+89)
(-3.6382838e+90 3.2784783e+88 -2.8034182e+88)
(-3.6104048e+90 1.1775373e+88 -5.2976093e+88)
(-4.3710747e+90 -4.15335e+88 -1.2798139e+89)
(-3.574317e+90 5.1566365e+88 -2.982581e+89)
(-3.6040629e+90 -7.4010854e+87 -2.5315999e+89)
(-4.3377018e+90 -5.6129332e+88 -3.4075445e+89)
(-4.284571e+90 1.9773356e+88 -4.5510142e+89)
(-3.6520784e+90 4.9951125e+88 -2.951365e+88)