/*--------------------------------*- C++ -*----------------------------------*\
  =========                 |
  \\      /  F ield         | OpenFOAM: The Open Source CFD Toolbox
   \\    /   O peration     | Website:  https://openfoam.org
    \\  /    A nd           | Version:  7
     \\/     M anipulation  |
\*---------------------------------------------------------------------------*/
FoamFile
{
    version     2.0;
    format      ascii;
    class       volVectorField;
    location    "2000";
    object      UMean;
}
// * * * * * * * * * * * * * * * * * * * * * * * * * * * * * * * * * * * * * //

dimensions      [0 1 -1 0 0 0 0];

internalField   nonuniform List<vector> 
34356
(
(-2.7609139e+88 2.1772249e+87 2.6451335e+87)
(-2.4416148e+88 1.8399483e+87 -1.429437e+86)
(-2.5325244e+88 1.2859878e+87 3.2633371e+87)
(-2.5245962e+88 6.043793e+86 3.3288924e+87)
(-2.804344e+88 6.5293528e+86 2.8740057e+87)
(-2.7786588e+88 3.3498341e+86 2.7461665e+87)
(-3.5414325e+88 7.8400219e+86 4.6405455e+86)
(-2.7094776e+88 2.0298555e+86 1.8292063e+87)
(-2.7338272e+88 5.6995671e+86 1.9375705e+87)
(-2.4930281e+88 8.6147415e+86 -2.902627e+87)
(-1.9544267e+88 1.5871505e+87 -1.9667446e+86)
(-2.4878301e+88 9.3101762e+85 -2.9146844e+87)
(-1.9509332e+88 2.3482751e+86 -1.9531565e+86)
(-2.1427705e+88 4.7738393e+86 2.5455424e+87)
(-2.1442993e+88 7.1168332e+86 2.5791185e+87)
(-2.6389113e+88 1.3237114e+86 2.9504641e+87)
(-2.634355e+88 6.0898868e+86 2.8933875e+87)
(-2.1513318e+88 5.8194578e+86 2.5852061e+87)
(-2.6625949e+88 1.0756084e+86 3.0754459e+87)
(-2.1520557e+88 4.437677e+86 2.7027758e+87)
(-2.6501491e+88 6.373949e+86 3.1241619e+87)
(-2.8874844e+88 5.7782251e+86 9.8504783e+86)
(-2.7501811e+88 3.984016e+86 -6.7142046e+86)
(-2.7461669e+88 3.0225461e+86 -7.1952544e+86)
(-2.8759947e+88 2.1485102e+86 9.0363219e+86)
(-3.4715017e+88 6.5669185e+86 -7.4442949e+86)
(-2.3748942e+88 4.0846762e+86 -3.5525406e+86)
(-2.3570083e+88 2.8318212e+86 -3.9831911e+86)
(-2.3333059e+88 3.6396119e+86 -3.4260724e+86)
(-2.3526296e+88 3.9789696e+86 -3.138198e+86)
(-2.5371295e+88 4.2533406e+86 -1.483884e+87)
(-2.759387e+88 6.1257892e+86 -7.2303808e+86)
(-2.5281484e+88 4.5979312e+86 -5.7707471e+86)
(-2.479377e+88 4.0257112e+86 -1.1607595e+87)
(-2.4916172e+88 1.2009024e+86 1.8736646e+87)
(-2.4925236e+88 5.7248216e+86 1.8153982e+87)
(-2.5026223e+88 8.3030092e+85 1.8726886e+87)
(-2.507558e+88 5.1971461e+86 1.9557174e+87)
(-2.3189228e+88 1.3487213e+86 -2.641208e+87)
(-2.4162703e+88 2.7248077e+86 -2.4342909e+87)
(-2.4252426e+88 -7.5605564e+85 -2.4170489e+87)
(-2.3151434e+88 2.0071657e+86 -2.6966169e+87)
(-1.8892312e+88 4.4624699e+86 -3.4811975e+87)
(-1.418381e+88 1.0684903e+87 -8.4080392e+84)
(-1.8976794e+88 1.2846373e+86 -3.4845676e+87)
(-1.4352004e+88 1.4910487e+86 7.1238118e+85)
(-2.3951569e+88 3.0299681e+86 -2.4346535e+87)
(-2.4155944e+88 -7.1778361e+85 -2.4718317e+87)
(-2.3172924e+88 2.0051874e+86 -2.6881919e+87)
(-2.3068513e+88 1.5467477e+86 -2.6663718e+87)
(-1.8797717e+88 1.7074312e+86 -3.4817891e+87)
(-1.8934198e+88 4.2698169e+86 -3.5012533e+87)
(-1.4236492e+88 1.5692358e+86 7.3313407e+85)
(-1.4314907e+88 9.9972331e+86 4.7831705e+85)
(-2.3239029e+88 5.4787159e+86 2.6013502e+87)
(-1.8074125e+88 2.908687e+86 2.0680845e+87)
(-1.8000235e+88 4.1612876e+86 1.912755e+87)
(-2.3156e+88 2.2360328e+86 2.4474793e+87)
(-1.807038e+88 4.3945928e+86 2.0002111e+87)
(-2.3298179e+88 5.1603933e+86 2.5809307e+87)
(-1.8042267e+88 4.6740017e+86 2.0589319e+87)
(-2.3129614e+88 1.727941e+86 2.5593216e+87)
(-1.8079448e+88 3.2724107e+86 1.9799398e+87)
(-1.8080117e+88 3.6730495e+86 2.0377661e+87)
(-2.3245186e+88 4.239026e+86 2.5724212e+87)
(-2.3221449e+88 6.7333972e+85 2.5984775e+87)
(-2.3255441e+88 5.2052613e+86 2.7484826e+87)
(-1.817426e+88 2.5837994e+86 2.1633798e+87)
(-1.8076823e+88 3.4098729e+86 1.9846831e+87)
(-2.318806e+88 1.4994548e+86 2.5975189e+87)
(-2.6361422e+88 4.8086991e+86 1.5440352e+87)
(-2.6362334e+88 1.1057117e+86 1.5053125e+87)
(-2.5371554e+88 1.9272667e+86 1.1473204e+85)
(-2.5385449e+88 3.327132e+86 2.0209051e+85)
(-2.5704025e+88 3.4038428e+86 -4.8809277e+86)
(-2.4871581e+88 2.4759805e+86 -1.1746842e+87)
(-2.5054869e+88 1.8772582e+86 -1.0860413e+87)
(-2.5718681e+88 1.7440485e+86 -4.9258331e+86)
(-2.7868008e+88 5.1751374e+86 -6.5310374e+86)
(-2.5711219e+88 3.9696969e+86 -5.3920512e+86)
(-2.4919518e+88 2.9632664e+86 -1.1909898e+87)
(-2.5101635e+88 2.733121e+86 -1.0835391e+87)
(-2.5758649e+88 2.2847719e+86 -4.767038e+86)
(-2.7896934e+88 2.2086311e+86 -7.1613999e+86)
(-2.6121985e+88 1.1425722e+86 1.4278004e+87)
(-2.6195923e+88 5.2323128e+86 1.4066049e+87)
(-2.5294567e+88 4.3045195e+86 -6.9077868e+84)
(-2.5343185e+88 2.0077394e+86 5.9170624e+85)
(-2.5347492e+88 4.568831e+86 -1.5148108e+87)
(-2.5277517e+88 2.1350401e+86 -1.555808e+87)
(-2.3795997e+88 3.6706673e+86 -1.0051252e+87)
(-2.3361453e+88 2.6774676e+86 -9.4148426e+86)
(-2.3579845e+88 1.3573685e+86 -2.7084114e+86)
(-2.3555014e+88 4.1168989e+86 -3.9522164e+86)
(-2.1564872e+88 3.5998128e+86 -4.2702204e+86)
(-2.4578981e+88 5.410129e+86 -2.9190418e+87)
(-2.8034117e+88 5.4034255e+86 -1.0334795e+87)
(-2.3197105e+88 3.6811794e+86 -2.2029814e+87)
(-2.5535006e+88 4.3437759e+86 -1.5635386e+87)
(-2.5810093e+88 1.2148017e+86 -1.5716025e+87)
(-2.332264e+88 3.6962736e+85 -2.3079895e+87)
(-2.4810481e+88 1.4066695e+86 -1.6495802e+87)
(-2.4636287e+88 4.3575734e+86 -1.6068515e+87)
(-2.4911521e+88 4.2222821e+86 -1.3253967e+87)
(-2.5239952e+88 2.2441131e+86 -1.274041e+87)
(-2.1856547e+88 3.6050097e+86 -5.2706082e+86)
(-2.1487796e+88 3.6241761e+86 -9.0031061e+86)
(-2.1452445e+88 3.1816033e+86 -8.7174808e+86)
(-2.1955497e+88 3.583268e+86 -9.2951791e+86)
(-2.1850535e+88 3.3621554e+86 -9.2217119e+86)
(-2.1812352e+88 3.1046649e+86 -1.0059806e+87)
(-2.187278e+88 3.5875205e+86 -1.0362754e+87)
(-2.1946915e+88 2.9376407e+86 -1.0576169e+87)
(-2.1960989e+88 5.3257445e+86 1.6793949e+87)
(-2.1880532e+88 1.8589848e+86 1.7452016e+87)
(-2.1923415e+88 4.9961618e+86 1.7030087e+87)
(-2.1869701e+88 1.7628248e+86 1.6007211e+87)
(-2.2010286e+88 4.4423227e+86 1.696147e+87)
(-2.1920532e+88 9.2755552e+85 1.7027037e+87)
(-2.1955601e+88 4.7329812e+86 1.8256903e+87)
(-2.1893803e+88 9.0071113e+85 1.699616e+87)
(-2.8644963e+88 2.3302381e+86 -2.375732e+87)
(-2.8536527e+88 3.063956e+86 -2.4664846e+87)
(-2.4617184e+88 2.2467876e+86 -3.1134907e+87)
(-2.370137e+88 2.4323245e+86 -1.9189363e+87)
(-2.3928735e+88 -1.2252238e+86 -1.9279827e+87)
(-2.4553529e+88 1.0442516e+86 -3.0957213e+87)
(-1.6620171e+88 2.2571173e+86 -3.697911e+87)
(-1.9745512e+88 2.2775e+86 -3.1688402e+87)
(-1.9766536e+88 3.1412046e+84 -3.1993841e+87)
(-1.665945e+88 2.0142008e+86 -3.7648381e+87)
(-1.1523815e+88 3.6661565e+86 -3.388616e+87)
(-9.9711583e+87 7.3464892e+86 6.9145926e+86)
(-1.0104145e+88 1.5917786e+86 8.0626052e+86)
(-1.154267e+88 2.2827305e+86 -3.3172842e+87)
(-1.6664928e+88 2.1452926e+86 -3.7517365e+87)
(-1.9775502e+88 2.4544663e+86 -3.1864177e+87)
(-1.98452e+88 1.7324752e+85 -3.1977898e+87)
(-1.6717796e+88 1.7804791e+86 -3.7389692e+87)
(-1.1511377e+88 2.0524348e+86 -3.3571057e+87)
(-1.1557319e+88 3.2153364e+86 -3.3770611e+87)
(-1.0082291e+88 2.6111066e+85 7.9303718e+86)
(-1.0059168e+88 6.4780269e+86 7.5438719e+86)
(-2.347596e+88 2.6765996e+86 -1.9198831e+87)
(-2.3828636e+88 -1.3122737e+86 -1.9579982e+87)
(-2.4583303e+88 9.6474076e+85 -3.1258942e+87)
(-2.4484192e+88 2.3155788e+86 -3.0992743e+87)
(-1.97018e+88 2.5279166e+86 -3.1759357e+87)
(-1.9779539e+88 1.9147121e+85 -3.1923329e+87)
(-1.666369e+88 1.5862474e+86 -3.7408045e+87)
(-1.6580451e+88 2.0870003e+86 -3.7559595e+87)
(-1.6660525e+88 2.0492482e+86 -3.7299311e+87)
(-1.9789648e+88 2.1832237e+86 -3.1868628e+87)
(-1.9821496e+88 -2.7293579e+85 -3.2180248e+87)
(-1.6713862e+88 1.5114847e+86 -3.7910991e+87)
(-1.1395695e+88 2.1767184e+86 -3.357226e+87)
(-1.1480779e+88 2.9219506e+86 -3.3745635e+87)
(-1.0102589e+88 2.5042898e+85 7.9580057e+86)
(-1.0096213e+88 5.9584665e+86 7.7808428e+86)
(-1.1512071e+88 1.8904321e+86 -3.3381059e+87)
(-1.0078709e+88 5.0098452e+85 7.6415119e+86)
(-1.1514247e+88 2.9537612e+86 -3.4134896e+87)
(-9.9967575e+87 6.1224251e+86 6.4876887e+86)
(-1.5668231e+88 1.7149036e+86 2.021866e+87)
(-1.5649251e+88 2.4435255e+86 1.9314285e+87)
(-1.9991638e+88 2.1612574e+86 2.3900403e+87)
(-1.9959397e+88 4.1602941e+86 2.4291288e+87)
(-1.9948472e+88 3.6070569e+86 2.263659e+87)
(-1.5596381e+88 2.4446439e+86 1.8588105e+87)
(-1.5551829e+88 3.4714604e+86 1.8830632e+87)
(-1.9883985e+88 1.8387753e+86 2.2803844e+87)
(-2.0031898e+88 4.8162751e+86 2.384322e+87)
(-1.5694601e+88 2.8792654e+86 1.9954928e+87)
(-1.5611977e+88 3.6687225e+86 1.8836272e+87)
(-2.0029746e+88 3.0263432e+86 2.3437819e+87)
(-1.5680725e+88 3.295983e+86 1.9453758e+87)
(-1.5717085e+88 3.4424291e+86 2.0340215e+87)
(-1.9966684e+88 4.1732817e+86 2.3731884e+87)
(-1.9917958e+88 1.7625033e+86 2.4302849e+87)
(-1.5613533e+88 2.8261823e+86 1.8611872e+87)
(-1.5740138e+88 1.9529802e+86 2.0091263e+87)
(-2.0059504e+88 4.0795182e+86 2.4125754e+87)
(-2.0004959e+88 2.0901823e+86 2.3375896e+87)
(-2.0003405e+88 3.2384719e+86 2.3665034e+87)
(-1.5669627e+88 2.5887618e+86 1.9082782e+87)
(-1.5612249e+88 2.6298848e+86 1.9505926e+87)
(-1.9934831e+88 1.0070278e+86 2.4008705e+87)
(-1.5768884e+88 1.4897288e+86 2.0631662e+87)
(-1.5724694e+88 2.0450926e+86 1.9649476e+87)
(-2.0002795e+88 4.0881935e+86 2.5110433e+87)
(-2.003211e+88 1.7457514e+86 2.4730941e+87)
(-1.56539e+88 1.7489626e+86 1.8866439e+87)
(-1.5644007e+88 2.8344803e+86 1.9374106e+87)
(-1.9981073e+88 2.9596581e+86 2.3486918e+87)
(-1.9943538e+88 1.0703869e+86 2.3795412e+87)
(-2.2428e+88 1.7503985e+86 -1.0453781e+87)
(-2.2331081e+88 1.0647998e+86 -1.3050612e+87)
(-2.3188954e+88 4.7242761e+86 1.868945e+87)
(-2.2133511e+88 1.413831e+86 6.9357659e+86)
(-2.2226806e+88 3.681639e+86 7.7394354e+86)
(-2.3128819e+88 9.8873103e+85 1.7792935e+87)
(-2.215821e+88 1.7578666e+86 7.278815e+86)
(-2.2184957e+88 3.7788016e+86 6.9447277e+86)
(-2.3151859e+88 8.7829024e+85 1.7907433e+87)
(-2.3238951e+88 4.1799691e+86 1.7761444e+87)
(-2.2486759e+88 3.5404017e+86 2.3481917e+86)
(-2.1748471e+88 3.1446945e+86 -4.0270836e+86)
(-2.1716107e+88 2.4238471e+86 -3.7817382e+86)
(-2.2456098e+88 1.7523033e+86 2.65075e+86)
(-2.2549847e+88 3.6151909e+86 3.2605793e+86)
(-2.1685347e+88 2.3317917e+86 -4.2622642e+86)
(-2.1708388e+88 2.8044007e+86 -3.6026936e+86)
(-2.2466746e+88 1.6907093e+86 2.4574051e+86)
(-2.2011403e+88 2.7268073e+86 -4.8081309e+86)
(-2.1622403e+88 2.8830094e+86 -8.9136939e+86)
(-2.1662537e+88 2.1991245e+86 -8.1212451e+86)
(-2.1994694e+88 2.3840897e+86 -5.4061804e+86)
(-2.2124626e+88 2.6344227e+86 -8.8163853e+86)
(-2.2135851e+88 2.2280147e+86 -8.1028071e+86)
(-2.1962588e+88 1.716563e+86 -9.5542658e+86)
(-2.1891111e+88 2.8662962e+86 -1.0689359e+87)
(-2.5134362e+88 2.3833942e+86 -1.2746782e+87)
(-2.1966134e+88 2.4881097e+86 -9.8500437e+86)
(-2.2014841e+88 2.3091886e+86 -9.8728612e+86)
(-2.220931e+88 2.7376656e+86 -8.1745063e+86)
(-2.5603849e+88 1.4341665e+86 -1.119745e+87)
(-2.218102e+88 2.2528421e+86 -7.9818103e+86)
(-2.1715766e+88 2.5335333e+86 -7.9418971e+86)
(-2.1734429e+88 2.7800354e+86 -8.1506393e+86)
(-2.1994009e+88 3.0609068e+86 -5.4029145e+86)
(-2.1962496e+88 2.3647871e+86 -5.1591014e+86)
(-2.4699017e+88 1.0967425e+86 -1.6477414e+87)
(-2.4440077e+88 2.0616759e+86 -1.7731625e+87)
(-2.1957348e+88 3.2973248e+86 -5.4266548e+86)
(-2.1673711e+88 3.5104934e+86 -8.8901454e+86)
(-2.1649682e+88 2.7742282e+86 -8.6154836e+86)
(-2.2002004e+88 3.0651547e+86 -5.5932158e+86)
(-2.1919111e+88 3.6520451e+86 -1.0770385e+87)
(-2.1917437e+88 2.3382813e+86 -1.021735e+87)
(-2.2149723e+88 3.3258953e+86 -8.9157784e+86)
(-2.209422e+88 2.8197821e+86 -8.6775492e+86)
(-2.5242456e+88 2.9297286e+86 -1.2799966e+87)
(-2.2024605e+88 3.3118077e+86 -9.3033131e+86)
(-2.2053123e+88 3.1021519e+86 -9.5480815e+86)
(-2.2276106e+88 3.4848814e+86 -7.8432779e+86)
(-2.5644652e+88 2.4724109e+86 -1.1258426e+87)
(-2.2260183e+88 2.9664157e+86 -7.5190872e+86)
(-2.1758833e+88 2.9405202e+86 -7.3946512e+86)
(-2.2056871e+88 3.7203061e+86 -5.0354621e+86)
(-2.1790155e+88 3.4728132e+86 -7.7319379e+86)
(-2.2020831e+88 2.6272141e+86 -4.7038144e+86)
(-2.4830403e+88 2.604314e+86 -1.6387312e+87)
(-2.4446806e+88 2.8005912e+86 -1.7780593e+87)
(-2.3155952e+88 4.9355877e+86 1.7538302e+87)
(-2.2214288e+88 2.286348e+86 7.9193147e+86)
(-2.2232136e+88 4.6905771e+86 7.4008826e+86)
(-2.3064177e+88 1.6576223e+86 1.7974652e+87)
(-2.3125641e+88 5.0227786e+86 1.7529004e+87)
(-2.21647e+88 2.3815555e+86 6.6997714e+86)
(-2.2174136e+88 4.298296e+86 7.0746129e+86)
(-2.3096404e+88 1.9195133e+86 1.6938465e+87)
(-2.2475776e+88 4.2104528e+86 2.5611953e+86)
(-2.1655638e+88 3.5034772e+86 -4.014922e+86)
(-2.1703068e+88 3.0680627e+86 -4.2608014e+86)
(-2.2478854e+88 2.5622799e+86 2.1886289e+86)
(-2.1757075e+88 2.5695092e+86 -3.1626331e+86)
(-2.1794888e+88 3.9204387e+86 -3.500715e+86)
(-2.2489422e+88 4.2751932e+86 2.6841339e+86)
(-2.244673e+88 2.0047923e+86 3.1135529e+86)
(-2.4712679e+88 5.9694315e+86 -2.9670103e+87)
(-2.8115927e+88 6.7186168e+86 -1.1133671e+87)
(-2.4694486e+88 9.0212193e+85 -2.9661984e+87)
(-2.8117994e+88 1.7287305e+86 -1.1413696e+87)
(-2.2615293e+88 2.3550043e+86 -2.2897209e+87)
(-2.5348411e+88 2.5033991e+86 -1.7547112e+87)
(-2.5627114e+88 1.2625826e+86 -1.5393448e+87)
(-2.2820357e+88 4.2962075e+85 -2.2597724e+87)
(-2.2792779e+88 2.6790181e+86 -2.2916045e+87)
(-2.5360062e+88 2.8815329e+86 -1.7235561e+87)
(-2.5629732e+88 1.8600692e+86 -1.5833529e+87)
(-2.2827622e+88 9.4163722e+85 -2.3098898e+87)
(-1.8267551e+88 3.1944725e+86 -3.5674405e+86)
(-1.8972191e+88 3.6360765e+86 7.7957624e+85)
(-1.8007883e+88 3.0836365e+86 -5.6499583e+86)
(-1.8493276e+88 3.2870531e+86 -3.9251153e+86)
(-1.8033828e+88 2.9391732e+86 -5.63684e+86)
(-1.8504587e+88 2.8211508e+86 -3.9937059e+86)
(-2.3665176e+88 1.8847525e+86 -2.7998399e+87)
(-2.5403587e+88 3.584847e+86 -1.240521e+87)
(-2.5672216e+88 5.6960025e+85 -1.3140661e+87)
(-2.2386341e+88 1.7615729e+86 -1.8864399e+87)
(-2.244132e+88 5.1409843e+85 -1.9572906e+87)
(-2.4183073e+88 2.7562635e+86 -1.5112433e+87)
(-2.2504671e+88 2.2932376e+86 -2.5854105e+87)
(-2.2653898e+88 1.9798506e+86 -2.5697393e+87)
(-2.4169381e+88 2.5042848e+86 -1.7010941e+87)
(-2.3330943e+88 2.6394199e+86 -1.3694057e+87)
(-2.306049e+88 2.2411838e+86 -1.8148072e+87)
(-2.3123422e+88 2.2458273e+86 -1.8995706e+87)
(-2.3296813e+88 3.2412702e+86 -1.5436499e+87)
(-2.3431268e+88 1.2350589e+86 -1.4828061e+87)
(-2.3141568e+88 1.2533222e+86 -1.9849318e+87)
(-2.3055105e+88 1.7936389e+86 -1.7377802e+87)
(-2.3349334e+88 1.9103864e+86 -1.3675823e+87)
(-2.2640413e+88 1.2972827e+86 -2.691247e+87)
(-2.4140446e+88 1.0971958e+86 -1.8468393e+87)
(-2.4230059e+88 1.1028864e+86 -1.407394e+87)
(-2.2648167e+88 2.1718284e+86 -1.3399494e+87)
(-2.2721197e+88 1.5047974e+86 -1.4265565e+87)
(-2.2811753e+88 2.0397285e+86 -1.1342293e+87)
(-2.2620003e+88 2.2911065e+86 -1.1439082e+87)
(-2.2651072e+88 2.6453473e+86 -1.323929e+87)
(-2.2703274e+88 3.0894072e+86 -1.3888088e+87)
(-2.2629786e+88 3.0813943e+86 -1.0929888e+87)
(-2.2648857e+88 3.3110327e+86 -1.1704134e+87)
(-2.2194612e+88 3.1232656e+86 -9.9109561e+86)
(-2.2219357e+88 3.3919688e+86 -1.0639989e+87)
(-2.2094434e+88 3.0920231e+86 -9.6146707e+86)
(-2.2195545e+88 3.3863571e+86 -9.726324e+86)
(-2.2297399e+88 2.2172436e+86 -1.0876755e+87)
(-2.2146946e+88 2.4278739e+86 -1.0789483e+87)
(-2.2290064e+88 2.6966815e+86 -9.9117936e+86)
(-2.2147311e+88 2.656971e+86 -9.8755833e+86)
(-1.7888089e+88 2.9737613e+86 -6.5417252e+86)
(-1.8280142e+88 3.2206219e+86 -4.8425684e+86)
(-1.7907264e+88 3.0595804e+86 -6.5118112e+86)
(-1.8302705e+88 2.8807649e+86 -4.8263161e+86)
(-1.8091062e+88 3.2267109e+86 -7.3865462e+86)
(-1.8003818e+88 3.5204106e+86 -7.6015702e+86)
(-1.8341921e+88 3.3675147e+86 -6.6000692e+86)
(-1.8017158e+88 2.9454734e+86 -7.1730666e+86)
(-1.827678e+88 3.0099639e+86 -6.3055175e+86)
(-1.8053611e+88 3.2167798e+86 -7.1017675e+86)
(-1.8299144e+88 3.0590356e+86 -6.2835743e+86)
(-1.7945034e+88 3.2992521e+86 -6.79749e+86)
(-1.8305232e+88 3.2464728e+86 -7.3714385e+86)
(-1.8504748e+88 3.4046756e+86 -6.5731363e+86)
(-1.8229997e+88 3.5879199e+86 -7.743624e+86)
(-1.8421425e+88 3.4926938e+86 -6.7857727e+86)
(-1.8249669e+88 3.1011605e+86 -7.1235717e+86)
(-1.8417818e+88 3.0996652e+86 -6.3865677e+86)
(-1.8275673e+88 3.273217e+86 -7.1519814e+86)
(-1.8465227e+88 3.1564753e+86 -6.2872996e+86)
(-1.8816997e+88 3.1662258e+86 -7.1415746e+86)
(-1.8860426e+88 3.1209836e+86 -7.0676573e+86)
(-1.9075432e+88 3.1936155e+86 -8.981445e+86)
(-1.9081133e+88 3.0262399e+86 -8.9510695e+86)
(-1.8909946e+88 3.3502378e+86 -7.2166772e+86)
(-1.882532e+88 3.5497865e+86 -7.7044301e+86)
(-1.9035225e+88 3.4640466e+86 -9.7784471e+86)
(-1.9083563e+88 3.2475812e+86 -9.5903395e+86)
(-1.8856749e+88 3.4384411e+86 -7.7603815e+86)
(-1.8874052e+88 3.6646919e+86 -7.626554e+86)
(-1.9082155e+88 3.3900687e+86 -9.7509211e+86)
(-1.9085298e+88 3.5805103e+86 -9.6699664e+86)
(-1.825472e+88 3.4569145e+86 -7.7872925e+86)
(-1.8944742e+88 4.5450568e+86 1.7337596e+87)
(-1.8941328e+88 2.4810403e+86 1.6880871e+87)
(-1.8856836e+88 1.7382298e+86 1.8419926e+87)
(-1.8923075e+88 4.4733353e+86 1.7831272e+87)
(-1.885797e+88 3.9855874e+86 1.7800817e+87)
(-1.8884206e+88 1.6401235e+86 1.7313766e+87)
(-1.8871739e+88 4.019986e+86 1.6675168e+87)
(-1.8806467e+88 1.9271576e+86 1.6866285e+87)
(-1.8890386e+88 1.6318191e+86 1.6883221e+87)
(-1.8904088e+88 3.8401631e+86 1.7491782e+87)
(-1.8840414e+88 1.2262485e+86 1.7856904e+87)
(-1.8911372e+88 3.7740145e+86 1.7507733e+87)
(-1.8874996e+88 3.7789031e+86 1.8462533e+87)
(-1.8891651e+88 1.0096009e+86 1.7912118e+87)
(-1.8856993e+88 3.2629628e+86 1.714645e+87)
(-1.8800899e+88 1.0377111e+86 1.7408608e+87)
(-2.9113522e+88 1.7048953e+86 -1.3570425e+87)
(-2.9014365e+88 2.797281e+86 -1.4368482e+87)
(-2.5168421e+88 1.7502638e+86 -2.6310649e+87)
(-1.9914518e+88 -3.424133e+85 -3.3277625e+87)
(-1.986954e+88 2.5792319e+86 -3.3266344e+87)
(-2.4722596e+88 1.7305024e+86 -1.4767323e+87)
(-2.5089261e+88 -9.5653533e+85 -1.5830904e+87)
(-2.5136399e+88 7.4961067e+85 -2.5934988e+87)
(-1.9809321e+88 2.7141215e+86 -3.2948955e+87)
(-1.9846161e+88 -1.8380139e+85 -3.3275759e+87)
(-1.7386305e+88 2.4350382e+86 -4.0483938e+87)
(-1.7410045e+88 1.9173446e+86 -4.0924322e+87)
(-1.2047585e+88 2.2489724e+86 -3.4522905e+87)
(-1.2044362e+88 1.2510508e+86 -3.5062736e+87)
(-8.7072164e+87 2.0534974e+86 -3.8315438e+87)
(-8.692411e+87 2.6963709e+86 -3.7555979e+87)
(-6.7556189e+87 3.2955319e+86 -1.3062523e+87)
(-9.6142313e+87 4.1450529e+86 1.385456e+87)
(-6.8852869e+87 3.2484027e+86 -1.0758238e+87)
(-9.6971205e+87 1.8283452e+86 1.427912e+87)
(-6.8336478e+87 2.2958961e+86 -1.1064362e+87)
(-9.7414125e+87 6.3358304e+85 1.4272986e+87)
(-6.7974441e+87 3.0671526e+86 -1.1117423e+87)
(-9.6306248e+87 3.8134877e+86 1.3647927e+87)
(-1.1977106e+88 1.4126801e+86 -3.4206192e+87)
(-1.1974807e+88 2.2617829e+86 -3.4433913e+87)
(-8.5966956e+87 2.5399916e+86 -3.7920474e+87)
(-8.622651e+87 2.0107594e+86 -3.7364053e+87)
(-1.7417432e+88 2.1612299e+86 -4.0804853e+87)
(-1.7470101e+88 1.5001335e+86 -4.079828e+87)
(-1.2055949e+88 1.0890328e+86 -3.4521589e+87)
(-1.2053021e+88 2.0164007e+86 -3.4844294e+87)
(-8.6424764e+87 2.2569844e+86 -3.8364189e+87)
(-8.6342526e+87 1.5610455e+86 -3.7809961e+87)
(-1.2083142e+88 9.3880776e+85 -3.4919045e+87)
(-1.2090118e+88 1.8815993e+86 -3.4462721e+87)
(-8.6734179e+87 2.1698755e+86 -3.7766917e+87)
(-8.697789e+87 1.7137156e+86 -3.8388913e+87)
(-6.8803717e+87 1.7402766e+86 -1.1340433e+87)
(-6.8659212e+87 2.1860517e+86 -1.1091485e+87)
(-9.7604286e+87 2.3068374e+86 1.4269592e+87)
(-9.7288814e+87 -5.7110926e+85 1.4365952e+87)
(-9.7583953e+87 5.8472278e+85 1.4376789e+87)
(-9.5626217e+87 3.4931883e+86 1.3160493e+87)
(-6.9593179e+87 2.2830795e+86 -1.0633409e+87)
(-6.7466722e+87 2.5771998e+86 -1.3565514e+87)
(-2.4500981e+88 1.8521448e+86 -1.4735167e+87)
(-2.5024894e+88 -8.0899773e+85 -1.6113496e+87)
(-2.518763e+88 7.6702498e+85 -2.6349318e+87)
(-1.9918869e+88 -5.6399313e+85 -3.3640035e+87)
(-1.9874093e+88 2.6096061e+86 -3.3263681e+87)
(-2.5050121e+88 1.970246e+86 -2.6417552e+87)
(-1.9840263e+88 -3.037679e+85 -3.3203256e+87)
(-1.9779917e+88 2.6095654e+86 -3.3078363e+87)
(-1.7389428e+88 1.4059384e+86 -4.0664465e+87)
(-1.7294663e+88 2.0433853e+86 -4.0622892e+87)
(-1.7403903e+88 2.2461339e+86 -4.0591774e+87)
(-1.7451455e+88 1.4314089e+86 -4.1069756e+87)
(-1.1421806e+88 2.9018017e+86 -3.3874107e+87)
(-8.5292795e+87 2.2103706e+86 -3.8568549e+87)
(-1.1996421e+88 1.0355631e+86 -3.4433427e+87)
(-1.1984121e+88 2.013003e+86 -3.4784273e+87)
(-8.529302e+87 1.4559265e+86 -3.8059618e+87)
(-1.2063554e+88 7.8629711e+85 -3.4877557e+87)
(-1.2058885e+88 1.7728624e+86 -3.4435163e+87)
(-8.5724352e+87 1.9720331e+86 -3.8088595e+87)
(-8.6037588e+87 1.3881319e+86 -3.8658777e+87)
(-6.7703526e+87 1.8834544e+86 -1.1992836e+87)
(-9.7393603e+87 -3.7799669e+85 1.3541897e+87)
(-6.8354833e+87 2.1549891e+86 -1.067413e+87)
(-9.8138655e+87 2.2360651e+86 1.4021766e+87)
(-6.9133294e+87 2.1547344e+86 -1.0235691e+87)
(-9.8120906e+87 1.9270553e+85 1.4056305e+87)
(-9.7033697e+87 3.2357386e+86 1.3408444e+87)
(-6.7593283e+87 2.3572466e+86 -1.2930713e+87)
(-1.2041948e+88 2.0404469e+86 -3.4615832e+87)
(-1.2070038e+88 1.1748687e+86 -3.4441378e+87)
(-8.5724006e+87 2.1879905e+86 -3.8359657e+87)
(-8.6167928e+87 1.5966344e+86 -3.7917058e+87)
(-6.8380655e+87 1.9350608e+86 -1.1066906e+87)
(-9.8055509e+87 -4.8878568e+84 1.4063357e+87)
(-6.8424194e+87 2.4820959e+86 -1.1223443e+87)
(-9.7270502e+87 3.1437192e+86 1.3641028e+87)
(-1.214123e+88 8.3692681e+85 -3.5293357e+87)
(-1.2131441e+88 1.8560966e+86 -3.4731327e+87)
(-8.6661596e+87 2.1996543e+86 -3.8100021e+87)
(-8.7215267e+87 1.5857228e+86 -3.882046e+87)
(-6.9206396e+87 2.4907483e+86 -1.0928439e+87)
(-6.7479433e+87 2.4055568e+86 -1.3906608e+87)
(-9.734221e+87 1.1750485e+86 1.3765872e+87)
(-9.5456698e+87 3.0089589e+86 1.265354e+87)
(-1.3600348e+88 2.0011687e+86 2.0023691e+87)
(-1.3694413e+88 3.1084072e+85 2.1347021e+87)
(-1.7416146e+88 3.2819861e+86 2.2003576e+87)
(-1.7388515e+88 1.7906362e+86 2.1438499e+87)
(-1.3655151e+88 2.3001082e+86 2.0341501e+87)
(-1.3578705e+88 9.7375892e+85 1.9696521e+87)
(-1.741495e+88 2.7040237e+86 2.0753148e+87)
(-1.7410638e+88 1.3179781e+86 2.1108753e+87)
(-1.3580911e+88 5.0663441e+85 2.0121277e+87)
(-1.7399239e+88 3.5283684e+86 2.0403382e+87)
(-1.3560081e+88 2.6680052e+86 1.9458392e+87)
(-1.7438541e+88 2.4438072e+86 2.0843458e+87)
(-1.734174e+88 3.4835635e+86 2.0689021e+87)
(-1.3503943e+88 2.0055658e+86 1.9325509e+87)
(-1.3514296e+88 3.0104058e+86 1.9882894e+87)
(-1.7296121e+88 1.7834641e+86 2.0655022e+87)
(-1.3648725e+88 2.7690545e+86 1.9952514e+87)
(-1.3644988e+88 1.3578236e+86 2.0666617e+87)
(-1.742895e+88 4.0901559e+86 2.109956e+87)
(-1.7468779e+88 2.6264558e+86 2.1437303e+87)
(-1.3543397e+88 3.475686e+86 1.9763889e+87)
(-1.3539733e+88 1.9203596e+86 1.9488747e+87)
(-1.7438247e+88 3.5756049e+86 2.0483805e+87)
(-1.7393061e+88 2.2840536e+86 2.0468351e+87)
(-1.3610287e+88 1.8119239e+86 2.0357119e+87)
(-1.3631222e+88 2.9241933e+86 1.9659354e+87)
(-1.7474337e+88 4.2054457e+86 2.1348924e+87)
(-1.7443505e+88 2.7988694e+86 2.1101173e+87)
(-1.3612956e+88 2.2512246e+86 2.0043102e+87)
(-1.3652478e+88 2.7396165e+86 2.0603537e+87)
(-1.7439068e+88 3.4906869e+86 2.2126214e+87)
(-1.7366562e+88 1.5208613e+86 2.1802453e+87)
(-1.3518984e+88 2.6561468e+86 1.9678411e+87)
(-1.3524664e+88 1.0660915e+86 1.9268939e+87)
(-1.7429765e+88 2.9172649e+86 2.0473109e+87)
(-1.7386235e+88 1.4383753e+86 2.0455874e+87)
(-1.3743474e+88 2.0794596e+86 2.0231501e+87)
(-1.3772374e+88 4.495206e+85 2.0984291e+87)
(-1.7437635e+88 3.3256607e+86 2.1124709e+87)
(-1.7517922e+88 1.9467593e+86 2.1651191e+87)
(-1.360902e+88 8.5949273e+85 2.0355492e+87)
(-1.3618525e+88 2.5447199e+86 1.9774516e+87)
(-1.7480246e+88 3.4631538e+86 2.1201009e+87)
(-1.7477311e+88 2.2406734e+86 2.1284721e+87)
(-1.3628149e+88 1.9322682e+86 2.0694793e+87)
(-1.3568374e+88 1.5582355e+86 1.9782177e+87)
(-1.7390804e+88 3.0062868e+86 2.1463644e+87)
(-1.7354979e+88 9.0603864e+85 2.15784e+87)
(-1.3763526e+88 1.4798053e+86 2.047583e+87)
(-1.3746189e+88 1.9556447e+85 2.1197809e+87)
(-1.7422089e+88 3.1404433e+86 2.181218e+87)
(-1.7489127e+88 1.4714256e+86 2.2287814e+87)
(-1.7469205e+88 2.238173e+86 2.1207204e+87)
(-1.3680152e+88 3.4609111e+85 2.0054126e+87)
(-1.3669377e+88 1.9116518e+86 2.0391956e+87)
(-1.7438844e+88 7.7174034e+85 2.117556e+87)
(-1.3635239e+88 1.9374169e+86 1.9677365e+87)
(-1.3620012e+88 -3.2070177e+84 2.0354925e+87)
(-1.7459365e+88 2.8454954e+86 2.1095548e+87)
(-1.742827e+88 1.7146694e+86 2.0766926e+87)
(-1.3566393e+88 2.4013903e+86 2.0075902e+87)
(-1.3544383e+88 1.0491072e+86 1.955063e+87)
(-1.7411619e+88 2.6762285e+86 2.1412261e+87)
(-1.7340992e+88 9.3879067e+85 2.1054905e+87)
(-2.7242351e+88 4.1703716e+86 -2.8071525e+87)
(-1.9828071e+88 2.6309736e+86 -8.6815314e+86)
(-1.9647151e+88 2.3889064e+86 -9.9223451e+86)
(-1.9509761e+88 2.3847978e+86 -1.113752e+87)
(-1.971887e+88 2.5100292e+86 -9.401974e+86)
(-2.0118635e+88 2.0776871e+86 -1.015298e+87)
(-2.0106185e+88 1.86441e+86 -1.0582211e+87)
(-1.9966776e+88 2.3065166e+86 -1.1362921e+87)
(-2.1939983e+88 1.6879855e+86 -9.4214608e+86)
(-2.5604181e+88 5.9657399e+84 -1.0842659e+87)
(-2.2147513e+88 1.4653188e+86 -7.5810267e+86)
(-2.1664166e+88 1.8542918e+86 -7.5693956e+86)
(-2.4732956e+88 1.3489157e+85 -1.5837893e+87)
(-2.8425245e+88 2.2726901e+86 -1.130103e+87)
(-2.4677806e+88 5.4585507e+86 -2.9146994e+87)
(-2.4760491e+88 1.5108146e+86 -2.9571336e+87)
(-2.5609651e+88 -1.092528e+85 -1.5759102e+87)
(-2.2931774e+88 -3.3102171e+85 -2.2916134e+87)
(-1.9172879e+88 3.5402388e+86 1.3387007e+87)
(-1.9958478e+88 4.154966e+86 2.0681215e+87)
(-1.9170822e+88 9.9817791e+85 1.2905962e+87)
(-1.9993618e+88 1.1393745e+86 2.029216e+87)
(-1.8880722e+88 2.8443888e+86 2.3843773e+86)
(-1.8808431e+88 1.6172076e+86 2.4337478e+86)
(-1.9589587e+88 2.9539336e+86 8.377495e+86)
(-1.9534413e+88 1.1693603e+86 8.5267529e+86)
(-1.8905335e+88 3.0201346e+86 3.1241565e+86)
(-1.9636248e+88 3.5232664e+86 9.3878457e+86)
(-1.8922763e+88 1.4840229e+86 2.8776186e+86)
(-1.9642701e+88 1.3459519e+86 9.0473227e+86)
(-1.9119118e+88 3.1856216e+86 1.2257455e+87)
(-1.9953161e+88 3.2499396e+86 1.938156e+87)
(-1.9074302e+88 1.081642e+86 1.2480045e+87)
(-1.9902296e+88 7.6003685e+85 1.9665366e+87)
(-1.8949965e+88 3.3354906e+86 2.6574018e+86)
(-1.8884003e+88 1.8954129e+86 2.8772157e+86)
(-1.9644555e+88 3.4558293e+86 8.5915835e+86)
(-1.9602119e+88 1.4936887e+86 8.9365098e+86)
(-1.8908941e+88 3.1330695e+86 2.3815515e+86)
(-1.9652099e+88 3.5596067e+86 8.5111768e+86)
(-1.89381e+88 2.0415262e+86 2.3008295e+86)
(-1.9672729e+88 1.8588054e+86 8.3543017e+86)
(-1.9173204e+88 3.7670205e+86 1.2556935e+87)
(-1.9129278e+88 1.3877694e+86 1.2989229e+87)
(-2.0006604e+88 3.6516147e+86 1.9670198e+87)
(-1.9940225e+88 9.5753586e+85 2.011807e+87)
(-1.9993848e+88 4.0203693e+86 1.9585384e+87)
(-1.9180884e+88 3.6324076e+86 1.2373517e+87)
(-1.9178364e+88 1.6083193e+86 1.2097856e+87)
(-2.000394e+88 1.5565523e+86 1.9264874e+87)
(-1.83788e+88 2.8453843e+86 -3.5167784e+86)
(-1.9072529e+88 3.1358859e+86 6.1626411e+85)
(-1.8403535e+88 2.3691731e+86 -3.5327564e+86)
(-1.9110534e+88 2.160465e+86 6.0090373e+85)
(-1.811624e+88 2.7741581e+86 -5.4783113e+86)
(-1.8156423e+88 2.5239759e+86 -5.4149842e+86)
(-1.8588883e+88 2.899947e+86 -3.9596404e+86)
(-1.8624041e+88 2.4270949e+86 -3.9314159e+86)
(-1.8175426e+88 2.9166077e+86 -5.1314436e+86)
(-1.8105657e+88 2.4674347e+86 -5.0740946e+86)
(-1.8640725e+88 2.9846492e+86 -3.6674437e+86)
(-1.8573814e+88 2.3095466e+86 -3.537503e+86)
(-1.8419918e+88 3.0559201e+86 -3.1891344e+86)
(-1.8360805e+88 2.2900575e+86 -3.0404755e+86)
(-1.9107634e+88 3.2010532e+86 8.1810022e+85)
(-1.9043851e+88 1.9913297e+86 1.004803e+86)
(-1.8377436e+88 2.6201701e+86 -2.9329697e+86)
(-1.9071826e+88 3.0168488e+86 1.3123737e+86)
(-1.8384931e+88 1.8737203e+86 -3.1028275e+86)
(-1.9089008e+88 1.6716956e+86 1.1256383e+86)
(-1.8093718e+88 2.5569897e+86 -5.4698103e+86)
(-1.8008375e+88 2.3083176e+86 -5.5834209e+86)
(-1.85597e+88 2.6558826e+86 -3.9320403e+86)
(-1.84902e+88 2.1102707e+86 -3.9716975e+86)
(-1.8113483e+88 2.5353379e+86 -4.8711076e+86)
(-1.8601024e+88 2.7158174e+86 -3.265938e+86)
(-1.813498e+88 2.071557e+86 -4.9895401e+86)
(-1.86122e+88 1.9621384e+86 -3.4268888e+86)
(-1.8340839e+88 2.637314e+86 -3.4922075e+86)
(-1.8273083e+88 2.0552837e+86 -3.5080291e+86)
(-1.9036331e+88 2.7956515e+86 5.6822006e+85)
(-1.8964617e+88 1.7391016e+86 5.7524806e+85)
(-1.7982026e+88 2.4216862e+86 -5.6522244e+86)
(-1.83812e+88 2.6493779e+86 -4.003693e+86)
(-1.8000018e+88 2.1788514e+86 -5.8146873e+86)
(-1.8404564e+88 1.9904252e+86 -4.1241742e+86)
(-1.8076916e+88 2.3725787e+86 -6.9680751e+86)
(-1.7987316e+88 2.7414757e+86 -7.2685762e+86)
(-1.8338113e+88 2.5584116e+86 -6.1450086e+86)
(-1.8252856e+88 2.6028437e+86 -6.3390833e+86)
(-1.8101406e+88 2.3405823e+86 -6.1704726e+86)
(-1.8366899e+88 2.4520447e+86 -5.3993601e+86)
(-1.813608e+88 2.2765734e+86 -6.3836361e+86)
(-1.8387177e+88 2.1581202e+86 -5.5831256e+86)
(-1.7948992e+88 2.5020164e+86 -6.3117598e+86)
(-1.7863832e+88 2.5571725e+86 -6.4897804e+86)
(-1.8356871e+88 2.6845918e+86 -4.7299527e+86)
(-1.8273391e+88 2.3036073e+86 -4.8446997e+86)
(-1.8276017e+88 2.2961889e+86 -7.0802073e+86)
(-1.8484143e+88 2.500269e+86 -6.235437e+86)
(-1.8191655e+88 2.837591e+86 -7.5657318e+86)
(-1.8395736e+88 2.6945257e+86 -6.5549322e+86)
(-1.8320592e+88 2.3426662e+86 -6.0024251e+86)
(-1.8510936e+88 2.4038776e+86 -5.343162e+86)
(-1.8351661e+88 2.2009095e+86 -6.4076163e+86)
(-1.8548169e+88 2.1304025e+86 -5.5841571e+86)
(-1.8924331e+88 2.397105e+86 -5.7520474e+86)
(-1.8951612e+88 1.9692186e+86 -6.2161638e+86)
(-1.912257e+88 2.3724087e+86 -7.8174494e+86)
(-2.2375979e+88 1.6912971e+86 -8.4175766e+86)
(-1.9161456e+88 1.8645751e+86 -8.2987259e+86)
(-1.8882084e+88 2.3949579e+86 -6.8699819e+86)
(-1.8784341e+88 2.7375906e+86 -7.4687006e+86)
(-2.2283903e+88 2.6005107e+86 -9.7212342e+86)
(-1.8973111e+88 2.664731e+86 -9.6724891e+86)
(-1.9049379e+88 2.2827969e+86 -9.0383722e+86)
(-2.223043e+88 1.2060726e+86 -1.0140568e+87)
(-2.2166855e+88 2.6143343e+86 -1.1565024e+87)
(-1.8965365e+88 2.8154608e+86 -6.2221384e+86)