/*--------------------------------*- C++ -*----------------------------------*\
  =========                 |
  \\      /  F ield         | OpenFOAM: The Open Source CFD Toolbox
   \\    /   O peration     | Website:  https://openfoam.org
    \\  /    A nd           | Version:  7
     \\/     M anipulation  |
\*---------------------------------------------------------------------------*/
FoamFile
{
    version     2.0;
    format      ascii;
    class       volScalarField;
    location    "8000";
    object      nut;
}
// * * * * * * * * * * * * * * * * * * * * * * * * * * * * * * * * * * * * * //

dimensions      [0 2 -1 0 0 0 0];

internalField   nonuniform List<scalar> 
33943
(
3.0679238e-46
9.0438393e-47
3.0160259e-47
7.1535006e-48
1.084322e-47
9.8480258e-46
4.9126647e-46
2.4321316e-46
8.0285729e-47
6.7560598e-47
2.4498303e-47
1.5127374e-47
4.9814028e-47
2.9531728e-47
2.1831825e-47
5.2250762e-47
3.7264884e-48
5.779896e-48
7.0052985e-48
6.634312e-48
7.5312705e-48
1.0198605e-47
1.0883282e-47
1.0429229e-47
1.4786368e-47
2.2642656e-47
2.1430288e-47
1.3780016e-47
5.8561554e-46
1.1463172e-47
9.7390335e-48
3.7580532e-46
2.8464567e-46
3.0613406e-47
5.449171e-48
2.8429838e-47
2.7253241e-47
2.5166755e-46
2.1038796e-46
7.0095806e-47
6.2463377e-47
1.9065446e-47
1.3379426e-47
5.4471898e-47
5.0506552e-47
2.4027615e-47
2.7132817e-47
4.9788894e-47
4.1448416e-47
1.9488126e-47
1.4876145e-47
2.1848138e-47
1.4277994e-47
1.964524e-47
1.4687238e-47
2.1853075e-47
2.0286684e-47
1.4985949e-47
1.2868879e-47
9.2294237e-48
3.307376e-48
4.905831e-48
3.3058087e-48
5.514142e-48
4.9872421e-48
3.7501391e-48
4.8203096e-48
3.5135774e-48
6.747385e-48
6.4278447e-48
7.898274e-48
6.752659e-48
9.9168403e-48
9.3017115e-48
1.0960244e-47
1.1004512e-47
6.6710174e-48
1.001898e-47
5.8959401e-48
9.1071354e-48
7.4624604e-48
1.1302322e-47
1.2648343e-47
9.0348282e-48
8.3853154e-48
8.4635712e-48
8.8549649e-48
1.091882e-47
9.3270363e-48
1.1598055e-47
1.7621286e-47
9.2269681e-48
1.9801976e-47
1.5192349e-47
8.504637e-48
7.676195e-48
7.1125243e-48
2.5479022e-46
2.2552822e-46
4.2588396e-48
4.5537807e-48
3.6012559e-47
2.7956941e-47
3.7997543e-48
2.8174438e-47
1.8365504e-47
3.1183165e-48
2.3290347e-47
2.1567675e-47
1.7385511e-46
2.0118435e-46
1.945547e-47
1.7436947e-47
1.4111392e-46
1.8068282e-46
9.1598017e-48
6.8214484e-48
1.2942267e-47
1.2763319e-47
1.8706093e-47
2.0902503e-47
1.3761174e-47
2.0270516e-47
2.3330591e-47
2.1693431e-47
9.7394525e-47
9.1322514e-47
2.0587605e-47
9.534279e-47
7.2948204e-47
1.1332886e-47
4.888399e-47
5.181973e-47
3.4980095e-47
3.1196757e-47
4.081342e-47
1.2480956e-47
5.2015911e-47
2.0768461e-47
2.2867693e-47
2.4103966e-47
1.7553359e-47
1.8632826e-47
2.3763821e-47
2.233696e-47
1.5924385e-47
1.3843404e-47
2.3818095e-47
2.4615429e-47
1.7990648e-47
1.728859e-47
2.3036025e-47
2.0314549e-47
1.3212287e-47
1.5304517e-47
8.661367e-48
8.6404407e-48
7.6212682e-48
7.7296298e-48
7.9351822e-48
8.7010219e-48
7.7321021e-48
8.4658625e-48
9.7049599e-48
1.0072643e-47
9.4493397e-48
1.0467232e-47
8.3682491e-48
9.2061918e-48
8.6498519e-48
7.6107265e-48
9.0719085e-48
5.7419977e-48
3.2405227e-48
3.2769174e-48
8.5637266e-48
1.0183557e-47
9.4233565e-48
7.8782278e-48
5.0405556e-48
3.5520813e-48
3.3598178e-48
4.7691828e-48
4.4492612e-48
6.2856576e-48
6.4253406e-48
7.7103449e-48
6.9231115e-48
4.9274432e-48
3.401366e-48
3.31219e-48
4.5549621e-48
8.7671042e-48
7.8295646e-48
7.4311032e-48
7.9148344e-48
3.5629036e-48
3.9783957e-48
3.9030762e-48
3.6692439e-48
3.3351347e-48
3.2719521e-48
3.0462871e-48
2.8547928e-48
3.9797014e-48
4.2210276e-48
4.3304685e-48
3.9468167e-48
3.4052168e-48
3.4555628e-48
7.9755387e-48
6.7725154e-48
7.1673051e-48
6.7269152e-48
5.0623169e-48
4.8152303e-48
4.9954012e-48
5.0928316e-48
8.1290342e-48
8.0322377e-48
8.7090761e-48
7.9736407e-48
5.3451728e-48
5.3627722e-48
5.2435104e-48
5.1461513e-48
9.2870068e-48
9.2132797e-48
8.5290914e-48
8.8186923e-48
9.5594635e-48
8.8842122e-48
9.9966592e-48
8.9447292e-48
9.4885464e-48
1.0257529e-47
5.8978119e-48
7.3434537e-48
1.0342527e-47
1.0727571e-47
6.9790631e-48
1.0674587e-47
1.0100733e-47
2.0536067e-47
2.0482981e-47
9.9465808e-48
1.1473585e-47
5.9450614e-48
5.7756184e-48
5.206707e-48
5.0210282e-48
4.883877e-48
5.0714704e-48
5.0582524e-48
5.1623119e-48
5.8230047e-48
7.8552225e-48
1.9173862e-47
9.8902586e-48
3.1134041e-47
2.8014411e-47
1.3718998e-47
2.1535347e-47
4.0874862e-48
4.606593e-48
5.8744764e-48
3.4033005e-48
3.7771935e-48
2.8705354e-47
3.6286179e-47
3.4369424e-48
2.9216152e-48
1.9040875e-47
3.2756386e-47
1.8854707e-47
1.779267e-47
1.5996042e-46
1.5026902e-46
1.7095116e-47
1.5619172e-47
1.5426638e-46
1.3066117e-46
5.1802794e-48
6.3137551e-48
8.6102167e-48
8.9177411e-48
6.7252546e-48
8.7489574e-48
9.4551639e-48
4.9637481e-48
1.2874247e-47
1.2979621e-47
2.1920555e-47
2.0311418e-47
2.1348945e-47
1.3213846e-47
1.2651464e-47
2.1898059e-47
1.5729224e-47
8.7807751e-47
6.8427122e-47
1.7671554e-47
1.9330691e-47
1.8227406e-47
9.0229799e-47
8.5253186e-47
1.2767787e-47
1.301604e-47
1.9387921e-47
2.1388164e-47
2.1213363e-47
1.3616482e-47
1.2719613e-47
2.1204675e-47
1.8536005e-47
1.6251254e-47
8.781032e-47
6.5701596e-47
2.0515995e-47
1.8993704e-47
9.7058914e-47
8.6341855e-47
2.4586166e-47
1.6401109e-47
1.579551e-47
6.1679897e-48
7.4489784e-48
2.3969879e-47
1.6553154e-47
8.440284e-48
7.9727662e-48
8.6836307e-48
1.025595e-47
1.1252252e-47
7.3663472e-48
7.3873069e-48
7.3072956e-48
1.1247128e-47
1.1038654e-47
6.7670202e-48
2.2549318e-47
2.307666e-47
7.6016793e-48
7.1334711e-48
7.0704852e-48
2.2281227e-47
6.3056541e-48
2.0496678e-47
1.0591894e-47
1.1764994e-47
7.5957484e-48
7.5892333e-48
7.8307826e-48
2.403097e-47
7.2540953e-48
2.3518758e-47
7.0665866e-48
2.2502714e-47
4.413207e-47
1.7102331e-47
2.6186025e-47
1.7819767e-47
2.3154104e-47
1.6305176e-47
2.5440303e-47
2.0472225e-47
2.3366561e-47
1.8539989e-47
2.5233117e-47
2.0970121e-47
1.5591957e-47
1.2671169e-47
2.7455676e-47
1.7793423e-47
2.6714925e-47
1.7347091e-47
9.1685652e-48
9.7134814e-48
9.2523875e-48
9.5592083e-48
1.0001265e-47
9.7610583e-48
8.8162763e-48
9.1143242e-48
9.4619311e-48
1.0362813e-47
1.036151e-47
8.9641388e-48
1.0135099e-47
9.6077974e-48
9.242875e-48
8.8944954e-48
9.6882554e-48
9.7869909e-48
9.4620377e-48
9.4606888e-48
9.8368144e-48
9.5917369e-48
8.6324014e-48
8.8243852e-48
9.8325585e-48
1.0014389e-47
9.6361217e-48
9.9014388e-48
9.3750445e-48
8.0776962e-48
7.9407264e-48
8.5151282e-48
1.1467636e-47
1.0687703e-47
2.8395575e-48
3.1414506e-48
1.2488553e-47
1.0739252e-47
2.9082388e-48
2.9250902e-48
2.7080461e-48
1.0678266e-47
1.0731369e-47
2.9429482e-48
1.0203199e-47
1.1730103e-47
2.7522817e-48
2.7914662e-48
1.1902336e-47
1.2545114e-47
3.1409252e-48
3.6522602e-48
3.0781109e-48
1.2812366e-47
1.1805846e-47
3.2251998e-48
1.2185197e-47
1.1771064e-47
3.03821e-48
3.3220521e-48
1.0198515e-47
1.1855199e-47
2.9275017e-48
2.9150228e-48
3.4032197e-48
8.2245073e-48
7.4291469e-48
8.4841725e-48
9.5556869e-48
5.488468e-48
7.3495694e-48
7.7382332e-48
7.4927735e-48
7.4844032e-48
3.406882e-48
4.66643e-48
3.424136e-48
4.413418e-48
3.3131636e-48
4.6461609e-48
3.2727937e-48
4.5370094e-48
2.4939823e-47
2.695298e-47
1.2379258e-47
1.3379454e-47
6.0779456e-48
7.3545333e-48
6.2726399e-48
7.0206291e-48
2.9977031e-48
2.9642627e-48
3.078954e-48
3.2195987e-48
2.9031387e-48
2.7479606e-48
3.550162e-48
3.4358739e-48
4.0613328e-48
4.4105205e-48
4.3381879e-48
4.0906557e-48
3.962723e-48
3.7133223e-48
3.4739377e-48
3.7449022e-48
5.0846206e-48
5.3145067e-48
5.3298991e-48
4.9889022e-48
7.503338e-48
7.5618991e-48
6.8493043e-48
8.1762967e-48
8.4210434e-48
8.1422935e-48
8.1812788e-48
8.5413552e-48
5.5684929e-48
5.3108375e-48
5.4962694e-48
5.5720797e-48
4.3739412e-48
4.3043271e-48
3.8134899e-48
3.9814075e-48
3.5996226e-48
3.5052549e-48
3.0958534e-48
2.9864044e-48
3.2710227e-48
2.9574518e-48
3.0177134e-48
3.2424951e-48
3.625433e-48
4.0178802e-48
3.8839681e-48
3.8803452e-48
7.826548e-48
7.9536519e-48
7.7377608e-48
8.1913435e-48
7.6973312e-48
7.3139182e-48
7.1092262e-48
8.1515469e-48
5.3303893e-48
5.4018026e-48
5.4321655e-48
5.5319764e-48
5.2245181e-48
5.3184081e-48
5.206244e-48
5.2714068e-48
3.9690833e-48
3.1735445e-48
4.3716317e-48
3.5222666e-48
3.7544593e-48
3.9301596e-48
3.4240965e-48
3.6570993e-48
3.6494674e-48
3.3074472e-48
4.0271402e-48
3.691774e-48
4.1353503e-48
3.3628523e-48
4.3427406e-48
3.6080739e-48
2.8923097e-48
2.711315e-48
3.1118588e-48
2.9272832e-48
2.7476348e-48
2.5704345e-48
3.1352344e-48
2.93101e-48
1.9650559e-48
2.214285e-48
2.3959598e-48
2.633703e-48
2.0074973e-48
2.1710074e-48
2.5329436e-48
2.3877095e-48
4.6785986e-48
4.7686511e-48
3.6954811e-48
3.8486638e-48
3.913431e-48
3.5872731e-48
3.82412e-48
4.3359804e-48
3.916829e-48
4.3880777e-48
4.0594557e-48
4.3389696e-48
4.4707712e-48
3.5533068e-48
3.7223752e-48
3.0160811e-48
2.8253957e-48
3.3157063e-48
3.0443602e-48
3.4802283e-48
3.1909475e-48
4.4658437e-48
4.7050534e-48
3.2891097e-48
3.565427e-48
3.8677214e-48
3.6318612e-48
3.1847105e-48
3.4757156e-48
3.8297245e-48
3.97023e-48
3.4671344e-48
3.7187773e-48
4.2094174e-48
3.7952409e-48
2.9764096e-48
3.2912936e-48
4.041514e-48
3.47204e-48
4.2035533e-48
3.7026428e-48
3.9501867e-48
3.6179783e-48
2.761476e-48
3.0444069e-48
3.8688745e-48
3.2466933e-48
4.170814e-48
3.5704638e-48
3.9250001e-48
4.1260921e-48
3.0303856e-48
3.2570767e-48
4.4421269e-48
4.4162698e-48
3.9245134e-48
4.0378067e-48
4.6758461e-48
4.8096207e-48
3.5135094e-48
3.7357257e-48
4.6157375e-48
4.6501054e-48
3.4125396e-48
3.5032721e-48
4.104024e-48
4.0778096e-48
3.6616027e-48
3.7504176e-48
4.2002396e-48
4.3121929e-48
3.225886e-48
3.3489624e-48
4.5665952e-48
3.8305511e-48
4.5980796e-48
3.972532e-48
4.2951486e-48
4.3965937e-48
3.2833994e-48
3.4336157e-48
4.3009403e-48
3.7169978e-48
4.3969449e-48
3.8819575e-48
5.7698328e-48
5.5285254e-48
5.5662327e-48
5.5260293e-48
5.5717495e-48
5.0942379e-48
5.7160711e-48
5.6496388e-48
5.6689369e-48
5.473649e-48
8.7760594e-48
8.1846318e-48
5.3607859e-48
5.4141967e-48
5.8590453e-48
5.6056056e-48
5.6799371e-48
5.4684126e-48
9.1743601e-48
9.5689636e-48
9.1461647e-48
1.6085375e-47
7.875555e-48
9.3078695e-48
1.7709805e-47
9.4117865e-48
8.9654744e-48
9.5369903e-48
8.553129e-48
3.5980947e-48
1.7908692e-48
5.4905852e-48
1.0565608e-47
4.0619682e-48
4.0123554e-48
3.867639e-48
3.7967636e-48
3.6323569e-48
3.4643767e-48
3.7061734e-48
3.3659673e-48
3.619119e-48
3.2549802e-48
3.7623288e-48
3.4582595e-48
3.5037033e-48
3.5627506e-48
3.984323e-48
3.589645e-48
5.7444323e-48
6.0702812e-48
6.4857076e-48
4.8880812e-48
1.5101894e-47
3.7051938e-47
1.2622896e-47
1.3363847e-47
4.1720306e-48
3.9819902e-48
5.6233541e-48
5.6660426e-48
5.5766363e-48
4.8294817e-48
2.5655714e-47
5.2274252e-48
5.4771962e-48
8.2636471e-48
8.4767019e-48
6.0354468e-48
4.6698401e-48
8.4794362e-48
8.2291058e-48
1.9747635e-47
1.2595126e-47
2.3002991e-47
2.4250241e-47
1.3081856e-47
1.2560032e-47
1.1754277e-47
2.4406247e-47
2.3602961e-47
1.6789071e-47
1.7186565e-46
7.8327952e-47
1.7307128e-47
7.8658899e-47
1.4701046e-47
1.6130168e-47
7.8437696e-47
6.5073568e-47
1.2309767e-47
1.2308741e-47
2.3284544e-47
2.357122e-47
1.2426625e-47
1.153967e-47
2.2286251e-47
2.3285387e-47
1.6679402e-47
7.9826096e-47
1.5687138e-47
7.3842022e-47
1.60575e-47
1.4506704e-47
6.104562e-47
7.8124321e-47
8.4587404e-48
6.8895542e-48
2.7225749e-47
1.7040532e-47
1.592367e-47
3.5716228e-47
1.693552e-47
1.6081345e-47
6.7379169e-48
2.168246e-47
1.6636773e-47
1.6049362e-47
3.2022426e-47
1.7404552e-47
1.6753501e-47
6.8145524e-48
7.9293765e-48
8.3382596e-48
8.3786898e-48
8.0146801e-48
1.0874897e-47
1.1092454e-47
6.3329654e-48
6.7633661e-48
6.4990351e-48
6.1937854e-48
2.3007134e-47
2.286342e-47
6.0808589e-48
2.1736409e-47
5.3812588e-48
1.9512952e-47
1.1140247e-47
1.0266374e-47
6.9865497e-48
6.9254295e-48
1.0235601e-47
1.0908641e-47
6.7158057e-48
6.7194283e-48
1.0886775e-47
1.0924893e-47
6.741509e-48
6.3562247e-48
6.093628e-48
6.0096587e-48
2.0964699e-47
2.1237317e-47
6.1456392e-48
5.4585245e-48
2.1246673e-47
1.9139051e-47
8.2353217e-48
7.8432789e-48
8.6222633e-48
8.1466605e-48
7.1923653e-48
1.0464883e-47
1.1430461e-47
7.1455344e-48
7.0277641e-48
1.1168351e-47
1.1116269e-47
6.5165372e-48
6.9667437e-48
6.6238178e-48
2.3300827e-47
2.3605304e-47
5.8444395e-48
2.2578029e-47
1.9587535e-47
6.5944356e-48
1.0039647e-47
7.0438549e-48
7.044808e-48
1.0983396e-47
1.0716474e-47
1.0823596e-47
6.9333323e-48
6.4712212e-48
6.6365285e-48
6.4373295e-48
2.2579032e-47
2.286643e-47
6.4283001e-48
5.7464762e-48
2.2437153e-47
2.0520198e-47
5.6469497e-48
5.5123507e-48
1.4851461e-47
7.1737648e-48
6.9027157e-48
5.7223091e-48
1.5521181e-47
7.5326849e-48
9.4612e-48
1.023044e-47
9.6992061e-48
1.106209e-47
6.4026462e-48
6.2395095e-48
9.2371137e-48
1.0754456e-47
1.1226599e-47
9.3638497e-48
6.4002661e-48
6.3265277e-48
9.4060497e-48
1.029131e-47
1.0924317e-47
9.7761903e-48
6.3643618e-48
6.5720879e-48
8.2669775e-48
3.877314e-48
8.354898e-48
3.8111503e-48
7.9478374e-48
7.976991e-48
3.9452654e-48
3.97093e-48
8.2290596e-48
8.3164991e-48
4.1406739e-48
4.1070939e-48
3.9233222e-48
8.2503043e-48
7.9217236e-48
3.7468862e-48
2.5542881e-48
2.2682914e-48
2.4572113e-48
2.704999e-48
2.7216234e-48
2.3608172e-48
2.3488922e-48
2.6316919e-48
2.1293377e-48
2.1523851e-48
3.015995e-48
4.7903139e-48
2.1523975e-48
2.2471737e-48
2.5602803e-48
4.8772601e-48
2.260602e-48
2.1821018e-48
5.4526302e-48
3.2830451e-48
2.6851287e-48
2.3300923e-48
2.5414176e-48
2.7558444e-48
4.0502101e-48
2.238567e-48
2.1267638e-48
2.401882e-48
2.4215022e-48
2.2830341e-48
2.6428318e-48
2.762584e-48
8.2080827e-48
8.1022209e-48
4.0275314e-48
4.0851517e-48
8.4476487e-48
8.4731723e-48
3.9789872e-48
3.8821379e-48
2.1153388e-48
2.1590116e-48
6.4705505e-48
3.7366356e-48
2.7036155e-48
2.3212714e-48
2.4941816e-48
2.7834083e-48
2.1437789e-48
2.2288334e-48
5.4260432e-48
2.8283914e-48
2.409108e-48
2.3735924e-48
2.8030821e-48
2.7124753e-48
2.1624154e-48
2.23232e-48
5.4398679e-48
3.1478273e-48
2.7113903e-48
2.3753689e-48
2.675311e-48
2.8139547e-48
2.1856e-47
2.537403e-47
2.011066e-47
1.74922e-47
1.0789448e-47
1.1078549e-47
1.0640984e-47
1.0224577e-47
9.9394156e-48
9.3931337e-48
9.7214988e-48
9.6778646e-48
1.0425288e-47
1.0080465e-47
1.0350269e-47
1.0421385e-47
8.8081406e-48
9.6719926e-48
9.0476508e-48
1.0642663e-47
1.0854826e-47
1.0598073e-47
9.8785399e-48
9.3048256e-48
9.6631111e-48
8.8568126e-48
9.2680132e-48
8.4178305e-48
1.0534163e-47
1.0727301e-47
9.897771e-48
1.0051188e-47
1.0875684e-47
9.6867501e-48
1.0326564e-47
9.7308004e-48
1.1357192e-47
9.9226821e-48
2.9845601e-48
3.3320759e-48
1.0845203e-47
1.265563e-47
3.0526934e-48
3.0921781e-48
1.2932036e-47
1.1530312e-47
3.0939559e-48
3.4180608e-48
1.0706526e-47
1.3764723e-47
3.0838648e-48
3.2175818e-48
1.3680434e-47
1.2849823e-47
3.3945958e-48
3.6382234e-48
1.251241e-47
1.4032514e-47
3.2041495e-48
3.1642701e-48
1.3295189e-47
1.2294296e-47
3.1524147e-48
3.5771457e-48
1.1375076e-47
1.4656502e-47
3.0854412e-48
3.1108476e-48
1.2201225e-47
1.2537692e-47
3.2181525e-48
3.6099182e-48
1.1807537e-47
1.3077197e-47
3.0656714e-48
3.0261746e-48
1.2799238e-47
1.3863762e-47
3.1895556e-48
3.4733122e-48
1.2111716e-47
1.3884541e-47
3.0103966e-48
3.1071067e-48
1.268643e-47
1.3654113e-47
3.245823e-48
3.6154942e-48
1.2437552e-47
1.3085781e-47
3.1130434e-48
3.17279e-48
1.342957e-47
3.1249865e-48
1.2241053e-47
3.316834e-48
1.2065634e-47
1.022222e-47
2.7819763e-48
2.7079744e-48
3.8654296e-48
3.732168e-48
3.9184142e-48
3.8470057e-48
3.3467681e-48
3.5479566e-48
3.6513029e-48
3.8277852e-48
4.0783549e-48
4.202112e-48
4.2536319e-48
4.0653416e-48
3.9761326e-48
3.9481755e-48
3.7302684e-48
3.9394153e-48
3.4564329e-48
4.6624982e-48
1.7415968e-47
1.7020788e-47
2.644745e-47
3.127063e-47
7.7388568e-48
8.4320357e-48
7.3763506e-48
6.6198876e-48
6.577013e-48
7.6348931e-48
6.7754246e-48
6.764081e-48
6.5124073e-48
6.7637357e-48
5.0034347e-48
5.1223303e-48
4.9429998e-48
4.9472266e-48
5.2444326e-48
5.3880026e-48
5.3940346e-48
5.363446e-48
2.7001249e-48
2.9155822e-48
2.846204e-48
3.0909728e-48
3.8967809e-48
4.0186517e-48
3.5692515e-48
3.5116503e-48
3.2016836e-48
3.3149504e-48
2.9141232e-48
2.6950043e-48
3.8694468e-48
3.5149839e-48
3.2909593e-48
3.643943e-48
2.9007645e-48
2.9434691e-48
3.1342946e-48
3.1959901e-48
4.0653586e-48
4.0325722e-48
3.6132614e-48
3.6488141e-48
2.9447413e-48
3.3720594e-48
3.2235859e-48
2.8204729e-48
3.7003772e-48
3.9845203e-48
3.7924703e-48
3.8632439e-48
1.942131e-47
1.3971008e-47
2.7045806e-47
2.6451672e-47
5.1646427e-48
4.4571921e-48
3.677827e-48
2.439819e-48
5.062838e-48
4.6637836e-48
5.0853786e-48
4.56719e-48
7.2665305e-48
7.3571201e-48
7.6202926e-48
7.7608798e-48
6.2709063e-48
7.4107486e-48
6.7249918e-48
7.8991304e-48
4.857722e-48
5.0826775e-48
4.974657e-48
4.8404321e-48
2.1996276e-48
2.2488295e-48
2.649635e-48
2.6873484e-48
2.0025863e-48
2.2112899e-48
2.6400673e-48
2.5195476e-48
2.7205381e-48
2.5687005e-48
3.0566075e-48
2.8541229e-48
3.045151e-48
2.8800468e-48
3.1266462e-48
2.9290723e-48
2.3175537e-48
2.3756729e-48
2.7845643e-48
2.8101605e-48
2.1802926e-48
2.3602647e-48
2.7283841e-48
2.5224208e-48
3.1297335e-48
2.9876066e-48
3.382133e-48
3.1627407e-48
3.0964788e-48
2.9204056e-48
3.3764882e-48
3.155096e-48
4.591305e-48
3.6778452e-48
4.7513894e-48
3.8516046e-48
4.2025442e-48
4.328525e-48
4.0318719e-48
3.8579251e-48
4.0112988e-48
4.1655957e-48
3.7384475e-48
3.9360377e-48
4.4666316e-48
4.6365335e-48
3.64535e-48
3.8366302e-48
4.0684069e-48
3.7190041e-48
3.7813164e-48
4.0518976e-48
3.6677569e-48
3.3525815e-48
3.9919833e-48
3.6605928e-48
4.0060297e-48
3.267488e-48
3.596224e-48
4.3879448e-48
4.4934198e-48
3.6231828e-48
4.4849167e-48
3.6741359e-48
3.9685256e-48
3.3852019e-48
4.2645093e-48
3.6667446e-48
4.3528085e-48
3.7248367e-48
4.3212224e-48
3.7785822e-48
4.1183509e-48
3.1464664e-48
4.1479083e-48
3.2207464e-48
3.6455592e-48
2.820345e-48
3.9869664e-48
3.0677685e-48
3.938233e-48
3.0712244e-48
4.350576e-48
3.3539349e-48
4.0465011e-48
3.6459725e-48
4.0265915e-48
3.704821e-48
3.6472443e-48
3.2878975e-48
3.9009768e-48
3.5147286e-48
4.5149115e-48
3.3449478e-48
4.5933593e-48
3.5122043e-48
4.4012942e-48
3.1693279e-48
4.518276e-48
3.3532102e-48
4.1705665e-48
4.1745115e-48
3.8339942e-48
3.857939e-48
4.363934e-48
3.7442025e-48
4.3042297e-48
3.8154823e-48
4.5884909e-48
3.4316443e-48
4.6902537e-48
3.5625468e-48
4.2237534e-48
3.2019074e-48
4.3141429e-48
3.305574e-48
4.3697106e-48
3.8023901e-48
4.444152e-48
3.9383738e-48
4.5366519e-48
3.8466219e-48
4.5979557e-48
3.9714786e-48
4.1699573e-48
4.2935442e-48
3.2109264e-48
3.350104e-48
4.3695202e-48
3.9361071e-48
3.9476149e-48
3.6671705e-48
4.2029995e-48
3.7721653e-48
4.4438693e-48
4.0767706e-48
4.4255367e-48
3.5242314e-48
4.7412944e-48
3.8528493e-48
4.7129666e-48
3.7712268e-48
4.3013484e-48
3.5562492e-48
3.4035936e-48
3.1567024e-48
3.1518944e-48
2.9513905e-48
3.1943155e-48
2.9318266e-48
3.4611738e-48
3.2080884e-48
2.301991e-48
2.4671344e-48
2.8359134e-48
2.9613395e-48
2.3777079e-48
2.2131067e-48
2.6202801e-48
2.8197641e-48
3.043755e-48
2.7355752e-48
3.2686596e-48
2.9639117e-48
2.1633311e-48
2.3554609e-48
2.8023859e-48
2.6236404e-48
2.2070638e-48
2.3370269e-48
2.8144289e-48
2.7675019e-48
2.9729885e-48
2.82785e-48
3.2474672e-48
3.098575e-48
4.3193312e-48
3.4745876e-48
4.5256423e-48
3.67659e-48
3.9541145e-48
3.6599238e-48
4.1783009e-48
3.9356847e-48
3.9481222e-48
3.5433756e-48
4.1168042e-48
3.7614031e-48
4.4107535e-48
3.5854914e-48
4.6661228e-48
3.8634691e-48
4.1613493e-48
3.8608743e-48
3.8060564e-48
3.6199623e-48
4.3034825e-48
4.4096468e-48
3.7466169e-48
3.9738115e-48
4.3211176e-48
3.2982785e-48
4.6698653e-48
3.5781687e-48
4.6792247e-48
3.5009933e-48
4.463786e-48
3.4329998e-48
4.1354315e-48
4.2315523e-48
3.7874021e-48
3.9479128e-48
4.1399726e-48
3.5669176e-48
4.1504534e-48
3.7049748e-48
4.130142e-48
3.187183e-48
4.3981256e-48
3.4112482e-48
4.6466981e-48
4.8374853e-48
3.49524e-48
3.6972542e-48
4.0029068e-48
3.0521582e-48
4.1828967e-48
3.2296361e-48
4.3343022e-48
4.4081217e-48
3.6433521e-48
3.8126853e-48
4.2796067e-48
4.4435745e-48
3.702884e-48
3.9327341e-48
4.1279846e-48
4.3311961e-48
3.187705e-48
3.4248882e-48
4.1544365e-48
4.41715e-48
3.1574213e-48
3.4042384e-48
4.4787115e-48
4.6972992e-48
3.7699145e-48
4.0536214e-48
4.1336333e-48
4.5351903e-48
3.852614e-48
3.644392e-48
4.2656678e-48
3.9956589e-48
3.2417965e-48
3.1363089e-48
2.3485441e-48
2.4863333e-48
2.1729209e-48
2.6582745e-48
2.184746e-48
1.7666763e-48
1.8927953e-48
2.3945915e-48
2.8585928e-48
2.5475992e-48
2.8411738e-48
2.470353e-48
2.510222e-48
2.0180082e-48
2.5702757e-48
2.0765647e-48
3.6291529e-48
3.0375046e-48
3.1462637e-48
3.684802e-48
3.9339022e-48
3.8884021e-48
3.3063204e-48
3.405062e-48
2.3915841e-48
2.9567003e-48
2.3003586e-48
3.0736991e-48
3.3659459e-48
2.6498813e-48
3.2812983e-48
2.5523073e-48
3.1116687e-48
3.4016676e-48
2.8662762e-48
3.6505878e-48
2.8046586e-48
2.1937178e-48
2.3559817e-48
3.0607262e-48
3.4582371e-48
3.9584837e-48
3.3186903e-48
4.0160402e-48
3.2940644e-48
2.5709967e-48
3.3935315e-48
2.6315612e-48
2.5945346e-48
2.2639251e-48
2.3607674e-48
2.6953011e-48
1.8645729e-48
2.4072901e-48
2.3098413e-48
1.9446543e-48
2.8127987e-48
2.8917026e-48
2.4929627e-48
2.5941466e-48
2.084291e-48
2.6646034e-48
2.177114e-48
2.5737612e-48
5.316187e-48
5.4058139e-48
4.2918514e-48
4.4372556e-48
4.4270497e-48
3.2259687e-48
3.3496111e-48
4.2926507e-48
5.538991e-48
5.5699502e-48
4.6691598e-48
4.5729972e-48
4.7187967e-48
4.7952994e-48
3.5495667e-48
3.6391702e-48
4.2408335e-48
4.9306618e-48
3.9807204e-48
5.1251928e-48
3.993208e-48
3.0395783e-48
3.250319e-48
4.2651605e-48
4.8765401e-48
5.7623273e-48
4.70096e-48
5.8448013e-48
4.8331934e-48
3.6181047e-48
5.09665e-48
3.743626e-48
8.2213289e-48
8.2775627e-48
5.5502544e-48
5.7027132e-48
6.8230102e-48
6.7813006e-48
1.0239407e-47
1.0036146e-47
4.5730604e-48
5.3220641e-48
8.9953663e-48
8.8829297e-48
6.0187824e-48
6.0586208e-48
6.5902938e-48
6.4207123e-48
9.7561323e-48
9.5067002e-48
5.0479249e-48
4.845982e-48
3.1976794e-48
2.8065849e-48
2.9351398e-48
3.2935192e-48
3.2372566e-48
3.2240052e-48
2.8286554e-48
2.9108241e-48
2.3559105e-48
2.8339355e-48
2.2819893e-48
2.9786187e-48
2.930953e-48
2.3794401e-48
2.8740049e-48
2.3207737e-48
3.8793217e-48
3.2673651e-48
3.4361328e-48
3.9827858e-48
2.6030449e-48
3.1711377e-48
2.4801746e-48
3.3379692e-48
3.4796526e-48
2.7188395e-48
3.4079016e-48
2.6465555e-48
3.8286743e-48
4.2758711e-48
3.629103e-48
4.4484675e-48
3.5684913e-48
2.7922607e-48
2.8972939e-48
3.7512881e-48
3.8544116e-48
4.3798846e-48
3.7109249e-48
4.4209501e-48
3.6903278e-48
2.9020351e-48
3.7881864e-48
2.9624748e-48
2.7979778e-48
2.4530821e-48
2.5831312e-48
2.937226e-48
2.9026659e-48
2.5532461e-48
2.9482527e-48
2.621871e-48
2.120815e-48
2.4972846e-48
2.0171533e-48
2.62637e-48
2.7224753e-48
2.6714253e-48
2.1613829e-48
2.2165225e-48
5.6280795e-48
5.7538306e-48
4.5585951e-48
4.753886e-48
4.7383836e-48
3.4373998e-48
3.6037877e-48
4.5500159e-48
5.1734465e-48
6.0639735e-48
4.9688525e-48
6.1661427e-48
4.9749066e-48
3.7892956e-48
3.9343542e-48
5.1435704e-48
5.3246479e-48
6.1421624e-48
5.1712094e-48
6.1778275e-48
5.2706701e-48
3.9803413e-48
5.5143723e-48
4.0946527e-48
1.6268205e-48
1.5393678e-48
1.5650915e-48
1.5313575e-48
1.6407682e-48
1.6836161e-48
1.7957837e-48
1.6867255e-48
1.8756403e-48
1.4263315e-48
2.0011443e-48
1.447886e-48
1.58189e-48
1.6279397e-48
2.0983189e-48
2.3065154e-48
1.3391369e-48
1.3847609e-48
1.3084487e-48
1.3826851e-48
1.3029223e-48
1.2587635e-48
1.2088291e-48
1.2472864e-48
1.3019218e-48
1.2470827e-48
1.1162995e-48
1.1562807e-48
1.2264303e-48
1.274271e-48
1.3738863e-48
1.4817288e-48
1.3060971e-48
1.3355571e-48
1.2602093e-48
1.3565606e-48
1.4415437e-48
1.3809478e-48
1.4723553e-48
1.4983777e-48
1.3170286e-48
1.1742864e-48
1.3813623e-48
1.2112151e-48
1.2937464e-48
1.369727e-48
1.449568e-48
1.5938102e-48
1.6268034e-48
1.5642454e-48
1.5880727e-48
1.5862794e-48
1.4865966e-48
1.4657219e-48
1.5273871e-48
1.5280783e-48
1.4801053e-48
1.9354684e-48
1.8626629e-48
1.4772301e-48
1.5073083e-48
1.5372493e-48
2.0433037e-48
2.0599201e-48
1.864732e-48
2.0059711e-48
1.7896968e-48
2.0660918e-48
1.7958785e-48
1.4554065e-48
1.5276773e-48
1.8708121e-48
2.0766622e-48
2.1918466e-48
1.9851876e-48
2.267062e-48
2.0095063e-48
1.6328751e-48
1.711456e-48
2.0913183e-48
1.7308997e-48
1.5817158e-48
1.7147622e-48
1.5491246e-48
1.6143155e-48
1.5296148e-48
1.380222e-48
1.4671963e-48
1.4769131e-48
1.38333e-48
1.1433044e-48
1.2124186e-48
1.2842465e-48
1.3162068e-48
1.5638142e-48
1.5932476e-48
2.0387239e-48
1.908589e-48
1.7044786e-48
1.8129093e-48
1.8087612e-48
1.6997125e-48
1.3750147e-48
1.4665041e-48
1.9600122e-48
2.138202e-48
1.9101432e-48
2.1672214e-48
1.5684991e-48
1.933817e-48
1.9702387e-48
1.607665e-48
1.5317901e-48
1.6247377e-48
1.4664176e-48
1.6858684e-48
1.7783665e-48
1.624992e-48
1.696877e-48
1.8440218e-48
1.4808553e-48
1.219442e-48
1.5603972e-48
1.2743931e-48
1.3577483e-48
1.42671e-48
1.6557874e-48
1.7442565e-48
1.6182635e-48
1.5098032e-48
1.5989147e-48
1.6381545e-48
1.5964141e-48
1.4935612e-48
1.5704355e-48
1.6146963e-48
1.5468698e-48
1.3784602e-48
1.4402666e-48
1.6912581e-48
1.5631989e-48
1.3919213e-48
1.4571912e-48
1.6906448e-48
1.7891292e-48
1.8203565e-48
1.8407106e-48
1.838647e-48
1.7221915e-48
1.7570588e-48
1.8101269e-48
1.7727964e-48
2.186363e-48
1.6790855e-48
1.698282e-48
2.2830783e-48
2.2139105e-48
1.6517292e-48
1.6955664e-48
2.2467678e-48
1.6037787e-48
1.6188755e-48
1.7378448e-48
1.6822901e-48
1.6254323e-48
1.6413789e-48
1.6792371e-48
1.6958974e-48
1.8858294e-48
1.4823521e-48
1.5423286e-48
2.1642143e-48
2.0607861e-48
2.0636866e-48
1.5736684e-48
1.5946156e-48
1.4274207e-48
1.3370992e-48
1.4293391e-48
1.5028676e-48
1.4815206e-48
1.4835194e-48
1.4197777e-48
1.4264671e-48
1.3750078e-48
1.2200577e-48
1.301892e-48
1.5231073e-48
1.4838452e-48
1.4719198e-48
1.3031743e-48
1.3227477e-48
1.7739469e-48
1.5948706e-48
1.6857257e-48
1.8344034e-48
1.8767376e-48
1.8659607e-48
1.7044299e-48
1.7235512e-48
1.5991915e-48
1.3068667e-48
1.3719189e-48
1.6916437e-48
1.7286479e-48
1.7100635e-48
1.4001959e-48
1.4195069e-48
2.495228e-48
2.5561848e-48
2.2344077e-48
2.2875324e-48
2.2356545e-48
2.2743345e-48
1.8045153e-48
1.8490116e-48
2.4728967e-48
2.224155e-48
2.2740105e-48
2.4965958e-48
1.835927e-48
1.8737109e-48
2.2527039e-48
2.2823949e-48
2.0311225e-48
1.8261221e-48
1.8731126e-48
2.0518697e-48
2.0120806e-48
1.8296901e-48
1.8602528e-48
2.0263279e-48
1.8368368e-48
1.48973e-48
1.5398085e-48
1.882259e-48
1.8615459e-48
1.5196637e-48
1.5506832e-48
1.9019622e-48
2.1711494e-48
1.9479632e-48
2.2655235e-48
2.0344388e-48
2.0349362e-48
1.95428e-48
1.588146e-48
1.6637023e-48
2.3173805e-48
2.1143032e-48
2.2857778e-48
2.0648883e-48
1.7043635e-48
2.0885284e-48
2.122372e-48
1.7413599e-48
4.6159826e-48
4.1135767e-48
4.532959e-48
4.0744111e-48
4.5240974e-48
4.123599e-48
4.5562168e-48
3.8508254e-48
4.3030489e-48
3.8426117e-48
4.2140039e-48
3.5779743e-48
4.4799974e-48
4.0726217e-48
4.5727789e-48
4.1145055e-48
4.1343425e-48
4.3422831e-48
4.4545658e-48
3.94678e-48
5.780336e-48
5.3889329e-48
5.4323783e-48
5.0061797e-48
4.0402443e-48
3.8732052e-48
4.3298599e-48
4.1838824e-48
4.3824651e-48
4.3421751e-48
4.0719948e-48
4.7019078e-48
4.9423693e-48
4.4286154e-48
4.5645806e-48
4.0982476e-48
5.5893041e-48
5.462663e-48
5.8481682e-48
5.6705307e-48
9.5899989e-48
1.0267512e-47
7.3602593e-48
3.7772845e-48
1.1335014e-47
2.9387238e-48
6.032039e-48
5.7230635e-48
5.4205658e-48
5.3338656e-48
5.57413e-48
5.5933597e-48
4.7150254e-48
5.2076648e-48
4.4051374e-48
2.2525623e-48
1.3773838e-47
3.3643757e-47
5.1296834e-48
6.0038938e-48
7.4772955e-48
5.3503181e-48
5.7104625e-48
5.722271e-48
4.751391e-48
5.736416e-48
5.547377e-48
4.8957466e-48
5.6365877e-48
5.0488079e-48
8.5016978e-48
5.3758505e-48
9.0160613e-48
3.3201447e-47
1.7444502e-47
1.624233e-47
3.3254087e-47
1.6456193e-47
1.6603828e-47
8.3854618e-48
6.422405e-48
3.1360611e-47
1.7395522e-47
1.6494506e-47
2.8904487e-47
1.6072819e-47
1.657363e-47
1.3198131e-47
1.2661581e-47
2.35195e-47
2.4276842e-47
8.2171313e-48
8.0251365e-48
8.3262228e-48
7.9651237e-48
1.0527958e-47
1.0650416e-47
6.7309823e-48
6.558926e-48
1.8617793e-47
1.781637e-47
8.6122511e-47
7.4104134e-47
5.8524207e-48
1.9578867e-47
6.0630788e-48
2.0648438e-47
1.0898507e-47
1.0144464e-47
6.7110093e-48
6.8233512e-48
6.0512504e-48
5.6951495e-48
2.0546642e-47
1.9558208e-47
1.0546723e-47
1.0476114e-47
6.2855042e-48
6.5568344e-48
1.0995297e-47
1.0302102e-47
6.6342966e-48
6.7788396e-48
5.950641e-48
5.965056e-48
2.0983598e-47
2.1128104e-47
5.8306812e-48
5.340286e-48
2.0803473e-47
1.8860125e-47
7.9248728e-48
8.0639126e-48
7.9552075e-48
8.3612507e-48
6.4966973e-48
1.0592348e-47
9.9945041e-48
6.5235565e-48
5.635287e-48
5.6223213e-48
2.0300636e-47
2.0184692e-47
1.0562517e-47
1.0394624e-47
6.4614997e-48
6.1888273e-48
5.1464801e-48
5.6682407e-48
2.0337188e-47
1.8249228e-47
1.0184651e-47
1.0835109e-47
6.5717587e-48
6.5452653e-48
1.0684173e-47
1.0560554e-47
6.1232242e-48
6.546691e-48
5.6351571e-48
5.0623032e-48
1.9973531e-47
1.728309e-47
5.7140776e-48
2.038629e-47
5.6019431e-48
1.9913221e-47
5.4746113e-48
5.4566616e-48
1.522951e-47
7.4306806e-48
7.4028297e-48
5.4943075e-48
5.4402515e-48
1.3583709e-47
7.3016817e-48
7.2355514e-48
5.5408884e-48
5.4150984e-48
1.3955015e-47
7.2776908e-48
6.925888e-48
5.8001793e-48
5.6891705e-48
1.3345863e-47
7.696202e-48
7.2657147e-48
8.2882317e-48
9.8310069e-48
1.1894725e-47
9.8624513e-48
5.8756076e-48
5.8574737e-48
8.6556442e-48
9.5069373e-48
1.1506529e-47
1.0118206e-47
5.6911283e-48
5.8705351e-48
8.7270294e-48
9.5006579e-48
9.986382e-48
1.1335605e-47
5.8140079e-48
6.016561e-48
8.7165457e-48
1.0022486e-47
9.95281e-48
1.178695e-47
5.9330404e-48
5.8993074e-48
7.9602283e-48
3.8371947e-48
7.7334555e-48
3.7255158e-48
4.074228e-48
8.0036344e-48
8.0736703e-48
4.0872004e-48
4.3141737e-48
2.0562501e-48
2.0091913e-48
3.0623738e-48
3.8602954e-48
2.0957414e-48
2.0027775e-48
2.4506052e-48
2.5331599e-48
2.0964933e-48
2.2994051e-48
2.6279757e-48
2.6908223e-48
2.2804886e-48
2.2467854e-48
2.6275978e-48
2.0416225e-48
1.945452e-48
3.0391887e-48
4.4199619e-48
2.6157904e-48
2.0935114e-48
2.4090655e-48
2.6794323e-48
3.7710177e-48
1.9781723e-48
1.9679977e-48
2.5494195e-48
2.7422298e-48
2.3830749e-48
2.1389866e-48
2.6005625e-48
4.0572095e-48
7.8811862e-48
7.9033081e-48
4.0778676e-48
4.0249324e-48
8.2420035e-48
8.0904495e-48
3.8892995e-48