/*--------------------------------*- C++ -*----------------------------------*\
  =========                 |
  \\      /  F ield         | OpenFOAM: The Open Source CFD Toolbox
   \\    /   O peration     | Website:  https://openfoam.org
    \\  /    A nd           | Version:  7
     \\/     M anipulation  |
\*---------------------------------------------------------------------------*/
FoamFile
{
    version     2.0;
    format      ascii;
    class       volScalarField;
    location    "8000";
    object      p;
}
// * * * * * * * * * * * * * * * * * * * * * * * * * * * * * * * * * * * * * //

dimensions      [0 2 -2 0 0 0 0];

internalField   nonuniform List<scalar> 
33943
(
-7.7816229e+95
-7.4499378e+95
-7.3244251e+95
-7.0579425e+95
-7.7469718e+95
-7.8571514e+95
-7.5021541e+95
-7.9068752e+95
-7.5956931e+95
-7.5251584e+95
-7.4518701e+95
-7.389729e+95
-7.3534588e+95
-7.2581346e+95
-7.2230273e+95
-7.3146198e+95
-6.5460914e+95
-6.802209e+95
-7.1110194e+95
-7.1632338e+95
-7.2542446e+95
-7.060053e+95
-7.0928407e+95
-7.8455315e+95
-7.5815208e+95
-7.8117773e+95
-7.7669903e+95
-7.5398364e+95
-7.9813249e+95
-7.6402431e+95
-7.5669962e+95
-7.6514952e+95
-7.5794854e+95
-7.37218e+95
-7.3273052e+95
-7.4011008e+95
-7.3611396e+95
-7.3955609e+95
-7.3552764e+95
-7.7044758e+95
-7.655239e+95
-7.555075e+95
-7.5072067e+95
-7.4934746e+95
-7.4617985e+95
-7.3573191e+95
-7.3862302e+95
-7.4290828e+95
-7.3915619e+95
-7.3267763e+95
-7.2919997e+95
-7.2775643e+95
-7.2109641e+95
-7.2968947e+95
-7.2290492e+95
-7.2597795e+95
-7.2410281e+95
-7.1938066e+95
-7.1760306e+95
-6.7299987e+95
-6.6140068e+95
-6.888608e+95
-6.5810513e+95
-6.8456728e+95
-6.6722113e+95
-6.5543337e+95
-6.6500931e+95
-6.5344542e+95
-6.9411599e+95
-6.7910145e+95
-6.9120786e+95
-6.7659674e+95
-7.1515235e+95
-7.1210067e+95
-7.2051449e+95
-7.1785811e+95
-7.2073069e+95
-7.3251883e+95
-7.2451454e+95
-7.0973364e+95
-7.063367e+95
-7.3091288e+95
-7.3482308e+95
-7.091717e+95
-7.0757775e+95
-7.1249844e+95
-7.1077552e+95
-7.6243727e+95
-7.6517832e+95
-7.8869891e+95
-7.8543944e+95
-7.5715872e+95
-7.7915735e+95
-7.751573e+95
-7.5324303e+95
-7.7544208e+95
-7.7053041e+95
-7.7605618e+95
-7.7132115e+95
-7.4296094e+95
-7.4606695e+95
-7.5092357e+95
-7.4774627e+95
-7.3979975e+95
-7.4454061e+95
-7.4086144e+95
-7.3622881e+95
-7.5418335e+95
-7.509403e+95
-7.5043812e+95
-7.5367363e+95
-7.4766851e+95
-7.4393899e+95
-7.4340767e+95
-7.4715931e+95
-7.2393322e+95
-7.1943263e+95
-7.2980516e+95
-7.3165526e+95
-7.3386288e+95
-7.3193168e+95
-7.2801486e+95
-7.3012969e+95
-7.3460334e+95
-7.3262657e+95
-7.3309674e+95
-7.3111781e+95
-7.3081944e+95
-7.2930805e+95
-7.2738222e+95
-7.595876e+95
-7.5706609e+95
-7.5880134e+95
-7.4765666e+95
-7.4588922e+95
-7.521898e+95
-7.4124838e+95
-7.5489421e+95
-7.4374409e+95
-7.4327402e+95
-7.4181159e+95
-7.3568482e+95
-7.3430484e+95
-7.4031622e+95
-7.386825e+95
-7.3287671e+95
-7.3135598e+95
-7.3705687e+95
-7.3530649e+95
-7.2985272e+95
-7.2817519e+95
-7.3354783e+95
-7.3160109e+95
-7.246344e+95
-7.2646962e+95
-7.2412698e+95
-7.2318085e+95
-7.1966214e+95
-7.1876784e+95
-7.2600328e+95
-7.2504214e+95
-7.2150002e+95
-7.2056069e+95
-7.2231877e+95
-7.2144894e+95
-7.1795898e+95
-7.1708941e+95
-7.162444e+95
-7.2060038e+95
-7.1968787e+95
-7.1539435e+95
-6.7744875e+95
-6.924944e+95
-6.6666199e+95
-6.6424464e+95
-6.5917833e+95
-6.8475925e+95
-6.8179402e+95
-6.5667889e+95
-6.9548661e+95
-6.6198894e+95
-6.6036027e+95
-6.7301083e+95
-6.747438e+95
-6.8776723e+95
-7.0404987e+95
-7.0171814e+95
-6.8580123e+95
-6.6916471e+95
-6.5718948e+95
-6.5880496e+95
-6.7117076e+95
-6.9659848e+95
-6.9930305e+95
-6.8366382e+95
-6.8127881e+95
-6.7269928e+95
-6.6558469e+95
-6.667387e+95
-6.7145444e+95
-6.6041409e+95
-6.6152338e+95
-6.5624919e+95
-6.5515186e+95
-6.703677e+95
-6.6350691e+95
-6.6454928e+95
-6.6928017e+95
-6.5844571e+95
-6.5943784e+95
-7.0137169e+95
-6.9345534e+95
-6.9197856e+95
-7.0296902e+95
-6.7738729e+95
-6.8581676e+95
-6.7868225e+95
-6.8445025e+95
-6.906223e+95
-6.9988322e+95
-6.9845172e+95
-6.892957e+95
-6.8195812e+95
-6.762155e+95
-6.8318628e+95
-6.7508426e+95
-7.1718542e+95
-7.1887891e+95
-7.1397971e+95
-7.156116e+95
-7.229508e+95
-7.2259718e+95
-7.2427449e+95
-7.2026262e+95
-7.2167756e+95
-7.246445e+95
-7.2749294e+95
-7.1456358e+95
-7.4087465e+95
-7.385458e+95
-7.126643e+95
-7.2643001e+95
-7.2818538e+95
-7.0894186e+95
-7.0549706e+95
-7.2960014e+95
-7.3333194e+95
-7.1156851e+95
-7.1067262e+95
-7.0988829e+95
-7.0912197e+95
-7.1494719e+95
-7.1401065e+95
-7.1316883e+95
-7.1232805e+95
-7.6105004e+95
-7.6364813e+95
-7.8686828e+95
-7.8300956e+95
-7.572326e+95
-7.7951325e+95
-7.7544656e+95
-7.53218e+95
-7.3088816e+95
-7.2489489e+95
-6.9249849e+95
-7.5608652e+95
-7.5415969e+95
-7.5904015e+95
-7.6089487e+95
-7.5184514e+95
-7.4902212e+95
-7.5391829e+95
-7.5675565e+95
-7.6404717e+95
-7.6225518e+95
-7.6332088e+95
-7.6154659e+95
-7.6000211e+95
-7.5723234e+95
-7.5935723e+95
-7.5662184e+95
-7.2859004e+95
-7.3147675e+95
-7.3632366e+95
-7.3344789e+95
-7.2573164e+95
-7.3048532e+95
-7.2724336e+95
-7.2253768e+95
-7.4469999e+95
-7.4323155e+95
-7.4572568e+95
-7.472296e+95
-7.4424631e+95
-7.4177184e+95
-7.4013848e+95
-7.4258219e+95
-7.4353851e+95
-7.4379486e+95
-7.4212918e+95
-7.4520616e+95
-7.4822471e+95
-7.4670227e+95
-7.4680288e+95
-7.4529088e+95
-7.3861741e+95
-7.3697947e+95
-7.4101409e+95
-7.3930791e+95
-7.3762188e+95
-7.3530674e+95
-7.3344302e+95
-7.3570958e+95
-7.3845462e+95
-7.3651872e+95
-7.3698344e+95
-7.3503734e+95
-7.419208e+95
-7.401749e+95
-7.4049419e+95
-7.3872772e+95
-7.1040612e+95
-7.2509158e+95
-7.2329112e+95
-7.0651231e+95
-7.0334669e+95
-7.07171e+95
-7.2158879e+95
-7.2793751e+95
-7.2610029e+95
-7.243234e+95
-7.3096266e+95
-7.3002584e+95
-7.3058751e+95
-7.3157021e+95
-7.2968352e+95
-7.2814179e+95
-7.291004e+95
-7.287002e+95
-7.2889373e+95
-7.279207e+95
-7.3093787e+95
-7.2994997e+95
-7.2905252e+95
-7.270206e+95
-7.2806622e+95
-7.2605066e+95
-7.272513e+95
-7.2633134e+95
-7.2781508e+95
-7.2686717e+95
-7.271903e+95
-7.2518395e+95
-7.2625069e+95
-7.2427567e+95
-7.2537984e+95
-7.2342021e+95
-7.6010971e+95
-7.4914687e+95
-7.5031208e+95
-7.4224789e+95
-7.4933368e+95
-7.4128565e+95
-7.5109918e+95
-7.4309936e+95
-7.5178158e+95
-7.4384099e+95
-7.4602419e+95
-7.4463973e+95
-7.3810452e+95
-7.3688818e+95
-7.4835054e+95
-7.403148e+95
-7.4723829e+95
-7.3925928e+95
-7.3924757e+95
-7.3858064e+95
-7.3420566e+95
-7.3357083e+95
-7.378988e+95
-7.3713051e+95
-7.32881e+95
-7.3215018e+95
-7.3147359e+95
-7.3639827e+95
-7.3564577e+95
-7.3073282e+95
-7.3489634e+95
-7.3404841e+95
-7.2921165e+95
-7.299969e+95
-7.3322534e+95
-7.3236757e+95
-7.2760174e+95
-7.2845721e+95
-7.3152828e+95
-7.3060549e+95
-7.2586375e+95
-7.2675138e+95
-7.2975497e+95
-7.2885916e+95
-7.2417719e+95
-7.2506736e+95
-7.2796702e+95
-7.2695781e+95
-7.223574e+95
-7.232883e+95
-7.2044458e+95
-7.2088875e+95
-7.1862769e+95
-7.1816617e+95
-7.2001495e+95
-7.1953556e+95
-7.1729297e+95
-7.1773499e+95
-7.2045531e+95
-7.2276881e+95
-7.2229405e+95
-7.1998496e+95
-7.2134295e+95
-7.2183e+95
-7.1952044e+95
-7.1904956e+95
-7.1909137e+95
-7.1866545e+95
-7.1688887e+95
-7.1644758e+95
-7.1603187e+95
-7.1826349e+95
-7.1782347e+95
-7.1559567e+95
-7.1699637e+95
-7.1740972e+95
-7.1520179e+95
-7.1477199e+95
-7.1613042e+95
-7.1659179e+95
-7.1436873e+95
-7.1394134e+95
-6.6866554e+95
-6.6249828e+95
-6.6104841e+95
-6.8706042e+95
-6.8878533e+95
-6.9792282e+95
-7.0765053e+95
-7.0591711e+95
-6.8944523e+95
-6.9093935e+95
-6.6660114e+95
-6.7881769e+95
-6.6558186e+95
-6.7990635e+95
-6.6446305e+95
-6.7626385e+95
-6.6335843e+95
-6.7758077e+95
-6.5900852e+95
-6.8380653e+95
-6.8076576e+95
-6.5646836e+95
-6.9353395e+95
-7.0914968e+95
-7.1073979e+95
-6.9220299e+95
-6.6213814e+95
-6.6290746e+95
-6.6860637e+95
-6.6787859e+95
-6.6143178e+95
-6.6066634e+95
-6.6722329e+95
-6.6639276e+95
-6.7935257e+95
-6.7287842e+95
-6.7200225e+95
-6.7841791e+95
-6.7356085e+95
-6.7431378e+95
-6.8093104e+95
-6.8011609e+95
-6.8757049e+95
-6.8670301e+95
-6.9440937e+95
-6.9533385e+95
-7.1389259e+95
-7.0253352e+95
-7.0356197e+95
-7.1270488e+95
-7.1155741e+95
-7.0029674e+95
-7.0150781e+95
-7.1022996e+95
-6.9347406e+95
-6.8484009e+95
-6.8584734e+95
-6.9234529e+95
-6.6771095e+95
-6.6875664e+95
-6.7484208e+95
-6.7371044e+95
-6.6245541e+95
-6.6345591e+95
-6.5811055e+95
-6.5715323e+95
-6.6547492e+95
-6.5894953e+95
-6.5987298e+95
-6.6437834e+95
-6.7734615e+95
-6.6978182e+95
-6.7097642e+95
-6.7601694e+95
-6.9470491e+95
-6.9614505e+95
-7.0582014e+95
-7.0432103e+95
-6.9754677e+95
-6.9907362e+95
-7.089247e+95
-7.0730756e+95
-6.9118252e+95
-6.8372528e+95
-6.8232999e+95
-6.897338e+95
-6.8837481e+95
-6.8102948e+95
-6.7977723e+95
-6.8699368e+95
-6.7208598e+95
-6.7516794e+95
-6.7147062e+95
-6.745346e+95
-6.6537971e+95
-6.6483921e+95
-6.6811853e+95
-6.6754908e+95
-6.6651081e+95
-6.6926895e+95
-6.6591997e+95
-6.6867343e+95
-6.7088993e+95
-6.7394228e+95
-6.703075e+95
-6.7333303e+95
-6.6017022e+95
-6.6279637e+95
-6.596573e+95
-6.6227249e+95
-6.612528e+95
-6.639068e+95
-6.606909e+95
-6.6332376e+95
-6.5875871e+95
-6.5820094e+95
-6.5619631e+95
-6.5562974e+95
-6.5768507e+95
-6.5717715e+95
-6.5462352e+95
-6.5510248e+95
-6.6980716e+95
-6.6923377e+95
-6.7280772e+95
-6.7222154e+95
-6.6333419e+95
-6.6600761e+95
-6.6550094e+95
-6.6436764e+95
-6.670632e+95
-6.6381916e+95
-6.6650745e+95
-6.6871499e+95
-6.6819903e+95
-6.7169993e+95
-6.7117616e+95
-6.5824279e+95
-6.6080989e+95
-6.5920801e+95
-6.6181363e+95
-6.5871238e+95
-6.6128286e+95
-7.0117603e+95
-7.0039921e+95
-7.0715174e+95
-7.0635129e+95
-6.9228189e+95
-6.9301965e+95
-6.9772159e+95
-6.9697109e+95
-6.9159354e+95
-6.9088691e+95
-6.9626559e+95
-6.955057e+95
-7.0190446e+95
-7.0271303e+95
-7.0883071e+95
-7.0794149e+95
-6.769667e+95
-6.8028464e+95
-6.763403e+95
-6.7962645e+95
-6.8431961e+95
-6.8501219e+95
-6.889937e+95
-6.8827439e+95
-6.7821619e+95
-6.8156208e+95
-6.7756658e+95
-6.8089787e+95
-6.8368329e+95
-6.830153e+95
-6.8761449e+95
-6.8692959e+95
-6.9026191e+95
-6.8954462e+95
-6.9485145e+95
-6.9410859e+95
-6.9969886e+95
-6.9890497e+95
-7.0562711e+95
-7.0476698e+95
-6.9822908e+95
-6.9754522e+95
-7.0403732e+95
-7.0333324e+95
-6.8891964e+95
-6.8829251e+95
-6.9345042e+95
-6.9278442e+95
-6.812167e+95
-6.8064721e+95
-6.8504294e+95
-6.8445115e+95
-6.7578868e+95
-6.7905614e+95
-6.751869e+95
-6.7844066e+95
-6.8242404e+95
-6.8177391e+95
-6.8632174e+95
-6.8563189e+95
-6.7466109e+95
-6.7790391e+95
-6.7412833e+95
-6.7734645e+95
-7.1988509e+95
-7.1901902e+95
-7.2158644e+95
-7.2069971e+95
-7.1654122e+95
-7.1570496e+95
-7.1825332e+95
-7.1734917e+95
-7.2575462e+95
-7.2508131e+95
-7.2618109e+95
-7.2519621e+95
-7.2700201e+95
-7.2637808e+95
-7.2301677e+95
-7.2228418e+95
-7.2445199e+95
-7.2369427e+95
-7.2822153e+95
-7.2719046e+95
-7.2948127e+95
-7.1324273e+95
-7.386655e+95
-7.367608e+95
-7.1168089e+95
-7.299922e+95
-7.2909789e+95
-7.3084207e+95
-7.3170594e+95
-7.0871501e+95
-7.0517487e+95
-7.2933098e+95
-7.3309355e+95
-7.1291126e+95
-7.124618e+95
-7.1162516e+95
-7.1204029e+95
-7.1081299e+95
-7.1124272e+95
-7.1043776e+95
-7.100586e+95
-7.16362e+95
-7.1588037e+95
-7.1543244e+95
-7.1498572e+95
-7.1458292e+95
-7.1411641e+95
-7.1370127e+95
-7.1328564e+95
-7.608351e+95
-7.6347226e+95
-7.8686261e+95
-7.8307057e+95
-7.5724601e+95
-7.7955477e+95
-7.7548187e+95
-7.5322863e+95
-7.3640233e+95
-7.4100886e+95
-7.0293899e+95
-6.9792472e+95
-6.8979845e+95
-6.9260604e+95
-7.6226888e+95
-7.4047648e+95
-7.3857258e+95
-7.4355806e+95
-7.4535293e+95
-7.365475e+95
-7.3402313e+95
-7.3895536e+95
-7.4145423e+95
-7.653305e+95
-7.5370806e+95
-7.5624799e+95
-7.5554058e+95
-7.5299266e+95
-7.5213173e+95
-7.5105959e+95
-7.547038e+95
-7.536443e+95
-7.5649773e+95
-7.6458325e+95
-7.5558578e+95
-7.5718362e+95
-7.5491054e+95
-7.5465998e+95
-7.5568338e+95
-7.5412192e+95
-7.5312272e+95
-7.4999102e+95
-7.4884615e+95
-7.5139518e+95
-7.5258043e+95
-7.4756292e+95
-7.4611837e+95
-7.4866935e+95
-7.5012687e+95
-7.5360394e+95
-7.5210263e+95
-7.5242016e+95
-7.5094004e+95
-7.5113566e+95
-7.4968338e+95
-7.4823867e+95
-7.4967409e+95
-7.148161e+95
-7.1744237e+95
-7.2149384e+95
-7.3743366e+95
-7.3600408e+95
-7.1888984e+95
-7.3463487e+95
-7.3306886e+95
-7.1219416e+95
-7.1615771e+95
-7.3164079e+95
-7.3003823e+95
-7.1333178e+95
-7.2848491e+95
-7.267382e+95
-7.0933203e+95
-7.3929211e+95
-7.4072911e+95
-7.3784868e+95
-7.3628608e+95
-7.3960776e+95
-7.3877138e+95
-7.3952147e+95
-7.403802e+95
-7.4143071e+95
-7.4063891e+95
-7.3946509e+95
-7.3868899e+95
-7.3986584e+95
-7.3791932e+95
-7.3899791e+95
-7.370491e+95
-7.4040223e+95
-7.4116262e+95
-7.4194559e+95
-7.4115457e+95
-7.4410397e+95
-7.4339217e+95
-7.4491622e+95
-7.4417466e+95
-7.4266133e+95
-7.4189419e+95
-7.4346087e+95
-7.4267459e+95
-7.4439987e+95
-7.4366372e+95
-7.4239632e+95
-7.41694e+95
-7.4295514e+95
-7.4216238e+95
-7.4099166e+95
-7.4020727e+95
-7.3474462e+95
-7.3311627e+95
-7.3149298e+95
-7.2972325e+95
-7.353109e+95
-7.3463888e+95
-7.3376484e+95
-7.3439674e+95
-7.3350483e+95
-7.3189091e+95
-7.3285843e+95
-7.3250721e+95
-7.3472263e+95
-7.3379688e+95
-7.3179498e+95
-7.3271014e+95
-7.3188749e+95
-7.3089045e+95
-7.2987079e+95
-7.3289831e+95
-7.3797818e+95
-7.3872417e+95
-7.3786895e+95
-7.3716907e+95
-7.3634152e+95
-7.3546567e+95
-7.3705206e+95
-7.3614582e+95
-7.3818547e+95
-7.3731855e+95
-7.3620786e+95
-7.3533922e+95
-7.3649339e+95
-7.3557029e+95
-7.3450387e+95
-7.3357681e+95
-7.1655065e+95
-7.1825274e+95
-6.97113e+95
-7.1089543e+95
-7.0931081e+95
-7.1494326e+95
-6.9416962e+95
-7.0778908e+95
-7.2193049e+95
-7.2285168e+95
-7.2326548e+95
-7.2418152e+95
-7.2699753e+95
-7.2793023e+95
-7.2019862e+95
-7.2105823e+95
-7.2238923e+95
-7.2150501e+95
-7.2609541e+95
-7.2516745e+95
-7.1846787e+95
-7.1939517e+95
-7.2065605e+95
-7.1975729e+95
-7.242816e+95
-7.2336831e+95
-7.2861317e+95
-7.2887361e+95
-7.2810367e+95
-7.283743e+95
-7.2908245e+95
-7.2952536e+95
-7.2981108e+95
-7.2933646e+95
-7.2766166e+95
-7.2722519e+95
-7.2747564e+95
-7.2793824e+95
-7.2701646e+95
-7.2675847e+95
-7.262524e+95
-7.2651811e+95
-7.2513498e+95
-7.2777084e+95
-7.2727109e+95
-7.2464728e+95
-7.2418095e+95
-7.268158e+95
-7.263111e+95
-7.2369703e+95
-7.2914694e+95
-7.2963356e+95
-7.2858719e+95
-7.290812e+95
-7.2819422e+95
-7.2868889e+95
-7.2763818e+95
-7.2812145e+95
-7.2775716e+95
-7.2728403e+95
-7.2719297e+95
-7.2673058e+95
-7.2322974e+95
-7.2587749e+95
-7.254223e+95
-7.2278735e+95
-7.262829e+95
-7.2682898e+95
-7.2633595e+95
-7.2579315e+95
-7.2498327e+95
-7.2448469e+95
-7.218734e+95
-7.2235339e+95
-7.2538653e+95
-7.2581313e+95
-7.2608349e+95
-7.2563178e+95
-7.2443681e+95
-7.2493078e+95
-7.2518671e+95
-7.2470419e+95
-7.2544389e+95
-7.2590271e+95
-7.2534631e+95
-7.2489554e+95
-7.2140644e+95
-7.2404754e+95
-7.2359863e+95
-7.2097811e+95
-7.2453386e+95
-7.2500896e+95
-7.2446279e+95
-7.2399859e+95
-7.2270931e+95
-7.2317772e+95
-7.2057212e+95
-7.2013097e+95
-7.2365118e+95
-7.2411349e+95
-7.2357361e+95
-7.2312753e+95
-7.1970215e+95
-7.2229725e+95
-7.2186539e+95
-7.1929735e+95
-7.5230899e+95
-7.5288858e+95
-7.4498848e+95
-7.4443766e+95
-7.4040546e+95
-7.4575734e+95
-7.4532957e+95
-7.3995501e+95
-7.4488187e+95
-7.4438247e+95
-7.3903742e+95
-7.3950577e+95
-7.4655955e+95
-7.4614152e+95
-7.4122932e+95
-7.4080579e+95
-7.4718489e+95
-7.4690443e+95
-7.4194658e+95
-7.4161948e+95
-7.4175962e+95
-7.4118905e+95
-7.3648245e+95
-7.3591261e+95
-7.4057014e+95
-7.3989864e+95
-7.3534728e+95
-7.3476528e+95
-7.4392512e+95
-7.4343423e+95
-7.3858754e+95
-7.3808061e+95
-7.4290812e+95
-7.3756057e+95
-7.4232664e+95
-7.3700858e+95
-7.3528445e+95
-7.355716e+95
-7.3304992e+95
-7.3276113e+95
-7.3461885e+95
-7.3497748e+95
-7.3244678e+95
-7.3211411e+95
-7.339755e+95
-7.3429988e+95
-7.3180576e+95
-7.3145717e+95
-7.3323118e+95
-7.3363188e+95
-7.3110286e+95
-7.307395e+95
-7.3251989e+95
-7.3287278e+95
-7.3041418e+95
-7.300438e+95
-7.317804e+95
-7.3216444e+95
-7.2966787e+95
-7.292909e+95
-7.3104482e+95
-7.3141447e+95
-7.2894887e+95
-7.2856014e+95
-7.3021391e+95
-7.3065818e+95
-7.2817091e+95
-7.277642e+95
-7.2939273e+95
-7.298051e+95
-7.2739504e+95
-7.2697733e+95
-7.2853944e+95
-7.2898116e+95
-7.2654583e+95
-7.2610829e+95
-7.2770708e+95
-7.2813054e+95
-7.2571215e+95
-7.2527583e+95
-7.2681105e+95
-7.2727914e+95
-7.2483097e+95
-7.2438267e+95
-7.2595526e+95
-7.2638529e+95
-7.2399604e+95
-7.2356129e+95
-7.2507715e+95
-7.2552514e+95
-7.2311771e+95
-7.226688e+95
-7.2465193e+95
-7.222589e+95
-7.2421571e+95
-7.2180786e+95
-7.2375402e+95
-7.2325483e+95
-7.2134956e+95
-7.2088387e+95
-7.1569688e+95
-7.1613598e+95
-7.1526174e+95
-7.1482108e+95
-7.1792323e+95
-7.1746841e+95
-7.1656777e+95
-7.1701715e+95
-7.144042e+95
-7.1398711e+95
-7.1357346e+95
-7.1315635e+95
-7.1233806e+95
-7.1274954e+95
-7.1155187e+95
-7.1195598e+95
-6.6752759e+95
-6.8092172e+95
-6.6217883e+95
-6.6081886e+95
-6.8597707e+95
-6.8747714e+95
-6.9463747e+95
-7.1193063e+95
-7.0596184e+95
-7.0680047e+95
-7.1739421e+95
-7.1645504e+95
-7.0433934e+95
-7.0514103e+95
-7.1469275e+95
-7.1554615e+95
-6.9685267e+95
-6.8897993e+95
-6.9606709e+95
-6.8825571e+95
-6.9838388e+95
-6.8970855e+95
-6.9043398e+95
-6.9761529e+95
-6.6698151e+95
-6.729823e+95
-6.665219e+95
-6.7247261e+95
-6.7738789e+95
-6.7789736e+95
-6.8465442e+95
-6.8413021e+95
-6.7150407e+95
-6.7201446e+95
-6.660844e+95
-6.6558684e+95
-6.784064e+95
-6.7898359e+95
-6.859463e+95
-6.8526924e+95
-6.6459379e+95
-6.6513278e+95
-6.709767e+95
-6.7038827e+95
-6.7499197e+95
-6.7561066e+95
-6.8158665e+95
-6.8225164e+95
-6.6408965e+95
-6.6925988e+95
-6.6984583e+95
-6.6351152e+95
-6.8362386e+95
-6.7619472e+95
-6.8292034e+95
-6.7683374e+95
-6.0928322e+95
-6.108065e+95
-6.323261e+95
-6.3439116e+95
-6.5900721e+95
-6.8376166e+95
-6.8074269e+95
-6.5661248e+95
-7.0035977e+95
-6.9292199e+95
-6.9219427e+95
-7.0111021e+95
-7.0747235e+95
-7.0822062e+95
-7.1903177e+95
-7.1819655e+95
-7.0980641e+95
-7.0899993e+95
-7.2073236e+95
-7.1986686e+95
-6.9091439e+95
-6.9148957e+95
-6.9961404e+95
-6.9893232e+95
-6.6497298e+95
-6.6471036e+95
-6.6189559e+95
-6.6218539e+95
-6.6566828e+95
-6.6530419e+95
-6.6252908e+95
-6.6289912e+95
-6.6837077e+95
-6.7129914e+95
-6.6800148e+95
-6.709172e+95
-6.6767239e+95
-6.7059538e+95
-6.6742387e+95
-6.703395e+95
-6.6447282e+95
-6.6410476e+95
-6.6122626e+95
-6.6161705e+95
-6.637272e+95
-6.6329698e+95
-6.6047926e+95
-6.6086001e+95
-6.6718477e+95
-6.7009558e+95
-6.6683357e+95
-6.6972966e+95
-6.6644481e+95
-6.693295e+95
-6.6599407e+95
-6.6884543e+95
-6.7899824e+95
-6.8234163e+95
-6.7857192e+95
-6.8188193e+95
-6.7292825e+95
-6.7254661e+95
-6.7554834e+95
-6.7594966e+95
-6.7213048e+95
-6.7161679e+95
-6.7511556e+95
-6.7457223e+95
-6.7812063e+95
-6.7757366e+95
-6.8141929e+95
-6.8086773e+95
-6.7347004e+95
-6.7654666e+95
-6.7624045e+95
-6.7319384e+95
-6.7416797e+95
-6.7723631e+95
-6.7379346e+95
-6.7687406e+95
-6.803553e+95
-6.8379336e+95
-6.8341267e+95
-6.7998845e+95
-6.7964272e+95
-6.8304493e+95
-6.793158e+95
-6.8268471e+95
-6.8714847e+95
-6.9079939e+95
-6.8675822e+95
-6.9040109e+95
-6.8637658e+95
-6.9000978e+95
-6.8598974e+95
-6.8958909e+95
-6.9368934e+95
-6.9794181e+95
-6.9326101e+95
-6.9749197e+95
-6.945151e+95
-6.9881117e+95
-6.9409629e+95
-6.9837078e+95
-7.1366292e+95
-7.2032879e+95
-7.1316616e+95
-7.1976267e+95
-7.0222592e+95
-7.0729705e+95
-7.0174531e+95
-7.0674539e+95
-7.0313273e+95
-7.0824072e+95
-7.0268079e+95
-7.0778479e+95
-7.1263284e+95
-7.191796e+95
-7.120493e+95
-7.1854654e+95
-7.1149382e+95
-7.1794416e+95
-7.1083279e+95
-7.172306e+95
-7.0011394e+95
-6.994763e+95
-7.0503296e+95
-7.0434873e+95
-7.0127638e+95
-7.0623221e+95
-7.0068379e+95
-7.056247e+95
-7.1020511e+95
-7.1658437e+95
-7.0951618e+95
-7.1588329e+95
-6.928421e+95
-6.9704701e+95
-6.9230496e+95
-6.9647622e+95
-6.8465611e+95
-6.8819216e+95
-6.8409239e+95
-6.8760291e+95
-6.8561517e+95
-6.8919085e+95
-6.8513429e+95
-6.8868967e+95
-6.9177794e+95
-6.9118158e+95
-6.9592905e+95
-6.9531521e+95
-6.6750987e+95
-6.6699048e+95
-6.7030541e+95
-6.6976082e+95
-6.6863294e+95
-6.7146396e+95
-6.6802572e+95
-6.7083725e+95
-6.7435064e+95
-6.7754806e+95
-6.7369088e+95
-6.7685085e+95
-6.7313691e+95
-6.7626862e+95
-6.7258386e+95
-6.7569002e+95
-6.6221519e+95
-6.6487824e+95
-6.6172023e+95
-6.6437741e+95
-6.6326221e+95
-6.6596538e+95
-6.6270707e+95
-6.6537944e+95
-6.6074121e+95
-6.6019297e+95
-6.5816192e+95
-6.5761798e+95
-6.5971071e+95
-6.5921374e+95
-6.5663807e+95
-6.5712959e+95
-6.6549731e+95
-6.6830339e+95
-6.6488249e+95
-6.6764885e+95
-6.6173636e+95
-6.6121447e+95
-6.5862155e+95
-6.5907715e+95
-6.6282575e+95
-6.6225008e+95
-6.5952887e+95
-6.6005164e+95
-6.6430028e+95
-6.670643e+95
-6.6374292e+95
-6.6647711e+95
-6.7699907e+95
-6.8028865e+95
-6.7629588e+95
-6.7956628e+95
-6.6978697e+95
-6.727008e+95
-6.6917577e+95
-6.7204504e+95
-6.7104437e+95
-6.7398987e+95
-6.7037188e+95
-6.7330518e+95
-6.7565555e+95
-6.7890369e+95
-6.7497232e+95
-6.7819521e+95
-6.943695e+95
-6.9364913e+95
-6.9913991e+95
-6.9837968e+95
-6.9587107e+95
-6.9507385e+95
-7.0064193e+95
-6.9985197e+95
-7.0570108e+95
-7.1194846e+95
-7.0487728e+95
-7.1108053e+95
-7.0415546e+95
-7.1032378e+95
-7.0339589e+95
-7.0954391e+95
-6.9734626e+95
-6.9657001e+95
-7.0218085e+95
-7.0136009e+95
-6.9885217e+95
-7.0369715e+95
-6.9807398e+95
-7.029209e+95
-7.0884482e+95
-7.1520052e+95
-7.0802949e+95
-7.143379e+95
-7.0726967e+95
-7.064446e+95
-7.1354639e+95
-7.1270631e+95
-6.9058599e+95
-6.9470613e+95
-6.8984538e+95
-6.9394362e+95
-6.8350567e+95
-6.8277736e+95
-6.8700824e+95
-6.8628078e+95
-6.8210101e+95
-6.813766e+95
-6.8559398e+95
-6.8484454e+95
-6.8914273e+95
-6.8838983e+95
-6.9323102e+95
-6.9246859e+95
-6.8771368e+95
-6.8695196e+95
-6.917771e+95
-6.9099131e+95
-6.8071838e+95
-6.7999805e+95
-6.8417708e+95
-6.8344125e+95
-6.7877134e+95
-6.79384e+95
-6.8280009e+95
-6.8214184e+95
-6.8628252e+95
-6.8560497e+95
-6.9030329e+95
-6.8960432e+95
-6.7293004e+95
-6.7175388e+95
-6.7322309e+95
-6.7145455e+95
-6.7469771e+95
-6.7627621e+95
-6.7595397e+95
-6.7439183e+95
-6.7086458e+95
-6.723237e+95
-6.711666e+95
-6.7263831e+95
-6.7410079e+95
-6.7565938e+95
-6.7378458e+95
-6.7534466e+95
-6.6521721e+95
-6.6652178e+95
-6.6624119e+95
-6.6492984e+95
-6.6441192e+95
-6.6466844e+95
-6.6597774e+95
-6.6570884e+95
-6.6892285e+95
-6.6782727e+95
-6.6921629e+95
-6.6754208e+95
-6.6700442e+95
-6.6837827e+95
-6.6727731e+95
-6.6865322e+95
-6.6734787e+95
-6.6631129e+95
-6.676303e+95
-6.660269e+95
-6.6894868e+95
-6.7035498e+95
-6.7005295e+95
-6.6865744e+95
-6.6677026e+95
-6.6574663e+95
-6.6706753e+95
-6.6545906e+95
-6.6837786e+95
-6.6977224e+95
-6.6808295e+95
-6.6947618e+95
-6.7059699e+95
-6.7205266e+95
-6.7174707e+95
-6.702981e+95
-6.7507134e+95
-6.7320005e+95
-6.7351102e+95
-6.7475295e+95
-6.700252e+95
-6.69746e+95
-6.7147267e+95
-6.7118213e+95
-6.7446829e+95
-6.7262754e+95
-6.7416977e+95
-6.7292093e+95
-6.6016243e+95
-6.5987277e+95
-6.6140627e+95
-6.6111649e+95
-6.6235826e+95
-6.6393618e+95
-6.6364575e+95
-6.6264967e+95
-6.5963673e+95
-6.5939738e+95
-6.6062456e+95
-6.6087037e+95
-6.6210286e+95
-6.6185579e+95
-6.6338905e+95
-6.6313876e+95
-6.6217944e+95
-6.6120308e+95
-6.6245661e+95
-6.6091994e+95
-6.6371303e+95
-6.6501874e+95
-6.6473307e+95
-6.6343497e+95
-6.6165247e+95
-6.6067173e+95
-6.6191776e+95
-6.6041029e+95
-6.6316314e+95
-6.6445742e+95
-6.6289209e+95
-6.6417569e+95
-6.5847871e+95
-6.5822157e+95
-6.5994273e+95
-6.5966994e+95
-6.5942129e+95
-6.5915519e+95
-6.5796061e+95
-6.5769432e+95
-6.5635966e+95
-6.5583683e+95
-6.5744837e+95
-6.571812e+95
-6.5890788e+95
-6.5862868e+95
-6.5839184e+95
-6.5815112e+95
-6.5693503e+95
-6.5669763e+95
-6.5484232e+95
-6.5532399e+95
-6.6950174e+95
-6.7093347e+95
-6.7065504e+95
-6.6921758e+95
-6.6867843e+95
-6.6895222e+95
-6.7038598e+95
-6.7010133e+95
-6.7360012e+95
-6.7236921e+95
-6.73905e+95
-6.7207848e+95
-6.7152637e+95
-6.730485e+95
-6.7181123e+95
-6.7333048e+95
-6.6318978e+95
-6.6446071e+95
-6.6420146e+95
-6.6292739e+95
-6.6681396e+95
-6.6573336e+95
-6.6708645e+95
-6.6547003e+95
-6.6497969e+95
-6.663237e+95
-6.6522626e+95
-6.6656481e+95
-6.6521329e+95
-6.6418824e+95
-6.6547912e+95
-6.6392292e+95
-6.6676671e+95
-6.6813719e+95
-6.6785118e+95
-6.6649116e+95
-6.6468773e+95
-6.6366728e+95
-6.6495573e+95
-6.6340892e+95
-6.6623421e+95
-6.6759283e+95
-6.659673e+95
-6.6732467e+95
-6.6843336e+95
-6.6985431e+95
-6.6957367e+95
-6.6815611e+95
-6.6790238e+95
-6.6932121e+95
-6.6765883e+95
-6.6907e+95
-6.7252175e+95
-6.7127963e+95
-6.7280374e+95
-6.7099799e+95
-6.7049516e+95
-6.707468e+95
-6.7226911e+95
-6.7201636e+95
-6.5825822e+95
-6.5799833e+95
-6.594753e+95
-6.592151e+95
-6.6042784e+95
-6.6194109e+95
-6.6167859e+95
-6.6068833e+95
-6.6016359e+95
-6.5917706e+95
-6.6041233e+95
-6.5892679e+95
-6.616437e+95
-6.6292176e+95
-6.6265797e+95
-6.6139028e+95
-6.5970195e+95
-6.5872126e+95
-6.5993562e+95
-6.5849238e+95
-6.6114762e+95
-6.6240887e+95
-6.6090714e+95
-6.6215713e+95
-7.0370623e+95
-7.0104566e+95
-7.041059e+95
-7.0064403e+95
-7.0028109e+95
-7.0333141e+95
-7.0295645e+95
-6.99909e+95
-7.0722624e+95
-7.1089848e+95
-7.0679909e+95
-7.1044297e+95
-7.1004907e+95
-7.09649e+95
-7.0641838e+95
-7.0603659e+95
-6.9381815e+95
-6.9187187e+95
-6.941625e+95
-6.9152308e+95
-6.9221342e+95
-6.9258987e+95
-6.9488763e+95
-6.9450965e+95
-6.9680149e+95
-6.9719401e+95
-6.9988776e+95
-6.9948251e+95
-6.9911494e+95
-6.9873947e+95
-6.9644436e+95
-6.9609164e+95
-6.9310915e+95
-6.9120408e+95
-6.9348964e+95
-6.9083227e+95
-6.9050163e+95
-6.9277124e+95
-6.9243515e+95
-6.9017148e+95
-6.9576545e+95
-6.9841664e+95
-6.9537262e+95
-6.9801609e+95
-6.9766454e+95
-6.9729491e+95
-6.9502942e+95
-6.9467789e+95
-7.0445062e+95
-7.0176086e+95
-7.0486774e+95
-7.0137469e+95
-7.0214467e+95
-7.0256122e+95
-7.0569333e+95
-7.052706e+95
-7.1264234e+95
-7.0844532e+95
-7.0889786e+95
-7.1216407e+95
-7.1172394e+95
-7.1128705e+95
-7.0802312e+95
-7.0759811e+95
-6.7787868e+95
-6.7659209e+95
-6.781992e+95
-6.7627225e+95
-6.7979502e+95
-6.8153901e+95
-6.8120075e+95
-6.7946554e+95
-6.7726661e+95
-6.7598015e+95
-6.775815e+95
-6.7567712e+95
-6.7916286e+95
-6.8089265e+95
-6.8057407e+95
-6.7884756e+95
-6.8355331e+95
-6.8544893e+95
-6.8388486e+95
-6.8578838e+95
-6.8420775e+95
-6.8456048e+95
-6.864685e+95
-6.8611325e+95
-6.8801609e+95
-6.8838042e+95
-6.9051715e+95
-6.9014583e+95
-6.8980939e+95
-6.894599e+95
-6.8768489e+95
-6.8734304e+95
-6.7748514e+95
-6.7781285e+95
-6.7943818e+95
-6.7910429e+95
-6.8071131e+95
-6.8105377e+95
-6.8281894e+95
-6.8246853e+95
-6.7847715e+95
-6.771841e+95
-6.7880032e+95
-6.768677e+95
-6.8215207e+95
-6.8040091e+95
-6.8007885e+95
-6.8182595e+95
-6.8481032e+95
-6.8325952e+95
-6.8515082e+95
-6.8291976e+95
-6.8260668e+95
-6.8449367e+95
-6.8416042e+95
-6.8228421e+95
-6.8703748e+95
-6.8914894e+95
-6.8668799e+95
-6.887865e+95
-6.8846469e+95
-6.8813306e+95
-6.8636998e+95
-6.8603894e+95
-6.8987098e+95
-6.9212382e+95
-6.9177112e+95
-6.8951647e+95
-6.8918093e+95
-6.9142527e+95
-6.91074e+95
-6.8884615e+95
-6.9436645e+95
-6.9697589e+95
-6.9657674e+95
-6.9398909e+95
-6.9364596e+95
-6.9622597e+95
-6.9585817e+95
-6.9328571e+95
-6.9956901e+95
-7.0260266e+95
-7.0218044e+95
-6.9915659e+95
-6.9879062e+95
-7.0179926e+95
-7.0140169e+95
-6.9841665e+95
-7.0568979e+95
-7.0929963e+95
-7.0884734e+95
-7.0524858e+95
-7.0485182e+95
-7.0843429e+95
-7.0802801e+95
-7.0445134e+95
-6.9809978e+95
-7.0107294e+95
-7.0072002e+95
-6.9773309e+95
-6.970661e+95
-6.9740349e+95
-7.003786e+95
-7.0002207e+95
-7.0410291e+95
-7.0766408e+95
-7.0724706e+95
-7.0371852e+95
-7.0303083e+95
-7.033818e+95
-7.0689959e+95
-7.0654719e+95
-6.885513e+95
-6.9076588e+95
-6.9043298e+95
-6.8822191e+95
-6.8759831e+95
-6.8791607e+95
-6.9011883e+95
-6.8978432e+95
-6.9297316e+95
-6.9554323e+95
-6.951745e+95
-6.9261838e+95
-6.9197463e+95
-6.9230579e+95
-6.9485731e+95
-6.9452889e+95
-6.8080893e+95
-6.8265069e+95
-6.8234821e+95
-6.8050757e+95
-6.7995595e+95
-6.8023617e+95
-6.8207341e+95
-6.8178157e+95
-6.8449178e+95
-6.865509e+95
-6.8623131e+95
-6.8417986e+95
-6.8360374e+95
-6.8390102e+95
-6.8593741e+95
-6.8563109e+95
-6.7540594e+95
-6.7509583e+95
-6.7699151e+95
-6.7667666e+95
-6.7856967e+95
-6.7824657e+95
-6.8029288e+95
-6.7996235e+95
-6.7482053e+95
-6.7639865e+95
-6.7610974e+95
-6.7453729e+95
-6.7967187e+95
-6.7938189e+95
-6.7796265e+95
-6.7767514e+95
-6.8199975e+95
-6.8387155e+95
-6.8353637e+95
-6.8166404e+95
-6.8136322e+95
-6.8322933e+95
-6.8291741e+95
-6.8106784e+95
-6.8574898e+95
-6.8784035e+95
-6.8748813e+95
-6.8540325e+95
-6.8508846e+95
-6.871642e+95
-6.8683633e+95
-6.8477033e+95
-6.7429025e+95
-6.7586135e+95
-6.7400914e+95
-6.7557863e+95
-6.7713164e+95
-6.7742245e+95
-6.7912649e+95
-6.7882821e+95
-6.734972e+95
-6.7505646e+95
-6.7375494e+95
-6.7532361e+95
-6.7856298e+95
-6.7687168e+95
-6.7660355e+95
-6.7828995e+95
-7.214409e+95
-7.209877e+95
-7.205585e+95
-7.2013433e+95
-7.2311213e+95
-7.2267119e+95
-7.2224974e+95
-7.2182449e+95
-7.180521e+95
-7.1759839e+95
-7.17178e+95
-7.1675249e+95
-7.1975369e+95
-7.192957e+95
-7.1886725e+95
-7.1844036e+95
-7.2701727e+95
-7.2737122e+95
-7.2668259e+95
-7.2635513e+95
-7.2897476e+95
-7.2838044e+95
-7.2789604e+95
-7.2743124e+95
-7.2854809e+95
-7.28257e+95
-7.2795987e+95
-7.2765354e+95
-7.2460612e+95
-7.2421514e+95
-7.2346532e+95
-7.2384018e+95
-7.2603914e+95
-7.2564244e+95
-7.2528292e+95
-7.2493146e+95
-7.3042093e+95
-7.3096009e+95
-7.2993923e+95
-7.2944478e+95
-7.3228933e+95
-7.3275787e+95
-7.1300481e+95
-7.3822935e+95
-7.3645555e+95
-7.1144916e+95
-7.3274492e+95
-7.3224231e+95
-7.3181344e+95
-7.3138461e+95
-7.3354921e+95
-7.3313343e+95
-7.3435214e+95
-7.3395125e+95
-7.0869543e+95
-7.0514332e+95
-7.2932083e+95
-7.3308299e+95
-7.6083324e+95
-7.6346793e+95
-7.8688258e+95
-7.8309206e+95
-7.0753222e+95
-7.1142687e+95
-6.7429521e+95
-7.0006478e+95
-7.0242737e+95
-6.7022404e+95
-6.976772e+95
-6.9515528e+95
-7.4669085e+95
-7.2570656e+95
-7.2397228e+95
-7.2798077e+95
-7.4438081e+95
-7.4334448e+95
-7.2969678e+95
-7.4520766e+95
-7.45967e+95
-7.2206248e+95
-7.1973819e+95
-7.2377082e+95
-7.4002836e+95
-7.3870265e+95
-7.2603041e+95
-7.4233965e+95
-7.4121022e+95
-7.5494648e+95
-7.543123e+95
-7.5682963e+95
-7.5745111e+95
-7.4933894e+95
-7.4861008e+95
-7.4777809e+95
-7.4677435e+95
-7.515911e+95
-7.5200292e+95
-7.5279136e+95
-7.5238175e+95
-7.5833744e+95
-7.577433e+95
-7.5670582e+95
-7.5611677e+95
-7.5278487e+95
-7.5053968e+95
-7.5249939e+95
-7.5027577e+95
-7.5235115e+95
-7.5264273e+95
-7.5341705e+95
-7.5312074e+95
-7.5217242e+95