/*--------------------------------*- C++ -*----------------------------------*\
  =========                 |
  \\      /  F ield         | OpenFOAM: The Open Source CFD Toolbox
   \\    /   O peration     | Website:  https://openfoam.org
    \\  /    A nd           | Version:  7
     \\/     M anipulation  |
\*---------------------------------------------------------------------------*/
FoamFile
{
    version     2.0;
    format      ascii;
    class       volScalarField;
    location    "8000";
    object      pMean;
}
// * * * * * * * * * * * * * * * * * * * * * * * * * * * * * * * * * * * * * //

dimensions      [0 2 -2 0 0 0 0];

internalField   nonuniform List<scalar> 
33943
(
-2.0190513e+92
-1.9894084e+92
-1.9727041e+92
-1.9581981e+92
-1.9943366e+92
-2.0169894e+92
-1.9899148e+92
-2.0313098e+92
-2.0133859e+92
-2.0041974e+92
-1.9932928e+92
-1.9860103e+92
-2.0100145e+92
-2.0075642e+92
-2.0031607e+92
-2.0049558e+92
-1.8668984e+92
-1.907591e+92
-1.9694836e+92
-1.9774813e+92
-1.9539017e+92
-1.9925554e+92
-1.9973132e+92
-2.0061407e+92
-1.987299e+92
-2.017327e+92
-2.0016184e+92
-1.9789946e+92
-2.0360465e+92
-2.0097838e+92
-2.0021791e+92
-2.0110703e+92
-2.0035827e+92
-2.0009591e+92
-1.9929711e+92
-1.997827e+92
-1.9934115e+92
-2.0064878e+92
-2.0018544e+92
-2.037223e+92
-2.0272472e+92
-2.0170215e+92
-2.0068656e+92
-2.0372093e+92
-2.0313795e+92
-2.0287338e+92
-2.0334977e+92
-2.0251587e+92
-2.0198679e+92
-2.0226676e+92
-2.0163997e+92
-2.0181355e+92
-2.0194692e+92
-2.0214463e+92
-2.021242e+92
-2.0153967e+92
-2.0126249e+92
-2.0167482e+92
-2.0129284e+92
-1.8949172e+92
-1.88123e+92
-1.9245966e+92
-1.8756044e+92
-1.9168376e+92
-1.8967727e+92
-1.8692445e+92
-1.8936646e+92
-1.8672306e+92
-1.958837e+92
-1.9260216e+92
-1.9549643e+92
-1.9229283e+92
-2.0092281e+92
-2.0029129e+92
-2.0195113e+92
-2.0152551e+92
-1.9874705e+92
-1.97035e+92
-1.9940979e+92
-1.9376307e+92
-1.9321465e+92
-1.9487944e+92
-1.9543713e+92
-2.0137306e+92
-2.0103836e+92
-2.018955e+92
-2.0169878e+92
-1.9915236e+92
-2.0034905e+92
-2.0316602e+92
-2.0140131e+92
-1.9839576e+92
-2.0078343e+92
-2.0051609e+92
-1.9770051e+92
-2.0328918e+92
-2.0263357e+92
-2.0345206e+92
-2.0265784e+92
-2.0119401e+92
-2.0167854e+92
-2.0253482e+92
-2.0199025e+92
-2.006252e+92
-2.0140625e+92
-2.009797e+92
-2.0014433e+92
-2.0224133e+92
-2.0175538e+92
-2.0255037e+92
-2.0314029e+92
-2.0109717e+92
-2.0078846e+92
-2.0155728e+92
-2.0195729e+92
-1.9985601e+92
-1.9851236e+92
-2.0023779e+92
-2.0048196e+92
-2.0134922e+92
-2.010356e+92
-1.9997832e+92
-2.0076682e+92
-2.009615e+92
-2.0069329e+92
-2.0137975e+92
-2.0107318e+92
-2.0039895e+92
-2.0076398e+92
-2.0053317e+92
-2.0232095e+92
-2.0542489e+92
-2.0583654e+92
-2.0550423e+92
-2.0512388e+92
-2.0444667e+92
-2.0403263e+92
-2.0495177e+92
-2.0463522e+92
-2.046921e+92
-2.0443321e+92
-2.0464856e+92
-2.0450461e+92
-2.0417164e+92
-2.0390755e+92
-2.0427077e+92
-2.0388491e+92
-2.0352487e+92
-2.0326904e+92
-2.0350995e+92
-2.0332711e+92
-2.0292814e+92
-2.0261559e+92
-2.0254962e+92
-2.0297985e+92
-2.0255531e+92
-2.023816e+92
-2.0263504e+92
-2.0240507e+92
-2.0285711e+92
-2.0274082e+92
-2.0285058e+92
-2.0279504e+92
-2.0223049e+92
-2.0214006e+92
-2.0224511e+92
-2.0219501e+92
-2.0203846e+92
-2.0197549e+92
-2.0178474e+92
-2.0178841e+92
-1.9080812e+92
-1.9327497e+92
-1.8939644e+92
-1.889269e+92
-1.8709629e+92
-1.8937934e+92
-1.8876592e+92
-1.8650466e+92
-1.9388528e+92
-1.8837387e+92
-1.8809235e+92
-1.909312e+92
-1.9126391e+92
-1.9434889e+92
-1.9782328e+92
-1.9749322e+92
-1.9414255e+92
-1.9013811e+92
-1.8745647e+92
-1.8769337e+92
-1.9052062e+92
-1.9637242e+92
-1.9695041e+92
-1.9358788e+92
-1.9311721e+92
-1.9121468e+92
-1.896309e+92
-1.897985e+92
-1.9104342e+92
-1.8791337e+92
-1.8809445e+92
-1.8678783e+92
-1.8660161e+92
-1.9082358e+92
-1.89224e+92
-1.8942084e+92
-1.9061974e+92
-1.8754173e+92
-1.8772655e+92
-1.992554e+92
-1.9753601e+92
-1.9736538e+92
-1.9941996e+92
-1.9318124e+92
-1.9520678e+92
-1.9337192e+92
-1.9501862e+92
-1.9709576e+92
-1.9895889e+92
-1.986467e+92
-1.9686422e+92
-1.9455488e+92
-1.9295914e+92
-1.9478905e+92
-1.9276402e+92
-2.0290542e+92
-2.0315808e+92
-2.0220037e+92
-2.0256398e+92
-2.0406783e+92
-2.0237693e+92
-2.0428803e+92
-2.0345025e+92
-2.0380613e+92
-2.0296873e+92
-2.0020264e+92
-1.9515672e+92
-1.9697248e+92
-1.9631143e+92
-1.9472547e+92
-2.0342369e+92
-2.0380373e+92
-1.9295273e+92
-1.9241524e+92
-1.9499734e+92
-1.9553348e+92
-2.0227651e+92
-2.0216657e+92
-2.0199251e+92
-2.017965e+92
-2.0286576e+92
-2.027691e+92
-2.0260215e+92
-2.0241497e+92
-1.9899371e+92
-2.0024818e+92
-2.0312291e+92
-2.0091524e+92
-1.9849514e+92
-2.0115495e+92
-2.0057728e+92
-1.9780366e+92
-1.9791486e+92
-1.9696428e+92
-1.9311545e+92
-2.0366392e+92
-2.0324988e+92
-2.0419816e+92
-2.0456009e+92
-2.0281398e+92
-2.0237291e+92
-2.0331337e+92
-2.0372513e+92
-2.0422241e+92
-2.0393939e+92
-2.0521369e+92
-2.0484394e+92
-2.0333951e+92
-2.0302069e+92
-2.0431103e+92
-2.0388066e+92
-2.0019747e+92
-2.0063333e+92
-2.0204457e+92
-2.0154791e+92
-1.9965283e+92
-2.0102263e+92
-2.0048858e+92
-1.9914044e+92
-2.0281352e+92
-2.0257776e+92
-2.0345426e+92
-2.0374574e+92
-2.0320388e+92
-2.0234655e+92
-2.0209073e+92
-2.0297265e+92
-2.0264322e+92
-2.0330002e+92
-2.0306614e+92
-2.0285242e+92
-2.0343392e+92
-2.0316035e+92
-2.0390299e+92
-2.0360595e+92
-2.0173776e+92
-2.0152684e+92
-2.0261548e+92
-2.0234082e+92
-2.0206284e+92
-2.0123795e+92
-2.0095464e+92
-2.0180936e+92
-2.0164537e+92
-2.0141762e+92
-2.0206755e+92
-2.0182899e+92
-2.0224808e+92
-2.0199194e+92
-2.0267694e+92
-2.0242372e+92
-1.993686e+92
-2.011999e+92
-2.0095496e+92
-1.9672785e+92
-1.9626368e+92
-1.9877696e+92
-2.0066204e+92
-2.0220312e+92
-2.0189502e+92
-2.0159884e+92
-2.0179271e+92
-2.0165771e+92
-2.0183631e+92
-2.0199018e+92
-2.016695e+92
-2.0135108e+92
-2.0148682e+92
-2.0155463e+92
-2.0256175e+92
-2.0246388e+92
-2.0226166e+92
-2.0211787e+92
-2.0195836e+92
-2.0227277e+92
-2.0180982e+92
-2.0208868e+92
-2.0116651e+92
-2.0104457e+92
-2.0134455e+92
-2.0121353e+92
-2.0164456e+92
-2.0195309e+92
-2.0150944e+92
-2.0184375e+92
-2.0134872e+92
-2.0166136e+92
-2.0629585e+92
-2.0600513e+92
-2.0641448e+92
-2.0645347e+92
-2.0618244e+92
-2.0608638e+92
-2.0658345e+92
-2.0664147e+92
-2.0671746e+92
-2.0668276e+92
-2.0533661e+92
-2.0502045e+92
-2.0525439e+92
-2.0486514e+92
-2.0588106e+92
-2.0574687e+92
-2.0565374e+92
-2.055927e+92
-2.0532087e+92
-2.0522694e+92
-2.0527443e+92
-2.0525643e+92
-2.0513097e+92
-2.0496726e+92
-2.0513582e+92
-2.0491135e+92
-2.0477037e+92
-2.0482973e+92
-2.0473465e+92
-2.0472121e+92
-2.0459508e+92
-2.0441075e+92
-2.0433758e+92
-2.0458873e+92
-2.0422302e+92
-2.0411429e+92
-2.0411709e+92
-2.041674e+92
-2.0397339e+92
-2.038057e+92
-2.0374562e+92
-2.039893e+92
-2.0363103e+92
-2.0351362e+92
-2.0350896e+92
-2.0357709e+92
-2.0331459e+92
-2.0307669e+92
-2.0304548e+92
-2.033281e+92
-2.0254481e+92
-2.0259411e+92
-2.0295009e+92
-2.029264e+92
-2.0249388e+92
-2.0234948e+92
-2.0269716e+92
-2.0284895e+92
-2.0324547e+92
-2.0295168e+92
-2.0287221e+92
-2.0324898e+92
-2.0268459e+92
-2.0279698e+92
-2.031901e+92
-2.0304645e+92
-2.0227493e+92
-2.022267e+92
-2.0262602e+92
-2.0263762e+92
-2.0258086e+92
-2.0218783e+92
-2.0208689e+92
-2.0244938e+92
-2.0197401e+92
-2.0201141e+92
-2.0234492e+92
-2.0233066e+92
-2.0177818e+92
-2.0188965e+92
-2.022262e+92
-2.0206736e+92
-1.9024328e+92
-1.8812844e+92
-1.8773793e+92
-1.9008498e+92
-1.9056302e+92
-1.9464494e+92
-1.9879415e+92
-1.9827768e+92
-1.9487661e+92
-1.9524332e+92
-1.8960884e+92
-1.923843e+92
-1.894987e+92
-1.9262599e+92
-1.8905021e+92
-1.9171835e+92
-1.8887735e+92
-1.9202536e+92
-1.8610087e+92
-1.8940969e+92
-1.8878476e+92
-1.854972e+92
-1.9578166e+92
-1.9919687e+92
-1.9948622e+92
-1.9556152e+92
-1.8808528e+92
-1.8824092e+92
-1.896057e+92
-1.8948187e+92
-1.8790477e+92
-1.8772984e+92
-1.8931479e+92
-1.8909892e+92
-1.9263398e+92
-1.9111967e+92
-1.9091457e+92
-1.9241748e+92
-1.9125252e+92
-1.9136372e+92
-1.9291705e+92
-1.9279128e+92
-1.9518074e+92
-1.9502421e+92
-1.969701e+92
-1.9711571e+92
-2.0163025e+92
-1.9942801e+92
-1.9956694e+92
-2.0148123e+92
-2.0124081e+92
-1.9894509e+92
-1.9923039e+92
-2.0087927e+92
-1.9679607e+92
-1.9464855e+92
-1.9485804e+92
-1.9653029e+92
-1.9003221e+92
-1.9023738e+92
-1.9166818e+92
-1.9144533e+92
-1.8830386e+92
-1.8851177e+92
-1.872143e+92
-1.8698917e+92
-1.8889022e+92
-1.8738602e+92
-1.8756573e+92
-1.8869253e+92
-1.9216406e+92
-1.9044074e+92
-1.9065119e+92
-1.9192523e+92
-1.978227e+92
-1.9812962e+92
-2.0006549e+92
-1.9969756e+92
-1.9844107e+92
-1.9868341e+92
-2.0061171e+92
-2.0038839e+92
-1.9627728e+92
-1.9439318e+92
-1.9414505e+92
-1.9602375e+92
-1.9573813e+92
-1.9385562e+92
-1.9362664e+92
-1.9545739e+92
-1.9134341e+92
-1.9204104e+92
-1.9125018e+92
-1.9194501e+92
-1.8948128e+92
-1.8939008e+92
-1.9008009e+92
-1.8997472e+92
-1.8968637e+92
-1.9028389e+92
-1.8958653e+92
-1.9018397e+92
-1.9113559e+92
-1.9183318e+92
-1.9103708e+92
-1.9171973e+92
-1.8777559e+92
-1.8835518e+92
-1.8768991e+92
-1.8825788e+92
-1.8797037e+92
-1.8855444e+92
-1.8787591e+92
-1.8845537e+92
-1.870177e+92
-1.8691239e+92
-1.8648284e+92
-1.8637541e+92
-1.8681335e+92
-1.8672287e+92
-1.8619302e+92
-1.8627247e+92
-1.909322e+92
-1.9083403e+92
-1.9161099e+92
-1.9151556e+92
-1.8908877e+92
-1.8967894e+92
-1.8958236e+92
-1.8929354e+92
-1.8987958e+92
-1.8918693e+92
-1.8977585e+92
-1.9072881e+92
-1.9063115e+92
-1.9141974e+92
-1.9132487e+92
-1.8740892e+92
-1.8797506e+92
-1.8760383e+92
-1.8817011e+92
-1.8750632e+92
-1.880666e+92
-2.0040203e+92
-2.0024628e+92
-2.0115407e+92
-2.0095037e+92
-1.9803986e+92
-1.981369e+92
-1.9924217e+92
-1.9915764e+92
-1.9791066e+92
-1.9778407e+92
-1.990346e+92
-1.9887169e+92
-2.0053607e+92
-2.0061481e+92
-2.0137356e+92
-2.0130568e+92
-1.9311402e+92
-1.9393636e+92
-1.9300865e+92
-1.9381078e+92
-1.9536756e+92
-1.954559e+92
-1.9653848e+92
-1.9645623e+92
-1.9333253e+92
-1.9414672e+92
-1.9323298e+92
-1.9405389e+92
-1.9524182e+92
-1.9512579e+92
-1.9633124e+92
-1.9619385e+92
-1.9765283e+92
-1.9754244e+92
-1.9873945e+92
-1.9863836e+92
-2.0009574e+92
-1.9999289e+92
-2.0081133e+92
-2.007241e+92
-1.9984316e+92
-1.9968444e+92
-2.0056681e+92
-2.0036116e+92
-1.9741343e+92
-1.9729231e+92
-1.9850837e+92
-1.9835365e+92
-1.9479843e+92
-1.9468924e+92
-1.9585974e+92
-1.9573225e+92
-1.9289564e+92
-1.9370043e+92
-1.9279782e+92
-1.9360803e+92
-1.9500438e+92
-1.9491228e+92
-1.9607232e+92
-1.9597779e+92
-1.9269397e+92
-1.9350568e+92
-1.9260157e+92
-1.9339655e+92
-2.0390211e+92
-2.0368332e+92
-2.0414858e+92
-2.0404993e+92
-2.0324311e+92
-2.030213e+92
-2.0353209e+92
-2.0341559e+92
-2.050551e+92
-2.0486168e+92
-2.0473297e+92
-2.0443931e+92
-2.0526089e+92
-2.0519558e+92
-2.0449227e+92
-2.0428822e+92
-2.0473178e+92
-2.0462924e+92
-2.0521405e+92
-2.0502367e+92
-2.0418291e+92
-1.9434453e+92
-1.9716036e+92
-1.9651374e+92
-1.9388991e+92
-2.0578916e+92
-2.0547202e+92
-2.0601162e+92
-2.0615774e+92
-1.9286116e+92
-1.9237835e+92
-1.9517291e+92
-1.9562357e+92
-2.0268994e+92
-2.0267938e+92
-2.0248426e+92
-2.0259484e+92
-2.0235815e+92
-2.0239247e+92
-2.0226463e+92
-2.0214183e+92
-2.0329534e+92
-2.0327207e+92
-2.0320115e+92
-2.0308082e+92
-2.0300186e+92
-2.0296378e+92
-2.0287776e+92
-2.0274683e+92
-1.991368e+92
-2.0045459e+92
-2.0346896e+92
-2.0128856e+92
-1.9850859e+92
-2.0117429e+92
-2.0058416e+92
-1.9781146e+92
-1.9896365e+92
-1.9979409e+92
-1.9492102e+92
-1.9401063e+92
-1.9476764e+92
-1.9512338e+92
-2.0498337e+92
-2.023944e+92
-2.0195681e+92
-2.0346581e+92
-2.0385188e+92
-2.0163114e+92
-2.0118016e+92
-2.0260672e+92
-2.0308201e+92
-2.0475066e+92
-2.0468774e+92
-2.056616e+92
-2.0548382e+92
-2.0456191e+92
-2.0438698e+92
-2.0419306e+92
-2.0530526e+92
-2.0514247e+92
-2.0524648e+92
-2.05723e+92
-2.0591449e+92
-2.0539209e+92
-2.0576294e+92
-2.0488688e+92
-2.0502232e+92
-2.0555036e+92
-2.0537121e+92
-2.0388673e+92
-2.0373091e+92
-2.0461215e+92
-2.0484215e+92
-2.0345083e+92
-2.0318263e+92
-2.0410321e+92
-2.0434876e+92
-2.0456079e+92
-2.0506862e+92
-2.0435623e+92
-2.0485887e+92
-2.0401585e+92
-2.0378703e+92
-2.0425854e+92
-2.0451769e+92
-1.9829397e+92
-1.9870154e+92
-2.0138011e+92
-2.0341597e+92
-2.0318765e+92
-2.0089431e+92
-2.0294522e+92
-2.0266008e+92
-1.977472e+92
-2.0039106e+92
-2.0237741e+92
-2.0215481e+92
-1.9990806e+92
-2.0185841e+92
-2.0155132e+92
-1.97275e+92
-2.0423562e+92
-2.04503e+92
-2.0397922e+92
-2.0371859e+92
-2.0336019e+92
-2.0323822e+92
-2.034939e+92
-2.0359566e+92
-2.0411524e+92
-2.0398248e+92
-2.0448286e+92
-2.0437301e+92
-2.0384602e+92
-2.0422295e+92
-2.036993e+92
-2.0402805e+92
-2.0351305e+92
-2.0361541e+92
-2.0385341e+92
-2.0373742e+92
-2.0416441e+92
-2.0405149e+92
-2.0442536e+92
-2.0428684e+92
-2.039041e+92
-2.0378135e+92
-2.0414005e+92
-2.040413e+92
-2.0470297e+92
-2.0455915e+92
-2.0501978e+92
-2.0491854e+92
-2.0442751e+92
-2.042812e+92
-2.047982e+92
-2.0462224e+92
-2.0341756e+92
-2.0314467e+92
-2.0286306e+92
-2.0256216e+92
-2.0267453e+92
-2.0246818e+92
-2.0234909e+92
-2.0254498e+92
-2.0237202e+92
-2.0203376e+92
-2.0217101e+92
-2.0225547e+92
-2.0292974e+92
-2.0279901e+92
-2.0319046e+92
-2.0329316e+92
-2.0246595e+92
-2.0296757e+92
-2.0275131e+92
-2.0262329e+92
-2.0303993e+92
-2.0327636e+92
-2.0313952e+92
-2.0293038e+92
-2.0278398e+92
-2.0266e+92
-2.0299257e+92
-2.0289192e+92
-2.0351213e+92
-2.0337802e+92
-2.0386131e+92
-2.0376186e+92
-2.0323903e+92
-2.0310404e+92
-2.0360931e+92
-2.0345228e+92
-2.00754e+92
-2.0099281e+92
-1.9783655e+92
-2.0119999e+92
-2.0097825e+92
-2.0047539e+92
-1.9736298e+92
-2.0071118e+92
-2.0254051e+92
-2.0260138e+92
-2.0317941e+92
-2.0332563e+92
-2.0256664e+92
-2.0272203e+92
-2.0215679e+92
-2.023614e+92
-2.0301303e+92
-2.0285428e+92
-2.0240867e+92
-2.022508e+92
-2.0194577e+92
-2.0200141e+92
-2.0268616e+92
-2.0255879e+92
-2.020857e+92
-2.0193901e+92
-2.0248553e+92
-2.0262366e+92
-2.0238263e+92
-2.0254284e+92
-2.025638e+92
-2.0261764e+92
-2.0278258e+92
-2.0270288e+92
-2.0229147e+92
-2.0224329e+92
-2.023841e+92
-2.0245665e+92
-2.0230049e+92
-2.0216137e+92
-2.0206686e+92
-2.0222632e+92
-2.0200377e+92
-2.0234337e+92
-2.0224533e+92
-2.0190962e+92
-2.0183852e+92
-2.0216538e+92
-2.0206376e+92
-2.0174225e+92
-2.0250937e+92
-2.0258686e+92
-2.0240298e+92
-2.0248821e+92
-2.0235883e+92
-2.0242921e+92
-2.0224369e+92
-2.0231691e+92
-2.0227512e+92
-2.0219717e+92
-2.0215573e+92
-2.0210008e+92
-2.0164714e+92
-2.0198533e+92
-2.0194463e+92
-2.015961e+92
-2.0200184e+92
-2.0209445e+92
-2.0203162e+92
-2.0192683e+92
-2.0186821e+92
-2.0175271e+92
-2.0141629e+92
-2.0153161e+92
-2.0191711e+92
-2.0196426e+92
-2.0212687e+92
-2.0205639e+92
-2.0175386e+92
-2.0184657e+92
-2.0198477e+92
-2.0191169e+92
-2.018819e+92
-2.0195052e+92
-2.018293e+92
-2.0176455e+92
-2.0133317e+92
-2.0166076e+92
-2.0159554e+92
-2.0127406e+92
-2.0174031e+92
-2.0180379e+92
-2.0168887e+92
-2.0161168e+92
-2.0142874e+92
-2.0153078e+92
-2.0122749e+92
-2.0114671e+92
-2.0157959e+92
-2.0165537e+92
-2.0152238e+92
-2.014785e+92
-2.01073e+92
-2.0135758e+92
-2.0133522e+92
-2.0104663e+92
-2.0693368e+92
-2.0710201e+92
-2.0714701e+92
-2.0687632e+92
-2.0692835e+92
-2.069595e+92
-2.0689895e+92
-2.0690229e+92
-2.0677557e+92
-2.0661238e+92
-2.0654975e+92
-2.0678181e+92
-2.0715944e+92
-2.070525e+92
-2.0721494e+92
-2.0703024e+92
-2.0722603e+92
-2.0721761e+92
-2.072359e+92
-2.0729139e+92
-2.0594747e+92
-2.0586287e+92
-2.0586633e+92
-2.0581419e+92
-2.0567365e+92
-2.0546737e+92
-2.0564741e+92
-2.0538609e+92
-2.0647147e+92
-2.0637995e+92
-2.0639914e+92
-2.06357e+92
-2.0625969e+92
-2.0622656e+92
-2.0610395e+92
-2.0600792e+92
-2.0532914e+92
-2.053859e+92
-2.0565772e+92
-2.0567898e+92
-2.051867e+92
-2.0530687e+92
-2.0563327e+92
-2.0550711e+92
-2.0513266e+92
-2.0516731e+92
-2.0545456e+92
-2.0545684e+92
-2.0493835e+92
-2.0508552e+92
-2.0537998e+92
-2.0522925e+92
-2.0485266e+92
-2.049092e+92
-2.051816e+92
-2.051862e+92
-2.047161e+92
-2.0482552e+92
-2.0512318e+92
-2.0498851e+92
-2.0458955e+92
-2.0463174e+92
-2.049067e+92
-2.049014e+92
-2.0438866e+92
-2.0454163e+92
-2.0480534e+92
-2.0464083e+92
-2.0422371e+92
-2.0431951e+92
-2.0458418e+92
-2.0459132e+92
-2.040863e+92
-2.0419769e+92
-2.0453599e+92
-2.0439534e+92
-2.0394925e+92
-2.0403298e+92
-2.0432555e+92
-2.043055e+92
-2.0375061e+92
-2.0389326e+92
-2.0420553e+92
-2.0404509e+92
-2.0358498e+92
-2.0368374e+92
-2.03976e+92
-2.039716e+92
-2.0341888e+92
-2.0351798e+92
-2.0389398e+92
-2.0374954e+92
-2.0334791e+92
-2.0364849e+92
-2.0328782e+92
-2.0361896e+92
-2.0318413e+92
-2.0304979e+92
-2.0350037e+92
-2.0332332e+92
-2.0301455e+92
-2.0306784e+92
-2.0292781e+92
-2.0280871e+92
-2.0336858e+92
-2.0331536e+92
-2.0314812e+92
-2.0324464e+92
-2.0274705e+92
-2.0271029e+92
-2.0263626e+92
-2.0254643e+92
-2.0240761e+92
-2.0246304e+92
-2.0222041e+92
-2.0232128e+92
-1.9000076e+92
-1.9299809e+92
-1.8702551e+92
-1.8662605e+92
-1.9006238e+92
-1.90505e+92
-1.9616738e+92
-1.9985853e+92
-2.0027459e+92
-2.0042924e+92
-2.0247643e+92
-2.0233421e+92
-1.9978756e+92
-2.0002241e+92
-2.0177865e+92
-2.020691e+92
-1.9754504e+92
-1.9559493e+92
-1.9732452e+92
-1.9540093e+92
-1.9793989e+92
-1.9579913e+92
-1.9599487e+92
-1.9775839e+92
-1.8941689e+92
-1.9085647e+92
-1.8932693e+92
-1.9072641e+92
-1.9223292e+92
-1.9239866e+92
-1.9395456e+92
-1.937887e+92
-1.9041533e+92
-1.9059199e+92
-1.8920445e+92
-1.8901267e+92
-1.9254576e+92
-1.9266605e+92
-1.9427489e+92
-1.9413356e+92
-1.8873105e+92
-1.8887016e+92
-1.9025318e+92
-1.9011206e+92
-1.9159437e+92
-1.9175751e+92
-1.9311037e+92
-1.9328876e+92
-1.8859178e+92
-1.897941e+92
-1.8996971e+92
-1.8840884e+92
-1.9364544e+92
-1.9191733e+92
-1.9348462e+92
-1.9205215e+92
-1.777829e+92
-1.7804352e+92
-1.8117825e+92
-1.81671e+92
-1.8607858e+92
-1.893547e+92
-1.8873907e+92
-1.8550943e+92
-1.9847476e+92
-1.966009e+92
-1.9644953e+92
-1.9861795e+92
-2.0061953e+92
-2.0084532e+92
-2.0302099e+92
-2.0270258e+92
-2.0117192e+92
-2.0105064e+92
-2.03361e+92
-2.0324737e+92
-1.9610758e+92
-1.9626339e+92
-1.9830261e+92
-1.9809576e+92
-1.8831986e+92
-1.8826118e+92
-1.8771318e+92
-1.8776288e+92
-1.8847194e+92
-1.8838788e+92
-1.8783928e+92
-1.8791915e+92
-1.8947469e+92
-1.9010633e+92
-1.8940324e+92
-1.9002966e+92
-1.8932871e+92
-1.8995733e+92
-1.8927649e+92
-1.8989816e+92
-1.8820502e+92
-1.8810791e+92
-1.8754759e+92
-1.8765386e+92
-1.8801439e+92
-1.8792211e+92
-1.8737884e+92
-1.874566e+92
-1.892144e+92
-1.8984799e+92
-1.891394e+92
-1.8976472e+92
-1.890407e+92
-1.8966918e+92
-1.8894466e+92
-1.8956453e+92
-1.9272573e+92
-1.9347576e+92
-1.9263989e+92
-1.9338774e+92
-1.9099109e+92
-1.9090378e+92
-1.9153944e+92
-1.9162727e+92
-1.9080502e+92
-1.9071061e+92
-1.9144345e+92
-1.9133704e+92
-1.9253442e+92
-1.9243117e+92
-1.9328765e+92
-1.9317862e+92
-1.91121e+92
-1.9177422e+92
-1.9169531e+92
-1.9105753e+92
-1.9127502e+92
-1.9192694e+92
-1.9119489e+92
-1.9184972e+92
-1.9304065e+92
-1.9381091e+92
-1.9373706e+92
-1.9297178e+92
-1.9288528e+92
-1.9364444e+92
-1.928085e+92
-1.9355761e+92
-1.9514708e+92
-1.9601036e+92
-1.9506982e+92
-1.9594373e+92
-1.9497272e+92
-1.9584794e+92
-1.9488744e+92
-1.9574343e+92
-1.9720453e+92
-1.9836485e+92
-1.9710762e+92
-1.982467e+92
-1.9736504e+92
-1.9851861e+92
-1.973035e+92
-1.9846739e+92
-2.0280594e+92
-2.0364974e+92
-2.027609e+92
-2.0362059e+92
-2.0000133e+92
-2.0119616e+92
-1.998922e+92
-2.0104091e+92
-2.0016609e+92
-2.0134594e+92
-2.0010319e+92
-2.0130297e+92
-2.0263273e+92
-2.0348451e+92
-2.024859e+92
-2.0328585e+92
-2.0235791e+92
-2.0315249e+92
-2.0226557e+92
-2.0307607e+92
-1.9954849e+92
-1.9941904e+92
-2.0071025e+92
-2.0054671e+92
-1.9978971e+92
-2.0093231e+92
-1.9968717e+92
-2.0084705e+92
-2.0211462e+92
-2.0294291e+92
-2.0195108e+92
-2.0273286e+92
-1.9700882e+92
-1.9814758e+92
-1.9692081e+92
-1.9805921e+92
-1.9460052e+92
-1.9546185e+92
-1.9449953e+92
-1.9534305e+92
-1.9479946e+92
-1.9565641e+92
-1.9470811e+92
-1.9557005e+92
-1.9679838e+92
-1.9668214e+92
-1.979356e+92
-1.9779781e+92
-1.8989347e+92
-1.8980207e+92
-1.9049698e+92
-1.903987e+92
-1.9011532e+92
-1.9071848e+92
-1.9000336e+92
-1.9060383e+92
-1.9179674e+92
-1.9250709e+92
-1.9168685e+92
-1.9238997e+92
-1.9156902e+92
-1.922731e+92
-1.9146698e+92
-1.92165e+92
-1.8818042e+92
-1.8875493e+92
-1.8808694e+92
-1.8866397e+92
-1.883893e+92
-1.8896751e+92
-1.8828665e+92
-1.888562e+92
-1.8742505e+92
-1.8731191e+92
-1.8688699e+92
-1.8677858e+92
-1.8720804e+92
-1.8711841e+92
-1.8657961e+92
-1.8667311e+92
-1.8881369e+92
-1.8942123e+92
-1.8869889e+92
-1.892978e+92
-1.876127e+92
-1.8752029e+92
-1.8698618e+92
-1.8707393e+92
-1.8781944e+92
-1.8770849e+92
-1.8717561e+92
-1.8728759e+92
-1.8858151e+92
-1.8918607e+92
-1.8848729e+92
-1.8907352e+92
-1.9230049e+92
-1.9304574e+92
-1.9218586e+92
-1.9292269e+92
-1.9033728e+92
-1.9096631e+92
-1.9022827e+92
-1.9083861e+92
-1.9057544e+92
-1.9120615e+92
-1.9045549e+92
-1.9108647e+92
-1.9205524e+92
-1.927881e+92
-1.9193144e+92
-1.926493e+92
-1.9842579e+92
-1.9828434e+92
-1.9957115e+92
-1.9939595e+92
-1.9871559e+92
-1.9858939e+92
-1.9983223e+92
-1.9972569e+92
-2.0123037e+92
-2.0200614e+92
-2.0112602e+92
-2.0191642e+92
-2.0095778e+92
-2.0175408e+92
-2.0078105e+92
-2.0152411e+92
-1.9902012e+92
-1.9887259e+92
-2.001694e+92
-1.9999013e+92
-1.9927948e+92
-2.0040162e+92
-1.9916586e+92
-2.0030961e+92
-2.0179582e+92
-2.0259561e+92
-2.0171121e+92
-2.0252692e+92
-2.01562e+92
-2.0139405e+92
-2.0237972e+92
-2.0215885e+92
-1.9654271e+92
-1.9765843e+92
-1.9643495e+92
-1.9755603e+92
-1.9436649e+92
-1.9424438e+92
-1.9520898e+92
-1.950945e+92
-1.9410335e+92
-1.9397404e+92
-1.9495312e+92
-1.9480536e+92
-1.9628578e+92
-1.9614742e+92
-1.9741147e+92
-1.9725226e+92
-1.9599869e+92
-1.9588166e+92
-1.9709725e+92
-1.9698086e+92
-1.9382776e+92
-1.9370682e+92
-1.9466076e+92
-1.9453892e+92
-1.9346674e+92
-1.9357455e+92
-1.9440724e+92
-1.9428038e+92
-1.9573121e+92
-1.9560284e+92
-1.9683281e+92
-1.9668238e+92
-1.9143248e+92
-1.911623e+92
-1.9148687e+92
-1.9111402e+92
-1.9205776e+92
-1.9240303e+92
-1.9235345e+92
-1.9200828e+92
-1.9100537e+92
-1.9132369e+92
-1.9105581e+92
-1.9137833e+92
-1.9194981e+92
-1.9229612e+92
-1.9189656e+92
-1.9223627e+92
-1.8930429e+92
-1.8955652e+92
-1.8950473e+92
-1.8925523e+92
-1.8915916e+92
-1.8920492e+92
-1.8946044e+92
-1.8941249e+92
-1.90308e+92
-1.9009401e+92
-1.9035936e+92
-1.9004775e+92
-1.8994656e+92
-1.9020958e+92
-1.8999405e+92
-1.9025987e+92
-1.8971176e+92
-1.8950853e+92
-1.8976577e+92
-1.8945943e+92
-1.9030124e+92
-1.9057014e+92
-1.9052045e+92
-1.9025322e+92
-1.8960654e+92
-1.8940376e+92
-1.8965863e+92
-1.8935687e+92
-1.9019594e+92
-1.904637e+92
-1.9014696e+92
-1.9041168e+92
-1.9095186e+92
-1.9127331e+92
-1.912207e+92
-1.9089988e+92
-1.9218452e+92
-1.9179302e+92
-1.9184335e+92
-1.9213221e+92
-1.9084781e+92
-1.9080025e+92
-1.9117207e+92
-1.9111898e+92
-1.9207916e+92
-1.9168506e+92
-1.9202191e+92
-1.9173718e+92
-1.8780323e+92
-1.8775208e+92
-1.8795989e+92
-1.8790927e+92
-1.8844803e+92
-1.8870839e+92
-1.8865685e+92
-1.8849626e+92
-1.8770197e+92
-1.8765113e+92
-1.878188e+92
-1.8786719e+92
-1.8839604e+92
-1.8834942e+92
-1.8861084e+92
-1.8856392e+92
-1.8810813e+92
-1.8799487e+92
-1.8815912e+92
-1.8794842e+92
-1.8869514e+92
-1.8891257e+92
-1.8886095e+92
-1.8864923e+92
-1.8800305e+92
-1.8789615e+92
-1.8805811e+92
-1.8784652e+92
-1.8859325e+92
-1.8880813e+92
-1.8854346e+92
-1.8875981e+92
-1.8737801e+92
-1.8734616e+92
-1.8746023e+92
-1.8741397e+92
-1.8736388e+92
-1.8730674e+92
-1.8729747e+92
-1.8723857e+92
-1.8640546e+92
-1.8630542e+92
-1.8719911e+92
-1.8715175e+92
-1.8726843e+92
-1.8721686e+92
-1.8716953e+92
-1.871108e+92
-1.8709674e+92
-1.8702605e+92
-1.8611208e+92
-1.8621001e+92
-1.9075184e+92
-1.9107201e+92
-1.9101769e+92
-1.9070215e+92
-1.9060178e+92
-1.9064726e+92
-1.9096691e+92
-1.9091791e+92
-1.9192637e+92
-1.9163421e+92
-1.9197476e+92
-1.9158447e+92
-1.9148337e+92
-1.9182052e+92
-1.9153075e+92
-1.9187399e+92
-1.8891575e+92
-1.8916617e+92
-1.8911617e+92
-1.8887009e+92
-1.8991243e+92
-1.8969696e+92
-1.8996048e+92
-1.8965318e+92
-1.8955508e+92
-1.8981672e+92
-1.8959777e+92
-1.8986095e+92
-1.8931579e+92
-1.8911364e+92
-1.8937166e+92
-1.8906183e+92
-1.8989845e+92
-1.9016647e+92
-1.9011577e+92
-1.8984821e+92
-1.8921934e+92
-1.8901011e+92
-1.8926577e+92
-1.8896919e+92
-1.8979512e+92
-1.9006263e+92
-1.8975124e+92
-1.9001558e+92
-1.9054637e+92
-1.9086508e+92
-1.9081722e+92
-1.904983e+92
-1.9044423e+92
-1.9076798e+92
-1.904024e+92
-1.9072248e+92
-1.9172233e+92
-1.9143051e+92
-1.9176882e+92
-1.9138574e+92
-1.9128466e+92
-1.9133121e+92
-1.9167212e+92
-1.9162167e+92
-1.8742759e+92
-1.873818e+92
-1.8758934e+92
-1.8754025e+92
-1.8807133e+92
-1.8832844e+92
-1.8827989e+92
-1.8811712e+92
-1.8772882e+92
-1.8760912e+92
-1.8778351e+92
-1.8755865e+92
-1.8830568e+92
-1.8852638e+92
-1.8847231e+92
-1.8825567e+92
-1.8763611e+92
-1.8751332e+92
-1.8768282e+92
-1.8747154e+92
-1.8820423e+92
-1.8842307e+92
-1.8816188e+92
-1.8838114e+92
-2.0139845e+92
-2.0089853e+92
-2.0144319e+92
-2.0084432e+92
-2.0076837e+92
-2.0132153e+92
-2.0121431e+92
-2.0068302e+92
-2.0202871e+92
-2.0222519e+92
-2.0197968e+92
-2.0218632e+92
-2.0210783e+92
-2.0197878e+92
-2.0189269e+92
-2.0179229e+92
-1.9864164e+92
-1.9803992e+92
-1.9872035e+92
-1.9797801e+92
-1.9810512e+92
-1.9815523e+92
-1.9882532e+92
-1.9878444e+92
-1.9957337e+92
-1.9961348e+92
-2.0028588e+92
-2.0025441e+92
-2.0019156e+92
-2.0010328e+92
-1.9950681e+92
-1.9943157e+92
-1.9853615e+92
-1.979151e+92
-1.9858306e+92
-1.9786223e+92
-1.9779673e+92
-1.984714e+92
-1.9838889e+92
-1.977317e+92
-1.9937346e+92
-2.0004775e+92
-1.9932469e+92
-1.9999937e+92
-1.9992835e+92
-1.9983254e+92
-1.9925211e+92
-1.9917107e+92
-2.0150627e+92
-2.0103566e+92
-2.016098e+92
-2.0095533e+92
-2.0109844e+92
-2.0114111e+92
-2.017023e+92
-2.0167232e+92
-2.0252388e+92
-2.0227037e+92
-2.0230963e+92
-2.0249393e+92
-2.0241519e+92
-2.022971e+92
-2.0219474e+92
-2.0210209e+92
-1.9317562e+92
-1.9284598e+92
-1.9322993e+92
-1.9279396e+92
-1.9384726e+92
-1.9427328e+92
-1.9422012e+92
-1.937959e+92
-1.9306507e+92
-1.9273729e+92
-1.931227e+92
-1.9268441e+92
-1.9373595e+92
-1.9416316e+92
-1.9410256e+92
-1.9368146e+92
-1.9508957e+92
-1.9568784e+92
-1.9514757e+92
-1.9575107e+92
-1.9520906e+92
-1.9526011e+92
-1.9586059e+92
-1.9580947e+92
-1.9657572e+92
-1.9662081e+92
-1.9726378e+92
-1.972217e+92
-1.9715886e+92
-1.9709428e+92
-1.9651389e+92
-1.9645725e+92
-1.9301642e+92
-1.9306728e+92
-1.9345473e+92
-1.9340204e+92
-1.9402198e+92
-1.9407078e+92
-1.9450006e+92
-1.9444962e+92
-1.9328348e+92
-1.9295638e+92
-1.9334327e+92
-1.9290057e+92
-1.9438877e+92
-1.9395943e+92
-1.9390351e+92
-1.9432777e+92
-1.9557723e+92
-1.9503187e+92
-1.9563055e+92
-1.9497847e+92
-1.9491801e+92
-1.9552013e+92
-1.954568e+92
-1.9486294e+92
-1.963956e+92
-1.9703255e+92
-1.9634596e+92
-1.9698535e+92
-1.9692123e+92
-1.9685117e+92
-1.9628206e+92
-1.9622096e+92
-1.9766836e+92
-1.9832719e+92
-1.9828263e+92
-1.9762152e+92
-1.9755084e+92
-1.9821743e+92
-1.9813983e+92
-1.9748934e+92
-1.991044e+92
-1.9976828e+92
-1.9972729e+92
-1.990568e+92
-1.989924e+92
-1.9966475e+92
-1.9957407e+92
-1.9891634e+92
-2.0060834e+92
-2.0113981e+92
-2.0110632e+92
-2.0055779e+92
-2.0049257e+92
-2.0104146e+92
-2.0094234e+92
-2.0041152e+92
-2.0171904e+92
-2.0191846e+92
-2.0189782e+92
-2.016854e+92
-2.0160878e+92
-2.0181889e+92
-2.0170739e+92
-2.0152082e+92
-2.0034057e+92
-2.0086861e+92
-2.0083343e+92
-2.0029439e+92
-2.0012678e+92
-2.0021142e+92
-2.0075345e+92
-2.0064841e+92
-2.0144347e+92
-2.0163362e+92
-2.0159848e+92
-2.0139836e+92
-2.012211e+92
-2.0131666e+92
-2.0152461e+92
-2.0140327e+92
-1.9741973e+92
-1.9807211e+92
-1.9802932e+92
-1.9737234e+92
-1.9724191e+92
-1.9730536e+92
-1.9796623e+92
-1.9788954e+92
-1.9885034e+92
-1.9950762e+92
-1.9946537e+92
-1.9880477e+92
-1.986593e+92
-1.9873496e+92
-1.9939409e+92
-1.993021e+92
-1.9458752e+92
-1.9517664e+92
-1.9512803e+92
-1.945395e+92
-1.9442509e+92
-1.9447913e+92
-1.9507059e+92
-1.9501026e+92
-1.9593224e+92
-1.9655229e+92
-1.9651088e+92
-1.9588844e+92
-1.9576095e+92
-1.958209e+92
-1.964471e+92
-1.9637908e+92
-1.92634e+92
-1.9258387e+92
-1.9301636e+92
-1.9296548e+92
-1.9362843e+92
-1.9358051e+92
-1.9405175e+92
-1.9400354e+92
-1.9252874e+92
-1.9291131e+92
-1.9285805e+92
-1.9247914e+92
-1.9394673e+92
-1.9389132e+92
-1.9352252e+92
-1.9347241e+92
-1.9480867e+92
-1.954031e+92
-1.953531e+92
-1.9475851e+92
-1.9469868e+92
-1.9529523e+92
-1.9523622e+92
-1.9464707e+92
-1.9616323e+92
-1.9679382e+92
-1.9675295e+92
-1.9611773e+92
-1.9605456e+92
-1.9668659e+92
-1.9662033e+92
-1.9599765e+92
-1.9242495e+92
-1.9280431e+92
-1.9237866e+92
-1.9275734e+92
-1.9337099e+92
-1.9341647e+92
-1.9383612e+92
-1.93789e+92
-1.9227589e+92
-1.926542e+92
-1.9232396e+92
-1.9270657e+92
-1.9373429e+92
-1.9331356e+92
-1.9326193e+92
-1.9367787e+92
-2.0435179e+92
-2.0430826e+92
-2.0420177e+92
-2.0406465e+92
-2.0461551e+92
-2.0459903e+92
-2.0453213e+92
-2.0441043e+92
-2.036742e+92
-2.0362443e+92
-2.0351411e+92
-2.0336438e+92
-2.039949e+92
-2.0396766e+92
-2.0388357e+92
-2.0376056e+92
-2.0546274e+92
-2.0548853e+92
-2.0537401e+92
-2.0525232e+92
-2.0575854e+92
-2.0565129e+92
-2.0552329e+92
-2.0533931e+92
-2.0567795e+92
-2.0568331e+92
-2.0563137e+92
-2.055331e+92
-2.0493195e+92
-2.0490594e+92
-2.0467213e+92
-2.048045e+92
-2.0520266e+92
-2.0518053e+92
-2.0511024e+92
-2.0500145e+92
-2.0618317e+92
-2.0626255e+92
-2.0604947e+92
-2.0587659e+92
-2.0634235e+92
-2.065628e+92
-1.9429933e+92
-1.9722711e+92
-1.9661602e+92
-1.938932e+92
-2.0678855e+92
-2.0670169e+92
-2.0657006e+92
-2.0638606e+92
-2.0702858e+92
-2.0687632e+92
-2.0714109e+92
-2.0712561e+92
-1.9285773e+92
-1.9237424e+92
-1.9517809e+92
-1.9563541e+92
-1.9914959e+92
-2.0047329e+92
-2.0349088e+92
-2.0130877e+92
-1.9569392e+92
-1.9646597e+92
-1.8996738e+92
-1.9654839e+92
-1.9689442e+92
-1.8931324e+92
-1.9591576e+92
-1.9563881e+92
-2.0416996e+92
-2.0032696e+92
-2.0000016e+92
-2.0258494e+92
-2.0488494e+92
-2.04654e+92
-2.0300021e+92
-2.0506549e+92
-2.0519832e+92
-1.996216e+92
-1.9914058e+92
-2.0180028e+92
-2.0400374e+92
-2.037206e+92
-2.022572e+92
-2.0440912e+92
-2.0426454e+92
-2.0505526e+92
-2.0492168e+92
-2.0589452e+92
-2.0600582e+92
-2.0634165e+92
-2.0617214e+92
-2.0599423e+92
-2.0579386e+92
-2.0582018e+92
-2.0589675e+92
-2.0616361e+92
-2.0611871e+92
-2.0570278e+92
-2.0562345e+92
-2.0628676e+92
-2.0615657e+92
-2.0660348e+92
-2.0689421e+92
-2.0653854e+92
-2.0687543e+92
-2.0598836e+92
-2.0604361e+92
-2.0631771e+92
-2.0624645e+92