/*--------------------------------*- C++ -*----------------------------------*\
  =========                 |
  \\      /  F ield         | OpenFOAM: The Open Source CFD Toolbox
   \\    /   O peration     | Website:  https://openfoam.org
    \\  /    A nd           | Version:  7
     \\/     M anipulation  |
\*---------------------------------------------------------------------------*/
FoamFile
{
    version     2.0;
    format      ascii;
    class       volScalarField;
    location    "9000";
    object      omega;
}
// * * * * * * * * * * * * * * * * * * * * * * * * * * * * * * * * * * * * * //

dimensions      [0 0 -1 0 0 0 0];

internalField   nonuniform List<scalar> 
33730
(
2279.5468
484.93458
4573.9523
4084.1264
813.44485
4121.0131
2326.3764
843.26287
447.08526
867.77171
874.18188
486.44122
1274.1753
1268.9795
9380.7712
9387.2554
4529.1351
7608.1394
1874.1224
7768.3827
1831.516
7641.4631
7712.904
1895.6999
4110.9756
1865.1421
4231.2666
824.59482
853.11967
2376.4451
447.69449
774.72966
718.45779
406.9626
423.71227
422.49992
405.77018
782.3128
718.0514
2083.3773
2109.4592
2083.8842
2081.1343
868.33555
891.98154
2017.3548
700.32324
700.78696
2052.957
1261.0213
2037.8202
704.05806
695.21813
2013.2557
9339.8125
4604.667
18631.208
4555.2565
18663.057
4615.5864
18678.16
4553.834
18671.324
4441.0833
1257.8932
9341.8009
13357.682
13040.118
4363.5304
4287.1541
13323.449
4450.0183
13580.425
4432.9906
12841.732
7493.3982
4318.2713
13384.981
4364.0926
13529.292
13122.689
4427.9078
4321.164
1828.2748
7835.9764
1898.8765
7973.4099
7846.2555
4194.4556
1960.0453
1948.6018
837.33784
4305.7552
866.14076
714.38834
797.66661
729.67201
405.85622
422.39644
423.15522
405.8449
772.26916
1895.663
1923.4574
1911.5048
1926.1946
1454.142
1447.5964
1591.4574
1602.3132
609.74861
606.15122
1896.7123
1898.3368
1902.7002
1889.1856
1611.7665
1454.1893
1456.5303
1599.4475
4139.7455
3993.695
3401.1179
3120.0885
1230.5678
5049.828
4604.0277
4699.1753
4921.1995
4984.4761
5048.4784
5072.9778
4841.8962
2052.1916
4949.6469
4917.2401
5018.7509
2115.9804
2174.789
2157.7713
878.5302
576.66737
575.67344
2197.7123
720.48206
722.92778
2237.6334
2006.0426
698.53494
696.33218
2018.4519
2221.8215
723.39153
716.19349
2193.7031
4534.9486
4559.1064
18672.519
18525.482
3560.5813
3627.0935
6800.7514
6744.138
12909.149
12913.89
32878.004
32339.931
3532.7151
3569.2878
6674.4019
6724.8763
12884.749
12773.235
32955.033
32642.875
3630.5786
3601.967
6765.2016
6803.1578
12805.031
12879.931
32946.346
32557.463
3544.5529
3550.9532
6721.8613
6665.983
12953.084
12894.469
32863.499
32600.564
1216.7585
1239.0613
9252.9556
9261.5016
1998.8176
697.35438
694.81932
2016.0845
4524.5999
4560.5191
18536.055
18677.114
21864.03
8224.2357
22081.561
8149.4135
21615.658
21152.023
8012.9974
8049.8267
21497.818
22054.109
8238.7348
8215.9393
22400.135
8358.8398
22332.702
8369.9756
12744.731
20425.948
21117.667
7855.238
7860.3267
13077.049
4295.4119
4209.0229
21792.457
8137.94
22098.788
8222.3596
22198.481
22290.663
8223.4781
8356.5517
21729.452
21224.122
7994.2698
8071.2328
13427.775
13602.055
4501.8943
4465.1834
13774.322
13685.643
4618.0378
4584.7789
7687.0539
4527.1628
13663.515
13198.653
4507.2157
1937.1388
7920.2473
1886.3564
8023.4554
1947.4582
1578.9277
1446.3594
1451.4624
1606.7229
604.48801
1974.1587
1971.7835
1976.8554
1960.2458
779.22938
717.90803
1652.206
1488.8882
1651.3355
1489.2306
616.12438
1924.9217
1877.8001
1916.4308
1864.7658
5152.5813
5202.9012
4711.2323
4644.1857
5309.5318
5272.5273
4782.0511
4785.1392
4780.8405
4816.0537
4728.8595
4676.0816
4801.7593
4915.4161
4873.6387
4816.1815
3095.8841
3377.2365
3129.749
3423.0861
1226.3023
3172.1822
3469.8102
3428.8953
3153.0512
1214.3446
4038.5554
4086.5799
4251.4349
4179.0566
4039.4273
3958.9488
4119.1543
4191.2179
1090.8583
1078.6453
1216.901
1219.8889
4751.2385
4835.8975
4651.1746
4760.6913
4781.6001
4671.0676
4594.4362
4678.891
5156.4799
5032.1415
4587.8436
4662.9375
4745.7521
5220.7694
5122.0842
4634.5176
4280.0191
4142.8751
4098.6057
4303.4197
3502.1236
3471.9614
3145.4704
3183.4055
3146.9245
3447.8226
3140.0455
3425.4665
4038.7249
4065.8153
4226.5978
4188.6812
9649.7708
9240.1952
9577.5877
9153.4502
9115.2775
8944.2466
9040.6164
8852.1303
8156.3357
8277.365
8097.7983
8196.5216
6982.8437
6935.8269
5883.0082
2728.8337
5845.0902
7267.6819
2774.4547
6157.9832
2621.5818
2661.2706
9804.8585
9035.9941
9775.4318
10014.409
9340.4912
9971.8512
9277.8915
9867.1638
9426.7341
9807.6627
9351.8286
8942.3976
8980.3272
9155.5954
9099.8403
9151.4341
9177.1402
9316.5275
9361.5144
8667.3095
8742.8517
4789.7042
4867.9722
9025.2879
9170.5642
8978.5331
8904.581
9259.9004
9137.2492
5051.9011
5062.9127
5211.3723
5210.9024
5135.3734
5055.8446
2111.6669
2145.6469
2149.9173
574.99016
573.84222
560.12201
559.95621
2296.0903
4056.5766
4082.6545
707.61826
708.35474
2343.3419
4173.8787
4141.4345
2187.2143
718.88256
718.34664
2199.858
2325.041
4154.5602
4096.9324
710.779
701.76547
2298.6671
4098.3947
4064.3894
6649.2969
3537.4944
6688.8777
3523.5898
3569.6445
3556.4513
6706.639
6726.6237
32652.744
12764.078
12812.051
32800.738
12828.524
32682.098
12814.654
32252.255
7482.0764
7420.9826
18104.712
18182.198
12349.901
12468.454
18295.882
18040.863
12257.843
12509.053
28987.288
28959.456
48346.67
48305.133
28231.833
47048.209
29059.746
47791.875
7350.4738
7404.7825
12417.235
18128.037
12312.591
18188.634
12382.657
12116.957
18168.686
17843.577
28538.732
29178.243
48600.291
48518.811
28628.09
48399.727
47544.878
29075.023
7449.1607
7495.3369
12316.26
12258.249
18014.27
18166.905
12470.035
12262.527
18264.25
18046.32
29082.102
48558.736
29153.202
48493.704
28212.529
47657.131
29088.572
48337.074
7405.9703
7328.4793
12485.139
12406.802
18171.079
18256.131
12493.172
12238.605
18270.676
17964.385
28772.917
48217.777
29448.13
48581.372
29264.763
28929.525
48228.868
47657.7
677.27718
684.61627
1916.0883
687.52575
690.48621
1974.7487
1979.1549
4415.9256
18639.89
4500.3961
4503.0067
18665.433
18510.42
2180.6015
714.98284
716.85791
2199.5438
3497.4524
3544.3092
6666.1057
6653.5379
3573.9636
6733.552
3540.8976
6701.7705
12771.318
32350.134
12803.258
32626.787
12798.872
32884.814
12847.575
32713.305
38774.901
38371.81
12059.259
11975.802
12117.66
39402.942
38918.504
12048.148
38306.153
38115.374
11899.016
11822.075
36620.487
37807.035
11789.512
11671.164
38156.437
37385.384
11928.018
11924.714
39260.448
38962.386
12153.3
12091.544
39913.032
39453.644
12321.734
12294.027
39917.367
39100.619
12379.518
12277.973
21015.746
20608.612
7783.2187
7827.8814
36145.382
35424.415
11336.741
11294.21
37466.051
37540.89
11596.191
11565.666
21349.543
21421.046
7931.9041
8059.9995
39041.574
38332.995
11946.624
11940.024
38988.319
39364.252
12149.553
12093.495
39464.425
39008.087
12220.914
12160.09
39307.567
39916.921
12224.503
12104.147
38517.833
11933.474
11826.744
38617.271
37968.611
36948.253
11754.137
11657.746
21516.756
22025.865
8230.3918
8287.889
22225.66
22237.225
8359.4562
8328.3721
22314.249
22516.148
8601.1175
8492.9625
8508.8129
22391.31
22186.664
8489.3128
13306.818
13111.032
4392.107
4442.3395
22295.771
22367.029
8452.414
8470.1136
8197.512
20914.36
21708.819
8195.8326
4517.4154
13322.12
13846.724
4577.3282
13884.526
4617.1265
13685.226
4550.1878
3980.0418
3985.2119
4137.1795
4103.1066
3102.6567
3125.3474
3386.6777
3385.1327
1216.5937
3162.2276
3178.4053
3472.6298
3483.9263
1217.4777
4274.1781
4117.2512
4094.1648
4273.5274
1083.9638
1077.2376
5454.6409
5424.4138
4923.3821
4938.0583
5367.2971
5263.5442
1914.8037
4846.139
4798.1627
5060.9428
5008.9305
4939.5403
4952.8476
1919.1562
4972.8108
4870.1633
4876.1048
4806.9911
1934.5703
1951.7096
1618.5595
1449.6654
1456.5505
1602.9486
604.68016
4307.0965
4203.4318
4139.2169
4360.69
3561.7012
3539.7243
3250.1709
3255.3976
1253.6359
4407.6966
4277.5785
4220.3478
4440.1648
3622.9021
3581.8994
3256.2333
3310.857
1244.9476
1103.5362
1094.9792
1943.2506
920.0012
908.79169
5266.2999
5263.0993
4793.1873
4761.7354
4546.94
4704.5907
4670.5824
4612.3916
4792.5512
4878.3942
4864.7757
4776.4065
4603.0992
5001.0195
5065.6456
4515.6116
10061.388
10082.368
9274.8145
9253.8442
10290.484
9487.5466
10208.474
9388.2915
9848.0528
8827.6544
9772.9
8739.6674
9638.6711
8641.4718
9625.3714
8599.0098
10465.94
10590.286
9650.8753
9712.8617
9526.628
10331.891
10323.215
9487.7031
9869.6944
9876.6556
8845.5739
8822.4654
10018.956
10100.057
8978.9956
9007.324
10018.31
10113.042
9607.7414
9659.061
10258.595
10179.304
9838.1143
9734.2586
10467.223
9794.4802
10384.261
9689.4408
10230.052
10291.428
9569.8854
9585.965
10528.692
9851.5459
10507.68
9797.1583
10426.599
10588.317
10004.27
10120.05
10318.792
9904.8897
10287.834
9839.6553
10646.604
10795.085
9965.2344
10064.462
6826.317
6927.227
2716.5932
5845.24
5735.8737
7966.4778
8095.624
8103.9198
8187.7457
7043.9778
7328.9508
2721.4788
6207.9496
5936.3341
8214.4573
8554.3968
8355.8344
8652.1397
2614.1759
2601.9464
7309.1393
7288.8206
2759.5271
6173.5127
6192.5861
8506.7544
8646.0992
8493.8899
8574.7575
8382.4321
8481.9987
8341.9811
8419.4016
7189.848
7152.8225
2748.1469
6053.2626
6058.6862
2637.012
2633.4355
9320.8507
9272.0585
9124.9191
9058.1167
9518.9568
9367.2549
9436.6041
9219.8613
10105.721
9719.3326
9952.5091
9521.0302
9828.6373
9419.3487
9783.5372
9355.2658
9193.6183
9040.8698
9539.3409
9327.033
8907.7184
8756.4184
9029.7705
8826.4844
9429.0025
9064.513
9542.6549
9123.144
9749.7858
9377.71
10087.778
9649.5131
2309.5129
2166.8078
2134.8485
2284.2596
2147.3684
2304.9745
2310.6736
2281.9846
2597.3939
2729.4767
2619.2478
2753.4385
2627.2793
2619.009
2735.2797
2734.9654
10594.529
10398.509
9916.8385
9702.1812
10387.107
10198.043
9964.1952
9746.8471
10237.086
9568.3475
10187.563
9485.2043
10016.849
10058.862
9628.3919
9557.9564
10021.578
9620.3862
10347.544
9871.7923
9666.9681
9273.9928
9775.2798
9327.6071
9838.8629
9217.1974
9946.2812
9266.8414
10231.971
9587.9318
10537.269
9809.9624
10069.49
10333.13
9303.3677
9471.36
9666.1735
9764.9548
8942.099
8983.3168
9277.0968
9362.9698
8365.4757
8392.7456
9662.7712
9864.1558
8693.7407
8808.0867
9948.6171
8933.5055
9790.9943
8771.3014
10405.214
9592.7212
10218.049
9402.6599
10048.339
9982.6077
9264.2778
9174.4252
9620.9818
8642.8602
9551.0383
8554.4935
10036.04
9656.6317
10004.878
9588.1198
9541.0176
9725.0311
9390.735
9534.8812
9435.5338
9303.2071
9419.8797
9244.1941
10136.248
10306.695
9747.5874
9878.026
8521.9807
8667.0824
8714.8482
8829.3944
8396.4251
8567.5677
8418.0171
8538.5568
7188.0338
7205.7678
6027.4748
6070.9366
7309.3534
7477.8448
6323.9307
6158.7517
7209.1266
7218.6735
6093.9423
6058.5371
8421.6395
8558.6381
8410.2671
8506.1455
7019.124
7142.2274
6037.009
5904.0721
8189.1522
8321.1586
8322.2304
8432.9054
9169.1608
9013.8353
9295.3618
9111.8501
9420.6055
9254.8487
9366.133
9171.3644
9981.6238
9592.1316
9908.1851
9493.8216
9735.1756
9357.9198
9849.2029
9437.9482
14521.871
15342.488
14702.858
15179.754
15222.959
14459.036
14277.293
15053.194
15375.611
14699.309
15336.082
14684.068
15223.922
14448.896
15269.365
14467.822
15113.149
16251.463
15297.89
16093.17
15771.321
14871.214
14688.504
15604.565
15269.799
16270.333
15291.226
16257.242
15776.674
14854.33
15788.014
14854.823
16643.653
18418.562
16795.346
18338.404
17203.751
15836.041
15657.299
17065.589
16797.748
18517.426
16847.809
18510.004
17256.773
15852.998
17226.882
15805.331
19856.902
19847.582
18093.773
17982.781
18202.018
18167.45
20002.801
20010.336
19025.2
5264.7226
5249.1727
5206.834
5228.5543
19173.06
20750.71
20759.665
18920.924
18833.681
5509.2545
5499.4654
5444.4829
5474.766
19932.715
4828.9001
4828.0936
4776.1937
4785.7415
5047.0899
5030.6858
4972.7045
4994.1814
12800.019
12118.862
12313.263
13022.221
13866.645
13189.807
13699.368
13450.189
12596.601
12441.834
13293.332
13196.896
13884.79
13198.222
13898.127
13860.648
14670.303
14041.297
14499.01
14389.155
13569.271
13395.07
14225.171
14735.487
14060.513
14717.58
14073.94
14449.337
13588.967
14443.967
13576.103
14207.552
14948.062
14382.261
14778.758
14913.815
14208.606
14030.446
14749.225
14400.383
14955.561
14382.318
14999.438
14937.866
14226.611
14973.424
14226.108
12480.83
12316.391
12565.171
12503.484
12725.814
12666.856
12837.118
12729.498
12582.125
12623.665
12797.817
12874.154
13021.458
13032.146
12983.483
13124.895
8669.0698
11945.674
11938.228
12239.586
12273.468
8699.2134
8922.7112
8810.7039
12625.058
12658.063
12878.014
12796.932
12610.696
12519.767
12440.086
12318.788
12912.89
12876.147
12958.984
12806.383
9228.5451
9299.2135
9149.5696
9149.6285
9501.5401
9427.7958
9442.7468
9450.7558
9363.6805
9436.3876
9034.1853
4995.773
9106.684
5007.0794
5190.2915
5064.448
5192.8284
5151.1922
564.96954
570.38183
558.7275
558.69051
730.40895
733.54938
726.69297
735.14823
4061.6362
4049.8489
2287.3284
4706.0454
4762.481
4121.0552
4172.6088
2335.8429
4865.9653
4833.4779
2287.3382
4059.4076
4040.2511
706.46063
703.52446
2305.576
4098.7742
4092.8337
4076.1762
4155.9532
2318.0187
4847.1258
4769.9968
4042.6793
4096.0685
2294.4823
4773.7627
4745.573
7304.9169
7367.7799
7383.6184
7407.5464
28166.747
47801.637
28894.784
48328.296
12190.435
12273.454
17920.615
18046.234
12176.166
12402.548
18148.367
17903.451
28730.581
28695.1
48399.932
48121.825
12450.428
12216.356
17947.839
18191.838
29009.526
47972.901
28414.463
47975.65
12273.198
12330.622
17973.361
18102.116
28832.157
28510.137
47592.877
46850.943
6291.7897
6350.6581
10459.779
10415.116
15579.21
15650.914
6228.6101
6263.922
10425.279
10330.241
15414.64
15816.254
18697.699
18615.596
22797.01
22704.177
23014.338
18837.378
18689.805
22872.945
23013.097
18933.342
18833.619
23056.587
22877.35
18679.462
18481.596
22631.657
40247.341
26852.123
26945.072
40449.96
40754.695
26797.535
26516.792
40068.991
54007.336
64341.162
64490.27
54319.667
63968.662
65036.995
54278.04
54267.54
26496.627
26657.807
39358.386
39680.386
52323.695
63139.266
63708.669
52681.687
40598.773
26902.921
26755.193
40168.988
63977.924
64860.408
53359.159
53666.007
6181.7609
6222.0834
10344.532
10219.687
15669.78
15230.277
6210.5669
6259.0212
10374.512
10316.452
15621.057
15557.11
22760.894
18705.875
18635.857
22872.602
18846.999
18701.145
23071.496
22926.363
22924.679
18804.75
18695.328
22947.051
22694.154
18485.618
22425.518
18280.722
39798.698
26591.419
26778.305
40121.409
26855.666
26999.067
40666.443
40790.216
64989.505
54514.769
54431.427
64480.608
54155.923
64070.021
64351.925
54285.401
26638.073
26323.968
39732.086
40590.385
64956.087
65389.704
54047.607
54119.168
53688.313
64520.19
63585.64
53197.23
26898.835
26823.686
41055.43
40694.878
6281.1362
6312.5258
10465.773
10353.204
15796.151
15377.636
6311.465
6349.6965
10423.9
10497.062
15690.222
15663.935
15490.032
15515.761
18531.996
18583.819
22638.392
22783.766
23064.806
18828.337
18700.126
22950.428
15774.24
15433.283
18818.288
18911.169
23015.265
23061.649
22923.629
18700.258
18521.588
22702.102
26993.932
26888.006
40643.077
41174.311
54442.884
64607.028
65170.676
54562.468
41333.929
26874.517
26631.11
40670.333
64715.57
65612.657
54332.882
54157.342
26698.637
26462.254
39303.542
39750.12
53407.058
63386.258
63860.836
53557.204
40762.87
26985.781
26885.801
40613.132
64497.896
65062
54039.021
54054.809
6235.7233
6250.7693
10408.021
10346.698
6134.3093
6181.2732
10290.005
10195.827
18704.193
18768.347
22826.737
22938.034
23143.904
18929.166
18795.121
23010.432
23044.358
18932.997
18832.477
23077.471
18428.456
18633.156
22852.991
22578.275
26871.741
26681.255
40294.181
40691.478
53934.913
64457.964
64913.738
54052.763
41302.257
27078.772
26949.461
41131.838
65179.7
65725.583
54167.73
54351.193
41061.43
26936.889
27016.072
41085.869
40921.062
26805.808
26491.341
40107.141
53713.288
65263.324
65226.366
53811.136
64280.876
65292.049
53287.691
52995.027
696.70565
700.96645
2088.1926
708.63273
710.32227
2158.0539
2158.0226
3380.4798
3438.6407
6591.8291
6495.3177
12785.872
12673.687
33238.811
32980.413
3492.2938
3501.3197
6694.1918
6612.6851
3529.3696
3477.2461
6610.515
6686.1232
12792.777
12888.053
32765.601
33090.834
12820.447
12762.94
32812.648
32500.833
2286.7799
4028.3041
4056.5968
702.89516
703.08459
2304.6696
4072.8213
4102.9888
7328.8873
7323.5023
7411.6453
7374.8325
12177.511
12304.716
17953.225
18014.555
28173.349
28702.004
47382.568
47842.085
12134.805
12393.092
18153.034
17887.836
28641.204
48374.947
28584.506
48002.537
12394.661
12132.045
18101.784
17810.76
28371.473
48288.817
29067.115
48482.268
12292.539
12397.296
18023.932
18095.347
28785.535
28591.345
48335.752
47840.423
41126.57
40664.237
41885.233
41229.982
40630.726
40460.595
38875.371
40246.876
40509.922
39620.398
41701.886
41351.09
42290.865
41743.893
42424.106
41511.931
11528.152
37197.755
37394.563
11468.036
35683.156
36899.331
11450.552
11335.316
38367.684
37498.963
39784.979
39801.175
11763.364
37609.454
37980.232
11660.142
38499.353
37755.72
11729.954
11619.755
41386.392
40608.513
41320.002
41818.593
41824.803
41341.228
41659.635
42339.531
40810.271
40970.204
40298.97
39219.549
38213.016
37568.394
11941.34
11846.151
39142.167
39433.859
12101.403
12031.45
39402.079
39729.785
12210.599
12153.614
12290.242
39844.15
38989.72
12183.769
39175.954
39569.935
12433.86
12348.517
12478.455
40277.721
39742.494
12359.226
39841.626
39585.324
12422.017
12345.338
38582.404
39777.854
12411.42
12257.235
21598.327
8261.2305
21804.369
8139.4397
21568.067
21219.324
8154.2499
8111.3588
39875.42
39293.816
12330.643
12292.995
39220.088
40099.111
12453.183
12321.795
37009.08
36280.724
11724.935
11675.396
38575.972
38619.324
12020.066
11960.488
21307.928
21914.286
8221.1101
8239.3708
22611.319
22714.923
8549.1127
8596.3699
8596.7451
22507.866
22939.598
8541.8066
22587.273
22145.37
8409.8521
8499.2548
9011.9526
9113.9106
8837.8405
8896.6794
9225.3452
9058.9338
9137.6604
8930.8222
9771.4202
9377.1552
9653.1578
9225.4134
9528.4828
9135.3289
9611.1387
9174.9346
7063.3728
7032.146
2707.7221
5939.179
5942.192
6925.6783
7051.3424
2731.2226
5828.6134
5988.6697
8251.9564
8379.8194
8208.0766
8290.4935
8079.2813
8207.8134
8192.8777
8278.279
2596.723
2631.1331
7203.5024
7249.4753
2755.3206
6059.5267
6121.8343
7203.3686
7517.0441
2755.4716
6059.9587
6381.9475
8419.7325
8570.7362
8478.5055
8585.3565
8415.0149
8569.5193
8757.6929
8847.8893
2632.388
2626.4305
10005.435
9614.5695
10036.13
9596.3994
9437.1713
9282.5078
9737.8664
9517.0956
9438.4744
9281.7785
9478.6159
9276.102
10010.512
9624.0472
10278.44
9831.1953
2174.5316
2138.9729
2281.9708
2313.5855
2312.0969
2156.8035
2139.0074
2297.1336
10597.415
10706.484
9791.2647
9823.4367
10672.337
10573.817
9865.1418
9735.7861
10151.38
10202.687
9118.114
9108.4429
10221.571
10129.317
9187.6455
9070.024
10498.961
10680.788
9700.2789
9789.9697
10228.534
10107.139
9358.9373
9404.3746
5222.7243
5193.0217
4733.5881
4712.6623
10061.646
10183.212
9039.0633
9081.9757
9790.5615
9699.9669
8738.6946
8759.6122
10585.485
10158.012
10773.445
10279.182
10643.394
10223.149
10570.128
10098.577
10855.202
10761.986
10181.494
10044.421
10785.455
10940.347
10106.613
10190.235
4846.1278
4785.0476
4721.4424
4735.6712
10483.424
10058.981
10741.271
10236.032
10684.235
10910.446
10010.963
10151.681
10099.074
9697.7859
10268.686
9788.4604
10431.27
10284.691
9646.4226
9713.5036
4787.7904
4841.2975
5021.961
4917.8721
5252.4185
4796.739
5423.4971
4894.763
4257.8224
4233.3977
4065.9353
4393.8115
3261.6674
3580.1098
3197.2085
3118.4115
3419.8745
1221.0632
3478.3304
4100.5513
4203.2936
4025.4119
4245.8001
1081.6632
9849.9702
9473.6584
10039.926
9585.0648
9655.8302
9943.4564
9489.5832
9713.2021
9310.4971
9154.9001
9512.2324
9287.7883
10221.625
9822.713
10496.228
10027.294
8655.4387
8788.9453
8942.7042
9026.7705
8361.0994
8487.6249
8561.22
8633.5024
7195.3101
7345.3423
6101.485
2853.7896
6254.2766
7434.6569
7669.8325
2825.5171
6522.8492
6291.8833
2738.1401
2690.1284
10366.029
10317.369
9974.9546
9870.4733
9762.8172
9976.2599
9593.6574
9757.5133
9772.339
9624.1599
9754.6707
9549.8769
10329.133
10532.194
9923.6679
10072.339
8747.7047
8883.4487
8969.1353
9061.3942
8731.9177
8887.8292
8743.5479
8848.0723
7496.1347
7493.6297
2830.7277
6337.8566
6357.8856
7515.1531
7709.6844
2871.5642
6356.8309
6572.0993
2685.0881
2730.7828
2415.333
2257.5179
2187.3508
2354.0681
2213.3673
2181.5725
2351.6507
2387.0741
4862.0538
4856.6408
4912.7439
5360.9446
902.54829
1948.7622
1716.2056
1652.1753
1881.6194
1875.8064
1637.4088
1655.3333
1896.0929
1856.9665
1836.0197
10324.427
10503.094
9536.0761
9632.1015
10260.485
9481.9543
10274.588
9447.4002
9832.5016
8842.0413
9834.0651
8799.8112
9899.2432
10016.672
8899.0531
8947.9049
9267.1432
9250.8277
9960.947
9922.3683
10019.397
9883.8825
9593.968
9429.5809
9821.0289
9757.0558
9336.5333
9351.2448
10196.194
9530.346
9363.3043
10051.797
10447.038
9783.9487
10469.82
9755.5682
10282.274
10528.367
9868.3774
10048.525
10259.578
9839.442
10282.306
9815.4479
10493.633
10712.361
9834.0024
9982.4336
9574.8826
8605.3512
9444.1848
8462.051
9729.7383
9732.757
8968.7975
8929.9591
10003.822
9224.07
9858.7844
9066.5258
9317.3674
9300.8969
8374.5805
8324.337
14429.175
13685.076
13533.791
14277.472
14225.601
14333.382
13587.306
13483.37
12904.929
13939.046
13041.661
13802.22
13745.45
12858.912
13835.282
12940.205
13817.839
14743.91
13986.242
14580.053
14238.892
13313.237
13157.162
14083.44
13866.197
14681.362
13908.458
14652.614
14168.068
13241.259
14140.911
13206.482
12634.786
13507.563
12768.754
13366.923
12169.997
12951.226
12831.346
12071.158
13431.854
12688.311
13448.041
12713.927
12189.298
12919.71
12902.739
12123.732
13245.874
12530.328
12417.019
13125.41
11984.232
12727.636
12629.856
11892.468
13145.083
13079.65
12435.178
12372.468
11892.082
12579.348
11801.713
12633.399
14999.808
14223.732
14146.367
14947.981
15187.511
15181.557
14363.891
14342.46
14471.789
13541.664
13460.586
14415.171
14596.601
14604.504
13636.423
13609.042
14162.2
13252.826
13172.618
14114.711
13851.959
14668.629
13923.776
14628.294
14798.736
14025.137
13998.21
14789.305
14282.077
13348.471
13332.917
14281.894
13431.551
12700.656
12630.293
13374.161
13550.212
12809.994
12800.968
13560.205
12040.227
12865.433
12081.542
12818.775
13000.75
12252.727
12199.823
13009.875
13734.831
12991.32
12922.113
13676.679
13819.662
13830.088
13067.706
13041.991
13171.928
12415.315
12367.525
13127.865
13238.671
13256.07
12487.995
12406.767
15458.306
14903.947
14750.015
15319.779
15449.567
15493.284
14930.854
14861.789
15499.713
14809.026
14635.556
15348.473
15448.209
15517.126
14809.554
14715.152
15781.759
15225.291
15046.024
15616.4
15737.809
15167.242
15159.341
15750.593
15830.794
15126.404
14934.143
15656.218
15787.28
15074.13
15047.392
15788.167
14814.149
15662.815
15003.131
15476.774
15407.534
14463.368
14286.51
15234.529
14912.976
15628.707
14966.624
15605.473
15402.243
14410.452
15347.618
14363.094
15341.266
14691.602
14513.233
15169.949
15229.857
15328.699
14666.186
14545.316
14157.223
13991.63
15092.392
14923.421
14918.312
15052.434
14087.571
13970.075
14877.796
15610.226
14954.458
15564.521
15328.582
14402.902
14336.121
15291.562
15748.848
15034.753
15757.581
15088.614
15512.105
14525.538
15469.549
14483.692
16131.154
15566.475
15439.801
16036.034
16351.196
15783.67
15812.487
16415.334
15336.058
16179.926
15463.644
16073.329
15689.448
16420.624
15688.386
16461.311
15123.73
15761.46
15216.195
15702.805
15798.161
15098.737
15010.686
15739.324
15292.791
15868.377
15303.374
15892.356
15924.03
15204.664
15930.877
15171.53
16006.242
15337.563
15238.076
15913.566
16257.116
15573.796
16265.037
15541.946
14747.347
14663.832
15747.583
15688.072
15984.209
16008.742
14944.102
14924.09
19563.008
19556.104
17796.298
17659.926
18350.488
18287.076
20209.015
20218.648
5151.2087
5135.2615
5237.5289
5238.9085
19401.102
18765.188
18071.188
16443.377
16276.506
17986.271
18632.609
16920.383
16862.246
18622.864
15275.588
16801.534
15457.219
16673.529
17288.635
15882.68
17300.023
15838.086
20157.558
20154.159
18423.543
18294.543
19001.755
18938.598
20771.241
20772.503
5461.8139
5262.295
5305.6137
5512.3043
19888.918
19301.4
18737.131
17114.777
16952.507
18656.457
19320.987
17652.226
17599.483
19308.839
16153.604
17514.788
17393.176
15980.271
18057.051
16632.621
18063.739
16661.047
4737.8212
4738.4867
4823.5388
4835.7675
4928.9387
4791.8225
4824.9565
4979.0611
20505.139
20486.682
18800.092
18648.865
19112.408
19065.313
20980.343
20997.405
5470.6719
5469.0249
5522.4914
5502.3762
20131.547
19627.859
19131.045
19021.392
17339.006
17535.576
17973.573
16633.256
16423.142
17810.975
17611.402
19408.383
17671.751
19405.853
18067.98
16619.832
18037.861
16552.987
19300.957
19194.801
17554.984
17362.102
17764.559
16468.036
16255.89
17933.512
18946.186
18895.112
17132.626
17237.315
17621.272
17536.937
16195.744
16090.582
20902.041
20883.162
19014.955
18870.326
18658.932
18571.509
20511.177
20488.259
5385.8633
5410.4705
5402.3166
5386.6337
19698.821
20068.842
4933.7567
4925.6697
4940.7155
4936.2313
4977.8982
4959.9642
5006.0327
5006.3197
16860.183
15841.183
15638.542
16681.28
16521.977
16597.066
15607.378
15520.558
15175.643
16310.329
15368.97
16139.607
16027.523
15092.362
16081.091
15156.208
15949.777
17086.079
16151.823
16914.042
16672.558
15779.699
15582.802
16506.675
15959.285
17030.53
16018.254
16996.915
16508.762
15567.981
16484.994
15523.007
15465.473
16293.08
15661.561
16125.677
15485.972
16237.508
16067.066
15281.443
16054.658
15367.759
16063.047
15403.739
15211.907
15975.1
15969.892
15174.76
15843.035
15182.484
14993.771
15676.17
14966.245
15725.759
15556.092
14769.855
15627.221
15596.853
14972.19
14921.749
14751.141
15479.937
14701.124
15504.381
15450.752
16558.789
15604.23
16432.522
16078.815
15189.752
15058.506
15973.775
17084.491
17109.282
16105.604
16114.11
16602.52
16666.424
15678.626
15722.182
15825.132
15681.589
14893.052
14713.988
15192.661
14302.655
15330.27
14468.972
15261.581
16270.618
15276.023
16275.541
15736.653
15772.412
14814.406
14826.837
14902.769
14776.427
14297.37
14146.264
14675.252
13945.656
14788.814
14086.768
15334.427
14654.544
15271.225
14622.028
15144.461
15222.909
14397.052
14437.652
14935.366
15667.127
15045.047
15581.602
14861.62
15587.521
15520.039
14759.841
16276.417
15599.417
16179.128
15532.988
15340.529
16100.663
16214.364
15412.873
4380.7158
4375.2528
4460.3652
4454.571
4016.0745
3951.4394
4014.6028
4084.6482
4012.1009
3953.5032
3968.9863
4064.0938
4457.1813
4386.6311
4411.1371
4513.5443
4075.2702
4046.0021
4121.0788
4148.4166
4105.5155
4543.3103
4515.6897
4555.9323
4571.9509
4529.4836
4509.0613
4514.8941
4537.1939
4410.4377
4408.9602
4432.0574
4448.3941
4502.7111
4565.0614
4841.9186
4814.5907
4841.843
4872.0103
5274.8454
5358.811
5390.5457
5319.1569
4940.2603
4909.0653
4984.7945
5028.725
5509.7539
5399.7779
5474.5034
5598.6112
4885.3899
4826.1519
4816.6544
4891.9138
4940.5494
4884.3345
4889.5397
4946.5488
5387.952
5331.2179
5388.6379
5432.3613
5327.3524
5238.6376
5275.6048
5377.2497
4494.5851
15908.627
15248.982
15036.564
15728.378
15664.319
15010.571
15624.695
14917.223
14472.869
15655.451
14673.603
15461.938
15359.639
14374.196
15448.238
14457.002
16038.508
15480.955
15282.256
15861.71
15767.483
15204.547
15162.995
15757.945
15169.616
16083.804
15372.61
15908.144
15054.823
15818.564
15110.562
15795.757
14473.709
15320.743
14667.503
15142.705
15057.657
14131.495
13949.07
14876.979
15028.455
14344.404
15081.28
14424.746
14796.714
13889.595
14722.865
13819.031
15267.552
15241.587
14657.616
14712.85
15491.976
14929.609
14739.649
15318.022
15332.164
15506.766
14806.822
14606.039
14581.965
15277.217
15238.209
14509.268
14764.924
15383.735
14847.042
15326.702
15418.74
14745.37
14668.548
15376.454
15407.955
15890.34
15329.198
16008.21
15929.883
15211.247
16045.641
15275.803
14553.978
14449.204
14039.427
13909.459
14456.557
13784.276
14552.556
13909.06
14391.983
14895.87
14344.677
14978.522
14895.082
14978.578
14212.126
14249.612
14352.334
13655.711
13762.081
14264.36
14103.457
14030.453
13323.421
13225.307
14770.703
14097.316
14696.361
14070.067
13603.525
14450.015
14500.832
13626.763
14565.791
15253.966
14627.654
15217.311
14104.552
15015.846
14993.917
14047.689
15848.598
15130.386
15746.965
15083.766
14501.962
15492.377
15561.51
14545.618
14366.515
13655.79
13605.573
14346.211
14832.498
14753.995
13988.707
14023.628
13911.583
13045.434
12993.056
13892.512
14298.896
14237.849
13313.295
13334.692
13604.37
12968.96
12882.108
13537.649
13888.914
13209.492
13236.503
13948.545
13227.428
12423.879
12337.216
13166.761
13478.108
12630.658
12658.85
13537.413
12622.978
11968.447
11890.397
12560.546
12841.832
12162.781
12191.386
12901.899
12153.697
11457.333
11390.551
12093.404
12360.02
11679.693
11658.734
12412.812
13245.089
12546.581
12505.154
13224.08
13563.707
13514.568
12784.857
12801.817
12731.096
12034.967
12002.887
12717.865
13011.753
12974.58
12246.507
12204.225
13652.325
12782.928
12910.892
13524.941
12335.533
13086.763
12984.611
12246.195
12705.558
13485.149
12754.912
13449.378
12270.746
12959.002
12919.736
12172.956
14923.1
14149.669
13975.939
14752.97
13465.855
14392.996
14244.845
13309.018
14716.317
14664.859
13943.398
13877.044
13280.369
14154.601
13220.735
14199.294
14399.57
13667.982
13500.643
14236.089
14108.741
14152.098
13441.075
13387.731
12880.635
13922.608
13034.953
13774.711
13669.768
12790.472
13696.939
12828.455
13235.266
13101.108
12521.786
12390.332
11998.809
12596.405
11885.662
12711.348
13036.058
12342.96
12317.498
13023.742
11757.686
12537.091
11832.296
12528.704
15293.141
16025.934
15408.446
15939.726
15965.553
15222.759
15120.854
15889.587
16132.454
15463.661
16116.826
15477.18
16064.88
15299.201
16085.296
15288.721
17181.83
16218.73
16077.57
17062.228
17376.728
17370.216
16411.436
16405.793
15702.175
16734.31
15835.951
16626.969
16970.261
16051.522
16938.003
16031.549
15756.202
16840.097
15910.661
16722.337
16406.245
15529.558
15394.111
16294.616
15947.208
16963.907
15993.458
16933.912
16507.189
15598.838
16496.923
15570.56
16357.565
15728.446
15601.853
16254.216
16565.196
15929.979
16620.475
15962.547
15563.139
15438.129
16316.434
16218.298
16593.786
16532.127
15765.226
15799.597
19312.885
19245.175
17686.294
17538.95
17995.787
16742.023