/*--------------------------------*- C++ -*----------------------------------*\
  =========                 |
  \\      /  F ield         | OpenFOAM: The Open Source CFD Toolbox
   \\    /   O peration     | Website:  https://openfoam.org
    \\  /    A nd           | Version:  7
     \\/     M anipulation  |
\*---------------------------------------------------------------------------*/
FoamFile
{
    version     2.0;
    format      ascii;
    class       surfaceScalarField;
    location    "9000";
    object      phi;
}
// * * * * * * * * * * * * * * * * * * * * * * * * * * * * * * * * * * * * * //

dimensions      [0 3 -1 0 0 0 0];

internalField   nonuniform List<scalar> 
100394
(
3.9159964e+49
-8.4655221e+49
-8.5915289e+49
-8.9524447e+49
-1.1864727e+50
-9.1464051e+49
3.4589459e+49
2.6091758e+49
-4.1049312e+50
-3.4080839e+48
-1.3480707e+49
-8.7181548e+49
-8.1972701e+49
-8.7321743e+49
-7.5173008e+49
-6.9857844e+49
-1.2116704e+50
-1.8718007e+49
-1.2377925e+49
1.2567708e+49
-1.8012614e+49
-2.3381747e+49
-1.9387039e+49
-2.1502737e+49
-1.3615264e+49
-7.6275724e+49
-1.6034595e+49
9.768249e+48
-1.8131909e+49
-1.7918919e+49
-2.1170962e+49
-1.7252371e+49
-2.1161865e+49
5.4835684e+49
-8.2361641e+49
-8.9656862e+49
-8.1784159e+49
-9.1996021e+49
-1.4013549e+50
-7.4864613e+49
-2.0157539e+49
-6.272401e+49
2.9393436e+49
-2.2429418e+49
-2.2639926e+49
1.117387e+49
2.093487e+49
-1.5006048e+49
2.1943726e+49
-1.5741121e+49
-1.3655424e+49
7.4745157e+48
8.4460478e+48
-9.5579037e+49
-5.626443e+47
-2.1820117e+48
6.2049483e+48
7.7825988e+48
-9.4568489e+49
-2.4449865e+48
-1.0258611e+48
-1.7948952e+49
3.378506e+49
2.689082e+49
-3.9044145e+50
-2.9225802e+48
-1.2688712e+49
-1.3597985e+49
2.7556729e+48
-1.9710627e+49
-2.1670999e+49
-1.9846051e+49
-1.7969368e+49
2.9432816e+48
-1.8502908e+49
-1.8722226e+49
-2.0366852e+49
-1.9811595e+49
-1.7988296e+49
1.6852845e+49
-2.243104e+49
-1.6256099e+49
-1.2830358e+49
-1.5522631e+49
-1.2274195e+49
-1.5670875e+49
-1.4056559e+49
-1.740939e+49
-1.2584331e+49
-7.985593e+49
-6.9464684e+49
-1.5531398e+50
-8.7728637e+49
-7.7519394e+49
-1.5600374e+48
-3.8724417e+48
2.7218872e+48
-3.9913951e+48
-3.7241369e+48
-5.1151336e+48
-4.7211861e+48
3.4380583e+48
1.8771412e+48
-2.9362658e+48
-1.8286164e+49
-2.374311e+48
2.2340606e+48
-3.8405636e+48
-4.840048e+48
-3.79294e+48
-4.8952155e+48
-1.8004487e+49
2.1300665e+48
-3.1139857e+48
1.9409009e+48
-3.6774884e+48
-2.4890672e+48
-4.6018257e+48
-3.6478163e+48
-4.6726933e+48
-3.5195293e+48
2.5367881e+48
-3.9249762e+48
-3.663693e+48
-4.9759002e+48
-4.6158526e+48
2.2095008e+48
-1.7248741e+49
-3.0407586e+48
-1.4792914e+49
-1.9033069e+49
1.3192166e+49
-1.7412199e+49
-2.0192476e+49
-1.891373e+49
-2.2461791e+49
-1.7625561e+49
-1.6652735e+49
1.1479063e+49
-1.7385758e+49
-1.7848639e+49
-2.1341481e+49
-2.140727e+49
-2.129295e+49
-1.4352407e+49
-7.2837299e+49
-7.4147171e+49
-2.1963171e+49
5.7074518e+49
-7.9156332e+49
-7.9599409e+49
-8.7816559e+49
-8.7400912e+49
-1.4398925e+49
2.1419141e+49
-2.1896269e+49
-2.1424877e+49
1.095651e+49
2.049882e+49
-1.3125859e+49
2.8822743e+49
-1.1723686e+49
-7.2503118e+49
6.5493723e+48
5.5090702e+48
-3.1982301e+48
-4.456001e+48
7.2129121e+49
9.3882197e+48
-1.2902261e+49
-5.1161285e+48
-4.2817137e+48
5.072709e+48
3.9263817e+48
-9.0645747e+49
5.7315667e+49
1.2506111e+49
-1.6549482e+49
1.4334066e+49
-1.8752037e+49
-5.9404136e+49
-1.5047764e+49
-3.5271291e+48
-4.6711688e+48
4.8057997e+48
6.2209344e+48
-9.071931e+49
4.37687e+48
-5.3163647e+48
-4.1191754e+48
5.2746131e+48
-2.0028917e+48
1.6386947e+48
1.7408576e+48
-2.1911694e+49
-1.8321246e+47
-4.421188e+47
-2.5398026e+48
1.4632264e+48
1.7167762e+48
-2.2357668e+49
-4.8343234e+47
-2.7016727e+47
2.0740224e+48
1.3497707e+48
1.6184016e+48
-2.1217908e+49
-4.8216098e+47
-2.7678498e+48
-2.6800286e+47
1.5289599e+48
1.6548267e+48
-2.1613313e+49
-2.1637662e+47
-4.7129866e+47
-1.4288852e+49
8.0236677e+48
7.2456174e+48
-9.2119651e+49
-4.8119521e+47
-2.0884187e+48
6.3189971e+48
7.9307882e+48
-9.2660613e+49
-8.8986261e+47
-2.3286293e+48
-1.9495412e+49
-2.2547891e+48
2.0439119e+48
-3.014746e+48
2.3467701e+48
-1.8831772e+49
2.1183993e+48
-3.3887872e+48
-5.6698189e+48
-1.6985581e+49
2.4660302e+48
-6.6493156e+48
-1.6776522e+49
2.4992319e+48
-1.8851404e+49
2.0546652e+48
-1.5278976e+49
-1.9161813e+49
-2.0862083e+49
-1.8909767e+49
-1.732536e+49
-2.1120345e+48
2.4891426e+48
2.2035994e+48
-2.9914251e+48
-1.8311506e+49
2.5187804e+48
-5.2323117e+48
-3.342824e+48
-1.642253e+49
2.3434949e+48
-6.565904e+48
-1.6459192e+49
2.3653491e+48
-1.8535753e+49
-1.8561415e+49
-1.7010754e+49
-1.5099616e+49
-1.3787856e+49
-1.2189249e+49
7.4997632e+47
2.6001009e+48
-3.1972042e+48
-3.8578845e+48
-3.9187868e+48
-3.2787374e+48
-3.1499638e+48
3.116532e+48
-3.7911753e+48
-2.6300444e+48
-2.4707732e+48
-2.1387775e+48
-2.2252416e+48
5.7719424e+47
3.268173e+48
-3.7845233e+48
-4.0948048e+48
-3.1020095e+48
-3.4212097e+48
3.8798132e+48
-2.8040138e+48
-2.4782681e+48
-2.4470253e+48
-2.1941859e+48
-2.139981e+48
5.725911e+47
-4.1743119e+48
-3.8586626e+48
-3.1536148e+48
-3.4770957e+48
-6.9340992e+47
2.7503851e+48
-2.7507391e+48
-2.5932408e+48
-2.2766634e+48
-2.3790155e+48
-3.9650894e+48
-4.0383213e+48
-3.2452253e+48
-3.3792013e+48
-2.8793438e+48
-2.5416555e+48
-2.5499982e+48
-2.2812058e+48
-8.6697476e+49
-7.6847197e+49
-7.6272108e+49
-6.6816016e+49
1.8640697e+48
-2.2068254e+49
-1.8404991e+49
-1.9808685e+49
-1.9052123e+49
-1.7511705e+49
-2.6302409e+49
-1.6184928e+49
-1.5157125e+49
-1.2938144e+49
-1.2155063e+49
2.2286413e+47
-6.9783079e+47
-3.5244666e+47
5.5822024e+47
-8.0410444e+47
-1.0504327e+48
-7.9803592e+47
-1.0696288e+48
-7.6547136e+47
6.3832916e+47
-8.2640931e+47
-7.7427858e+47
-1.0166488e+48
-1.0953575e+48
2.6667401e+47
-4.2843035e+47
-4.0125133e+48
-3.9252833e+48
-6.6180621e+47
3.3966556e+47
-3.7646544e+47
5.0020119e+47
-7.8689066e+47
-7.8210504e+47
-1.0228883e+48
-1.0502747e+48
3.4045202e+47
-4.6720626e+47
-3.9118736e+48
-7.2093675e+47
6.132522e+47
-8.2028442e+47
-1.0879786e+48
-7.6961788e+47
-1.0201555e+48
-3.9873543e+48
-6.1453089e+47
3.8618383e+47
4.6290699e+47
-3.8411534e+47
-7.6593542e+47
-7.578261e+47
-9.8947319e+47
-1.0146982e+48
-3.818014e+48
-1.854755e+48
2.6949916e+48
-3.6007245e+48
-3.8862688e+48
-4.9304507e+48
-4.5060445e+48
3.7554902e+47
-3.7698168e+48
-4.7231813e+47
-6.8200027e+47
4.2683284e+47
5.9392932e+47
-8.0275642e+47
-1.05861e+48
-7.4844395e+47
-9.9058405e+47
4.9393073e+47
-3.8546737e+48
2.7787028e+47
-6.5668566e+47
5.1769305e+47
-7.8630287e+47
-7.7873475e+47
-1.0458252e+48
-1.0261583e+48
-7.263278e+47
6.1442718e+47
-8.1345977e+47
-7.6104039e+47
-9.9890639e+47
-1.076981e+48
3.0522382e+47
-3.914919e+48
-3.8493362e+48
-1.9390116e+48
-1.7088569e+49
-3.4595622e+48
-2.8496106e+48
2.2888179e+48
-3.7047167e+48
-3.6418925e+48
-4.6909268e+48
-4.7105939e+48
-3.0615561e+48
-1.7553191e+49
-2.518254e+48
-3.6797888e+48
2.7313289e+48
-3.8067986e+48
-3.5275202e+48
-4.900896e+48
-4.5334393e+48
-3.2279969e+48
2.1592081e+48
-3.0412656e+48
-4.6143368e+48
-3.5171801e+48
-3.5788028e+48
-4.5465161e+48
-1.9427477e+49
-1.7437701e+49
1.3663264e+49
-1.673397e+49
-2.2090476e+49
-1.8511976e+49
-1.9959465e+49
2.3077709e+48
-1.7326386e+49
-3.2976539e+48
-1.7795735e+49
-1.5308726e+49
-7.1057685e+49
-1.6069064e+49
1.0653664e+49
-1.6876236e+49
-2.0188603e+49
-1.0230869e+49
7.0000447e+49
5.2361713e+48
-3.8007575e+48
-4.9908039e+48
4.2016294e+48
-8.7717002e+49
-6.9589952e+49
1.2076098e+49
6.316983e+48
4.8566546e+48
-3.4431504e+48
-4.6230103e+48
-1.6835095e+49
-1.4590036e+49
3.5964632e+48
-5.2726915e+48
4.8097202e+48
-4.3857124e+48
-8.5874834e+49
5.6356795e+49
1.3259319e+49
1.5617614e+49
-5.5652786e+49
5.0527024e+48
-2.9873499e+48
-4.4879644e+48
6.1544852e+48
-1.8476625e+48
-1.7151676e+49
-6.2117115e+47
-8.6784852e+47
1.321545e+48
1.4892018e+48
-1.7453059e+49
-2.4196058e+48
-7.0023478e+47
-8.6840155e+47
1.2576417e+48
1.4873998e+48
-1.4463842e+48
-2.1057123e+49
-8.6458842e+47
-1.0807832e+48
1.0620125e+48
1.2175422e+48
-2.043074e+48
-2.1482513e+49
9.99778e+47
-9.4913914e+47
-1.0770552e+48
1.1965595e+48
1.2202032e+48
1.5947267e+49
-1.8072929e+48
-1.1932237e+48
7.4642955e+47
-1.0892476e+48
9.1610873e+47
-1.9856372e+49
1.6239138e+49
1.6154062e+48
-1.1980992e+48
8.3165258e+47
9.6280575e+47
-1.0293042e+48
-2.0483109e+49
-1.4912608e+48
2.1278195e+49
1.9272663e+48
-9.8512544e+47
-1.1995396e+48
8.1785287e+47
9.6445887e+47
2.0978133e+49
-2.0559922e+48
-1.059691e+48
-1.1877902e+48
7.581303e+47
9.4959737e+47
9.2386864e+48
-1.2658594e+49
3.4259413e+48
4.6235112e+48
-5.5044996e+48
-4.4795702e+48
3.4314546e+48
4.3143873e+48
-1.5356554e+48
1.6993127e+49
1.0169985e+48
-1.0825171e+48
1.1846664e+48
-8.6862693e+47
1.6834382e+49
-2.1537782e+48
-9.3094e+47
-1.0729576e+48
9.3977917e+47
1.1548241e+48
1.9430506e+48
-2.5509752e+48
-6.8257718e+47
-8.6944424e+47
1.1667718e+48
1.4154475e+48
1.2293501e+48
-8.7500766e+47
-6.3645055e+47
1.4063006e+48
-1.613174e+49
1.3305418e+48
8.1601214e+47
-1.0325069e+48
-1.1656281e+48
1.004945e+48
1.1431319e+48
-2.0196694e+49
9.0086318e+47
7.2734817e+47
-1.2560802e+48
-1.1512671e+48
1.596186e+49
-1.9988026e+49
-1.2143804e+48
8.4096052e+47
-1.0516457e+48
9.4471834e+47
-9.7040105e+47
-1.1592508e+48
8.621841e+47
9.8132183e+47
-3.6359101e+48
4.6422379e+48
-2.7330513e+47
-2.4438708e+47
1.7554842e+47
-2.2358919e+47
2.095573e+47
-4.6217382e+48
-2.3711528e+47
-2.4494088e+47
1.7208098e+47
-2.290209e+47
2.0292958e+47
-3.6105581e+48
-2.1862352e+47
-2.5288898e+47
1.697362e+47
-2.375987e+47
1.9839315e+47
-1.7773814e+47
1.5401773e+47
1.7702662e+47
-2.7402991e+47
-4.5031352e+48
-2.6711359e+47
-1.664924e+48
7.5435509e+47
8.9030227e+47
-1.2592659e+48
-1.1971805e+48
-4.7634751e+48
-3.5869066e+47
-1.9739144e+47
2.5059928e+47
-1.714719e+47
-3.6810327e+48
-3.4038889e+47
-2.2385535e+47
2.0537567e+47
-1.9773336e+47
2.4530477e+47
-2.7813008e+47
-2.2974906e+47
1.8841831e+47
-2.0891608e+47
2.2482902e+47
-3.2312278e+47
3.656714e+47
3.5635248e+47
-4.7973981e+48
-4.6770664e+46
-9.0610962e+46
-4.0888559e+47
3.2601069e+47
3.6909195e+47
-4.8989817e+48
-9.9281312e+46
-6.5708871e+46
3.2469053e+47
-4.2806685e+47
3.1488927e+47
3.6433402e+47
-4.8092742e+48
-9.8444666e+46
-6.3434055e+46
3.4182718e+47
3.5947813e+47
-4.8854452e+48
-1.0018049e+47
-5.739624e+46
3.517849e+47
3.026251e+47
3.5185741e+47
-4.6370883e+48
-9.6277447e+46
-6.0559854e+46
-4.6431958e+47
-2.1080692e+48
1.5853647e+48
1.6718442e+48
-2.0933115e+49
-1.4707876e+47
-4.0655967e+47
4.4575738e+47
3.2627486e+47
3.4759668e+47
-4.7346194e+48
-1.0040618e+47
-5.5495021e+46
-3.4243926e+47
3.5600297e+47
3.4236676e+47
-4.7057208e+48
-9.4849088e+46
-4.9140184e+46
3.5836168e+47
3.0933294e+47
-4.7819226e+48
-1.0285434e+47
-6.5817179e+46
-2.7162972e+48
1.4048621e+48
1.6543363e+48
-2.138385e+49
-2.4688898e+47
-4.6184115e+47
-2.1678512e+48
1.5280035e+48
1.654162e+48
-2.1752896e+49
-4.6119506e+47
-2.0211883e+47
1.6466358e+48
1.368541e+48
-2.1220041e+49
-2.344342e+47
-4.6039746e+47
-2.9231695e+48
7.2344249e+48
8.2026781e+48
-8.8682717e+49
-2.1706084e+47
-2.002947e+48
-1.5047567e+49
-3.1777538e+48
-1.6732178e+48
-9.0009449e+49
-3.139824e+48
-1.5977458e+48
-1.5131012e+49
-8.8175107e+49
-2.0674752e+48
2.217092e+48
-2.3964287e+48
1.4680897e+48
1.2472093e+48
-1.8886652e+49
-3.293858e+47
-8.4219613e+46
2.1559438e+48
-2.8759248e+48
-2.1510828e+49
2.3437055e+48
-2.132021e+49
1.3242992e+48
1.4755881e+48
-1.8940259e+49
-3.0101505e+47
-5.6838578e+46
-2.1247105e+48
2.1497939e+48
2.1935014e+48
-3.1113663e+48
-1.8269028e+49
2.1718191e+48
-3.4222122e+48
-5.4586406e+48
-1.6277758e+49
2.278695e+48
-6.3807759e+48
-1.597869e+49
2.3187905e+48
-1.8207086e+49
-1.9913684e+48
2.4170001e+48
1.4329242e+48
1.203439e+48
-2.4347161e+48
-1.8531541e+49
-3.3039393e+47
-7.6848772e+46
2.287188e+48
-2.9167898e+48
-2.0924119e+49
2.2680281e+48
-2.0913701e+49
1.4412034e+48
1.2736548e+48
-1.860065e+49
-3.1170321e+47
-4.9658301e+46
2.3243661e+48
5.8464656e+47
-3.5371383e+48
-3.2980918e+48
-3.9085444e+48
-3.1541843e+48
-3.828305e+48
5.1111912e+47
-4.0288056e+48
-3.7057058e+48
-3.3812134e+48
-3.049058e+48
2.9332124e+48
-4.2081066e+48
-2.2938794e+48
-2.6690779e+48
-2.4910307e+48
-2.1855086e+48
-2.4313759e+48
-2.4517195e+48
-2.7794852e+48
-2.1785206e+48
-4.4895394e+47
6.3852545e+47
5.9779321e+47
-3.2123248e+48
6.0620275e+47
-3.1891586e+48
-5.8134565e+47
4.6103606e+47
5.6583972e+47
-5.480132e+47
-3.1513971e+48
5.743405e+47
5.6354609e+47
-3.1882884e+48
5.3415195e+47
6.8465471e+46
-6.5015957e+47
-4.538616e+47
-4.2694205e+47
-5.6033486e+47
-5.7552372e+47
-6.1194484e+45
6.8469612e+47
-4.7416288e+47
-4.1589258e+47
-5.498065e+47
-6.0099523e+47
-5.4217507e+47
6.8058885e+47
-4.2160676e+47
-3.6155128e+47
-4.7756573e+47
-4.2865756e+47
-6.1296017e+47
-3.9677576e+47
-4.4060945e+47
-3.6618379e+47
-4.19515e+47
-3.8192873e+47
6.6169002e+47
5.9136537e+47
-3.2144464e+48
6.2485726e+47
-3.2301426e+48
-3.9486308e+47
5.9964403e+47
5.5594292e+47
-3.201043e+48
5.805115e+47
-3.2081807e+48
4.7498549e+47
4.9771155e+46
-5.898487e+47
-4.6387255e+47
-5.7370851e+47
-4.3613296e+47
1.5252929e+45
6.6082804e+47
-6.1159775e+47
-5.565106e+47
-4.8008035e+47
-4.1780317e+47
4.8177907e+47
-4.0928467e+47
-3.7855387e+47
-4.3803664e+47
-4.5487606e+47
6.3634436e+47
-3.6930332e+47
-4.9202676e+47
-4.4053923e+47
-4.309294e+47
3.4820427e+47
6.5635155e+47
-5.5075283e+47
-3.3038151e+48
6.945783e+47
-3.2931761e+48
-3.584672e+47
6.2750068e+47
-3.2531878e+48
-5.1842783e+47
6.129112e+47
-3.273694e+48
5.1761879e+47
7.1926257e+46
-5.9342575e+47
-5.9651536e+47
-5.8346465e+47
-4.6570584e+47
-4.4034401e+47
3.6019077e+45
-6.0899511e+47
6.4089514e+47
-6.2328732e+47
-5.7104605e+47
-4.8755222e+47
-4.2923747e+47
-5.2811008e+47
6.3493204e+47
-4.3985604e+47
-4.976352e+47
-3.7892621e+47
-4.5021348e+47
-4.1392239e+47
-4.5957803e+47
-3.8449793e+47
-4.4065543e+47
-4.3004657e+47
6.7041545e+47
-3.2881211e+48
6.3278915e+47
-3.2625822e+48
-4.4208597e+47
-3.2601466e+48
-3.2259808e+48
4.4418034e+47
4.4657458e+46
-6.0664738e+47
-5.8958528e+47
-4.7323028e+47
-4.4491184e+47
5.2039261e+45
-6.2563244e+47
-5.710851e+47
-4.84851e+47
-4.2470334e+47
4.4640943e+47
-4.2503178e+47
-4.7783403e+47
-3.9435874e+47
-4.6137323e+47
-4.439839e+47
-3.8251498e+47
-5.0893586e+47
-4.5848554e+47
1.7684818e+49
1.6508159e+48
-1.8325962e+49
-1.9093609e+49
-1.7142055e+49
1.2768387e+48
-1.8203344e+49
-2.012188e+49
-1.8766094e+49
-1.6840569e+49
2.1074039e+49
-1.4879982e+49
-1.1707807e+49
-1.6827224e+49
-1.4718638e+49
-1.3736079e+49
-1.1822337e+49
-2.064145e+48
2.5773019e+48
2.1156795e+48
-3.132652e+48
-1.7901171e+49
2.5083805e+48
-5.1592988e+48
-3.3614162e+48
-1.5860493e+49
2.2069262e+48
-6.4211233e+48
-1.5751756e+49
2.2212918e+48
-1.8060134e+49
2.8877694e+48
5.7080967e+47
-3.6150162e+48
-3.7575167e+48
-3.8248795e+48
-3.2370446e+48
-3.0933669e+48
4.2400601e+47
-3.9736837e+48
-3.3517634e+48
-3.6619018e+48
-3.0218582e+48
3.4696928e+48
-4.326659e+48
-2.5990274e+48
-2.2357172e+48
-2.4145853e+48
-2.1018279e+48
-2.4035015e+48
-2.4275307e+48
-2.754005e+48
-2.1531048e+48
-1.4941971e+47
5.9957626e+46
-6.4772552e+46
1.5912869e+47
-1.6390721e+47
-1.6419366e+47
-2.3703806e+47
-2.438596e+47
5.6709593e+46
-7.6321237e+46
-8.5423006e+47
-1.5773155e+47
5.8539867e+46
1.7890252e+47
-2.5090209e+47
-1.6996347e+47
-1.6033759e+47
-2.3658595e+47
6.8797451e+46
-8.7035629e+47
3.5163168e+46
-1.5626041e+47
1.7244887e+47
-1.6631077e+47
-1.6584156e+47
-2.4103296e+47
-2.4603573e+47
-1.6440082e+47
1.821521e+47
-1.6041099e+47
-1.6983987e+47
-2.4978274e+47
-2.3330962e+47
-4.2162144e+46
-8.4843244e+47
-8.6863009e+47
6.7783351e+46
-1.4692468e+47
-6.5166558e+46
1.5269856e+47
-1.6049258e+47
-1.6161523e+47
-2.3306764e+47
-2.4010591e+47
-1.5573175e+47
7.5818972e+46
1.722974e+47
-1.6740064e+47
-1.5819266e+47
-2.4717998e+47
-2.3393305e+47
6.4952003e+46
-8.1892934e+46
-8.3798275e+47
8.1958237e+46
-8.5867873e+47
-1.4914692e+47
4.8455463e+46
1.6352799e+47
-1.6278714e+47
-1.6353269e+47
-2.3769042e+47
-2.4329174e+47
4.8598365e+46
-8.6193851e+47
-1.6046723e+47
1.789943e+47
-1.68002e+47
-1.5765786e+47
-2.4759207e+47
-2.3121011e+47
-8.4886747e+47
-2.7253752e+47
-7.4995306e+47
6.3267954e+47
-8.038201e+47
-7.4850906e+47
-9.8147309e+47
-1.0612267e+48
7.1715516e+46
-1.4637057e+47
1.580597e+47
-6.7891697e+46
-1.5732967e+47
-1.5826725e+47
-2.2945158e+47
-2.3639986e+47
-1.5305287e+47
8.3324975e+46
1.7408915e+47
-1.637535e+47
-1.5410345e+47
-2.430336e+47
-2.2958126e+47
6.7866346e+46
-8.1927618e+47
-8.1808827e+46
9.0869717e+46
-8.3889706e+47
-6.8964702e+47
-4.1088858e+47
5.4429684e+47
-7.8020417e+47
-7.7030952e+47
-1.0348809e+48
-1.0171731e+48
2.8325284e+47
-4.4683239e+47
-3.8711535e+48
-3.7732186e+48
-1.4428134e+47
5.5692877e+46
1.5839716e+47
-1.5844532e+47
-1.5943335e+47
-2.3315943e+47
-2.3820202e+47
5.5976536e+46
-8.4172326e+47
-1.5513758e+47
7.5288708e+46
1.7357777e+47
-1.5344363e+47
-1.6396824e+47
-2.4296388e+47
-2.2610419e+47
8.7783849e+46
-8.2993225e+47
6.8694428e+46
-1.4085133e+47
1.4706978e+47
-1.5824808e+47
-1.5893967e+47
-2.3129854e+47
-2.3744074e+47
-1.5112717e+47
7.1200415e+46
1.7036772e+47
-1.5690046e+47
-1.6597434e+47
-2.4610447e+47
-2.3150205e+47
-6.4670862e+46
7.9724097e+46
-8.5364396e+47
-8.3456366e+47
4.3412397e+46
-1.4951781e+47
1.6401411e+47
-1.6215177e+47
-2.3655801e+47
-2.4084345e+47
-1.6061484e+47
-1.6024082e+47
1.7681555e+47
-1.6644096e+47
-1.5713067e+47
-2.4565543e+47
-2.3014223e+47
-4.8698368e+46
-8.3633882e+47
-8.5310637e+47
3.9144699e+47
-6.3918865e+47
-4.4384896e+47
4.9235392e+47
-7.6043439e+47
-7.4994574e+47
-1.0101752e+48
-9.849246e+47
-7.0029037e+47
6.0838374e+47
-7.9597194e+47
-7.3930928e+47
-9.819683e+47
-1.052178e+48
3.5215794e+47
-4.8809527e+47
-3.789316e+48
-3.8512225e+48
3.4020219e+47
-6.7953253e+47
-4.9819407e+47
5.4806107e+47
-7.6198602e+47
-7.4799963e+47
-9.9605467e+47
-1.0112946e+48
-7.4563839e+47
6.485556e+47
-1.047447e+48
-7.8950924e+47
-7.2990231e+47
-9.6722546e+47
3.1700582e+47
-5.1508523e+47
-3.8543454e+48
-3.7960051e+48
-2.2228162e+48
-3.9755836e+48
2.8754363e+48
-3.7729892e+48
-3.4553369e+48
-4.4050471e+48
-4.8188956e+48
7.2263434e+47
-3.8800355e+47
-3.817417e+48
-4.2776386e+47
6.4108125e+47
-7.7799907e+47
-7.2524422e+47
-1.0353819e+48
-9.674317e+47
-6.5309222e+47
5.2087387e+47
-4.4858012e+47
-9.6561019e+47
-7.3915866e+47
-7.3155188e+47
-9.8944685e+47
-3.7182096e+48
-5.00861e+47
3.5369541e+48
2.0995197e+48
-3.2924198e+48
-1.7200103e+49
-3.316959e+48
2.4300387e+48
-4.5747707e+48
-3.6313424e+48
-3.5394485e+48
-4.5653532e+48
-1.6930504e+49
-3.6250995e+48
2.6673542e+48
-3.7515115e+48
-4.7598462e+48
-3.4265443e+48
-4.4026e+48
-1.6917828e+49
-1.5770331e+49
-1.5265191e+48
2.0722836e+49
-9.469027e+47
-1.1517061e+48
8.5696569e+47
9.9583655e+47
-1.2662424e+48
-1.1603168e+48
-9.8660764e+47
8.3944061e+47
9.5913512e+47
-1.976379e+49
1.591544e+49
-1.6781672e+48
-1.1875267e+48
-1.0864809e+48
7.490042e+47
9.0384288e+47
-1.9873157e+49
-1.8959922e+48
2.1008936e+49
7.6174842e+47
-1.0469811e+48
-1.1763286e+48
9.3916924e+47
-1.0326583e+49
4.5827093e+48
3.6199213e+48
-3.990974e+48
-5.2101244e+48
-2.0033687e+48
-1.70101e+49
2.4906052e+48
-6.4940714e+47
-8.9144399e+47
1.4044979e+48
1.2233053e+48
-1.6730057e+49
-6.7559857e+47
-8.702742e+47
-2.6798126e+48
1.422477e+48
1.1665102e+48
-1.6142098e+48
-2.1015673e+49
1.9829511e+48
-8.7912167e+47
-1.0844524e+48
9.9710826e+47
1.1601484e+48
-2.067239e+49
-2.3751254e+48
-9.2204196e+47
1.1398967e+48
-1.0613058e+48
9.2369074e+47
-6.6318608e+49
6.1088693e+48
-2.9527472e+48
-4.4259662e+48
4.9491827e+48
3.9570547e+48
-4.9877849e+48
-3.7123682e+48
4.9827276e+48
-8.2303986e+49
-1.5821717e+49
1.6236132e+48
-2.3436837e+48
7.4290078e+47
-1.0397757e+48
-1.1828908e+48
9.4562756e+47
1.3959547e+48
-2.007676e+48
8.9722143e+47
7.1428366e+47
-1.2086237e+48
-1.0933954e+48
-1.9792173e+49
-1.6002686e+49
7.9806146e+47
-1.0073545e+48
-1.2018845e+48
9.3553249e+47
9.005857e+47
7.7545564e+47
-1.228747e+48
-1.0582466e+48
-2.0059658e+49
-1.4331092e+49
3.3985853e+48
4.4609025e+48
-5.2678479e+48
-4.2630468e+48
-1.6824839e+49
1.9111912e+48
-6.7387511e+47
-8.5623998e+47
1.1897906e+48
1.4134304e+48
-1.563819e+48
1.6696111e+49
1.2251335e+48
-1.0289606e+48
-8.0411659e+47
1.0573599e+48
9.4578665e+47
-9.1874852e+47
-1.0562998e+48
1.1445267e+48
1.2544975e+48
-5.7443385e+47
-8.290563e+47
1.4266899e+48
-2.7020752e+47
3.7683798e+48
-4.6810331e+48
-1.9544073e+47
-1.5354487e+47
2.6256654e+47
2.8941845e+47
3.8166263e+48
-3.4575136e+47
-4.7705176e+48
-1.9783348e+47
2.4673112e+47
-1.7217794e+47
2.8486735e+47
3.0423476e+47
-3.8912652e+47
-1.5978524e+47
2.8568224e+47
-1.2918434e+47
3.2736885e+47
-1.5553002e+47
3.0058312e+47
-1.1193276e+47
3.2711797e+47
-2.5695353e+47
3.8066924e+48
-4.765114e+48
-2.0131464e+47
-1.6309956e+47
2.5325821e+47
2.8054523e+47
3.7793523e+48
-4.7084902e+48
-3.5967389e+47
2.4399035e+47
-1.9520888e+47
-1.7001682e+47
2.846923e+47
3.0302581e+47
-3.9363319e+47
-1.5766259e+47
-1.2837716e+47
2.7991834e+47
3.2444875e+47
-1.631855e+47
-1.2240785e+47
2.9001444e+47
3.1812512e+47
-2.1891387e+47
3.6032253e+48
-4.5243086e+48
-2.3006361e+47
-1.9295922e+47
1.9844477e+47
2.2185704e+47
3.6581947e+48
-2.8862636e+47
-4.6280231e+48
-2.330288e+47
-2.1085583e+47
1.8431571e+47
2.1832696e+47
2.5799818e+47
-3.3137944e+47
-2.2351507e+47
2.0335088e+47
-1.9723817e+47
2.404734e+47
-2.2042561e+47
-1.8003175e+47
2.1668343e+47
2.4111758e+47
-3.6278169e+48
2.575197e+47
-3.5840716e+47
-2.2324326e+47
2.0065922e+47
-1.9755003e+47
2.4012636e+47
-2.2362373e+47
3.6652632e+48
-4.6462686e+48
-2.3643078e+47
-2.021988e+47
1.9066674e+47
2.1482681e+47
-3.1983142e+47
-4.5656767e+48
-2.3128494e+47
1.8017366e+47
-2.095504e+47
2.1767413e+47
-2.2746626e+47
-1.9088148e+47
2.0849887e+47
2.3269781e+47
3.5464989e+48
1.5754442e+47
-2.2891333e+47
1.4844478e+47
1.7521228e+47
-4.4569156e+48
-2.6219531e+47
-2.7290016e+47
1.986854e+47
4.5018574e+48
-2.7975374e+47
-2.5061429e+47
-2.3069992e+47
1.6067612e+47
1.9277758e+47
3.5841711e+48
1.9483592e+47
1.5608573e+47
1.731842e+47
-4.5042932e+48
-2.5398497e+47
-2.8170215e+47
2.4030936e+47
4.5817336e+48
-2.5522333e+47
-2.2548733e+47
1.6979419e+47
1.8783876e+47
1.3039531e+48
-1.5122647e+49
-1.8965226e+48
7.5055902e+47
8.7355328e+47
-1.1842697e+48
-1.1550567e+48
3.6099973e+48
1.5819037e+47
1.477915e+47
1.7636221e+47
-4.5516693e+48
-2.6418613e+47
-2.7974934e+47
1.9702734e+47
4.6162063e+48
-2.535054e+47
1.6254335e+47
-2.3346979e+47
1.9315744e+47
-3.5759346e+48
4.5444429e+48
2.8445859e+47
-2.5048945e+47
1.7876878e+47
-2.1822165e+47
1.9680855e+47
2.3842819e+47
1.6180077e+47
1.8238907e+47
-4.5066223e+48
-2.4434653e+47
-2.7869774e+47
-1.5544904e+49
1.619095e+48
7.8367428e+47
9.1426785e+47
-1.0514611e+48
-1.2763166e+48
-2.0448881e+47
3.5464542e+48
2.8756832e+47
-2.4252222e+47
-2.0853545e+47
1.7964684e+47
2.0119458e+47
3.582997e+48
-2.5925846e+47
-2.4555011e+47
1.6393136e+47
-2.2604748e+47
1.9610556e+47
2.3014481e+47
-3.0592184e+47
4.5783079e+48
-2.4469507e+47
1.6501114e+47
-2.2112107e+47
1.9912412e+47
4.4975304e+48
3.1654791e+47
-2.4286282e+47
1.7717017e+47
-2.0635435e+47
1.990267e+47
-2.0194148e+47
3.5589748e+48
-2.467459e+47
1.7267989e+47
-2.1490477e+47
1.947216e+47
3.5127899e+48
-2.9630083e+47
-2.4168598e+47
1.6240419e+47
-2.2187708e+47
1.9679552e+47
2.5331964e+47
4.4589253e+48
-3.4318023e+47
-2.4210037e+47
1.6190336e+47
-2.1730225e+47
1.9935491e+47
4.5468555e+48
-2.4627682e+47
1.7140517e+47
-2.1100354e+47
1.9498972e+47
1.2008575e+48
-1.7591215e+48
7.1410925e+47
-1.272097e+48
-1.1835369e+48
8.4176883e+47
-1.2682121e+48
8.1004869e+47
9.1354496e+47
1.1926869e+48
-1.266859e+48
6.6511384e+47
-1.1876879e+48
8.1462135e+47
-1.0924347e+48
-1.2466029e+48
7.6736993e+47
8.5409096e+47
-3.6094136e+48
2.7557564e+47
-3.5507004e+47
4.6907619e+48
-2.2296634e+47
-1.9499385e+47
1.9711315e+47
2.3599158e+47
2.4046031e+47
-3.094744e+47
-2.3106833e+47
-2.0758312e+47
1.7883861e+47
2.1520414e+47
-3.5592315e+48
4.6133991e+48
-2.1995768e+47
2.105807e+47
-1.790901e+47
2.3613446e+47
-1.9140132e+47
-2.292368e+47
1.9272323e+47
2.1821577e+47
-2.4956504e+47
3.5845977e+48
-2.327258e+47
1.8685792e+47
-1.9644753e+47
2.1372387e+47
3.5350151e+48
-3.5866619e+47
-2.2807714e+47
1.7604005e+47
-2.0361249e+47
2.1570334e+47
2.8871022e+47
4.5719706e+48
-4.043372e+47
-2.198421e+47
1.9408425e+47
-1.9130752e+47
2.3551606e+47
4.6500893e+48
-2.2441781e+47
2.030981e+47
-1.8543404e+47
2.2972641e+47
-2.8364574e+47
3.715244e+48
3.6448646e+47
-1.974077e+47
-1.5713124e+47
2.4790231e+47
2.7806408e+47
3.6670745e+48
-4.0683295e+47
-1.9264366e+47
-1.6472959e+47
2.3620901e+47
2.7980328e+47
3.3489374e+47
-4.4432458e+47
-1.571045e+47
-1.2357968e+47
2.7010888e+47
3.1676427e+47
4.2194653e+47
-1.6169539e+47
-1.1854429e+47
2.7933404e+47
3.0992497e+47
-3.7479372e+48
3.1782576e+47
-1.6233888e+47
2.73154e+47
-1.291786e+47
3.1784898e+47
2.8014148e+47
-1.9630499e+47
2.3845664e+47
-1.6918066e+47
2.7919113e+47
3.7053117e+48
-1.94199e+47
-1.5198261e+47
2.5486073e+47
2.8342541e+47
-1.5827209e+47
2.8727997e+47
-1.142594e+47
3.1533563e+47
-3.5543376e+48
2.240776e+47
-2.4632371e+47
1.6617066e+47
-2.2436568e+47
2.016622e+47
-1.808927e+47
3.6029453e+48
-4.5751591e+48
2.1568925e+47
-2.4848908e+47
-2.1905952e+47
1.767493e+47
1.9570989e+47
-4.4940732e+48
-2.4657197e+47
1.6158423e+47
-2.2876718e+47
1.9453802e+47
2.7642026e+47
-2.4857204e+47
-2.1574169e+47
1.7626821e+47
1.9732467e+47
-1.849988e+47
-3.5683084e+48
1.9702661e+47
-2.5401005e+47
1.7387595e+47
-2.2676518e+47
1.888842e+47
-3.5249112e+48
-2.543085e+47
1.5866524e+47
-2.3657964e+47
1.8986898e+47
1.4760983e+47
-4.4371122e+48
1.3526433e+47
1.6930562e+47
-2.8617684e+47
-2.7145394e+47
1.6295328e+47
-4.5055716e+48
1.5267178e+47
1.658052e+47
-2.619705e+47
-2.8585384e+47
3.589871e+48
1.2362371e+47
-4.542304e+48
1.5387305e+47
1.724619e+47
-2.697398e+47
-2.7921287e+47
1.5081163e+47
4.5988896e+48
-2.5001821e+47
1.673267e+47
-2.3298767e+47
1.938363e+47
3.5360925e+48
-4.442202e+48
1.6107004e+47
1.7309809e+47
-2.5444147e+47
-2.793771e+47
4.5075522e+48
-2.4743038e+47
1.7905495e+47
-2.1881425e+47
1.9263652e+47
-1.7038043e+47
3.544018e+48
-2.4347843e+47
1.8159182e+47
-2.1145382e+47
1.9973883e+47
3.5946083e+48
-2.4593529e+47
1.677393e+47
-2.2836719e+47
1.9690258e+47
2.0411054e+47
-2.4580974e+47
1.6911109e+47
-2.2356668e+47
2.0134452e+47
-2.4291569e+47
1.8135197e+47
-2.0755846e+47
2.0095887e+47
7.324131e+47
3.4904074e+46
-9.4370905e+47
-5.1089296e+46
4.2778971e+46
-4.9662328e+46
3.5523435e+46
-4.5545831e+46
3.8797e+46
9.3562308e+47
-5.2209409e+46
-4.9440047e+46
3.6384633e+46
4.36621e+46
-4.4855766e+46
7.4586734e+47
-9.6506826e+47
-4.4109467e+46
4.2509152e+46
-5.0693457e+46
3.8008121e+46
9.5805172e+47
-5.0467128e+46
3.8740386e+46
-4.3724195e+46
4.3164346e+46
7.4138172e+47
3.1142951e+46
-9.5517664e+47
-4.5520213e+46
4.2908094e+46
-4.9687538e+46
3.580669e+46
-4.5795836e+46
3.4384833e+46
-4.850264e+46
-4.9792632e+46
3.603377e+46
4.3084864e+46
-4.5454483e+46
7.5516163e+47
-9.7730189e+47
4.2194483e+46
-5.0849145e+46
3.8079673e+46
-4.4687055e+46
-5.0963471e+46
3.8289017e+46
-4.4287413e+46
4.2416016e+46
7.5678555e+47
2.6435106e+46
-9.8080653e+47
-3.9915148e+46
4.3061181e+46
-4.9381262e+46
3.6530857e+46
-4.5598659e+46
3.0679633e+46
-4.2408451e+46
-5.0037031e+46
3.6158839e+46
4.2897104e+46
-4.5944928e+46
7.6868341e+47
-9.9984251e+47
4.2874878e+46
-5.0339829e+46
3.880443e+46
-4.41616e+46
-5.1362503e+46
3.8189232e+46
-4.5069476e+46
4.2166808e+46
2.6584758e+46
-7.8579005e+47
-3.7617905e+46
-5.2824643e+46
-4.9779752e+46
3.2999884e+46
3.9639019e+46
-7.9581161e+47
3.1071391e+46
3.4659727e+46
3.8803408e+46
-5.5255767e+46
-4.9698258e+46
2.0029132e+46
-2.9647239e+46
-5.2449151e+46
-9.9775268e+47
1.0415884e+47
-3.510387e+48
-1.7811273e+47
1.6228543e+47
-2.5653869e+47
-2.537237e+47
1.8353796e+47
2.5296797e+46
-1.0147391e+48
-5.3453635e+46
-8.0023324e+47
-5.4540394e+46
-5.1486484e+46
3.3034547e+46
3.9103873e+46
-3.5677308e+48
1.7343221e+47
-2.6204514e+47
-2.4746914e+47
1.8082023e+47
-1.0226928e+48
-5.4533982e+46
6.8575621e+46
-1.5520492e+47
1.6755414e+47
-2.6556916e+47
-2.6124182e+47
1.8224404e+47
1.7096087e+47
-2.7637056e+47
-2.5512807e+47
1.7937531e+47
7.6344471e+47
4.3996128e+46
-9.617157e+47
-6.320817e+46
5.4503031e+46
-4.2773248e+46
4.6458624e+46
-3.8096735e+46
-6.6264329e+46
-3.9442092e+46
5.0922274e+46
5.8894979e+46
-3.4349273e+46
-9.8543861e+47
5.4131401e+46
-4.3991778e+46
4.9211468e+46
-3.6852045e+46
7.43189e+47
4.157865e+46
-9.4443342e+47
-6.0710178e+46
4.7015141e+46
-4.7100084e+46
3.9076245e+46
-4.2470673e+46
4.6342139e+46
-6.3650614e+46
-4.6144816e+46
4.1699545e+46
4.963783e+46
-4.1035072e+46
7.5745644e+47
-9.6674939e+47
-4.1101478e+46
4.6806269e+46
-4.8101074e+46
4.1778178e+46
-4.7080014e+46
4.4329744e+46
-3.9890056e+46
4.9057943e+46
7.3223224e+47
3.807472e+46
-5.3284907e+46
4.4111827e+46
-4.8161714e+46
3.679893e+46
-4.3897045e+46
4.2917121e+46
-5.8514055e+46
-4.7948798e+46
3.764666e+46
4.5234485e+46
-4.3118279e+46
7.4643508e+47
4.4005183e+46
-4.9280103e+46
3.9184983e+46
-4.2520849e+46
-4.9058641e+46
4.0061138e+46
-4.2027871e+46
4.4720563e+46
-5.5306138e+46
7.7983279e+46
7.7633252e+46
-1.0254254e+48
-2.6199382e+46
-1.8423451e+46
-6.7591199e+46
7.208399e+46
7.9279446e+46
-1.0483625e+48
-2.7775294e+46
-2.2181638e+46
5.3792093e+46
-7.3956854e+46
7.0180567e+46
7.8571167e+46
-1.0320214e+48
-2.7786235e+46
-2.2290692e+46
7.5717968e+46
7.6536621e+46
-1.0520665e+48
-2.8645296e+46
-2.1407041e+46
5.9315116e+46
-7.8790418e+46
6.8390268e+46
7.9106693e+46
-1.0163493e+48
-2.7203742e+46
-2.0896005e+46
7.5474872e+46
7.3633455e+46
7.7402359e+46
-1.0407544e+48
-2.0234385e+46
-2.8319558e+46
5.8701338e+46
6.8742133e+46
7.8593362e+46
-1.0414944e+48
-2.865949e+46
-2.2527081e+46
7.4781815e+46
7.5858137e+46
-1.02493e+48
-1.9748258e+46
-2.7480966e+46
6.3248489e+46
6.7795068e+46
7.8347863e+46
-9.9555453e+47
-8.2793085e+46
-2.6405414e+46
-2.0192003e+46
8.1528107e+46
7.2459509e+46
7.6406348e+46
-1.0193431e+48
-1.9513747e+46
-2.7745513e+46
-3.4640425e+47
3.5717052e+47
3.4560174e+47
-4.6155849e+48
-4.0022362e+46
-8.5377692e+46
-4.2837762e+47
3.6182574e+47
3.1781384e+47
-4.7242239e+48
-9.2947608e+46
-5.8207887e+46
6.4744882e+46
6.7197101e+46
7.7412288e+46
-1.0197754e+48
-2.8391135e+46
-2.17891e+46
8.2402422e+46
7.2926296e+46
7.4497386e+46
-1.0040227e+48
-2.7439038e+46
-1.9046781e+46
6.0968474e+46
-7.6047016e+46
6.9760238e+46
7.7652386e+46