/*--------------------------------*- C++ -*----------------------------------*\
  =========                 |
  \\      /  F ield         | OpenFOAM: The Open Source CFD Toolbox
   \\    /   O peration     | Website:  https://openfoam.org
    \\  /    A nd           | Version:  7
     \\/     M anipulation  |
\*---------------------------------------------------------------------------*/
FoamFile
{
    version     2.0;
    format      ascii;
    class       volVectorField;
    location    "9000";
    object      UMean;
}
// * * * * * * * * * * * * * * * * * * * * * * * * * * * * * * * * * * * * * //

dimensions      [0 1 -1 0 0 0 0];

internalField   nonuniform List<vector> 
33730
(
(-2.9468248e+50 -2.4973317e+49 2.7578655e+49)
(-3.6016168e+50 -1.4725685e+49 2.5563461e+49)
(-2.6175537e+50 -3.9067698e+49 4.2282527e+46)
(-2.6780947e+50 -1.2239226e+49 3.9104471e+49)
(-2.903014e+50 -1.1163797e+49 3.3637279e+49)
(-2.6657551e+50 -1.9622316e+49 3.5582702e+49)
(-2.8754313e+50 -2.5271659e+49 2.455076e+49)
(-2.8688407e+50 -7.1704951e+48 3.0396373e+49)
(-3.6796243e+50 -9.2114457e+48 6.5610185e+48)
(-2.8693454e+50 -7.9514959e+48 2.356185e+49)
(-2.8381759e+50 -4.5543044e+48 2.0710421e+49)
(-3.5112125e+50 -1.8179804e+49 2.3385994e+49)
(-2.5672028e+50 -1.3457848e+49 -3.1595026e+49)
(-2.5862839e+50 -2.1146408e+49 -3.2550858e+49)
(-2.0485209e+50 -3.2663078e+49 -1.090228e+48)
(-2.0337376e+50 -1.7235291e+49 -2.0064859e+47)
(-2.5360852e+50 -3.7408492e+49 -5.1381149e+48)
(-2.24089e+50 -8.2757277e+48 3.0218883e+49)
(-2.7703406e+50 -3.8640636e+48 3.4911469e+49)
(-2.2496002e+50 -9.6970501e+48 2.8467323e+49)
(-2.7564003e+50 -1.0266643e+49 3.6251093e+49)
(-2.2239877e+50 -1.1363268e+49 2.6800769e+49)
(-2.226597e+50 -8.8296475e+48 2.7479062e+49)
(-2.7055607e+50 -4.0245471e+48 3.0784993e+49)
(-2.6243341e+50 -1.5192778e+49 3.5907315e+49)
(-2.7093753e+50 -9.6071568e+48 3.1260813e+49)
(-2.6502055e+50 -2.4824556e+49 3.3899972e+49)
(-2.8376749e+50 -1.2216766e+49 3.001943e+49)
(-2.8996777e+50 -1.0230086e+49 3.0792395e+49)
(-2.7877399e+50 -2.9540332e+49 2.1547127e+49)
(-3.6122894e+50 -1.2008529e+49 6.6018973e+48)
(-3.0081135e+50 -6.914847e+48 1.2765827e+49)
(-2.8710849e+50 -2.2188332e+48 -6.5409542e+48)
(-2.414443e+50 -5.410236e+48 -1.0553057e+48)
(-2.4140727e+50 -5.5096354e+48 -1.0161382e+48)
(-2.4801404e+50 -2.6851446e+48 -2.6610599e+48)
(-2.4681509e+50 -1.1297188e+48 -1.6078302e+48)
(-2.9859568e+50 -2.7853451e+48 1.090813e+49)
(-2.8828879e+50 -3.2921276e+48 -5.7332954e+48)
(-2.6016547e+50 -6.9713219e+48 2.3024616e+49)
(-2.6143827e+50 -1.9363544e+48 2.2017404e+49)
(-2.5673184e+50 -2.0862276e+48 2.0882067e+49)
(-2.5819128e+50 -7.507348e+48 2.1273312e+49)
(-2.8183559e+50 -8.6660868e+48 2.1454504e+49)
(-2.8177862e+50 -5.5940732e+48 1.9458251e+49)
(-2.3888193e+50 -8.9921292e+48 -2.9320524e+49)
(-2.5111282e+50 -5.1936543e+48 -2.6339209e+49)
(-2.487163e+50 -1.0317582e+49 -2.6018398e+49)
(-2.3735885e+50 -9.0262813e+48 -2.9894761e+49)
(-2.5517306e+50 -1.4843894e+49 -3.2293872e+49)
(-2.3690498e+50 -1.0164229e+49 -2.9404864e+49)
(-2.4869039e+50 -5.6492166e+48 -2.5889564e+49)
(-2.4787258e+50 -9.7158994e+48 -2.6114867e+49)
(-2.363799e+50 -8.968591e+48 -2.9736344e+49)
(-2.0269268e+50 -2.1435754e+49 -9.6162945e+47)
(-1.941983e+50 -1.3097203e+49 -3.7554176e+49)
(-1.4625569e+50 -2.1570526e+49 -8.6252886e+47)
(-1.9323532e+50 -9.2727075e+48 -3.7623915e+49)
(-1.4707119e+50 -1.148615e+49 3.3107024e+47)
(-1.9281259e+50 -9.1403736e+48 -3.7733179e+49)
(-1.5019636e+50 -1.962214e+49 1.2067569e+48)
(-1.958795e+50 -1.1577701e+49 -3.7918322e+49)
(-1.4791319e+50 -1.0535382e+49 2.1479105e+48)
(-2.4402439e+50 -4.1334673e+49 -9.5908913e+48)
(-2.5558551e+50 -2.3526068e+49 -3.2440948e+49)
(-2.0442508e+50 -3.7639708e+49 -4.5065282e+47)
(-1.8799114e+50 -5.7615738e+48 2.2436817e+49)
(-1.8754311e+50 -5.1893445e+48 2.3739029e+49)
(-2.416184e+50 -3.2533487e+48 2.9983369e+49)
(-2.4047054e+50 -7.6983715e+48 3.071604e+49)
(-1.8711667e+50 -6.5157693e+48 2.2385369e+49)
(-2.4049734e+50 -2.508497e+48 2.8957011e+49)
(-1.8681118e+50 -5.749799e+48 2.2346467e+49)
(-2.4065712e+50 -6.5812094e+48 2.9048996e+49)
(-1.863786e+50 -7.3576929e+48 2.1357784e+49)
(-2.2152177e+50 -1.0044839e+49 2.8749422e+49)
(-2.3769848e+50 -3.2482864e+48 2.7428694e+49)
(-1.8524833e+50 -6.7631767e+48 2.0710999e+49)
(-2.375568e+50 -7.3418365e+48 2.7218831e+49)
(-1.8685048e+50 -6.881466e+48 2.0880295e+49)
(-1.8623443e+50 -5.6305473e+48 2.2082761e+49)
(-2.3999031e+50 -4.2014005e+48 2.7802998e+49)
(-2.3810531e+50 -7.899299e+48 2.811088e+49)
(-2.6799172e+50 -1.1300575e+49 3.2607049e+49)
(-2.2242476e+50 -1.2048401e+49 2.7135539e+49)
(-2.7114098e+50 -5.0718317e+48 3.2300883e+49)
(-2.1903263e+50 -1.1637802e+49 2.7410853e+49)
(-2.1918201e+50 -1.4532213e+49 2.6879949e+49)
(-2.5660914e+50 -1.9026815e+49 3.4647235e+49)
(-2.7122596e+50 -6.6615127e+48 3.1066624e+49)
(-2.7144884e+50 -1.1050657e+49 3.1658388e+49)
(-2.8525288e+50 -1.5267182e+49 3.0518967e+49)
(-2.5791898e+50 -2.6582256e+49 3.0753811e+49)
(-2.8314826e+50 -1.1787846e+49 2.7236052e+49)
(-2.8448218e+50 -4.7113397e+48 -5.296412e+48)
(-2.9740236e+50 -3.7123089e+48 1.0105673e+49)
(-2.8135679e+50 -2.5404318e+48 -7.6997154e+48)
(-2.3906192e+50 -5.0873e+48 -3.8731346e+47)
(-2.3778594e+50 -5.3913729e+48 -1.2005681e+48)
(-2.3706288e+50 -4.63226e+48 -2.4272776e+48)
(-2.3958829e+50 -4.2202531e+48 -1.8527763e+48)
(-2.9614796e+50 -8.1848668e+48 1.1525769e+49)
(-2.7196188e+50 -5.764846e+48 1.7455241e+49)
(-2.7469357e+50 -1.8029209e+48 1.7216124e+49)
(-2.6120541e+50 -3.315062e+48 1.3102679e+48)
(-2.6176875e+50 -1.7947197e+48 2.5764203e+47)
(-2.5550197e+50 -9.515594e+47 -1.0916072e+49)
(-2.5748051e+50 -2.0633884e+48 -1.072424e+49)
(-2.6478663e+50 -3.7547771e+48 -4.2309192e+48)
(-2.6396287e+50 -1.3311365e+48 -4.3041719e+48)
(-2.898342e+50 2.0258268e+47 -4.5682778e+48)
(-2.8914571e+50 -3.964019e+48 -4.6168947e+48)
(-2.6122675e+50 -4.7753094e+48 1.1518439e+48)
(-2.6072313e+50 -2.1918394e+48 1.0317193e+48)
(-2.6918243e+50 -1.928525e+48 1.5667511e+49)
(-2.6985978e+50 -6.5418791e+48 1.5687255e+49)
(-2.6433003e+50 -1.0418945e+48 -5.0448429e+48)
(-2.5609013e+50 -6.0403316e+47 -1.2245286e+49)
(-2.5688487e+50 -1.7578605e+48 -1.1110569e+49)
(-2.6315521e+50 -3.0792337e+48 -4.3467205e+48)
(-2.274893e+50 -7.9082437e+47 -3.695548e+48)
(-2.223909e+50 -1.3393543e+48 -7.7591139e+48)
(-2.2794189e+50 -8.5112815e+47 -7.3756101e+48)
(-2.2429328e+50 -1.1544671e+48 -9.4385663e+48)
(-2.597851e+50 6.3375519e+47 -1.0767655e+49)
(-2.3015162e+50 -1.0445567e+48 9.4784574e+48)
(-2.3312101e+50 -5.3623373e+47 4.7799057e+48)
(-2.2388685e+50 -1.0617263e+48 -2.4364443e+48)
(-2.2646621e+50 -5.7701689e+48 2.0139137e+49)
(-2.2708095e+50 -1.53213e+48 1.9263797e+49)
(-2.2640806e+50 -1.6588917e+48 1.9083815e+49)
(-2.270031e+50 -5.6986992e+48 1.9042543e+49)
(-2.2394209e+50 -2.1632028e+48 1.8929896e+49)
(-2.5644153e+50 -7.7558846e+48 2.2309935e+49)
(-2.2449043e+50 -6.4282297e+48 1.8664184e+49)
(-2.2499093e+50 -6.0052981e+48 1.8945041e+49)
(-2.254629e+50 -2.4315632e+48 1.8003422e+49)
(-2.5635486e+50 -2.3206976e+48 2.0548713e+49)
(-2.581629e+50 -8.0638958e+48 2.0327794e+49)
(-2.5655324e+50 -3.7610105e+48 2.0034985e+49)
(-2.7982851e+50 -1.1166519e+49 2.0658913e+49)
(-2.9801872e+50 -1.1946635e+49 -2.6339467e+49)
(-2.9499696e+50 -1.1226807e+49 -2.6391469e+49)
(-2.5453534e+50 -7.3771259e+48 -3.3744344e+49)
(-2.4689788e+50 -3.3970603e+48 -1.9981071e+49)
(-2.4536727e+50 -7.988549e+48 -2.0315375e+49)
(-2.5376131e+50 -8.3946379e+48 -3.3972134e+49)
(-2.3611251e+50 -1.0620174e+49 -2.9102313e+49)
(-2.4822906e+50 -6.1663273e+48 -2.6331563e+49)
(-2.453716e+50 -1.1093707e+49 -2.5901634e+49)
(-2.3428538e+50 -1.0499033e+49 -2.9953821e+49)
(-2.5227879e+50 -8.0592613e+48 -3.3573524e+49)
(-2.4498364e+50 -3.5081114e+48 -2.015854e+49)
(-2.4549493e+50 -8.2532721e+48 -2.0721926e+49)
(-2.5271033e+50 -9.1643357e+48 -3.409664e+49)
(-1.9453973e+50 -1.3827025e+49 -3.7644521e+49)
(-1.9119917e+50 -1.1143736e+49 -3.740404e+49)
(-1.5002307e+50 -2.2979198e+49 1.6152865e+48)
(-1.4613873e+50 -1.3580788e+49 8.5501002e+47)
(-2.0034854e+50 -7.2899863e+48 -3.3762356e+49)
(-2.0044171e+50 -5.0896633e+48 -3.3736628e+49)
(-1.6817608e+50 -7.6779812e+48 -3.9862216e+49)
(-1.6807325e+50 -7.4825234e+48 -3.9689843e+49)
(-1.1768872e+50 -9.2636131e+48 -3.5981265e+49)
(-1.1745324e+50 -7.7095881e+48 -3.5497549e+49)
(-1.0397907e+50 -7.2155655e+48 7.7076245e+48)
(-1.0348714e+50 -1.2932676e+49 6.4250831e+48)
(-2.0014137e+50 -7.8095366e+48 -3.433201e+49)
(-2.0128469e+50 -4.68374e+48 -3.4254065e+49)
(-1.6829669e+50 -7.6740964e+48 -4.0578436e+49)
(-1.6927244e+50 -6.7048304e+48 -3.9902718e+49)
(-1.1890072e+50 -8.296098e+48 -3.6054252e+49)
(-1.1707616e+50 -7.6904199e+48 -3.6271906e+49)
(-1.0578154e+50 -1.2314451e+49 8.1989503e+48)
(-1.0437005e+50 -5.8674936e+48 8.4809561e+48)
(-2.0151665e+50 -4.2054333e+48 -3.4205703e+49)
(-2.0052554e+50 -7.5860977e+48 -3.4376177e+49)
(-1.6847303e+50 -7.3826302e+48 -4.0797602e+49)
(-1.6932053e+50 -6.2408771e+48 -3.9967837e+49)
(-1.1925522e+50 -8.3275347e+48 -3.663406e+49)
(-1.1805888e+50 -7.0750284e+48 -3.5943892e+49)
(-1.0564437e+50 -6.1693174e+48 8.9092561e+48)
(-1.0546093e+50 -1.2090298e+49 7.3244124e+48)
(-2.0146473e+50 -6.8523745e+48 -3.4072308e+49)
(-2.0209175e+50 -4.3072617e+48 -3.4142249e+49)
(-1.691727e+50 -6.887782e+48 -4.0158996e+49)
(-1.7022878e+50 -6.7151204e+48 -4.033416e+49)
(-1.1830171e+50 -7.7896059e+48 -3.5937836e+49)
(-1.166517e+50 -7.5510737e+48 -3.6225521e+49)
(-1.0644114e+50 -1.1241288e+49 9.6435645e+48)
(-1.051044e+50 -5.4224381e+48 9.678128e+48)
(-2.5193835e+50 -2.3572583e+49 -3.2793291e+49)
(-2.4874469e+50 -1.5598138e+49 -3.1555084e+49)
(-1.9891817e+50 -3.9028904e+49 -3.8376416e+48)
(-1.955606e+50 -2.4220034e+49 -3.2469304e+48)
(-2.3427114e+50 -1.1916139e+49 -2.9362515e+49)
(-2.4611711e+50 -6.6985527e+48 -2.5683179e+49)
(-2.4435579e+50 -1.041132e+49 -2.5675337e+49)
(-2.3291976e+50 -1.0598222e+49 -2.9047812e+49)
(-1.9284559e+50 -1.5592194e+49 -3.740773e+49)
(-1.9075634e+50 -1.1663099e+49 -3.6949532e+49)
(-1.4643084e+50 -2.5729576e+49 -1.1800602e+47)
(-1.4667502e+50 -1.5948587e+49 1.4895687e+48)
(-1.6251098e+50 -4.7107784e+48 2.1359889e+49)
(-2.0642948e+50 -2.1712831e+48 2.6339033e+49)
(-1.6220777e+50 -3.5687106e+48 2.1059431e+49)
(-2.0666685e+50 -4.3627287e+48 2.6308359e+49)
(-1.6298717e+50 -3.7476179e+48 2.1316447e+49)
(-1.6242592e+50 -3.0568567e+48 2.2053504e+49)
(-2.0588753e+50 -5.4440908e+48 2.7360114e+49)
(-2.0683893e+50 -2.7442736e+48 2.7035086e+49)
(-1.6127833e+50 -5.1364593e+48 2.0989764e+49)
(-1.6167288e+50 -4.6745491e+48 2.0963708e+49)
(-2.0514757e+50 -2.3234787e+48 2.6362987e+49)
(-2.0572436e+50 -5.0573772e+48 2.6455351e+49)
(-1.6210096e+50 -5.1294304e+48 2.0560316e+49)
(-2.061829e+50 -3.4591562e+48 2.594486e+49)
(-1.6128822e+50 -3.7323775e+48 2.1291127e+49)
(-2.0534628e+50 -5.6883768e+48 2.6304422e+49)
(-1.8568257e+50 -6.1939627e+48 2.2652545e+49)
(-1.6140017e+50 -5.6741115e+48 2.0768018e+49)
(-1.6117881e+50 -5.1948654e+48 2.0548002e+49)
(-2.0423219e+50 -3.009236e+48 2.5697126e+49)
(-2.0458731e+50 -5.5279558e+48 2.5684785e+49)
(-1.870135e+50 -6.6380393e+48 2.1606682e+49)
(-2.3876475e+50 -3.9975809e+48 2.8651361e+49)
(-2.3638883e+50 -8.5647148e+48 2.8837878e+49)
(-1.6128613e+50 -5.497657e+48 1.9902852e+49)
(-2.0475594e+50 -4.1528884e+48 2.5058716e+49)
(-1.5981314e+50 -4.4674774e+48 2.0305932e+49)
(-2.0374476e+50 -6.5174355e+48 2.5305953e+49)
(-1.6068125e+50 -5.4376091e+48 1.9979536e+49)
(-1.6053503e+50 -4.4495583e+48 1.986842e+49)
(-2.0561687e+50 -5.074007e+48 2.4991577e+49)
(-2.0517742e+50 -3.1893471e+48 2.4875091e+49)
(-1.6167967e+50 -4.4713603e+48 2.0315758e+49)
(-1.6131004e+50 -3.5227391e+48 2.1165407e+49)
(-2.045129e+50 -5.9311544e+48 2.6152817e+49)
(-2.0545956e+50 -3.369996e+48 2.5840569e+49)
(-1.857171e+50 -8.010567e+48 2.1679948e+49)
(-1.8374918e+50 -6.6195416e+48 2.059583e+49)
(-2.375599e+50 -3.9240209e+48 2.7279209e+49)
(-2.3696244e+50 -7.1353753e+48 2.6812232e+49)
(-1.8435751e+50 -8.8203951e+48 2.0937506e+49)
(-1.8351718e+50 -7.5262636e+48 2.217622e+49)
(-2.3694562e+50 -5.4491557e+48 2.7240599e+49)
(-2.3597611e+50 -9.2803213e+48 2.787327e+49)
(-2.1563831e+50 -1.2812786e+49 2.8099548e+49)
(-2.3540948e+50 -8.6115355e+48 2.7393787e+49)
(-1.8250883e+50 -8.5809123e+48 2.1255111e+49)
(-1.8306673e+50 -9.1862123e+48 2.1523789e+49)
(-2.3508463e+50 -4.9381732e+48 2.723629e+49)
(-2.6694606e+50 -7.2553549e+48 3.0488069e+49)
(-2.1673511e+50 -1.4010713e+49 2.60051e+49)
(-2.6665529e+50 -1.3776152e+49 3.2624524e+49)
(-2.1339805e+50 -1.2958985e+49 2.5537291e+49)
(-2.651e+50 -1.2186521e+49 2.8694407e+49)
(-2.6339131e+50 -4.5260643e+48 -3.1588421e+48)
(-2.5625702e+50 -2.8519783e+48 -9.8278926e+48)
(-2.5536553e+50 -8.4791336e+47 -1.1165287e+49)
(-2.6292546e+50 -1.3954736e+48 -4.6249142e+48)
(-2.8834537e+50 -5.4861418e+48 -4.0406449e+48)
(-2.7133787e+50 -6.9699512e+48 1.5293199e+49)
(-2.7028044e+50 -3.2171305e+48 1.542315e+49)
(-2.5992803e+50 -4.2977974e+48 -9.4522063e+47)
(-2.5929743e+50 -3.2987617e+48 -4.452193e+47)
(-2.9483799e+50 -1.0381858e+49 1.1124595e+49)
(-2.7859386e+50 -5.8582759e+48 -6.2855322e+48)
(-2.6365107e+50 -2.306164e+48 -5.3303178e+48)
(-2.5576107e+50 -2.0670414e+48 -1.1962303e+49)
(-2.6400029e+50 -3.7683392e+48 -6.0699506e+48)
(-2.5677518e+50 -2.2881433e+48 -1.2880098e+49)
(-2.8490174e+50 -9.9904206e+47 -6.2284309e+48)
(-2.6811877e+50 -2.1547967e+48 1.5072782e+49)
(-2.6056364e+50 -4.9021427e+48 2.3565274e+48)
(-2.5952556e+50 -1.693128e+48 5.564134e+47)
(-2.6768479e+50 -6.9303652e+48 1.6408401e+49)
(-2.2814709e+50 -3.9064441e+48 8.6418008e+48)
(-2.2828154e+50 -1.4410985e+48 7.8268421e+48)
(-2.3938551e+50 -1.5244289e+48 1.9514991e+49)
(-2.385121e+50 -5.3935902e+48 2.0125032e+49)
(-2.2814777e+50 -4.0785908e+48 7.291261e+48)
(-2.2827605e+50 -2.239673e+48 7.5559836e+48)
(-2.3970484e+50 -1.4410496e+48 1.9485022e+49)
(-2.3943017e+50 -5.1434252e+48 1.9074972e+49)
(-2.2211261e+50 -2.3013914e+48 -3.4503793e+48)
(-2.227584e+50 -1.4489331e+48 -3.8887044e+48)
(-2.3080427e+50 -1.3355021e+48 3.0210429e+48)
(-2.3018979e+50 -3.44156e+48 3.5293733e+48)
(-2.3206084e+50 -1.9653236e+48 3.0326048e+48)
(-2.2259106e+50 -2.4953169e+48 -4.429525e+48)
(-2.223116e+50 -2.4622893e+48 -4.3286261e+48)
(-2.3143382e+50 -3.5337151e+48 2.6906894e+48)
(-2.2335222e+50 -1.7472778e+48 -9.1763763e+48)
(-2.2572382e+50 -1.7802938e+48 -7.5854377e+48)
(-2.2267694e+50 -1.1308476e+48 -1.0045912e+49)
(-2.2546007e+50 -1.8897143e+48 -8.1897984e+48)
(-2.5806999e+50 -2.0490415e+47 -1.1280505e+49)
(-2.242678e+50 -1.8096259e+48 -1.029865e+49)
(-2.268848e+50 -1.8944729e+48 -8.3401804e+48)
(-2.2686733e+50 -2.4961835e+48 -7.5228266e+48)
(-2.2413554e+50 -1.6260236e+48 -9.513045e+48)
(-2.6222579e+50 -1.6835168e+48 -1.0788327e+49)
(-2.2159485e+50 -2.7853369e+48 -7.5938886e+48)
(-2.2179844e+50 -2.3569894e+48 -8.514869e+48)
(-2.25065e+50 -2.2533567e+48 -5.3445402e+48)
(-2.2468837e+50 -3.3239514e+48 -4.6641386e+48)
(-2.2051138e+50 -2.1595474e+48 -8.2432047e+48)
(-2.2079243e+50 -2.3110121e+48 -7.6727976e+48)
(-2.2414284e+50 -2.1522591e+48 -4.543126e+48)
(-2.2403383e+50 -2.8368914e+48 -5.0173313e+48)
(-2.5246168e+50 3.1886882e+47 -1.5773856e+49)
(-2.5328114e+50 -7.6088655e+47 -1.615146e+49)
(-2.5724594e+50 2.2243683e+47 -1.2946889e+49)
(-2.5845945e+50 -1.6340413e+48 -1.1158064e+49)
(-2.3035912e+50 -2.5199276e+48 2.8020367e+48)
(-2.2234465e+50 -2.4713471e+48 -3.9565187e+48)
(-2.2965597e+50 -4.7427551e+48 3.4153209e+48)
(-2.2203167e+50 -3.6473733e+48 -3.1898412e+48)
(-2.2143475e+50 -3.3377989e+48 -3.488081e+48)
(-2.2140762e+50 -2.454625e+48 -3.0758e+48)
(-2.2968662e+50 -2.169167e+48 3.7094533e+48)
(-2.294002e+50 -4.292478e+48 3.2583601e+48)
(-2.2675284e+50 -5.0313311e+48 8.2673552e+48)
(-2.268501e+50 -2.5216475e+48 8.6534749e+48)
(-2.3670508e+50 -2.0183186e+48 1.9290503e+49)
(-2.3670054e+50 -5.8533024e+48 1.8839924e+49)
(-2.3775977e+50 -2.5853688e+48 1.8260114e+49)
(-2.2744282e+50 -2.5336249e+48 7.5307853e+48)
(-2.274229e+50 -4.9726978e+48 8.4308688e+48)
(-2.3655954e+50 -5.9073962e+48 1.8695521e+49)
(-2.2576444e+50 -2.1671665e+48 -5.281377e+48)
(-2.2020772e+50 -1.3873204e+48 -9.4906943e+48)
(-2.2016893e+50 -2.4164319e+48 -9.4210256e+48)
(-2.2578837e+50 -2.2284866e+48 -5.3926145e+48)
(-2.2523243e+50 -1.2252167e+48 -9.5970106e+48)
(-2.2485758e+50 -1.7816931e+48 -9.5614022e+48)
(-2.2309157e+50 -1.6916714e+48 -1.1050674e+49)
(-2.2318787e+50 -6.6362244e+47 -1.1092612e+49)
(-2.2449437e+50 -1.005923e+48 -1.0102582e+49)
(-2.2597516e+50 -1.1180706e+48 -8.7816629e+48)
(-2.2381544e+50 -1.1400269e+48 -9.8543106e+48)
(-2.2511805e+50 -1.6094968e+48 -8.5170604e+48)
(-2.2079476e+50 -1.6674807e+48 -8.1203055e+48)
(-2.2122005e+50 -1.2470318e+48 -8.5512354e+48)
(-2.2507673e+50 -1.2249458e+48 -5.281652e+48)
(-2.2410029e+50 -2.0765558e+48 -5.0364246e+48)
(-1.8297852e+50 -1.3871918e+48 -5.5226976e+48)
(-1.8764895e+50 -1.0896842e+48 -3.48595e+48)
(-1.8378265e+50 -1.7705273e+48 -5.5094886e+48)
(-1.8851299e+50 -2.0100272e+48 -3.4773443e+48)
(-1.8408411e+50 -1.3306287e+48 -6.29343e+48)
(-1.8714897e+50 -1.2246207e+48 -5.2617975e+48)
(-1.84996e+50 -1.4619155e+48 -6.2992969e+48)
(-1.8795572e+50 -1.6552214e+48 -5.2885571e+48)
(-1.8597526e+50 -1.2995257e+48 -6.4444093e+48)
(-1.8846949e+50 -1.1158038e+48 -5.4165155e+48)
(-1.8678047e+50 -1.3689967e+48 -6.565389e+48)
(-1.8934264e+50 -1.4795902e+48 -5.4751288e+48)
(-1.9237321e+50 -1.1216068e+48 -6.0980274e+48)
(-1.9306317e+50 -1.4371503e+48 -6.3127932e+48)
(-1.9377976e+50 -1.088786e+48 -8.3442021e+48)
(-2.2847809e+50 -6.9936676e+47 -7.9073322e+48)
(-1.9468797e+50 -1.4434443e+48 -8.3563918e+48)
(-1.9273762e+50 -1.3291245e+48 -7.0179156e+48)
(-2.2886295e+50 -5.3790334e+47 -8.7915786e+48)
(-1.9408676e+50 -1.3198108e+48 -9.2947895e+48)
(-2.2599424e+50 -1.0621127e+48 -9.9419007e+48)
(-2.2638144e+50 -1.886265e+47 -1.1180775e+49)
(-1.9404703e+50 -1.3425707e+48 3.885359e+48)
(-2.0236714e+50 -1.0442054e+48 1.0517127e+49)
(-1.949922e+50 -3.1076313e+48 3.8438157e+48)
(-1.8800169e+50 -1.4295013e+48 -2.2814492e+48)
(-1.9567843e+50 -1.128107e+48 2.1597652e+48)
(-1.887952e+50 -2.4787566e+48 -2.2707581e+48)
(-1.9657413e+50 -2.7419882e+48 2.1413213e+48)
(-1.8474158e+50 -1.3021696e+48 -4.3795172e+48)
(-1.9029793e+50 -1.1879674e+48 -2.5557836e+48)
(-1.8567113e+50 -2.0719221e+48 -4.3470575e+48)
(-1.9112935e+50 -2.255978e+48 -2.5576962e+48)
(-1.9379293e+50 -4.3799148e+48 1.9788823e+49)
(-1.9427782e+50 -1.4348163e+48 1.9155551e+49)
(-1.9375505e+50 -1.473593e+48 1.8738082e+49)
(-1.944809e+50 -3.9862371e+48 1.8680662e+49)
(-1.9263906e+50 -1.7907745e+48 1.9010481e+49)
(-1.9362203e+50 -4.8829261e+48 1.9033537e+49)
(-1.9357111e+50 -2.1196931e+48 1.8201135e+49)
(-1.931779e+50 -4.5027171e+48 1.8694437e+49)
(-1.9219008e+50 -2.1918406e+48 1.9005676e+49)
(-1.9297985e+50 -5.1239329e+48 1.8927954e+49)
(-2.2386929e+50 -6.2642485e+48 1.9907981e+49)
(-2.2450781e+50 -1.7790184e+48 1.8944945e+49)
(-1.9261707e+50 -2.7519443e+48 1.7882319e+49)
(-1.9204237e+50 -5.2202409e+48 1.8307701e+49)
(-1.9303273e+50 -2.1048224e+48 1.8322963e+49)
(-1.9267174e+50 -4.883705e+48 1.9023608e+49)
(-1.9263247e+50 -2.4711754e+48 1.7748036e+49)
(-1.9336276e+50 -4.6656446e+48 1.7747228e+49)
(-2.2366635e+50 -5.7461102e+48 1.8102442e+49)
(-2.2348231e+50 -2.320519e+48 1.8352197e+49)
(-2.2336262e+50 -3.2719059e+48 1.7678517e+49)
(-2.2323193e+50 -6.8078369e+48 1.8549713e+49)
(-2.2274576e+50 -7.3776942e+48 1.8682591e+49)
(-2.2182187e+50 -3.3803253e+48 1.8639216e+49)
(-2.5398247e+50 -9.4058356e+48 2.0920474e+49)
(-2.539379e+50 -4.2177259e+48 1.9124023e+49)
(-2.532497e+50 -8.9433773e+48 1.8766242e+49)
(-2.9305139e+50 -1.3314231e+49 -2.6396495e+49)
(-2.8913055e+50 -1.2409793e+49 -2.5819412e+49)
(-3.0151819e+50 -9.0302881e+48 -1.3668953e+49)
(-2.997915e+50 -8.1684676e+48 -1.401828e+49)
(-2.602395e+50 -5.9176552e+48 -2.7827182e+49)
(-2.0356417e+50 -3.4941109e+48 -3.548001e+49)
(-2.0374292e+50 -6.9015538e+48 -3.5765779e+49)
(-2.5797457e+50 -3.7347061e+48 -1.4687549e+49)
(-2.5566811e+50 -6.7614067e+48 -1.4601524e+49)
(-2.591903e+50 -6.7095028e+48 -2.7934745e+49)
(-2.0272559e+50 -3.3134655e+48 -3.5247834e+49)
(-2.0297978e+50 -7.0031561e+48 -3.6000796e+49)
(-2.5129144e+50 -8.8481785e+48 -3.331389e+49)
(-2.4445128e+50 -3.9671833e+48 -2.0051802e+49)
(-2.4320284e+50 -8.6478477e+48 -2.0465688e+49)
(-2.506979e+50 -9.8917562e+48 -3.3906959e+49)
(-2.5774605e+50 -6.2911923e+48 -2.7769033e+49)
(-2.0176298e+50 -4.1128526e+48 -3.5032619e+49)
(-2.0208341e+50 -7.2460238e+48 -3.535493e+49)
(-2.5577936e+50 -3.6616005e+48 -1.4817029e+49)
(-2.5563643e+50 -6.9561233e+48 -1.5086634e+49)
(-2.5830211e+50 -7.3235385e+48 -2.8063094e+49)
(-2.0254072e+50 -3.6832699e+48 -3.5404461e+49)
(-2.0215718e+50 -7.308314e+48 -3.610489e+49)
(-1.6832475e+50 -8.0646522e+48 -3.9778704e+49)
(-2.001967e+50 -5.2375188e+48 -3.3834475e+49)
(-1.6737006e+50 -8.0724246e+48 -3.9770756e+49)
(-1.9955443e+50 -7.5687547e+48 -3.3734018e+49)
(-2.0010604e+50 -5.1281778e+48 -3.4193547e+49)
(-1.9888639e+50 -8.4039845e+48 -3.4094977e+49)
(-1.6812876e+50 -7.3810282e+48 -3.9791585e+49)
(-1.6688368e+50 -8.5979194e+48 -4.0346154e+49)
(-1.0543167e+50 -1.3895275e+49 7.4007547e+48)
(-1.1846901e+50 -9.8162894e+48 -3.6004805e+49)
(-1.1733651e+50 -8.2551872e+48 -3.556085e+49)
(-1.0441666e+50 -7.5351318e+48 8.0863232e+48)
(-1.1608548e+50 -8.6622306e+48 -3.5922397e+49)
(-1.0670294e+50 -1.2404147e+49 8.8647971e+48)
(-1.1842502e+50 -8.9302222e+48 -3.5847583e+49)
(-1.0375916e+50 -6.7247785e+48 8.232517e+48)
(-1.7683666e+50 -6.7748565e+48 -4.3307186e+49)
(-1.7708868e+50 -7.21385e+48 -4.3291295e+49)
(-8.8373917e+49 -5.8292035e+48 -3.9839266e+49)
(-8.7731444e+49 -6.2334615e+48 -3.9335628e+49)
(-1.2046221e+50 -5.3873975e+48 -3.6257772e+49)
(-1.201793e+50 -4.5755032e+48 -3.6525156e+49)
(-8.8276182e+49 -5.3592225e+48 -3.909459e+49)
(-8.7354303e+49 -6.3038567e+48 -4.0036879e+49)
(-1.2046062e+50 -5.5524474e+48 -3.6574984e+49)
(-1.2037752e+50 -4.3564657e+48 -3.6138804e+49)
(-7.0166277e+49 -7.3910827e+48 -1.1797662e+49)
(-6.8440162e+49 -7.1653642e+48 -1.2552624e+49)
(-1.0186328e+50 -6.7176616e+48 1.4756712e+49)
(-9.9898731e+49 -3.3944828e+48 1.3995472e+49)
(-6.8471462e+49 -7.7943708e+48 -1.4361556e+49)
(-9.9807244e+49 -6.9852356e+48 1.332577e+49)
(-6.9837463e+49 -7.8167134e+48 -1.0781096e+49)
(-1.0115341e+50 -4.6068802e+48 1.4792585e+49)
(-1.7749008e+50 -6.9901447e+48 -4.3980278e+49)
(-1.7804566e+50 -6.0821167e+48 -4.3367823e+49)
(-1.2116594e+50 -4.0251051e+48 -3.6626477e+49)
(-8.8939385e+49 -5.1452869e+48 -4.0008905e+49)
(-1.2124638e+50 -4.9213348e+48 -3.6377126e+49)
(-8.7965681e+49 -5.5724074e+48 -3.9713846e+49)
(-1.2090381e+50 -4.0768428e+48 -3.6635139e+49)
(-1.2112217e+50 -5.629788e+48 -3.7284608e+49)
(-8.8441936e+49 -4.8322938e+48 -3.9628469e+49)
(-8.7720823e+49 -6.3349724e+48 -4.0873885e+49)
(-6.8819644e+49 -7.0796525e+48 -1.4346838e+49)
(-6.9585679e+49 -6.850208e+48 -1.1471594e+49)
(-1.0122419e+50 -3.9168555e+48 1.4460662e+49)
(-9.9898695e+49 -6.7059317e+48 1.3233035e+49)
(-6.8805533e+49 -6.7095305e+48 -1.3174748e+49)
(-1.0282854e+50 -5.5722667e+48 1.5398351e+49)
(-1.0102999e+50 -2.2130678e+48 1.4317373e+49)
(-7.0555963e+49 -6.3362946e+48 -1.1478897e+49)
(-1.7777695e+50 -6.6327874e+48 -4.4164937e+49)
(-1.7845507e+50 -5.7857115e+48 -4.3499432e+49)
(-1.2212825e+50 -4.1514383e+48 -3.7062372e+49)
(-1.2237304e+50 -5.065064e+48 -3.6776814e+49)
(-8.9752898e+49 -5.2470531e+48 -4.0557307e+49)
(-8.9134213e+49 -5.7545084e+48 -4.0093688e+49)
(-1.212126e+50 -4.0872e+48 -3.6527286e+49)
(-1.2107543e+50 -5.2745288e+48 -3.691977e+49)
(-8.8697855e+49 -4.9208058e+48 -3.9764211e+49)
(-8.7696086e+49 -5.7969728e+48 -4.0617368e+49)
(-7.0705014e+49 -6.7841981e+48 -1.1679598e+49)
(-1.0342161e+50 -6.720981e+48 1.5243793e+49)
(-6.9275745e+49 -6.661148e+48 -1.2002657e+49)
(-1.0206657e+50 -2.9189996e+48 1.4994847e+49)
(-6.9356963e+49 -6.8955733e+48 -1.5000705e+49)
(-1.0065952e+50 -6.525212e+48 1.3427987e+49)
(-7.0948317e+49 -7.2098319e+48 -1.1250685e+49)
(-1.0240189e+50 -4.4009349e+48 1.5018392e+49)
(-1.786334e+50 -6.7687332e+48 -4.3813819e+49)
(-1.7912404e+50 -5.99271e+48 -4.3731032e+49)
(-1.2051963e+50 -3.8401807e+48 -3.6541055e+49)
(-1.2060828e+50 -4.8307554e+48 -3.6267307e+49)
(-8.8137392e+49 -4.8108731e+48 -4.0277711e+49)
(-8.7379046e+49 -5.4386961e+48 -3.9867949e+49)
(-1.2058214e+50 -4.0024832e+48 -3.6659732e+49)
(-1.2056662e+50 -5.6548559e+48 -3.7271591e+49)
(-8.7756387e+49 -4.7820672e+48 -3.9992012e+49)
(-8.7170496e+49 -6.4581376e+48 -4.1026316e+49)
(-6.912784e+49 -6.6460294e+48 -1.3173209e+49)
(-1.0204001e+50 -6.3555781e+48 1.43904e+49)
(-7.0228923e+49 -6.5736535e+48 -1.0048655e+49)
(-1.0320887e+50 -2.9745023e+48 1.5649784e+49)
(-7.0702836e+49 -6.2280309e+48 -1.0746368e+49)
(-6.9118005e+49 -6.8995384e+48 -1.1816422e+49)
(-1.0392725e+50 -4.8728926e+48 1.5962038e+49)
(-1.0227499e+50 -2.1443294e+48 1.5301745e+49)
(-2.4021018e+50 -9.6471272e+48 -2.6260365e+49)
(-2.417313e+50 -5.8841498e+48 -2.6004531e+49)
(-2.3059849e+50 -1.0155491e+49 -2.9419954e+49)
(-2.4246468e+50 -1.1343552e+49 -2.5622162e+49)
(-2.4476077e+50 -6.0094275e+48 -2.5994488e+49)
(-2.3275197e+50 -1.0963107e+49 -2.8854015e+49)
(-2.3120721e+50 -1.1612781e+49 -2.9792665e+49)
(-1.8892804e+50 -1.1246252e+49 -3.6676232e+49)
(-1.4087968e+50 -1.7438873e+49 -1.2293558e+48)
(-1.9146959e+50 -1.4346387e+49 -3.692361e+49)
(-1.8864335e+50 -1.2691513e+49 -3.6948254e+49)
(-1.4559492e+50 -2.5354396e+49 2.1520769e+47)
(-1.4297745e+50 -1.7325648e+49 5.4498122e+47)
(-2.4916966e+50 -9.6360477e+48 -3.3350822e+49)
(-2.4312419e+50 -3.9767307e+48 -2.0212635e+49)
(-2.4221185e+50 -8.4885141e+48 -2.0298368e+49)
(-2.4897804e+50 -1.0632034e+49 -3.3079255e+49)
(-1.9868418e+50 -8.3158104e+48 -3.3680612e+49)
(-1.9895148e+50 -6.2282094e+48 -3.3771348e+49)
(-1.671995e+50 -9.379638e+48 -3.9485498e+49)
(-1.6667309e+50 -9.2574314e+48 -3.9376683e+49)
(-1.9854219e+50 -5.7805745e+48 -3.3526532e+49)
(-1.6677022e+50 -8.5407077e+48 -3.9037247e+49)
(-1.9733357e+50 -8.5693125e+48 -3.3454458e+49)
(-1.6555382e+50 -9.077917e+48 -3.9712859e+49)
(-1.1772842e+50 -1.1695206e+49 -3.5763217e+49)
(-1.0298229e+50 -1.5833968e+49 6.9204196e+48)
(-1.169928e+50 -1.00277e+49 -3.5212037e+49)
(-1.034217e+50 -1.004153e+49 7.9140059e+48)
(-1.1551603e+50 -9.3422454e+48 -3.5346285e+49)
(-1.0558486e+50 -1.492095e+49 8.4829318e+48)
(-1.1774572e+50 -1.0554889e+49 -3.5297849e+49)
(-1.0363033e+50 -8.4818527e+48 8.6311099e+48)
(-1.4041935e+50 -3.3095087e+48 2.0355205e+49)
(-1.3969264e+50 -4.4206326e+48 2.0509346e+49)
(-1.7838659e+50 -1.7587886e+48 2.2498749e+49)
(-1.783379e+50 -3.6081529e+48 2.2322629e+49)
(-1.7929205e+50 -2.4417093e+48 2.2411875e+49)
(-1.4037349e+50 -3.7426895e+48 2.019201e+49)
(-1.3975141e+50 -1.9163436e+48 2.0403858e+49)
(-1.7851216e+50 -3.930589e+48 2.1803803e+49)
(-1.413029e+50 -2.0400848e+48 2.067429e+49)
(-1.4074842e+50 -4.0919941e+48 2.0972367e+49)
(-1.7911909e+50 -1.6094978e+48 2.2609069e+49)
(-1.7898222e+50 -2.985226e+48 2.2350868e+49)
(-1.4124496e+50 -1.5618834e+48 2.1517373e+49)
(-1.4135578e+50 -2.9399713e+48 2.0957393e+49)
(-1.7918239e+50 -1.9657421e+48 2.3536515e+49)
(-1.7831538e+50 -3.934114e+48 2.3034542e+49)
(-1.3997218e+50 -3.8692518e+48 2.0596886e+49)
(-1.3955068e+50 -4.6825376e+48 2.0693387e+49)
(-1.7709326e+50 -2.0957234e+48 2.2458898e+49)
(-1.776823e+50 -4.1240444e+48 2.3067815e+49)
(-1.4003536e+50 -4.6745735e+48 2.0150589e+49)
(-1.4078712e+50 -2.5261163e+48 2.1198942e+49)
(-1.7807659e+50 -3.2721617e+48 2.2230293e+49)
(-1.7831723e+50 -4.7913404e+48 2.2583494e+49)
(-1.399013e+50 -3.2630674e+48 2.0185674e+49)
(-1.3925157e+50 -4.9403559e+48 1.9948983e+49)
(-1.7780453e+50 -2.4668232e+48 2.1446642e+49)
(-1.7844604e+50 -3.7789152e+48 2.2051191e+49)
(-1.3999589e+50 -3.9004531e+48 2.023211e+49)
(-1.3956777e+50 -1.9567169e+48 2.0826907e+49)
(-1.778569e+50 -2.4658719e+48 2.2306595e+49)
(-1.771893e+50 -4.3498389e+48 2.2061864e+49)
(-1.6172544e+50 -4.2548875e+48 2.0561227e+49)
(-1.6060354e+50 -3.991159e+48 2.1281006e+49)
(-2.035066e+50 -6.309854e+48 2.6453188e+49)
(-2.0478578e+50 -3.3639156e+48 2.6224879e+49)
(-1.4015483e+50 -4.3224874e+48 2.0572042e+49)
(-1.3951715e+50 -5.1442234e+48 2.0577082e+49)
(-1.7693074e+50 -2.511819e+48 2.2320053e+49)
(-1.7771422e+50 -4.4182212e+48 2.2884345e+49)
(-1.3959775e+50 -5.0625726e+48 1.9924885e+49)
(-1.4009173e+50 -3.5157944e+48 2.0888662e+49)
(-1.777091e+50 -3.6584141e+48 2.2049364e+49)
(-1.7784186e+50 -5.2139535e+48 2.2366452e+49)
(-1.611964e+50 -5.0624362e+48 2.0825096e+49)
(-1.6054259e+50 -3.7668657e+48 2.0300523e+49)
(-2.0512143e+50 -4.6450773e+48 2.5333402e+49)
(-2.0494191e+50 -2.7374506e+48 2.534616e+49)
(-1.3941274e+50 -3.5995936e+48 2.0048555e+49)
(-1.3879425e+50 -5.5432376e+48 1.990838e+49)
(-1.7706637e+50 -3.0323718e+48 2.1258947e+49)
(-1.77801e+50 -4.2093516e+48 2.1770855e+49)
(-1.3873007e+50 -2.9471149e+48 2.0589228e+49)
(-1.3908357e+50 -4.3668494e+48 1.9985413e+49)
(-1.7689176e+50 -3.0972914e+48 2.2020609e+49)
(-1.7620009e+50 -5.0878457e+48 2.1747774e+49)
(-1.3888226e+50 -3.4110649e+48 1.975399e+49)
(-1.3854945e+50 -5.1324661e+48 2.0128517e+49)
(-1.7716707e+50 -2.6162793e+48 2.1764527e+49)
(-1.7724456e+50 -4.2211076e+48 2.1495016e+49)
(-1.3969466e+50 -2.5613695e+48 2.0558516e+49)
(-1.3856482e+50 -4.6767937e+48 1.9320508e+49)
(-1.7811084e+50 -3.2163786e+48 2.1534805e+49)
(-1.7754717e+50 -4.5072051e+48 2.1249675e+49)
(-1.3887289e+50 -4.6095741e+48 1.9923646e+49)
(-1.7801006e+50 -2.1852107e+48 2.1796222e+49)
(-1.7796388e+50 -3.5731735e+48 2.1755345e+49)
(-1.3952897e+50 -2.6718805e+48 2.0077478e+49)
(-1.3994871e+50 -3.2785772e+48 2.0164313e+49)
(-1.407212e+50 -2.1766946e+48 2.1447772e+49)
(-1.7776178e+50 -2.5748642e+48 2.2450647e+49)
(-1.7775506e+50 -4.5483763e+48 2.2901265e+49)
(-1.6019823e+50 -6.0697602e+48 2.0878931e+49)
(-1.5951473e+50 -5.0230725e+48 2.0400196e+49)
(-2.033183e+50 -5.4932978e+48 2.5304073e+49)
(-2.0294045e+50 -3.3281157e+48 2.5295371e+49)
(-1.6023168e+50 -5.4401415e+48 1.9810155e+49)
(-1.5839656e+50 -4.2581996e+48 2.0133432e+49)
(-2.0260332e+50 -6.0522177e+48 2.488458e+49)
(-2.038305e+50 -3.8360599e+48 2.4689394e+49)
(-1.5869713e+50 -7.2503822e+48 2.0299754e+49)
(-1.5862106e+50 -5.617075e+48 2.0343779e+49)
(-2.0187222e+50 -4.3178589e+48 2.4524946e+49)