/*--------------------------------*- C++ -*----------------------------------*\
  =========                 |
  \\      /  F ield         | OpenFOAM: The Open Source CFD Toolbox
   \\    /   O peration     | Website:  https://openfoam.org
    \\  /    A nd           | Version:  7
     \\/     M anipulation  |
\*---------------------------------------------------------------------------*/
FoamFile
{
    version     2.0;
    format      ascii;
    class       volScalarField;
    location    "10000";
    object      nut;
}
// * * * * * * * * * * * * * * * * * * * * * * * * * * * * * * * * * * * * * //

dimensions      [0 2 -1 0 0 0 0];

internalField   nonuniform List<scalar> 
34356
(
2.6063245e-57
1.1881618e-56
9.6544954e-58
9.1654989e-58
1.7657248e-58
3.4393942e-58
2.0573787e-58
9.4206252e-59
9.9631863e-59
1.7032099e-58
4.3397966e-57
1.5656611e-58
4.2000492e-57
4.9865357e-58
4.8986136e-58
5.3175685e-58
5.9305281e-58
4.9348238e-58
4.7424741e-58
4.5340183e-58
1.9391908e-58
8.773563e-59
4.9132394e-59
4.8570086e-59
8.6175502e-59
1.76951e-58
1.1826703e-58
1.2476893e-58
1.2241915e-58
1.2115775e-58
2.8388292e-59
2.3684707e-59
8.2314073e-59
5.285961e-59
1.7254966e-58
1.6668826e-58
1.5667702e-58
1.3621353e-58
5.6430542e-58
6.3148784e-59
7.902332e-59
9.496505e-58
3.4435167e-58
2.2177043e-57
3.3352353e-58
2.2521174e-57
5.5039145e-59
7.1239396e-59
8.8389134e-58
4.4047424e-58
3.3006214e-58
3.3251507e-58
2.2345472e-57
2.2752599e-57
1.7396636e-58
1.8659718e-58
2.1258761e-58
1.8614224e-58
1.9680715e-58
1.8866268e-58
1.9733746e-58
1.7692103e-58
2.0619122e-58
2.0949138e-58
1.8388275e-58
1.7204412e-58
1.382243e-58
1.7287777e-58
2.0572673e-58
1.6982192e-58
1.1714028e-58
1.2132924e-58
1.2357234e-58
1.3537158e-58
8.029297e-59
5.8560223e-59
5.7766226e-59
7.8670729e-59
2.4001477e-59
7.8398532e-59
5.9973122e-59
5.9634912e-59
7.4751391e-59
2.526542e-59
1.1137901e-58
1.2335421e-58
1.2613687e-58
1.0652288e-58
2.7077407e-59
2.7316595e-59
1.3992733e-58
1.3099749e-58
1.1329262e-58
1.1237062e-58
6.4145236e-59
6.5782282e-59
1.9742999e-59
2.1678888e-59
1.4854741e-59
1.5667367e-59
2.6072275e-59
2.5404806e-59
2.6668983e-59
2.6417343e-59
2.5414865e-59
4.7760538e-59
5.6789323e-59
5.6656549e-59
4.8177997e-59
4.6480061e-59
3.8085862e-59
3.9116696e-59
3.9783288e-59
1.0871882e-58
1.0182229e-58
9.8852245e-59
1.0255432e-58
1.0028658e-58
9.9759989e-59
9.0532244e-59
9.9696184e-59
7.6181536e-59
7.5787393e-59
1.4398226e-58
9.3972941e-59
1.4460463e-58
1.4265273e-58
2.1300924e-58
1.723889e-58
1.7195627e-58
2.1796678e-58
2.3438443e-58
8.3980531e-58
9.0406896e-58
2.4177061e-58
2.0187488e-58
1.6003267e-58
1.6700851e-58
2.1410478e-58
2.3440069e-58
2.3405158e-58
8.5791492e-58
9.0562322e-58
8.5744911e-59
1.2948466e-58
1.3383837e-58
1.4653421e-58
1.6366671e-58
1.6873556e-58
2.1453232e-58
2.0383783e-58
2.0854327e-58
1.6667173e-58
1.6257976e-58
2.0985577e-58
2.3785607e-58
2.3773632e-58
8.4572922e-58
9.0724184e-58
2.4090364e-58
9.0024621e-58
2.3252121e-58
8.3989803e-58
7.6930604e-59
8.3910612e-59
7.5102059e-59
7.1070601e-59
8.2971716e-59
9.0952066e-59
8.9858958e-59
7.8874098e-59
7.529107e-59
8.0871917e-59
8.6065002e-59
7.5162439e-59
8.5535066e-59
7.7513049e-59
7.7077664e-59
7.1219549e-59
8.903035e-59
8.613784e-59
8.0523442e-59
7.8473459e-59
8.4594655e-59
8.9848701e-59
8.5890819e-59
7.79429e-59
7.2301079e-59
7.7383394e-59
6.5764355e-59
6.8774772e-59
8.7146649e-59
8.8945154e-59
8.0420116e-59
7.8803614e-59
3.7856997e-59
2.6309884e-59
8.0279957e-59
9.0232239e-59
8.5265425e-59
8.7617217e-59
9.2373611e-59
9.6542005e-59
8.9739295e-59
8.9952398e-59
7.1189406e-59
6.9043305e-59
6.9336667e-59
6.9478567e-59
6.0900225e-59
6.7402865e-59
6.2801251e-59
6.519876e-59
4.7177148e-59
5.5087897e-59
5.2710749e-59
4.8719383e-59
4.9017311e-59
4.6868309e-59
4.2085016e-59
4.5105316e-59
3.1898305e-59
4.4077808e-59
4.3772856e-59
4.5179121e-59
2.7285017e-59
4.5473805e-59
5.2352723e-59
5.3356309e-59
5.0562201e-59
5.0307243e-59
2.8493042e-59
3.2436001e-59
5.0022359e-59
5.4484299e-59
5.4382142e-59
4.9081464e-59
4.4988975e-59
4.2645093e-59
4.6616628e-59
4.6119277e-59
3.0204244e-59
4.3276442e-59
4.2565353e-59
4.2724086e-59
2.8190734e-59
4.2084333e-59
4.9578853e-59
4.8562395e-59
5.1095769e-59
4.7925088e-59
2.8603919e-59
3.0607538e-59
1.0806284e-58
9.6447278e-59
1.0144696e-58
1.0006893e-58
9.7526215e-59
9.6400676e-59
9.63177e-59
9.4933156e-59
6.3526931e-59
6.6165046e-59
6.6985546e-59
6.5610309e-59
6.6622746e-59
6.6060911e-59
6.5637323e-59
6.7818781e-59
6.9761624e-59
1.8695747e-59
8.3974269e-59
1.9122964e-59
2.467557e-59
1.52515e-59
1.5063912e-59
2.7075317e-59
2.8360718e-59
1.4840873e-59
1.5260455e-59
2.6560934e-59
4.132516e-59
3.2698561e-59
4.4585718e-59
3.7837201e-59
4.6643835e-59
3.9650716e-59
1.3817672e-59
7.8210982e-60
7.8995489e-60
1.0630169e-59
1.0935995e-59
7.3502755e-60
1.1339536e-59
1.1781783e-59
7.1045056e-60
1.2194644e-59
1.2147078e-59
1.2666434e-59
1.1683621e-59
1.3278969e-59
1.4657737e-59
1.2339605e-59
1.0272052e-59
1.2822376e-59
7.6599083e-60
7.1710779e-60
2.1409886e-59
2.6126403e-59
2.6085383e-59
2.6457084e-59
2.5403623e-59
2.6307675e-59
3.1074013e-59
3.2958593e-59
3.4478951e-59
3.4245206e-59
3.0522127e-59
2.9886762e-59
3.2795367e-59
3.2238315e-59
2.9707112e-59
2.9929662e-59
4.5068107e-59
3.6468438e-59
4.7133555e-59
3.7981766e-59
4.589827e-59
4.6683126e-59
4.1824817e-59
4.2396561e-59
3.8783778e-59
4.5015378e-59
4.0777411e-59
4.8185389e-59
3.4829997e-59
3.3285742e-59
3.7709754e-59
3.3645145e-59
3.3461883e-59
3.1144559e-59
3.6370491e-59
3.2798757e-59
2.4742749e-59
2.6536457e-59
2.8008052e-59
2.9981774e-59
2.6591309e-59
2.7565284e-59
3.1869757e-59
3.1179763e-59
2.6272783e-59
2.7048761e-59
3.0198664e-59
3.0942388e-59
3.5099418e-59
5.1330999e-59
5.1661724e-59
5.0891564e-59
5.3106194e-59
4.86422e-59
5.11613e-59
5.5655895e-59
5.4970519e-59
5.2955769e-59
5.4598325e-59
5.3541006e-59
5.5591045e-59
4.6231205e-59
4.7737323e-59
5.3976193e-59
5.4607791e-59
9.8872203e-59
9.9059966e-59
6.0213302e-58
1.786956e-58
1.76529e-58
1.216634e-58
1.4666685e-58
5.4377622e-58
1.8938091e-58
1.8840393e-58
9.2411237e-59
9.3147388e-59
1.1702197e-58
1.1365248e-58
8.659132e-59
8.8533544e-59
7.8974125e-59
1.9898372e-58
8.195496e-59
1.9943122e-58
8.1079408e-59
1.9019695e-58
8.3213498e-59
2.0040266e-58
1.1785734e-58
1.1519925e-58
8.6941978e-59
8.846982e-59
9.0063327e-59
9.0565701e-59
1.1533748e-58
1.125434e-58
8.5625511e-59
8.7618594e-59
1.1254924e-58
1.1557059e-58
8.7912384e-59
8.7520793e-59
8.122384e-59
8.3636576e-59
1.9815136e-58
1.8921102e-58
2.014675e-58
2.0338553e-58
8.2915491e-59
8.0439918e-59
9.7626665e-59
1.5674897e-58
4.6233443e-58
1.7507895e-58
1.7982476e-58
6.809333e-58
1.7914498e-58
1.789171e-58
9.1675019e-59
9.2011193e-59
9.1110408e-59
8.9987844e-59
2.3686929e-58
8.6278277e-59
1.1544265e-58
1.1384811e-58
8.6952215e-59
1.1209896e-58
1.1588573e-58
8.8113584e-59
8.6926961e-59
7.9536988e-59
1.8733837e-58
8.357845e-59
1.9964698e-58
8.461105e-59
2.0290146e-58
2.0569047e-58
8.1204552e-59
1.136625e-58
1.1608928e-58
8.6025449e-59
8.7986512e-59
8.1352262e-59
1.9212255e-58
8.3975185e-59
2.0484957e-58
1.1111297e-58
1.1365333e-58
8.7132004e-59
8.6684671e-59
8.2948909e-59
7.9781389e-59
2.037901e-58
2.0296713e-58
6.0369503e-59
5.8438038e-59
2.0741827e-59
2.0986537e-59
6.4974977e-59
6.3195769e-59
2.2032397e-59
2.1879977e-59
6.5436928e-59
2.2684962e-59
6.7836854e-59
2.3341115e-59
2.3587201e-59
7.0846157e-59
6.7927877e-59
2.2481573e-59
6.1824068e-59
5.9003142e-59
2.0953317e-59
2.1691943e-59
6.2418261e-59
6.3961102e-59
2.1874555e-59
2.1286915e-59
5.8788104e-59
6.2204374e-59
2.1261628e-59
2.1430807e-59
6.4720361e-59
5.8763656e-59
2.1060339e-59
1.9943035e-59
6.8957498e-59
6.9645599e-59
2.3113152e-59
2.2303638e-59
6.4590699e-59
6.0673661e-59
2.3942271e-59
2.3604199e-59
6.4948738e-59
6.9282742e-59
2.3023933e-59
2.3439081e-59
6.8105242e-59
7.0565269e-59
2.3008716e-59
2.2098027e-59
5.7415089e-59
5.5436976e-59
1.9826872e-59
2.0347622e-59
2.069107e-59
6.0377315e-59
6.0665048e-59
2.0235845e-59
6.832761e-59
6.268763e-59
2.2758206e-59
2.3196581e-59
6.9605396e-59
7.2299401e-59
2.4068055e-59
2.2848004e-59
6.0230465e-59
1.5486616e-59
1.8091696e-59
2.208269e-59
1.6696023e-59
1.7389572e-59
1.4752587e-59
1.9626989e-59
4.6055018e-59
2.771729e-59
4.6484401e-59
5.3574629e-59
2.8190582e-59
1.8707782e-59
7.0244056e-59
8.3799712e-59
1.4449116e-59
2.2845479e-59
4.5931176e-59
3.3583529e-59
4.6300723e-59
3.4993159e-59
4.8101551e-59
4.9415809e-59
4.4499405e-59
4.539344e-59
4.1010989e-59
3.7124395e-59
4.2103025e-59
3.8073814e-59
5.2887725e-59
3.9254896e-59
5.2456586e-59
4.0274494e-59
4.8430253e-59
4.7679127e-59
4.4938972e-59
4.3930791e-59
4.7461413e-59
4.2966071e-59
4.6945095e-59
4.222085e-59
5.3773016e-59
5.1188049e-59
4.0107285e-59
3.9498233e-59
3.886245e-59
5.1820707e-59
5.0402842e-59
3.8310469e-59
4.7336535e-59
3.7503815e-59
4.7117464e-59
3.6964241e-59
4.8390596e-59
4.9010568e-59
4.2005325e-59
4.2057111e-59
4.9629443e-59
4.925001e-59
4.2823446e-59
4.233302e-59
4.7312925e-59
4.6080567e-59
3.7886033e-59
3.7003488e-59
4.0222862e-59
3.1756376e-59
4.1222513e-59
3.2471233e-59
4.9135359e-59
5.0823063e-59
4.2152313e-59
4.313821e-59
4.2531833e-59
3.6234724e-59
4.448115e-59
3.7463026e-59
4.6252248e-59
4.7086874e-59
3.7006831e-59
3.7685154e-59
4.3601701e-59
3.5472812e-59
4.5766714e-59
3.6949807e-59
4.682473e-59
4.8553754e-59
4.2475224e-59
4.3638538e-59
4.0449028e-59
3.6846237e-59
4.3053102e-59
3.8818682e-59
4.9570068e-59
5.0759397e-59
4.0560736e-59
4.1396658e-59
3.6752603e-59
3.4599361e-59
3.9317874e-59
3.571574e-59
3.1757953e-59
3.0067577e-59
3.4612313e-59
3.1888609e-59
2.3631864e-59
2.5749673e-59
2.7503421e-59
3.5101187e-59
2.9629319e-59
2.767581e-59
2.9737765e-59
3.8439556e-59
3.4574241e-59
3.2629257e-59
3.9897518e-59
4.3543403e-59
2.6803643e-59
2.8126447e-59
3.3771809e-59
3.3022481e-59
3.1675978e-59
2.6075488e-59
2.726576e-59
3.3546767e-59
3.1141507e-59
3.0373969e-59
3.4555064e-59
3.3167721e-59
3.6039579e-59
3.3934129e-59
3.3992731e-59
3.6345419e-59
3.5300516e-59
3.3880903e-59
3.6417829e-59
3.3843348e-59
4.599572e-59
4.2133073e-59
4.5998212e-59
4.1712616e-59
4.4808229e-59
4.129551e-59
4.6070592e-59
4.2006794e-59
4.9116411e-59
4.0852747e-59
4.9879079e-59
4.1126618e-59
5.0444213e-59
4.1984455e-59
4.9551798e-59
4.1389278e-59
2.9668466e-59
3.22649e-59
2.7982317e-59
3.180949e-59
4.7134613e-59
3.1132259e-59
3.0255812e-59
4.1472301e-59
4.7069676e-59
3.8036851e-59
5.0029071e-59
4.0073586e-59
4.6948012e-59
4.7248477e-59
4.258571e-59
4.256187e-59
4.3295873e-59
3.9585306e-59
4.6688937e-59
4.2123267e-59
4.9880243e-59
4.9533133e-59
4.0668981e-59
4.0332174e-59
2.7131812e-59
2.8530696e-59
3.6134406e-59
3.3349425e-59
3.2095725e-59
2.5083669e-59
2.7597517e-59
3.220951e-59
3.1810376e-59
2.9256043e-59
3.5423522e-59
3.3845272e-59
3.6669709e-59
3.3947449e-59
3.3068234e-59
3.1625435e-59
3.6232903e-59
3.3880489e-59
4.4077699e-59
4.1187137e-59
2.4566808e-59
2.5697945e-59
3.1921714e-59
3.1051536e-59
2.9604773e-59
2.4176971e-59
2.6520658e-59
3.2277044e-59
3.0906365e-59
2.8263414e-59
3.1862679e-59
3.0302414e-59
3.4736773e-59
3.2251164e-59
3.5610852e-59
3.7244064e-59
3.2432896e-59
3.1137153e-59
3.345001e-59
3.1231152e-59
4.3640709e-59
3.9767743e-59
4.4080053e-59
3.9900112e-59
4.5986433e-59
3.7856519e-59
4.8344899e-59
3.9240686e-59
4.1886998e-59
3.8237327e-59
4.4768143e-59
4.0237942e-59
4.7952513e-59
3.9813768e-59
4.7470034e-59
3.9529579e-59
2.9606874e-59
3.1485246e-59
2.9954561e-59
3.2222657e-59
4.67973e-59
3.2465012e-59
3.100301e-59
3.7161786e-59
5.2325931e-59
3.7714544e-59
5.2119658e-59
3.8137665e-59
4.627666e-59
4.5286542e-59
4.2011652e-59
4.1417067e-59
4.5061566e-59
4.1236151e-59
4.5716545e-59
4.1448909e-59
5.2655427e-59
3.9084507e-59
4.9748697e-59
3.8635824e-59
4.9253993e-59
3.604013e-59
5.0798309e-59
3.7869114e-59
4.8132183e-59
4.406656e-59
4.8292371e-59
4.4061409e-59
4.4162977e-59
4.0095722e-59
4.5929284e-59
4.1564778e-59
5.3672435e-59
5.2402794e-59
4.023849e-59
4.0472992e-59
4.3370106e-59
4.5058367e-59
3.4509478e-59
3.5526324e-59
4.5329866e-59
3.8680715e-59
4.7877276e-59
4.0441525e-59
4.8911776e-59
4.9171289e-59
4.1782088e-59
4.1757538e-59
4.6659685e-59
4.6282325e-59
3.7344232e-59
3.7054837e-59
4.7429496e-59
4.7323235e-59
4.0623589e-59
4.0418813e-59
4.4956059e-59
4.6894051e-59
3.8645835e-59
3.9605942e-59
4.3711443e-59
3.51746e-59
4.4515686e-59
3.5542588e-59
4.5752386e-59
4.453046e-59
3.6607713e-59
3.6001243e-59
1.2455563e-59
1.2239784e-59
8.0961313e-60
8.0348227e-60
1.2669209e-59
1.2606766e-59
7.9893997e-60
7.7661304e-60
1.1828759e-59
1.2939219e-59
7.6687146e-60
1.1934381e-59
1.2340247e-59
7.5407198e-60
1.4528723e-59
1.5053233e-59
1.5560963e-59
1.3415041e-59
1.3839953e-59
1.6692464e-59
1.6525709e-59
1.1994538e-59
1.2962946e-59
1.2049764e-59
7.7085719e-60
7.635243e-60
1.2596513e-59
1.2392043e-59
7.6427514e-60
7.6374057e-60
1.4701479e-59
1.5035149e-59
1.2917563e-59
1.263743e-59
1.808143e-59
1.8103633e-59
1.2777949e-59
1.3121377e-59
1.1186847e-59
1.2540542e-59
7.8114386e-60
7.8906726e-60
1.5163531e-59
1.5285518e-59
1.3760621e-59
1.3569623e-59
1.3359459e-59
1.1107537e-59
1.129732e-59
1.3493477e-59
1.9477994e-59
1.9162349e-59
1.7018159e-59
1.7252434e-59
1.6791401e-59
1.6712118e-59
1.377323e-59
1.3888723e-59
1.8802224e-59
2.0774143e-59
1.8345594e-59
2.113066e-59
1.4895205e-59
1.8126933e-59
1.8475595e-59
1.5084427e-59
6.1635406e-60
6.5885855e-60
2.8108576e-60
2.8265141e-60
4.0796133e-60
4.3700793e-60
2.8609298e-60
4.1480637e-60
6.4092379e-60
6.3809818e-60
6.1046184e-60
5.6958808e-60
7.1596343e-60
6.5799252e-60
7.9242326e-60
8.2051704e-60
7.0404802e-60
7.3701749e-60
7.8425674e-60
7.6735839e-60
5.9311576e-60
5.6054495e-60
5.9496652e-60
5.8189848e-60
1.2386782e-59
1.3531363e-59
1.3429167e-59
1.2244017e-59
1.0854046e-59
9.3216788e-60
1.0139381e-59
1.1765488e-59
1.0417067e-59
1.0778123e-59
1.2001445e-59
1.1857548e-59
1.2574952e-59
1.257743e-59
1.2463937e-59
1.2017208e-59
1.1612009e-59
1.3748742e-59
1.2915447e-59
1.1854783e-59
1.4351571e-59
1.0710683e-59
9.8882392e-60
1.1585426e-59
1.1625162e-59
1.1464482e-59
1.0948905e-59
1.2105097e-59
1.1818662e-59
1.1176704e-59
1.2536168e-59
1.1841031e-59
7.5374902e-60
7.0395426e-60
6.6664652e-60
7.9857657e-60
5.661887e-60
6.2118455e-60
6.0197556e-60
5.7113874e-60
5.8996248e-60
5.788161e-60
1.5201981e-59
1.2379057e-59
1.6549489e-59
1.6448792e-59
1.6595734e-59
1.7053527e-59
1.5602411e-59
1.5026274e-59
1.5362756e-59
1.6294691e-59
1.6150821e-59
1.7820672e-59
1.844254e-59
1.642353e-59
1.7537605e-59
1.9501343e-59
2.0208205e-59
1.7891319e-59
1.5376539e-59
1.4393729e-59
1.6142275e-59
1.6922966e-59
1.5252371e-59
1.5674116e-59
1.6283571e-59
1.637952e-59
1.9250673e-59
1.7710685e-59
1.560654e-59
1.6968497e-59
1.7224999e-59
1.9224739e-59
1.9744304e-59
1.7399097e-59
1.92355e-59
1.9693407e-59
2.1366646e-59
2.0406468e-59
2.1601628e-59
2.100502e-59
1.9998136e-59
2.0827421e-59
2.2587133e-59
2.1195535e-59
1.8879778e-59
2.0106928e-59
2.0346704e-59
2.25611e-59
2.3420892e-59
2.1004773e-59
2.0194541e-59
2.0731578e-59
2.1151111e-59
2.0204767e-59
2.2470747e-59
2.1765822e-59
2.0794276e-59
2.1774542e-59
2.2743259e-59
2.2419427e-59
1.9721652e-59
2.0417729e-59
2.1225448e-59
2.3399484e-59
2.4640788e-59
2.2237054e-59
2.2631185e-59
2.5250375e-59
2.2021118e-59
2.5970609e-59
2.1798421e-59
1.7833489e-59
1.799479e-59
2.2311742e-59
2.8189454e-59
2.4527204e-59
2.7801151e-59
2.4013244e-59
2.3862774e-59
1.9336536e-59
2.4283141e-59
1.9652379e-59
4.0070188e-59
3.3528474e-59
3.4735027e-59
4.0453683e-59
4.1764489e-59
4.1671494e-59
3.5128107e-59
3.5307813e-59
2.586755e-59
3.190504e-59
2.5475121e-59
3.3078759e-59
3.1100923e-59
3.5499755e-59
2.974967e-59
3.7321044e-59
2.8544173e-59
2.2714579e-59
2.3082155e-59
2.9504741e-59
3.3964348e-59
3.9562822e-59
3.2851267e-59
4.0274225e-59
3.1647712e-59
2.4915889e-59
3.232473e-59
2.5029189e-59
2.8218881e-59
2.4774188e-59
2.535504e-59
2.9000386e-59
5.9692227e-59
6.0142964e-59
4.8542932e-59
4.8797857e-59
4.7494094e-59
3.6230482e-59
3.6562158e-59
4.7181226e-59
6.0547339e-59
5.9868474e-59
4.9605879e-59
4.995113e-59
4.8769356e-59
4.8542105e-59
3.7450157e-59
3.732752e-59
4.5113986e-59
5.5069388e-59
4.4176603e-59
5.5418587e-59
4.2658998e-59
3.2512678e-59
3.3099677e-59
4.3485744e-59
4.9626111e-59
6.007893e-59
4.86672e-59
6.0322938e-59
4.7179242e-59
3.5807143e-59
4.8838579e-59
3.6039527e-59
9.4154326e-59
9.3641491e-59
6.5758931e-59
6.5232902e-59
7.5663895e-59
7.5521898e-59
1.0546298e-58
1.0695483e-58
5.0925788e-59
5.4945412e-59
9.7149495e-59
9.7589056e-59
6.6353573e-59
6.6781863e-59
7.7507292e-59
7.4694554e-59
1.0702788e-58
1.0382407e-58
5.3447886e-59
5.4880203e-59
1.0154998e-58
1.0012187e-58
7.0157348e-59
7.0083697e-59
7.654989e-59
7.64517e-59
1.0716157e-58
1.0806481e-58
5.3017516e-59
5.4927595e-59
4.926157e-59
5.8770739e-59
4.8143015e-59
5.9294305e-59
1.8725639e-59
2.0116896e-59
1.969239e-59
1.9712972e-59
2.0606973e-59
2.0006535e-59
1.9693882e-59
1.9564761e-59
1.9221021e-59
1.9168366e-59
1.9586368e-59
2.0942184e-59
2.0377554e-59
2.1191136e-59
2.1706649e-59
2.1646821e-59
2.0782376e-59
2.0745403e-59
2.2006256e-59
2.0153898e-59
2.1547848e-59
2.1578073e-59
2.1645862e-59
2.1025699e-59
1.9121327e-59
1.8095456e-59
1.867539e-59
1.8613536e-59
2.0528543e-59
2.0692818e-59
2.1531697e-59
2.2061958e-59
1.0649597e-58
6.9416395e-59
1.0589725e-58
5.8018987e-59
5.8749947e-59
8.8178614e-59
7.1065091e-59
7.6738191e-59
7.7758485e-59
2.1495743e-58
9.6348977e-59
9.3366284e-59
7.908598e-59
8.0431302e-59
2.3972275e-58
9.9290263e-59
9.6532744e-59
1.2171129e-58
1.1538144e-58
8.983979e-59
9.422116e-59
7.3269143e-59
7.472344e-59
1.2209261e-58
1.2521727e-58
9.4297469e-59
9.3984441e-59
7.5082358e-59
7.2853257e-59
8.5812196e-59
8.6643372e-59
4.2353595e-59
4.2560155e-59
4.2828414e-59
8.7219253e-59
8.7926587e-59
4.3151885e-59
1.9285079e-59
2.6219854e-59
2.5811501e-59
1.8376238e-59
3.0609539e-59
2.2826152e-59
2.1696683e-59
2.9746153e-59
2.6745471e-59
2.6767537e-59
1.9535672e-59
1.979818e-59
2.266008e-59
2.2994423e-59
3.0200027e-59
2.9170158e-59
2.7199602e-59
2.7456958e-59
1.8475803e-59
1.898583e-59
2.8853524e-59
2.1814092e-59
2.267304e-59
3.0105449e-59
2.6565629e-59
2.7421473e-59
2.0140888e-59
1.9098899e-59
2.2843945e-59
2.3473475e-59
3.0550061e-59
3.0113821e-59
8.7116513e-59
8.6809109e-59
4.2338928e-59
4.2944746e-59
4.4158467e-59
8.9394492e-59
8.8544439e-59
4.3686203e-59
1.1742588e-58
1.0946626e-58
9.1960529e-59
8.6588415e-59
7.2347045e-59
7.3991263e-59
1.1659093e-58
1.1993667e-58
9.0873991e-59
9.1385217e-59
7.4420777e-59
7.2705344e-59
4.1751007e-59
8.5823414e-59
4.2430845e-59
8.6109192e-59
8.8955321e-59
8.8103961e-59
4.3430108e-59
4.3375044e-59
4.2701206e-59
8.8373447e-59
4.3456108e-59
8.8720124e-59
8.6536413e-59
8.6621663e-59
4.2719243e-59
4.2473691e-59
1.8352535e-59
2.7260792e-59
2.6837349e-59
1.8687499e-59
2.6773679e-59
2.7153051e-59
1.8927042e-59
1.9657606e-59
2.2216199e-59
2.9970909e-59
2.9001862e-59
2.1391773e-59
2.8179576e-59
2.0799601e-59
2.1317665e-59
2.9524697e-59
2.2052815e-59
2.2449504e-59
3.0597862e-59
2.9413755e-59
3.0778756e-59
2.2466377e-59
2.1388506e-59
3.0487363e-59
2.7479279e-59
2.7312863e-59
1.9528416e-59
1.9623478e-59
2.6666885e-59
2.7266723e-59
1.8793056e-59
1.9062686e-59
1.4315343e-58
9.8317327e-59
8.0649179e-58
7.4702469e-59
7.7377199e-59
2.6792957e-58
9.6149438e-59
9.0995733e-59
7.790226e-59
7.9920896e-59
1.7335783e-58
9.8973971e-59
9.4746246e-59
9.3263869e-59
1.1642609e-58
1.2065776e-58
9.1200073e-59
7.5330635e-59
9.1291092e-59
7.3193438e-59
1.1808883e-58
1.0824471e-58
8.7226603e-59
9.2299364e-59
7.3912444e-59
7.566515e-59
1.1946479e-58
1.1526886e-58
8.9089681e-59
9.278503e-59
7.3312738e-59
7.4495667e-59
1.1738622e-58
1.2060228e-58
9.0694405e-59
9.0952383e-59
7.3864178e-59
7.2014676e-59
1.1285425e-58
1.1738256e-58
8.7380671e-59
8.5651049e-59
7.9368056e-59
1.9985613e-58
8.595618e-59
8.7065152e-59
4.2532842e-59
4.1874412e-59
9.0003218e-59
8.9109745e-59
4.361475e-59
4.389557e-59
8.9232851e-59
8.9283554e-59
4.361932e-59
4.306326e-59
4.3257913e-59
8.7145928e-59
8.7157222e-59
4.2732289e-59
2.699694e-59
2.7016417e-59
1.7746956e-59
1.8525737e-59
2.7228009e-59
2.0149342e-59
2.0453083e-59
2.8196253e-59
2.7009587e-59
1.8797399e-59
2.6616055e-59
1.9064626e-59
2.0546321e-59
2.0928304e-59
2.8669671e-59
2.8321329e-59
2.7608537e-59
2.7420053e-59
1.9221133e-59
1.8637202e-59
2.8688933e-59
2.1007591e-59
2.1290867e-59
2.9902321e-59
3.0066382e-59
2.1789129e-59
2.0641261e-59
2.964562e-59
2.7124716e-59
2.6534507e-59
1.8919428e-59
1.9460223e-59
8.7612419e-59
8.6347267e-59
4.2003553e-59
4.2653126e-59
8.8493324e-59
8.9505337e-59
4.3706444e-59
4.3547699e-59
2.7102868e-59
2.7402791e-59
1.8490497e-59
1.8929868e-59
2.8144061e-59
2.0750869e-59
2.1044261e-59
2.9480426e-59
2.6817011e-59
2.7066205e-59
1.924098e-59
1.9281744e-59
2.1067082e-59
2.1742131e-59
3.0537441e-59
2.9853103e-59
4.2612153e-59
8.7394411e-59
8.7690525e-59
4.303643e-59
4.2574105e-59
8.515041e-59
8.5523611e-59
4.2170218e-59
2.7272671e-59
2.7050828e-59
1.8744205e-59
1.9132971e-59
2.653822e-59
2.7036511e-59
1.8668705e-59
1.8195543e-59
2.1630924e-59
2.1251253e-59
2.9379263e-59
3.028968e-59
2.0736551e-59
2.1569538e-59
3.0265987e-59
2.9797044e-59
5.8879204e-59
3.1570675e-59
3.0408264e-59
3.399042e-59
3.3884604e-59
3.4075085e-59
3.5831622e-59
3.614344e-59
3.4580204e-59
3.2739446e-59
3.1398588e-59
3.3737388e-59
3.4328347e-59
3.1924239e-59
3.3280864e-59
3.2336256e-59
3.0281989e-59
3.5131983e-59
3.5782428e-59
3.525566e-59
3.3633835e-59
3.4458605e-59
3.5961438e-59
3.3256824e-59
3.507741e-59
2.9384371e-59
2.8491433e-59
3.1165699e-59
3.1255802e-59
3.5136149e-59
3.2858114e-59
3.4561341e-59
3.5506352e-59
6.0404846e-59
4.5417469e-59
4.9329116e-59
5.7867379e-59
4.711209e-59
3.9906946e-59
3.7270996e-59
4.570861e-59
2.6121474e-59
2.7782469e-59
3.5910908e-59
3.2976813e-59
3.1128241e-59
3.431456e-59
3.5574207e-59
4.0979266e-59
3.4865288e-59
3.3306411e-59
3.6603098e-59
3.3931029e-59
4.501075e-59
4.587744e-59
4.1096864e-59
3.4392276e-59
3.5222899e-59
3.0079933e-59
3.705901e-59
1.1329474e-59
7.9840105e-60
1.2080293e-59
7.8352878e-60
1.2522004e-59
1.2329454e-59
1.5039864e-59
1.8700178e-59
1.8499615e-59
1.368045e-59
1.0418406e-59
1.1839396e-59
7.4281016e-60
7.6902641e-60
1.2953382e-59
1.281939e-59
1.2643116e-59
1.2893799e-59
1.420027e-59
1.1827614e-59
1.185308e-59
1.4798605e-59
1.306099e-59
1.2960917e-59
1.29059e-59
1.2537666e-59
1.4298389e-59
1.1630783e-59
1.437264e-59
1.1864731e-59
1.3166141e-59
1.2364639e-59
1.2883684e-59
1.355496e-59
1.4473873e-59
1.4394015e-59
1.3476824e-59
1.36371e-59
1.198043e-59
1.2860296e-59
1.1737842e-59
1.3577792e-59
1.4097967e-59
1.2756981e-59
1.4051114e-59
1.2602557e-59
1.0956437e-59
1.1399935e-59
1.0827659e-59
1.1498911e-59
1.1297197e-59
1.0330186e-59
1.0296624e-59
1.1503358e-59
1.1309305e-59
1.1801245e-59
1.1062392e-59
1.1926717e-59
1.1584396e-59
1.0465164e-59
1.1738958e-59
1.0563041e-59
1.4159674e-59
1.3879272e-59
1.3999876e-59
1.4511732e-59
1.2813019e-59
1.5837228e-59
1.5969825e-59
1.2832935e-59
1.5210345e-59
1.5384887e-59
1.4757459e-59
1.5085881e-59
1.3537064e-59
1.6923347e-59
1.3770131e-59
1.694611e-59
1.3348924e-59
1.2498089e-59
1.2921375e-59
1.3613713e-59
1.3755888e-59
1.379566e-59
1.2954071e-59
1.3018861e-59
1.207151e-59
1.3060947e-59
1.1916653e-59
1.3703537e-59
1.3535479e-59
1.2287836e-59
1.3556321e-59
1.2180799e-59
1.2810006e-59
1.3270364e-59
1.2496881e-59
1.3576103e-59
1.2866034e-59
1.1699475e-59
1.1740321e-59
1.3281003e-59
1.2816813e-59
1.3460805e-59
1.2552298e-59
1.3613525e-59
1.2972937e-59
1.1649829e-59
1.3093626e-59
1.165389e-59
1.4418557e-59
1.4114221e-59
1.4125196e-59
1.4681257e-59
1.4827642e-59
1.4459904e-59
1.4931183e-59
1.4713909e-59
1.3072345e-59
1.3136539e-59
1.6162887e-59
1.6244786e-59
1.6655231e-59
1.6753399e-59
1.345872e-59
1.3679482e-59
1.6146783e-59
1.2923342e-59
1.3595271e-59
1.6435663e-59
1.4137552e-59
1.4342335e-59
1.4102869e-59
1.4489378e-59
1.4395553e-59
1.433202e-59
1.3874448e-59
1.4027194e-59
1.5876003e-59
1.5987712e-59
1.2765307e-59
1.2995714e-59
1.5468219e-59
1.6670239e-59
1.5046937e-59
1.7161196e-59
1.4852998e-59
1.2381972e-59
1.2584679e-59
1.5444794e-59
1.5861138e-59
1.7200436e-59
1.5433756e-59
1.770804e-59
1.5278962e-59
1.2583986e-59
1.581213e-59
1.2728094e-59
2.1071331e-59
1.8798475e-59
1.9159555e-59
2.1279055e-59
2.1791173e-59
1.935715e-59
1.9694967e-59
2.19915e-59
1.8611821e-59
1.538299e-59
1.5533151e-59
1.9032508e-59
1.9214871e-59
1.5803491e-59
1.5921418e-59
1.9553611e-59
2.1417587e-59
1.9037461e-59
1.9395551e-59
2.1550492e-59
2.2160418e-59
2.2286579e-59
1.9828611e-59
1.9816797e-59
1.8849246e-59
1.5556765e-59
1.5718218e-59
1.9239341e-59
1.9658187e-59
1.9656477e-59
1.6192757e-59
1.6181164e-59
1.6776592e-59
1.508422e-59
1.5416871e-59
1.7242128e-59
1.7496325e-59
1.7541751e-59
1.5764545e-59
1.5692355e-59
1.2586426e-59
1.2752043e-59
1.51146e-59
1.542816e-59
1.56239e-59
1.5820237e-59
1.3047327e-59
1.2977422e-59
1.2856956e-59
1.4076709e-59
1.263959e-59
1.4247814e-59
1.2443766e-59
1.0491047e-59
1.0560631e-59
1.2776905e-59
1.5100117e-59
1.3584292e-59
1.4977645e-59
1.3382543e-59
1.3232433e-59
1.0989785e-59
1.3327733e-59
1.1060764e-59
2.1394059e-59
1.8976758e-59
1.9682773e-59
2.1965651e-59
2.3572024e-59
2.0963789e-59
2.1266787e-59
2.3764824e-59
1.5901015e-59
1.8713116e-59
1.5488756e-59
1.9610415e-59
1.7051444e-59
2.0814105e-59
1.7050352e-59
2.0975285e-59
1.6075177e-59
1.7986608e-59
1.5959222e-59
1.8047208e-59
1.5689625e-59
1.293637e-59
1.2969776e-59
1.591379e-59
1.7247716e-59
1.9228556e-59
1.6949925e-59
1.9491243e-59
1.678336e-59
1.3761969e-59
1.69879e-59
1.382953e-59
1.6682245e-59
1.5034782e-59
1.5475426e-59
1.7281544e-59
1.8467113e-59
1.6626068e-59
1.8794665e-59
1.6722138e-59
1.2455423e-59
1.2749179e-59
1.4968698e-59
1.5437036e-59
1.6576503e-59
1.6615625e-59
1.3676338e-59
1.3695811e-59
2.1050899e-59
2.3896717e-59
2.0841034e-59
2.4150183e-59
2.0701863e-59
1.6905616e-59
1.6847781e-59
2.0922642e-59
2.6345637e-59
2.2870466e-59
2.6011317e-59
2.2457911e-59
2.2390039e-59
1.8108396e-59
2.2725754e-59
1.8322984e-59
4.0874518e-59
3.4211076e-59
3.5148845e-59
4.1350826e-59
4.4099062e-59
4.3886541e-59
3.6877647e-59
3.7006709e-59
2.6498524e-59
3.2918911e-59
2.6100444e-59
3.3924399e-59
3.5952263e-59
2.8363247e-59
3.5856498e-59
2.8314986e-59
2.9117014e-59
3.4140388e-59
2.8429714e-59
3.5008879e-59
2.752088e-59
2.1804704e-59
2.1870697e-59
2.8053173e-59
3.180399e-59
3.7460248e-59
3.1008342e-59
3.8104613e-59
3.0228965e-59
2.3741579e-59
3.0793059e-59
2.387217e-59
2.8374339e-59
2.4808698e-59
2.5375369e-59
2.92254e-59
3.1105661e-59
2.7154469e-59
3.1306215e-59
2.730067e-59
2.0297614e-59
2.0698361e-59
2.4920537e-59
2.5477067e-59
2.7484624e-59
2.7380943e-59
2.2271627e-59
2.23683e-59
6.4021872e-59
6.4178161e-59
5.1450206e-59
5.1470795e-59
5.0192748e-59
3.801677e-59
3.8301773e-59
5.0074734e-59
6.6948843e-59
6.6385436e-59
5.4105622e-59
5.4286755e-59
5.3264114e-59
5.3323021e-59
4.0438759e-59
4.0346364e-59
4.3252841e-59
5.4809436e-59
4.324525e-59
5.4330597e-59
4.2240412e-59
3.1819179e-59
3.1854528e-59
4.2104031e-59
4.776482e-59
5.9437831e-59
4.7166004e-59
5.9503473e-59
4.6232804e-59
3.4670473e-59
4.7628863e-59
3.4925701e-59
8.9393745e-59
8.7851365e-59
6.1252609e-59
6.0483128e-59
7.0158833e-59
6.9197178e-59
1.0052371e-58
1.0140221e-58
5.3410863e-59
1.9328676e-59
2.2307462e-59
2.3658531e-59
2.0525428e-59
5.8655881e-59
1.016219e-58
1.0166694e-58
7.1532181e-59
7.1227895e-59
7.9140761e-59
7.801771e-59
1.1137069e-58
1.1064283e-58
2.3460087e-59
2.5853682e-59
2.8221142e-59
2.4208214e-59
6.2864468e-59
6.1707913e-59
2.0753499e-59
2.2008476e-59
2.3511842e-59
2.1856398e-59
2.5778476e-59
2.5525472e-59
2.358408e-59
2.48283e-59
1.0094433e-58
1.0105362e-58
7.0893186e-59
7.0537138e-59
7.4356641e-59
7.4037552e-59
1.0451045e-58
1.0583915e-58
2.2383897e-59
2.4573158e-59
2.6748326e-59
2.2846302e-59
5.8733438e-59
6.0685498e-59
9.7706501e-59
9.8441389e-59
6.7799718e-59
6.8463726e-59
7.4851881e-59
7.3896542e-59
1.0596851e-58
1.0651073e-58
2.0943579e-59
2.3918277e-59
2.4858957e-59
2.146979e-59
6.0805998e-59
5.7931137e-59
6.0531321e-59
6.0873653e-59
4.8801349e-59
4.8539856e-59
4.7973809e-59
4.860868e-59
3.6406754e-59
3.6976839e-59
5.0623783e-59
6.3449018e-59
5.0322749e-59
6.322534e-59
3.8127867e-59
5.0227084e-59
5.078702e-59
3.8193751e-59
2.2159156e-59
2.3338709e-59
2.3019121e-59
2.1857975e-59
2.4465026e-59
2.4370408e-59
2.2414118e-59
2.3634953e-59
5.0418566e-59
6.2915983e-59
5.0293267e-59
6.2772012e-59
3.79551e-59
5.0138574e-59
5.0168374e-59
3.7905016e-59
5.036661e-59
6.2820818e-59
5.0183912e-59
6.2652314e-59
3.8416622e-59
5.0380791e-59
5.0656359e-59
3.8248881e-59
3.401723e-59
4.0313522e-59
3.3715481e-59
4.0633859e-59
3.3026881e-59
2.6104374e-59
2.6411418e-59
3.3309805e-59
4.1357701e-59
3.4518102e-59
4.1277161e-59
3.4514698e-59
3.3855105e-59
2.674332e-59
3.3756104e-59
2.6681991e-59
3.318593e-59
3.8635089e-59
3.2506116e-59
3.9569829e-59
3.1781665e-59
3.2493724e-59
2.5278856e-59
2.5679834e-59
3.4389816e-59
4.0839157e-59
3.3984496e-59
4.129328e-59
2.6405883e-59
3.340419e-59
3.3816871e-59
2.6585349e-59
2.4419464e-59
2.7393657e-59
2.4060598e-59
2.7936199e-59
1.9894236e-59
2.4240342e-59
2.4567775e-59
2.0067579e-59
2.9155729e-59
2.5279756e-59
2.8800065e-59
2.4983023e-59
2.0522944e-59
2.5171546e-59
2.5433264e-59
2.0693819e-59
2.4847474e-59
2.8254331e-59
2.4663151e-59
2.8625514e-59
2.0280623e-59
2.480312e-59
2.5083089e-59
2.0405103e-59
2.9110217e-59
2.539835e-59
2.9155531e-59
2.5446903e-59
2.1068323e-59
2.5721724e-59
2.5590142e-59
2.1030444e-59
1.8430901e-59
1.9545085e-59
1.8568347e-59
1.9257642e-59
1.8164789e-59
1.7133228e-59
1.6982859e-59
1.8479228e-59
1.6899027e-59
1.824465e-59
1.8958114e-59
1.7119067e-59
1.8602497e-59
1.9604078e-59
2.1182914e-59
1.8725236e-59
1.7673493e-59
2.0681383e-59
2.1995297e-59
1.8790871e-59
1.8435422e-59
1.7360454e-59
1.9502329e-59
1.9814573e-59
1.7403274e-59
1.9719144e-59
1.9361531e-59
1.9143571e-59
2.0284258e-59
2.0875257e-59
2.2965405e-59
2.0582127e-59
2.2979701e-59
2.5531123e-59
2.224337e-59
2.6423633e-59
2.2058873e-59
1.8008657e-59
1.8310283e-59
2.281393e-59
2.8966494e-59
2.5129045e-59
2.8547553e-59
2.4604358e-59
2.4440344e-59
1.9722476e-59
2.4859407e-59
2.0011407e-59
4.0776605e-59
3.3889499e-59
3.4958361e-59
4.1040189e-59
4.2131858e-59
4.1981932e-59
3.52011e-59
3.5289496e-59
2.6216954e-59
3.2708415e-59
2.5949415e-59
3.3658025e-59
3.4309221e-59