/*--------------------------------*- C++ -*----------------------------------*\
  =========                 |
  \\      /  F ield         | OpenFOAM: The Open Source CFD Toolbox
   \\    /   O peration     | Website:  https://openfoam.org
    \\  /    A nd           | Version:  7
     \\/     M anipulation  |
\*---------------------------------------------------------------------------*/
FoamFile
{
    version     2.0;
    format      ascii;
    class       volScalarField;
    location    "10000";
    object      p;
}
// * * * * * * * * * * * * * * * * * * * * * * * * * * * * * * * * * * * * * //

dimensions      [0 2 -2 0 0 0 0];

internalField   nonuniform List<scalar> 
34356
(
-6.8030922e+117
-6.8403215e+117
-6.6132745e+117
-6.5960886e+117
-6.4935749e+117
-6.5073704e+117
-5.8456492e+117
-6.2644682e+117
-6.2515944e+117
-6.649418e+117
-6.6572325e+117
-6.6327183e+117
-6.6397626e+117
-6.5027127e+117
-6.5109807e+117
-6.4312712e+117
-6.4237317e+117
-6.4938141e+117
-6.4149533e+117
-6.4843686e+117
-6.4059737e+117
-6.0209945e+117
-5.780701e+117
-5.788581e+117
-6.0313943e+117
-5.3900817e+117
-5.7244793e+117
-5.7216363e+117
-5.9416719e+117
-5.9451536e+117
-5.3024415e+117
-5.5596915e+117
-5.9206372e+117
-5.807449e+117
-6.2884355e+117
-6.279485e+117
-6.2714022e+117
-6.2633326e+117
-6.5269936e+117
-6.4870644e+117
-6.4929017e+117
-6.5332464e+117
-6.556299e+117
-6.5487277e+117
-6.549674e+117
-6.5411622e+117
-6.4707603e+117
-6.4790094e+117
-6.5195354e+117
-6.51071e+117
-6.5327433e+117
-6.5416624e+117
-6.5232709e+117
-6.5327017e+117
-6.3862269e+117
-6.4417152e+117
-6.447125e+117
-6.3917361e+117
-6.45149e+117
-6.3965651e+117
-6.4554886e+117
-6.4000622e+117
-6.432905e+117
-6.4375671e+117
-6.3771083e+117
-6.3818433e+117
-6.3685342e+117
-6.4239657e+117
-6.4284525e+117
-6.3725572e+117
-6.1341076e+117
-6.1415388e+117
-6.0092935e+117
-6.0024332e+117
-5.89509e+117
-5.7879833e+117
-5.7925075e+117
-5.9011869e+117
-5.5493553e+117
-5.9075171e+117
-5.7984843e+117
-5.803374e+117
-5.9139296e+117
-5.5556723e+117
-6.1575119e+117
-6.148709e+117
-6.0155369e+117
-6.0236434e+117
-5.2932245e+117
-5.2980538e+117
-5.5087188e+117
-5.5054583e+117
-5.285796e+117
-5.2901187e+117
-6.0310129e+117
-4.8004469e+117
-5.0620403e+117
-5.3034338e+117
-5.4513234e+117
-5.4536576e+117
-5.3042576e+117
-5.5751064e+117
-5.5738926e+117
-5.6963504e+117
-5.6973864e+117
-5.9783939e+117
-5.9278396e+117
-5.9248142e+117
-5.8795223e+117
-5.8766763e+117
-5.8266623e+117
-5.8282386e+117
-5.8288595e+117
-6.3100313e+117
-6.3141958e+117
-6.29952e+117
-6.3047543e+117
-6.2894238e+117
-6.2950209e+117
-6.2822401e+117
-6.2852625e+117
-6.3759606e+117
-6.3606923e+117
-6.4089237e+117
-6.3660961e+117
-6.3721665e+117
-6.4148756e+117
-6.4932483e+117
-6.4744576e+117
-6.4769249e+117
-6.4959936e+117
-6.5001527e+117
-6.4850681e+117
-6.4815126e+117
-6.4971344e+117
-6.4860792e+117
-6.4675407e+117
-6.4713266e+117
-6.489991e+117
-6.489285e+117
-6.4933958e+117
-6.4726634e+117
-6.4774155e+117
-6.352328e+117
-6.3587567e+117
-6.4022925e+117
-6.3954691e+117
-6.4527873e+117
-6.4571635e+117
-6.4751462e+117
-6.4706136e+117
-6.4791528e+117
-6.4610149e+117
-6.4641996e+117
-6.4826242e+117
-6.4729166e+117
-6.4774937e+117
-6.4554377e+117
-6.4600598e+117
-6.4818196e+117
-6.4645061e+117
-6.4855312e+117
-6.4686999e+117
-6.4049414e+117
-6.4075652e+117
-6.3705213e+117
-6.3680837e+117
-6.3733985e+117
-6.4103478e+117
-6.4130302e+117
-6.3762814e+117
-6.378657e+117
-6.415238e+117
-6.4178917e+117
-6.3811896e+117
-6.4200457e+117
-6.421549e+117
-6.3833812e+117
-6.3849595e+117
-6.3984174e+117
-6.3955811e+117
-6.3583996e+117
-6.3611226e+117
-6.3638314e+117
-6.4008915e+117
-6.403005e+117
-6.3661537e+117
-6.3876723e+117
-6.3894442e+117
-6.3507402e+117
-6.3521418e+117
-6.3915142e+117
-6.3936518e+117
-6.354112e+117
-6.3562552e+117
-5.6795335e+117
-5.6258222e+117
-6.2033918e+117
-6.1266381e+117
-6.1234276e+117
-6.2060655e+117
-6.1363069e+117
-6.1312305e+117
-6.2158095e+117
-6.2103421e+117
-6.0666468e+117
-6.0046587e+117
-6.0097208e+117
-6.071465e+117
-6.0585711e+117
-6.0000979e+117
-5.9969867e+117
-6.0619236e+117
-5.9440836e+117
-5.8940244e+117
-5.8909795e+117
-5.9468463e+117
-5.847937e+117
-5.8447771e+117
-5.7979414e+117
-5.801022e+117
-5.6819937e+117
-5.8079506e+117
-5.8037763e+117
-5.8508527e+117
-5.6855066e+117
-5.8549736e+117
-5.9019091e+117
-5.8973761e+117
-5.9509655e+117
-5.9560983e+117
-5.5660498e+117
-5.5625216e+117
-5.9595796e+117
-5.9091568e+117
-5.9055845e+117
-5.9630134e+117
-5.8149873e+117
-5.811202e+117
-5.8621205e+117
-5.8583899e+117
-5.6911232e+117
-5.8230293e+117
-5.8183546e+117
-5.865912e+117
-5.6944985e+117
-5.8715349e+117
-5.9192822e+117
-5.9677565e+117
-5.9132649e+117
-5.9738669e+117
-5.5733528e+117
-5.5693795e+117
-6.2309172e+117
-6.1547752e+117
-6.1502312e+117
-6.2351854e+117
-6.2203816e+117
-6.1448838e+117
-6.1402313e+117
-6.2254078e+117
-6.0747774e+117
-6.012708e+117
-6.0165664e+117
-6.0792202e+117
-6.0275227e+117
-6.0217316e+117
-6.0845018e+117
-6.0895316e+117
-4.7956742e+117
-5.055013e+117
-4.7977174e+117
-5.0587381e+117
-5.2922181e+117
-5.4398817e+117
-5.4429425e+117
-5.2918787e+117
-5.2944754e+117
-5.4450729e+117
-5.4501655e+117
-5.3008027e+117
-6.0864595e+117
-6.119596e+117
-6.0292222e+117
-6.0573934e+117
-6.0298101e+117
-6.0576788e+117
-4.73402e+117
-5.1512778e+117
-5.1509677e+117
-4.9676495e+117
-4.9639085e+117
-5.4370383e+117
-5.3453387e+117
-5.3401815e+117
-5.4329177e+117
-5.5685739e+117
-5.5057951e+117
-5.502594e+117
-5.5663256e+117
-5.5665245e+117
-5.502835e+117
-5.5040974e+117
-5.566935e+117
-5.3396408e+117
-5.4327357e+117
-5.4351952e+117
-5.6222548e+117
-5.6206258e+117
-5.6741854e+117
-5.6762249e+117
-5.6237405e+117
-5.6215873e+117
-5.6763899e+117
-5.6751166e+117
-5.726047e+117
-5.7252844e+117
-5.7776236e+117
-5.777905e+117
-5.7248445e+117
-5.7265445e+117
-5.7781089e+117
-5.7790728e+117
-5.9760162e+117
-6.0028476e+117
-5.9772647e+117
-6.0036367e+117
-5.9305591e+117
-5.9321382e+117
-5.9543048e+117
-5.9269192e+117
-5.9511621e+117
-5.9288996e+117
-5.9528087e+117
-5.9785559e+117
-5.8838979e+117
-5.9076071e+117
-5.8852807e+117
-5.9092524e+117
-5.8798396e+117
-5.9037617e+117
-5.8823579e+117
-5.9059728e+117
-5.8568333e+117
-5.8590435e+117
-5.8331227e+117
-5.8347369e+117
-5.860484e+117
-5.8615513e+117
-5.8366615e+117
-5.8358537e+117
-5.861631e+117
-5.8611012e+117
-5.8366145e+117
-5.8359088e+117
-5.8854353e+117
-6.3255106e+117
-6.3278803e+117
-6.3320873e+117
-6.3302e+117
-6.314518e+117
-6.3167215e+117
-6.3196198e+117
-6.3230328e+117
-6.3067058e+117
-6.3043708e+117
-6.312461e+117
-6.3095648e+117
-6.2972927e+117
-6.2980196e+117
-6.2997578e+117
-6.3022541e+117
-6.1337313e+117
-6.1199382e+117
-6.2885331e+117
-6.4147337e+117
-6.4114134e+117
-6.2494308e+117
-6.2558914e+117
-6.2944178e+117
-6.4176745e+117
-6.4203004e+117
-6.442357e+117
-6.4451363e+117
-6.4657861e+117
-6.4669468e+117
-6.4712451e+117
-6.4699308e+117
-6.4645018e+117
-6.4458202e+117
-6.4632531e+117
-6.4447756e+117
-6.4593529e+117
-6.4401329e+117
-6.4615812e+117
-6.4428015e+117
-6.4643614e+117
-6.4625067e+117
-6.4665031e+117
-6.4684271e+117
-6.4358683e+117
-6.4392763e+117
-6.4572527e+117
-6.4552179e+117
-6.4586373e+117
-6.4607462e+117
-6.4608545e+117
-6.4591856e+117
-6.4627681e+117
-6.4646763e+117
-6.4507998e+117
-6.4531655e+117
-6.4331084e+117
-6.4303998e+117
-6.4356606e+117
-6.4378675e+117
-6.4553253e+117
-6.4573421e+117
-6.2372432e+117
-6.2429266e+117
-6.2827189e+117
-6.4083784e+117
-6.405404e+117
-6.278056e+117
-6.4022977e+117
-6.3986261e+117
-6.4261641e+117
-6.4223422e+117
-6.4295806e+117
-6.4328026e+117
-6.4687324e+117
-6.4429079e+117
-6.4425688e+117
-6.4403141e+117
-6.4451246e+117
-6.4464704e+117
-6.4446611e+117
-6.4472271e+117
-6.4491825e+117
-6.4346164e+117
-6.4135792e+117
-6.4368983e+117
-6.4157462e+117
-6.4389502e+117
-6.4178455e+117
-6.4197128e+117
-6.4408394e+117
-6.4483015e+117
-6.4503716e+117
-6.4511367e+117
-6.4532861e+117
-6.4428527e+117
-6.42178e+117
-6.4452099e+117
-6.4243936e+117
-6.4536171e+117
-6.4521328e+117
-6.4551546e+117
-6.4568804e+117
-6.4472044e+117
-6.4489626e+117
-6.4266836e+117
-6.4284636e+117
-6.3751773e+117
-6.3739548e+117
-6.3551515e+117
-6.3562749e+117
-6.3774607e+117
-6.3763101e+117
-6.3574978e+117
-6.3587123e+117
-6.3788609e+117
-6.3601872e+117
-6.3806095e+117
-6.3619413e+117
-6.3635375e+117
-6.3821122e+117
-6.3834227e+117
-6.3649576e+117
-6.3856529e+117
-6.3844567e+117
-6.3660127e+117
-6.3670973e+117
-6.3880538e+117
-6.3868828e+117
-6.3683599e+117
-6.3696444e+117
-6.3891041e+117
-6.3904225e+117
-6.3707049e+117
-6.3719012e+117
-6.3914617e+117
-6.3921066e+117
-6.3728651e+117
-6.37349e+117
-6.3680664e+117
-6.366768e+117
-6.3478808e+117
-6.3492537e+117
-6.3653841e+117
-6.3642423e+117
-6.3455044e+117
-6.3465415e+117
-6.3692337e+117
-6.3707582e+117
-6.3505219e+117
-6.3519553e+117
-6.3730506e+117
-6.3719793e+117
-6.353224e+117
-6.3543023e+117
-6.3575158e+117
-6.3569547e+117
-6.33807e+117
-6.3384649e+117
-6.3391224e+117
-6.3582399e+117
-6.3589639e+117
-6.3398952e+117
-6.3611192e+117
-6.3598058e+117
-6.3408834e+117
-6.3421575e+117
-6.3633888e+117
-6.3622905e+117
-6.3434084e+117
-6.3445648e+117
-4.50112e+117
-5.7261725e+117
-5.7045441e+117
-5.7054528e+117
-5.726143e+117
-5.6833353e+117
-5.660798e+117
-5.6844784e+117
-5.7943442e+117
-5.675818e+117
-5.8408032e+117
-5.8869775e+117
-5.558431e+117
-5.0522436e+117
-4.7895976e+117
-4.7926633e+117
-5.4369256e+117
-5.2893945e+117
-6.1984341e+117
-6.2479915e+117
-6.1990466e+117
-6.2484685e+117
-6.1205216e+117
-6.1231796e+117
-6.1595597e+117
-6.161903e+117
-6.1178837e+117
-6.1569911e+117
-6.1186814e+117
-6.1578516e+117
-6.2005538e+117
-6.2500495e+117
-6.2028726e+117
-6.2524659e+117
-6.1308275e+117
-6.1335241e+117
-6.1695371e+117
-6.1722695e+117
-6.1255949e+117
-6.1641072e+117
-6.1281218e+117
-6.1667385e+117
-6.2102953e+117
-6.2133068e+117
-6.2598279e+117
-6.2629054e+117
-6.2545786e+117
-6.2049275e+117
-6.2073894e+117
-6.2568951e+117
-6.0587004e+117
-6.0920624e+117
-6.0614312e+117
-6.0946252e+117
-6.0003213e+117
-6.0030969e+117
-6.0291857e+117
-6.0320425e+117
-6.0057209e+117
-6.0081267e+117
-6.0345968e+117
-6.036836e+117
-6.0638939e+117
-6.0662612e+117
-6.0972467e+117
-6.0998475e+117
-6.0505098e+117
-6.0840366e+117
-6.0514403e+117
-6.0848195e+117
-5.9950674e+117
-5.9976846e+117
-6.0238433e+117
-6.0265128e+117
-5.9923823e+117
-6.0209956e+117
-5.9933181e+117
-6.022036e+117
-6.0532076e+117
-6.0559857e+117
-6.0866747e+117
-6.0894869e+117
-5.9386673e+117
-5.9656865e+117
-5.9396242e+117
-5.9665183e+117
-5.8921644e+117
-5.8943268e+117
-5.9162936e+117
-5.9184968e+117
-5.8893382e+117
-5.9136232e+117
-5.8905688e+117
-5.9147603e+117
-5.9410754e+117
-5.9434274e+117
-5.9681134e+117
-5.9706684e+117
-5.8462321e+117
-5.8692424e+117
-5.8483497e+117
-5.8713969e+117
-5.8430195e+117
-5.8663071e+117
-5.8446833e+117
-5.8676523e+117
-5.8211164e+117
-5.8227234e+117
-5.7989997e+117
-5.7529196e+117
-5.8004114e+117
-5.8243977e+117
-5.8265043e+117
-5.755545e+117
-5.8043889e+117
-5.802229e+117
-5.705445e+117
-5.7076722e+117
-5.8318562e+117
-5.8342625e+117
-5.7622019e+117
-5.8122233e+117
-5.809791e+117
-5.8280054e+117
-5.8298484e+117
-5.7578459e+117
-5.8076571e+117
-5.8059384e+117
-5.8497751e+117
-5.8731623e+117
-5.8516251e+117
-5.8750759e+117
-5.709106e+117
-5.7138172e+117
-5.8535911e+117
-5.8772223e+117
-5.8560897e+117
-5.87983e+117
-5.9007837e+117
-5.9257223e+117
-5.903409e+117
-5.928316e+117
-5.8963543e+117
-5.920796e+117
-5.8984818e+117
-5.9232717e+117
-5.9459529e+117
-5.9733293e+117
-5.9485915e+117
-5.9760702e+117
-5.9511845e+117
-5.9787434e+117
-5.9537951e+117
-5.9813078e+117
-5.6151012e+117
-5.6114892e+117
-5.6617433e+117
-5.6662077e+117
-5.6591636e+117
-5.6094599e+117
-5.6099923e+117
-5.6606621e+117
-5.9555224e+117
-5.9827375e+117
-5.9569736e+117
-5.9839953e+117
-5.9089488e+117
-5.9116047e+117
-5.933724e+117
-5.9363271e+117
-5.9053808e+117
-5.9302002e+117
-5.9070055e+117
-5.9318177e+117
-5.9588289e+117
-5.9615648e+117
-5.986016e+117
-5.9889877e+117
-5.8398776e+117
-5.8425205e+117
-5.7692185e+117
-5.8206411e+117
-5.817979e+117
-5.8359775e+117
-5.8378158e+117
-5.7658811e+117
-5.8157139e+117
-5.8139503e+117
-5.8615897e+117
-5.8852589e+117
-5.8642892e+117
-5.8879929e+117
-5.8578521e+117
-5.8816949e+117
-5.8596751e+117
-5.8833176e+117
-5.7179018e+117
-5.7208176e+117
-5.8496219e+117
-5.8535135e+117
-5.7754264e+117
-5.8303688e+117
-5.8270138e+117
-5.8444597e+117
-5.8468594e+117
-5.7719258e+117
-5.824475e+117
-5.8225117e+117
-5.8663374e+117
-5.8902e+117
-5.8689298e+117
-5.8927883e+117
-5.7226779e+117
-5.7249831e+117
-5.8718818e+117
-5.8959699e+117
-5.8761416e+117
-5.9002663e+117
-5.9198551e+117
-5.944991e+117
-5.9238861e+117
-5.9486326e+117
-5.9642896e+117
-5.9918249e+117
-5.9673085e+117
-5.9948345e+117
-5.913879e+117
-5.9387937e+117
-5.9165857e+117
-5.9417264e+117
-5.9705415e+117
-5.9980828e+117
-5.9739207e+117
-6.0012403e+117
-5.622103e+117
-5.6240646e+117
-5.6742127e+117
-5.6758371e+117
-5.6704569e+117
-5.6180004e+117
-5.620183e+117
-5.6727039e+117
-6.2268977e+117
-6.2763769e+117
-6.2295355e+117
-6.2788003e+117
-6.1512877e+117
-6.1528675e+117
-6.1905631e+117
-6.1918376e+117
-6.1460922e+117
-6.185424e+117
-6.1488567e+117
-6.1882888e+117
-6.2317409e+117
-6.2811822e+117
-6.2331855e+117
-6.282905e+117
-6.2156315e+117
-6.2651346e+117
-6.2179445e+117
-6.2673549e+117
-6.1399307e+117
-6.1793171e+117
-6.1432708e+117
-6.1826139e+117
-6.1354305e+117
-6.1743469e+117
-6.137367e+117
-6.176659e+117
-6.2206311e+117
-6.2240623e+117
-6.2702137e+117
-6.2737494e+117
-6.0678815e+117
-6.0694996e+117
-6.1015913e+117
-6.1033266e+117
-6.0093981e+117
-6.0381883e+117
-6.0107335e+117
-6.0397326e+117
-6.012939e+117
-6.0159918e+117
-6.0420275e+117
-6.0450772e+117
-6.0718292e+117
-6.0749954e+117
-6.105803e+117
-6.1091261e+117
-6.0249475e+117
-6.0278208e+117
-6.0539152e+117
-6.056363e+117
-6.0187705e+117
-6.0217984e+117
-6.047837e+117
-6.0509189e+117
-6.0777667e+117
-6.1119519e+117
-6.0807093e+117
-6.1147816e+117
-6.0834947e+117
-6.0856892e+117
-6.1174055e+117
-6.1192768e+117
-4.7269523e+117
-4.9589116e+117
-5.1416467e+117
-5.1400049e+117
-4.954096e+117
-4.7298911e+117
-5.1426656e+117
-5.1493277e+117
-4.9563776e+117
-4.9646485e+117
-5.4256874e+117
-5.3345404e+117
-5.3292847e+117
-5.422285e+117
-5.5553026e+117
-5.4936678e+117
-5.4920695e+117
-5.5553898e+117
-5.5573551e+117
-5.4931129e+117
-5.4952392e+117
-5.5596941e+117
-5.3277232e+117
-5.3302404e+117
-5.4218031e+117
-5.4234706e+117
-5.3333944e+117
-5.3320425e+117
-5.4248655e+117
-5.4272383e+117
-5.4960189e+117
-5.4982935e+117
-5.5614921e+117
-5.5635735e+117
-5.5027708e+117
-5.5063177e+117
-5.5668312e+117
-5.5691514e+117
-5.3446378e+117
-5.3378514e+117
-5.431554e+117
-5.4362139e+117
-6.0828178e+117
-6.0827594e+117
-6.0986164e+117
-6.0987263e+117
-6.1147455e+117
-6.132408e+117
-6.1320373e+117
-6.1144936e+117
-6.0264964e+117
-6.0262366e+117
-6.0398598e+117
-6.0400457e+117
-6.0535366e+117
-6.0534662e+117
-6.0681564e+117
-6.0681252e+117
-6.0408254e+117
-6.0268857e+117
-6.0403721e+117
-6.0274707e+117
-6.06828e+117
-6.0538049e+117
-6.0541294e+117
-6.0684733e+117
-4.9381585e+117
-4.933631e+117
-5.2422029e+117
-5.236395e+117
-5.112543e+117
-5.1043572e+117
-5.2356184e+117
-5.1034311e+117
-5.531051e+117
-5.4949086e+117
-5.4903061e+117
-5.5275083e+117
-5.4532999e+117
-5.3967202e+117
-5.39031e+117
-5.4481985e+117
-5.3848524e+117
-5.3861453e+117
-5.4442759e+117
-5.4427174e+117
-5.5246785e+117
-5.4863812e+117
-5.4848471e+117
-5.5231532e+117
-5.637601e+117
-5.6129824e+117
-5.6105965e+117
-5.635331e+117
-5.5884785e+117
-5.5613991e+117
-5.5585382e+117
-5.5859242e+117
-5.5553217e+117
-5.5564449e+117
-5.5843353e+117
-5.5837277e+117
-5.6340566e+117
-5.6091168e+117
-5.6085789e+117
-5.6334906e+117
-5.632536e+117
-5.6081208e+117
-5.6068468e+117
-5.631095e+117
-5.5831505e+117
-5.5547923e+117
-5.5545867e+117
-5.5823515e+117
-5.5577566e+117
-5.5557427e+117
-5.5828925e+117
-5.5851664e+117
-5.6315068e+117
-5.6069949e+117
-5.6097475e+117
-5.6346218e+117
-5.4428258e+117
-5.3846014e+117
-5.3844922e+117
-5.4429837e+117
-5.4846919e+117
-5.4847645e+117
-5.522572e+117
-5.5225871e+117
-5.5241072e+117
-5.4865011e+117
-5.6120601e+117
-5.6374125e+117
-5.6581648e+117
-5.6549564e+117
-5.6777962e+117
-5.68099e+117
-5.6538603e+117
-5.6549357e+117
-5.6774123e+117
-5.6764016e+117
-5.722904e+117
-5.6993912e+117
-5.6984744e+117
-5.7218851e+117
-5.7229178e+117
-5.699806e+117
-5.7026118e+117
-5.725102e+117
-5.6822552e+117
-5.6603513e+117
-5.6585062e+117
-5.6808382e+117
-5.6565378e+117
-5.6574197e+117
-5.6800445e+117
-5.6792326e+117
-5.7022434e+117
-5.7031965e+117
-5.7254515e+117
-5.724777e+117
-5.7243977e+117
-5.701658e+117
-5.7009612e+117
-5.7241157e+117
-5.76872e+117
-5.7469566e+117
-5.7466755e+117
-5.76884e+117
-5.746318e+117
-5.7464835e+117
-5.7688671e+117
-5.7689829e+117
-5.7905205e+117
-5.7899731e+117
-5.812001e+117
-5.8130452e+117
-5.8137618e+117
-5.7908696e+117
-5.7911781e+117
-5.8144429e+117
-5.7683968e+117
-5.7454766e+117
-5.7445678e+117
-5.7675602e+117
-5.7465744e+117
-5.7452633e+117
-5.7679064e+117
-5.7684225e+117
-5.7900607e+117
-5.7908615e+117
-5.8142635e+117
-5.8134434e+117
-5.8133268e+117
-5.7901433e+117
-5.7901339e+117
-5.8129188e+117
-5.987358e+117
-5.9740614e+117
-5.9867447e+117
-5.9747447e+117
-5.9995803e+117
-6.0130543e+117
-6.0133435e+117
-6.0000221e+117
-5.9762567e+117
-5.9886205e+117
-5.9754425e+117
-5.9879202e+117
-6.00053e+117
-6.0137947e+117
-6.001189e+117
-6.014428e+117
-5.9308627e+117
-5.9419603e+117
-5.9426489e+117
-5.9315288e+117
-5.9330004e+117
-5.9322594e+117
-5.9433708e+117
-5.9440579e+117
-5.9655556e+117
-5.9531766e+117
-5.9649612e+117
-5.9538357e+117
-5.9391774e+117
-5.926606e+117
-5.9380685e+117
-5.9278611e+117
-5.9496646e+117
-5.9618209e+117
-5.9625565e+117
-5.9505844e+117
-5.9411478e+117
-5.9289123e+117
-5.9401235e+117
-5.9299938e+117
-5.951485e+117
-5.9633682e+117
-5.9524399e+117
-5.9642721e+117
-5.9768775e+117
-5.9892166e+117
-5.9896951e+117
-5.9773907e+117
-5.8865391e+117
-5.8871096e+117
-5.8974635e+117
-5.8980886e+117
-5.9091406e+117
-5.9196635e+117
-5.9203201e+117
-5.9084935e+117
-5.8878979e+117
-5.8883889e+117
-5.8993514e+117
-5.8987987e+117
-5.9098277e+117
-5.9104805e+117
-5.9210447e+117
-5.9217954e+117
-5.8941565e+117
-5.8813663e+117
-5.8923963e+117
-5.8832071e+117
-5.903685e+117
-5.915157e+117
-5.9165109e+117
-5.9052707e+117
-5.8967517e+117
-5.8847517e+117
-5.8955284e+117
-5.8859692e+117
-5.9064941e+117
-5.9176516e+117
-5.9076794e+117
-5.9187752e+117
-5.8570417e+117
-5.8586837e+117
-5.87011e+117
-5.871839e+117
-5.8733434e+117
-5.8745631e+117
-5.8600124e+117
-5.8611165e+117
-5.8400341e+117
-5.8424272e+117
-5.8618387e+117
-5.8622728e+117
-5.8751857e+117
-5.875688e+117
-5.8763385e+117
-5.876773e+117
-5.8626646e+117
-5.8629298e+117
-5.8442276e+117
-5.8437876e+117
-5.8628985e+117
-5.8626417e+117
-5.8766735e+117
-5.876398e+117
-5.8763104e+117
-5.8760379e+117
-5.8624176e+117
-5.8621553e+117
-5.8439685e+117
-5.8434403e+117
-5.8993064e+117
-5.8883081e+117
-5.8994712e+117
-5.8880733e+117
-6.3338635e+117
-6.3348159e+117
-6.3360175e+117
-6.3375131e+117
-6.3406098e+117
-6.3413733e+117
-6.3396269e+117
-6.3385774e+117
-6.3227501e+117
-6.323655e+117
-6.3247738e+117
-6.3262129e+117
-6.3275952e+117
-6.3293272e+117
-6.3310171e+117
-6.3327845e+117
-6.3148029e+117
-6.3163043e+117
-6.3137501e+117
-6.3127982e+117
-6.3203251e+117
-6.3217917e+117
-6.3189403e+117
-6.3175305e+117
-6.305712e+117
-6.305651e+117
-6.3069782e+117
-6.306143e+117
-6.3078067e+117
-6.3088994e+117
-6.3117266e+117
-6.3102118e+117
-6.1064148e+117
-5.8787937e+117
-6.1212142e+117
-6.1280947e+117
-5.8671324e+117
-6.1156914e+117
-6.1102247e+117
-6.3563021e+117
-6.353274e+117
-6.1671564e+117
-6.289699e+117
-6.2924509e+117
-6.3615289e+117
-6.3591494e+117
-6.1732961e+117
-6.2952642e+117
-6.2973095e+117
-6.3959874e+117
-6.3948285e+117
-6.406519e+117
-6.4079015e+117
-6.4371419e+117
-6.4387899e+117
-6.3986361e+117
-6.3972647e+117
-6.4092129e+117
-6.4104787e+117
-6.440186e+117
-6.4414339e+117
-6.4522127e+117
-6.4524457e+117
-6.454436e+117
-6.4540056e+117
-6.4525282e+117
-6.4505381e+117
-6.4515942e+117
-6.4533804e+117
-6.445556e+117
-6.4515334e+117
-6.4520079e+117
-6.4460608e+117
-6.4100835e+117
-6.4328585e+117
-6.4333507e+117
-6.410749e+117
-6.4500982e+117
-6.4509055e+117
-6.4449626e+117
-6.4440101e+117
-6.4310208e+117
-6.4321725e+117
-6.4091429e+117
-6.4078477e+117
-6.4474588e+117
-6.4463331e+117
-6.4399779e+117
-6.4412709e+117
-6.4031016e+117
-6.4265417e+117
-6.4279757e+117
-6.4044467e+117
-6.4493186e+117
-6.4485554e+117
-6.4423439e+117
-6.4433146e+117
-6.4301596e+117
-6.4291713e+117
-6.4056805e+117
-6.4068151e+117
-6.4484727e+117
-6.4471728e+117
-6.4489974e+117
-6.4501583e+117
-6.4511276e+117
-6.449381e+117
-6.4498779e+117
-6.4518294e+117
-6.3900055e+117
-6.3887747e+117
-6.4017687e+117
-6.4004048e+117
-6.4304296e+117
-6.4321292e+117
-6.3933931e+117
-6.391561e+117
-6.4033064e+117
-6.4050852e+117
-6.4338491e+117
-6.4355834e+117
-6.4413318e+117
-6.4398731e+117
-6.4424222e+117
-6.441141e+117
-6.4420961e+117
-6.4427146e+117
-6.4434276e+117
-6.4442673e+117
-6.4452035e+117
-6.4435964e+117
-6.4463981e+117
-6.444969e+117
-6.4458621e+117
-6.4463927e+117
-6.4473493e+117
-6.4481286e+117
-6.4313266e+117
-6.4382687e+117
-6.439289e+117
-6.4324893e+117
-6.4413203e+117
-6.4403923e+117
-6.4346932e+117
-6.4335717e+117
-6.4196653e+117
-6.3954056e+117
-6.3965769e+117
-6.4207609e+117
-6.3931046e+117
-6.4173668e+117
-6.4185227e+117
-6.3942653e+117
-6.4218365e+117
-6.4233482e+117
-6.3995186e+117
-6.3978636e+117
-6.4008602e+117
-6.4244927e+117
-6.4254548e+117
-6.4020857e+117
-6.4434653e+117
-6.4423235e+117
-6.4368893e+117
-6.4356116e+117
-6.445352e+117
-6.4444848e+117
-6.438917e+117
-6.4379522e+117
-6.2212307e+117
-6.2301331e+117
-6.2707878e+117
-6.3504114e+117
-6.3479411e+117
-6.1622354e+117
-6.285211e+117
-6.286986e+117
-6.3454877e+117
-6.3423956e+117
-6.1590159e+117
-6.2807414e+117
-6.2832825e+117
-6.4184371e+117
-6.3818483e+117
-6.3801238e+117
-6.3914842e+117
-6.4204201e+117
-6.39318e+117
-6.4222226e+117
-6.3784797e+117
-6.3769945e+117
-6.3881746e+117
-6.3898286e+117
-6.4166392e+117
-6.4186038e+117
-6.3843317e+117
-6.3831733e+117
-6.3946399e+117
-6.3960197e+117
-6.4239154e+117
-6.4257056e+117
-6.3874008e+117
-6.3857641e+117
-6.3975224e+117
-6.3991069e+117
-6.427363e+117
-6.4289479e+117
-6.4384248e+117
-6.4364149e+117
-6.4388895e+117
-6.4409655e+117
-6.4328159e+117
-6.4120942e+117
-6.425172e+117
-6.426537e+117
-6.4274241e+117
-6.4262626e+117
-6.4276064e+117
-6.4282432e+117
-6.4293247e+117
-6.4284931e+117
-6.4291462e+117
-6.4305034e+117
-6.4313991e+117
-6.430245e+117
-6.4323627e+117
-6.431439e+117
-6.4319762e+117
-6.4331091e+117
-6.4228926e+117
-6.4239624e+117
-6.4154849e+117
-6.4165797e+117
-6.3763157e+117
-6.4011136e+117
-6.4021499e+117
-6.3770892e+117
-6.4250563e+117
-6.4176445e+117
-6.4259361e+117
-6.4185478e+117
-6.4038709e+117
-6.4030694e+117
-6.3778603e+117
-6.3785867e+117
-6.4268695e+117
-6.427935e+117
-6.4205678e+117
-6.4194522e+117
-6.379421e+117
-6.4047503e+117
-6.4060206e+117
-6.3806891e+117
-6.3817611e+117
-6.4069501e+117
-6.4077107e+117
-6.3827255e+117
-6.4289198e+117
-6.4297076e+117
-6.4222605e+117
-6.4214611e+117
-6.4341483e+117
-6.4328181e+117
-6.4339905e+117
-6.4351438e+117
-6.4357666e+117
-6.4351454e+117
-6.436187e+117
-6.4370327e+117
-6.4317316e+117
-6.4306267e+117
-6.423214e+117
-6.4244973e+117
-6.3834861e+117
-6.4086116e+117
-6.4100158e+117
-6.3848253e+117
-6.4337987e+117
-6.4328598e+117
-6.4256586e+117
-6.4267308e+117
-6.4123126e+117
-6.411211e+117
-6.3861756e+117
-6.3874322e+117
-6.4379124e+117
-6.4365943e+117
-6.4378981e+117
-6.439038e+117
-6.4398981e+117
-6.4387063e+117
-6.439141e+117
-6.4405528e+117
-6.4358126e+117
-6.4347393e+117
-6.4276812e+117
-6.428845e+117
-6.43743e+117
-6.4367197e+117
-6.4297408e+117
-6.4304692e+117
-6.4147597e+117
-6.4133495e+117
-6.3885952e+117
-6.3900969e+117
-6.4165338e+117
-6.415753e+117
-6.3912303e+117
-6.3922591e+117
-4.4737343e+117
-6.3359301e+117
-6.3347945e+117
-6.3382787e+117
-6.3371236e+117
-6.339736e+117
-6.3414692e+117
-6.3430899e+117
-6.3446037e+117
-6.3468884e+117
-6.3458242e+117
-6.3494561e+117
-6.348188e+117
-6.3505704e+117
-6.3516643e+117
-6.3525523e+117
-6.3531976e+117
-6.3284886e+117
-6.3272131e+117
-6.3260621e+117
-6.3251194e+117
-6.3297388e+117
-6.3311345e+117
-6.3336818e+117
-6.3324312e+117
-6.3179587e+117
-6.317683e+117
-6.3185856e+117
-6.3192841e+117
-6.3212598e+117
-6.3201226e+117
-6.3238505e+117
-6.3224941e+117
-4.4984553e+117
-5.7413864e+117
-5.7232096e+117
-5.7243091e+117
-5.741468e+117
-5.7050633e+117
-5.6864122e+117
-5.7071518e+117
-5.8166718e+117
-5.8193095e+117
-5.749344e+117
-5.7973032e+117
-5.7947392e+117
-5.7437737e+117
-5.6957697e+117
-5.7018059e+117
-5.8382676e+117
-5.8617181e+117
-5.8410238e+117
-5.8644233e+117
-5.8850307e+117
-5.8875565e+117
-5.9120724e+117
-5.6064284e+117
-5.6005234e+117
-5.6493703e+117
-5.6553925e+117
-4.949451e+117
-5.1333739e+117
-4.9574116e+117
-5.1400826e+117
-4.7242698e+117
-5.3217324e+117
-5.5482087e+117
-5.4868512e+117
-5.4922534e+117
-5.5534032e+117
-5.3332922e+117
-5.3261316e+117
-5.4179173e+117
-5.4235261e+117
-6.2211514e+117
-6.1955925e+117
-6.2209083e+117
-6.1956972e+117
-6.246729e+117
-6.2764206e+117
-6.2763119e+117
-6.2467643e+117
-6.1966947e+117
-6.2218917e+117
-6.1960369e+117
-6.2213869e+117
-6.2470505e+117
-6.2766284e+117
-6.2476516e+117
-6.2773865e+117
-6.1156106e+117
-6.13467e+117
-6.1359215e+117
-6.1168292e+117
-6.1196682e+117
-6.1181325e+117
-6.1371506e+117
-6.1385681e+117
-6.1766274e+117
-6.1537262e+117
-6.1756685e+117
-6.154801e+117
-6.1575091e+117
-6.1793469e+117
-6.1560553e+117
-6.1779095e+117
-6.1326972e+117
-6.1132954e+117
-6.1324e+117
-6.1134873e+117
-6.1515741e+117
-6.1736745e+117
-6.1737343e+117
-6.1517399e+117
-6.1337714e+117
-6.1139104e+117
-6.1330791e+117
-6.1146813e+117
-6.1521752e+117
-6.1741611e+117
-6.15288e+117
-6.1748577e+117
-6.1974095e+117
-6.2226204e+117
-6.2236893e+117
-6.1983482e+117
-6.278167e+117
-6.2484279e+117
-6.2494608e+117
-6.2792079e+117
-6.1995987e+117
-6.2010217e+117
-6.2249404e+117
-6.2262575e+117
-6.2805138e+117
-6.2521866e+117
-6.2820847e+117
-6.2507406e+117
-6.1260672e+117
-6.1449315e+117
-6.1464635e+117
-6.1275008e+117
-6.1300835e+117
-6.1287804e+117
-6.1477371e+117
-6.1489993e+117
-6.1869339e+117
-6.1637791e+117
-6.1855487e+117
-6.1652077e+117
-6.1679724e+117
-6.1898884e+117
-6.1665846e+117
-6.1884122e+117
-6.1410214e+117
-6.1208672e+117
-6.1397426e+117
-6.1220871e+117
-6.1586284e+117
-6.1803934e+117
-6.1814152e+117
-6.1597572e+117
-6.1436176e+117
-6.1233214e+117
-6.1422018e+117
-6.1247495e+117
-6.1609949e+117
-6.1826857e+117
-6.1624563e+117
-6.1841958e+117
-6.2071379e+117
-6.2323114e+117
-6.2338507e+117
-6.208554e+117
-6.2100592e+117
-6.2353732e+117
-6.2115932e+117
-6.2368194e+117
-6.287918e+117
-6.2893535e+117
-6.2581358e+117
-6.2595974e+117
-6.2626567e+117
-6.2611191e+117
-6.2908455e+117
-6.2924388e+117
-6.2532383e+117
-6.2831438e+117
-6.2842037e+117
-6.2543247e+117
-6.2284142e+117
-6.2020437e+117
-6.2272836e+117
-6.2030641e+117
-6.205817e+117
-6.2042993e+117
-6.2296059e+117
-6.2310155e+117
-6.2568644e+117
-6.2553992e+117
-6.2851478e+117
-6.2866742e+117
-6.0714368e+117
-6.0538814e+117
-6.0699456e+117
-6.0553398e+117
-6.0859991e+117
-6.103661e+117
-6.1048791e+117
-6.0873392e+117
-6.0742002e+117
-6.0567277e+117
-6.0727739e+117
-6.0582446e+117
-6.0886748e+117
-6.1061854e+117
-6.0900771e+117
-6.1075575e+117
-5.9960703e+117
-6.0100855e+117
-6.0115576e+117
-5.9975064e+117
-5.9989347e+117
-6.0129569e+117
-6.0144559e+117
-6.0004679e+117
-6.0240053e+117
-6.0390036e+117
-6.0404367e+117
-6.0254412e+117
-6.0268536e+117
-6.0418394e+117
-6.0434057e+117
-6.0283808e+117
-6.0016804e+117
-6.0156658e+117
-6.0169133e+117
-6.0029048e+117
-6.0051515e+117
-6.004073e+117
-6.0180195e+117
-6.0190209e+117
-6.0295612e+117
-6.0445386e+117
-6.0456762e+117
-6.0307393e+117
-6.0328801e+117
-6.0318157e+117
-6.0467403e+117
-6.0478348e+117
-6.0593305e+117
-6.0753078e+117
-6.0765244e+117
-6.060456e+117
-6.0626956e+117
-6.0615623e+117
-6.0777011e+117
-6.0788407e+117
-6.1089092e+117
-6.1102843e+117
-6.0913039e+117
-6.0925694e+117
-6.095042e+117
-6.0938144e+117
-6.1115786e+117
-6.1128479e+117
-6.0622833e+117
-6.0457775e+117
-6.0619116e+117
-6.0460944e+117
-6.078086e+117
-6.095912e+117
-6.0960604e+117
-6.0783331e+117
-6.0473947e+117
-6.0634348e+117
-6.0466065e+117
-6.0627272e+117
-6.0788001e+117
-6.0965277e+117
-6.0795363e+117
-6.0972899e+117
-5.9907655e+117
-6.0047275e+117
-6.0059053e+117
-5.9918689e+117
-5.9931407e+117
-6.0071733e+117
-6.0087395e+117
-5.9947191e+117
-6.0345367e+117
-6.0185715e+117
-6.0334343e+117
-6.0196941e+117
-6.0376581e+117
-6.0210622e+117
-6.0359694e+117
-6.0226601e+117
-6.0025477e+117
-5.9882412e+117
-6.0021265e+117
-5.9885894e+117
-6.0159734e+117
-6.0308886e+117
-6.0311639e+117
-6.0163192e+117
-6.0038188e+117
-5.9890929e+117
-6.0030361e+117
-5.9898808e+117
-6.0168691e+117
-6.0317173e+117
-6.017671e+117
-6.0325307e+117
-6.048251e+117
-6.0643178e+117
-6.0655296e+117
-6.0493756e+117
-6.0508213e+117
-6.0669554e+117
-6.052499e+117
-6.068541e+117
-6.0982608e+117
-6.0994832e+117
-6.0804769e+117
-6.081676e+117
-6.0846864e+117
-6.0830858e+117
-6.1008696e+117
-6.1024351e+117
-5.9486493e+117
-5.9353949e+117
-5.9482146e+117
-5.9357941e+117
-5.9612038e+117
-5.9748434e+117
-5.9751323e+117
-5.9615484e+117
-5.9370353e+117
-5.9497766e+117
-5.9363181e+117
-5.9491093e+117
-5.9620321e+117
-5.9756307e+117
-5.9627344e+117
-5.9763862e+117
-5.8903965e+117
-5.9017592e+117
-5.9026758e+117
-5.891269e+117
-5.893546e+117
-5.8923156e+117
-5.9037433e+117
-5.9050209e+117
-5.9263812e+117
-5.9133245e+117
-5.9254695e+117
-5.9142268e+117
-5.9166877e+117
-5.9289424e+117
-5.9153208e+117
-5.9274993e+117
-5.8996273e+117
-5.887506e+117
-5.8990337e+117
-5.8881454e+117
-5.9107552e+117
-5.9230197e+117
-5.9234026e+117
-5.9112339e+117
-5.9009691e+117
-5.8887825e+117
-5.9002118e+117
-5.8895692e+117
-5.9118342e+117
-5.923974e+117
-5.9125738e+117
-5.9247176e+117
-5.9377593e+117
-5.9505337e+117
-5.9515162e+117
-5.9386753e+117
-5.9398446e+117
-5.952736e+117
-5.9413176e+117
-5.9542214e+117
-5.9772556e+117
-5.9783157e+117
-5.9635496e+117
-5.9645503e+117
-5.967358e+117