/*--------------------------------*- C++ -*----------------------------------*\
  =========                 |
  \\      /  F ield         | OpenFOAM: The Open Source CFD Toolbox
   \\    /   O peration     | Website:  https://openfoam.org
    \\  /    A nd           | Version:  7
     \\/     M anipulation  |
\*---------------------------------------------------------------------------*/
FoamFile
{
    version     2.0;
    format      ascii;
    class       volScalarField;
    location    "10000";
    object      pMean;
}
// * * * * * * * * * * * * * * * * * * * * * * * * * * * * * * * * * * * * * //

dimensions      [0 2 -2 0 0 0 0];

internalField   nonuniform List<scalar> 
34356
(
-1.5352663e+114
-1.5502259e+114
-1.5541266e+114
-1.5520803e+114
-1.5443687e+114
-1.5452713e+114
-1.4508048e+114
-1.5324256e+114
-1.5325234e+114
-1.5491822e+114
-1.5560354e+114
-1.5482631e+114
-1.5534469e+114
-1.5752581e+114
-1.5756339e+114
-1.5790937e+114
-1.5794915e+114
-1.5750319e+114
-1.5793915e+114
-1.5751134e+114
-1.5779655e+114
-1.4885082e+114
-1.4536253e+114
-1.4539684e+114
-1.4883755e+114
-1.3722748e+114
-1.428773e+114
-1.4300507e+114
-1.4439786e+114
-1.444618e+114
-1.3593561e+114
-1.4060351e+114
-1.4843149e+114
-1.4589469e+114
-1.5722318e+114
-1.5715108e+114
-1.5703031e+114
-1.5685246e+114
-1.5619544e+114
-1.5544956e+114
-1.5538667e+114
-1.5628478e+114
-1.5601739e+114
-1.5716391e+114
-1.5591912e+114
-1.5705075e+114
-1.5540144e+114
-1.5540966e+114
-1.5619789e+114
-1.5614696e+114
-1.5583757e+114
-1.5582505e+114
-1.5695378e+114
-1.5698358e+114
-1.5894311e+114
-1.5863608e+114
-1.5869764e+114
-1.5910781e+114
-1.5867149e+114
-1.5908521e+114
-1.586668e+114
-1.5894517e+114
-1.5855288e+114
-1.5854834e+114
-1.5887897e+114
-1.5879647e+114
-1.5873323e+114
-1.5846635e+114
-1.5853863e+114
-1.5888769e+114
-1.5350887e+114
-1.5367462e+114
-1.5071054e+114
-1.5059345e+114
-1.4799738e+114
-1.455245e+114
-1.4547919e+114
-1.4807388e+114
-1.4041761e+114
-1.4815891e+114
-1.4567608e+114
-1.4562792e+114
-1.4820313e+114
-1.4055205e+114
-1.5382397e+114
-1.5379326e+114
-1.5077468e+114
-1.5080639e+114
-1.358496e+114
-1.3591419e+114
-1.3868759e+114
-1.3863677e+114
-1.366801e+114
-1.3690505e+114
-1.5180673e+114
-1.2968626e+114
-1.3229092e+114
-1.3674308e+114
-1.3890284e+114
-1.3898656e+114
-1.3675273e+114
-1.4030755e+114
-1.4024667e+114
-1.4287627e+114
-1.4297502e+114
-1.4987336e+114
-1.4871831e+114
-1.4861286e+114
-1.4706693e+114
-1.4697948e+114
-1.4576525e+114
-1.4582979e+114
-1.4585674e+114
-1.5919687e+114
-1.5913133e+114
-1.5898084e+114
-1.5910187e+114
-1.588658e+114
-1.5887229e+114
-1.5873437e+114
-1.5881683e+114
-1.5280417e+114
-1.5273314e+114
-1.562181e+114
-1.5501964e+114
-1.5490627e+114
-1.5622811e+114
-1.5755188e+114
-1.5664141e+114
-1.5664768e+114
-1.5761992e+114
-1.5736403e+114
-1.5790092e+114
-1.5786085e+114
-1.5731542e+114
-1.5752193e+114
-1.5658389e+114
-1.5663452e+114
-1.5754481e+114
-1.5728611e+114
-1.5727856e+114
-1.5783471e+114
-1.5785866e+114
-1.5487395e+114
-1.5484162e+114
-1.5612277e+114
-1.5607254e+114
-1.5641552e+114
-1.5649089e+114
-1.5738383e+114
-1.573477e+114
-1.5740837e+114
-1.5651496e+114
-1.5650545e+114
-1.5745345e+114
-1.5710308e+114
-1.5710504e+114
-1.5763563e+114
-1.5767967e+114
-1.571708e+114
-1.5774367e+114
-1.5719508e+114
-1.5776487e+114
-1.5925583e+114
-1.5929284e+114
-1.595564e+114
-1.5942155e+114
-1.5955523e+114
-1.5933237e+114
-1.5930714e+114
-1.5946317e+114
-1.5951347e+114
-1.5936292e+114
-1.5938343e+114
-1.5960376e+114
-1.5938947e+114
-1.593453e+114
-1.5958226e+114
-1.5949245e+114
-1.5914343e+114
-1.5912841e+114
-1.5930979e+114
-1.593796e+114
-1.593745e+114
-1.5914765e+114
-1.5912188e+114
-1.5928929e+114
-1.5903705e+114
-1.590792e+114
-1.5921118e+114
-1.5934039e+114
-1.591136e+114
-1.5908375e+114
-1.5935101e+114
-1.5924979e+114
-1.4159537e+114
-1.4052981e+114
-1.5660509e+114
-1.5509786e+114
-1.5501654e+114
-1.5671249e+114
-1.5522198e+114
-1.5520874e+114
-1.5676797e+114
-1.567989e+114
-1.5307583e+114
-1.5142054e+114
-1.5146846e+114
-1.5310356e+114
-1.5292521e+114
-1.5133196e+114
-1.5128921e+114
-1.5298865e+114
-1.4931506e+114
-1.4809826e+114
-1.4804684e+114
-1.4936623e+114
-1.465488e+114
-1.4648949e+114
-1.4530543e+114
-1.4538428e+114
-1.4257969e+114
-1.4543802e+114
-1.4539842e+114
-1.465821e+114
-1.4266097e+114
-1.4661923e+114
-1.4817293e+114
-1.4814341e+114
-1.4944554e+114
-1.4948516e+114
-1.4035365e+114
-1.4015174e+114
-1.4952052e+114
-1.4828019e+114
-1.4822972e+114
-1.4958549e+114
-1.4555737e+114
-1.4546405e+114
-1.4674467e+114
-1.4667206e+114
-1.4281112e+114
-1.4567099e+114
-1.4560632e+114
-1.4679962e+114
-1.4272713e+114
-1.468643e+114
-1.4841322e+114
-1.4967747e+114
-1.4834704e+114
-1.4973718e+114
-1.4037001e+114
-1.4038283e+114
-1.5709561e+114
-1.5541903e+114
-1.5544706e+114
-1.5701325e+114
-1.5685854e+114
-1.5535326e+114
-1.5527339e+114
-1.5699699e+114
-1.5316647e+114
-1.5151021e+114
-1.5156261e+114
-1.5325171e+114
-1.5167999e+114
-1.5163451e+114
-1.5332071e+114
-1.533313e+114
-1.296824e+114
-1.3228494e+114
-1.2955413e+114
-1.3224208e+114
-1.3657511e+114
-1.387389e+114
-1.389597e+114
-1.3669471e+114
-1.3666985e+114
-1.3892041e+114
-1.3903434e+114
-1.3682065e+114
-1.5365964e+114
-1.5458457e+114
-1.517416e+114
-1.5244949e+114
-1.517646e+114
-1.5248137e+114
-1.2637706e+114
-1.3515161e+114
-1.3519731e+114
-1.3300957e+114
-1.3284637e+114
-1.3815808e+114
-1.3740116e+114
-1.3736474e+114
-1.3826443e+114
-1.3925327e+114
-1.3852252e+114
-1.3861122e+114
-1.3937228e+114
-1.3933731e+114
-1.386408e+114
-1.3855134e+114
-1.3929029e+114
-1.3731576e+114
-1.3825705e+114
-1.3810015e+114
-1.4042887e+114
-1.4046351e+114
-1.4156773e+114
-1.4154704e+114
-1.4038908e+114
-1.4045224e+114
-1.4150345e+114
-1.4155557e+114
-1.4285423e+114
-1.4291965e+114
-1.4405961e+114
-1.441339e+114
-1.4292735e+114
-1.4295508e+114
-1.4415468e+114
-1.4414544e+114
-1.4995161e+114
-1.5055275e+114
-1.4998199e+114
-1.5057821e+114
-1.4854972e+114
-1.4858493e+114
-1.4905918e+114
-1.484658e+114
-1.4898139e+114
-1.4850254e+114
-1.4901598e+114
-1.5002019e+114
-1.4699333e+114
-1.475158e+114
-1.4703478e+114
-1.47547e+114
-1.469131e+114
-1.4742716e+114
-1.4696179e+114
-1.4747291e+114
-1.4598988e+114
-1.4602913e+114
-1.4555084e+114
-1.4558271e+114
-1.4607031e+114
-1.4610038e+114
-1.4564935e+114
-1.4562126e+114
-1.4611451e+114
-1.4610928e+114
-1.4566244e+114
-1.4565139e+114
-1.4705166e+114
-1.5981238e+114
-1.5987302e+114
-1.5985064e+114
-1.598893e+114
-1.5965618e+114
-1.5975181e+114
-1.5979955e+114
-1.5977445e+114
-1.5960383e+114
-1.5956126e+114
-1.5959728e+114
-1.596375e+114
-1.5944981e+114
-1.595203e+114
-1.5955735e+114
-1.5952099e+114
-1.5067164e+114
-1.5052394e+114
-1.5594839e+114
-1.5747736e+114
-1.574276e+114
-1.536098e+114
-1.5361864e+114
-1.5598688e+114
-1.5751171e+114
-1.5749941e+114
-1.5844822e+114
-1.5848544e+114
-1.5807779e+114
-1.5809528e+114
-1.5830726e+114
-1.5826726e+114
-1.5868768e+114
-1.5903614e+114
-1.5868802e+114
-1.5911704e+114
-1.5866735e+114
-1.5906704e+114
-1.5867968e+114
-1.591146e+114
-1.5807497e+114
-1.5805415e+114
-1.5825486e+114
-1.5825842e+114
-1.5837623e+114
-1.5840927e+114
-1.5799817e+114
-1.5797275e+114
-1.5816625e+114
-1.5818146e+114
-1.5801134e+114
-1.5801065e+114
-1.5819745e+114
-1.5822562e+114
-1.5856799e+114
-1.5859897e+114
-1.5897756e+114
-1.588958e+114
-1.5902782e+114
-1.5898949e+114
-1.5862254e+114
-1.5862175e+114
-1.5350041e+114
-1.5350382e+114
-1.5585129e+114
-1.5736628e+114
-1.5738365e+114
-1.5583927e+114
-1.5734016e+114
-1.5727295e+114
-1.5825443e+114
-1.5820544e+114
-1.5829401e+114
-1.5831933e+114
-1.5697948e+114
-1.5797745e+114
-1.5782816e+114
-1.5780323e+114
-1.5797353e+114
-1.5785316e+114
-1.5785314e+114
-1.5800276e+114
-1.5802875e+114
-1.5837706e+114
-1.586773e+114
-1.5840114e+114
-1.5873733e+114
-1.5843306e+114
-1.5878369e+114
-1.5874864e+114
-1.5843274e+114
-1.5789935e+114
-1.5791641e+114
-1.5807265e+114
-1.5808053e+114
-1.5849444e+114
-1.5881816e+114
-1.5850436e+114
-1.5884657e+114
-1.57913e+114
-1.5791581e+114
-1.5808849e+114
-1.5811795e+114
-1.5850796e+114
-1.5850069e+114
-1.5885629e+114
-1.5879634e+114
-1.5931567e+114
-1.5931979e+114
-1.5965639e+114
-1.5976635e+114
-1.5931307e+114
-1.5930934e+114
-1.5977258e+114
-1.5972468e+114
-1.5935103e+114
-1.5975416e+114
-1.5938205e+114
-1.5982686e+114
-1.5979449e+114
-1.593785e+114
-1.5937741e+114
-1.5973115e+114
-1.5941663e+114
-1.5940285e+114
-1.5977139e+114
-1.598639e+114
-1.5940238e+114
-1.5942296e+114
-1.5984819e+114
-1.5979672e+114
-1.5940919e+114
-1.5944007e+114
-1.5981249e+114
-1.5988577e+114
-1.5947125e+114
-1.5944241e+114
-1.5986868e+114
-1.5979634e+114
-1.5919519e+114
-1.5919778e+114
-1.5964538e+114
-1.5958743e+114
-1.5916982e+114
-1.5915897e+114
-1.5957779e+114
-1.5966858e+114
-1.5919312e+114
-1.5922925e+114
-1.5960002e+114
-1.5967126e+114
-1.5925575e+114
-1.5923081e+114
-1.596405e+114
-1.5958571e+114
-1.5913328e+114
-1.5910147e+114
-1.5944866e+114
-1.5956397e+114
-1.5957644e+114
-1.5915663e+114
-1.5914106e+114
-1.5952239e+114
-1.5918011e+114
-1.5916075e+114
-1.5955208e+114
-1.5962531e+114
-1.5916484e+114
-1.5918263e+114
-1.5960182e+114
-1.5952794e+114
-1.2353192e+114
-1.4242598e+114
-1.420235e+114
-1.420529e+114
-1.4242759e+114
-1.4129715e+114
-1.4090484e+114
-1.4130094e+114
-1.4525238e+114
-1.423605e+114
-1.4640534e+114
-1.4794366e+114
-1.4006478e+114
-1.3224402e+114
-1.2980055e+114
-1.2966259e+114
-1.3860974e+114
-1.3641171e+114
-1.5772121e+114
-1.5821192e+114
-1.577749e+114
-1.582997e+114
-1.5562875e+114
-1.5564222e+114
-1.566051e+114
-1.5659277e+114
-1.5555575e+114
-1.5651021e+114
-1.5558619e+114
-1.5656801e+114
-1.5781536e+114
-1.583386e+114
-1.578018e+114
-1.5828686e+114
-1.557609e+114
-1.5577064e+114
-1.5672483e+114
-1.5671101e+114
-1.5568967e+114
-1.5663517e+114
-1.5573185e+114
-1.5669593e+114
-1.5791728e+114
-1.5790084e+114
-1.5842554e+114
-1.5837596e+114
-1.5831869e+114
-1.578329e+114
-1.5787615e+114
-1.5838314e+114
-1.5328221e+114
-1.5423023e+114
-1.5332215e+114
-1.5428457e+114
-1.5133743e+114
-1.5137193e+114
-1.5205763e+114
-1.5210213e+114
-1.5140839e+114
-1.5143134e+114
-1.5213801e+114
-1.5214824e+114
-1.5335248e+114
-1.5336014e+114
-1.5432214e+114
-1.5431497e+114
-1.5314965e+114
-1.540897e+114
-1.5317864e+114
-1.5413237e+114
-1.5126306e+114
-1.5128919e+114
-1.5198999e+114
-1.5200933e+114
-1.5121421e+114
-1.5192838e+114
-1.5122864e+114
-1.5195597e+114
-1.5321716e+114
-1.5323422e+114
-1.5417645e+114
-1.5418089e+114
-1.4941521e+114
-1.500151e+114
-1.4942965e+114
-1.5003033e+114
-1.479522e+114
-1.47977e+114
-1.4847003e+114
-1.4849175e+114
-1.4790973e+114
-1.484265e+114
-1.4791769e+114
-1.4843742e+114
-1.4946084e+114
-1.4948263e+114
-1.5006494e+114
-1.5008541e+114
-1.4641676e+114
-1.4690783e+114
-1.4644795e+114
-1.4693166e+114
-1.463696e+114
-1.4686245e+114
-1.4638665e+114
-1.4687454e+114
-1.4547467e+114
-1.4548486e+114
-1.45039e+114
-1.4362301e+114
-1.4505386e+114
-1.455292e+114
-1.4556097e+114
-1.4368311e+114
-1.4513377e+114
-1.450895e+114
-1.4247519e+114
-1.4255942e+114
-1.4562842e+114
-1.4565734e+114
-1.4373396e+114
-1.4522688e+114
-1.4518526e+114
-1.4557991e+114
-1.4559505e+114
-1.4369565e+114
-1.4516201e+114
-1.4514464e+114
-1.4647015e+114
-1.4696577e+114
-1.4649087e+114
-1.4698772e+114
-1.4255288e+114
-1.4263284e+114
-1.4651794e+114
-1.4702122e+114
-1.4654816e+114
-1.4704414e+114
-1.4806039e+114
-1.4859467e+114
-1.480843e+114
-1.4861447e+114
-1.4801127e+114
-1.4853145e+114
-1.4802771e+114
-1.4855837e+114
-1.495272e+114
-1.5013717e+114
-1.4955628e+114
-1.5017733e+114
-1.4959434e+114
-1.5022051e+114
-1.496116e+114
-1.502367e+114
-1.4031191e+114
-1.4030024e+114
-1.413021e+114
-1.4132417e+114
-1.4118251e+114
-1.4013678e+114
-1.4021244e+114
-1.4126893e+114
-1.4964464e+114
-1.5025368e+114
-1.4966567e+114
-1.5027543e+114
-1.4816607e+114
-1.4820058e+114
-1.4869776e+114
-1.4872609e+114
-1.4812199e+114
-1.4864801e+114
-1.4813398e+114
-1.4866438e+114
-1.4969794e+114
-1.4972703e+114
-1.5031236e+114
-1.5033837e+114
-1.4573549e+114
-1.4577379e+114
-1.4387599e+114
-1.4534697e+114
-1.452933e+114
-1.4568104e+114
-1.4569142e+114
-1.4381807e+114
-1.4525661e+114
-1.4523996e+114
-1.4662773e+114
-1.4712432e+114
-1.4666704e+114
-1.4715908e+114
-1.4657796e+114
-1.4707643e+114
-1.4659864e+114
-1.4709284e+114
-1.4273811e+114
-1.4277368e+114
-1.4587292e+114
-1.4592173e+114
-1.4393607e+114
-1.4549487e+114
-1.4543133e+114
-1.4579568e+114
-1.4582287e+114
-1.4390953e+114
-1.453918e+114
-1.4536115e+114
-1.4669367e+114
-1.4719447e+114
-1.4672852e+114
-1.4723202e+114
-1.4278907e+114
-1.4279477e+114
-1.4677379e+114
-1.4728973e+114
-1.4683145e+114
-1.4734407e+114
-1.4833071e+114
-1.4886853e+114
-1.4838093e+114
-1.4890872e+114
-1.4977279e+114
-1.503885e+114
-1.4981265e+114
-1.5043436e+114
-1.4824141e+114
-1.4877089e+114
-1.4827469e+114
-1.488114e+114
-1.4986592e+114
-1.5049064e+114
-1.4989527e+114
-1.5051345e+114
-1.4037507e+114
-1.4035716e+114
-1.41444e+114
-1.4143486e+114
-1.4138629e+114
-1.403468e+114
-1.4039507e+114
-1.4145845e+114
-1.5810662e+114
-1.585945e+114
-1.5815907e+114
-1.5867372e+114
-1.5601243e+114
-1.5600629e+114
-1.5697775e+114
-1.569413e+114
-1.5594953e+114
-1.5689676e+114
-1.5599397e+114
-1.5696285e+114
-1.5817373e+114
-1.5870057e+114
-1.5813825e+114
-1.5863384e+114
-1.5794102e+114
-1.5841724e+114
-1.5801773e+114
-1.5853512e+114
-1.5588366e+114
-1.5685719e+114
-1.5590629e+114
-1.5685407e+114
-1.5580174e+114
-1.5674418e+114
-1.5584908e+114
-1.5682297e+114
-1.5806165e+114
-1.5806313e+114
-1.5858329e+114
-1.5855235e+114
-1.5338848e+114
-1.5342409e+114
-1.5433662e+114
-1.5439032e+114
-1.514516e+114
-1.5217377e+114
-1.514718e+114
-1.5220668e+114
-1.5150556e+114
-1.5153604e+114
-1.5223898e+114
-1.5225928e+114
-1.5346282e+114
-1.534837e+114
-1.5443158e+114
-1.5444325e+114
-1.5166698e+114
-1.5169514e+114
-1.5239498e+114
-1.5240597e+114
-1.5158104e+114
-1.5162192e+114
-1.523009e+114
-1.5235152e+114
-1.5352179e+114
-1.5448765e+114
-1.5356597e+114
-1.5454391e+114
-1.5360562e+114
-1.5361177e+114
-1.5458049e+114
-1.5456132e+114
-1.2614744e+114
-1.3294379e+114
-1.3513825e+114
-1.3528947e+114
-1.3273593e+114
-1.2605246e+114
-1.353034e+114
-1.3526071e+114
-1.3274449e+114
-1.3287127e+114
-1.380328e+114
-1.3727708e+114
-1.3729896e+114
-1.3820434e+114
-1.3900411e+114
-1.3829534e+114
-1.384458e+114
-1.3916283e+114
-1.391631e+114
-1.3848148e+114
-1.3846383e+114
-1.3916243e+114
-1.3725539e+114
-1.3726483e+114
-1.3817282e+114
-1.3817517e+114
-1.3735233e+114
-1.372555e+114
-1.3817058e+114
-1.3830113e+114
-1.3845027e+114
-1.3855795e+114
-1.3921851e+114
-1.393129e+114
-1.3858653e+114
-1.3852247e+114
-1.3928308e+114
-1.3921218e+114
-1.3744391e+114
-1.374097e+114
-1.3834043e+114
-1.38277e+114
-1.5343786e+114
-1.5345459e+114
-1.5398849e+114
-1.5396963e+114
-1.5467151e+114
-1.5522265e+114
-1.5524898e+114
-1.5469481e+114
-1.5148741e+114
-1.5147158e+114
-1.5180188e+114
-1.5181905e+114
-1.5239138e+114
-1.5237247e+114
-1.5273384e+114
-1.5275205e+114
-1.5184015e+114
-1.5150152e+114
-1.5183237e+114
-1.5151289e+114
-1.527659e+114
-1.5240571e+114
-1.5241608e+114
-1.5277402e+114
-1.3278683e+114
-1.3248742e+114
-1.3687381e+114
-1.3697771e+114
-1.3737107e+114
-1.3702865e+114
-1.3691114e+114
-1.3697896e+114
-1.3782374e+114
-1.3776145e+114
-1.3789169e+114
-1.3801662e+114
-1.3791838e+114
-1.3795983e+114
-1.3806184e+114
-1.3807488e+114
-1.379217e+114
-1.3799136e+114
-1.3801616e+114
-1.379568e+114
-1.3806751e+114
-1.3789406e+114
-1.3788036e+114
-1.3806423e+114
-1.4006831e+114
-1.3972331e+114
-1.3976386e+114
-1.4010669e+114
-1.3912741e+114
-1.3865405e+114
-1.3877392e+114
-1.3918739e+114
-1.3874521e+114
-1.3874966e+114
-1.3919402e+114
-1.3918009e+114
-1.4012557e+114
-1.3976813e+114
-1.3977792e+114
-1.4014432e+114
-1.4012033e+114
-1.3978236e+114
-1.3977829e+114
-1.4010215e+114
-1.391256e+114
-1.3870346e+114
-1.3875498e+114
-1.3916442e+114
-1.3880319e+114
-1.3880716e+114
-1.3918187e+114
-1.3920257e+114
-1.4011405e+114
-1.3978532e+114
-1.398262e+114
-1.401623e+114
-1.3798263e+114
-1.3791994e+114
-1.3794116e+114
-1.380408e+114
-1.3790705e+114
-1.3788263e+114
-1.3805324e+114
-1.3810183e+114
-1.3810443e+114
-1.3797332e+114
-1.3984672e+114
-1.4019685e+114
-1.4088257e+114
-1.4084399e+114
-1.4125084e+114
-1.4129088e+114
-1.408489e+114
-1.4084735e+114
-1.4125713e+114
-1.4123338e+114
-1.4237278e+114
-1.419516e+114
-1.4194279e+114
-1.4235582e+114
-1.4238253e+114
-1.4197871e+114
-1.4201212e+114
-1.4242076e+114
-1.4124836e+114
-1.4083634e+114
-1.4086197e+114
-1.412484e+114
-1.4085124e+114
-1.4084355e+114
-1.4124761e+114
-1.412588e+114
-1.4196283e+114
-1.4194477e+114
-1.4235174e+114
-1.4235587e+114
-1.4236656e+114
-1.4196879e+114
-1.4197772e+114
-1.4238952e+114
-1.4353838e+114
-1.4311161e+114
-1.4312963e+114
-1.4355337e+114
-1.4316857e+114
-1.4314528e+114
-1.4357517e+114
-1.4359726e+114
-1.443252e+114
-1.4430092e+114
-1.4476579e+114
-1.4478772e+114
-1.4481326e+114
-1.4434562e+114
-1.4437041e+114
-1.4484693e+114
-1.4360292e+114
-1.4317125e+114
-1.4315798e+114
-1.4358914e+114
-1.4319575e+114
-1.4317374e+114
-1.4360352e+114
-1.436116e+114
-1.4436986e+114
-1.4438521e+114
-1.4486463e+114
-1.4483849e+114
-1.4484254e+114
-1.4437196e+114
-1.4436912e+114
-1.4484296e+114
-1.5005121e+114
-1.4976163e+114
-1.5003788e+114
-1.4978027e+114
-1.505689e+114
-1.5085884e+114
-1.5087593e+114
-1.5058596e+114
-1.4981667e+114
-1.5008665e+114
-1.4979849e+114
-1.5007129e+114
-1.506039e+114
-1.5089041e+114
-1.5061708e+114
-1.5089865e+114
-1.4836563e+114
-1.485786e+114
-1.4859088e+114
-1.483804e+114
-1.4841667e+114
-1.4839954e+114
-1.4861374e+114
-1.4863069e+114
-1.4930672e+114
-1.4907855e+114
-1.4929325e+114
-1.4909239e+114
-1.485066e+114
-1.4827345e+114
-1.4848952e+114
-1.4829472e+114
-1.4899119e+114
-1.4921282e+114
-1.4923302e+114
-1.4901182e+114
-1.4855044e+114
-1.4831977e+114
-1.4853187e+114
-1.4834122e+114
-1.4903636e+114
-1.4925281e+114
-1.4905605e+114
-1.4927287e+114
-1.4983784e+114
-1.5010977e+114
-1.5012398e+114
-1.4985018e+114
-1.4702111e+114
-1.4703193e+114
-1.4714762e+114
-1.471608e+114
-1.4765634e+114
-1.4781451e+114
-1.4782808e+114
-1.4764517e+114
-1.4705527e+114
-1.4706611e+114
-1.4719542e+114
-1.4718349e+114
-1.476713e+114
-1.4768228e+114
-1.4784755e+114
-1.4786185e+114
-1.4707708e+114
-1.4693524e+114
-1.4705157e+114
-1.4696749e+114
-1.4754414e+114
-1.4771791e+114
-1.4774094e+114
-1.4757222e+114
-1.4712181e+114
-1.4699181e+114
-1.4710607e+114
-1.4700654e+114
-1.475994e+114
-1.4776773e+114
-1.476163e+114
-1.4778936e+114
-1.4639595e+114
-1.4643506e+114
-1.4642102e+114
-1.4645767e+114
-1.4648029e+114
-1.4648794e+114
-1.4646314e+114
-1.4646317e+114
-1.4553395e+114
-1.4557344e+114
-1.4648497e+114
-1.464896e+114
-1.4651203e+114
-1.4652297e+114
-1.465425e+114
-1.4654766e+114
-1.4650012e+114
-1.4649652e+114
-1.4561733e+114
-1.4560352e+114
-1.4651249e+114
-1.4651599e+114
-1.4656065e+114
-1.4656237e+114
-1.4656725e+114
-1.4655983e+114
-1.4652609e+114
-1.465198e+114
-1.4562248e+114
-1.4562551e+114
-1.4720298e+114
-1.4707995e+114
-1.4720444e+114
-1.4708216e+114
-1.6005435e+114
-1.6012709e+114
-1.6013521e+114
-1.6011499e+114
-1.6016628e+114
-1.6011577e+114
-1.6017409e+114
-1.6011907e+114
-1.5990927e+114
-1.5999113e+114
-1.6001462e+114
-1.5999958e+114
-1.600253e+114
-1.6009579e+114
-1.6008187e+114
-1.6004629e+114
-1.5988938e+114
-1.5986937e+114
-1.5989267e+114
-1.5981585e+114
-1.5991794e+114
-1.598852e+114
-1.5993711e+114
-1.5987436e+114
-1.5977586e+114
-1.5969916e+114
-1.5976935e+114
-1.5979475e+114
-1.5979049e+114
-1.5985083e+114
-1.5980071e+114
-1.5984355e+114
-1.5042857e+114
-1.4647844e+114
-1.5222447e+114
-1.5243618e+114
-1.4640278e+114
-1.5217201e+114
-1.522388e+114
-1.5742421e+114
-1.5737972e+114
-1.5468346e+114
-1.5778602e+114
-1.5780821e+114
-1.5742906e+114
-1.5746132e+114
-1.5485839e+114
-1.5784676e+114
-1.5781425e+114
-1.5886976e+114
-1.5877419e+114
-1.5948378e+114
-1.59523e+114
-1.5897733e+114
-1.5899609e+114
-1.5881581e+114
-1.5888122e+114
-1.5953415e+114
-1.5954702e+114
-1.5901448e+114
-1.5903235e+114
-1.5885222e+114
-1.5884543e+114
-1.5900916e+114
-1.5899906e+114
-1.5898448e+114
-1.5881635e+114
-1.5885101e+114
-1.5899856e+114
-1.5878239e+114
-1.5886359e+114
-1.5887353e+114
-1.5879208e+114
-1.5842521e+114
-1.5874075e+114
-1.5872791e+114
-1.5841382e+114
-1.5887339e+114
-1.5887638e+114
-1.5879957e+114
-1.5880032e+114
-1.5870275e+114
-1.5873389e+114
-1.5840929e+114
-1.583725e+114
-1.5884791e+114
-1.5884014e+114
-1.5875746e+114
-1.5877937e+114
-1.5836171e+114
-1.5867783e+114
-1.5870949e+114
-1.5837611e+114
-1.5885481e+114
-1.5885396e+114
-1.5880056e+114
-1.5879743e+114
-1.5871847e+114
-1.587301e+114
-1.5837797e+114
-1.5836907e+114
-1.588162e+114
-1.5877708e+114
-1.5894992e+114
-1.5896723e+114
-1.5896755e+114
-1.5881777e+114
-1.588066e+114
-1.5897172e+114
-1.5879367e+114
-1.5868558e+114
-1.5945417e+114
-1.5941505e+114
-1.589073e+114
-1.589288e+114
-1.5875461e+114
-1.5881267e+114
-1.5946592e+114
-1.5947921e+114
-1.5894968e+114
-1.5895603e+114
-1.5887562e+114
-1.5869522e+114
-1.5889454e+114
-1.5873701e+114
-1.5874227e+114
-1.5873035e+114
-1.5889914e+114
-1.5890386e+114
-1.5891579e+114
-1.587434e+114
-1.589314e+114
-1.5878008e+114
-1.5876867e+114
-1.5875898e+114
-1.589259e+114
-1.5893334e+114
-1.5864987e+114
-1.5875485e+114
-1.5876613e+114
-1.5867541e+114
-1.5878718e+114
-1.5878114e+114
-1.5869295e+114
-1.5869747e+114
-1.58608e+114
-1.5825185e+114
-1.582689e+114
-1.5861691e+114
-1.5826661e+114
-1.5858687e+114
-1.5859177e+114
-1.5825588e+114
-1.5859985e+114
-1.5862928e+114
-1.5831659e+114
-1.5828287e+114
-1.5831805e+114
-1.5864192e+114
-1.5863957e+114
-1.5833289e+114
-1.5881142e+114
-1.5880634e+114
-1.5870574e+114
-1.587039e+114
-1.5880895e+114
-1.5880434e+114
-1.5870897e+114
-1.5870619e+114
-1.5332013e+114
-1.534286e+114
-1.5578902e+114
-1.5732237e+114
-1.5735371e+114
-1.5462681e+114
-1.5774473e+114
-1.5771634e+114
-1.5730309e+114
-1.572422e+114
-1.5469003e+114
-1.5766272e+114
-1.5769634e+114
-1.5812716e+114
-1.5861055e+114
-1.5866853e+114
-1.5933925e+114
-1.5880511e+114
-1.5935027e+114
-1.5881631e+114
-1.586365e+114
-1.585375e+114
-1.5928134e+114
-1.5931949e+114
-1.5875315e+114
-1.5878035e+114
-1.5872187e+114
-1.5863321e+114
-1.5936513e+114
-1.5938807e+114
-1.5884203e+114
-1.5885452e+114
-1.5865993e+114
-1.5873778e+114
-1.5939919e+114
-1.594041e+114
-1.5887205e+114
-1.5887643e+114
-1.5773341e+114
-1.5771848e+114
-1.5787095e+114
-1.5791178e+114
-1.5830777e+114
-1.586124e+114
-1.5853866e+114
-1.5857442e+114
-1.5874562e+114
-1.5872859e+114
-1.5858867e+114
-1.5856827e+114
-1.5875812e+114
-1.5875803e+114
-1.5858864e+114
-1.5862244e+114
-1.5878905e+114
-1.5877693e+114
-1.5878693e+114
-1.5861764e+114
-1.5859881e+114
-1.5878675e+114
-1.5860578e+114
-1.5861788e+114
-1.585033e+114
-1.5852468e+114
-1.5806507e+114
-1.5842121e+114
-1.5845568e+114
-1.5809002e+114
-1.5863949e+114
-1.5855599e+114
-1.586456e+114
-1.5855135e+114
-1.5846196e+114
-1.5848125e+114
-1.5810258e+114
-1.5809122e+114
-1.5866622e+114
-1.5866944e+114
-1.5856633e+114
-1.5856059e+114
-1.5810307e+114
-1.584628e+114
-1.5848719e+114
-1.5812282e+114
-1.5812195e+114
-1.5848121e+114
-1.5845586e+114
-1.5811126e+114
-1.5866321e+114
-1.5866223e+114
-1.5854155e+114
-1.5855161e+114
-1.5865448e+114
-1.5862413e+114
-1.588112e+114
-1.5882235e+114
-1.5864427e+114
-1.5865742e+114
-1.5882441e+114
-1.5882686e+114
-1.5870156e+114
-1.5869574e+114
-1.585759e+114
-1.5859583e+114
-1.5810519e+114
-1.5847144e+114
-1.5850714e+114
-1.5812407e+114
-1.5870795e+114
-1.5870668e+114
-1.5861601e+114
-1.5861566e+114
-1.5852534e+114
-1.58523e+114
-1.581332e+114
-1.5814282e+114
-1.5883561e+114
-1.5865314e+114
-1.5868951e+114
-1.5885117e+114
-1.5884622e+114
-1.5867889e+114
-1.5866805e+114
-1.5885223e+114
-1.5872705e+114
-1.5872318e+114
-1.586286e+114
-1.5863678e+114
-1.5872155e+114
-1.5871928e+114
-1.5863499e+114
-1.5862164e+114
-1.5856254e+114
-1.5852141e+114
-1.5814181e+114
-1.5818662e+114
-1.5855415e+114
-1.5856167e+114
-1.5818332e+114
-1.5821544e+114
-1.2256508e+114
-1.5994578e+114
-1.599117e+114
-1.5997281e+114
-1.5997568e+114
-1.600111e+114
-1.6004745e+114
-1.6004158e+114
-1.6002684e+114
-1.6007493e+114
-1.6004664e+114
-1.6008662e+114
-1.60099e+114
-1.6009572e+114
-1.6012421e+114
-1.6012178e+114
-1.6009309e+114
-1.5984748e+114
-1.5984871e+114
-1.5982918e+114
-1.5980491e+114
-1.5986005e+114
-1.5989406e+114
-1.5988002e+114
-1.598833e+114
-1.5972954e+114
-1.596945e+114
-1.5976694e+114
-1.5976096e+114
-1.5981559e+114
-1.5978033e+114
-1.5978909e+114
-1.5980636e+114
-1.23615e+114
-1.4256254e+114
-1.4206213e+114
-1.4208419e+114
-1.4256931e+114
-1.4147136e+114
-1.4095675e+114
-1.4149119e+114
-1.4541985e+114
-1.4544312e+114
-1.4353669e+114
-1.4501319e+114
-1.4497858e+114
-1.435153e+114
-1.4235747e+114
-1.4240123e+114
-1.4630124e+114
-1.4680735e+114
-1.4632439e+114
-1.4682303e+114
-1.4784307e+114
-1.4785988e+114
-1.4838636e+114
-1.4001186e+114
-1.400208e+114
-1.4106992e+114
-1.4106895e+114
-1.3264446e+114
-1.3476426e+114
-1.3289162e+114
-1.3500039e+114
-1.26216e+114
-1.3692721e+114
-1.3891245e+114
-1.3825366e+114
-1.3822024e+114
-1.3890487e+114
-1.371703e+114
-1.3704329e+114
-1.3794715e+114
-1.3796226e+114
-1.5867873e+114
-1.5818521e+114
-1.5861761e+114
-1.5822728e+114
-1.5909958e+114
-1.5913346e+114
-1.5920266e+114
-1.59151e+114
-1.5822979e+114
-1.5866198e+114
-1.5823765e+114
-1.5868763e+114
-1.5916226e+114
-1.5921217e+114
-1.5914603e+114
-1.5918315e+114
-1.5560062e+114
-1.5619699e+114
-1.5623003e+114
-1.5563114e+114
-1.5565403e+114
-1.5564262e+114
-1.562461e+114
-1.5624614e+114
-1.5753061e+114
-1.5692414e+114
-1.5749649e+114
-1.569511e+114
-1.5696478e+114
-1.5752596e+114
-1.5696677e+114
-1.5754381e+114
-1.5616757e+114
-1.5554007e+114
-1.5613566e+114
-1.5556359e+114
-1.5685913e+114
-1.5742594e+114
-1.5747237e+114
-1.5689098e+114
-1.5617389e+114
-1.5557419e+114
-1.561815e+114
-1.5557779e+114
-1.5690843e+114
-1.5748844e+114
-1.5690385e+114
-1.5747382e+114
-1.5825044e+114
-1.5868227e+114
-1.5872547e+114
-1.582789e+114
-1.5919162e+114
-1.5916052e+114
-1.5919553e+114
-1.5924872e+114
-1.5828608e+114
-1.5827828e+114
-1.5872867e+114
-1.5870187e+114
-1.5924318e+114
-1.5917499e+114
-1.5920562e+114
-1.5919706e+114
-1.5574023e+114
-1.5633085e+114
-1.5636319e+114
-1.5576822e+114
-1.5578189e+114
-1.5577353e+114
-1.5637468e+114
-1.5637247e+114
-1.576524e+114
-1.5705176e+114
-1.5761591e+114
-1.5707843e+114
-1.5708473e+114
-1.5764334e+114
-1.570878e+114
-1.5766109e+114
-1.5629891e+114
-1.5567037e+114
-1.5626227e+114
-1.5570154e+114
-1.569828e+114
-1.5754152e+114
-1.5758946e+114
-1.5701836e+114
-1.5631726e+114
-1.5571636e+114
-1.5631698e+114
-1.5572677e+114
-1.5703864e+114
-1.5760805e+114
-1.5704224e+114
-1.5760099e+114
-1.5835945e+114
-1.5877845e+114
-1.5883004e+114
-1.5839158e+114
-1.5839388e+114
-1.5883289e+114
-1.5838882e+114
-1.5881143e+114
-1.5927486e+114
-1.593392e+114
-1.592488e+114
-1.5929198e+114
-1.5927905e+114
-1.5929562e+114
-1.5933901e+114
-1.5930912e+114
-1.591914e+114
-1.5921557e+114
-1.5929836e+114
-1.5925523e+114
-1.5878088e+114
-1.5829429e+114
-1.5871853e+114
-1.5833529e+114
-1.5834696e+114
-1.583471e+114
-1.587838e+114
-1.587667e+114
-1.5924072e+114
-1.5924856e+114
-1.5928523e+114
-1.5927061e+114
-1.5360836e+114
-1.5304329e+114
-1.5358359e+114
-1.5306892e+114
-1.5429627e+114
-1.5485465e+114
-1.5488983e+114
-1.5432374e+114
-1.5363732e+114
-1.5308509e+114
-1.5362876e+114
-1.5310271e+114
-1.5434799e+114
-1.5491196e+114
-1.5435397e+114
-1.5491431e+114
-1.5104915e+114
-1.5138715e+114
-1.5141052e+114
-1.5107338e+114
-1.5109023e+114
-1.5142897e+114
-1.5144347e+114
-1.5110826e+114
-1.519674e+114
-1.5233433e+114
-1.5236247e+114
-1.5199319e+114
-1.5201107e+114
-1.5237936e+114
-1.5239473e+114
-1.5202825e+114
-1.5112262e+114
-1.5146125e+114
-1.5147884e+114
-1.5114199e+114
-1.5116919e+114
-1.5115478e+114
-1.5149459e+114
-1.5150641e+114
-1.5204125e+114
-1.5240787e+114
-1.5242824e+114
-1.5205917e+114
-1.5207866e+114
-1.5206885e+114
-1.5244006e+114
-1.5244779e+114
-1.5311399e+114
-1.5365549e+114
-1.536788e+114
-1.5313271e+114
-1.5315504e+114
-1.5314192e+114
-1.5368863e+114
-1.5369619e+114
-1.5493149e+114
-1.5495919e+114
-1.5437101e+114
-1.5439158e+114
-1.5440207e+114
-1.5439879e+114
-1.5496873e+114
-1.549655e+114
-1.5346528e+114
-1.5290967e+114
-1.5344716e+114
-1.5292767e+114
-1.541538e+114
-1.5471618e+114
-1.5474394e+114
-1.5417653e+114
-1.5294846e+114
-1.5348653e+114
-1.5294007e+114
-1.5348077e+114
-1.5419539e+114
-1.5476009e+114
-1.5419979e+114
-1.5475711e+114
-1.5097463e+114
-1.5131183e+114
-1.5132935e+114
-1.50995e+114
-1.5101187e+114
-1.5134956e+114
-1.513677e+114
-1.5103212e+114
-1.5228343e+114
-1.5189263e+114
-1.5226192e+114
-1.5190927e+114
-1.5231765e+114
-1.5192981e+114
-1.5230389e+114
-1.5194885e+114
-1.5126962e+114
-1.5092334e+114
-1.5125809e+114
-1.5093689e+114
-1.5183399e+114
-1.5220232e+114
-1.5222083e+114
-1.5184905e+114
-1.5128855e+114
-1.5094672e+114
-1.512819e+114
-1.5095494e+114
-1.5186346e+114
-1.5223381e+114
-1.5187162e+114
-1.5224129e+114
-1.5297068e+114
-1.5351076e+114
-1.5353656e+114
-1.5299181e+114
-1.530103e+114
-1.53554e+114
-1.5302439e+114
-1.5356581e+114
-1.5478469e+114
-1.5481729e+114
-1.5422587e+114
-1.5425158e+114
-1.5427422e+114
-1.542667e+114
-1.548334e+114
-1.5483508e+114
-1.4949019e+114
-1.4920432e+114
-1.4948247e+114
-1.4921524e+114
-1.5001558e+114
-1.5030679e+114
-1.5032026e+114
-1.5002699e+114
-1.4923666e+114
-1.4951178e+114
-1.4922736e+114
-1.4950344e+114
-1.5004025e+114
-1.5032974e+114
-1.5004739e+114
-1.5033416e+114
-1.4776406e+114
-1.4797802e+114
-1.4798763e+114
-1.4777392e+114
-1.4781051e+114
-1.4779173e+114
-1.4800813e+114
-1.4802804e+114
-1.4871458e+114
-1.4848279e+114
-1.48702e+114
-1.4849378e+114
-1.4852843e+114
-1.4875142e+114
-1.485112e+114
-1.4873243e+114
-1.479332e+114
-1.4771239e+114
-1.479269e+114
-1.4772111e+114
-1.4843113e+114
-1.4865286e+114
-1.4866402e+114
-1.4844088e+114
-1.4795488e+114
-1.4773626e+114
-1.4794743e+114
-1.4774534e+114
-1.4845632e+114
-1.4867488e+114
-1.4846489e+114
-1.4868422e+114
-1.4925518e+114
-1.4953339e+114
-1.4954883e+114
-1.4926651e+114
-1.4928488e+114
-1.4956634e+114
-1.4930562e+114
-1.4958598e+114
-1.5035479e+114
-1.5037506e+114
-1.5006639e+114
-1.5008222e+114