/*--------------------------------*- C++ -*----------------------------------*\
  =========                 |
  \\      /  F ield         | OpenFOAM: The Open Source CFD Toolbox
   \\    /   O peration     | Website:  https://openfoam.org
    \\  /    A nd           | Version:  7
     \\/     M anipulation  |
\*---------------------------------------------------------------------------*/
FoamFile
{
    version     2.0;
    format      ascii;
    class       volScalarField;
    location    "3000";
    object      p;
}
// * * * * * * * * * * * * * * * * * * * * * * * * * * * * * * * * * * * * * //

dimensions      [0 2 -2 0 0 0 0];

internalField   nonuniform List<scalar> 
34356
(
-3.4450805e+40
-3.4687352e+40
-3.3467341e+40
-3.3702962e+40
-3.3136459e+40
-3.2908431e+40
-2.9805305e+40
-3.1726347e+40
-3.1934938e+40
-3.365962e+40
-3.3690051e+40
-3.3880405e+40
-3.3919158e+40
-3.3040955e+40
-3.2923292e+40
-3.2508578e+40
-3.2621672e+40
-3.3147179e+40
-3.2729054e+40
-3.3255146e+40
-3.2831224e+40
-3.0781037e+40
-2.9596506e+40
-2.942689e+40
-3.0592984e+40
-2.7629035e+40
-2.9133299e+40
-2.9298701e+40
-3.0347109e+40
-3.0164616e+40
-2.6979348e+40
-2.8167758e+40
-2.9873594e+40
-2.9331624e+40
-3.1784975e+40
-3.1887754e+40
-3.1982898e+40
-3.2083482e+40
-3.3133835e+40
-3.2936357e+40
-3.2827527e+40
-3.302059e+40
-3.3137746e+40
-3.310366e+40
-3.3253167e+40
-3.3220553e+40
-3.3137597e+40
-3.3037154e+40
-3.3238991e+40
-3.334321e+40
-3.3468319e+40
-3.3361828e+40
-3.3435997e+40
-3.332779e+40
-3.2487124e+40
-3.2780348e+40
-3.2728096e+40
-3.2435897e+40
-3.2673933e+40
-3.2381443e+40
-3.2615397e+40
-3.2325364e+40
-3.288504e+40
-3.2829593e+40
-3.2586654e+40
-3.2534148e+40
-3.2687982e+40
-3.2988041e+40
-3.2936259e+40
-3.2638335e+40
-3.1408224e+40
-3.1313705e+40
-3.0641153e+40
-3.0730468e+40
-3.0186083e+40
-2.9646345e+40
-2.9558227e+40
-3.0098867e+40
-2.8473859e+40
-3.00221e+40
-2.9484154e+40
-2.9403788e+40
-2.9941226e+40
-2.8314517e+40
-3.112965e+40
-3.1222199e+40
-3.0556046e+40
-3.0474063e+40
-2.7255741e+40
-2.7106766e+40
-2.8123443e+40
-2.8269777e+40
-2.7214731e+40
-2.7082447e+40
-3.0402067e+40
-2.4587017e+40
-2.5858173e+40
-2.7016879e+40
-2.7680427e+40
-2.7607413e+40
-2.694292e+40
-2.8158395e+40
-2.8239951e+40
-2.8808656e+40
-2.8717936e+40
-3.0145655e+40
-2.9841163e+40
-2.9883885e+40
-2.9606405e+40
-2.9650046e+40
-2.9405915e+40
-2.9359304e+40
-2.9311528e+40
-3.1932215e+40
-3.1879757e+40
-3.2032287e+40
-3.1979812e+40
-3.2121025e+40
-3.2073418e+40
-3.2221255e+40
-3.2168718e+40
-3.2320434e+40
-3.250824e+40
-3.2533484e+40
-3.2332063e+40
-3.2231295e+40
-3.2430567e+40
-3.2854073e+40
-3.2758984e+40
-3.2702471e+40
-3.2796152e+40
-3.2826081e+40
-3.2759786e+40
-3.2818012e+40
-3.2884086e+40
-3.2962768e+40
-3.2865779e+40
-3.2813392e+40
-3.2908536e+40
-3.2993416e+40
-3.2939089e+40
-3.2926077e+40
-3.2872307e+40
-3.2525022e+40
-3.2422078e+40
-3.2631999e+40
-3.2735175e+40
-3.3076595e+40
-3.3026114e+40
-3.3124117e+40
-3.3176055e+40
-3.3072024e+40
-3.2973091e+40
-3.2916868e+40
-3.3014768e+40
-3.3206727e+40
-3.3154333e+40
-3.313716e+40
-3.308462e+40
-3.3102063e+40
-3.3032912e+40
-3.3045563e+40
-3.2977047e+40
-3.2610588e+40
-3.2585851e+40
-3.2392687e+40
-3.2416761e+40
-3.2367058e+40
-3.2560906e+40
-3.2533631e+40
-3.2340331e+40
-3.2315743e+40
-3.2508096e+40
-3.2481462e+40
-3.2289416e+40
-3.2454333e+40
-3.2425221e+40
-3.2261716e+40
-3.2233985e+40
-3.2686203e+40
-3.2711313e+40
-3.2513721e+40
-3.2488494e+40
-3.2462752e+40
-3.2660273e+40
-3.2633392e+40
-3.2437908e+40
-3.2815255e+40
-3.2789189e+40
-3.2615302e+40
-3.2590049e+40
-3.2763497e+40
-3.2736033e+40
-3.2564067e+40
-3.2537322e+40
-2.853598e+40
-2.8299657e+40
-3.1797157e+40
-3.1327249e+40
-3.1371948e+40
-3.1747053e+40
-3.1242416e+40
-3.1286581e+40
-3.1657495e+40
-3.1702272e+40
-3.0951866e+40
-3.0631856e+40
-3.0589615e+40
-3.0907126e+40
-3.103197e+40
-3.0669944e+40
-3.0711292e+40
-3.0990247e+40
-3.0437614e+40
-3.0123017e+40
-3.01632e+40
-3.0396119e+40
-2.9885296e+40
-2.9925118e+40
-2.9684232e+40
-2.9644718e+40
-2.9126356e+40
-2.9566345e+40
-2.9604657e+40
-2.984532e+40
-2.9038531e+40
-2.9805409e+40
-3.0044055e+40
-3.0083578e+40
-3.0357844e+40
-3.0317559e+40
-2.8470566e+40
-2.8553265e+40
-3.0282372e+40
-2.9970979e+40
-3.0010648e+40
-3.024057e+40
-2.9497228e+40
-2.953445e+40
-2.9734854e+40
-2.9772927e+40
-2.896615e+40
-2.9434127e+40
-2.9463435e+40
-2.9702351e+40
-2.8883294e+40
-2.9674585e+40
-2.9909014e+40
-3.0206639e+40
-2.993752e+40
-3.0174436e+40
-2.8318159e+40
-2.8393724e+40
-3.15234e+40
-3.1067776e+40
-3.1114102e+40
-3.1473721e+40
-3.1618519e+40
-3.115559e+40
-3.1201974e+40
-3.1568197e+40
-3.0867241e+40
-3.0550505e+40
-3.050837e+40
-3.0823561e+40
-3.0437329e+40
-3.0473302e+40
-3.0785883e+40
-3.0743247e+40
-2.480158e+40
-2.6104927e+40
-2.4691975e+40
-2.5971553e+40
-2.7292979e+40
-2.7975743e+40
-2.7894958e+40
-2.7202508e+40
-2.7133729e+40
-2.7819373e+40
-2.7751683e+40
-2.7074626e+40
-3.0674526e+40
-3.0840092e+40
-3.0390956e+40
-3.0530653e+40
-3.0367949e+40
-3.0506241e+40
-2.4262894e+40
-2.6319744e+40
-2.6247046e+40
-2.5430105e+40
-2.5352977e+40
-2.7631624e+40
-2.7238486e+40
-2.7180006e+40
-2.7574901e+40
-2.8206492e+40
-2.7928817e+40
-2.7876067e+40
-2.8155803e+40
-2.8116191e+40
-2.7837313e+40
-2.7801965e+40
-2.8077254e+40
-2.7140565e+40
-2.753554e+40
-2.7504186e+40
-2.8321689e+40
-2.8356229e+40
-2.859721e+40
-2.8561086e+40
-2.8452239e+40
-2.8400617e+40
-2.8693554e+40
-2.8642671e+40
-2.8923944e+40
-2.8873773e+40
-2.9170887e+40
-2.9121352e+40
-2.8827256e+40
-2.8786461e+40
-2.9073988e+40
-2.9026492e+40
-3.0129163e+40
-3.026144e+40
-3.0108515e+40
-3.0239393e+40
-2.9849162e+40
-2.9827279e+40
-2.9967636e+40
-2.9887563e+40
-3.0007208e+40
-2.9869141e+40
-2.9987927e+40
-3.0087177e+40
-2.9617615e+40
-2.9735694e+40
-2.9595045e+40
-2.9713999e+40
-2.9655326e+40
-2.9773886e+40
-2.9638039e+40
-2.9755949e+40
-2.954136e+40
-2.9522985e+40
-2.942233e+40
-2.9402627e+40
-2.9502789e+40
-2.9479163e+40
-2.9357294e+40
-2.9381287e+40
-2.9455509e+40
-2.942565e+40
-2.933368e+40
-2.9304229e+40
-2.9571042e+40
-3.2034825e+40
-3.2007695e+40
-3.1956018e+40
-3.1982306e+40
-3.2131475e+40
-3.2106242e+40
-3.2082263e+40
-3.2057109e+40
-3.2196187e+40
-3.2222914e+40
-3.215093e+40
-3.2173339e+40
-3.2321282e+40
-3.2294134e+40
-3.2269559e+40
-3.2244512e+40
-3.1149915e+40
-3.1314307e+40
-3.1925138e+40
-3.2515577e+40
-3.2568508e+40
-3.1756585e+40
-3.1665242e+40
-3.1831715e+40
-3.2465109e+40
-3.241104e+40
-3.2588685e+40
-3.2534311e+40
-3.2662957e+40
-3.2634372e+40
-3.2661827e+40
-3.2691047e+40
-3.2633824e+40
-3.2547118e+40
-3.2663697e+40
-3.2576879e+40
-3.2718134e+40
-3.2631278e+40
-3.2690984e+40
-3.260443e+40
-3.2691058e+40
-3.2717695e+40
-3.2745829e+40
-3.2718579e+40
-3.2694636e+40
-3.2641223e+40
-3.2799017e+40
-3.282476e+40
-3.2852889e+40
-3.2826587e+40
-3.2743891e+40
-3.2772084e+40
-3.280047e+40
-3.2772093e+40
-3.2824088e+40
-3.2798186e+40
-3.2710078e+40
-3.2734957e+40
-3.268451e+40
-3.265649e+40
-3.2772462e+40
-3.2743733e+40
-3.1939173e+40
-3.1841264e+40
-3.2017636e+40
-3.2617878e+40
-3.2673314e+40
-3.211942e+40
-3.2724394e+40
-3.2777339e+40
-3.2854527e+40
-3.2907015e+40
-3.2802267e+40
-3.2747049e+40
-3.3256654e+40
-3.3065369e+40
-3.3012527e+40
-3.3037589e+40
-3.3039361e+40
-3.2958575e+40
-3.2986146e+40
-3.3013881e+40
-3.2986045e+40
-3.3035557e+40
-3.2943662e+40
-3.3009508e+40
-3.291777e+40
-3.2984228e+40
-3.2891981e+40
-3.2864057e+40
-3.295581e+40
-3.2933059e+40
-3.2906632e+40
-3.2960633e+40
-3.2933779e+40
-3.2930859e+40
-3.2839444e+40
-3.2904166e+40
-3.2813424e+40
-3.2850201e+40
-3.2878678e+40
-3.2906934e+40
-3.2878309e+40
-3.2877778e+40
-3.2848828e+40
-3.2786919e+40
-3.27586e+40
-3.2449396e+40
-3.2461048e+40
-3.236284e+40
-3.235158e+40
-3.2423489e+40
-3.2437101e+40
-3.2339062e+40
-3.2326171e+40
-3.2412324e+40
-3.2314863e+40
-3.240053e+40
-3.2302282e+40
-3.2289268e+40
-3.2387923e+40
-3.2373391e+40
-3.2276002e+40
-3.2348822e+40
-3.2361361e+40
-3.2264517e+40
-3.2251637e+40
-3.2321622e+40
-3.2336164e+40
-3.2238454e+40
-3.2224772e+40
-3.2309261e+40
-3.2296379e+40
-3.2212482e+40
-3.2199011e+40
-3.2283102e+40
-3.2267483e+40
-3.2185231e+40
-3.2171218e+40
-3.2520768e+40
-3.2534776e+40
-3.2434205e+40
-3.2420827e+40
-3.2546651e+40
-3.2558704e+40
-3.2459183e+40
-3.2446868e+40
-3.2508945e+40
-3.2497252e+40
-3.2409333e+40
-3.2397354e+40
-3.2472059e+40
-3.2485201e+40
-3.2385072e+40
-3.2373073e+40
-3.2648484e+40
-3.266147e+40
-3.2560096e+40
-3.2547223e+40
-3.2534178e+40
-3.2635742e+40
-3.2621789e+40
-3.2520793e+40
-3.2596974e+40
-3.2609414e+40
-3.2508822e+40
-3.2495982e+40
-3.2570436e+40
-3.2584222e+40
-3.2482852e+40
-3.2470192e+40
-2.3276024e+40
-2.8728316e+40
-2.8632614e+40
-2.8614856e+40
-2.8707329e+40
-2.8540666e+40
-2.8443805e+40
-2.8523567e+40
-2.9712162e+40
-2.9187416e+40
-2.9953024e+40
-3.0192314e+40
-2.8622058e+40
-2.6232496e+40
-2.502916e+40
-2.4914736e+40
-2.8046104e+40
-2.7358679e+40
-3.1780276e+40
-3.2050766e+40
-3.17556e+40
-3.2024432e+40
-3.1305606e+40
-3.1285098e+40
-3.151363e+40
-3.1490954e+40
-3.1348084e+40
-3.1557518e+40
-3.1325796e+40
-3.1534819e+40
-3.1732388e+40
-3.2000187e+40
-3.1709213e+40
-3.1975975e+40
-3.1224736e+40
-3.1203575e+40
-3.1429335e+40
-3.1407701e+40
-3.1266778e+40
-3.1471357e+40
-3.1245156e+40
-3.1449597e+40
-3.1644286e+40
-3.1623748e+40
-3.1907619e+40
-3.1886603e+40
-3.1955046e+40
-3.1688258e+40
-3.1665013e+40
-3.1929455e+40
-3.0917591e+40
-3.1091356e+40
-3.0896596e+40
-3.1070072e+40
-3.0615124e+40
-3.0594509e+40
-3.0764974e+40
-3.0744394e+40
-3.0574343e+40
-3.0553736e+40
-3.0723954e+40
-3.0702364e+40
-3.0875542e+40
-3.0854293e+40
-3.1049418e+40
-3.1028176e+40
-3.0992662e+40
-3.1169211e+40
-3.0971643e+40
-3.1147533e+40
-3.0649237e+40
-3.0631162e+40
-3.0799698e+40
-3.0781142e+40
-3.0688361e+40
-3.0838428e+40
-3.0667943e+40
-3.0818262e+40
-3.0952381e+40
-3.0934015e+40
-3.1127976e+40
-3.110849e+40
-3.0408336e+40
-3.054952e+40
-3.0387972e+40
-3.0528936e+40
-3.0113703e+40
-3.009535e+40
-3.0240206e+40
-3.0221919e+40
-3.0151837e+40
-3.0278504e+40
-3.0132325e+40
-3.0258832e+40
-3.0368754e+40
-3.0350858e+40
-3.0509908e+40
-3.0491992e+40
-2.9873807e+40
-2.9994641e+40
-2.9855184e+40
-2.9976277e+40
-2.9910748e+40
-3.0032508e+40
-2.9892611e+40
-3.0013344e+40
-2.9796247e+40
-2.9777999e+40
-2.9679251e+40
-2.9457169e+40
-2.9660777e+40
-2.975987e+40
-2.9740981e+40
-2.9416959e+40
-2.9624726e+40
-2.964325e+40
-2.9220072e+40
-2.9179121e+40
-2.9683989e+40
-2.9666818e+40
-2.9338924e+40
-2.9551857e+40
-2.9568729e+40
-2.9723033e+40
-2.9702339e+40
-2.9375678e+40
-2.9586577e+40
-2.9607197e+40
-2.9836374e+40
-2.995869e+40
-2.9815472e+40
-2.9937208e+40
-2.9136568e+40
-2.9103458e+40
-2.9796496e+40
-2.9918271e+40
-2.9779668e+40
-2.9901433e+40
-3.0038571e+40
-3.0166394e+40
-3.0021356e+40
-3.0148118e+40
-3.0078384e+40
-3.0205648e+40
-3.0057402e+40
-3.0185165e+40
-3.0334909e+40
-3.047642e+40
-3.0314597e+40
-3.0455761e+40
-3.0295513e+40
-3.0436118e+40
-3.0276928e+40
-3.0416431e+40
-2.8638602e+40
-2.8672548e+40
-2.8909964e+40
-2.8878069e+40
-2.8995911e+40
-2.8758839e+40
-2.8712254e+40
-2.8951863e+40
-3.0260189e+40
-3.0398616e+40
-3.0239776e+40
-3.0377531e+40
-2.9968539e+40
-2.9952215e+40
-3.0094338e+40
-3.0077399e+40
-3.0006134e+40
-3.0132225e+40
-2.9986596e+40
-3.0112584e+40
-3.0220793e+40
-3.0203984e+40
-3.0358545e+40
-3.0341451e+40
-2.9616612e+40
-2.9600795e+40
-2.9271238e+40
-2.9486975e+40
-2.9502822e+40
-2.9651642e+40
-2.9633336e+40
-2.9309881e+40
-2.9518865e+40
-2.953702e+40
-2.9728158e+40
-2.9849082e+40
-2.9712702e+40
-2.9833368e+40
-2.9764186e+40
-2.9886381e+40
-2.9745721e+40
-2.9866946e+40
-2.9075523e+40
-2.9035226e+40
-2.9559616e+40
-2.955077e+40
-2.9201834e+40
-2.9433284e+40
-2.9443503e+40
-2.9586572e+40
-2.9571467e+40
-2.9234675e+40
-2.9456058e+40
-2.9472423e+40
-2.9698465e+40
-2.9819538e+40
-2.968387e+40
-2.9804192e+40
-2.8995919e+40
-2.8959339e+40
-2.9671859e+40
-2.9792085e+40
-2.9663891e+40
-2.9783145e+40
-2.9909688e+40
-3.0033919e+40
-2.9899106e+40
-3.002075e+40
-3.0189953e+40
-3.0327414e+40
-3.0173726e+40
-3.031028e+40
-2.9937887e+40
-3.0063208e+40
-2.9922349e+40
-3.0047367e+40
-3.015893e+40
-3.0294483e+40
-3.0144432e+40
-3.0278164e+40
-2.8527488e+40
-2.8491238e+40
-2.8768555e+40
-2.8730087e+40
-2.8851247e+40
-2.8607043e+40
-2.8564347e+40
-2.8807554e+40
-3.1517194e+40
-3.1775556e+40
-3.1492454e+40
-3.1749499e+40
-3.1057475e+40
-3.1032593e+40
-3.1257517e+40
-3.1231078e+40
-3.1102381e+40
-3.1304057e+40
-3.1079764e+40
-3.1280783e+40
-3.1467928e+40
-3.172472e+40
-3.1442043e+40
-3.1698864e+40
-3.1605457e+40
-3.1868411e+40
-3.1582482e+40
-3.1844202e+40
-3.1140882e+40
-3.1345313e+40
-3.1120768e+40
-3.1323359e+40
-3.1184401e+40
-3.1388701e+40
-3.1161801e+40
-3.136668e+40
-3.1559671e+40
-3.1537324e+40
-3.1820676e+40
-3.1796692e+40
-3.0835294e+40
-3.0813054e+40
-3.1009443e+40
-3.0986854e+40
-3.0534418e+40
-3.0682937e+40
-3.0512997e+40
-3.0661275e+40
-3.0494133e+40
-3.0476732e+40
-3.064223e+40
-3.0623826e+40
-3.0793185e+40
-3.077459e+40
-3.0966528e+40
-3.0947236e+40
-3.0427225e+40
-3.0409355e+40
-3.057151e+40
-3.0551018e+40
-3.0461701e+40
-3.044404e+40
-3.0608008e+40
-3.0589454e+40
-3.0757815e+40
-3.0929935e+40
-3.0737871e+40
-3.0908226e+40
-3.0718229e+40
-3.0696549e+40
-3.0887084e+40
-3.0863529e+40
-2.4463124e+40
-2.5668306e+40
-2.6581907e+40
-2.648946e+40
-2.5572441e+40
-2.4355808e+40
-2.6422947e+40
-2.6373746e+40
-2.5509743e+40
-2.5480361e+40
-2.7919976e+40
-2.7518432e+40
-2.7453404e+40
-2.7860054e+40
-2.8507612e+40
-2.8223766e+40
-2.817103e+40
-2.8460318e+40
-2.842242e+40
-2.8130272e+40
-2.8090723e+40
-2.8383497e+40
-2.7405927e+40
-2.7368709e+40
-2.7814561e+40
-2.7773141e+40
-2.7297638e+40
-2.7337273e+40
-2.7739618e+40
-2.7704052e+40
-2.8053252e+40
-2.8016172e+40
-2.8349161e+40
-2.8307905e+40
-2.799311e+40
-2.7966599e+40
-2.8277385e+40
-2.8244416e+40
-2.7265881e+40
-2.7277783e+40
-2.7682323e+40
-2.7661143e+40
-3.0658388e+40
-3.0645165e+40
-3.0724213e+40
-3.0737778e+40
-3.081751e+40
-3.0906271e+40
-3.0891756e+40
-3.0803397e+40
-3.036589e+40
-3.0377149e+40
-3.0444959e+40
-3.0433277e+40
-3.0499977e+40
-3.0512315e+40
-3.0585655e+40
-3.0572693e+40
-3.041054e+40
-3.0355073e+40
-3.0422317e+40
-3.0343826e+40
-3.0560767e+40
-3.0488474e+40
-3.0476609e+40
-3.0548369e+40
-2.5306936e+40
-2.5222629e+40
-2.6779764e+40
-2.6721199e+40
-2.6163842e+40
-2.6098631e+40
-2.6682392e+40
-2.6059117e+40
-2.8051349e+40
-2.7902514e+40
-2.7866577e+40
-2.8019649e+40
-2.7730693e+40
-2.7494155e+40
-2.7451955e+40
-2.7692677e+40
-2.7391902e+40
-2.7417859e+40
-2.76582e+40
-2.7630842e+40
-2.7988839e+40
-2.78312e+40
-2.7803755e+40
-2.7960945e+40
-2.8501806e+40
-2.8395059e+40
-2.8367066e+40
-2.8473467e+40
-2.829025e+40
-2.8176725e+40
-2.8147709e+40
-2.8261771e+40
-2.8094414e+40
-2.812052e+40
-2.8236892e+40
-2.8212634e+40
-2.844838e+40
-2.8341685e+40
-2.8317453e+40
-2.8422904e+40
-2.8400909e+40
-2.829657e+40
-2.8270336e+40
-2.8374677e+40
-2.8191428e+40
-2.8072838e+40
-2.805035e+40
-2.8166277e+40
-2.8026081e+40
-2.8036389e+40
-2.8150257e+40
-2.8140711e+40
-2.8357843e+40
-2.8252203e+40
-2.8244505e+40
-2.8349993e+40
-2.7611446e+40
-2.7371416e+40
-2.7348713e+40
-2.7589683e+40
-2.7761619e+40
-2.7783618e+40
-2.7939215e+40
-2.7917753e+40
-2.7904713e+40
-2.7749457e+40
-2.8237475e+40
-2.8344654e+40
-2.8450923e+40
-2.8459339e+40
-2.8559429e+40
-2.8549437e+40
-2.8473589e+40
-2.8497958e+40
-2.8597376e+40
-2.8572945e+40
-2.8802894e+40
-2.8696026e+40
-2.867128e+40
-2.8776248e+40
-2.8758635e+40
-2.865587e+40
-2.864374e+40
-2.8742924e+40
-2.8699837e+40
-2.8600996e+40
-2.8574018e+40
-2.8673493e+40
-2.8522491e+40
-2.8549382e+40
-2.8649767e+40
-2.8622736e+40
-2.8771235e+40
-2.8796351e+40
-2.8900727e+40
-2.8875705e+40
-2.8852188e+40
-2.8747277e+40
-2.8720969e+40
-2.8826942e+40
-2.9106409e+40
-2.9001572e+40
-2.8977605e+40
-2.9083063e+40
-2.892943e+40
-2.8954501e+40
-2.9060336e+40
-2.9035416e+40
-2.9187671e+40
-2.9209945e+40
-2.9318886e+40
-2.929741e+40
-2.927504e+40
-2.9164827e+40
-2.9140182e+40
-2.9250842e+40
-2.9011957e+40
-2.8905702e+40
-2.8878735e+40
-2.8984064e+40
-2.8839348e+40
-2.8858765e+40
-2.896209e+40
-2.8938988e+40
-2.9088499e+40
-2.9116846e+40
-2.9227569e+40
-2.9198086e+40
-2.9172383e+40
-2.9064246e+40
-2.9039195e+40
-2.9145525e+40
-3.0172299e+40
-3.0119108e+40
-3.0182031e+40
-3.0109413e+40
-3.0245146e+40
-3.0312112e+40
-3.0301048e+40
-3.0234835e+40
-3.008934e+40
-3.0151447e+40
-3.0099621e+40
-3.0162268e+40
-3.0224619e+40
-3.0290619e+40
-3.0213748e+40
-3.0279651e+40
-2.9849242e+40
-2.990522e+40
-2.9894271e+40
-2.9837924e+40
-2.9815904e+40
-2.9826895e+40
-2.9883286e+40
-2.9871699e+40
-3.0008898e+40
-2.9961129e+40
-3.0020329e+40
-2.9950212e+40
-2.9933112e+40
-2.988418e+40
-2.9941202e+40
-2.9876415e+40
-2.9998275e+40
-3.0058825e+40
-3.0049253e+40
-2.9989522e+40
-2.9914372e+40
-2.9867552e+40
-2.9924123e+40
-2.9858237e+40
-2.9980317e+40
-3.0039886e+40
-2.9970589e+40
-3.0029942e+40
-3.007937e+40
-3.0141368e+40
-3.0129415e+40
-3.0067708e+40
-2.9625949e+40
-2.9614023e+40
-2.9681704e+40
-2.9669858e+40
-2.9725338e+40
-2.9793575e+40
-2.9781987e+40
-2.9737034e+40
-2.9603777e+40
-2.9592358e+40
-2.9648002e+40
-2.9659149e+40
-2.9714312e+40
-2.9703563e+40
-2.9771037e+40
-2.976031e+40
-2.9708214e+40
-2.9659134e+40
-2.9714691e+40
-2.9652517e+40
-2.9770559e+40
-2.9827861e+40
-2.9820307e+40
-2.9763676e+40
-2.9691503e+40
-2.9645068e+40
-2.9700221e+40
-2.9636252e+40
-2.9755172e+40
-2.9811689e+40
-2.9746454e+40
-2.9802598e+40
-2.9535599e+40
-2.9528886e+40
-2.960257e+40
-2.9595877e+40
-2.9588163e+40
-2.9579001e+40
-2.9520186e+40
-2.9510749e+40
-2.9440593e+40
-2.942344e+40
-2.9500912e+40
-2.9490003e+40
-2.9568994e+40
-2.9557431e+40
-2.9546664e+40
-2.9534791e+40
-2.9478004e+40
-2.9465767e+40
-2.9378469e+40
-2.9402786e+40
-2.9453413e+40
-2.9439302e+40
-2.9522393e+40
-2.9507622e+40
-2.9493708e+40
-2.9478918e+40
-2.9424653e+40
-2.9410024e+40
-2.9352746e+40
-2.9324568e+40
-2.9621208e+40
-2.9579812e+40
-2.9636268e+40
-2.9564638e+40
-3.20915e+40
-3.2077933e+40
-3.2065307e+40
-3.2052635e+40
-3.2012997e+40
-3.1999565e+40
-3.2026399e+40
-3.2040661e+40
-3.218695e+40
-3.2174554e+40
-3.2162583e+40
-3.2150789e+40
-3.2140097e+40
-3.2127111e+40
-3.2114613e+40
-3.2102564e+40
-3.2254697e+40
-3.2242136e+40
-3.2267542e+40
-3.2280337e+40
-3.2207373e+40
-3.2196688e+40
-3.22188e+40
-3.2231209e+40
-3.2364544e+40
-3.2378399e+40
-3.2339184e+40
-3.2351875e+40
-3.2327776e+40
-3.231427e+40
-3.2290485e+40
-3.2301944e+40
-3.1483297e+40
-2.9918401e+40
-3.1131538e+40
-3.10486e+40
-3.0069412e+40
-3.1212609e+40
-3.1303327e+40
-3.2211168e+40
-3.2263109e+40
-3.1323974e+40
-3.1933092e+40
-3.1882927e+40
-3.2110871e+40
-3.2163482e+40
-3.1238885e+40
-3.1837283e+40
-3.1786218e+40
-3.233096e+40
-3.2358245e+40
-3.2415339e+40
-3.2388943e+40
-3.2579538e+40
-3.2552851e+40
-3.2278327e+40
-3.2303746e+40
-3.2362154e+40
-3.2335774e+40
-3.2526033e+40
-3.2498453e+40
-3.2568096e+40
-3.2552468e+40
-3.2566015e+40
-3.2580985e+40
-3.260873e+40
-3.2594849e+40
-3.2582396e+40
-3.2595226e+40
-3.2550431e+40
-3.2573188e+40
-3.2558459e+40
-3.2535714e+40
-3.2383331e+40
-3.2494035e+40
-3.2478523e+40
-3.2367721e+40
-3.2601338e+40
-3.2587527e+40
-3.2564367e+40
-3.2578514e+40
-3.2520989e+40
-3.2507342e+40
-3.2396525e+40
-3.2409561e+40
-3.2642373e+40
-3.2655084e+40
-3.2632267e+40
-3.261942e+40
-3.2462407e+40
-3.2574403e+40
-3.2562277e+40
-3.2450157e+40
-3.2614594e+40
-3.2629054e+40
-3.260647e+40
-3.2592009e+40
-3.2534563e+40
-3.2549455e+40
-3.2437194e+40
-3.2422625e+40
-3.263692e+40
-3.2648568e+40
-3.2662571e+40
-3.2650038e+40
-3.2636611e+40
-3.2623333e+40
-3.2607953e+40
-3.2621899e+40
-3.2433913e+40
-3.2461205e+40
-3.2492956e+40
-3.2519791e+40
-3.268569e+40
-3.2659037e+40
-3.2382041e+40
-3.2407066e+40
-3.2466342e+40
-3.2440675e+40
-3.2632763e+40
-3.2605638e+40
-3.2768822e+40
-3.2755087e+40
-3.2756298e+40
-3.2743504e+40
-3.2730086e+40
-3.2715053e+40
-3.2743086e+40
-3.2728826e+40
-3.2716377e+40
-3.2702524e+40
-3.2703446e+40
-3.2690466e+40
-3.2676331e+40
-3.2661026e+40
-3.2689518e+40
-3.2674956e+40
-3.2736863e+40
-3.2760655e+40
-3.2747954e+40
-3.2724113e+40
-3.2720896e+40
-3.2734878e+40
-3.2697483e+40
-3.2711343e+40
-3.2653034e+40
-3.2539302e+40
-3.2525511e+40
-3.2638849e+40
-3.2563703e+40
-3.267768e+40
-3.2665536e+40
-3.2551711e+40
-3.2626413e+40
-3.2613992e+40
-3.2501822e+40
-3.25136e+40
-3.2489052e+40
-3.260095e+40
-3.2586552e+40
-3.2474628e+40
-3.2695399e+40
-3.2708489e+40
-3.2671655e+40
-3.2684853e+40
-3.2667221e+40
-3.2681507e+40
-3.2644125e+40
-3.2658303e+40
-3.2118314e+40
-3.202615e+40
-3.2211216e+40
-3.2310614e+40
-3.2365562e+40
-3.1411681e+40
-3.2033462e+40
-3.1979177e+40
-3.2415737e+40
-3.2469235e+40
-3.1510441e+40
-3.2135755e+40
-3.2083036e+40
-3.2956974e+40
-3.2592386e+40
-3.2618087e+40
-3.2679032e+40
-3.2845894e+40
-3.2653033e+40
-3.2819134e+40
-3.2645027e+40
-3.2672144e+40
-3.2731816e+40
-3.270532e+40
-3.2898065e+40
-3.2871925e+40
-3.2539336e+40
-3.2567781e+40
-3.2627455e+40
-3.2599952e+40
-3.2793418e+40
-3.2766574e+40
-3.2485389e+40
-3.2511497e+40
-3.2572779e+40
-3.2545972e+40
-3.273969e+40
-3.2712017e+40
-3.3062158e+40
-3.3089466e+40
-3.3118351e+40
-3.3090194e+40
-3.3060336e+40
-3.2968431e+40
-3.296744e+40
-3.2956104e+40
-3.2968474e+40
-3.2980969e+40
-3.2943064e+40
-3.2927987e+40
-3.2941258e+40
-3.2955573e+40
-3.2915706e+40
-3.2903707e+40
-3.2916138e+40
-3.2929064e+40
-3.2902512e+40
-3.2889864e+40
-3.2874704e+40
-3.2888002e+40
-3.2972205e+40
-3.2959318e+40
-3.2947192e+40
-3.2934015e+40
-3.2767752e+40
-3.2885776e+40
-3.2873055e+40
-3.2754926e+40
-3.2946391e+40
-3.2921307e+40
-3.2932324e+40
-3.2907125e+40
-3.28456e+40
-3.286032e+40
-3.2741851e+40
-3.2727593e+40
-3.292014e+40
-3.2906946e+40
-3.2881314e+40
-3.2894868e+40
-3.2715013e+40
-3.2833077e+40
-3.2820161e+40
-3.2702312e+40
-3.2689442e+40
-3.2807086e+40
-3.2792756e+40
-3.2675305e+40
-3.2893307e+40
-3.2879041e+40
-3.2853836e+40
-3.2868018e+40
-3.285092e+40
-3.2862568e+40
-3.28759e+40
-3.2863293e+40
-3.2822216e+40
-3.2837506e+40
-3.2850095e+40
-3.2835636e+40
-3.2854233e+40
-3.2867023e+40
-3.2842092e+40
-3.2829196e+40
-3.2663296e+40
-3.2780892e+40
-3.2768938e+40
-3.2651749e+40
-3.2826962e+40
-3.284111e+40
-3.2816523e+40
-3.2802417e+40
-3.2742144e+40
-3.275643e+40
-3.2639421e+40
-3.2625461e+40
-3.282297e+40
-3.2809394e+40
-3.2797093e+40
-3.280981e+40
-3.2795789e+40
-3.2782779e+40
-3.276739e+40
-3.2781103e+40
-3.2801117e+40
-3.2814432e+40
-3.2789882e+40
-3.277638e+40
-3.2772805e+40
-3.2787169e+40
-3.2762925e+40
-3.2748704e+40
-3.2716636e+40
-3.2729446e+40
-3.2612961e+40
-3.2600952e+40
-3.2689182e+40
-3.2703617e+40
-3.2588453e+40
-3.2574744e+40
-2.3131423e+40
-3.224176e+40
-3.2253086e+40
-3.2217717e+40
-3.2229942e+40
-3.2206729e+40
-3.2194802e+40
-3.2182229e+40
-3.2169123e+40
-3.2144541e+40
-3.2157195e+40
-3.2119114e+40
-3.2132316e+40
-3.2106775e+40
-3.2093672e+40
-3.2079741e+40
-3.2065345e+40
-3.2310742e+40
-3.2323786e+40
-3.2336111e+40
-3.2348225e+40
-3.2299219e+40
-3.2287686e+40
-3.2264158e+40
-3.2275831e+40
-3.2433689e+40
-3.2446669e+40
-3.2421525e+40
-3.2408633e+40
-3.2383859e+40
-3.2396235e+40
-3.2359e+40
-3.2371248e+40
-2.3463987e+40
-2.8779897e+40
-2.8697813e+40
-2.868172e+40
-2.8760415e+40
-2.8618184e+40
-2.8538654e+40
-2.8604885e+40
-2.9824965e+40
-2.9810213e+40
-2.9482937e+40
-2.9693184e+40
-2.970794e+40
-2.951103e+40
-2.9271076e+40
-2.9246304e+40
-2.9938832e+40
-3.0061534e+40
-2.992449e+40
-3.004653e+40
-3.0182747e+40
-3.0166745e+40
-3.0294387e+40
-2.8786983e+40
-2.8808917e+40
-2.9044923e+40
-2.9021667e+40
-2.5772725e+40
-2.670425e+40
-2.5734186e+40
-2.6646983e+40
-2.4572467e+40
-2.7584846e+40
-2.8562665e+40
-2.8279439e+40
-2.8257272e+40
-2.8538659e+40
-2.7547473e+40
-2.7561605e+40
-2.7968323e+40
-2.7947617e+40
-3.1897169e+40
-3.1770517e+40
-3.1909109e+40
-3.1758045e+40
-3.2050534e+40
-3.2215088e+40
-3.220085e+40
-3.2037363e+40
-3.1734561e+40
-3.1872054e+40
-3.17464e+40
-3.1884973e+40
-3.2024927e+40
-3.2188242e+40
-3.201215e+40
-3.2175496e+40
-3.1285712e+40
-3.1387103e+40
-3.1377373e+40
-3.1275604e+40
-3.1255742e+40
-3.1265703e+40
-3.1367086e+40
-3.1356168e+40
-3.1595113e+40
-3.14888e+40
-3.1606862e+40
-3.1478053e+40
-3.1456895e+40
-3.1573777e+40
-3.1467764e+40
-3.1584681e+40
-3.1418248e+40
-3.1327058e+40
-3.1429207e+40
-3.1315689e+40
-3.1531907e+40
-3.1651547e+40
-3.163908e+40
-3.1520173e+40
-3.1396205e+40
-3.1305173e+40
-3.1407465e+40
-3.1294591e+40
-3.1509343e+40
-3.1628042e+40
-3.1498248e+40
-3.161663e+40
-3.1724031e+40
-3.1861265e+40
-3.1849056e+40
-3.1711926e+40
-3.2164495e+40
-3.2001164e+40
-3.1988294e+40
-3.2150905e+40
-3.1701183e+40
-3.1690167e+40
-3.183809e+40
-3.1826525e+40
-3.2139185e+40
-3.196592e+40
-3.2128162e+40
-3.1976977e+40
-3.1206971e+40
-3.1306451e+40
-3.1296638e+40
-3.119638e+40
-3.1174968e+40
-3.1185795e+40
-3.1286016e+40
-3.1274573e+40
-3.1511017e+40
-3.140619e+40
-3.1522025e+40
-3.1395751e+40
-3.137453e+40
-3.149055e+40
-3.1385525e+40
-3.1501044e+40
-3.1336769e+40
-3.1246966e+40
-3.134697e+40
-3.1236503e+40
-3.1447254e+40
-3.1563924e+40
-3.1552157e+40
-3.1436284e+40
-3.131548e+40
-3.1226332e+40
-3.1326392e+40
-3.1215873e+40
-3.1425925e+40
-3.154175e+40
-3.1415319e+40
-3.1531135e+40
-3.163693e+40
-3.177176e+40
-3.1760797e+40
-3.1625889e+40
-3.1615981e+40
-3.1750852e+40
-3.1605758e+40
-3.174021e+40
-3.2070255e+40
-3.205792e+40
-3.1909447e+40
-3.1897812e+40
-3.1877425e+40
-3.1887579e+40
-3.2047267e+40
-3.2037116e+40
-3.1956063e+40
-3.2118585e+40
-3.2106034e+40
-3.19437e+40
-3.1804472e+40
-3.1680005e+40
-3.1816338e+40
-3.1668023e+40
-3.1646444e+40
-3.1657237e+40
-3.1793256e+40
-3.178157e+40
-3.1919648e+40
-3.1931441e+40
-3.2092943e+40
-3.2080596e+40
-3.0971726e+40
-3.0897474e+40
-3.09808e+40
-3.0888044e+40
-3.1064057e+40
-3.1156679e+40
-3.1146351e+40
-3.1054438e+40
-3.095155e+40
-3.0878192e+40
-3.0961925e+40
-3.086804e+40
-3.104468e+40
-3.1136509e+40
-3.103442e+40
-3.1126056e+40
-3.0597526e+40
-3.0670419e+40
-3.0661078e+40
-3.058797e+40
-3.0578284e+40
-3.0651405e+40
-3.0641064e+40
-3.0568184e+40
-3.0742481e+40
-3.0820592e+40
-3.0810977e+40
-3.073297e+40
-3.0723244e+40
-3.0801199e+40
-3.0791153e+40
-3.0713122e+40
-3.0558873e+40
-3.0631644e+40
-3.0620906e+40
-3.0548099e+40
-3.0527617e+40
-3.0538003e+40
-3.061068e+40
-3.0599979e+40
-3.0703539e+40
-3.0781425e+40
-3.0770086e+40
-3.0692501e+40
-3.0671566e+40
-3.0682183e+40
-3.0759627e+40
-3.0749075e+40
-3.085811e+40
-3.0941767e+40
-3.0930305e+40
-3.0846666e+40
-3.0825641e+40
-3.0836197e+40
-3.0919967e+40
-3.0909142e+40
-3.1117258e+40
-3.1106267e+40
-3.1025039e+40
-3.101371e+40
-3.0992665e+40
-3.1003303e+40
-3.1095793e+40
-3.1085141e+40
-3.1045422e+40
-3.0970771e+40
-3.1055664e+40
-3.0960173e+40
-3.1140491e+40
-3.123493e+40
-3.1223597e+40
-3.1129754e+40
-3.0940237e+40
-3.1024776e+40
-3.0950246e+40
-3.1035349e+40
-3.1119738e+40
-3.1213467e+40
-3.1109299e+40
-3.1203071e+40
-3.0631215e+40
-3.0704325e+40
-3.0695667e+40
-3.062214e+40
-3.0613401e+40
-3.0686871e+40
-3.0677994e+40
-3.0604989e+40
-3.0844751e+40
-3.077643e+40
-3.0854411e+40
-3.0767285e+40
-3.0828176e+40
-3.0758683e+40
-3.0836351e+40
-3.075013e+40
-3.0732133e+40
-3.0668901e+40
-3.0741907e+40
-3.0658781e+40
-3.0814182e+40
-3.0892824e+40
-3.0882095e+40
-3.0803993e+40
-3.0712484e+40
-3.0649106e+40
-3.0722453e+40
-3.0639412e+40
-3.0794387e+40
-3.0872498e+40
-3.0784701e+40
-3.0862714e+40
-3.093155e+40
-3.1016004e+40
-3.1006233e+40
-3.092183e+40
-3.0913301e+40
-3.0997539e+40
-3.0905008e+40
-3.0988457e+40
-3.1194339e+40
-3.1184214e+40
-3.1100446e+40
-3.1090538e+40
-3.10723e+40
-3.1081483e+40
-3.1174772e+40
-3.1165222e+40
-3.0449901e+40
-3.0392261e+40
-3.045963e+40
-3.0382194e+40
-3.0527189e+40
-3.0598994e+40
-3.0588656e+40
-3.0517191e+40
-3.0362749e+40
-3.0430078e+40
-3.0372495e+40
-3.0440185e+40
-3.0507592e+40
-3.0579124e+40
-3.0497647e+40
-3.0569387e+40
-3.0105683e+40
-3.0165752e+40
-3.0156498e+40
-3.0095924e+40
-3.0078242e+40
-3.0086739e+40
-3.0147508e+40
-3.0138843e+40
-3.0280876e+40
-3.0226097e+40
-3.0290185e+40
-3.0216929e+40
-3.0199661e+40
-3.0263953e+40
-3.0208133e+40
-3.0272203e+40
-3.0193261e+40
-3.0141881e+40
-3.0202412e+40
-3.0132736e+40
-3.0263239e+40
-3.0327854e+40
-3.0317669e+40
-3.0253624e+40
-3.0174046e+40
-3.0123263e+40
-3.0183801e+40
-3.0113878e+40
-3.0244143e+40
-3.0308206e+40
-3.0234565e+40
-3.0298606e+40
-3.0354123e+40
-3.0421487e+40
-3.0412099e+40
-3.0344793e+40
-3.0336231e+40
-3.040374e+40
-3.0327984e+40
-3.0395358e+40
-3.0561138e+40
-3.0551759e+40
-3.0489133e+40
-3.0479768e+40
-3.0463155e+40
-3.0471359e+40
-3.0543249e+40
-3.0535045e+40
-2.9872518e+40
-2.9862297e+40
-2.9929817e+40
-2.9919586e+40
-2.9977189e+40
-3.0046651e+40
-3.00366e+40
-2.9987378e+40
-2.9853802e+40
-2.9844924e+40
-2.9901764e+40
-2.9910602e+40
-2.9967865e+40
-2.9959339e+40
-3.00274e+40
-3.0018986e+40
-2.9955742e+40
-2.9906632e+40
-2.9964158e+40
-2.9897952e+40
-3.0022495e+40
-3.0082451e+40
-3.0073309e+40
-3.0013787e+40
-2.9938675e+40
-2.9890142e+40
-2.9947226e+40
-2.9881751e+40
-3.0004653e+40
-3.006403e+40
-2.9995941e+40
-3.0054862e+40
-2.9782202e+40
-2.9774099e+40
-2.9848871e+40
-2.9840368e+40
-2.983256e+40
-2.9824004e+40
-2.9765661e+40
-2.9757214e+40
-2.9686667e+40
-2.9578803e+40
-2.9475207e+40
-2.9456906e+40
-2.9559921e+40
-2.9670395e+40
-2.9748504e+40
-2.97394e+40
-2.9814826e+40
-2.980507e+40
-2.9796568e+40
-2.9787531e+40
-2.9730202e+40
-2.9721163e+40
-2.9542883e+40
-2.94404e+40
-2.942227e+40
-2.9524627e+40
-2.9635725e+40
-2.9653647e+40
-2.9376707e+40
-2.9278326e+40
-2.9259907e+40
-2.9358271e+40
-2.9224499e+40
-2.9243686e+40
-2.9342767e+40
-2.9324275e+40
-2.9674938e+40
-2.9665847e+40
-2.9740158e+40
-2.9730516e+40
-2.9722525e+40
-2.9714339e+40
-2.9657106e+40
-2.9648818e+40
-2.9468708e+40
-2.9366409e+40
-2.9350887e+40
-2.9452436e+40
-2.9564312e+40
-2.9581575e+40
-2.9712039e+40
-2.9702618e+40
-2.9778141e+40
-2.9767983e+40
-2.9759009e+40
-2.9749663e+40
-2.9693247e+40
-2.9684075e+40
-2.9507486e+40
-2.9404808e+40
-2.9383382e+40
-2.9486172e+40
-2.9599483e+40
-2.9617482e+40
-2.9835351e+40
-2.9824631e+40
-2.9882177e+40
-2.989286e+40
-2.995125e+40
-2.9940775e+40
-3.0011165e+40
-3.0000832e+40
-2.9863088e+40
-2.9815393e+40
-2.987236e+40
-2.9806217e+40
-2.9990838e+40
-2.9930726e+40
-2.9921456e+40
-2.9981242e+40
-2.9306243e+40
-2.9205051e+40
-2.9183545e+40
-2.9284309e+40
-2.9156998e+40
-2.9169334e+40
-2.9268836e+40
-2.9254267e+40