/*--------------------------------*- C++ -*----------------------------------*\
  =========                 |
  \\      /  F ield         | OpenFOAM: The Open Source CFD Toolbox
   \\    /   O peration     | Website:  https://openfoam.org
    \\  /    A nd           | Version:  7
     \\/     M anipulation  |
\*---------------------------------------------------------------------------*/
FoamFile
{
    version     2.0;
    format      ascii;
    class       volVectorField;
    location    "3000";
    object      UMean;
}
// * * * * * * * * * * * * * * * * * * * * * * * * * * * * * * * * * * * * * //

dimensions      [0 1 -1 0 0 0 0];

internalField   nonuniform List<vector> 
34356
(
(-6.6814119e+17 3.9244131e+16 5.0646457e+16)
(-5.9022458e+17 3.7105248e+16 -2.7549859e+16)
(-6.0719699e+17 3.4683249e+16 7.0541978e+16)
(-6.0355181e+17 1.3958351e+16 7.3043223e+16)
(-6.7525205e+17 2.9692871e+16 6.2735373e+16)
(-6.7094598e+17 2.6245161e+16 5.9463794e+16)
(-8.3652886e+17 3.3395542e+16 1.2405443e+16)
(-6.5213933e+17 2.3844796e+16 3.7644867e+16)
(-6.5552507e+17 3.016309e+16 4.0725505e+16)
(-5.9776424e+17 3.7080841e+16 -7.6582646e+16)
(-4.7494256e+17 4.2312378e+16 -1.3187958e+16)
(-5.9096874e+17 1.8547769e+16 -7.5490488e+16)
(-4.6963836e+17 5.8813107e+15 -1.2931082e+16)
(-5.0577076e+17 1.4448564e+16 5.6931656e+16)
(-5.0573216e+17 2.1286123e+16 5.6971765e+16)
(-6.2824826e+17 1.731797e+16 6.3321496e+16)
(-6.290706e+17 2.7397919e+16 6.2886405e+16)
(-5.0694944e+17 1.5431658e+16 5.7215491e+16)
(-6.3650842e+17 1.5001781e+16 6.7384282e+16)
(-5.049829e+17 1.1876909e+16 5.986881e+16)
(-6.3356659e+17 2.6755138e+16 6.8134786e+16)
(-6.9113758e+17 3.0488244e+16 2.1749462e+16)
(-6.563297e+17 2.5187055e+16 -1.7430739e+16)
(-6.5651245e+17 2.3576191e+16 -1.889879e+16)
(-6.8770165e+17 2.230798e+16 1.948715e+16)
(-8.1883224e+17 2.8235759e+16 -1.5408977e+16)
(-5.7366361e+17 2.6340657e+16 -3.7760522e+15)
(-5.6793015e+17 2.1420342e+16 -6.0325417e+15)
(-5.6325238e+17 2.4967267e+16 -7.9200075e+15)
(-5.6633905e+17 2.8417303e+16 -7.0119976e+15)
(-6.03883e+17 2.2707009e+16 -3.4084261e+16)
(-6.5657819e+17 2.8744127e+16 -1.6183029e+16)
(-6.074787e+17 2.3330417e+16 -1.5840015e+16)
(-5.9641577e+17 2.2012771e+16 -3.0074812e+16)
(-5.9691607e+17 1.5438966e+16 3.995716e+16)
(-5.9890917e+17 2.5089687e+16 3.9545959e+16)
(-6.012495e+17 1.3534813e+16 3.9970403e+16)
(-6.0243749e+17 2.3063158e+16 4.2309112e+16)
(-5.5544187e+17 1.7946062e+16 -6.8069895e+16)
(-5.8178204e+17 2.7071856e+16 -6.0759562e+16)
(-5.82944e+17 1.8609329e+16 -6.0349128e+16)
(-5.5437906e+17 1.976012e+16 -6.8717618e+16)
(-4.5427093e+17 1.978369e+16 -8.741849e+16)
(-3.3663481e+17 2.9646626e+16 -5.865361e+15)
(-4.55361e+17 1.146978e+16 -8.7546992e+16)
(-3.3940477e+17 5.8080668e+15 -4.0789446e+15)
(-5.7839417e+17 2.8105958e+16 -6.0139471e+16)
(-5.818742e+17 1.7852128e+16 -6.1164887e+16)
(-5.5533444e+17 1.8388142e+16 -6.8569552e+16)
(-5.5325278e+17 1.8287321e+16 -6.856646e+16)
(-4.4994475e+17 1.0985644e+16 -8.7934407e+16)
(-4.5499619e+17 1.6879177e+16 -8.8425723e+16)
(-3.3555385e+17 3.0054269e+15 -3.993057e+15)
(-3.4197688e+17 2.3675989e+16 -3.2632025e+15)
(-5.514733e+17 1.9445575e+16 5.8507034e+16)
(-4.2465671e+17 7.8848697e+15 4.8091027e+16)
(-4.2360665e+17 1.0880103e+16 4.4351177e+16)
(-5.4882338e+17 1.1772791e+16 5.4757818e+16)
(-4.251637e+17 1.1872178e+16 4.6693206e+16)
(-5.5185207e+17 1.922204e+16 5.7482295e+16)
(-4.2308702e+17 1.3713482e+16 4.6727388e+16)
(-5.4615813e+17 1.1711542e+16 5.596529e+16)
(-4.2375282e+17 7.4706533e+15 4.5986356e+16)
(-4.2345594e+17 9.5033503e+15 4.6500233e+16)
(-5.5092001e+17 1.5823248e+16 5.6840688e+16)
(-5.4901827e+17 8.0561488e+15 5.6882616e+16)
(-5.5199703e+17 1.8271115e+16 6.1797643e+16)
(-4.2402557e+17 6.4261557e+15 4.9857568e+16)
(-4.2315963e+17 7.380608e+15 4.5922777e+16)
(-5.5009104e+17 9.1886909e+15 5.8219358e+16)
(-6.3341129e+17 2.3722039e+16 3.3566319e+16)
(-6.3211589e+17 1.4932699e+16 3.1944475e+16)
(-6.0928564e+17 1.6370053e+16 -3.5459867e+15)
(-6.1064141e+17 1.948385e+16 -2.3867508e+15)
(-6.1866927e+17 2.0916291e+16 -1.3797041e+16)
(-6.0000319e+17 1.9131115e+16 -3.027904e+16)
(-6.028738e+17 1.785534e+16 -2.8874549e+16)
(-6.1772398e+17 1.6881623e+16 -1.4294644e+16)
(-6.6279661e+17 2.7079381e+16 -1.4544986e+16)
(-6.1727681e+17 2.2078981e+16 -1.4684716e+16)
(-5.9951409e+17 2.0157971e+16 -3.0407854e+16)
(-6.0240962e+17 1.9680409e+16 -2.8525426e+16)
(-6.1658406e+17 1.7955609e+16 -1.3930028e+16)
(-6.6422849e+17 2.0309331e+16 -1.5772849e+16)
(-6.2531504e+17 1.5467708e+16 3.0347272e+16)
(-6.2854316e+17 2.4861751e+16 3.050264e+16)
(-6.0746404e+17 2.1707814e+16 -2.7972887e+15)
(-6.0702311e+17 1.6768624e+16 -2.2559769e+15)
(-6.0344918e+17 2.3719303e+16 -3.39715e+16)
(-6.026548e+17 1.8972349e+16 -3.5760005e+16)
(-5.6799439e+17 2.1630071e+16 -2.0404815e+16)
(-5.5747957e+17 1.948494e+16 -1.9298843e+16)
(-5.6327495e+17 1.4884026e+16 -2.4597134e+15)
(-5.6356632e+17 2.2063214e+16 -4.8439321e+15)
(-5.1757315e+17 1.3912886e+16 -1.0922553e+16)
(-5.8516197e+17 2.1325001e+16 -6.5463693e+16)
(-6.6371045e+17 2.4075477e+16 -2.2537355e+16)
(-5.5827125e+17 2.2943633e+16 -5.2449795e+16)
(-6.1065732e+17 2.5046293e+16 -3.770931e+16)
(-6.1574868e+17 1.802533e+16 -3.7668729e+16)
(-5.604861e+17 1.5802695e+16 -5.4743593e+16)
(-5.9439066e+17 1.8315339e+16 -4.1553664e+16)
(-5.9154301e+17 2.43239e+16 -4.0446652e+16)
(-5.9930377e+17 2.3563923e+16 -3.2798592e+16)
(-6.0519803e+17 1.9169346e+16 -3.1870553e+16)
(-5.252225e+17 1.4759187e+16 -1.3570682e+16)
(-5.1581948e+17 1.4055972e+16 -2.3289556e+16)
(-5.1639613e+17 1.3349503e+16 -2.1853475e+16)
(-5.2728665e+17 1.5061533e+16 -2.392325e+16)
(-5.2644422e+17 1.4939242e+16 -2.3187892e+16)
(-5.2555917e+17 1.4557499e+16 -2.5797469e+16)
(-5.2568299e+17 1.5536118e+16 -2.7008646e+16)
(-5.2699248e+17 1.4294688e+16 -2.7215359e+16)
(-5.2219027e+17 1.8239054e+16 3.7780801e+16)
(-5.1839619e+17 1.0476209e+16 3.8099675e+16)
(-5.2252786e+17 1.7075494e+16 3.8896803e+16)
(-5.2024246e+17 9.5041113e+15 3.5807967e+16)
(-5.2398461e+17 1.5344901e+16 3.8002156e+16)
(-5.2036508e+17 7.4704736e+15 3.7259257e+16)
(-5.233116e+17 1.5942933e+16 4.1607838e+16)
(-5.2132736e+17 6.9398851e+15 3.8127325e+16)
(-6.7648973e+17 2.8527368e+16 -5.9029205e+16)
(-6.7565282e+17 3.0310436e+16 -6.0411402e+16)
(-5.8932943e+17 1.964029e+16 -7.641703e+16)
(-5.7421847e+17 2.6258295e+16 -4.7276169e+16)
(-5.7819287e+17 1.6725446e+16 -4.7009358e+16)
(-5.8726028e+17 1.7007627e+16 -7.5843101e+16)
(-3.9749703e+17 1.1011439e+16 -9.1110427e+16)
(-4.7590115e+17 1.5479346e+16 -7.8028373e+16)
(-4.7509934e+17 9.7444683e+15 -7.8223598e+16)
(-3.9740552e+17 1.0482521e+16 -9.1840733e+16)
(-2.7607517e+17 1.1384471e+16 -8.2693813e+16)
(-2.3390014e+17 1.9977797e+16 1.374308e+16)
(-2.3675182e+17 4.9350533e+15 1.6315457e+16)
(-2.7685824e+17 7.6565713e+15 -8.1707516e+16)
(-3.9858767e+17 1.0327397e+16 -9.2554943e+16)
(-4.76974e+17 1.5616256e+16 -7.8687103e+16)
(-4.7753462e+17 9.4030068e+15 -7.8569905e+16)
(-3.9924529e+17 9.0546634e+15 -9.1415649e+16)
(-2.7596345e+17 6.4736864e+15 -8.3130007e+16)
(-2.7837364e+17 9.2460115e+15 -8.2635441e+16)
(-2.3608844e+17 7.4883101e+14 1.5832903e+16)
(-2.3918471e+17 1.6425465e+16 1.6978627e+16)
(-5.7028166e+17 2.7230694e+16 -4.7201231e+16)
(-5.7640952e+17 1.6430016e+16 -4.7491332e+16)
(-5.8817081e+17 1.6306039e+16 -7.6346058e+16)
(-5.8697056e+17 1.9757216e+16 -7.5867522e+16)
(-4.7584139e+17 1.5667963e+16 -7.8463308e+16)
(-4.7661526e+17 9.0190478e+15 -7.8454722e+16)
(-3.9783113e+17 7.6938595e+15 -9.1762894e+16)
(-3.9652259e+17 9.7511685e+15 -9.3001326e+16)
(-3.9824746e+17 9.4826731e+15 -9.2087832e+16)
(-4.770777e+17 1.4594511e+16 -7.8513321e+16)
(-4.7666727e+17 8.154658e+15 -7.8869648e+16)
(-3.9897395e+17 8.0089019e+15 -9.2840525e+16)
(-2.7239184e+17 5.6750037e+15 -8.3484799e+16)
(-2.7573514e+17 6.9987709e+15 -8.2953506e+16)
(-2.3424885e+17 -7.3033148e+14 1.6139167e+16)
(-2.3844659e+17 1.2472516e+16 1.8285934e+16)
(-2.7621942e+17 5.1005102e+15 -8.2664069e+16)
(-2.3613078e+17 -1.6685855e+14 1.6227291e+16)
(-2.7664527e+17 7.9091404e+15 -8.404461e+16)
(-2.3648116e+17 1.4520803e+16 1.4267382e+16)
(-3.6775508e+17 4.2871301e+15 4.7585737e+16)
(-3.6811807e+17 5.3891654e+15 4.5739093e+16)
(-4.7185065e+17 7.1237664e+15 5.5586701e+16)
(-4.711136e+17 1.2505687e+16 5.6471128e+16)
(-4.7033513e+17 1.0800148e+16 5.2103757e+16)
(-3.6667623e+17 5.1706682e+15 4.3994628e+16)
(-3.6578657e+17 8.6920683e+15 4.4480899e+16)
(-4.6837414e+17 6.9513236e+15 5.2354438e+16)
(-4.7241348e+17 1.4310567e+16 5.5311899e+16)
(-3.6887957e+17 7.1386236e+15 4.7188802e+16)
(-3.674924e+17 9.2877341e+15 4.4918592e+16)
(-4.7198665e+17 9.8542508e+15 5.4224522e+16)
(-3.6804061e+17 8.8597359e+15 4.5921989e+16)
(-3.6664593e+17 1.0498617e+16 4.6188146e+16)
(-4.6983908e+17 1.3252465e+16 5.4173594e+16)
(-4.6753837e+17 8.0186407e+15 5.4529357e+16)
(-3.6696157e+17 5.7538401e+15 4.4548932e+16)
(-3.6901962e+17 3.6923187e+15 4.7836523e+16)
(-4.7291701e+17 1.1450475e+16 5.6136511e+16)
(-4.7159864e+17 6.5800511e+15 5.4254826e+16)
(-4.7076195e+17 9.8708553e+15 5.4193809e+16)
(-3.6740767e+17 5.5093767e+15 4.5189818e+16)
(-3.6498414e+17 6.8433829e+15 4.5101873e+16)
(-4.6828426e+17 5.0447584e+15 5.436413e+16)
(-3.6841503e+17 2.8543935e+15 4.9085862e+16)
(-3.687311e+17 3.3029387e+15 4.7290557e+16)
(-4.7184683e+17 1.1699327e+16 5.8906226e+16)
(-4.7277942e+17 5.433349e+15 5.8134142e+16)
(-3.6700119e+17 2.3260353e+15 4.5413356e+16)
(-3.6700336e+17 5.7219992e+15 4.6332419e+16)
(-4.7111018e+17 8.3577196e+15 5.4540633e+16)
(-4.6983008e+17 4.1725143e+15 5.5023686e+16)
(-5.4048943e+17 1.5519148e+16 -2.740868e+16)
(-5.3867731e+17 1.4842799e+16 -3.3705128e+16)
(-5.5374435e+17 1.6961742e+16 4.2167066e+16)
(-5.2841076e+17 7.8312662e+15 1.3827859e+16)
(-5.3136181e+17 1.3291074e+16 1.667225e+16)
(-5.5150293e+17 7.9301772e+15 3.9371053e+16)
(-5.2729558e+17 8.9978295e+15 1.3693711e+16)
(-5.2961753e+17 1.3445463e+16 1.3954071e+16)
(-5.5042358e+17 7.9636572e+15 3.8806244e+16)
(-5.5409696e+17 1.5723328e+16 3.9274208e+16)
(-5.3806394e+17 1.3896288e+16 3.4162474e+15)
(-5.2122115e+17 1.2297484e+16 -1.1340804e+16)
(-5.1866959e+17 1.0653241e+16 -1.1736608e+16)
(-5.355228e+17 9.6318574e+15 3.2660966e+15)
(-5.4023919e+17 1.4131595e+16 6.1936123e+15)
(-5.1964572e+17 1.0131246e+16 -1.2114326e+16)
(-5.2123669e+17 1.1595868e+16 -9.63583e+15)
(-5.3739898e+17 9.2447278e+15 3.5807164e+15)
(-5.2929532e+17 1.2474658e+16 -1.2626153e+16)
(-5.1949507e+17 1.1994863e+16 -2.329262e+16)
(-5.2131983e+17 1.0866474e+16 -2.0783114e+16)
(-5.2779964e+17 1.1136549e+16 -1.4703859e+16)
(-5.3191189e+17 1.2627687e+16 -2.3091127e+16)
(-5.3321388e+17 1.2228004e+16 -2.0996253e+16)
(-5.2955598e+17 1.1257744e+16 -2.4972786e+16)
(-5.2721301e+17 1.3430958e+16 -2.7856606e+16)
(-6.0550285e+17 2.0220671e+16 -3.1780765e+16)
(-5.2692383e+17 1.2799159e+16 -2.6193752e+16)
(-5.2954755e+17 1.2302936e+16 -2.5714123e+16)
(-5.3373477e+17 1.3144368e+16 -2.1382571e+16)
(-6.1442072e+17 1.7686303e+16 -2.8469334e+16)
(-5.3131338e+17 1.1926321e+16 -2.1543776e+16)
(-5.1970175e+17 1.1535314e+16 -2.1677735e+16)
(-5.218419e+17 1.2024117e+16 -2.1351083e+16)
(-5.2811853e+17 1.3101263e+16 -1.442118e+16)
(-5.2548567e+17 1.1287456e+16 -1.4661953e+16)
(-5.9316924e+17 1.7766457e+16 -4.1135343e+16)
(-5.8850761e+17 1.9837951e+16 -4.3750075e+16)
(-5.2730518e+17 1.3862104e+16 -1.3887932e+16)
(-5.1939025e+17 1.3519534e+16 -2.3083726e+16)
(-5.2021414e+17 1.2276638e+16 -2.1711753e+16)
(-5.2678166e+17 1.2733936e+16 -1.4995475e+16)
(-5.2636881e+17 1.5185511e+16 -2.7695544e+16)
(-5.2756875e+17 1.2574015e+16 -2.6080656e+16)
(-5.3117478e+17 1.4149345e+16 -2.3009419e+16)
(-5.3139753e+17 1.3492992e+16 -2.1970956e+16)
(-6.0643838e+17 2.1206707e+16 -3.1639963e+16)
(-5.2713817e+17 1.4637899e+16 -2.4676143e+16)
(-5.2934788e+17 1.4288032e+16 -2.4712195e+16)
(-5.3412404e+17 1.4912013e+16 -2.0396247e+16)
(-6.1425751e+17 1.9941868e+16 -2.8490919e+16)
(-5.3204756e+17 1.3476709e+16 -2.0209943e+16)
(-5.1982392e+17 1.2488041e+16 -2.0090182e+16)
(-5.2835105e+17 1.4657322e+16 -1.3418324e+16)
(-5.2206952e+17 1.3711917e+16 -2.0144751e+16)
(-5.2574681e+17 1.1966125e+16 -1.333225e+16)
(-5.951669e+17 2.1203933e+16 -4.1351741e+16)
(-5.8697711e+17 2.1158234e+16 -4.393274e+16)
(-5.5126829e+17 1.8198632e+16 3.8862549e+16)
(-5.2758728e+17 1.0710986e+16 1.5441405e+16)
(-5.2959597e+17 1.608514e+16 1.518649e+16)
(-5.4748256e+17 1.0427699e+16 3.911724e+16)
(-5.5170443e+17 1.8084787e+16 3.9363198e+16)
(-5.2806793e+17 1.0432504e+16 1.321219e+16)
(-5.2964219e+17 1.5127487e+16 1.5103448e+16)
(-5.4978608e+17 1.0558293e+16 3.7244136e+16)
(-5.3789612e+17 1.5766971e+16 4.6286051e+15)
(-5.1938469e+17 1.3314849e+16 -1.051365e+16)
(-5.189754e+17 1.19168e+16 -1.2068905e+16)
(-5.3655643e+17 1.1465751e+16 2.952815e+15)
(-5.1867816e+17 1.1172813e+16 -1.0012186e+16)
(-5.2122547e+17 1.4154528e+16 -9.9444707e+15)
(-5.3698188e+17 1.5801496e+16 4.2875575e+15)
(-5.3436219e+17 1.0564707e+16 4.5464618e+15)
(-5.880267e+17 2.3540424e+16 -6.5909147e+16)
(-6.6606639e+17 2.7746518e+16 -2.3254999e+16)
(-5.878745e+17 1.2062954e+16 -6.6824531e+16)
(-6.6662097e+17 1.6616404e+16 -2.500204e+16)
(-5.4527037e+17 2.0151531e+16 -5.3443618e+16)
(-6.0683455e+17 2.1234589e+16 -4.2011025e+16)
(-6.1230281e+17 1.8192251e+16 -3.6509204e+16)
(-5.4989908e+17 1.6013727e+16 -5.2710045e+16)
(-5.4794681e+17 2.0921164e+16 -5.38517e+16)
(-6.0580508e+17 2.1851008e+16 -4.1351524e+16)
(-6.1135218e+17 1.952885e+16 -3.8417803e+16)
(-5.4927462e+17 1.6749009e+16 -5.4839998e+16)
(-4.3560186e+17 8.956002e+15 -8.184094e+15)
(-4.5202341e+17 1.0620358e+16 1.869226e+15)
(-4.3055877e+17 8.6275534e+15 -1.3108322e+16)
(-4.4176823e+17 9.5336073e+15 -9.1368075e+15)
(-4.30219e+17 7.866974e+15 -1.3912953e+16)
(-4.4116379e+17 8.009642e+15 -9.9846933e+15)
(-5.6392626e+17 1.3715415e+16 -6.3390055e+16)
(-6.028719e+17 2.1558476e+16 -2.9650423e+16)
(-6.0891539e+17 1.5022702e+16 -3.1642973e+16)
(-5.3603776e+17 1.5464111e+16 -4.1224419e+16)
(-5.3759378e+17 1.2686214e+16 -4.3329592e+16)
(-5.8187326e+17 2.1750362e+16 -3.764008e+16)
(-5.4572633e+17 2.0884112e+16 -6.1750265e+16)
(-5.4791084e+17 2.0182809e+16 -6.1097745e+16)
(-5.8030952e+17 2.0896462e+16 -4.1158254e+16)
(-5.6211158e+17 1.9338742e+16 -3.4563103e+16)
(-5.5692184e+17 1.9574661e+16 -4.4714754e+16)
(-5.5678209e+17 1.9547503e+16 -4.6671096e+16)
(-5.601373e+17 2.0473959e+16 -3.8225161e+16)
(-5.6230149e+17 1.6307492e+16 -3.6799428e+16)
(-5.5580082e+17 1.6912331e+16 -4.8786641e+16)
(-5.5260623e+17 1.8747901e+16 -4.3682654e+16)
(-5.588508e+17 1.7865049e+16 -3.4642147e+16)
(-5.4566055e+17 1.8474764e+16 -6.4270182e+16)
(-5.7794337e+17 1.7665455e+16 -4.5269002e+16)
(-5.7782239e+17 1.7733347e+16 -3.6350276e+16)
(-5.4297415e+17 1.7130756e+16 -3.4522368e+16)
(-5.4625983e+17 1.5369849e+16 -3.5742319e+16)
(-5.4786086e+17 1.5725671e+16 -2.8970328e+16)
(-5.4216846e+17 1.628704e+16 -2.9467229e+16)
(-5.4658279e+17 1.7735906e+16 -3.3944996e+16)
(-5.4669753e+17 1.8928224e+16 -3.5303072e+16)
(-5.4555242e+17 1.7858558e+16 -2.8366295e+16)
(-5.4511749e+17 1.828323e+16 -2.9768386e+16)
(-5.3483219e+17 1.6447134e+16 -2.637378e+16)
(-5.3439265e+17 1.7138021e+16 -2.8163998e+16)
(-5.3286916e+17 1.5894402e+16 -2.4736972e+16)
(-5.3394776e+17 1.6327777e+16 -2.5229102e+16)
(-5.3543844e+17 1.4539517e+16 -2.8439843e+16)
(-5.3089218e+17 1.5387884e+16 -2.8531455e+16)
(-5.3578388e+17 1.5176056e+16 -2.5437665e+16)
(-5.3126086e+17 1.5075568e+16 -2.55072e+16)
(-4.2841183e+17 8.2951196e+15 -1.5442796e+16)
(-4.3770877e+17 9.3519299e+15 -1.1344604e+16)
(-4.2789934e+17 8.0996551e+15 -1.6224102e+16)
(-4.3724888e+17 8.1381084e+15 -1.2033002e+16)
(-4.329552e+17 8.6907005e+15 -1.8580531e+16)
(-4.2997832e+17 9.4269901e+15 -1.9519688e+16)
(-4.385426e+17 9.2631621e+15 -1.6642319e+16)
(-4.3239899e+17 8.4150516e+15 -1.7119591e+16)
(-4.3828295e+17 8.8749707e+15 -1.5055548e+16)
(-4.3216032e+17 8.6149598e+15 -1.7796294e+16)
(-4.377746e+17 8.5609687e+15 -1.5726752e+16)
(-4.2845812e+17 8.6515379e+15 -1.7052716e+16)
(-4.3879709e+17 9.0895538e+15 -1.8990387e+16)
(-4.433301e+17 9.683119e+15 -1.6728162e+16)
(-4.3608159e+17 9.8672623e+15 -2.0139657e+16)
(-4.403217e+17 9.8213979e+15 -1.7572206e+16)
(-4.3853264e+17 9.0438921e+15 -1.7496038e+16)
(-4.4246939e+17 9.3414523e+15 -1.5444604e+16)
(-4.3809801e+17 9.0006467e+15 -1.8298386e+16)
(-4.4240092e+17 8.993318e+15 -1.5943227e+16)
(-4.52579e+17 1.0156663e+16 -1.7755122e+16)
(-4.5241973e+17 9.5430851e+15 -1.8175783e+16)
(-4.5871643e+17 1.058507e+16 -2.2426051e+16)
(-4.5776831e+17 9.7149029e+15 -2.2848914e+16)
(-4.536838e+17 1.0238982e+16 -1.8771247e+16)
(-4.5056468e+17 1.0603831e+16 -2.002029e+16)
(-4.5564331e+17 1.0809196e+16 -2.4999127e+16)
(-4.5813722e+17 1.0455513e+16 -2.4437565e+16)
(-4.5218251e+17 1.071543e+16 -1.9453836e+16)
(-4.5132694e+17 1.0803066e+16 -1.9619196e+16)
(-4.5767899e+17 1.0954294e+16 -2.4310333e+16)
(-4.5649045e+17 1.0993713e+16 -2.4534997e+16)
(-4.3742695e+17 9.7355613e+15 -1.935086e+16)
(-4.4714421e+17 1.2592233e+16 3.9978826e+16)
(-4.4645008e+17 7.6559331e+15 3.8503755e+16)
(-4.4266661e+17 6.7650041e+15 4.0650732e+16)
(-4.453742e+17 1.288452e+16 4.0262755e+16)
(-4.4563978e+17 1.1105881e+16 4.1312442e+16)
(-4.4593061e+17 5.1048279e+15 3.9796008e+16)
(-4.4524691e+17 1.0900842e+16 3.7989534e+16)
(-4.4298345e+17 6.189873e+15 3.8015526e+16)
(-4.4537736e+17 4.7047433e+15 3.8498467e+16)
(-4.4596371e+17 1.0054472e+16 4.0314822e+16)
(-4.4256087e+17 4.5690806e+15 3.9663943e+16)
(-4.4517422e+17 1.0240544e+16 3.956592e+16)
(-4.4559679e+17 9.9753411e+15 4.2967873e+16)
(-4.4591284e+17 3.0192442e+15 4.1333901e+16)
(-4.4484789e+17 8.3806875e+15 3.9274859e+16)
(-4.4297865e+17 3.295485e+15 3.9476403e+16)
(-6.8796875e+17 2.5287275e+16 -3.3679576e+16)
(-6.8686174e+17 2.8054756e+16 -3.5239879e+16)
(-6.0320557e+17 1.8320097e+16 -6.3013454e+16)
(-4.7938782e+17 7.2144942e+15 -8.0223864e+16)
(-4.7962817e+17 1.5040297e+16 -8.0887926e+16)
(-5.9582548e+17 2.4701177e+16 -3.5768936e+16)
(-6.0291401e+17 1.723328e+16 -3.7884167e+16)
(-6.0197914e+17 1.6049625e+16 -6.2212458e+16)
(-4.7792614e+17 1.551768e+16 -8.0021165e+16)
(-4.7723457e+17 7.807988e+15 -7.9980872e+16)
(-4.1570497e+17 1.0650571e+16 -9.844949e+16)
(-4.1486144e+17 9.3357645e+15 -9.8573523e+16)
(-2.8676316e+17 7.3217515e+15 -8.3412293e+16)
(-2.8608461e+17 5.1882182e+15 -8.4194509e+16)
(-2.0671838e+17 5.6101622e+15 -9.0820342e+16)
(-2.0648517e+17 6.8760075e+15 -8.9478514e+16)
(-1.5768794e+17 9.0442192e+15 -3.2779195e+16)
(-2.2184188e+17 1.216558e+16 2.9712376e+16)
(-1.604344e+17 8.6244639e+15 -2.7330002e+16)
(-2.2539478e+17 5.7850191e+15 3.2014249e+16)
(-1.589096e+17 6.7900511e+15 -2.994607e+16)
(-2.2611496e+17 2.7637433e+15 3.1269049e+16)
(-1.6202442e+17 7.8711107e+15 -2.63961e+16)
(-2.2744207e+17 9.9744567e+15 3.2331387e+16)
(-2.8604351e+17 4.9720104e+15 -8.2900071e+16)
(-2.8654612e+17 7.4979017e+15 -8.4150425e+16)
(-2.0580555e+17 6.9176298e+15 -9.1059653e+16)
(-2.06541e+17 5.0461097e+15 -8.888869e+16)
(-4.1676091e+17 9.6020263e+15 -9.9438459e+16)
(-4.1698201e+17 7.9919135e+15 -9.8666349e+16)
(-2.8788803e+17 3.6737177e+15 -8.3927148e+16)
(-2.8830129e+17 6.3928579e+15 -8.5328903e+16)
(-2.068706e+17 5.2337634e+15 -9.2392065e+16)
(-2.0699498e+17 3.0837178e+15 -9.0193666e+16)
(-2.8775095e+17 3.9024971e+15 -8.4316932e+16)
(-2.8811931e+17 6.0271774e+15 -8.3674986e+16)
(-2.0696797e+17 5.2400314e+15 -9.0233234e+16)
(-2.0779912e+17 4.2623613e+15 -9.1269555e+16)
(-1.5998896e+17 4.199652e+15 -3.1589384e+16)
(-1.6279032e+17 4.5658356e+15 -2.7800649e+16)
(-2.2956036e+17 5.2758323e+15 3.2931114e+16)
(-2.2513412e+17 -4.8534263e+14 3.0988109e+16)
(-2.2754625e+17 1.6044143e+15 3.2043812e+16)
(-2.2531465e+17 9.1585238e+15 3.0476237e+16)
(-1.6191218e+17 5.65796e+15 -2.83554e+16)
(-1.5934407e+17 6.6677119e+15 -3.3641087e+16)
(-5.9271469e+17 2.5659078e+16 -3.5669929e+16)
(-6.0214915e+17 1.7719807e+16 -3.8199669e+16)
(-6.0371792e+17 1.5944408e+16 -6.2975282e+16)
(-4.7935373e+17 6.5126461e+15 -8.096929e+16)
(-4.7969892e+17 1.4866383e+16 -8.0762212e+16)
(-6.0193593e+17 1.9042093e+16 -6.3162987e+16)
(-4.7829652e+17 6.9556917e+15 -8.0195694e+16)
(-4.7826472e+17 1.5085901e+16 -8.0680066e+16)
(-4.15037e+17 6.9596677e+15 -9.8451695e+16)
(-4.1376995e+17 8.9338842e+15 -9.9066184e+16)
(-4.1621554e+17 9.2780785e+15 -9.8835961e+16)
(-4.1663412e+17 7.3815221e+15 -9.9394485e+16)
(-2.7309256e+17 7.4747305e+15 -8.3670502e+16)
(-2.034225e+17 4.7226626e+15 -9.2829373e+16)
(-2.8624416e+17 3.062631e+15 -8.3711476e+16)
(-2.8633052e+17 6.0386882e+15 -8.5102888e+16)
(-2.0363887e+17 2.0572081e+15 -9.0807239e+16)
(-2.8686257e+17 2.5708299e+15 -8.4218952e+16)
(-2.8693273e+17 5.0592497e+15 -8.3531277e+16)
(-2.0378632e+17 3.7480197e+15 -9.0978879e+16)
(-2.0471904e+17 1.9889004e+15 -9.2007905e+16)
(-1.5867238e+17 3.5121664e+15 -3.1170167e+16)
(-2.2634934e+17 -1.9326873e+15 3.0799473e+16)
(-1.625449e+17 3.1264185e+15 -2.5825376e+16)
(-2.3164295e+17 2.9855978e+15 3.3709468e+16)
(-1.616419e+17 3.681778e+15 -2.6239773e+16)
(-2.2908751e+17 -1.2875796e+15 3.2370676e+16)
(-2.2916288e+17 6.3868015e+15 3.2342325e+16)
(-1.6060361e+17 4.132942e+15 -3.0592233e+16)
(-2.8754981e+17 5.9187738e+15 -8.4536751e+16)
(-2.8789383e+17 3.463381e+15 -8.3596593e+16)
(-2.0457719e+17 4.3592459e+15 -9.220367e+16)
(-2.0616774e+17 2.5553609e+15 -9.0344016e+16)
(-1.5981217e+17 3.494087e+15 -2.9485504e+16)
(-2.2847501e+17 -9.0120172e+14 3.1846243e+16)
(-1.6296099e+17 4.3664305e+15 -2.6991444e+16)
(-2.3026086e+17 6.1107408e+15 3.2693782e+16)
(-2.8899947e+17 3.1466841e+15 -8.5312133e+16)
(-2.889493e+17 5.5546732e+15 -8.4319542e+16)
(-2.0672807e+17 4.4986933e+15 -9.1049133e+16)
(-2.0829339e+17 2.9750255e+15 -9.2399193e+16)
(-1.6191935e+17 5.0526421e+15 -2.8358115e+16)
(-1.5956245e+17 5.0560324e+15 -3.4436827e+16)
(-2.2765571e+17 2.2279074e+15 3.1427804e+16)
(-2.2391838e+17 7.4748229e+15 2.8939266e+16)
(-3.1572622e+17 3.9953496e+15 4.5272646e+16)
(-3.175696e+17 1.2855845e+15 4.833829e+16)
(-4.0815584e+17 8.5327879e+15 5.0471211e+16)
(-4.0777922e+17 4.0680841e+15 4.9219188e+16)
(-3.1672625e+17 5.2475474e+15 4.5978885e+16)
(-3.1502736e+17 1.6860347e+15 4.4775307e+16)
(-4.0822714e+17 6.1836056e+15 4.7417487e+16)
(-4.0827288e+17 2.9573165e+15 4.807931e+16)
(-3.1501881e+17 6.4476385e+14 4.5443506e+16)
(-4.0741943e+17 8.2563189e+15 4.6335106e+16)
(-3.1576267e+17 5.8995651e+15 4.4480338e+16)
(-4.0869378e+17 5.503603e+15 4.746668e+16)
(-4.0582492e+17 8.4597642e+15 4.6679921e+16)
(-3.1313464e+17 4.4190755e+15 4.362624e+16)
(-3.1335793e+17 7.5553349e+15 4.4709595e+16)
(-4.047884e+17 4.8065675e+15 4.6614758e+16)
(-3.1810946e+17 6.1258768e+15 4.5771463e+16)
(-3.1671083e+17 3.5384312e+15 4.6727313e+16)
(-4.0823666e+17 1.0415752e+16 4.8179492e+16)
(-4.0960624e+17 6.250456e+15 4.9222073e+16)
(-3.1471537e+17 8.9319967e+15 4.5137583e+16)
(-3.1509503e+17 4.500177e+15 4.4780997e+16)
(-4.0855958e+17 8.8924082e+15 4.6827727e+16)
(-4.0743644e+17 6.0310434e+15 4.6603848e+16)
(-3.1551734e+17 4.9597527e+15 4.6300285e+16)
(-3.1619723e+17 8.0117923e+15 4.476987e+16)
(-4.0859646e+17 1.1044368e+16 4.8491869e+16)
(-4.0783647e+17 7.6426632e+15 4.7776569e+16)
(-3.145626e+17 6.9084134e+15 4.5425101e+16)
(-3.1358999e+17 8.815151e+15 4.5214617e+16)
(-4.0701783e+17 9.8907841e+15 4.954225e+16)
(-4.0491531e+17 5.6306922e+15 4.8225196e+16)
(-3.1283671e+17 5.5870934e+15 4.4198358e+16)
(-3.1381982e+17 1.2977495e+15 4.3995657e+16)
(-4.0807146e+17 6.3209364e+15 4.6715286e+16)
(-4.0695841e+17 2.8826385e+15 4.6361608e+16)
(-3.1865974e+17 3.6771211e+15 4.5995647e+16)
(-3.1896277e+17 1.0413678e+14 4.7903182e+16)
(-4.0791136e+17 7.4795826e+15 4.8455518e+16)
(-4.1007648e+17 3.696877e+15 4.9544053e+16)
(-3.1485105e+17 1.1588636e+15 4.5977597e+16)
(-3.1599913e+17 5.6223513e+15 4.508832e+16)
(-4.0841161e+17 8.0316198e+15 4.8089714e+16)
(-4.0869377e+17 5.0574183e+15 4.8352502e+16)
(-3.1423572e+17 5.1913111e+15 4.6044201e+16)
(-3.1293327e+17 3.5271411e+15 4.4198482e+16)
(-4.0585212e+17 7.4897656e+15 4.8071168e+16)
(-4.0490166e+17 2.8724552e+15 4.818995e+16)
(-3.1808632e+17 1.9882256e+15 4.6861738e+16)
(-3.1707727e+17 -1.36384e+14 4.819742e+16)
(-4.0750346e+17 7.2862683e+15 5.0347803e+16)
(-4.0932493e+17 2.6245706e+15 5.1406742e+16)
(-4.0902794e+17 4.3719712e+15 4.8677977e+16)
(-3.160625e+17 -4.8273872e+14 4.5778975e+16)
(-3.1469208e+17 2.7512264e+15 4.5643705e+16)
(-4.0832471e+17 7.8656723e+14 4.8256807e+16)
(-3.1518314e+17 2.7120595e+15 4.4585401e+16)
(-3.1477275e+17 -2.0296464e+15 4.6519538e+16)
(-4.0842393e+17 5.6700225e+15 4.8335248e+16)
(-4.0788893e+17 2.8344625e+15 4.7320988e+16)
(-3.1268816e+17 4.7639164e+15 4.472855e+16)
(-3.1360814e+17 6.3569803e+14 4.4838514e+16)
(-4.0732822e+17 5.5445721e+15 4.8776964e+16)
(-4.0542692e+17 1.7550256e+15 4.7539986e+16)
(-6.463262e+17 1.906983e+16 -6.396299e+16)
(-4.784545e+17 1.2659828e+16 -2.2825219e+16)
(-4.7499687e+17 1.2449193e+16 -2.5792643e+16)
(-4.7144959e+17 1.1894114e+16 -2.8410748e+16)
(-4.7525297e+17 1.1743421e+16 -2.4510692e+16)
(-4.8654659e+17 1.3081449e+16 -2.648769e+16)
(-4.8686797e+17 1.3245158e+16 -2.7707982e+16)
(-4.8274209e+17 1.2920079e+16 -2.8995139e+16)
(-5.2696162e+17 1.1277907e+16 -2.5299495e+16)
(-6.1380383e+17 1.485606e+16 -2.7896252e+16)
(-5.3106822e+17 1.0319122e+16 -2.0616626e+16)
(-5.1914286e+17 1.0041966e+16 -2.0641735e+16)
(-5.9329689e+17 1.5830527e+16 -3.9949423e+16)
(-6.7385623e+17 1.8218336e+16 -2.4043115e+16)
(-5.8784963e+17 2.2892009e+16 -6.4024758e+16)
(-5.8982593e+17 1.3876043e+16 -6.6040854e+16)
(-6.1024931e+17 1.5049909e+16 -3.8479163e+16)
(-5.5065554e+17 1.3813366e+16 -5.3612617e+16)
(-4.5358466e+17 9.1103718e+15 3.0892858e+16)
(-4.7225608e+17 1.1394292e+16 4.7832101e+16)
(-4.5335219e+17 2.8700201e+15 2.9216714e+16)
(-4.728265e+17 3.9412785e+15 4.6479096e+16)
(-4.4749413e+17 7.2230892e+15 4.4659078e+15)
(-4.4511933e+17 4.5555688e+15 4.0176105e+15)
(-4.6394838e+17 7.9496046e+15 1.8314798e+16)
(-4.6197795e+17 3.8910696e+15 1.8201044e+16)
(-4.4885801e+17 7.9164323e+15 7.1074765e+15)
(-4.6571252e+17 9.5732194e+15 2.1547416e+16)
(-4.4887192e+17 4.0274728e+15 5.8960345e+15)
(-4.6555689e+17 4.1482192e+15 2.0250686e+16)
(-4.5170495e+17 7.9872594e+15 2.7347326e+16)
(-4.7154415e+17 9.0592515e+15 4.4033876e+16)
(-4.5006916e+17 3.2698393e+15 2.7332506e+16)
(-4.6970862e+17 3.1985154e+15 4.425811e+16)
(-4.4805145e+17 8.6756939e+15 4.6377787e+15)
(-4.4558473e+17 5.7071022e+15 4.473767e+15)
(-4.6409703e+17 9.4958406e+15 1.8293875e+16)
(-4.6220401e+17 5.1708607e+15 1.8518049e+16)
(-4.4842747e+17 8.1100947e+15 4.8671161e+15)
(-4.6551869e+17 9.6099524e+15 1.8972356e+16)
(-4.4852754e+17 5.3672808e+15 4.0489372e+15)
(-4.6546622e+17 5.4056447e+15 1.8086464e+16)
(-4.5193764e+17 9.8047603e+15 2.7563229e+16)
(-4.5005598e+17 4.5967706e+15 2.7899507e+16)
(-4.7167847e+17 1.0541898e+16 4.4138937e+16)
(-4.692435e+17 4.2916532e+15 4.4618934e+16)
(-4.7251328e+17 1.1124734e+16 4.4734623e+16)
(-4.5328069e+17 9.2788477e+15 2.8013586e+16)
(-4.528716e+17 4.4384858e+15 2.6802819e+16)
(-4.7234188e+17 5.1223946e+15 4.352801e+16)
(-4.3704698e+17 7.3318448e+15 -8.8415904e+15)
(-4.5332873e+17 8.5895488e+15 8.1136534e+14)
(-4.3699066e+17 6.042654e+15 -9.5816671e+15)
(-4.5350285e+17 6.027815e+15 1.7389314e+14)
(-4.3193972e+17 7.2207602e+15 -1.3431031e+16)
(-4.3217219e+17 6.4429183e+15 -1.4033514e+16)
(-4.4294124e+17 7.9287742e+15 -9.8812245e+15)
(-4.4301794e+17 6.5615745e+15 -1.048153e+16)
(-4.3191284e+17 7.5255493e+15 -1.3528558e+16)
(-4.2934071e+17 6.8383695e+15 -1.4063018e+16)
(-4.4263972e+17 8.091365e+15 -1.01382e+16)
(-4.4007711e+17 6.7831168e+15 -1.0455187e+16)
(-4.365522e+17 7.8430375e+15 -8.9912273e+15)
(-4.3425686e+17 6.43598e+15 -9.3393507e+15)
(-4.5271157e+17 8.8293155e+15 4.5695159e+14)
(-4.5022447e+17 6.1848512e+15 2.8282767e+14)
(-4.3738193e+17 6.8436193e+15 -7.0087374e+15)
(-4.5383841e+17 8.3828505e+15 2.9371549e+15)
(-4.3712248e+17 4.8637067e+15 -8.1198898e+15)
(-4.5375165e+17 4.9066091e+15 1.9086786e+15)
(-4.3096023e+17 6.534441e+15 -1.3906063e+16)
(-4.2832266e+17 6.1012636e+15 -1.4757031e+16)
(-4.4184034e+17 7.1146393e+15 -1.0271964e+16)
(-4.3949924e+17 5.9191704e+15 -1.0881432e+16)
(-4.3213345e+17 6.6936717e+15 -1.1633897e+16)
(-4.4359351e+17 7.522937e+15 -7.8442101e+15)
(-4.3208317e+17 5.4154405e+15 -1.2680118e+16)
(-4.4331143e+17 5.5004258e+15 -8.8696455e+15)
(-4.3573259e+17 6.6390309e+15 -9.2460258e+15)
(-4.3352004e+17 5.4454446e+15 -9.8785036e+15)
(-4.5218461e+17 7.622144e+15 3.6348597e+14)
(-4.4976848e+17 5.1590702e+15 -1.2219067e+14)
(-4.2957325e+17 6.4051276e+15 -1.3777888e+16)
(-4.3928147e+17 7.4508925e+15 -9.6756237e+15)
(-4.2946591e+17 5.6737729e+15 -1.4931341e+16)
(-4.3918401e+17 5.6772496e+15 -1.0652994e+16)
(-4.3248782e+17 6.2415212e+15 -1.7810998e+16)
(-4.2975227e+17 7.1594238e+15 -1.9020143e+16)
(-4.3835124e+17 6.9441305e+15 -1.5780585e+16)
(-4.3566504e+17 7.0691693e+15 -1.6707069e+16)
(-4.333221e+17 6.453851e+15 -1.5248277e+16)
(-4.3948385e+17 7.0219835e+15 -1.3329282e+16)
(-4.335557e+17 6.0916636e+15 -1.650185e+16)
(-4.3935205e+17 6.1069881e+15 -1.4429603e+16)
(-4.2829969e+17 6.3550499e+15 -1.6118758e+16)
(-4.2573901e+17 6.5849867e+15 -1.7109832e+16)
(-4.3802552e+17 7.312832e+15 -1.2135523e+16)
(-4.3536314e+17 6.4154671e+15 -1.291924e+16)
(-4.3808657e+17 6.3302934e+15 -1.8537311e+16)
(-4.4282751e+17 7.1084333e+15 -1.6136562e+16)
(-4.3548576e+17 7.577115e+15 -2.0016548e+16)
(-4.4000856e+17 7.4895366e+15 -1.7280566e+16)
(-4.3912154e+17 6.7379534e+15 -1.5454964e+16)
(-4.4367511e+17 7.2341516e+15 -1.3481852e+16)
(-4.3936692e+17 6.1800943e+15 -1.7045762e+16)
(-4.4390551e+17 6.3085097e+15 -1.4686375e+16)
(-4.5409081e+17 7.8074228e+15 -1.51688e+16)
(-4.5415522e+17 6.5636528e+15 -1.6734744e+16)
(-4.5906968e+17 8.0737839e+15 -2.0261265e+16)
(-5.3984472e+17 1.2816888e+16 -2.2516086e+16)
(-4.5936217e+17 6.7450935e+15 -2.1835775e+16)
(-4.5310744e+17 7.4378056e+15 -1.8247681e+16)
(-4.5006047e+17 8.149362e+15 -1.9796574e+16)
(-5.3701632e+17 1.4283004e+16 -2.5498905e+16)
(-4.5481867e+17 8.3531484e+15 -2.5021684e+16)
(-4.5757542e+17 7.4843984e+15 -2.3488072e+16)
(-5.3684339e+17 1.2283643e+16 -2.7212723e+16)
(-5.3467469e+17 1.5036449e+16 -3.0444883e+16)
(-4.5360746e+17 8.4437576e+15 -1.6944743e+16)