/*--------------------------------*- C++ -*----------------------------------*\
  =========                 |
  \\      /  F ield         | OpenFOAM: The Open Source CFD Toolbox
   \\    /   O peration     | Website:  https://openfoam.org
    \\  /    A nd           | Version:  7
     \\/     M anipulation  |
\*---------------------------------------------------------------------------*/
FoamFile
{
    version     2.0;
    format      ascii;
    class       volScalarField;
    location    "0";
    object      magU;
}
// * * * * * * * * * * * * * * * * * * * * * * * * * * * * * * * * * * * * * //

dimensions      [0 1 -1 0 0 0 0];

internalField   uniform 0;

boundaryField
{
    frontAndBack
    {
        type            calculated;
        value           uniform 0;
    }
    inlet
    {
        type            calculated;
        value           nonuniform 0();
    }
    outlet
    {
        type            calculated;
        value           nonuniform 0();
    }
    solidWall
    {
        type            calculated;
        value           uniform 0;
    }
    procBoundary11to1
    {
        type            processor;
        value           uniform 0;
    }
    procBoundary11to8
    {
        type            processor;
        value           uniform 0;
    }
    procBoundary11to10
    {
        type            processor;
        value           uniform 0;
    }
    procBoundary11to13
    {
        type            processor;
        value           uniform 0;
    }
    procBoundary11to14
    {
        type            processor;
        value           uniform 0;
    }
}


// ************************************************************************* //
