/*--------------------------------*- C++ -*----------------------------------*\
  =========                 |
  \\      /  F ield         | OpenFOAM: The Open Source CFD Toolbox
   \\    /   O peration     | Website:  https://openfoam.org
    \\  /    A nd           | Version:  7
     \\/     M anipulation  |
\*---------------------------------------------------------------------------*/
FoamFile
{
    version     2.0;
    format      ascii;
    class       surfaceScalarField;
    location    "0";
    object      phi;
}
// * * * * * * * * * * * * * * * * * * * * * * * * * * * * * * * * * * * * * //

dimensions      [0 3 -1 0 0 0 0];

internalField   nonuniform List<scalar> 
101024
(
-1.7680603e-07
-7.159589e-06
0.00022810727
0.00022907506
0.0002427639
0.00024349981
3.0457114e-06
-5.7328427e-06
-2.8757379e-06
5.339045e-05
5.946325e-05
6.2623271e-05
5.5250408e-05
0.00019872737
-2.7067967e-06
-1.26183e-05
-1.3047932e-05
0.00024963297
-2.701412e-06
1.1680483e-05
1.096041e-05
1.7184816e-05
0.00082259399
-4.289124e-06
5.4142335e-05
-5.0047931e-05
-4.9422749e-05
5.4792161e-05
-6.918875e-06
0.00022952197
0.00023049421
0.00022993944
0.00023093083
-2.7896622e-06
5.5107261e-05
5.6910799e-05
5.3711285e-05
5.55019e-05
-2.2744775e-07
0.00022821509
0.00022890524
0.00024284793
0.00024337739
1.9101894e-06
3.0845223e-06
-5.766512e-06
-2.0281081e-06
5.3472379e-05
5.5248838e-05
6.2640743e-05
5.9545207e-05
3.0279469e-06
-5.7560971e-06
5.4998905e-05
5.3689352e-05
6.2436979e-05
5.971229e-05
1.5961557e-06
0.00019888592
-1.9268593e-06
0.00019886026
1.7423462e-06
-6.6533258e-08
-3.2404027e-06
-6.9559549e-07
1.3149772e-05
1.5322669e-05
1.2693639e-05
1.4484599e-05
-9.37673e-08
4.936358e-05
-6.8252224e-07
-1.6083473e-06
5.0283255e-05
-3.2668907e-06
1.3122789e-05
1.2847332e-05
1.5317941e-05
1.4724772e-05
-0.00019930937
-2.1035864e-06
-1.3160331e-05
1.3874343e-05
-1.3181048e-05
1.4610856e-05
-2.3740368e-06
-1.4498558e-05
1.2863817e-05
-1.4747955e-05
1.340514e-05
-1.8225942e-06
-1.3280144e-05
-1.2409926e-05
0.00024982981
1.1411896e-05
1.123345e-05
-1.3105541e-05
-1.2607237e-05
0.00024996503
1.1004934e-05
1.1644835e-05
-1.9615328e-06
-4.7220711e-05
-4.6696319e-05
0.00080545094
4.8680742e-05
-4.6388056e-06
4.8010312e-05
5.2496093e-05
5.315475e-05
-4.6213394e-05
-4.6877394e-05
-4.638176e-07
-3.8356202e-06
-3.6161906e-06
6.4512909e-05
2.2911718e-06
2.283133e-06
-3.7909911e-06
-3.6211796e-06
6.3411423e-05
-6.7180414e-07
2.1826707e-06
2.3499609e-06
0.00082243991
5.4675032e-05
5.4219403e-05
-4.9920595e-05
-4.9487091e-05
-0.00019553499
1.2852619e-06
0.00024830214
-1.3495031e-06
1.4391052e-06
1.2354962e-06
-1.294507e-06
5.9764936e-07
0.00019559656
5.9924158e-07
0.00024832137
1.4378906e-06
0.00022963621
0.00023032954
0.00023005525
0.00023076029
1.9168024e-06
-2.8903064e-06
-2.0291204e-06
6.0798254e-05
5.8556766e-05
5.4634032e-05
5.6320684e-05
-2.8908416e-06
6.0604832e-05
5.6068118e-05
5.4855946e-05
5.8711105e-05
1.8412407e-06
-1.9594131e-06
5.5193752e-05
5.6909324e-05
5.5500867e-05
5.3796845e-05
5.6652201e-05
5.5421124e-05
5.401783e-05
5.5244285e-05
4.1108214e-06
-1.797664e-06
-6.6515435e-07
5.2934102e-05
-7.1074935e-07
5.0436378e-05
-2.5960011e-08
2.061561e-07
-7.0988861e-07
1.4266483e-05
1.3692302e-05
1.2724964e-05
1.31555e-05
2.074582e-07
1.4240447e-05
1.3119376e-05
-3.2807325e-08
-6.7531074e-07
1.2673563e-05
1.310357e-05
1.2587966e-05
1.3020057e-05
1.3067434e-05
1.2985717e-05
1.2731246e-05
1.3583101e-06
3.0955297e-06
-5.7786637e-06
5.5234461e-05
5.351717e-05
5.9587335e-05
6.2636901e-05
3.0605214e-06
-5.7753114e-06
5.3679062e-05
5.9715108e-05
5.5059791e-05
6.249619e-05
1.1394167e-06
0.0001989525
-1.3690837e-06
0.00019895415
-2.3784682e-07
1.7495826e-06
-3.2501779e-06
-4.9726139e-07
1.2716056e-05
1.3153099e-05
1.4507695e-05
1.5331306e-05
1.6222774e-06
5.8711685e-07
-3.2796397e-06
1.3149026e-05
1.2851717e-05
1.5345629e-05
1.4734877e-05
2.3928302e-07
5.7400427e-07
5.0344174e-05
4.9416676e-05
-4.8982087e-07
1.1668916e-06
1.6305479e-06
-3.2770981e-06
1.279138e-05
1.3202782e-05
1.4685071e-05
1.5386474e-05
1.7334527e-06
-3.2440874e-06
1.3086783e-05
1.276539e-05
1.4543856e-05
1.5275236e-05
1.0391026e-06
5.0322293e-05
4.9392376e-05
1.0900734e-06
4.8157771e-08
1.3592664e-07
-1.7757957e-06
3.1156898e-06
3.0487139e-06
3.8168325e-06
3.6701923e-06
4.6371858e-08
1.3641172e-07
1.2438964e-05
1.1093304e-06
-1.7516004e-06
-1.702469e-07
3.0130417e-06
3.1196383e-06
3.6068339e-06
3.8148092e-06
1.2185908e-05
-1.6679765e-07
2.805172e-07
1.0905309e-06
-1.7770366e-06
3.0347757e-06
3.133772e-06
3.6590967e-06
3.8370942e-06
1.1054502e-06
-1.7586478e-06
3.8098268e-06
3.104303e-06
3.032761e-06
3.6313197e-06
2.4623194e-07
1.2463035e-05
1.2261677e-05
-4.1321135e-06
-5.2772967e-05
5.2983515e-05
5.3583741e-05
5.1232964e-05
-5.1902111e-05
-5.1273789e-05
5.1823007e-05
-5.341943e-05
-0.00019964266
1.4563672e-06
-1.6268848e-06
1.3924215e-05
1.4613503e-05
-1.3234869e-05
-1.3155906e-05
1.6323556e-06
-1.7758015e-06
1.2914039e-05
-1.4490209e-05
-1.4814744e-05
1.3388072e-05
-0.00019948486
-1.2935679e-05
1.4104397e-05
1.441251e-05
-1.3428288e-05
-1.4255698e-05
-1.5029922e-05
1.3160781e-05
1.3125461e-05
5.0705953e-05
4.4251528e-07
-6.4600066e-05
-5.5357011e-07
-3.2193816e-06
3.7535601e-06
3.6051905e-06
-3.294559e-06
3.9609889e-07
-5.0975e-07
-3.1030398e-06
-3.0831234e-06
3.6491245e-06
3.8448693e-06
5.1320318e-05
-6.5573346e-05
-3.3500468e-06
3.7046454e-06
3.7082886e-06
-3.1743149e-06
-3.0487814e-06
-3.1661801e-06
5.1440611e-05
5.5387612e-07
-6.14969e-07
-4.2336409e-06
2.8849075e-06
3.0267153e-06
-4.144705e-06
5.1205709e-07
-5.8775374e-07
3.6046781e-06
-3.6023088e-06
3.3999204e-06
-3.6222946e-06
5.2068864e-05
2.9620166e-06
-4.3081703e-06
-4.104512e-06
2.9821211e-06
-3.5718736e-06
3.5328748e-06
-3.7070213e-06
3.4815916e-06
6.0221202e-07
-5.7219304e-07
-3.6775037e-06
-3.7886333e-06
6.4594526e-05
2.3589362e-06
2.2167771e-06
-3.5688238e-06
-3.8466127e-06
6.3438556e-05
2.2495589e-06
2.2834945e-06
3.0568108e-07
-3.6192341e-06
-3.8049471e-06
6.3493698e-05
2.3417461e-06
-4.8870015e-07
2.1933095e-06
-3.8349778e-06
-3.6324203e-06
6.4613126e-05
2.2739127e-06
2.302816e-06
-1.3238785e-06
-1.2452653e-05
-1.3267177e-05
0.0002500627
1.1203639e-05
1.1450429e-05
-4.6780998e-05
0.00080573128
4.8587268e-05
5.2598685e-05
-4.6782044e-05
-4.6309646e-05
5.3073154e-05
-1.2591779e-05
-1.3138127e-05
0.00025013024
-1.4183735e-06
1.1619454e-05
1.1037282e-05
1.2769578e-06
-0.00020015177
0.00025172649
-1.3695905e-06
1.0138916e-06
-0.00020012927
0.00025166354
1.0146426e-06
-1.3015404e-06
1.351598e-06
-1.3808227e-06
1.352342e-06
1.6179769e-07
-1.6580255e-07
-1.1570329e-06
-1.1943787e-06
1.6346477e-05
3.6413694e-07
3.9898648e-07
-1.2100945e-06
-1.1281038e-06
1.609271e-05
3.7774767e-07
3.7787734e-07
1.0934963e-07
-1.138502e-06
-1.1937765e-06
1.6006248e-05
-1.6603069e-07
3.5748716e-07
3.9376909e-07
-1.2043493e-06
-1.1445589e-06
1.6320271e-05
3.7963151e-07
3.8146295e-07
-9.0184352e-07
-0.00019549662
0.00024828295
1.4406452e-06
-0.00019544242
0.00024825503
1.4412682e-06
8.5518274e-07
6.0033829e-07
6.0226775e-07
-0.00018146439
1.1965278e-06
0.00018263241
-1.0046082e-06
7.8894383e-08
1.1565244e-06
-9.6503583e-07
5.3203164e-08
0.00018151107
5.2736584e-08
0.00018264358
7.7971447e-08
1.3605229e-06
-2.8899302e-06
5.8597427e-05
6.0795405e-05
5.6307534e-05
5.468113e-05
-2.8909745e-06
6.0662067e-05
5.8715542e-05
5.4846338e-05
5.6131338e-05
1.3061259e-06
5.5240807e-05
5.6894716e-05
5.384314e-05
5.5486427e-05
5.6715426e-05
5.5409909e-05
5.5307552e-05
5.4007824e-05
2.8478382e-07
-4.1063933e-06
5.9996406e-07
1.3252945e-05
5.07669e-05
-4.1164887e-06
1.2975805e-05
-5.0818569e-07
5.0490363e-05
-1.9851137e-07
-1.7992874e-06
-4.7419399e-07
5.2989498e-05
5.5901708e-07
-1.77855e-06
5.323527e-05
-4.1089043e-06
1.1340741e-06
1.3429568e-05
5.0749997e-05
1.0815727e-06
-1.7849731e-06
5.3221588e-05
4.1100613e-06
-1.7905473e-06
5.2952802e-05
1.2786578e-05
5.0457935e-05
-2.0225348e-07
2.0857414e-07
-5.0571237e-07
1.371355e-05
1.427364e-05
1.3158678e-05
1.2747971e-05
2.1063819e-07
5.9632848e-07
1.3146141e-05
1.4265706e-05
1.3838733e-05
1.287092e-05
1.9991679e-07
5.6885418e-07
1.2821061e-05
1.3012687e-05
1.2735622e-05
1.3093721e-05
-4.8143229e-07
1.2696317e-05
1.3106071e-05
1.2610924e-05
1.3023295e-05
1.1459002e-06
2.1014409e-07
1.3792777e-05
1.4304834e-05
1.280889e-05
1.3200983e-05
2.0771772e-07
1.309123e-05
1.4220899e-05
1.3747709e-05
1.2798992e-05
-1.0973571e-06
1.3037825e-05
1.2749021e-05
1.2955289e-05
1.2661364e-05
1.275752e-05
1.3149523e-05
1.2673942e-05
1.3067858e-05
3.5169794e-06
-3.6068703e-06
-3.5293332e-06
-5.9207943e-07
5.3023756e-05
1.7678295e-06
1.8249419e-06
-6.7857681e-07
6.5187599e-05
5.7453298e-08
-1.3206659e-06
1.4318197e-07
1.1779619e-05
-1.3175856e-06
-1.7235519e-07
1.1710337e-05
-3.1073807e-08
-4.9506055e-07
-1.6351836e-07
1.2096995e-05
1.3849875e-07
-4.9065436e-07
1.2155901e-05
-1.3240847e-06
1.1784442e-05
-4.9256798e-07
1.2163526e-05
-2.5305419e-08
3.796847e-07
-1.7547038e-07
3.0825117e-06
3.2136405e-06
2.8995792e-06
2.8038603e-06
3.844079e-07
1.4847089e-07
2.8929832e-06
3.115655e-06
3.2088321e-06
2.8372634e-06
-2.8482863e-08
-1.6432047e-07
2.8993056e-06
2.9997746e-06
2.7082373e-06
2.8015564e-06
1.366761e-07
2.7953662e-06
2.993844e-06
2.7412629e-06
2.9330555e-06
3.8576652e-07
3.1046976e-06
3.2238226e-06
2.8216006e-06
2.9117953e-06
2.5989222e-07
2.7257781e-06
2.9186263e-06
2.8143367e-06
3.0125097e-06
2.7856633e-06
2.9840662e-06
0.00019898359
3.5759798e-07
1.6277685e-06
4.2168512e-07
-3.2842568e-06
1.3163513e-05
1.536008e-05
1.2850959e-05
1.4737084e-05
1.7515675e-06
-3.2538481e-06
-3.5621834e-07
1.3151827e-05
1.5332861e-05
1.2728609e-05
1.451996e-05
-3.4200674e-07
4.9440605e-05
-3.5148354e-07
4.1336414e-07
5.0371144e-05
1.7419075e-06
-1.0257667e-06
-3.2515503e-06
1.310621e-05
1.2766689e-05
1.529519e-05
1.4549147e-05
-9.1829577e-07
4.943281e-05
1.6344851e-06
-3.283159e-06
1.2808086e-05
1.4701951e-05
1.3203419e-05
1.5390947e-05
5.0358605e-05
-8.7362703e-08
1.1116034e-06
-1.7552397e-06
-1.2272477e-07
3.0187397e-06
3.1207396e-06
3.6129089e-06
3.8174238e-06
1.0935619e-06
8.3805385e-08
-1.7799382e-06
3.1219034e-06
3.0499219e-06
3.8235918e-06
3.672901e-06
-7.9735289e-08
1.2200288e-05
-1.2049652e-07
8.6029702e-08
1.2454143e-05
2.3747434e-07
1.0935592e-06
-1.7817594e-06
3.6663097e-06
3.0414124e-06
3.1353654e-06
3.8404941e-06
1.109873e-06
1.447196e-07
-1.7639036e-06
3.1115378e-06
3.0344223e-06
3.6347432e-06
3.8178105e-06
2.0959142e-07
1.2480651e-05
1.4216942e-07
1.2279741e-05
-8.9320841e-09
1.1121683e-06
-1.7634549e-06
3.0197179e-06
3.1253816e-06
3.8284397e-06
3.6227984e-06
1.0901695e-06
2.0562082e-07
-1.7805662e-06
3.1199651e-06
3.0545473e-06
3.676293e-06
3.8278404e-06
-1.3538941e-08
1.227544e-05
1.9634971e-07
1.247811e-05
3.1686906e-07
1.0945799e-06
-1.7777222e-06
3.0335903e-06
3.1341049e-06
3.8321022e-06
3.6588954e-06
1.1068383e-06
-1.7522681e-06
3.1035091e-06
3.0304323e-06
3.6209879e-06
3.8025109e-06
-2.7630571e-07
1.2191368e-05
1.2443247e-05
6.4426274e-08
5.7813139e-07
-3.0100494e-08
-9.7598935e-07
7.5311551e-07
7.3026833e-07
9.7479912e-07
1.021049e-06
5.7821901e-07
4.137101e-08
-9.6455982e-07
7.4633933e-07
7.2980351e-07
9.6731148e-07
1.0146598e-06
5.4466817e-08
-3.0272116e-08
3.1664203e-06
4.0531364e-08
3.1177862e-06
-1.1753988e-08
5.7667183e-07
-9.5967066e-07
-4.2978722e-08
9.6073826e-07
7.2501742e-07
7.4983937e-07
1.0151767e-06
5.7751805e-07
-9.7475603e-07
7.3351889e-07
7.4859496e-07
1.0156469e-06
9.7726591e-07
-9.1980853e-09
3.0957592e-06
-4.1559821e-08
3.1590788e-06
4.0768103e-09
5.7851996e-07
-9.6466241e-07
7.255034e-07
7.508538e-07
9.6372453e-07
1.0181373e-06
5.7770632e-07
5.7281412e-08
-9.7629512e-07
1.0175441e-06
7.4842157e-07
7.3471391e-07
9.7848587e-07
2.9473852e-09
3.1181684e-06
5.4116347e-08
3.1692547e-06
-5.7806035e-07
6.9873026e-08
3.162037e-06
8.3796714e-08
-9.7499357e-07
7.5292742e-07
7.2881141e-07
9.7362615e-07
1.0193644e-06
5.75961e-07
7.2925344e-07
7.448314e-07
1.0113764e-06
9.6415266e-07
3.0997346e-06
5.3536664e-05
5.1336658e-05
5.1775346e-05
-5.138522e-05
-5.1845585e-05
-5.2891267e-05
0.00019973543
-1.211955e-06
-1.501695e-05
-1.4305852e-05
1.310923e-05
1.3203853e-05
1.1154902e-06
-0.00019981974
-1.2282435e-06
1.3959378e-05
-1.3271447e-05
1.4607414e-05
-1.3145063e-05
1.4454606e-05
-1.2980445e-05
1.4100497e-05
-1.3421114e-05
-0.00019990867
1.1413723e-06
-1.2459418e-06
9.1361924e-08
1.2271363e-06
-1.3195129e-06
8.09821e-09
0.00019983017
6.4347074e-09
9.4625274e-08
-1.3108731e-06
1.294952e-05
-1.4855468e-05
-1.4475591e-05
1.3371545e-05
3.0636577e-07
-5.0792781e-05
-3.9835707e-07
3.8460772e-06
3.6613958e-06
-3.0820845e-06
-3.114762e-06
-5.1425151e-05
4.5110439e-07
3.8085127e-06
3.7349512e-06
-3.1662885e-06
-3.0618155e-06
-3.345641e-07
-6.5698793e-05
4.8347788e-07
-3.3493204e-06
3.7229056e-06
3.7047524e-06
-3.1884906e-06
-6.4704544e-05
-4.2408136e-07
3.7528216e-06
3.6180322e-06
-3.2178698e-06
-3.3075702e-06
-5.1516433e-05
3.8988051e-07
-4.418876e-07
3.412518e-06
3.6022612e-06
-3.6367987e-06
-3.6000777e-06
4.154142e-07
-4.5440866e-07
-4.1424073e-06
3.0212504e-06
2.8970496e-06
-4.2498523e-06
5.2162341e-05
5.2868646e-07
-4.3066572e-06
2.9764546e-06
2.9756423e-06
-4.1227184e-06
5.0934179e-07
-3.7058495e-06
3.4793187e-06
3.5470656e-06
-3.5884412e-06
5.0729643e-05
-4.3035944e-07
-6.4632304e-05
3.665092e-06
3.6970972e-06
-3.3553269e-06
-3.1631281e-06
-4.0638032e-07
-3.0283641e-06
-3.1602945e-06
3.7946067e-06
3.7034577e-06
-5.1408351e-05
-3.1105793e-06
3.8532336e-06
3.6868818e-06
-3.1162808e-06
-6.56739e-05
-3.2377962e-06
3.7725088e-06
3.6523998e-06
-3.2967058e-06
-4.2306632e-07
5.1461862e-05
2.9512236e-06
2.962009e-06
-4.3025011e-06
-4.0816853e-06
5.2146893e-05
3.0305542e-06
2.9190567e-06
-4.177414e-06
-4.2488738e-06
4.1184565e-07
-3.642453e-06
3.4259462e-06
3.5979448e-06
-3.6502124e-06
-3.6876556e-06
3.5458138e-06
3.4613909e-06
-3.54048e-06
1.278445e-05
1.1281725e-07
-1.6306288e-05
-1.3758496e-07
9.3207552e-07
-7.7910287e-07
9.7079872e-07
-7.9654803e-07
-1.0795215e-07
-1.2967936e-05
1.6332272e-05
1.3792811e-07
9.6072585e-07
9.4447856e-07
-7.868566e-07
-7.5913308e-07
1.6047696e-05
-1.3567573e-07
9.246071e-07
-7.6379281e-07
9.7593263e-07
-7.6708684e-07
1.4532959e-07
-1.6623485e-05
9.580744e-07
-8.1311368e-07
9.5577199e-07
-7.722666e-07
-9.7974423e-08
1.2795119e-05
1.3891309e-07
9.6659669e-07
-7.8884087e-07
9.6392685e-07
-7.4852989e-07
1.2616724e-05
-1.3150788e-07
9.3892676e-07
-7.5748208e-07
9.7595737e-07
-7.7603355e-07
8.9784794e-08
-1.2404727e-07
-6.7363428e-07
-6.7688181e-07
9.6845584e-07
1.0186277e-06
-6.9272566e-07
-6.6685266e-07
9.9004056e-07
1.0077042e-06
1.2984777e-05
1.1837654e-07
-1.6638544e-05
9.4083544e-07
9.7505269e-07
-7.8705757e-07
-7.9816582e-07
-1.1468248e-07
-1.2833612e-05
1.6127232e-05
9.6289941e-07
-7.8319246e-07
-7.4921187e-07
1.6354966e-05
9.3045285e-07
-7.7415478e-07
9.7689236e-07
-7.7186638e-07
-1.6377643e-05
9.5730162e-07
9.5032116e-07
-8.1235594e-07
-7.6429608e-07
-1.2030152e-07
9.6290605e-07
-7.9132557e-07
9.4957286e-07
-7.6289845e-07
9.824052e-07
-7.7518976e-07
1.3335108e-05
-1.4159145e-07
1.6782017e-07
5.8673304e-07
5.9541044e-07
-1.2551342e-06
-1.2017447e-06
1.3230136e-07
-1.3147417e-05
1.6616944e-05
-1.5134749e-07
8.0576157e-07
7.5554272e-07
-1.0590855e-06
-1.0678369e-06
1.691005e-05
1.6306348e-07
7.8794837e-07
7.7694453e-07
-1.0898e-06
-1.0541123e-06
-1.5412071e-07
6.0188169e-07
5.7070663e-07
-1.2091761e-06
-1.2367715e-06
-1.0934528e-07
-1.3259647e-05
1.5240201e-07
9.4065426e-07
-8.5017376e-07
9.2683972e-07
-8.1955981e-07
1.3072082e-05
1.1882325e-07
-1.4757343e-07
9.1061619e-07
8.738062e-07
-8.9566255e-07
-9.1747507e-07
-1.4151889e-07
9.033092e-07
-8.2726519e-07
9.5401605e-07
-8.3218282e-07
1.642228e-07
8.9979957e-07
9.0099154e-07
-9.3239674e-07
-8.8569741e-07
-1.335429e-05
1.2453579e-07
1.6934585e-05
7.6010858e-07
8.0589828e-07
-1.0719111e-06
-1.0738793e-06
1.2592981e-07
5.7792854e-07
6.0589821e-07
-1.219214e-06
-1.2387124e-06
1.3203658e-05
5.8618741e-07
5.9100044e-07
-1.2552713e-06
-1.1927704e-06
1.6700755e-05
7.898105e-07
7.7361179e-07
-1.0870706e-06
-1.0438157e-06
-1.3425833e-07
1.3123265e-05
8.9474761e-07
8.9148525e-07
-9.3620056e-07
-8.8151976e-07
-1.3277348e-05
1.2940049e-07
9.1057035e-07
-8.3686081e-07
9.5663498e-07
-8.3567845e-07
8.8365231e-07
9.1681419e-07
-9.0272711e-07
-9.175572e-07
9.3843943e-07
-8.5107792e-07
9.1948238e-07
-8.1325849e-07
-1.0381712e-07
1.6759594e-07
-1.1450506e-06
-1.2091709e-06
1.6364075e-05
3.8254423e-07
3.8084261e-07
-1.4191218e-07
-1.1990249e-06
-1.1438844e-06
1.6117308e-05
3.6125481e-07
3.9463373e-07
-1.5345225e-07
-1.1254133e-06
-1.2072968e-06
1.6009791e-05
3.7724027e-07
3.7400472e-07
-1.1922325e-06
-1.158972e-06
1.6330977e-05
3.6496165e-07
3.9613702e-07
-7.2081189e-08
1.1643753e-07
-1.2044518e-06
-1.1484751e-06
1.6343027e-05
3.8218742e-07
3.7922197e-07
-4.6912859e-07
-3.844505e-06
-3.5807292e-06
6.3506695e-05
2.2934006e-06
2.2419916e-06
-1.1383446e-06
-1.1974398e-06
1.602661e-05
-1.2090153e-07
3.5993135e-07
3.9164548e-07
-1.2075493e-07
-1.1326637e-06
-1.2104701e-06
1.6119709e-05
3.8054373e-07
3.7535807e-07
-1.1571226e-06
-1.1986461e-06
1.637146e-05
3.6680119e-07
3.9664824e-07
-4.1657493e-07
-3.6747046e-06
-3.7990326e-06
6.4652283e-05
2.2258169e-06
2.3520733e-06
-1.2478739e-05
0.00025017513
1.1180769e-05
-0.00020016396
9.2119765e-07
0.00025179854
1.0160908e-06
9.2434525e-07
1.3543109e-06
0.00020016195
1.3547844e-06
0.00025176978
1.0166982e-06
-1.916693e-07
-3.8322307e-06
-3.6416202e-06
6.4660931e-05
2.3111386e-06
2.2674021e-06
-3.8130452e-06
-3.6160112e-06
6.3532876e-05
-3.543174e-07
2.3356899e-06
2.2009679e-06
1.1747055e-06
-0.00018374435
0.00018451029
-1.001458e-06
7.4455954e-08
-0.00018372434
0.00018446503
7.3830215e-08
-1.2004647e-06
5.4359655e-08
-1.0153342e-06
5.5045218e-08
3.4797185e-08
-4.4553047e-08
-3.6600299e-07
-3.8318506e-07
4.1056664e-06
6.3578197e-08
7.1997092e-08
4.9458009e-08
-3.8666643e-07
-3.6669413e-07
4.1696431e-06
6.9231059e-08
6.8059474e-08
4.2303382e-08
-3.7070209e-07
-3.8181304e-07
4.1626329e-06
7.2302983e-08
6.4511697e-08
-3.8584331e-07
-3.6065712e-07
4.0825895e-06
6.6958596e-08
6.770832e-08
2.9330456e-08
-3.6449694e-07
-3.8241606e-07
4.0780118e-06
-4.1594942e-08
6.3103638e-08
7.1295737e-08
3.9849148e-08
-3.8525045e-07
-3.6726452e-07
4.1583184e-06
6.7706499e-08
6.8813437e-08
3.5763061e-08
-3.702781e-07
-3.8327702e-07
4.1666237e-06
6.4704051e-08
7.2359304e-08
-3.6265052e-07
-3.8666282e-07
4.1042391e-06
6.7525859e-08
6.8002262e-08
-8.3950348e-07
-0.00018141896
0.00018261567
7.8697444e-08
-0.00018137673
0.00018259713
7.8777475e-08
8.0115796e-07
5.3113491e-08
5.3336294e-08
-1.4929129e-05
9.8677677e-08
1.4957344e-05
-8.2875188e-08
3.3931474e-08
9.5882613e-08
-8.0008618e-08
2.3720928e-08
1.4933018e-05
2.3813774e-08
1.4958288e-05
3.395678e-08
2.0636187e-06
1.1268565e-05
1.1085228e-05
-1.7558252e-06
0.00022069946
1.10335e-05
1.1312543e-05
0.00022056982
-1.5280383e-05
-1.5004494e-05
-2.115229e-06
1.188091e-05
1.1616644e-05
-3.9441347e-07
-4.1181512e-06
1.2959224e-05
5.0514679e-05
-4.1094532e-06
4.3095685e-07
1.3283607e-05
5.079575e-05
3.1264302e-07
4.0079587e-07
-1.7807565e-06
5.3265305e-05
-1.799396e-06
-3.3920013e-07
5.3014167e-05
1.0047959e-06
-4.1119054e-06
1.3413198e-05
5.0786845e-05
-4.1148396e-06
1.2825688e-05
5.0501228e-05
-9.4665599e-07
-1.7938266e-06
5.2997751e-05
-1.7855687e-06
5.3259117e-05
-3.2431054e-07
2.0945172e-07
-3.6167643e-07
1.3724945e-05
1.2760833e-05
1.3157322e-05
1.4274781e-05
2.1167289e-07
4.2736156e-07
1.4279077e-05
1.3840629e-05
1.3160873e-05
1.2869973e-05
-3.1590905e-07
1.3104356e-05
-3.4440664e-07
1.2623697e-05
1.2709134e-05
1.302186e-05
4.0782916e-07
1.2819629e-05
1.3108292e-05
1.3027448e-05
1.2734722e-05
1.0014989e-06
2.1148563e-07
1.380827e-05
1.430846e-05
1.3201494e-05
1.2825989e-05
2.0936598e-07
1.4239248e-05
1.3752209e-05
1.2800037e-05
1.3110994e-05
9.6028525e-07
1.2774535e-05
1.2690975e-05
1.3149585e-05
1.3068343e-05
1.3057347e-05
1.2749452e-05
1.2662557e-05
1.2975145e-05
-3.1582958e-07
-3.5263465e-06
5.7712074e-07
6.5300368e-05
-3.5233342e-06
-4.9146256e-07
6.5274451e-05
3.4815091e-07
-3.5259148e-06
-3.6189373e-06
-4.2766171e-07
5.3093923e-05
1.7792339e-06
1.817331e-06
5.0286141e-07
-3.648125e-06
-3.5079687e-06
5.3108272e-05
1.7714572e-06
1.8305276e-06
-3.5259626e-06
6.0730176e-07
6.5279154e-05
6.589935e-07
-3.5512274e-06
-3.6025439e-06
5.309229e-05
1.7741773e-06
1.8267345e-06
3.5184272e-06
-3.6608636e-06
-3.4787622e-06
5.304663e-05
1.7599327e-06
1.8342718e-06
6.5217564e-05
-9.3222828e-08
-1.3187747e-06
-1.2392455e-07
1.1723553e-05
-1.3223211e-06
8.9958163e-08
1.1793822e-05
6.886769e-08
8.7984077e-08
-4.9091527e-07
1.2170403e-05
-4.9476278e-07
-1.174751e-07
1.2110289e-05
1.3254757e-06
2.2114468e-07
-4.9209344e-07
1.2179583e-05
2.3259661e-07
1.1800421e-05
-1.3233283e-06
1.4602671e-07
1.1740634e-05
-4.9344023e-07
1.3859144e-07
1.2123571e-05
3.8441222e-07
-2.3085391e-07
1.4885502e-07
3.2086047e-06
3.1006613e-06
2.82537e-06
2.8905674e-06
2.1820698e-07
-3.8758182e-07
-8.6059965e-08
2.7319469e-06
2.8151633e-06
2.9252563e-06
3.0140291e-06
1.3945952e-07
2.7923014e-06
2.9913142e-06
2.7299834e-06
2.9212996e-06
-9.4334111e-08
3.2259674e-06
3.1106399e-06
2.8280319e-06
2.9128868e-06
-6.5933392e-08
3.8106361e-07
-1.2610593e-07
3.0876053e-06
3.2152711e-06
2.809395e-06
2.9002645e-06
3.8610971e-07
3.2144278e-06
3.1173942e-06
2.8989637e-06
2.837994e-06
-6.6351615e-08
-1.1821781e-07
2.7135583e-06
2.8020202e-06
2.9049782e-06
3.0007955e-06
2.8010905e-06
2.7417419e-06
3.0000418e-06
2.9341945e-06
-2.6609164e-08
-1.3240806e-06
1.1738259e-05
-1.3237685e-06
2.0252151e-07
1.1796894e-05
-3.3945389e-09
-4.9511115e-07
1.212189e-05
1.8885281e-07
-4.9019858e-07
1.2175142e-05
1.3227275e-06
2.8771879e-07
-4.9269287e-07
1.2162297e-05
3.0030199e-07
1.1784975e-05
-1.3167129e-06
1.1713601e-05
-4.929726e-07
1.2099438e-05
3.0145827e-07
3.8560606e-07
-2.0275229e-07
2.8211908e-06
3.1046482e-06
3.2231682e-06
2.9118027e-06
3.7975385e-07
2.8828503e-06
3.0958531e-06
3.2015636e-06
2.8220057e-06
2.8680468e-07
-1.9284152e-07
2.7249813e-06
2.8140527e-06
3.0123675e-06
2.9178303e-06
2.7263663e-06
2.9834918e-06
2.916754e-06
2.7847306e-06
3.5468076e-09
3.8441261e-07
3.0894257e-06
2.810039e-06
2.9048781e-06
3.2189613e-06
3.8680624e-07
3.214035e-06
3.1202335e-06
2.8971327e-06
2.8419047e-06
1.199772e-09
2.7146557e-06
2.8066919e-06
2.9065614e-06
3.0052728e-06
2.7994871e-06
2.7459739e-06
2.9985471e-06
2.9384606e-06
3.6867078e-06
5.7292859e-07
-5.4011202e-07
-4.8765871e-06
-4.9409232e-06
5.5973768e-05
1.5407951e-06
1.6070107e-06
9.7422557e-08
-1.3474271e-06
-1.5584769e-07
1.4883952e-05
1.5648472e-07
-1.3484485e-06
1.4893888e-05
5.509004e-07
5.3694209e-05
-6.5125499e-07
-3.6843244e-06
5.3663769e-05
-4.9440025e-06
5.594303e-05
1.5374588e-06
-1.3487227e-06
1.489141e-05
1.2409562e-07
-1.0357158e-06
-1.0576519e-06
-1.5161762e-07
3.5897333e-06
3.5047092e-06
2.9029091e-06
2.8822928e-06
2.9791196e-10
-9.523037e-09
1.5327622e-07
-1.0295627e-06
-1.0683859e-06
3.5201225e-06
3.5774163e-06
2.8913279e-06
2.8961706e-06
-1.1663351e-08
2.82065e-09
-1.0428212e-06
-1.0556481e-06
3.5908048e-06
3.5060801e-06
2.8822412e-06
2.904071e-06
-1.0341837e-08
1.7172269e-09
-1.098041e-08
-3.442304e-07
-4.1085207e-08
2.4430859e-06
-3.4351758e-07
3.0694284e-08
2.457831e-06
4.0069266e-09
3.3036201e-08
-9.7416472e-08
7.3413788e-07
5.9334272e-07
7.0753071e-07
5.8142097e-07
-9.6777924e-08
-4.3227863e-08
7.3527116e-07
6.9902688e-07
5.7427567e-07
5.950651e-07
3.4457244e-07
6.0415133e-08
-9.7440627e-08
7.048751e-07
7.3782504e-07
5.9768317e-07
5.7809135e-07
-5.6327866e-08
-3.4502398e-07
4.0719243e-08
2.4467255e-06
2.4593859e-06
-9.7022228e-08
4.2997792e-08
5.9153149e-07
7.3281073e-07
7.0333999e-07
5.7899905e-07
-5.0966573e-09
-4.7228906e-07
-3.9264077e-08
6.921511e-07
5.1424587e-07
5.3353242e-07
7.1637276e-07
-4.7785217e-07
2.9237093e-08
7.1483456e-07
5.3231637e-07
5.211821e-07
7.0021923e-07
-1.8397815e-09
-4.0472219e-08
5.5929664e-07
5.3934966e-07
5.5135359e-07
5.3148183e-07
3.1281298e-08
5.4654357e-07
5.5763364e-07
5.389133e-07
5.5007667e-07
4.7873708e-07
5.498323e-08
5.432377e-07
5.6208577e-07
5.3577679e-07
5.5439226e-07
5.5149478e-08
6.9689005e-07
5.1811152e-07
5.3645528e-07
7.1923565e-07
4.7429633e-07
4.0264625e-08
5.4815572e-07
5.5587478e-07
5.4419975e-07
5.3643825e-07
3.8568058e-08
5.3038108e-07
5.1893398e-07
6.9695758e-07
7.1310976e-07
1.3819094e-09
-3.4562066e-07
2.4468328e-06
-3.44144e-07
2.4597024e-06
9.0192e-09
-9.6986762e-08
7.3628701e-07
6.9996069e-07
5.7476236e-07
5.9593384e-07
-9.772228e-08
7.0838037e-07
7.3439901e-07
5.9319552e-07
5.8256709e-07
4.7438632e-07
9.6093639e-09
5.6039252e-07
5.3991408e-07
5.321878e-07
5.5256903e-07
7.2156439e-09
6.927837e-07
5.1492124e-07
5.3457102e-07
7.1743421e-07
4.7861307e-07
5.1961039e-08
5.4781238e-07
5.5756256e-07
5.5005707e-07
5.4022078e-07
5.1265265e-08
5.2247163e-07
5.3228904e-07
7.1476444e-07
7.012602e-07
4.7790026e-07
5.6203287e-07
5.4207196e-07
5.3454554e-07
5.542743e-07
6.9559506e-07
5.1693979e-07
5.3640781e-07
7.1889407e-07
1.7456595e-06
-3.2543736e-06
1.276451e-05
1.3117185e-05
1.5305786e-05
1.4549161e-05
4.9449675e-05
1.09458e-06
2.0730475e-07
-4.6977339e-08
-1.7836239e-06
3.6701248e-06
3.0451184e-06
3.1354634e-06
3.8415277e-06
1.8377172e-07
-5.0210445e-08
1.2488881e-05
1.1117186e-06
1.0464847e-07
-1.7659545e-06
3.1155443e-06
3.0345448e-06
3.635772e-06
3.8219855e-06
1.0296449e-07
1.2287985e-05
1.0950664e-06
1.1538312e-07
-1.781575e-06
3.1253849e-06
3.0498337e-06
3.8271605e-06
3.6736004e-06
1.036811e-07
1.246098e-05
1.1123498e-06
-1.7566829e-06
-8.8493479e-08
3.0219697e-06
3.1206035e-06
3.6161625e-06
3.8180892e-06
1.2206954e-05
-8.6980858e-08
2.8139313e-07
1.0963369e-06
-1.6231598e-07
-1.7806599e-06
3.0385037e-06
3.1348049e-06
3.6641029e-06
3.8340862e-06
1.109627e-06
-1.7554973e-06
3.1088443e-06
3.0311829e-06
3.808236e-06
3.6229792e-06
2.4603758e-07
-1.5432019e-07
1.2455311e-05
1.2203575e-05
1.1134904e-06
-4.179776e-08
-1.765767e-06
3.0239734e-06
3.1257333e-06
3.6272251e-06
3.8298902e-06
-4.1623787e-08
1.2285328e-05
1.0924235e-06
-1.7831722e-06
3.1245752e-06
3.8327264e-06
3.0549728e-06
3.6777969e-06
1.2488384e-05
-2.1393272e-08
5.7759877e-07
-9.6127288e-07
-3.1132634e-08
7.501265e-07
7.2646733e-07
9.6238759e-07
1.0159663e-06
5.7868171e-07
1.7725981e-08
-9.764614e-07
7.3381471e-07
7.5012424e-07
1.0174209e-06
9.7804645e-07
-1.7263658e-08
3.0995687e-06
-3.0143608e-08
1.8415861e-08
3.162983e-06
5.4394553e-08
5.7918454e-07
-9.7780786e-07
7.5346991e-07
7.3183652e-07
9.7660768e-07
1.0219527e-06
5.7950997e-07
2.8338743e-08
-9.6644e-07
7.3015351e-07
7.4799087e-07
1.01659e-06
9.6818042e-07
4.6053488e-08
3.1706876e-06
2.7967427e-08
3.1220195e-06
-5.7969265e-07
-5.948041e-09
3.1227979e-06
-6.5442445e-09
-9.6666963e-07
7.5126607e-07
7.2719086e-07
9.6567558e-07
1.0191501e-06
5.7915113e-07
4.3647175e-08
-9.7843016e-07
7.3513424e-07
7.5020148e-07
1.0196444e-06
9.7948488e-07
4.1057285e-08
3.1739926e-06
7.2746879e-08
5.7939724e-07
-9.7726883e-07
7.534154e-07
7.3063477e-07
9.7576186e-07
1.0205082e-06
5.7756865e-07
3.6571707e-08
-9.6236547e-07
7.2973579e-07
7.4675334e-07
1.0136573e-06
9.6525462e-07
-6.0619756e-08
3.5434322e-08
3.1048295e-06
3.1671752e-06
-1.4621097e-08
5.7803619e-07
-9.6223636e-07
7.5037346e-07
7.2602418e-07
9.6229565e-07
1.0164241e-06
5.7868516e-07
2.9461012e-08
-9.7702873e-07
7.3414103e-07
7.4960702e-07
1.0174641e-06
9.7843782e-07
1.1717047e-08
2.9402123e-08
3.1669784e-06
3.1040999e-06
6.4843405e-08
5.7935463e-07
-9.7790151e-07
7.5359448e-07
7.3121425e-07
9.762327e-07
1.0220967e-06
5.787254e-07
4.5134491e-08
-9.6603928e-07
7.3050389e-07
7.4721553e-07
1.0157782e-06
9.680776e-07
-5.5047042e-08
4.3269724e-08
3.1217443e-06
3.1723799e-06
4.1266564e-09
5.7950365e-07
-9.655381e-07
7.5120699e-07
7.2601691e-07
9.6464048e-07
1.0187735e-06
5.7799636e-07
5.5840668e-08
-9.7677996e-07
7.349512e-07
7.4921286e-07
1.018287e-06
9.7872508e-07
-3.2096341e-09
5.242086e-08
3.1686533e-06
3.1194861e-06
8.0032689e-08
5.7841495e-07
-9.7513865e-07
7.2944853e-07
9.7419083e-07
7.5311363e-07
1.0192841e-06
5.7614029e-07
-9.5985232e-07
7.4560831e-07
7.2939349e-07
1.0119572e-06
9.6423306e-07
-6.6537243e-08
3.0966896e-06
3.1595127e-06
-1.1043411e-09
2.4259086e-07
1.4286389e-08
-5.4523336e-07
1.0425834e-06
2.406395e-07
-1.0849925e-08
-5.3736918e-07
1.0367525e-06
1.3504459e-09
-1.0513644e-08
8.543223e-07
1.3418176e-08
8.6829376e-07
2.1385561e-08
2.4243809e-07
-5.4477506e-07
1.0415841e-06
2.3953259e-07
1.2448929e-08
-5.3489751e-07
1.0341103e-06
-1.7183693e-08
1.1943225e-08
8.49432e-07
8.6666908e-07
-2.3937313e-07
-9.9534847e-10
8.479245e-07
-1.1318234e-08
-1.9631851e-09
-5.344311e-07
-1.1904066e-08
1.0339525e-06
2.4217281e-07
8.4758439e-09
-5.442229e-07
1.0414611e-06
8.3590029e-09
8.6557953e-07
-1.7054213e-08
2.4054039e-07
-5.3721399e-07
1.0364075e-06
2.4247081e-07
-5.4496296e-07
1.0425203e-06
1.3746197e-08
8.6747925e-07
8.5377401e-07
-8.2543139e-10
2.3960819e-07
-5.3496308e-07
1.0341393e-06
2.4224876e-07
1.0955196e-08
-5.4464528e-07
1.0414757e-06
-5.8976242e-11
8.4933113e-07
1.0501666e-08
8.6663924e-07
-2.4256466e-07
1.5709721e-08
8.6823461e-07
1.9523026e-08
-5.4510508e-07
1.0424022e-06
2.4042527e-07
1.453996e-08
-5.3712025e-07
1.0363992e-06
1.3754547e-08
8.5417172e-07
-3.7712286e-09
2.4216872e-07
1.7130122e-08
-5.445447e-07
1.0419506e-06
2.4050934e-07
-5.3694286e-07
1.0360213e-06
3.6037327e-09
8.5358334e-07
1.6004416e-08
8.6731834e-07
-2.3058655e-08
2.389871e-07
1.0330941e-06
2.4202806e-07
1.0407767e-06
1.8318209e-08
8.6524523e-07
8.4741483e-07
-0.00019986843
1.4091593e-05
-1.3011872e-05
8.4998345e-07
-0.00019999792
9.1507444e-08
-0.00019995521
9.3744965e-08
-8.9780282e-07
7.4391109e-09
7.8111459e-09
1.3093308e-05
-1.43383e-05
3.0460042e-07
5.2201165e-05
-3.8973957e-07
3.0255704e-06
2.9292153e-06
-4.1742022e-06
-4.261324e-06
5.1526783e-05
2.9460242e-06
2.9732986e-06
-4.0954687e-06
-4.2996245e-06
-3.0464314e-07
6.4721175e-05
-3.685159e-06
3.5574668e-06
-3.5533494e-06
3.4585564e-06
6.5750701e-05
-3.8066373e-07
-3.639428e-06
3.5950723e-06
3.436343e-06
-3.6616916e-06
2.2703226e-07
-5.0838482e-05
-3.025981e-07
3.6699619e-06
-3.0795697e-06
3.8448264e-06
-3.123111e-06
5.1482343e-05
-2.4785191e-07