/*--------------------------------*- C++ -*----------------------------------*\
  =========                 |
  \\      /  F ield         | OpenFOAM: The Open Source CFD Toolbox
   \\    /   O peration     | Website:  https://openfoam.org
    \\  /    A nd           | Version:  7
     \\/     M anipulation  |
\*---------------------------------------------------------------------------*/
FoamFile
{
    version     2.0;
    format      ascii;
    class       volVectorField;
    location    "0";
    object      U;
}
// * * * * * * * * * * * * * * * * * * * * * * * * * * * * * * * * * * * * * //

dimensions      [0 1 -1 0 0 0 0];

internalField   nonuniform List<vector> 
33943
(
(0.089101022 -0.00084811324 -0.00065232029)
(0.087781056 -0.0010028922 -0.0019705593)
(0.088809219 -0.0010493782 -0.0023644792)
(0.090666027 -0.00089322934 -0.0019371142)
(0.090350504 -0.00058069601 -0.00071774354)
(0.088885659 -0.00085656782 0.0002191172)
(0.086627832 -0.00096657281 -0.00022063141)
(0.089048279 -0.00059019741 -0.00065930349)
(0.087824048 -0.00068617311 -0.0019890279)
(0.087807647 -0.00099535412 -0.0019797469)
(0.088855727 -0.0007458164 -0.0023813856)
(0.088853665 -0.00092362296 -0.002367968)
(0.085721347 -0.00087407868 -0.0044995258)
(0.087677171 -0.00093562763 -0.0044787652)
(0.088103626 -0.0010506697 -0.0043638618)
(0.085829287 -0.0011449369 -0.0043885176)
(0.09208737 -0.00085650411 0.0005178549)
(0.092042877 -0.0008523903 -0.0011622901)
(0.090728129 -0.00098814516 -0.0019449127)
(0.090767402 -0.00061532591 -0.0019539461)
(0.090937534 -0.00059145669 -0.00085426955)
(0.091233364 -0.0011723901 -0.0048882173)
(0.091130852 -0.00069911808 -0.0050136783)
(0.090303834 -0.00040345663 -0.00072075032)
(0.090574265 -0.0005159247 -0.00030731906)
(0.090393096 -0.00048837409 -0.00023290375)
(0.090428832 -0.00062858011 -0.00023616796)
(0.090588676 -0.00064880619 -0.00030411172)
(0.088831169 -0.00059364133 0.00021710759)
(0.08798932 -0.00073900955 0.0016801163)
(0.087974312 -0.00095114775 0.0016787248)
(0.086668132 -0.00064325297 -0.00022385598)
(0.086654819 -0.0010471035 -0.00022246741)
(0.087525201 -0.00095900433 0.0039738014)
(0.087594124 -0.0009207155 0.0037089287)
(0.084042829 -0.00087446933 0.0028991425)
(0.084149104 -0.0011952089 0.0028919739)
(0.082137808 -0.00073414319 -0.0017408232)
(0.082287216 -0.001316956 -0.001729634)
(0.087834401 -0.00046761489 -0.0019961284)
(0.087828677 -0.00072408837 -0.0019916941)
(0.088867356 -0.00053083736 -0.0023851528)
(0.088871768 -0.00065815991 -0.0023756007)
(0.085800479 -0.00058942742 -0.0045157603)
(0.085919012 -0.00082381949 -0.0044108997)
(0.088192221 -0.00073571477 -0.0043836765)
(0.087760696 -0.00065518232 -0.0044932891)
(0.085896604 -0.00080423322 -0.0044094754)
(0.085755812 -0.0010554175 -0.0045008116)
(0.088156711 -0.00088676414 -0.0043870303)
(0.087731327 -0.00098879616 -0.0044712841)
(0.08396948 -0.0010000562 -0.0098019375)
(0.086946571 -0.0009465138 -0.0086766285)
(0.083875467 -0.00085606242 -0.0099180358)
(0.086534169 -0.00091084814 -0.0087673912)
(0.084017053 -0.0009857484 -0.0097764585)
(0.083879269 -0.001196201 -0.0098673027)
(0.086966913 -0.0010697795 -0.0086381265)
(0.086568856 -0.0011547088 -0.0087214818)
(0.091264023 -0.00054050709 -0.00016163172)
(0.092251604 -0.0006776288 0.00052024318)
(0.092182221 -0.00061979124 -0.0011756367)
(0.092179527 -0.00067737983 0.00053172679)
(0.092122303 -0.00087561646 -0.0011810419)
(0.0939563 -0.00085988624 0.0011342677)
(0.09281202 -0.00078269151 0.001601129)
(0.093839193 -0.00087916519 0.0012270769)
(0.092792313 -0.00069742108 0.0016966549)
(0.093797378 -0.00081366771 -0.0034406876)
(0.09468796 -0.000904889 -0.00085118558)
(0.093796075 -0.0011830865 -0.0035218618)
(0.094567257 -0.00084646439 -0.00095280784)
(0.09133605 -0.00069594184 -0.0049073019)
(0.091171102 -0.001154834 -0.0050165737)
(0.091239653 -0.00043637778 -0.0050297879)
(0.091362725 -0.00088186737 -0.0049098412)
(0.090796626 -0.00074919444 -0.0019544512)
(0.090944752 -0.00042205437 -0.00085630813)
(0.090813614 -0.00041417676 -0.0019582248)
(0.090894015 -0.00050913739 -0.00037452451)
(0.090876065 -0.00064426095 -0.00037604447)
(0.09065741 -0.00065389283 -0.00025502223)
(0.090659417 -0.00052102683 -0.00025643271)
(0.092111407 -0.00076351869 -0.0097322645)
(0.09196676 -0.0014059842 -0.0098409882)
(0.091996548 -0.00057194419 -0.0098854491)
(0.092113499 -0.0011535274 -0.0097492286)
(0.090560814 -0.0004595038 -0.00030578916)
(0.090545586 -0.00035685733 -0.00030854802)
(0.090334428 -0.0003324053 -0.00023462533)
(0.090363593 -0.00044052189 -0.00023767984)
(0.09058266 -0.00053048692 -0.00012264165)
(0.090493095 -0.00050659706 -6.3812238e-05)
(0.0905258 -0.00060756838 -6.4074294e-05)
(0.090597053 -0.0006315416 -0.00012224176)
(0.088000571 -0.00051856337 0.0016794535)
(0.087995456 -0.0006766318 0.001679035)
(0.086677728 -0.00042266351 -0.00022464742)
(0.086673601 -0.00077195539 -0.00022396445)
(0.088105426 -0.00071512573 0.0036682524)
(0.087677045 -0.00063562884 0.0037162664)
(0.087607137 -0.00067051645 0.0039811699)
(0.087679504 -0.00078155974 0.0039094176)
(0.088077199 -0.00091807396 0.0036731489)
(0.087658426 -0.00085201046 0.0039092209)
(0.087562516 -0.00098221493 0.0039755176)
(0.087635265 -0.0010138515 0.003708297)
(0.084119079 -0.00058500172 0.0028995893)
(0.084234405 -0.00086770226 0.0028927393)
(0.082369151 -0.00099093527 -0.0017398453)
(0.082211574 -0.00044582362 -0.0017491008)
(0.084214082 -0.00076631028 0.0028935148)
(0.084079451 -0.0010680336 0.0028984886)
(0.082171858 -0.0012040617 -0.0017454998)
(0.082346005 -0.00064258406 -0.0017369567)
(0.088445945 -0.00096272016 0.0061635637)
(0.089653659 -0.00081647163 0.0038694624)
(0.083177418 -0.00091572188 0.0074749606)
(0.082756704 -0.00088623919 0.0075234454)
(0.08125041 -0.00078248263 0.0059433079)
(0.081314849 -0.0011306734 0.0058650634)
(0.083194521 -0.001093312 0.0074753059)
(0.081351661 -0.00089641419 0.005859903)
(0.076030091 -0.00065168686 0.0023539481)
(0.076152697 -0.0012557679 0.0023504361)
(0.075286964 -0.0005543532 -0.0065418572)
(0.075453091 -0.0013185865 -0.0065162624)
(0.076198191 -0.00076478817 0.0023552796)
(0.075503001 -0.00068352068 -0.0065058312)
(0.075313315 -0.0015063344 -0.006517576)
(0.08886895 -0.00046723892 -0.0023779023)
(0.085956995 -0.00060249829 -0.0044193843)
(0.085833414 -0.00038831343 -0.0045217809)
(0.087796155 -0.00045507228 -0.0044968447)
(0.088229135 -0.00051582296 -0.0043902569)
(0.085814912 -0.00079111868 -0.0045146752)
(0.087788945 -0.00072637858 -0.0044834482)
(0.085947853 -0.00056759174 -0.004419517)
(0.0882107 -0.00065280862 -0.0043954073)
(0.083967464 -0.00058850042 -0.0099391716)
(0.084066892 -0.00071778657 -0.0098268774)
(0.086631659 -0.00064489278 -0.0087844793)
(0.087044854 -0.00066654208 -0.0086984982)
(0.084126939 -0.00069212903 -0.0098036731)
(0.083995826 -0.00088242812 -0.0098996956)
(0.087082723 -0.00077955454 -0.0086615025)
(0.086685632 -0.00084334686 -0.0087505789)
(0.083979353 -0.00071752826 -0.0099014559)
(0.084098622 -0.00090821903 -0.009793554)
(0.086652497 -0.00075835773 -0.0087626962)
(0.087065951 -0.00081776037 -0.0086457878)
(0.084011924 -0.00088747056 -0.0098165348)
(0.08390002 -0.0010312851 -0.0099166824)
(0.086578007 -0.00097684898 -0.0087545467)
(0.086975343 -0.00093555055 -0.0086962896)
(0.084058056 -0.0010324851 -0.019265612)
(0.083956482 -0.0009397337 -0.019363881)
(0.086495421 -0.0010058393 -0.015319677)
(0.086129299 -0.0010393326 -0.015419971)
(0.083943475 -0.00097461762 -0.019417092)
(0.083999103 -0.00083387101 -0.01929539)
(0.086081718 -0.00089967105 -0.015456745)
(0.086462967 -0.00090485252 -0.015367002)
(0.083974688 -0.0010386595 -0.019355613)
(0.084050749 -0.00096804353 -0.019245681)
(0.086127615 -0.00095833697 -0.015413841)
(0.086508499 -0.0010106524 -0.015306325)
(0.08643054 -0.0011159323 -0.015344285)
(0.083979503 -0.001175976 -0.01926498)
(0.083907074 -0.0010575202 -0.019372433)
(0.086066437 -0.0011380948 -0.015412796)
(0.091310819 -0.00039880165 -0.00016191052)
(0.092222378 -0.00067021748 -0.0011830146)
(0.092341982 -0.00052675173 0.00052266191)
(0.092302267 -0.00051054058 0.00052907635)
(0.090926542 -0.0004731246 -0.00010838733)
(0.090942753 -0.00050712239 -2.3380948e-05)
(0.090914247 -0.00059908319 -1.9301656e-05)
(0.090889842 -0.00056558314 -0.00011338951)
(0.092252668 -0.0004412482 -0.0011802176)
(0.092974351 -0.00061912124 0.0016061531)
(0.092982814 -0.00052869349 0.0016980443)
(0.094024236 -0.00067904017 0.001230851)
(0.094112689 -0.00067008747 0.0011339219)
(0.094835324 -0.00069046077 -0.00085513713)
(0.093927039 -0.00057324917 -0.0034537178)
(0.093952144 -0.00091954634 -0.0035337225)
(0.094743529 -0.00061393308 -0.00096229134)
(0.094003771 -0.00072534034 0.0011317517)
(0.092861902 -0.00069839675 0.0016114585)
(0.092946899 -0.00078383479 0.0016924234)
(0.093988586 -0.00070731746 0.0012384207)
(0.093837435 -0.00096012804 -0.0034517735)
(0.093924527 -0.00060426604 -0.0035284242)
(0.094711414 -0.00084286798 -0.00096604307)
(0.094731154 -0.00077527865 -0.00084613285)
(0.095327523 -0.00090150676 0.0019579309)
(0.094084871 -0.00069284014 0.002102619)
(0.094168494 -0.00082183253 0.0022149701)
(0.095338159 -0.00086175741 0.0018492789)
(0.093452317 -0.00081147037 0.0024769468)
(0.093529997 -0.00081045168 0.0023885439)
(0.092802997 -0.00072544593 0.0025315116)
(0.092816136 -0.00065738677 0.0026202909)
(0.09528667 -0.00086523246 0.0018920071)
(0.09408109 -0.00081840308 0.0022556077)
(0.094061944 -0.00089514287 0.0021322819)
(0.095202752 -0.00082921035 0.001991308)
(0.093452178 -0.00079785237 0.0023946862)
(0.093429496 -0.00080767798 0.0024867272)
(0.09621374 -0.0012481637 -0.0077069408)
(0.098609518 -0.00089627397 -0.0040936878)
(0.098513431 -0.00083671918 -0.0041884127)
(0.096195711 -0.00072106207 -0.0076504577)
(0.096423842 -0.00071088014 0.00099948161)
(0.098080282 -0.0009216554 -0.00016130704)
(0.096416236 -0.00089760652 0.00090695286)
(0.09798879 -0.00094219291 -5.5938652e-05)
(0.098498274 -0.0010165402 -0.0041927824)
(0.096198658 -0.00072437325 -0.0076885698)
(0.096131422 -0.0012427324 -0.0076308194)
(0.098533456 -0.00098598294 -0.0040895471)
(0.097995906 -0.00093478065 -0.00020164539)
(0.096372547 -0.0010504897 0.00094955728)
(0.097968005 -0.00095789289 -8.7289862e-05)
(0.096291676 -0.00086662479 0.0008683446)
(0.092210276 -0.0010868504 -0.0097503513)
(0.092095952 -0.00045872102 -0.0098700706)
(0.092021594 -0.0012707637 -0.0098862435)
(0.092167963 -0.00069004746 -0.0097601847)
(0.092235991 -0.000885901 -0.0097719296)
(0.091259604 -0.00091171662 -0.0050295159)
(0.092109345 -0.00031632869 -0.0099053124)
(0.092113724 -0.0011112672 -0.0098705318)
(0.092246806 -0.0004839549 -0.0097578302)
(0.091410275 -0.0004738434 -0.0049165822)
(0.090825834 -0.00057231649 -0.0019577303)
(0.090910964 -0.00035963787 -0.00037635736)
(0.090652168 -0.0003643278 -0.00025726976)
(0.0906564 -0.00047014435 -0.00025717907)
(0.090904136 -0.00047169797 -0.00037673964)
(0.091423191 -0.00067468215 -0.0049173722)
(0.091290257 -0.00024515209 -0.0050350037)
(0.090808618 -0.00053027154 -0.00012890332)
(0.09079252 -0.00062123927 -0.00012894686)
(0.090689643 -0.00063500992 -8.5319871e-05)
(0.090691834 -0.00053760604 -8.5577055e-05)
(0.093572224 -0.00057054549 -0.016465333)
(0.093682642 -0.0013311448 -0.016335776)
(0.09365004 -0.00079110065 -0.016345539)
(0.093514858 -0.0015053106 -0.016480368)
(0.093572323 -0.00048959649 -0.016510523)
(0.093689319 -0.0011791907 -0.01636377)
(0.093700003 -0.00062401824 -0.016352549)
(0.093575849 -0.0013685222 -0.016468212)
(0.090567189 -0.00044444192 -0.00012289755)
(0.09055207 -0.00037044981 -0.00012303463)
(0.090435291 -0.00034962794 -6.4245938e-05)
(0.090462335 -0.00042174083 -6.4683189e-05)
(0.090578576 -0.00053035019 -2.0849278e-05)
(0.090483665 -0.00050618127 -1.0295534e-05)
(0.09051694 -0.0006070985 -1.0228804e-05)
(0.090593225 -0.00063137869 -2.0679458e-05)
(0.090716943 -0.00074047032 0.0021716835)
(0.090675556 -0.00087736198 0.0021684953)
(0.092061338 -0.00093753414 0.0020941124)
(0.087712381 -0.00043411681 0.0037172424)
(0.088144896 -0.00049252759 0.0036705193)
(0.087719679 -0.00055841792 0.0039130405)
(0.087642032 -0.00046804832 0.0039837557)
(0.088131533 -0.0006808193 0.0036759551)
(0.087696279 -0.00074803029 0.0037124942)
(0.08762362 -0.00071439861 0.0039814438)
(0.087711468 -0.00061338059 0.0039134312)
(0.084151059 -0.00038230834 0.0028994426)
(0.084270843 -0.00064454327 0.0028927838)
(0.082242186 -0.00024351757 -0.0017519235)
(0.082403729 -0.00076816518 -0.0017430501)
(0.08426296 -0.0005272505 0.0028936065)
(0.084135239 -0.00080005177 0.0028986823)
(0.082393826 -0.00040383834 -0.0017417268)
(0.082225872 -0.00093731725 -0.0017510699)
(0.089826415 -0.00088005951 0.003886659)
(0.08976241 -0.00054830829 0.0038778331)
(0.08855094 -0.00068950269 0.0061732977)
(0.088573376 -0.00075350362 0.0061578582)
(0.089800671 -0.00070663925 0.0038871652)
(0.088549295 -0.0008396399 0.0061563952)
(0.088482019 -0.00091597472 0.0061663691)
(0.089690801 -0.0010515244 0.0038695905)
(0.082846391 -0.00061506656 0.0075303898)
(0.083270308 -0.00062835723 0.0074847168)
(0.081406045 -0.0008436523 0.0058705677)
(0.081336807 -0.00051035361 0.0059478144)
(0.081453802 -0.0005969055 0.005864754)
(0.083301492 -0.00079479078 0.0074835835)
(0.082886991 -0.00085943856 0.0075063217)
(0.081345376 -0.00097184271 0.0059272905)
(0.076140176 -0.0011001897 0.0023488375)
(0.075598015 -0.00038616302 -0.0065263209)
(0.075412409 -0.0011893149 -0.0065405875)
(0.076291968 -0.00046565267 0.0023506028)
(0.0761097 -0.00037981154 0.0023508465)
(0.076236377 -0.00096961225 0.0023468605)
(0.075366549 -0.00028405499 -0.0065578923)
(0.075536294 -0.0010339476 -0.0065340459)
(0.082865915 -0.00074707666 0.0075133869)
(0.08328136 -0.00081428491 0.00747069)
(0.081329044 -0.0006355252 0.0059283403)
(0.081426154 -0.0010103266 0.0058600878)
(0.081356023 -0.00076881976 0.0058699904)
(0.0832107 -0.00098560804 0.0074900892)
(0.082787714 -0.0010130111 0.0075161331)
(0.081274882 -0.0011178484 0.005941561)
(0.07619003 -0.00064204319 0.002349734)
(0.076054947 -0.0012473362 0.0023522685)
(0.075486853 -0.00057615244 -0.0065243065)
(0.075310186 -0.0013393548 -0.0065457228)
(0.076122553 -0.0005071363 0.0023499119)
(0.076266291 -0.0011406075 0.0023499747)
(0.075396536 -0.00041455018 -0.0065379257)
(0.075575444 -0.0012185676 -0.0065213857)
(0.091985625 -0.00093131136 0.0082572971)
(0.085160825 -0.00071820257 0.0090880798)
(0.08522641 -0.0011647185 0.0090943202)
(0.091638425 -0.0007797606 0.0047926498)
(0.091606916 -0.0011497735 0.0047943885)
(0.091946034 -0.001011431 0.0082491369)
(0.085220811 -0.00082483891 0.0090884944)
(0.080115493 -0.00093719745 0.011228764)
(0.080141379 -0.00096915686 0.011209139)
(0.080142116 -0.0010363357 0.011204741)
(0.07210804 -0.00086866033 0.010247691)
(0.072529184 -0.0008717341 0.010195712)
(0.068240701 -0.0013021965 0.0043085223)
(0.068130554 -0.00053261099 0.0043957895)
(0.06829987 -0.0005980059 0.0043022042)
(0.072156551 -0.0010632616 0.010220305)
(0.072564995 -0.0010170395 0.010194797)
(0.06815855 -0.0014010899 0.0043770145)
(0.068409578 -0.00057712527 -0.018315175)
(0.068562745 -0.0012106986 -0.018255155)
(0.062843707 -0.00020251838 -0.0043827157)
(0.063029633 -0.0016306691 -0.0043647252)
(0.063106031 -0.00026388792 -0.0043557257)
(0.068626499 -0.00065090214 -0.018240422)
(0.062898221 -0.0017271089 -0.0043680428)
(0.068451193 -0.0013353745 -0.018269202)
(0.07216428 -0.00094155969 0.010228027)
(0.072572074 -0.0010109289 0.010182368)
(0.068175115 -0.00059989877 0.0043765231)
(0.068297194 -0.0014219662 0.0043018177)
(0.062919537 -0.00026838539 -0.0043628967)
(0.068470154 -0.00064447401 -0.018264117)
(0.063107509 -0.0017519536 -0.0043456719)
(0.068629383 -0.0013529212 -0.01822179)
(0.063034867 -0.00039426445 -0.0043480701)
(0.068556046 -0.00080354819 -0.018227617)
(0.085837712 -0.0006017224 -0.0045203952)
(0.08781029 -0.00053698803 -0.0044881452)
(0.084176707 -0.00048537953 -0.0098142993)
(0.08713573 -0.00057396168 -0.0086695761)
(0.084048704 -0.00066483497 -0.0099126524)
(0.086737995 -0.000625973 -0.008762324)
(0.084110512 -0.0005172204 -0.0098369618)
(0.087088367 -0.0004666559 -0.0087072643)
(0.084008578 -0.00039619978 -0.0099473869)
(0.08667599 -0.00045288229 -0.0087899524)
(0.08408616 -0.00064371233 -0.0098335091)
(0.083978914 -0.00077310934 -0.0099369682)
(0.087054007 -0.00069360665 -0.0087102028)
(0.086656835 -0.00071941702 -0.0087727869)
(0.084041054 -0.00049290595 -0.0099146702)
(0.086718469 -0.00053453409 -0.0087725768)
(0.084163973 -0.00067267397 -0.0098094077)
(0.087131665 -0.00058344912 -0.00865962)
(0.084042978 -0.00071604501 -0.019449914)
(0.084101496 -0.00056869626 -0.019330913)
(0.086185386 -0.00064136936 -0.01548144)
(0.086565881 -0.00064093746 -0.015395716)
(0.0841667 -0.0007628492 -0.019302349)
(0.084068273 -0.00066113574 -0.019403902)
(0.086608227 -0.00073756304 -0.015348157)
(0.086240705 -0.00076153342 -0.015452964)
(0.086252448 -0.00067554881 -0.015445121)
(0.084094712 -0.0007550546 -0.019396584)
(0.08417417 -0.00067595745 -0.019290101)
(0.08663259 -0.0007204284 -0.015342281)
(0.084110298 -0.00087827556 -0.019311275)
(0.084041844 -0.00074860415 -0.01942288)
(0.086200974 -0.00083044224 -0.01545426)
(0.086566172 -0.00082007367 -0.015380725)
(0.084031196 -0.00083550014 -0.019424802)
(0.084093205 -0.00070300262 -0.019303572)
(0.086558863 -0.00076029647 -0.015368593)
(0.086176788 -0.00075736962 -0.01546594)
(0.084143336 -0.00090589045 -0.019282352)
(0.084057569 -0.00083179649 -0.019378887)
(0.086228334 -0.00091456889 -0.015420997)
(0.086590864 -0.00086029944 -0.015342528)
(0.084011925 -0.00092789456 -0.019389542)
(0.084103868 -0.0008285649 -0.019278018)
(0.086554265 -0.00085265031 -0.015322368)
(0.086169478 -0.00083084797 -0.015451538)
(0.084024254 -0.001026378 -0.019306446)
(0.083958778 -0.00088922843 -0.019415328)
(0.086113126 -0.0009675589 -0.015443826)
(0.086476532 -0.00095322341 -0.015382361)
(0.090128699 -0.00060877801 -0.032325164)
(0.090153626 -0.0012922437 -0.032410719)
(0.088120412 -0.0009168005 -0.023812624)
(0.088447544 -0.00093478267 -0.023727256)
(0.090085366 -0.0013497522 -0.032351531)
(0.090123081 -0.00062669402 -0.032435661)
(0.088074372 -0.00100862 -0.023828483)
(0.088398814 -0.0010241939 -0.023751912)
(0.088067169 -0.00090603714 -0.023853631)
(0.090132982 -0.0012807587 -0.032468671)
(0.090079931 -0.00054654506 -0.03237145)
(0.088394554 -0.00088441079 -0.02377676)
(0.090125026 -0.00057773076 -0.032418598)
(0.090128146 -0.0012814754 -0.032340891)
(0.088431059 -0.00097119212 -0.023726784)
(0.088101833 -0.00096958933 -0.023825788)
(0.090128711 -0.0013438956 -0.032437223)
(0.09007821 -0.00062779621 -0.03233886)
(0.088071496 -0.00096669991 -0.02383096)
(0.088399472 -0.00095633487 -0.023747449)
(0.088432242 -0.0010484815 -0.023714434)
(0.090117411 -0.0013730565 -0.032315102)
(0.090127538 -0.00069675752 -0.032386302)
(0.088106422 -0.0010767991 -0.023792683)
(0.0900848 -0.000719738 -0.03230527)
(0.090095525 -0.0014152535 -0.032398734)
(0.088066416 -0.0010290449 -0.023812252)
(0.088397112 -0.001030804 -0.023703102)
(0.090068829 -0.00073710263 -0.032420249)
(0.090027185 -0.0014594045 -0.032340063)
(0.088341664 -0.0011205748 -0.02374935)
(0.088016335 -0.0011142152 -0.023814249)
(0.092370148 -0.00037105348 0.00052809779)
(0.090974451 -0.00034717825 -0.0001094863)
(0.090953503 -0.00042601902 -0.00011237245)
(0.090960801 -0.00044175246 -2.0470946e-05)
(0.090975273 -0.00036808889 -2.251058e-05)
(0.092272577 -0.00051031381 -0.0011830898)
(0.094014936 -0.00039726229 -0.0035357554)
(0.093946329 -0.0007360647 -0.0034579069)
(0.094856958 -0.00057261145 -0.00085102992)
(0.094817034 -0.00065418264 -0.00096754936)
(0.093063771 -0.00047759233 0.0016090614)
(0.094121359 -0.00051575697 0.0012332699)
(0.093086922 -0.00038091001 0.0016989855)
(0.094195438 -0.00051518275 0.0011343999)
(0.093067044 -0.00063141538 0.0016957345)
(0.094137694 -0.00054386292 0.0011335495)
(0.093001828 -0.00053919206 0.001612156)
(0.09410239 -0.00053642389 0.0012374276)
(0.090830324 -0.00048312709 -3.3450652e-05)
(0.090860837 -0.00051120161 -1.2885836e-05)
(0.090833531 -0.00059349734 -1.2408598e-05)
(0.090794969 -0.00055578704 -3.400707e-05)
(0.094910769 -0.00052299836 -0.00085573515)
(0.094028222 -0.00072547246 -0.0035377542)
(0.093990218 -0.00039309036 -0.0034584839)
(0.094833241 -0.00043479655 -0.00096556719)
(0.092988102 -0.0004989951 0.0026249303)
(0.092962159 -0.00056915526 0.0025377669)
(0.093687501 -0.0006417241 0.0023927109)
(0.093622599 -0.00063975273 0.0024831623)
(0.092974886 -0.0006807309 0.0026172318)
(0.092923304 -0.00063406233 0.0025396515)
(0.093614332 -0.00063321728 0.0024904728)
(0.093652767 -0.00061972295 0.0024004533)
(0.095466316 -0.00066017722 0.0018940498)
(0.094244764 -0.00070580436 0.00213735)
(0.094280385 -0.00062405147 0.0022582498)
(0.095399062 -0.00061763251 0.0019953654)
(0.094253401 -0.0005069223 0.0021047848)
(0.094323624 -0.00064111829 0.0022193163)
(0.095479518 -0.00070812749 0.0019596082)
(0.095503928 -0.0006619223 0.0018524676)
(0.096565097 -0.00069197631 0.00090768443)
(0.096586493 -0.00049718916 0.00099823964)
(0.098146816 -0.00071467485 -5.6972857e-05)
(0.098224773 -0.00070296536 -0.00016405808)
(0.096322092 -0.00047713138 -0.0076662492)
(0.098665772 -0.00059486136 -0.0041997115)
(0.098747991 -0.0006653458 -0.0041019347)
(0.096352786 -0.00099289859 -0.0077226444)
(0.096350477 -0.00045797047 -0.0077082028)
(0.098716516 -0.00072293166 -0.0041038734)
(0.098664324 -0.00076617575 -0.0042036818)
(0.09629857 -0.00096316398 -0.0076502626)
(0.098140464 -0.00072267164 -9.2164028e-05)
(0.096484904 -0.00063800525 0.00086574659)
(0.096549049 -0.00083110298 0.00094971672)
(0.098185188 -0.00068842841 -0.00020484477)
(0.094191868 -0.00073470259 0.0022215057)
(0.09416173 -0.00086344606 0.0021001925)
(0.095414611 -0.00074705581 0.0018526221)
(0.095350708 -0.00070594451 0.0019561439)
(0.093555638 -0.00069651624 0.0023898531)
(0.093527912 -0.00069252149 0.0024848464)
(0.092893464 -0.00079491142 0.002618911)
(0.092829286 -0.00072833494 0.0025384274)
(0.093634001 -0.00071201026 0.0023994494)
(0.092918507 -0.00061209342 0.0026187103)
(0.092903971 -0.00065884525 0.0025347587)
(0.09355968 -0.00069725879 0.0024849021)
(0.095382254 -0.00078620512 0.0019977111)
(0.094189241 -0.00066246154 0.0021400139)
(0.094263819 -0.00074323683 0.0022540586)
(0.095410731 -0.00074606645 0.0018931543)
(0.098629646 -0.0008570159 -0.0040902287)
(0.098585729 -0.00091810818 -0.0041966082)
(0.096279609 -0.00055453355 -0.0077130299)
(0.096216277 -0.0010787306 -0.0076559605)
(0.098613203 -0.00074309033 -0.0041990399)
(0.098702667 -0.00078580077 -0.0041076159)
(0.096284716 -0.00057750681 -0.0076471755)
(0.096305093 -0.0010847121 -0.0077044094)
(0.098169001 -0.00078730415 -0.00020487686)
(0.096467784 -0.0008013044 0.00086225325)
(0.096494496 -0.00060969611 0.00095303536)
(0.098088367 -0.00075278447 -9.5373895e-05)
(0.098061858 -0.00076419395 -5.1775638e-05)
(0.096499271 -0.0009464372 0.00099537657)
(0.096439806 -0.00075845974 0.00091183099)
(0.098102954 -0.00078519443 -0.00016191871)
(0.095090924 -0.00081988562 0.0028787926)
(0.095905587 -0.00089013171 0.0026858157)
(0.095021162 -0.00071722922 0.0027736762)
(0.095934388 -0.00087441942 0.0025880221)
(0.094087511 -0.00086600374 0.0030524853)
(0.094023491 -0.00080305666 0.0029624605)
(0.094572087 -0.00083483138 0.0029011944)
(0.094610091 -0.00080893869 0.0027898028)
(0.094097349 -0.00075958634 0.0030029585)
(0.094645444 -0.00083087359 0.0028317163)
(0.094124265 -0.0006998665 0.0031024238)
(0.094577675 -0.0008596888 0.0029372908)
(0.095018603 -0.00088282224 0.0027665766)
(0.095923144 -0.00084439086 0.0025949695)
(0.095058241 -0.00079969048 0.0028724163)
(0.095866211 -0.00080501697 0.0026833205)
(0.093235184 -0.0007861496 0.0029296855)
(0.093758448 -0.00076060261 0.0028187299)
(0.093273998 -0.00075576135 0.0030458991)
(0.093694402 -0.00075529484 0.0029142378)
(0.093306977 -0.0007506734 0.0030057143)
(0.093767422 -0.00082410553 0.0028775008)
(0.093244089 -0.00066850468 0.0028949479)
(0.093796289 -0.00081861538 0.0027747388)
(0.093064415 -0.00078154323 0.0029731209)
(0.093005563 -0.0007886524 0.003060749)
(0.092650371 -0.00068945174 0.0029786295)
(0.092685027 -0.00065778085 0.0030703555)
(0.09299581 -0.00075777251 0.0030663439)
(0.093041761 -0.00074750062 0.0029777217)
(0.092621393 -0.00076857489 0.0029807046)
(0.092670692 -0.00078014099 0.0030632743)
(0.095044022 -0.00087022671 0.0028740422)
(0.094966497 -0.00079393966 0.00277956)
(0.095846382 -0.00093473751 0.0026931943)
(0.095862442 -0.00089621463 0.0026016741)
(0.094050418 -0.0009257238 0.0031052796)
(0.094501226 -0.00081601901 0.0029506016)
(0.09453656 -0.00084415094 0.0028433427)
(0.094010007 -0.00080672984 0.0029652354)
(0.094594319 -0.00086448123 0.002798531)
(0.094044126 -0.00075307853 0.003065722)
(0.094524691 -0.00084173752 0.0029075383)
(0.094942688 -0.00096603706 0.002784756)
(0.094975536 -0.00087986403 0.0028965027)
(0.095841688 -0.00086293662 0.0026036895)
(0.095777353 -0.00084605885 0.0026973938)
(0.093174099 -0.00089543082 0.0028996619)
(0.093722954 -0.00079443183 0.0027865576)
(0.093259667 -0.00079966081 0.0030436667)
(0.09368089 -0.00085883659 0.0029203915)
(0.093197419 -0.00077241717 0.0029344966)
(0.093717395 -0.00085366876 0.0028216192)
(0.10269242 -0.00092960799 -0.0098904265)
(0.10275793 -0.0009804926 -0.009787468)
(0.098885265 -0.00061880828 -0.013492979)
(0.098838954 -0.0012394943 -0.013434352)
(0.1022584 -0.00070383617 -0.0022287148)
(0.10223663 -0.0009398808 -0.0023331235)
(0.10324815 -0.00088232605 -0.0045278119)
(0.10315827 -0.0010303348 -0.0043945694)
(0.10222002 -0.0010733839 -0.0022829702)
(0.10215778 -0.00084449201 -0.00237465)
(0.10315383 -0.00088983107 -0.0044296146)
(0.10321464 -0.00098527924 -0.0045631851)
(0.10269095 -0.00086419082 -0.009890325)
(0.10278292 -0.00084889086 -0.0097967028)
(0.098861141 -0.00066126365 -0.013461324)
(0.098887697 -0.0012932628 -0.013514605)
(0.09660556 -0.0009470329 0.0026334459)
(0.097882383 -0.00090337154 0.0024539708)
(0.096549893 -0.00083537496 0.0025567046)
(0.097928 -0.00084200139 0.0023566954)
(0.099110617 -0.0006809694 0.0014509213)
(0.099191688 -0.00093313374 0.0015827084)
(0.10101711 -0.00096284403 0.00064475627)
(0.10104153 -0.00091239375 0.00052504312)
(0.096588416 -0.00084402975 0.002558396)
(0.097957502 -0.00091631806 0.0023517901)
(0.096617065 -0.00070553697 0.0026469637)
(0.097885883 -0.00086976622 0.0024493856)
(0.099107235 -0.00098525829 0.0014845331)
(0.09915337 -0.00079886076 0.0016235718)
(0.10100427 -0.00089761397 0.00057133483)
(0.10093776 -0.00085042736 0.00068423391)
(0.10214685 -0.0010199824 -0.0023827066)
(0.10218102 -0.00079367952 -0.0022804715)
(0.10320367 -0.00094345995 -0.0045647345)
(0.10311902 -0.0010347052 -0.0044321642)
(0.10275014 -0.00092524111 -0.009791154)
(0.10265831 -0.00098066935 -0.009881462)
(0.098832085 -0.00072467857 -0.013426967)
(0.098855593 -0.0013472958 -0.013482791)
(0.10263765 -0.0010554411 -0.009879201)
(0.10269743 -0.0010914395 -0.0097762125)
(0.098836816 -0.00067513855 -0.013490519)
(0.098781866 -0.0013127764 -0.013436396)
(0.10219281 -0.0011688296 -0.0022428519)
(0.10214025 -0.0009415695 -0.0023362585)
(0.10309954 -0.00089199015 -0.0043935346)
(0.10316053 -0.0010362611 -0.0045258037)
(0.099039162 -0.0011309406 0.0014346457)
(0.099083351 -0.00088926169 0.0015735998)
(0.10097405 -0.00095346548 0.00051786085)
(0.10091569 -0.00089527999 0.00063434071)
(0.096528855 -0.00091480807 0.0025418548)
(0.097912759 -0.00098107696 0.0023465475)
(0.096545254 -0.00080156658 0.0026270057)
(0.097833323 -0.00090817217 0.0024369415)
(0.099141431 -0.0010149765 0.0016073148)
(0.099059713 -0.00082262215 0.0014759058)
(0.10092813 -0.0010283103 0.00067854574)
(0.10096275 -0.00097284344 0.0005609944)
(0.096524389 -0.0010481767 0.0026241529)
(0.097807663 -0.00093632059 0.00243511)
(0.096461714 -0.00091611572 0.0025456517)
(0.097846059 -0.0008816007 0.0023361544)
(0.093793104 -0.0005168005 -0.016363959)
(0.093667479 -0.0012749352 -0.016485968)
(0.093664863 -0.000358559 -0.016522094)
(0.093783904 -0.001063049 -0.016379182)
(0.093719064 -0.00065644861 -0.016370701)
(0.093586817 -0.0013486245 -0.016510168)
(0.093643285 -0.00047303358 -0.016487421)
(0.093752616 -0.0012130044 -0.01636428)
(0.093827726 -0.00036090254 -0.016382811)
(0.093708732 -0.0010991979 -0.016500648)
(0.092260788 -0.0004557694 -0.0097760587)
(0.092122338 -0.0010254257 -0.009904687)
(0.093688808 -0.00023728358 -0.016537548)
(0.093810799 -0.00092198037 -0.016392495)
(0.093803972 -0.00050165422 -0.016383722)
(0.093675272 -0.0012082443 -0.01652141)
(0.093712797 -0.0002943922 -0.016499134)
(0.093829095 -0.0010488974 -0.016371764)
(0.092173155 -0.00024207718 -0.0098824893)
(0.092293979 -0.00086130254 -0.0097647055)
(0.091299781 -0.00073233771 -0.005034323)
(0.090824272 -0.00038000292 -0.00012935861)
(0.090685994 -0.00038013838 -8.5926496e-05)
(0.090689975 -0.00045342488 -8.60219e-05)
(0.090818649 -0.00045049375 -0.00012942745)
(0.092310286 -0.00028354707 -0.0097677226)
(0.092182466 -0.00090234549 -0.0098821619)
(0.092293013 -0.00069218058 -0.0097809185)
(0.092161959 -0.00012947445 -0.009913024)
(0.090804691 -0.00053021621 -2.1631404e-05)
(0.090788584 -0.00062115514 -2.1534772e-05)
(0.090688224 -0.00063494004 -1.5622496e-05)
(0.090690296 -0.00053755741 -1.5751516e-05)
(0.096351962 -0.00054165382 -0.023784731)
(0.096463086 -0.0012810316 -0.023654495)
(0.096353311 -0.0014682446 -0.02374786)
(0.09647642 -0.00068281574 -0.023640918)
(0.096440494 -0.0014046541 -0.023640648)
(0.096339961 -0.00063593906 -0.023748043)
(0.096418414 -0.00079622837 -0.023645718)
(0.09628869 -0.0015246288 -0.023772068)
(0.096365812 -0.00047399898 -0.023803217)
(0.096476896 -0.0011917734 -0.023671244)
(0.096494613 -0.00057578505 -0.023662551)
(0.096376942 -0.0013387086 -0.023763103)
(0.096384446 -0.00050146338 -0.023764127)
(0.096490934 -0.0012800853 -0.023649731)
(0.096476572 -0.00067831811 -0.023661182)
(0.096351567 -0.0014161133 -0.023784254)
(0.090563114 -0.00044437417 -2.0843864e-05)