/*--------------------------------*- C++ -*----------------------------------*\
  =========                 |
  \\      /  F ield         | OpenFOAM: The Open Source CFD Toolbox
   \\    /   O peration     | Website:  https://openfoam.org
    \\  /    A nd           | Version:  7
     \\/     M anipulation  |
\*---------------------------------------------------------------------------*/
FoamFile
{
    version     2.0;
    format      ascii;
    class       volScalarField;
    location    "1000";
    object      k;
}
// * * * * * * * * * * * * * * * * * * * * * * * * * * * * * * * * * * * * * //

dimensions      [0 2 -2 0 0 0 0];

internalField   nonuniform List<scalar> 
34158
(
1.5208381
1.5196524
1.5192516
1.5189796
1.5199488
1.5215857
1.5206439
1.5195883
1.5225718
1.5224404
1.5190813
1.5194213
1.5192248
1.5190043
1.5197003
1.5198581
1.5224086
1.5213908
1.520479
1.5195402
1.5170924
1.5167996
1.522701
1.5227775
1.5219057
1.5226825
1.5225376
1.5218688
1.521696
1.5217669
1.5217451
1.5216848
1.5216463
1.5217077
1.5167394
1.5166753
1.5174397
1.5177993
1.5180519
1.5191531
1.5184205
1.5194367
1.5192075
1.5190258
1.5178941
1.5179953
1.5195742
1.519521
1.5197889
1.5223972
1.5224279
1.5212345
1.520348
1.5195304
1.5231573
1.5240188
1.5171154
1.5163227
1.5169875
1.516757
1.5218961
1.5192736
1.5229284
1.522094
1.5220572
1.5228975
1.5214597
1.5215158
1.5216386
1.5216063
1.5217035
1.5217526
1.5217427
1.5217034
1.5215149
1.521755
1.5217293
1.5215455
1.5215435
1.5215095
1.5216992
1.5214538
1.521147
1.5211341
1.5210935
1.5211036
1.5209975
1.5209758
1.5210048
1.5209807
1.5210024
1.5210176
1.5209844
1.5211494
1.5211114
1.5211375
1.5210871
1.5211105
1.5211126
1.5210765
1.5210673
1.5209807
1.5209691
1.5209736
1.520968
1.5242697
1.5239361
1.5168731
1.5162407
1.5168655
1.5167144
1.5175929
1.5180629
1.5174246
1.5177448
1.5165136
1.51629
1.5179059
1.5180436
1.5192098
1.5183004
1.518312
1.519452
1.5192068
1.519055
1.5179627
1.5168607
1.5167639
1.5180445
1.5168438
1.5169551
1.5195039
1.5193725
1.5193575
1.5197375
1.522408
1.5224202
1.5224239
1.5211029
1.520237
1.5195479
1.5248012
1.5233316
1.523394
1.5241009
1.5156184
1.517029
1.5155295
1.5162982
1.5155524
1.5157379
1.5156365
1.5221671
1.5202894
1.5192799
1.5182223
1.5181087
1.5182297
1.5185835
1.5184692
1.5216124
1.5214437
1.5215048
1.5216956
1.5215732
1.521533
1.5218081
1.5217885
1.5215915
1.5215902
1.5205824
1.5206608
1.5207971
1.5207175
1.5204242
1.5204055
1.5205657
1.5205671
1.5206443
1.5206303
1.5206271
1.5206295
1.5208695
1.5208679
1.5207936
1.520784
1.5209035
1.5209701
1.5209766
1.5208976
1.5207459
1.5207565
1.5207466
1.5207447
1.5207837
1.5207633
1.5207744
1.5209964
1.5209225
1.5209256
1.5209991
1.5156029
1.521082
1.5210628
1.5212289
1.5212268
1.5211375
1.5211419
1.5212327
1.5211367
1.5211343
1.5212129
1.5210344
1.5211944
1.521183
1.5211014
1.5211008
1.5155656
1.5204374
1.5204398
1.520343
1.5203552
1.5204053
1.5203772
1.520309
1.5202873
1.5201274
1.5201506
1.5201719
1.5201585
1.5202049
1.5202207
1.5202115
1.5201998
1.5201134
1.5201151
1.520154
1.5201519
1.5200677
1.5200425
1.5200906
1.5201087
1.5200251
1.520074
1.5200677
1.5201434
1.5201442
1.5200929
1.5200961
1.5201326
1.5201269
1.5201134
1.5201282
1.5201694
1.5201464
1.5201608
1.5200838
1.5200617
1.520135
1.520124
1.5200457
1.5200493
1.5201206
1.5204508
1.5204489
1.5203647
1.5203555
1.5202181
1.5202312
1.5202152
1.5202101
1.5203596
1.5204457
1.5204304
1.5203308
1.5201859
1.5202002
1.5202048
1.5201897
1.5204277
1.5204373
1.5203548
1.520334
1.5204182
1.5204142
1.5203347
1.5203256
1.52021
1.5201905
1.5201831
1.5201876
1.5202001
1.5202114
1.5202226
1.5202062
1.5201497
1.5200679
1.5200318
1.5201
1.5201536
1.5201095
1.5200853
1.5201161
1.5201508
1.5200722
1.5200656
1.5201285
1.5201569
1.5201206
1.5201125
1.520142
1.5192933
1.5197185
1.519955
1.5251607
1.5240101
1.5241932
1.5236468
1.5152322
1.5169463
1.5154713
1.5162728
1.5175117
1.5177264
1.5167672
1.5175985
1.5173087
1.5180411
1.5174227
1.5177032
1.5165195
1.5151873
1.5154598
1.5163171
1.5151287
1.5153079
1.5177947
1.517907
1.5180484
1.5192497
1.5181389
1.5181491
1.5182286
1.5194608
1.5192167
1.5190905
1.518135
1.5166028
1.5165341
1.5168222
1.516873
1.5182056
1.516687
1.5165618
1.516856
1.5169817
1.5192808
1.5192198
1.5192089
1.5197011
1.5224655
1.5224397
1.522413
1.5209987
1.5201527
1.5195958
1.5248728
1.5249259
1.5202017
1.5235459
1.5154525
1.5154898
1.5154522
1.5155114
1.5157204
1.5155726
1.5138846
1.5141847
1.5155137
1.5153537
1.5155324
1.515528
1.5153855
1.5156846
1.5156594
1.515674
1.5141576
1.5138862
1.5156423
1.5156703
1.5136731
1.5180553
1.5181244
1.5193564
1.519246
1.5194127
1.5193172
1.5194377
1.5194537
1.5178447
1.5177045
1.5181748
1.5184678
1.5180069
1.5182406
1.5181314
1.5177191
1.5177952
1.5177811
1.5177673
1.5177765
1.5177116
1.5177228
1.5177402
1.5177466
1.517852
1.5181309
1.5179018
1.5181604
1.518195
1.5179264
1.5179255
1.5181894
1.5207964
1.5208308
1.5209236
1.5208528
1.5208311
1.5208613
1.5210087
1.5210033
1.5209193
1.5209269
1.513819
1.5209682
1.5209752
1.5137132
1.5211126
1.5211068
1.5210271
1.5210315
1.5211272
1.5210448
1.5211298
1.5210493
1.5194153
1.5193916
1.5195011
1.5195033
1.5196024
1.5197201
1.5198299
1.5196952
1.5199016
1.5198937
1.5197709
1.5197748
1.5195876
1.5195693
1.519585
1.5195982
1.5193301
1.5192161
1.5193034
1.5193934
1.5193276
1.5192716
1.5193722
1.5194086
1.5194706
1.5194526
1.5195095
1.5195198
1.5195099
1.5194058
1.519423
1.5195169
1.5195577
1.5194404
1.5194068
1.5195119
1.5195513
1.5194999
1.5194693
1.519511
1.519455
1.5194667
1.5195168
1.5195047
1.5195217
1.5194087
1.5194082
1.519511
1.5199263
1.5199347
1.5198089
1.5197872
1.5199455
1.5199444
1.5198241
1.519809
1.5196111
1.519628
1.5196363
1.5196081
1.5196085
1.5196014
1.5195881
1.5195887
1.5197277
1.519699
1.5197023
1.5197121
1.5199082
1.5200242
1.5200359
1.519901
1.5200397
1.52005
1.5199269
1.5199018
1.5197338
1.5197234
1.5197048
1.5197041
1.5196457
1.5195851
1.519622
1.5195729
1.5196419
1.5195354
1.5195105
1.5196114
1.5195934
1.5196411
1.5196093
1.5195676
1.5195064
1.51953
1.5196278
1.5196577
1.5196224
1.5197113
1.5196783
1.5195766
1.5196035
1.519653
1.5196199
1.5195141
1.5195431
1.5200693
1.5200762
1.5199477
1.5199296
1.5197265
1.5197461
1.5197426
1.5197191
1.5197681
1.5197432
1.5197577
1.5197769
1.5199524
1.5200631
1.5200748
1.5199432
1.515564
1.5155944
1.5155605
1.515592
1.5205177
1.5205159
1.5205309
1.5205122
1.5205525
1.5205519
1.5205604
1.5205572
1.5205953
1.5205799
1.520581
1.5205811
1.5205901
1.5205884
1.5205972
1.5205896
1.5205778
1.5205809
1.5205939
1.5205747
1.5155919
1.5205022
1.5204875
1.5205642
1.5205506
1.5205531
1.5205542
1.5205797
1.5205573
1.5205565
1.5205609
1.5155192
1.5155949
1.5155258
1.5189797
1.5189723
1.5184973
1.5184888
1.5189128
1.5188495
1.5184267
1.5183484
1.5180522
1.5178329
1.5179318
1.5181428
1.5182074
1.5180006
1.5180146
1.5182182
1.5178792
1.5178596
1.5177699
1.5177952
1.5177882
1.5176815
1.517583
1.5176969
1.5176441
1.5177472
1.5177177
1.5176901
1.5177222
1.5179101
1.5178957
1.5178076
1.5178262
1.5179229
1.5179142
1.5178282
1.5178352
1.5177505
1.5177771
1.517782
1.5177508
1.5177242
1.5177539
1.517776
1.5177469
1.519012
1.5190002
1.5185281
1.5185404
1.5182533
1.5180515
1.5180606
1.5182641
1.5185255
1.5189991
1.5189919
1.5185169
1.5182425
1.5182419
1.5180353
1.5180437
1.5190206
1.5190184
1.5185532
1.5185544
1.5189903
1.5189751
1.5185158
1.5185285
1.5180473
1.518247
1.5182575
1.5180562
1.518285
1.5182805
1.5180793
1.5180886
1.5177452
1.5177744
1.5177676
1.5177313
1.5178256
1.517912
1.5179167
1.5178247
1.5177636
1.5177966
1.5178175
1.5178515
1.5179411
1.5179552
1.5178692
1.5175449
1.5195827
1.5194855
1.5194171
1.5195103
1.5189695
1.5192538
1.5192891
1.5189887
1.5196548
1.5207141
1.5196587
1.5200714
1.5256808
1.5250444
1.5202693
1.5237771
1.5153554
1.5149506
1.5153921
1.5154911
1.517886
1.5175314
1.517509
1.5176875
1.5170019
1.5172269
1.5166659
1.5167236
1.5175964
1.5171955
1.5172735
1.5180135
1.5174307
1.5176696
1.5166392
1.5151454
1.5148884
1.5152277
1.5154538
1.5164545
1.5150158
1.515312
1.5151335
1.5148281
1.5177675
1.5179149
1.5180569
1.5192802
1.5179773
1.5180688
1.5181545
1.5194625
1.5192415
1.519141
1.5183907
1.5166162
1.5163496
1.516409
1.5166453
1.5156663
1.515507
1.5184525
1.5167425
1.516467
1.5163518
1.5166052
1.5156932
1.5155591
1.5191179
1.5190826
1.5190794
1.5196775
1.5225073
1.5224644
1.5224166
1.5209057
1.5248612
1.5251412
1.5198202
1.5202304
1.5152369
1.5152645
1.5153687
1.5154292
1.5156921
1.5156959
1.5157014
1.5156971
1.5156833
1.5156874
1.5156848
1.515688
1.5156392
1.5156298
1.5155233
1.5155164
1.5156518
1.5156404
1.5138202
1.5138089
1.5138213
1.5138417
1.5138298
1.5141041
1.5139436
1.5141616
1.5141836
1.5140003
1.5153757
1.515363
1.5155496
1.5155368
1.5152392
1.5152566
1.5153775
1.5153946
1.51554
1.5155337
1.515552
1.5155614
1.5155237
1.5155304
1.5155518
1.5152406
1.5153703
1.515265
1.5153746
1.5156557
1.5156698
1.5156732
1.5156608
1.5156397
1.5156435
1.5156483
1.5156589
1.5156634
1.5140702
1.5142578
1.5140169
1.5138273
1.5138312
1.5138473
1.5138499
1.5138641
1.5156692
1.515672
1.5156112
1.5156143
1.5138733
1.5156424
1.51567
1.5156668
1.5156426
1.5160691
1.5137738
1.5177902
1.5176172
1.5176754
1.5178353
1.5165999
1.5165819
1.516474
1.5164801
1.5165063
1.5175392
1.5175028
1.5174898
1.5175258
1.517404
1.5174136
1.5174188
1.5174486
1.5174405
1.5161296
1.5177618
1.5177556
1.5178398
1.5178491
1.5178208
1.5178304
1.5179905
1.5182311
1.5179626
1.5181573
1.5178622
1.518079
1.5159424
1.5175139
1.5175143
1.5174947
1.5174898
1.5174503
1.5174541
1.5175544
1.5175508
1.5175191
1.5175154
1.5175448
1.5175431
1.5175135
1.5175072
1.5174551
1.5174637
1.5174688
1.5174568
1.5174695
1.517467
1.517463
1.5174636
1.5174431
1.5174326
1.5174192
1.5174289
1.5174266
1.5174319
1.5174429
1.5174359
1.5173986
1.517426
1.5174409
1.5174128
1.5174072
1.5174339
1.5175202
1.517502
1.5174908
1.5175071
1.5177545
1.5175883
1.5176277
1.5177818
1.5174744
1.5174866
1.5175281
1.517514
1.517648
1.5175879
1.5177568
1.5178033
1.5178968
1.5177263
1.5176972
1.5178594
1.5176458
1.5176391
1.5176018
1.5175985
1.5175462
1.5175399
1.5175337
1.5175364
1.5176418
1.5176214
1.5177902
1.517798
1.5200278
1.5199998
1.5199481
1.5200261
1.5200449
1.5201227
1.5201185
1.5201031
1.520098
1.5200477
1.5137831
1.5137375
1.5201197
1.5201012
1.5201579
1.5201718
1.520174
1.5201454
1.5201531
1.5201641
1.5201674
1.5201355
1.5137724
1.5139238
1.5137711
1.5139295
1.5202224
1.5202052
1.5202513
1.520245
1.5137825
1.5137398
1.5202667
1.5202617
1.5202411
1.5202387
1.5202639
1.5202708
1.5202709
1.5202423
1.5202847
1.5202964
1.5203099
1.5202822
1.5203008
1.5202865
1.5202763
1.5203005
1.5168977
1.5171413
1.5171262
1.5168648
1.5174684
1.5180051
1.5180505
1.5174736
1.5181033
1.5180906
1.517494
1.5175074
1.516868
1.5171382
1.517153
1.5168884
1.5165745
1.5165883
1.5164986
1.5164714
1.5166365
1.5167352
1.5166819
1.5165638
1.5167055
1.5166832
1.5165653
1.51659
1.5164761
1.5164999
1.5165269
1.5165018
1.5164785
1.5164953
1.5164673
1.51644
1.5165534
1.516669
1.5166541
1.5165327
1.5166263
1.5166143
1.516496
1.5165113
1.5164112
1.5164324
1.5164495
1.5164254
1.518069
1.5180772
1.5174586
1.5174523
1.5181022
1.518101
1.5174936
1.5174904
1.5171232
1.5171309
1.5168586
1.5168476
1.5168058
1.5170872
1.5170861
1.516814
1.5168566
1.5171391
1.5171431
1.5168612
1.5175179
1.5181319
1.5181482
1.5175214
1.5181628
1.5181652
1.5175356
1.5175352
1.5168712
1.5171568
1.5171604
1.5168827
1.5165511
1.5166675
1.5165406
1.5166656
1.5164709
1.5164903
1.5164713
1.5164419
1.5166772
1.5165542
1.5165735
1.5166923
1.5165097
1.5164864
1.5164585
1.5168815
1.5167292
1.5167857
1.5166156
1.5167197
1.5167234
1.516604
1.5165976
1.5165302
1.5165403
1.5182015
1.5182056
1.5175802
1.5175752
1.5171977
1.5169176
1.5172031
1.5169159
1.5169159
1.5171945
1.5172952
1.5170468
1.5175733
1.5181922
1.518239
1.5176415
1.5155544
1.515524
1.5155263
1.5155541
1.5156011
1.5155994
1.5155992
1.5156009
1.5155508
1.5155169
1.5155167
1.5155505
1.5155994
1.5155973
1.5155973
1.5155995
1.5199561
1.5199514
1.5199985
1.5199872
1.5200176
1.5200014
1.5200102
1.5199906
1.5194112
1.5194402
1.5194917
1.5194939
1.5195103
1.5195091
1.5195097
1.5194992
1.5156085
1.5156052
1.5156087
1.5156054
1.5199838
1.5199675
1.51999
1.5199748
1.5194783
1.5194823
1.5195076
1.5195088
1.5155615
1.5155613
1.5156113
1.5156082
1.5156084
1.5156109
1.5155667
1.5155027
1.5155089
1.5155661
1.51586
1.5159834
1.5159568
1.5158563
1.5158508
1.5159735
1.5159318
1.5158323
1.516211
1.5158728
1.5158577
1.5161817
1.5161986
1.515862
1.515835
1.5161596
1.515877
1.5157734
1.5158801
1.5157835
1.5158041
1.5156497
1.5157357
1.5157244
1.5157723
1.5157755
1.5161094
1.5161003
1.5156032
1.5159438
1.5160186
1.5157008
1.515994
1.5159035
1.5162424
1.516315
1.5162976
1.5162139
1.5164898
1.5165605
1.5163964
1.5163875
1.5166491
1.5166581
1.516087
1.5160853
1.5164091
1.5164078
1.516499
1.516174
1.5161435
1.5164649
1.5164529
1.5164791
1.5167421
1.5167149
1.5164818
1.5164983
1.5167649
1.5167495
1.5161664
1.5161876
1.5165158
1.5164906
1.5167523
1.5167583
1.5169707
1.5169668
1.5167131
1.5167333
1.5169431
1.5169235
1.5171115
1.5169442
1.5169303
1.5170961
1.5171416
1.5169731
1.5169779
1.5171451
1.5166574
1.5166383
1.5168493
1.516868
1.5166914
1.5164709
1.5165554
1.5167665
1.5168622
1.5166845
1.5167729
1.5169383
1.5170193
1.5168496
1.5168776
1.5170439
1.5170589
1.5170261
1.517156
1.5171857
1.5171591
1.517148
1.5172752
1.517285
1.5172468
1.5171183
1.5171072
1.5172339
1.5173517
1.5172537
1.5172448
1.5173409
1.5173795
1.5172815
1.5172979
1.5173926
1.5167866
1.5168145
1.5170219
1.5169976
1.516746
1.516782
1.5169857
1.5169523
1.517143
1.5169826
1.5169561
1.517117
1.5171832
1.5170209
1.5170059
1.51717
1.5167916
1.5168087
1.5170165
1.5169991
1.5170258
1.5168164
1.5167806
1.5169894
1.5171908
1.5170261
1.516994
1.5171568
1.5171769
1.5170145
1.517003
1.5171637
1.517421
1.5173258
1.5172949
1.5173887
1.5173197
1.5171957
1.5171638
1.5172869
1.5171711
1.5171792
1.5173008
1.5172923
1.5173955
1.5173023
1.5172988
1.5173907
1.5173621
1.5172667
1.5172502
1.5173429
1.5172656
1.5171431
1.5171225
1.5172443
1.5171809
1.5171856
1.5173079
1.5173042
1.5174038
1.5173103
1.517314
1.517406
1.5159223
1.5160514
1.516022
1.5159116
1.515917
1.5160453
1.5160046
1.5158999
1.516279
1.5159404
1.5159129
1.5162312
1.5162821
1.5159486
1.5159264
1.5162461
1.5165795
1.5162563
1.5162149
1.5165335
1.5165216
1.5165619
1.5168233
1.5167819
1.516534
1.5165597
1.5168173
1.5167917
1.5162299
1.5162596
1.5165778
1.516544
1.5162715
1.515948
1.5159055
1.5162164
1.5159275
1.5160531
1.5159938
1.5158936
1.5159183
1.5160423
1.5160018
1.515901
1.5159131
1.5162756
1.5159395
1.5162316
1.5162159
1.5162529
1.5165776
1.5165328
1.5165572
1.5162439
1.516197
1.5165048
1.5164924
1.5165374
1.5167918
1.5167472
1.5165229
1.5165612
1.5168215
1.5167842
1.5160474
1.5159676
1.5159466
1.5160975
1.5159683
1.5159335
1.5161031
1.5160322
1.5159488
1.5163303
1.5159995
1.516265
1.5163255
1.5159932
1.5159583
1.5162764
1.5159461
1.5160738
1.5160481
1.515937
1.5159409
1.5159237
1.5160676
1.5160245
1.5163043
1.5159717
1.5159433
1.5162608
1.5159602
1.5159781
1.5163021
1.5162733
1.5165435
1.5165789
1.5168421
1.5168004
1.5165977
1.51628
1.5162443
1.5165571
1.5165902
1.5162796
1.5162576
1.5165642
1.5165523
1.51657
1.5168207
1.5168019
1.5162642
1.5163023
1.5166256
1.5165829
1.5162498
1.5163053
1.5166219
1.5165643
1.5165531
1.5166018
1.5168562
1.5168091
1.5165758
1.5166076
1.5168657
1.5168359
1.5174311
1.5173386
1.5172926
1.5173853
1.5173328
1.5172099
1.5171665
1.5172873
1.5171558
1.5171515
1.5172698
1.517272
1.5173566
1.5172659
1.5172738
1.5173608
1.5172051
1.517043
1.5170022
1.5171615
1.5170417
1.5168345
1.5167958
1.5169995
1.5167978
1.516808
1.5170066
1.5169962
1.5171551
1.5169998
1.5169972
1.5171512
1.5174089
1.5173154
1.5172923
1.517385
1.5173165
1.5171945
1.5171706
1.5172901
1.5172153
1.517206
1.5173253
1.5173332
1.5171969
1.51704
1.5170106
1.5171674
1.5168055
1.5168443
1.517045
1.5170082
1.5168373
1.5168549
1.5170574
1.517043
1.5172089
1.5170517
1.5170489
1.5172071
1.5174955
1.5176056
1.5176333
1.5179696
1.5178951
1.5172255
1.5175153
1.5176088
1.5173055
1.5176306
1.51796
1.517992
1.5193946
1.5177298
1.5195071
1.518678
1.5192003
1.5192704
1.5187234
1.5187164
1.5196665
1.5224709
1.5208088
1.525744
1.5254104
1.5202413
1.5195486
1.5150868
1.5147543
1.5153177
1.5154113
1.5176911
1.5178472
1.5167128
1.5175286
1.5175061
1.5176509
1.5170675
1.5162987
1.5165826
1.5166815
1.5164279
1.5172561
1.5167476
1.5168666
1.5168048
1.5166869
1.5165538
1.5166203
1.516688
1.5175906
1.5170878
1.5171624
1.5172447
1.5179843
1.5174531
1.5176525
1.5168454
1.5146598
1.514959
1.5151664
1.5148937
1.5140631
1.5137964
1.5166813
1.514768
1.5145981
1.5148634
1.5150493
1.5140193
1.5138063
1.517758
1.5179197
1.5180549
1.5193138
1.5178666
1.5179903
1.5180803
1.5194693
1.5164814
1.5164635
1.516179
1.5161271
1.5155282
1.5155523
1.5156691
1.5156666
1.5156646
1.5156508
1.515655
1.5156676
1.5153722
1.5155593
1.5155504
1.5153819
1.5164334
1.5165599
1.5161161
1.5162121
1.5156905
1.5156881
1.515574
1.5155655
1.5156885
1.5156917
1.5156943
1.5156907
1.5156422
1.5155157
1.5155184
1.5156332
1.5189738
1.518954
1.5189614
1.5225624
1.5225124
1.5224442
1.5248118
1.5251358
1.5193205
1.5196897
1.5150556
1.5153478
1.5156861
1.5156868
1.515683
1.5156821
1.5156848
1.5156835
1.5156867
1.5156877
1.5156865
1.5156832
1.5156864
1.5156891
1.5156859
1.5156818
1.5156843
1.5156882
1.515675
1.5156772
1.515676
1.5156736
1.5156794
1.5156797
1.5156783
1.5156781
1.5156727
1.5156746
1.5156762
1.5156747
1.5156782
1.5156799
1.5156798
1.5156785
1.5156558
1.5156448
1.5156433
1.5156535
1.5156503
1.5156542
1.5156428
1.5156402
1.51557
1.515577
1.515582
1.5154832
1.5154847
1.5155728
1.5156488
1.5156513
1.5156512
1.515649
1.5156407
1.5156405
1.5156351
1.5156351
1.5137877
1.5138011
1.5138119
1.513798
1.5138761
1.5138644
1.513863
1.5138731
1.513886
1.5138767
1.5138671
1.5138758
1.5138841
1.5138749
1.5138793
1.5138707
1.5138666
1.5138679
1.5138731
1.5138712
1.5139031
1.5139449
1.5141449
1.5141351
1.5139492
1.5139501
1.5139666
1.5139675
1.5140923
1.5141063
1.514244
1.5142589
1.5142595
1.5141057
1.5141206
1.5142488
1.5139546
1.5139852
1.513969
1.5139736
1.5152445
1.5154103
1.5153981
1.5152581
1.515413
1.5152624
1.5152571
1.5154304
1.5155601
1.5155544
1.5155728
1.5155804
1.5155515
1.515572
1.5155625
1.5155437
1.5151462
1.515234
1.5152307
1.5151578
1.5151453
1.5151689
1.5152299
1.5152269
1.5153801
1.5153886
1.5153987
1.5154118
1.5153965
1.5153919
1.5154127
1.5154202
1.5155348
1.5155443
1.5155416
1.5155333
1.5155308
1.515529
1.5155364
1.5155404
1.5155552
1.5155595
1.5155651
1.5155602
1.5155628
1.5155607
1.5155658
1.5155683
1.5155203
1.5155319
1.5155228
1.5155282
1.515525
1.5155265
1.5155353
1.5155328
1.5155542
1.5155522
1.5155573
1.51556
1.5151658
1.5151556
1.5152257
1.5152242
1.5153698
1.515366
1.5153835
1.5153905
1.5151528
1.5152203
1.5152273
1.5151725
1.5153771
1.5153725
1.5153904
1.5153984
1.5156427
1.515643
1.5156503
1.5156508
1.5156592
1.5156601
1.5156641
1.5156638
1.5156584
1.5156605
1.5156644
1.515663
1.5156404
1.5156426
1.51565
1.5156488
1.5156237
1.5156291
1.51563
1.5156257
1.5156236
1.5156287
1.5156321
1.5156282
1.5156375
1.5156388
1.5156399
1.5156388
1.5156496
1.5156489
1.5156472
1.5156481
1.5156522
1.5156558
1.5156539
1.5156543
1.5162238
1.5158877
1.5142187
1.5142133
1.5139654
1.514002
1.5144897
1.5142666
1.5140599
1.5140606
1.5140367
1.5140309
1.5138248
1.5138358
1.5138219
1.5138087
1.5138986
1.5138873
1.5138848
1.5138943
1.5139235
1.5139114
1.5139024
1.5139113
1.5138913
1.5138962
1.5138929
1.5138881
1.5139222
1.5139113
1.5163379
1.5163133
1.5156862
1.5162818
1.5161687
1.5156119
1.5138386
1.5139755
1.5139578
1.5138357
1.5162257
1.5162094
1.5156786
1.5156268
1.515988
1.5161552
1.5138434
1.5138048
1.5138015
1.5138356
1.5166927
1.516732
1.5167328
1.5166966
1.5165142
1.5164657
1.5163659
1.516431
1.5164437
1.5163705
1.5162502
1.5163429
1.5161362
1.5161212
1.5162167
1.5162289
1.5161047
1.5161375
1.5162344
1.5162037
1.5161695
1.5161323
1.5162305
1.5162637
1.5167665
1.5167642
1.5167386
1.516739
1.5167567
1.5167562
1.5167635
1.5167652
1.5167578
1.516163
1.5161614
1.5175802
1.517559
1.5175711
1.5175732
1.5175581
1.5176046
1.5176231
1.5176251
1.5176046
1.5176135
1.5176306
1.5176359
1.5176162
1.5176323
1.5176341
1.5177118
1.5177281
1.5177344
1.5177167
1.5178065
1.5178179
1.5179534
1.517971
1.5177531
1.5179002
1.5160343
1.5158338
1.5160363
1.5158432
1.5171552
1.5171556
1.5170374
1.5170355
1.5169634
1.5169078
1.5171489
1.5171527
1.5170165
1.5170102
1.5171465
1.51715
1.5170182
1.5170116
1.51693
1.516939
1.5168794
1.5168682
1.5168719
1.5169346
1.5169271
1.5168648
1.5168072
1.5168368
1.5168235
1.5167924
1.5168204
1.5168281
1.5167978
1.5167901
1.5167721
1.5167606
1.5167671
1.5167781
1.5167707
1.5167598
1.5167954
1.5168262
1.5168065
1.5167741
1.5167608
1.5167952
1.5167627
1.5167216
1.516754
1.5167771
1.5167672
1.5167427
1.5167348
1.516744
1.5167006
1.5166921
1.5172468
1.5172069
1.5170349
1.5170461
1.5171837
1.5171901
1.5170373
1.5170258
1.5168742
1.5169445
1.5169294
1.5168574
1.5168487
1.5169289
1.5169214
1.5168266
1.5138628
1.5192962
1.5192984
1.518636
1.5186748
1.5193556
1.5193677
1.5187303
1.5187329
1.5138092
1.5138619
1.5138086
1.5137392
1.5137387
1.5137392
1.5137386
1.5194231
1.5194013
1.5194078
1.5193889
1.5187561
1.5187495
1.5187397
1.5187323
1.51376
1.5137538
1.5137533
1.5137593
1.5138515
1.5138501
1.5139902
1.5139742
1.5137519
1.5137598
1.5137518
1.5137593
1.5138552
1.5140098
1.5138547
1.5140024
1.5195031
1.5194823
1.5195044
1.5194813
1.5195452
1.519518
1.5195337
1.519541
1.5138063
1.513855
1.5138498
1.5138067
1.5137413
1.513741
1.5137409
1.5137407
1.5188099
1.5188137
1.5188316
1.5188234
1.5188637
1.5189016
1.5188721
1.5188599
1.5151139
1.5152915
1.515589
1.5154243
1.5153011
1.5149305
1.5147682
1.5151425
1.5146915
1.5146996
1.5150774
1.5150641
1.5150336
1.5150446
1.5153454
1.5153369
1.5144005
1.5149479
1.5145462
1.5147951
1.5144339
1.5146083
1.5143343
1.5144761
1.514441
1.5142823
1.5144444
1.5142901
1.5147356
1.5143427
1.5143349
1.5147222
1.5142403
1.5144127
1.5143794
1.5142321
1.5142429
1.5144144
1.514369
1.5142261
1.5146965
1.514291
1.5142553
1.514646
1.5147025
1.5142853
1.514256
1.5146591
1.5149593
1.5149992
1.5153151
1.5152744
1.5150379
1.5146585
1.514612
1.5149935
1.5146237
1.5146626
1.5150518
1.5150148
1.5149856
1.5150155
1.5153282
1.5153082
1.5163394
1.5162342
1.5160923
1.5162186
1.5161993
1.516058
1.5158988
1.5160601
1.5157918
1.5157793
1.5159399
1.5159515
1.516094
1.5159627
1.5159792
1.5161047
1.5160268
1.5158433
1.51567
1.5158739
1.5158228
1.5155926
1.5154125
1.5156608
1.5153217
1.5153255
1.5155674
1.5155676
1.5157639
1.5155644
1.5155706
1.5157703
1.5152979
1.5153082
1.5155626
1.515561
1.5152589
1.515297
1.5155521
1.5155165
1.5157617
1.5155531
1.5155194
1.5157292
1.5157715
1.5155617
1.5155704
1.5157824
1.5161077
1.5159733
1.5159441
1.5160755
1.5159447
1.5157782
1.5157471
1.5159138
1.5158063
1.5157859
1.5159511
1.5159727
1.5161071
1.5159732
1.5160044
1.516134
1.5161239
1.5159845
1.5159435
1.5160831
1.5159489
1.5157725
1.5157326
1.515908
1.515707
1.5156827
1.5158548
1.5158759
1.5160181
1.5158769
1.515904
1.5160379
1.5157472
1.5155249
1.5154888
1.5157085
1.5155178
1.5152511
1.5152129
1.5154805
1.5152029
1.5151953
1.5154548
1.5154647
1.5156664
1.515453
1.5154711
1.5156826
1.5151783
1.5151807
1.515444
1.5154475
1.5151316
1.5151751
1.5154429
1.5154002
1.5156611
1.5154444
1.5154044
1.5156216
1.5156618
1.5154446
1.5154588
1.5156768
1.5160223
1.5158828
1.5158468
1.5159835
1.5158528
1.5156796
1.515642
1.5158149
1.515702
1.5156768
1.5158488
1.5158736
1.5160105
1.5158707
1.5159052
1.5160395
1.5141217
1.5141229
1.5142727
1.5142492
1.514242
1.5141477
1.5143049
1.514115
1.5141708
1.5145743
1.5145125
1.5141244
1.5141284
1.5141452
1.5145573
1.5145343
1.5141538
1.5141531
1.5143128
1.5142874
1.5141683
1.5143318
1.5142947
1.5141514
1.5141706
1.5146223
1.5142019
1.5145736
1.5145884
1.5141837
1.5141654
1.5145705
1.5145343
1.5145466
1.5149359
1.5149258
1.5149773
1.5145811
1.5145368
1.5149331
1.514901
1.5149427
1.5152672
1.5152266
1.5148948
1.5148993
1.515216
1.5152153
1.5148223
1.5148691
1.5151939
1.5151458
1.514912
1.5145272
1.5144711
1.5148583
1.5144941
1.5145185
1.5149141
1.5148891
1.5148591
1.514878
1.5151996
1.5151868
1.5148612
1.5148925
1.515237
1.5152023
1.5149288
1.5145149
1.5144932
1.5148972
1.5144932
1.5144987
1.5149022
1.5148935
1.5148628
1.5148645
1.5151926
1.5151929
1.5145688
1.5141469
1.5141279
1.5145398
1.5141313
1.5142839
1.5142582
1.5141203
1.5141303
1.5142808
1.5141329
1.5142607
1.5141297
1.5145473
1.5141431
1.5145341
1.5141454
1.5141384
1.5142634
1.514297
1.5141253
1.5142477
1.5141518
1.5143085
1.5145755
1.5141626
1.5141203
1.5145237
1.5141532
1.5145696
1.5141325
1.5145466
1.5148471
1.5148813
1.5152176
1.5151791
1.5149234
1.5145268
1.5144831
1.5148815
1.5145063
1.5145224
1.5149279
1.5149121
1.5148827
1.5148901
1.5152226
1.5152184
1.5157333
1.5155078
1.5154721
1.5156957
1.5154979
1.5152233
1.5151887
1.5154622
1.5156576
1.5154364
1.5154555
1.5156728
1.5151803
1.5151715
1.5154376
1.5154477
1.5161063
1.515968
1.5159263
1.5160623
1.5159341
1.515756
1.5157186
1.5158928
1.5156935
1.5156707
1.5158469
1.5158656
1.5160115
1.5158691
1.515894
1.516029
1.5151653
1.515199
1.5154718
1.5154361
1.5156952
1.5154731
1.5154402
1.5156597
1.5156981
1.5154747
1.515495
1.5157154
1.5152094
1.5152029
1.5154741
1.5154823
1.5157401
1.5157124
1.515891
1.515914
1.515889
1.5157121
1.5156788
1.5158534
1.5160527
1.5159128
1.5158796
1.516018
1.515566
1.5153841
1.5156636
1.515831
1.515254
1.5152807
1.5155497
1.5155259
1.5158954
1.5156638
1.515856
1.5160667
1.5157701
1.5155504
1.5155356
1.5157544
1.5152236
1.5152403
1.515506
1.5154916
1.5155443
1.5152635
1.5152247
1.5154992
1.5157741
1.5155473
1.5155033
1.515725
1.5157221
1.5155033
1.5154991
1.5157168
1.515738
1.5157351
1.515909
1.5159111
1.5159756
1.5157965
1.5157461
1.5159222
1.5143255
1.5142151
1.5143603
1.5142038
1.5143273
1.5142197
1.5143699
1.5141992
1.5141921
1.514221
1.5146364
1.5145925
1.5146301
1.5142184
1.5145894
1.5141941
1.5145812
1.5149786
1.5149393
1.5145488
1.5149088
1.5149424
1.5152815
1.5152396
1.5149855
1.5145854
1.5145494
1.5149451
1.5149088
1.5149385
1.5152633
1.5152352
1.5149293
1.5149685
1.5153018
1.5152651
1.5146111
1.5150113
1.5149624
1.5145687
1.5146847
1.5150991
1.5152413
1.5148418
1.5152295
1.5150652
1.5154025
1.5155579
1.5142136
1.514612
1.5142584
1.5146664
1.5142668
1.5142301
1.5144047
1.514333
1.5145529
1.514307
1.5144411
1.5144216
1.5143053
1.514724
1.5148601
1.5144531
1.5155727
1.5155203
1.5155035
1.5155612
1.515624
1.5156225
1.5156077
1.5156106
1.5155548
1.5155546
1.5155594
1.5155591
1.515481
1.5154796
1.5155084
1.5155087
1.5154754
1.5155094
1.5154775
1.5155089
1.5155549
1.5155603
1.515555
1.5155598
1.5156081
1.515608
1.5156092
1.5156092
1.5156051
1.5156061
1.5156062
1.5156053
1.5156056
1.5156059
1.515607
1.5156068
1.5156086
1.5156088
1.5156099
1.51561
1.515443
1.5154688
1.5156681
1.5156876
1.5157581
1.5157478
1.5155092
1.5155125
1.515557
1.5158326
1.5157929
1.515558
1.5155617
1.5158412
1.5155648
1.5158164
1.5158947
1.5156093
1.5156103
1.5158529
1.5158927
1.5158625
1.5156114
1.5156117
1.5156137
1.5159025
1.5156139
1.515847
1.5158993
1.5156148
1.515616
1.5158593
1.5156176
1.5156176
1.5156177
1.5156176
1.5156156
1.5156127
1.5156158
1.5156132
1.5156181
1.5156182
1.5156184
1.5156185
1.5156161
1.5156128
1.5156166
1.515614
1.5158681
1.5156271
1.515911
1.5156275
1.515879
1.5156276
1.5159064
1.5156277
1.5156263
1.5159306
1.5158749
1.5156263
1.5156249
1.515933
1.5156231
1.5158919
1.5155793
1.5155756
1.5155757
1.5155791
1.5155792
1.5155763
1.515635
1.5156298
1.5156171
1.5156203
1.5155921
1.5155142
1.5155806
1.5155481
1.5155415
1.515549
1.5155544
1.5155409
1.5155331
1.5155356
1.5155433
1.5156142
1.5155396
1.5155488
1.5156255
1.5156033
1.51553
1.5155336
1.51561
1.5154806
1.5154871
1.5154716
1.5154947
1.5154234
1.5153709
1.5153346
1.5154457
1.515462
1.5154736
1.5155264
1.5155492
1.5153048
1.5153243
1.5154592
1.5154075
1.5154574
1.5153077
1.5153047
1.5154666
1.5154794
1.5153061
1.5153086
1.5154946
1.515583
1.5155544
1.5155693
1.5155987
1.5155546
1.5155289
1.5155398
1.5155673
1.5156171
1.5156051
1.5156137
1.5156253
1.5156389
1.5156302
1.5156446
1.5156537
1.515658
1.5156428
1.5156573
1.515673
1.5156305
1.5156171
1.5156281
1.5156426
1.5156887
1.5156728
1.5156886
1.5157046
1.5156694
1.5156601
1.5156764
1.5156853
1.5157063
1.5156918
1.5157
1.5157126
1.5157172
1.5157035
1.515719
1.5157311
1.5156161
1.515586
1.5156036
1.5156345
1.5153173
1.5153114
1.5155114
1.515529
1.5153242
1.5153192
1.5155459
1.5155606
1.5156367
1.5156206
1.5156521
1.5156676
1.5156792
1.5156471
1.5156532
1.5156867
1.5157394
1.5157255
1.51573
1.5157437
1.5157209
1.5157154
1.5157213
1.5157262
1.5157163
1.5157206
1.5157263
1.515723
1.5157269
1.5157303
1.5157438
1.5157408
1.515747
1.5157398
1.5157507
1.5157579
1.5157382
1.5157376
1.5157483
1.5157487
1.515765
1.5157575
1.5157573
1.5157637
1.5157684
1.5157602
1.5157673
1.5157746
1.5157417
1.5157391
1.5157509
1.5157529
1.5157434
1.5157298
1.5157355
1.5157474
1.5157638
1.5157553
1.5157577
1.5157659
1.51577
1.5157612
1.5157625
1.5157698
1.5157626
1.5157675
1.5157687
1.515763
1.5157702
1.5157686
1.5157706
1.5157717
1.5157737
1.5157741
1.5157748
1.5157743
1.5157654
1.5157717
1.5157711
1.5157655
1.5157571
1.5157641
1.5157627
1.5157567
1.5157683
1.5157682
1.5157666
1.5157666
1.5157787
1.5157724
1.5157735
1.5157798
1.5157666
1.5157713
1.5157778
1.5157741
1.5156105
1.515611
1.5156116
1.5156109
1.5156065
1.5156061
1.5156091
1.5156089
1.5156846
1.515608
1.515612
1.5156856
1.515692
1.515614
1.5156147
1.5156933
1.5156955
1.5156862
1.5156894
1.515699
1.51571
1.5157055
1.5157166
1.515722
1.5157173
1.5157147
1.515726
1.5157287
1.5156965
1.5156945
1.5157032
1.5157056
1.515694
1.515619
1.5156199
1.5156905
1.515614
1.5156152
1.5156158
1.5156144
1.5156159
1.5156174
1.5156215
1.515619
1.5156259
1.5156951
1.5156211
1.5156995
1.5157033
1.5156975
1.5157065
1.5157129
1.5157044
1.5156952
1.5156943
1.5157036
1.5157144
1.5157145
1.5157253
1.5157257
1.5157236
1.5157168
1.5157276
1.5157347
1.5156469