/*--------------------------------*- C++ -*----------------------------------*\
  =========                 |
  \\      /  F ield         | OpenFOAM: The Open Source CFD Toolbox
   \\    /   O peration     | Website:  https://openfoam.org
    \\  /    A nd           | Version:  7
     \\/     M anipulation  |
\*---------------------------------------------------------------------------*/
FoamFile
{
    version     2.0;
    format      ascii;
    class       volScalarField;
    location    "1000";
    object      omega;
}
// * * * * * * * * * * * * * * * * * * * * * * * * * * * * * * * * * * * * * //

dimensions      [0 0 -1 0 0 0 0];

internalField   nonuniform List<scalar> 
34158
(
426.67668
425.48537
428.19149
427.75438
397.74122
400.19775
419.25448
417.79811
515.39611
515.77128
399.47931
399.82122
419.94844
419.1417
415.74081
386.66079
418.52096
389.37322
409.50788
408.34287
386.70567
387.4602
515.4073
516.82068
387.84715
447.97779
450.20426
389.25784
744.41239
877.11597
873.53861
736.991
741.80888
872.90563
358.80469
359.15928
418.03847
420.22666
419.49492
388.05701
418.83172
388.6406
409.9886
409.71353
533.82374
534.26872
498.84475
404.76235
378.87575
491.96734
409.55776
381.07209
399.05687
397.8931
388.12387
388.38689
363.97868
365.95411
378.67288
379.40746
358.51722
514.60244
448.00001
389.26269
388.0681
449.8451
750.58784
876.50216
878.41873
740.37761
734.48822
868.90645
888.8787
747.45524
453.24476
644.07378
645.39489
524.17555
524.82531
523.42199
646.0647
457.56323
1117.8437
1149.8085
1344.5265
1312.3412
1547.7463
1599.6016
1763.6636
1558.6686
1524.1703
1732.7199
1785.6807
1098.3806
1284.5077
1111.0242
1316.2833
1111.4067
1113.7706
1304.1687
1310.0014
1755.7873
1548.2869
1755.7486
1540.6096
359.84121
359.95889
348.64801
349.97205
371.29258
371.76442
386.89525
389.18318
408.77819
410.51385
534.84345
535.41031
504.2443
409.19046
379.60836
502.81446
409.0896
380.33383
399.21339
399.08927
512.48675
716.34782
702.44123
512.73944
712.88738
705.39186
600.43387
477.20487
396.53857
371.60941
570.22774
478.68554
402.19257
373.75753
389.09022
388.12232
366.26936
366.55876
379.71639
379.88666
376.57232
358.74661
380.17172
360.7618
2214.5585
2244.9475
352.22068
358.58822
2081.3461
448.61195
388.77431
741.01332
865.5682
883.50499
750.94632
648.25474
527.0021
527.33414
647.45305
457.47767
452.73892
641.49011
650.59178
521.35585
526.76607
1346.3522
1147.7115
1125.4214
1319.4945
1798.2761
1605.4924
1560.7626
1764.0025
1746.2678
1541.5164
1567.9812
1791.3858
1114.9041
1099.6472
1294.6092
1323.3968
1301.2534
1110.963
1102.699
1303.6813
1557.6052
1769.9412
1546.8727
1770.8887
1625.6119
1574.8525
1790.8661
1117.9553
1318.887
1367.4733
1156.9319
446.4843
606.85931
607.24022
1010.1963
1000.481
768.98168
765.38971
981.0423
750.49272
758.02277
995.49114
602.81279
990.13954
994.50063
754.23664
755.71487
450.54397
1486.32
1484.9251
1744.7103
1735.3693
1558.97
1599.2189
1827.393
1879.4654
2247.538
2496.7247
2447.1747
2173.9615
2082.3859
2354.1948
2345.4252
2077.0982
2699.5557
2727.5538
2946.6054
2911.4599
2823.6376
2861.6042
3050.0919
3040.421
3428.9055
3278.3428
3334.6346
3482.0816
3438.5584
2754.0745
2774.917
3001.0667
2975.1442
2680.1776
2665.8371
2874.1661
2913.0641
3406.5514
3254.8731
3299.5537
3461.5752
3550.0842
3399.4296
3345.1313
3501.6634
1452.4208
1453.9796
1702.7178
1709.2753
2038.4579
2305.1298
2317.1744
2038.6858
1741.5079
1477.4281
1493.8192
1768.7866
2115.241
2107.0923
2389.0021
2394.4238
1470.6576
1455.0405
1697.1278
1745.6321
1481.8083
1494.6061
1747.6488
1741.1588
2350.7143
2091.073
2076.2724
2356.32
2074.2162
2029.058
2295.9469
2345.3525
3419.0515
3294.9392
3348.4638
3519.0451
2911.2485
2710.4781
2722.4949
2956.028
3398.0756
3257.9381
3293.2735
3466.3121
2875.4217
2655.0825
2696.2552
2923.1278
350.79571
359.52082
359.98669
350.2196
350.43255
372.65824
372.37272
352.67064
353.7979
354.77444
355.67187
408.99758
408.30615
409.38629
378.85546
411.38415
380.80443
398.31089
399.69594
513.51037
715.60656
707.46727
514.08313
717.16815
712.63943
602.84046
490.90033
400.67845
372.02208
596.23243
488.36596
401.86504
372.81032
388.88799
388.68214
478.14947
721.94498
707.15794
683.12083
699.34004
478.6274
710.63739
716.73848
695.8537
686.24754
574.80743
451.51578
388.95452
365.29226
567.49603
451.82353
394.75787
367.2272
380.2736
379.60988
382.88135
360.74283
383.20878
361.14253
420.59522
368.96013
429.03602
372.96428
2050.3507
2070.8891
2239.7831
2224.8688
2057.9801
5200.4114
5164.7512
4588.4371
4573.8681
2072.2114
5260.5732
5180.5008
2240.0058
2245.5143
434.56817
431.2679
351.91307
357.86075
2079.8143
3896.227
3856.6036
3979.6379
3900.1709
3798.0405
3745.4552
2013.7411
2008.2867
645.6694
652.9838
522.61357
527.31699
455.25757
1087.8396
1114.3162
1120.1995
1305.4536
1307.4847
1548.4159
1542.3735
1738.2083
1744.8366
1557.7394
1615.1655
1746.6574
1815.893
1159.7859
1128.119
1315.0278
1368.1775
765.8497
1008.3018
1002.919
762.74338
605.39548
605.43109
979.25829
993.89829
747.21419
754.18198
449.97201
599.57379
619.96876
445.52243
985.30377
986.45671
751.8778
752.45255
1022.8408
759.26031
995.09891
772.36307
2526.4508
2283.0166
2191.5123
2458.1069
1894.7005
1589.6121
1561.2233
1835.7382
1490.5247
1485.2823
1751.9976
1758.0523
2373.8713
2105.966
2093.0101
2353.4861
3510.1945
3430.324
3408.2138
3534.426
3065.6801
2901.7385
2823.9441
3028.4713
2700.0662
2739.4839
2935.5451
2900.3499
3434.8064
3307.1433
3256.6945
3398.7501
3419.8394
3305.1011
3329.9717
3481.3133
2917.5356
2706.2693
2715.0897
2946.3687
2789.9976
2772.2294
2996.7718
3007.5621
3519.1209
3385.4418
3379.9008
3530.8366
1499.8004
1485.738
1748.1334
1781.5427
1452.5256
1460.4947
1721.5812
1715.7107
2054.6481
2066.4796
2341.2635
2342.6056
2391.6056
2106.7864
2133.3014
2420.3806
2394.5005
2131.3474
2100.0367
2382.0108
1761.2828
1488.6708
1481.5888
1750.9451
1468.1987
1453.6276
1706.8339
1738.3947
2335.0513
2054.2781
2081.4681
2366.6013
2979.6426
2779.5392
2981.913
2755.5003
3504.0922
3367.619
3377.143
3531.882
2709.5495
2934.2226
2965.8983
2731.8271
3343.16
3324.3249
3483.6226
2950.6011
2920.0625
3163.7516
3132.9248
2836.019
2777.8231
2999.1875
3069.8954
3464.9604
3385.7811
1497.7338
1484.3192
1753.2083
1779.2991
2141.6088
2397.3538
2111.9406
2445.1519
2513.5686
2247.3683
2296.9079
2575.1064
1864.2792
1576.3134
1613.1305
1918.0212
611.09183
611.35095
614.99884
615.75649
861.91913
841.49558
822.98607
849.22481
1377.3621
1076.024
1071.3655
1370.5898
1305.3006
1027.939
1032.2039
1310.501
1011.1656
1008.5343
1279.6787
1285.2301
1027.1936
1023.5075
1303.4791
1307.6906
610.92112
834.31567
833.82528
1308.8894
1028.5356
1033.251
1312.8842
1287.068
1009.9993
1015.7548
1290.9617
631.4043
606.51737
628.1961
2206.0832
2207.6326
3853.0213
3858.2942
2361.8313
2505.6745
4040.808
4366.944
5649.6921
6914.4892
6604.7142
5290.0989
5114.2015
6416.4109
6326.0143
5079.6125
7499.4908
7662.7963
8815.887
8587.7277
7875.7058
8107.4533
9203.4379
9061.0639
10127.596
9573.471
9848.9595
10815.343
10506.64
7560.1035
7732.1715
8900.4513
8635.3784
7378.0995
7428.1093
8532.5665
8512.0441
10492.589
9537.8134
9540.7032
10528.825
10981.633
9967.719
9611.0587
10538.871
2145.1504
2168.2391
3791.8938
3721.3527
5010.3433
6243.5268
6177.8941
4933.8687
3843.1532
2185.2569
2252.3979
3936.3897
5170.543
5149.2252
6470.3332
6399.6304
2191.6419
2132.8426
3730.118
3828.6955
2192.6366
2234.7168
3901.3045
3800.0611
6391.4503
5136.5076
5033.3337
6299.345
5031.0658
4943.1464
6178.1539
6232.0419
10579.3
9652.0713
9740.7761
10765.33
8663.8958
7565.9845
7516.2105
8670.0058
10514.596
9525.3588
9444.3706
8486.257
7361.7053
7371.5517
8447.9218
350.68477
335.65963
335.39082
343.92669
344.19981
368.56338
360.11068
360.45024
369.2259
349.86028
350.64054
372.26445
372.56638
355.84205
355.51051
355.07121
355.96842
360.74656
396.84132
384.81493
363.03603
379.05516
379.98252
398.61254
398.24465
514.30155
512.34451
478.75885
400.01873
371.30642
496.36428
403.86604
373.26956
388.3381
389.18594
478.80521
714.69252
716.93067
694.40351
691.77432
478.95392
711.36309
689.80665
700.08226
722.12185
588.85131
460.63618
392.50346
365.5625
567.6462
460.10768
393.71718
366.21035
380.04388
379.74369
439.37198
661.25837
627.74193
631.80046
673.74109
1750.5298
1754.428
439.59137
662.99256
627.65925
630.17135
670.91509
1745.6364
1757.1505
537.6198
433.59822
380.91631
360.00333
533.61328
435.81737
386.96517
361.60733
423.71217
374.88056
423.1767
376.2155
465.80441
411.51328
475.90409
415.57502
4981.7258
4897.8946
4719.6423
4831.8046
10044.361
9907.5995
9873.8083
9864.1652
4997.7019
4818.0939
4818.9453
4959.8704
10062.764
10046.597
2071.5152
5159.7759
5268.4964
4684.725
4570.0968
2068.2987
5117.7204
5238.0864
4636.7414
4522.8647
4808.0669
5009.1867
4944.8826
4795.9246
10059.383
8863.9644
8888.5025
10034.475
9936.0197
8777.2326
8800.9772
9911.367
7908.9842
9025.4666
9014.1149
9110.7384
7995.0839
7959.0932
9107.6611
5019.1399
4939.7553
4811.6584
4854.9832
10141.899
8979.6567
10108.527
9923.4384
9957.7833
2076.9169
5236.8356
5225.9383
2072.4911
5150.0987
5271.2564
4597.0028
4666.015
493.8883
455.19458
458.22529
498.69328
433.89936
457.60472
456.65185
497.00434
496.42139
351.77244
430.44252
3834.4958
3770.7292
3834.1798
3919.8145
12275.441
11535.708
11875.767
11695.415
11342.17
3683.4701
3604.9302
3806.7887
3900.1633
3751.283
3747.9304
3641.1047
3735.2613
3867.025
445.77326
971.39207
736.45248
991.49634
994.12764
750.36438
751.8062
1000.1233
1021.8707
756.44897
767.36947
597.52716
616.77656
448.88018
1448.4463
1442.2465
1701.7455
1730.8334
2071.1182
2338.629
1471.7279
1472.2213
1712.9865
1751.3436
1481.4292
1504.9211
1754.0307
1754.9412
2088.5412
2083.4185
2320.7402
2349.4942
2287.7141
2038.815
2086.8747
2351.9609
2827.4906
2651.6915
2699.8831
2900.1745
2698.3327
2626.6196
2815.5038
2903.8818
3260.7921
3396.982
3293.6136
3163.9114
3257.8259
3400.9053
2830.3136
2657.1323
2765.7434
2962.8941
2893.7087
2811.6401
2990.21
3062.5806
3329.0761
3175.3732
3273.1559
3452.6158
3435.6212
3344.1384
3403.7498
3505.843
1605.9792
1583.243
1845.6004
1913.4727
1494.2923
1505.8287
1750.3364
1781.2966
2322.221
2080.5469
2129.9125
2402.2597
2456.0036
2204.0279
2280.4572
2540.3534
861.77707
1070.584
1366.0892
1362.9944
1064.6992
1031.6568
1027.8852
1300.8337
1307.9116
840.36522
613.39394
614.02579
820.60384
843.2862
1276.8411
1002.8519
1005.1152
1280.3194
1303.7637
1018.4867
1021.9562
1305.7162
603.21592
625.0875
608.07638
628.68537
826.74012
824.18804
835.65348
879.73235
609.80268
609.96043
1023.4589
1018.4124
1298.4413
1305.9491
1281.5392
1003.3947
1009.6857
1288.3309
1376.2782
1066.6367
1080.3968
1389.6437
1025.5384
1306.1114
1313.9529
1030.0077
7024.3456
5744.9229
5392.0632
6712.171
4375.3236
2481.5896
2358.142
4085.5085
2212.7613
2215.8624
3889.1894
3868.7013
6505.4267
5171.1404
5111.6118
6363.4595
10803.729
10018.197
10085.542
11006.608
9160.0714
8154.8207
7950.53
9083.5064
7543.6725
7754.812
8890.8577
8624.7722
10817.222
9891.5758
9586.6153
10484.624
10488.779
9603.8477
9673.6922
10639.78
8640.9511
7543.6705
7506.1872
8644.5888
7701.1031
7791.8201
8944.2458
8800.4692
10886.68
9954.3201
9785.8788
10709.692
2273.0759
2194.6337
3872.9796
3980.0624
2147.9028
2171.1157
3832.6819
3758.9144
5005.2445
5086.0251
6344.9597
6277.3765
6528.3353
5182.1831
5240.5536
6502.2455
6587.1072
5266.1202
5125.7122
6433.6735
3942.2051
2243.8967
2198.5133
3843.4515
2190.744
2129.4374
3766.7765
3850.6869
6363.0151
5041.2791
5102.6794
6355.4995
8908.9571
7799.3918
8852.9617
7680.0096
10769.262
9874.403
9904.8146
10892.656
7611.3899
8767.3053
8645.5255
7541.8616
9640.424
9804.4548
10775.038
8197.2043
8067.8315
9267.1358
9193.0499
7806.4192
7752.3729
8878.1953
8969.3514
10016.21
9857.7501
2225.6828
2205.744
3895.1631
3910.6806
5214.7018
6512.8538
5194.5713
6537.979
6820.6031
5464.0273
5698.4663
7000.0578
4107.2968
2365.4696
2536.657
4379.0144
702.6366
703.28234
776.42145
775.2802
694.93799
690.58277
759.16755
767.36781
953.40096
974.72389
933.62009
918.71834
963.03398
922.85379
891.53877
924.28164
1186.0584
1179.0069
1125.3807
1133.7794
1111.1972
1112.6565
1121.3843
1132.5016
1811.9262
1774.9755
1674.505
1674.1747
1645.7455
1642.9676
1672.751
1684.4612
929.09585
934.43451
902.45553
899.43299
1130.409
1134.9516
1103.1676
1113.8295
1690.8077
1677.9397
1636.9061
1642.4094
915.34232
943.72275
692.43793
693.07861
767.61567
765.80095
700.68707
708.44653
781.43876
771.74449
4407.1327
6350.0229
6510.7551
4498.4721
4486.1792
6472.4846
6409.9299
4479.5822
10800.722
10589.691
10811.98
11015.128
10994.25
10779.267
10574.071
10840.494
6861.3014
4790.9093
6799.341
4776.9307
7250.7461
5677.7913
8288.7219
5111.4623
11042.904
11198.251
11190.853
11289.274
13172.225
12826.475
11796.161
11608.46
13084.589
13811.023
13562.108
13294.927
14702.922
14696.26
14413.644
14649.761
13971.77
14251.477
14335.501
14022.131
12426.988
12463.852
12740.568
12611.73
12573.7
12299.131
12103.715
12407.396
13821.295
14047.054
14052.63
13921.092
13671.655
13698.212
13700.219
13616.641
12220.833
12071.32
12290.876
12384.172
14770.015
14971.757
14734.85
14513.574
15212.671
15353.615
15104.871
15054.123
15861.363
16238.076
16191.864
15895.616
15516.372
15866.711
15536.103
15213.33
15268.915
15706.205
15500.121
15075.188
15172.874
15523.022
15897.47
15577.139
15747.495
16166.433
16647.327
16226.474
16349.37
16691.328
16153.602
15840.599
16841.04
17466.008
17123.443
16561.508
16195.557
16589.83
16252.34
15921.387
16568.263
16919.592
16957.551
16670.036
17287.601
17639.293
17722
17439.514
16997.452
17326.029
16902.103
16633.62
15024.452
14818.86
14596.477
14731.655
15763.39
15458.393
15287.001
15592.931
16252.385
16531.962
16799.762
16518.359
15417.16
15735.845
15751.111
15383.503
14694.01
14716.152
14533.313
14571.868
14362.283
14592.303
14930.94
14752.913
15127.7
15475.612
15892.554
15609.175
15425.154
15713.256
15746.845
15520.186
16578.241
16914.055
17550.527
17271.339
15866.313
16163.871
16706.299
16447.67
16611.902
16526.487
16259.572
16391.926
17116.32
17376.481
17475.807
17229.69
17992.214
18360.541
18558.673
18276.574
17160.327
17450.931
17670.753
17406.649
16333.825
16493.636
16166.81
16015.315
16908.024
17228.456
16955.608
16673.129
4185.7978
5968.4024
6108.4381
4268.2239
4454.9247
6390.887
6246.8227
4348.1944
10777.578
10618.357
10361.501
10693.801
10317.704
9996.0807
10188.205
10504.472
12133.915
11983.938
11969.201
12245.966
13603.021
13437.762
13378.636
13656.156
13344.914
13317.272
13401.696
13430.176
11751.18
11614.658
11912.676
12024.007
10825.721
10446.481
10582.229
11003.631
4280.8019
6202.5481
6349.0322
4370.1184
4505.8334
6443.9671
6830.3881
4719.7456
11220.377
10839.4
10687.315
11346.141
12564.326
12086.458
12263.794
12707.589
12563.256
12231.537
12438.586
12839.388
14309.074
14023.56
14090.711
14419.413
13975.37
13585.639
13571.019
13882.506
6572.7919
4310.9273
4514.6091
6208.9831
4204.4288
4271.3611
6058.3071
6126.8708
10175.439
10469.187
10193.889
10500.397
10622.568
10385.121
10846.309
11026.377
4300.9602
6177.7252
6259.3546
4374.3386
4634.5181
4530.6564
6623.2154
6434.3512
11076.497
10904.186
10547.451
10825.961
10390.159
10319.579
10649.248
10706.081
13706.049
13792.559
13622.145
13732.8
12465.025
12327.431
12082.41
12343.535
12305.631
11972.185
11956.797
12226.044
13544.368
13746.076
13808.454
13617.903
12192.114
11883.011
12061.32
12304.197
11771.529
11735.881
11950.308
12078.632
13429.834
13281.266
13301.783
13522.093
13517.235
13386.132
13383.942
13455.397
16212.939
16569.001
17471.994
17141.698
15624.641
15998.776
16708.134
16411.926
16802.509
17150.536
16875.258
16607.52
17780.171
18058.652
17721.681
17537.016
15025.517
15421.427
15914.476
15612.952
14416.832
14743.222
14968.578
14780.155
14851.565
15132.291
14973.246
14738.681
15941.087
16196.162
15888.307
15686.319
16933.303
17290.491
17675.281
17365.672
16180.558
16498.245
16787.077
16553.785
16238.409
16584.111
16312.933
16021.358
15336.196
15585.311
15848.259
15636.218
14784.208
14555.51
14397.501
14670.795
14587.926
14641.189
14468.237
14388.826
15407.026
15654.743
15452.346
15199.673
350.54213
343.66301
335.15226
335.76551
344.35839
368.37776
360.02011
360.35363
369.12046
335.59257
335.58644
344.31459
349.62997
345.25464
349.90897
403.99232
372.53645
372.29059
403.41757
352.85953
355.02716
355.73186
356.34705
393.54292
364.96851
365.14321
383.69088
401.56593
415.99984
400.52675
406.47157
402.67058
371.85765
405.04266
372.48832
388.77954
388.692
479.29625
720.03207
712.57545
688.77954
698.63119
478.0029
702.42385
680.88368
694.60101
718.65423
566.92488
458.38859
391.31028
365.15756
574.47596
461.38955
396.25714
366.69456
379.82468
380.04406
439.48089
627.89108
667.38279
670.24796
631.74094
1763.9094
1756.1893
439.5387
627.06044
631.20278
673.64095
663.65577
1766.2416
1754.2509
549.44007
440.58913
385.55423
359.98176
551.23641
441.66386
386.54431
360.62626
565.75268
559.98688
523.55652
522.52879
1390.0551
1069.2645
1059.1119
1383.2995
4156.7352
4211.9034
4425.8687
4385.3927
4246.4272
4175.0622
4390.2341
4424.4588
565.38427
560.19398
524.37171
522.31513
1382.792
1060.4985
1067.8516
1392.8236
4200.4488
4142.9745
4327.2886
4424.6944
4229.6609
4182.3504
4405.0524
4416.5885
495.17885
421.08296
372.60483
505.37109
426.0274
379.09502
493.83804
414.86741
471.3231
413.47334
443.098
448.90795
10044.428
9553.4759
9753.716
10224.949
9539.86
10064.743
10030.117
9557.9835
10104.617
10124.267
9359.5275
9390.3492
10135.15
10297.099
9578.7904
9396.1132
14004.56
13988.828
14576.497
14627.897
14013.596
13883.696
14531.505
14548.993
14466.271
14464.475
13895.3
13778.029
14467.009
13845.184
13881.941
14454.158
10251.277
10222.788
9745.8009
9726.4306
9546.7829
10313.635
10294.998
9572.6451
9394.7854
10134.127
10036.618
10150.103
9682.0507
9546.2308
14683.389
14673.772
14011.248
14133.705
14683.84
14103.091
14064.76
14667.927
4932.1642
4762.5394
4892.4054
5037.3407
9908.2031
8765.5853
8840.7887
9956.7316
10134.701
10073.557
8926.3154
9006.987
9221.4735
9181.3169
8123.2099
8059.5188
7981.5743
7913.2988
9017.4059
9066.8056
4913.0084
4730.6708
4876.8506
5047.296
9838.4466
8691.772
8792.9269
9924.6071
10039.355
8865.4136
8902.1589
10039.303
9105.0528
9108.2191
7970.3195
8004.1702
8943.6065
7922.308
7839.3794
9014.9864
10346.121
10304.23
9558.4863
9545.18
9751.0664
9753.1178
10292.661
10237.432
10101.317
9587.4107
9604.0132
10063.998
10177.569
10147.509
9445.0681
9419.229
14647.503
14676.233
14092.364
13950.813
14188.052
12580.187
12670.172
14287.615
12678.749
14327.165
12665.815
14242.175
14704.628
14098.111
14051.33
14668.421
14668.894
14627.674
14075.696
13995.644
14235.059
12604.822
12650.254
14273.292
12501.367
14109.868
14038.319
12497.565
14467.522
13877
13845.157
14467.515
10873.931
11956.316
11968.212
10880.601
11820.18
12779.225
12789.104
11839.505
12664.608
11713.515
11722.569
12635.127
11810.527
12753.916
12811.169
11866.033
12010.706
10907.109
10918.908
11981.434
11953.04
11982.31
10901.313
10861.339
12843.166
11872.016
11869.069
12801.686
10263.44
9775.7532
9778.7553
10224.022
10051.823
9553.9715
9652.8615
10115.321
10142.567
9405.251
9494.9512
10194.327
10370.949
9620.3071
9628.0142
10333.193
14750.818
14730.758
14220.267
14115.991
14345.727
14414.489
12816.582
12744.012
14740.745
14188.063
14148.474
14725.214
14047.605
13942.674
14593.888
14587.375
14500.367
13893.674
13908.934
14510.355
2064.9248
2100.79
4838.3158
5028.3235
4998.2721
4849.4542
10141.925
10037.903
10049.898
8894.4449
8908.2298
10018.881
5034.8587
4864.5629
4784.1089
4920.3849
9877.4671
8741.2581
8781.3691
9883.5186
10208.303
9033.1209
8965.2804
10070.996
7897.4293
8991.1328
8991.3255
7928.0124
9287.923
9191.1406
2024.9202
2072.6093
606.82705
482.00341
481.94366
607.71063
455.11106
457.96207
497.75644
493.05859
481.13125
482.68066
606.87382
606.9409
433.30304
429.96714
457.3954
456.46112
496.29964
495.8714
11570.052
11414.094
12215.191
12336.289
17123.703
17365.695
17865.835
17624.015
16505.504
16810.399
17250.812
16961.56
18023.17
18450.136
18143.357
17824.249
18636.023
17959.27
17660.191
18365.152
17357.258
18134.414
17852.635
17181.376
11604.065
10832.932
11556.055
12403.741
11402.503
11288.93
10964.472
11818.223
12116.59
609.05512
615.61597
828.68069
1255.5569
990.00467
993.80917
1253.0725
1303.003
1018.6501
1024.0704
1300.4677
1288.732
1005.6076
1010.2479
1285.0743
827.32112
825.52444
1310.1671
1026.0662
1028.9023
1306.5862
1373.847
1063.8435
1075.1904
1378.566
835.25901
877.63772
606.35635
626.04041
602.74208
623.68513
2239.4137
2177.7262
3860.282
3959.7765
5221.881
6455.5644
2185.9686
2137.6667
3739.1685
3869.8616
2194.2161
2232.5799
3897.1212
3838.1327
5095.9445
5098.2061
6270.7812
6366.3225
6142.2668
4936.4276
5133.6737
6388.0461
8359.0466
7359.2534
7561.8952
8659.0808
7562.564
7268.0229
8310.5076
8637.1142
9634.7088
10545.513
10124.234
9245.8009
9587.8397
10467.834
8379.8767
7368.7806
7724.6039
8831.9735
8112.4105
7849.771
8896.3833
9126.1142
9809.1892
9253.3051
10068.675
10713.659
10628.887
9798.7001
10004.998
10813.185
2520.1539
2357.3958
4093.1805
4380.0435
2220.2957
2221.9891
3855.0381
3917.1514
6259.7891
5061.7705
5209.6507
6502.3988
6679.2718
5390.8461
5698.5906
6964.2551
931.93727
1180.007
1170.8996
1792.2545
1757.7005
1128.4735
1120.974
1663.1251
1664.4526
915.45258
971.25222
948.43737
918.88339
955.99807
889.68124
919.31926
1104.7705
1106.3273
1117.1992
1128.4403
1633.7751
1634.0565
1668.0114
1683.6251
689.28305
689.53923
762.19738
763.06597
697.20783
767.31331
704.46512
779.42078
922.15769
923.74795
896.89256
891.60385
935.30302
1006.773
906.43501
956.94214
1122.6838
1126.2574
1096.4341
1111.7362
1129.8178
1136.5024
1172.6739
1199.4369
701.21356
702.29866
774.48898
773.27249
689.77144
757.95232
693.31116
765.59601
1682.4772
1673.446
1631.1821
1648.1811
1783.1029
1823.4864
1678.5777
1687.9279
14488.267
15027.948
14548.383
14268.246
13940.17
14193.117
13161.087
13223.064
12589.212
12906.796
13094.745
12782.306
14123.694
14487.638
14429.316
14086.958
11758.63
12949.431
12934.272
11894.738
5475.5061
7929.3801
5124.1076
7270.3559
6804.8359
4791.8177
6884.5667
4773.6401
11551.782
11304.917
11159.071
11340.166
4456.6185
6365.3197
6510.8843
4516.0103
4525.139
6504.7855
6446.0935
4476.098
11046.904
10824.116
10696.54
11033.107
10830.635
10608.877
10858.485
11044.673
14267.649
14125.503
14080.588
14317.134
12632.404
12350.793
12405.02
12742.69
12291.169
12150.881
12398.647
12421.002
13687.385
13826.508
13843.829
13593.532
15994.331
16390.551
16740.34
16383.676
15602.849
16076.013
16281.194
15886.903
16661.417
17149.186
16762.126
16341.304
17396.941
17768.612
17293.55
17016.868
15292.131
15827.708
15900.714
15431.261
14999.045
15519.108
15364.156
14984.701
15278.611
15683.473
15407.51
15025.734
16116.444
16506.341
16059.022
15703.299
14734.147
15127.549
14876.591
14453.54
15636.317
15309.522
14998.019
15378.887
15649.372
16052.876
16502.614
16103.283
15598.411
15986.876
15451.526
15097.156
16935.376
17293.503
17829.982
17514.888
16289.299
16633.869
17142.708
16785.557
16035.716
16636.985
16282.095
15731.741
17009.418
17332.532
16659.708
16395.173
16280.569
16671.034
17172.227
16780.075
15758.897
16149.449
16580.476
16205.373
16535.946
16974.438
16646.564
16278.959
17377.936
17735.981
17312.105
17026.466
15183.206
15612.735
15888.985
15529.235
14553.664
14831.058
14988.895
14770.97
14759.594
15083.681
14931.971
14617.806
15845.398
16124.076
15738.852
15487.808
15033.85
15298.846
15090.957
14789.615
15867.175
15465.697
15163.129
15649.838
15934.261
16306.385
16868.842
16510.335
15904.405
16251.808
15836.344
15489.3
17258.104
17639.749
18308.604
17955.374
16613.429
16962.277
17596.438
17241.522
16458.279
16985.228
16625.078
16146.132
17341.746
17697.938
17106.552
16811.503
4616.9112
4749.3306
6706.3241
6812.595
6418.231
4340.8648
6282.115
4422.235
10568.39
10903.44
11106.791
10674.334
11208.616
10991.211
11109.65
11321.409
4215.7153
4301.1528
6078.8235
6168.3661
4488.0106
6473.2644
6273.7376
4367.0851
10441.414
10980.212
10782.797
10777.576
10572.601
10197.957
10302.421
10579.657
11846.075
11912.202
12230.354
12113.487
12381.284
12229.404
12084.734
12339.28
13703.639
13703.018
13624.174
13722.875
13448.225
13648.566
13740.913
13507.164
14431.186
14173.309
14165.577
14490.625
12652.797
12298.853
12550.5
12914.438
12557.709
12365.466
12591.138
12682.724
13938.482
13977.485
13991.575
13857.112
14180.613
14129.807
13941.48
14138.197
12813.115
12697.18
12434.818
12727.676
12076.282
12310.317
12637.24
12362.202
13703.656
14097.558
14144.471
13735.377
11357.629
11094.702
10667.371
11026.808
4676.0513
6710.9359
6460.6048
4543.0934
4320.7067
6231.8183
4371.8723
6263.7434
10457.365
10883.531
10460.899
10774.561
4308.9127
4507.8999
6498.7585
6207.1495
4231.1072
6121.5637
4208.8205
6106.7783
10709.103
10339.66
10256.567
10651.465
10422.436
10743.7
10831.799
11033.041
13878.379
13897.989
13887.085
13981.276
12408.674
12074.764
12025.902
12398.037
12295.273
12091.738
12352.145
12457.785
13743.151
13742.749
13763.302
13696.028
15362.222
15780.448
16262.171
15861.545
14781.281
15100.048
15414.879
15159.071
16209.143
16538.821
15968.524
15714.894
14971.157
15491.38
15311.226
14827.031
16526.557
16861.195
17594.871
17295.064
15924.956
16304.766
16880.821
16555.906
16789.699
17376.466
17024.441
16545.255
17820.522
18154.38
17603.675
17365.581
15318.714
15157.895
14906.18
15175.675
15702.811
16038.037
16382.071
16106.556
15754.879
16062.932
15768.995
15470.076
14883.233
15055.01
14866.089
14676.616
16489.768
16893.193
16529.722
16202.242
16457.105
16765.955
17230.26
16951.762
17231.796
17542.805
18076.195
17791.634
15862.769
15894.607
15526.201
15391.689
15946.419
15543.968
15263
15650.63
16103.006
16580.419
16320.188
15839.657
15994.046
16363.275
16746.147
16377.15
15656.987
15336.064
15192.853
15463.268
14748.869
15109.124
15615.06
15375.936
15399.202
15834.462
16564.781
16192.013
16139.812
16411.806
16621.731
16313.754
17411.714
17286.444
16981.481
17111.043
15958.525
16330.108
17249.383
16887.735
6499.6922
4361.9985
6202.5516
4509.6381
6343.3897
4442.219
6425.5243
4410.6258
10577.379
10782.826
11068.478
11001.167
10736.064
10353.355
11217.547
10843.114
12117.814
12438.946
12906.587
12595.484
14216.972
14024.197
13908.049
14258.31
12620.695
12403.858
12415.68
12743.174
14317.812
13872.754
13963.351
14343.752
14738.047
14369.88
14267.657
14666.81
12753.552
12953.672
13276.929
12956.416
13266.542
13413.282
13842.702
13842.725
15111.331
14790.868
14670.626
14795.274
11228.611
11520.728
11122.72
11364.528
4690.6813
4848.9296
6709.6738
6901.1607
8062.0743
5224.7348
7492.2751
5603.239
11984.947
11990.063
12627.291
12741.552
806.90466
807.34451
1093.3163
1085.7678
797.43664
796.39465
1068.4593
1070.8961
1312.3938
1144.0206
1148.5565
1326.2351
1386.9171
1204.4102
1188.2618
1374.5355
1506.2069
1460.367
1734.1305
1670.0066
1379.9083
1424.6935
1593.4079
1625.2643
1304.6
1133.8312
1143.9456
1323.5249
1118.5412
1121.6642
1296.2393
1291.3687
1362.5295
1575.0068
1559.1818
1343.267
1367.6499
1574.2575
1439.6423
1652.1716
2892.0075
2835.5223
4308.7483
4116.6437
3833.094
3824.085
2710.5309
2721.2398
2584.8719
3599.0449
3608.0411
2577.9428
2558.0858
3550.4717
2598.6066
3614.4898
3550.8219
2553.4474
2542.6098
3538.1114
3395.5266
3452.4951
2470.8336
2508.3696
2516.9108
3460.8232
2537.1955
3534.0803
3602.273
2581.207
2659.8533
3747.1238
1141.329
1144.6935
1320.6938
1314.8785
1119.7692
1129.6775
1284.6997
1307.9726
1400.6351
1384.2362
1615.7955
1595.6297
1338.1728
1417.0054
1542.3065
1615.7847
3680.073
2637.379
3717.7318
2615.2866
3547.0156
2532.2922
3501.5834
2562.3931
2476.5533
3406.5323
3461.3993
2490.9909
2512.1065
3484.0778
2573.5699
3598.7885
1402.5388
1401.6074
1149.7479
1149.3211
1331.7995
1339.2835
794.75027
797.59587
1071.0806
1070.341
809.13926
810.84466
1090.8352
9611.4616
15343.019
15830.732
9936.0351
9914.5877
15732.218
15339.537
9659.8128
35909.443
22022.492
22544.202
36393.911
36529.977
22402.956
21870.944
35491.537
16484.986
10355.973
16103.974
10387.144
17169.492
13084.649
19884.732
11287.294
22556.106
23263.696
36578.728
36824.254
26523.635
41073.973
37761.97
23403.481
41399.845
43600.564
46136.455
44927.524
48525.997
48830.382
51545.68
51810.168
46617.103
47506.715
51041.544
49909.437
39872.027
40097.469
43680.87
43090.625
43688.1
40093.503
39009.455
42565.153
46277.088
47405.123
50762.232
49715.559
46252.571
46451.829
49752.3
49268.1
39685.991
39394.191
42844.521
42915.075
52169.111
52916.386
55590.333
54579.965
53021.842
53945.087
56616.045
55796.348
61183.401
59072.235
58440.626
60668.084
60289.834
58097.454
56893.294
58969.774
53096.115
54411.114
57245.006
55717.722
56597.943
54186.949
54893.918
57562.184
60811.804
58871.243
59917.045
62095.524
62206.461
59863.906
58214.738
60351.059
62566.997
64508.334
66695.89
64598.814
61116.31
62520.15
64578.142
63150.022
65312.587
63350.31
63013.481
65111.409
69478.533
67555.537
67436.401
69473.47
68860.55
66815.077
65291.251
67282.817
52609.114
52441.659
55083.548
54994.944
54053.863
53777.748
56565.9
56816.128
61769.463
59322.99
59523.83
61885.231
59850.254
57621.731
57270.571
59249.396
51548.025
52089.034
54807.445
54270.078
54364.37
51869.917
52425.599
55116.864
58991.275
56887.725
57725.005
59984.669
59749.536
57479.347
57041.197
59448.53
67310.365
65381.317
67005.12
69116.037
63205.419
61166.733
62379.16
64587.142
61930.026
62067.476
64225.636
64182.658
68799.791
66607.907
66643.281
68803.883
71254.378
69084.865
69131.097
71290.499
66587.893
64297.35
64373.892
66636.833
61263.69
62108.524
64141.759
63155.085
68364.025
66348.862
65145.901
67047.988
8936.0201
14230.256
14680.481
9249.7681
9869.2777
15576.199
14945.139
9396.9123
35973.069
22161.817
21431.059
35216.083
34361.04
20696.003
21204.04
34759.691
42557.118
39306.15
38818.961
42318.981
45888.76
45894.489
48916.225
49187.502
45103.66
45358.772
48783.055
48350.129
38255.853
38045.709
41638.898
41624.009
35857.056
21689.871
21787.102
35947.889
9445.7776
15079.486
15163.171
9477.331
9767.4059
15557.043
16646.766
10500.807
23358.521
36024.03
22257.121
37180.673
40416.508
39412.164
42765.551
43588.264
43380.807
39690.166
39816.698
43544.939
47285.034
47066.414
50465.85
50731.115
46820.053
46158.454
49367.383
49761.479