/*--------------------------------*- C++ -*----------------------------------*\
  =========                 |
  \\      /  F ield         | OpenFOAM: The Open Source CFD Toolbox
   \\    /   O peration     | Website:  https://openfoam.org
    \\  /    A nd           | Version:  7
     \\/     M anipulation  |
\*---------------------------------------------------------------------------*/
FoamFile
{
    version     2.0;
    format      ascii;
    class       surfaceScalarField;
    location    "1000";
    object      phi;
}
// * * * * * * * * * * * * * * * * * * * * * * * * * * * * * * * * * * * * * //

dimensions      [0 3 -1 0 0 0 0];

internalField   nonuniform List<scalar> 
101481
(
3.9488329e+43
-3.0299725e+43
-2.8628699e+44
5.0916079e+43
-2.6711594e+43
-2.8929107e+44
5.2941311e+43
-3.6197881e+43
-2.7531448e+44
-3.0630723e+43
-2.8526349e+44
-3.8569972e+43
5.0315581e+43
-1.2466791e+43
-2.7939942e+44
1.4460587e+42
-2.6001523e+44
3.8368806e+43
-1.4645319e+43
-3.0890681e+44
4.1616761e+43
-1.5289202e+43
-3.070238e+44
-2.5221396e+43
3.4246693e+43
-3.243458e+44
-1.1111536e+43
1.6777371e+43
1.3528012e+43
-1.5540786e+43
-3.3181299e+44
-1.2238109e+43
1.6066117e+43
-5.4839849e+43
-1.061824e+43
-2.6479093e+44
-1.143945e+43
-2.6848656e+44
5.0013842e+43
-1.5998554e+43
-2.9859349e+44
5.2578724e+43
-1.9737491e+43
-3.0016498e+44
-2.242958e+43
4.4433135e+43
7.2609548e+42
-2.0713929e+44
-3.3398327e+43
3.6350226e+43
9.5948573e+41
-2.9859996e+44
3.7938951e+41
-2.3374664e+44
8.1290354e+42
-2.9086977e+44
3.3018425e+43
-1.5118497e+42
-3.2368434e+44
3.6610799e+43
-1.7294705e+42
-3.2304424e+44
-2.8306151e+43
2.6952821e+43
-3.1205857e+42
-3.2622174e+44
-4.5393823e+42
-3.2329577e+44
-2.7945823e+43
3.3208892e+43
-3.3408689e+44
-1.2927017e+43
1.7243749e+43
1.3692978e+43
-1.6817931e+43
-3.2729886e+44
-1.2463278e+43
1.6229876e+43
1.2661899e+43
-1.57172e+43
2.5780351e+44
-2.1590318e+43
-2.9637797e+44
3.1007895e+43
-4.6019222e+43
-2.3059776e+43
3.0217599e+43
1.8701279e+43
1.5374477e+43
-1.0845623e+43
-1.4793223e+43
-2.6327491e+44
-1.2444213e+43
1.8867014e+43
-2.8958989e+44
-4.9249629e+43
5.4008307e+43
-6.4927776e+42
8.2838737e+42
-6.661039e+43
-3.909826e+42
-2.9771306e+42
3.6084618e+42
2.9779735e+42
-5.9205777e+42
8.2901065e+42
-4.8385971e+42
-3.9619024e+42
2.6059727e+42
-5.5077794e+43
-7.7538832e+42
-4.8678802e+42
-4.1831775e+42
3.2710005e+42
2.5527035e+42
-7.9326702e+42
-6.8228509e+43
-3.2142904e+42
3.4831954e+42
-3.9265643e+42
2.7074979e+42
5.4053056e+43
-6.7758664e+43
-3.9945315e+42
-3.0162831e+42
3.482993e+42
2.792208e+42
3.0334331e+42
-4.0847265e+42
2.5185018e+42
-4.9678223e+42
-2.1780192e+43
2.2592728e+43
1.3105426e+43
3.0760079e+44
9.6275076e+42
3.0794572e+44
-5.6589252e+43
-2.1908983e+43
-3.1607282e+44
-2.0618446e+43
-3.0304027e+44
-5.0825805e+43
7.9546437e+42
-2.1677016e+44
-4.1870093e+43
4.6088956e+43
7.1600539e+41
-2.8946325e+44
4.9544129e+42
-2.1405542e+44
1.8974639e+42
-2.9190242e+44
4.0971886e+43
1.4465312e+43
-1.9291533e+42
-3.154907e+44
1.5503711e+43
4.4009105e+43
-4.1836161e+42
-3.1452228e+44
-3.5244289e+43
3.7552373e+43
-3.1905802e+44
-1.3321859e+43
-8.4381647e+42
-3.1780672e+44
-1.2863289e+43
-8.4932157e+42
-1.9872981e+42
3.27819e+42
7.3263296e+42
-1.6765928e+43
-2.4889115e+43
3.4822659e+43
1.1651971e+43
-2.277653e+44
-2.8550983e+43
3.2048057e+43
6.2930157e+42
-3.1011948e+44
5.5842076e+42
-1.4097659e+43
9.2879804e+42
-2.3353727e+44
9.2810471e+42
-3.0549489e+44
2.9254446e+43
4.3964257e+42
-3.27956e+44
3.1935626e+43
3.938016e+42
-3.2909389e+44
2.6614214e+43
-1.7640296e+42
-3.2469568e+44
2.611079e+43
-3.3100535e+41
-3.2627213e+44
-2.6582919e+43
2.607391e+43
-5.365083e+42
-3.1408414e+44
-6.9082685e+42
-3.0680906e+44
-2.6292652e+43
-3.1722914e+44
2.5603275e+43
-8.8214749e+42
-3.1460067e+44
-9.049279e+42
2.5478836e+44
2.4415354e+44
-8.0444092e+43
7.9291785e+43
-3.4162922e+44
-1.4941571e+43
1.6441356e+43
1.2947335e+43
-1.7749424e+43
-2.6114135e+44
-2.760888e+43
3.0829667e+43
1.8759163e+43
-1.1371219e+43
-1.5473768e+43
1.5193544e+43
2.3264143e+43
2.6277914e+44
-2.9196042e+44
-4.7163939e+43
-2.9952141e+44
3.1656886e+43
-4.4360251e+43
1.8787242e+43
1.4877055e+43
-1.2707592e+43
-1.4409731e+43
5.6842668e+43
-6.5598285e+42
7.967639e+42
-7.029419e+43
3.5906505e+42
-3.3108735e+42
-4.2509772e+42
3.0879009e+42
-5.6804464e+42
7.8329186e+42
3.2454148e+42
-4.0635839e+42
-4.9586908e+42
2.735467e+42
-5.6751411e+43
-7.4208047e+42
3.3388197e+42
-4.4258486e+42
-4.9818455e+42
2.6293018e+42
-7.8929472e+42
-7.0803524e+43
-4.1589489e+42
-3.4822862e+42
3.4473701e+42
2.7611764e+42
5.5591039e+43
-6.1737731e+42
-6.8908487e+43
3.6544148e+42
-3.236684e+42
-4.1649138e+42
2.8821897e+42
-5.4803807e+42
-4.1679541e+42
3.0745757e+42
-5.0572672e+42
2.53501e+42
-5.4729201e+43
-4.7840858e+42
-4.299753e+42
3.2450764e+42
-6.7312706e+43
-3.2997719e+42
3.4558888e+42
2.8063752e+42
-3.9860824e+42
5.9188098e+43
5.8837348e+43
-2.6625367e+43
3.3528463e+43
-1.8485409e+43
5.2414335e+43
4.9911765e+43
-7.108258e+42
-5.1726827e+43
8.5166821e+42
4.0696653e+42
3.3351372e+42
-2.0317352e+42
-2.9637514e+42
-5.381258e+43
-8.0212123e+42
4.0694682e+42
-2.4393837e+42
-2.9198329e+42
3.1612691e+42
-6.202742e+42
9.1480684e+42
-6.3296555e+42
-9.0326103e+42
-6.9385796e+42
5.3116198e+43
-6.1263656e+43
-6.8746607e+42
4.0051205e+42
3.2876714e+42
-2.1737079e+42
-3.0202392e+42
5.3228311e+43
-2.0101095e+43
1.4122564e+42
1.2673516e+43
-1.6809105e+42
-1.571584e+43
-1.0385988e+42
-8.9843479e+41
5.8266755e+41
7.5552275e+41
1.2390917e+43
1.8409432e+42
-1.5280895e+43
-1.0421581e+42
-8.4971982e+41
6.171373e+41
7.5890356e+41
-1.2735951e+42
1.6179606e+43
1.7419909e+42
-9.0812505e+41
7.1618417e+41
6.2689566e+41
-1.0835772e+42
1.6576262e+43
-1.4919629e+42
-9.6340056e+41
7.3543008e+41
6.037894e+41
-1.0822219e+42
1.0928151e+42
1.2743316e+43
-1.281298e+42
-1.0576868e+42
-9.8659791e+41
6.6447766e+41
5.6264011e+41
1.5263169e+42
-1.0532425e+42
-9.2311915e+41
6.6405581e+41
5.9547203e+41
-1.2222551e+42
-1.0358246e+42
-9.6512703e+41
6.426292e+41
5.4311304e+41
1.0526118e+42
1.2625528e+43
-1.6229799e+43
-1.4489916e+42
-1.079398e+42
-1.0045824e+42
6.7079469e+41
5.4596008e+41
1.2780218e+43
-1.6475246e+43
-1.0772851e+42
-9.583524e+41
6.7640635e+41
6.4239739e+41
-9.7295725e+41
6.4213487e+41
-9.3002563e+41
-1.0436405e+42
5.8008371e+41
-1.234208e+42
6.504025e+41
-9.6485454e+41
-1.0303062e+42
5.3968291e+41
1.2569954e+43
-1.3153256e+42
-1.5556786e+43
-1.0617804e+42
-8.724803e+41
7.321921e+41
6.0903062e+41
-1.1673154e+42
-9.518285e+41
6.9955308e+41
6.1617231e+41
-1.1106395e+42
1.2361937e+43
-1.7595833e+42
-1.5258258e+43
7.5020477e+41
-8.7909084e+41
-1.0270826e+42
5.6998623e+41
-1.5928266e+42
-1.082515e+42
-9.6029688e+41
7.2990282e+41
5.7805934e+41
1.384876e+42
1.2452199e+43
-1.5533791e+43
-1.0373348e+42
-8.8025042e+41
7.3444599e+41
5.517248e+41
1.2333741e+43
-1.5186006e+43
-1.0436871e+42
-8.4243956e+41
7.4718773e+41
6.002156e+41
-1.2319663e+42
1.6155808e+43
7.0890109e+41
-9.1968958e+41
-1.0961112e+42
6.0697066e+41
1.6348935e+43
-1.0853621e+42
-9.5539991e+41
7.1624204e+41
5.6770814e+41
-1.2521081e+43
-1.0277698e+42
6.8862284e+41
-8.895537e+41
-1.0519e+42
5.6898825e+41
-1.1281311e+42
6.6736763e+41
-9.1900173e+41
-1.0854506e+42
5.6622705e+41
-1.2634338e+43
7.054429e+41
-9.4538343e+41
-1.0486549e+42
5.2907974e+41
6.4841024e+41
-9.8572276e+41
-1.077122e+42
5.1800848e+41
-2.1327124e+43
2.2787941e+43
1.1437779e+43
3.0861296e+44
8.9281362e+42
3.1008282e+44
-2.252806e+43
2.2255122e+43
1.3406486e+43
3.25282e+44
1.4001311e+43
3.1541297e+44
-2.5167583e+43
2.3396604e+43
-8.2487337e+42
-8.4546719e+42
-5.1641816e+43
-2.1538799e+42
-2.9475776e+44
6.0901776e+41
-2.8773837e+44
-4.6634721e+43
1.5874767e+43
4.6944053e+43
-7.721295e+42
-3.2453576e+44
1.5417228e+43
-4.9978681e+42
-3.1608521e+44
3.9670174e+43
-3.1778918e+44
-8.5700935e+42
-1.3706655e+43
-3.2158946e+44
-1.3413808e+43
-8.6491664e+42
-4.2647529e+42
8.0037579e+42
-1.4208909e+43
-3.7619674e+43
3.8917836e+43
1.1270669e+43
-2.2862296e+44
-3.4096939e+43
3.7289249e+43
6.553215e+42
-3.0339236e+44
6.2051773e+42
-1.5888116e+43
1.119474e+43
-2.2614971e+44
6.9857321e+42
-3.0286617e+44
3.3942192e+43
-1.7399304e+41
4.2439251e+42
-3.2156718e+44
8.9954096e+41
3.6215297e+43
3.6334416e+42
-3.2132841e+44
-3.0132339e+43
3.157017e+43
-3.212488e+44
-1.8240528e+43
-1.3630081e+43
1.9072748e+43
1.4450339e+43
7.6717632e+42
-9.4991189e+42
4.1394377e+42
-7.10997e+43
5.1098938e+42
1.0072247e+43
-7.1702293e+43
-3.2076551e+44
-1.3760255e+43
-1.8111476e+43
1.4229046e+43
1.8688828e+43
7.0059006e+42
-6.9500322e+43
-7.0457155e+43
-2.016092e+42
3.2383646e+42
-1.2786382e+43
-2.3271748e+42
2.9352214e+42
8.9110835e+42
-1.4633045e+43
-2.3984672e+43
2.932628e+43
1.0062481e+43
-2.3687635e+44
-2.5348048e+43
2.8340564e+43
3.8240947e+42
-3.1299806e+44
-1.2474432e+43
8.5845492e+42
-1.3557987e+43
9.9681009e+42
-2.3530455e+44
5.3680349e+42
-3.0765589e+44
2.72571e+43
-4.8145555e+41
-3.2377162e+44
2.870627e+43
-1.2994532e+41
-3.2567067e+44
-2.4632619e+43
2.3107353e+43
-2.9282571e+42
-3.1036873e+44
-4.3294781e+42
-3.087741e+44
2.5583673e+43
-3.1676985e+44
-8.0692974e+42
-3.1843912e+44
2.4981947e+43
-7.0439404e+42
-2.481816e+43
2.415017e+43
-6.4615315e+42
-2.4440853e+44
-2.3470254e+43
-3.1557643e+44
2.437061e+43
-8.2294711e+42
-8.3097144e+42
-2.3607157e+44
-3.0567159e+44
-8.6558023e+42
-5.3607295e+42
5.8858385e+42
-6.7724931e+43
-1.8746181e+42
-2.6119184e+42
4.5474962e+42
5.2525942e+42
-6.6616368e+43
-2.0316666e+42
-2.6709494e+42
2.4914335e+44
2.3902226e+44
1.2899275e+44
2.6383203e+44
2.7409951e+44
7.7396792e+43
2.4739473e+44
2.5905842e+44
-7.8720333e+43
7.7936995e+43
-1.6480761e+43
1.0703183e+42
7.1563728e+41
-8.5384042e+41
6.3739716e+41
-1.004157e+42
-2.6865891e+44
1.8645906e+43
1.5040738e+43
-1.3503211e+43
-1.514401e+43
-2.9719889e+44
-4.6058522e+43
5.8614723e+43
-5.700054e+42
-7.3050281e+43
-4.5736425e+42
-3.7081503e+42
3.4960646e+42
2.8815033e+42
-5.3919227e+42
-4.4509312e+42
-5.2549831e+42
3.0703459e+42
2.59992e+42
-5.7606688e+43
-4.4540035e+42
-5.023297e+42
3.3376868e+42
2.6294359e+42
-7.120681e+43
-4.3547777e+42
-3.7367282e+42
3.4880973e+42
2.7216895e+42
-5.4060773e+43
-7.5021477e+42
8.4516629e+42
-2.3600614e+42
3.9595231e+42
3.2721693e+42
-3.2953916e+42
-6.6083357e+42
-6.1328494e+43
9.2131369e+42
-6.7082924e+42
5.552918e+43
-6.0600577e+43
-9.8851201e+42
-7.125575e+42
-8.7856184e+42
4.0075998e+42
3.1044763e+42
-2.7130151e+42
-3.1963839e+42
2.815816e+43
6.2556799e+43
5.7989161e+43
-1.9373178e+43
5.4593283e+43
4.9835052e+43
3.3868947e+43
5.4130428e+43
5.1475035e+43
-1.85472e+43
-6.813621e+42
-5.3654645e+43
3.9635175e+42
3.1765872e+42
-2.3454131e+42
-3.2332796e+42
-5.2701189e+43
3.1421412e+42
-2.4122889e+42
4.0630431e+42
-2.8242901e+42
-6.9976165e+42
-6.6929328e+42
-6.9713019e+42
-1.2704014e+43
-1.2735371e+42
1.6595037e+43
1.5630576e+42
7.8120888e+41
-9.282698e+41
-1.1058056e+42
6.6297363e+41
-1.3649196e+42
1.7841595e+42
-1.5789437e+43
7.3825269e+41
-9.0777056e+41
-1.0957919e+42
6.2062026e+41
1.3185458e+43
-1.6845513e+42
-1.6381978e+43
-1.0921338e+42
-9.5854383e+41
7.3341155e+41
5.8244185e+41
1.7145338e+43
-1.4280696e+42
7.4533748e+41
-9.8406628e+41
-1.0950375e+42
6.1632065e+41
-1.2895936e+43
-9.3725983e+41
1.232882e+42
7.093334e+41
-9.0506849e+41
-1.0482283e+42
6.0893131e+41
-1.0916958e+42
1.4103314e+42
7.0107692e+41
-9.1230957e+41
-1.0800051e+42
6.0811873e+41
1.3058622e+43
-1.1649595e+42
-1.0723823e+42
-9.8444185e+41
6.8380189e+41
5.7431041e+41
-1.0737185e+42
6.5282419e+41
-9.708662e+41
-1.0363401e+42
5.5689819e+41
-1.3133664e+43
-9.3635798e+41
7.1400703e+41
-9.1163155e+41
-1.0766754e+42
6.2499431e+41
-9.8345191e+41
-1.6887167e+43
6.7411924e+41
-1.0002132e+42
-1.1262653e+42
5.9850742e+41
1.2953002e+43
-1.6722904e+43
-1.364373e+42
-1.1028496e+42
-1.0037978e+42
7.198922e+41
5.5573427e+41
-1.196023e+42
6.621546e+41
-9.7360944e+41
-1.0504768e+42
5.483566e+41
1.2757532e+42
1.2820039e+43
-1.6969092e+42
-1.5824934e+43
-1.0874199e+42
-9.4536135e+41
7.3655373e+41
5.633317e+41
1.2916529e+43
-1.6071406e+43
-1.1213753e+42
-9.3558496e+41
7.2959124e+41
5.9116357e+41
-1.0951983e+42
-1.1540653e+42
-9.9733156e+41
6.8805274e+41
6.0720575e+41
-1.444175e+42
7.2868865e+41
-1.0016135e+42
-1.1129111e+42
5.9312536e+41
-1.2819229e+43
-1.1733687e+42
1.6817224e+43
7.8275187e+41
-9.3669643e+41
-1.1178142e+42
6.5737428e+41
-1.3506824e+42
-1.5759344e+43
7.4631234e+41
-9.0569755e+41
-1.0980071e+42
6.1459903e+41
1.2879677e+43
-1.6709322e+42
-1.5994991e+43
-1.0903956e+42
-9.4426168e+41
7.4131124e+41
5.6399692e+41
1.6796262e+43
-1.3946127e+42
7.2387601e+41
-1.0020323e+42
-1.1201632e+42
5.8516805e+41
1.3009294e+43
-1.0098254e+42
6.990182e+41
-9.2628707e+41
6.0603872e+41
-1.0933405e+42
-8.6387943e+41
6.4423029e+41
-9.2243719e+41
-1.0478285e+42
5.824539e+41
1.2917048e+43
-1.2654082e+42
-1.0105556e+42
6.5831998e+41
5.3488128e+41
-1.1051154e+42
-1.1862368e+42
-1.0615673e+42
-9.9145754e+41
6.3623532e+41
1.0219852e+42
-1.6533174e+43
-1.0735547e+42
-9.4446795e+41
5.7917702e+41
7.4216801e+41
1.2922301e+43
-1.6663713e+43
-1.125714e+42
-9.7396612e+41
7.1239019e+41
5.8552498e+41
-1.080834e+42
-9.4171571e+41
1.2680757e+43
-1.3026657e+42
-1.5688199e+43
-1.0941197e+42
-9.0201322e+41
7.2426257e+41
6.1127376e+41
-1.1032988e+42
-1.1387031e+42
6.9268393e+41
-9.8315135e+41
6.1078997e+41
-1.2468665e+43
8.0295423e+41
-9.4661442e+41
-1.0833548e+42
6.0757307e+41
-1.5270827e+43
7.643049e+41
-9.0318875e+41
-1.0559953e+42
5.4923596e+41
-2.6093977e+43
2.35049e+43
3.267284e+43
5.3672416e+43
5.1126234e+43
4.9212197e+43
4.6563395e+43
-7.8549722e+42
1.3019747e+43
1.2883584e+43
9.2741025e+42
-4.0994771e+42
1.1734751e+43
1.1126969e+43
1.3521666e+43
1.256207e+43
-9.2904334e+42
-4.5429628e+42
1.1972216e+43
1.089569e+43
-1.6917883e+42
-1.1406751e+43
2.0161623e+42
7.3844413e+41
-6.2025703e+41
-8.2750104e+41
5.8046431e+41
-1.1867816e+43
-1.986547e+42
7.4808307e+41
-7.0813983e+41
-8.1118367e+41
5.5311797e+41
-1.4534237e+42
2.2053017e+42
-1.170613e+42
-2.1509221e+42
-1.2504819e+42
-1.1705809e+43
-1.5375418e+42
-8.5503831e+41
-6.6107218e+41
7.2731651e+41
5.5828305e+41
-1.5520276e+42
-1.2224192e+42
1.154085e+43
-2.1691156e+42
-1.2815215e+42
-1.9107377e+42
-7.8161055e+41
-6.8481006e+41
7.4880349e+41
5.3467597e+41
1.2984938e+43
1.2814176e+43
-4.4511868e+42
1.1631334e+43
1.095707e+43
-1.5561698e+42
-1.1385448e+43
7.3750092e+41
-6.1764329e+41
-8.312194e+41
5.6135919e+41
-1.182166e+43
7.4608809e+41
-6.9307493e+41
-8.0646527e+41
5.2930973e+41
-1.5386229e+42
-1.2047092e+42
-1.2927045e+42
2.4294831e+43
4.9639025e+43
4.5740028e+43
5.4237298e+43
5.0052037e+43
2.9976911e+41
3.0424724e+42
-3.8362323e+41
-3.6364361e+42
-3.6078012e+41
3.0912594e+42
3.7286626e+41
-3.7066942e+42
-3.5609636e+41
2.6951232e+41
3.9226393e+42
-3.4205316e+41
-2.2495798e+41
3.4623713e+41
3.9912071e+42
-2.2114972e+41
3.2303761e+41
3.0665641e+42
-3.6943963e+42
-3.6449732e+41
3.0177274e+42
4.1978811e+41
-3.5986056e+42
-3.6559243e+41
2.949354e+41
3.9545806e+42
-2.1957738e+41
3.8916573e+42
3.8531094e+41
-2.0540245e+41
3.0953661e+42
-2.4743333e+41
3.3196752e+41
-1.9636836e+41
-2.1129553e+41
3.891693e+42
2.8049044e+41
-1.4933752e+41
-3.141415e+42
-2.638755e+41
3.9791515e+42
-1.5826063e+41
-2.9419326e+41
-2.236514e+41
3.167767e+42
-2.228294e+41
-2.1132404e+41
-2.0706961e+41
4.0051811e+42
-1.5878984e+41
-3.13499e+42
3.950495e+42
-2.6086957e+41
-1.5791542e+41
-2.9593844e+41
-2.2146308e+41
1.6765742e+41
3.1012245e+42
-2.231661e+41
-1.5290751e+41
3.1303095e+42
2.1693335e+41
-1.6100219e+41
-1.6657033e+41
2.0415153e+41
3.896015e+42
-1.3880887e+41
3.8406472e+42
-2.1282505e+41
-1.3052797e+41
1.8383351e+41
3.1108853e+42
-1.5187617e+41
3.0615728e+42
2.3592326e+41
-1.4508875e+41
-1.623255e+41
2.0991682e+41
-1.2455663e+41
3.8779032e+42
-1.2971967e+41
-1.7542635e+41
-1.4593076e+41
1.357018e+41
3.0059778e+42
-1.8946393e+41
-1.4739289e+41
3.0345742e+42
-1.4341077e+41
-1.4498557e+41
-1.449769e+41
-1.8713717e+41
-1.4767151e+41
1.6850598e+41
3.0740518e+42
-3.9122164e+42
-2.3655709e+41
-1.7318221e+41
3.1492744e+42
2.2268765e+41
-4.0352618e+42
-1.7277661e+41
-1.5979668e+41
2.0100467e+41
3.9127923e+42
-1.3393112e+41
3.8100921e+42
-2.1966073e+41
-1.3021611e+41
1.7872081e+41
3.1483175e+42
-4.0208986e+42
-1.6073667e+41
3.1086936e+42
-3.9510896e+42
-1.6040134e+41
-1.592217e+41
3.8509329e+42
-1.1943597e+41
3.9184512e+42
-8.5953197e+40
-3.0127604e+42
-1.411787e+41
-1.3744755e+41
-1.4942042e+41
-1.3189653e+41
3.0458876e+42
-1.7949333e+41
-1.4100388e+41
-1.809972e+41
-1.4544827e+41
-3.0445506e+42
-1.4681071e+41
-1.4688704e+41
-1.3134588e+41
-1.4476026e+41
2.9841527e+42
-1.8548088e+41
-1.5023181e+41
-1.8201686e+41
-1.530181e+41
3.06616e+41
3.0942185e+42
-3.8266693e+41
-3.7155627e+42
-3.6438414e+41
3.0602476e+42
-3.6571725e+42
-3.5256218e+41
-2.6266478e+41
3.9423448e+42
-2.2929238e+41
3.9986606e+42
-3.2338179e+41
-2.3469357e+41
3.145017e+42
-2.3415928e+41
-2.1627927e+41
-2.0266361e+41
-1.6472513e+41
-3.1757219e+42
-2.6287216e+41
-1.6879533e+41
-2.8722462e+41
-2.3463495e+41
-3.0687445e+42
-2.7641561e+41
4.0017357e+42
-2.2975225e+41
-3.1075519e+41
-3.6655921e+42
-3.5415445e+41
2.9992367e+42
-4.1073487e+41
-3.5590215e+42
-3.6731827e+41
3.8821425e+42
-3.6182624e+41
-2.2750824e+41
2.3181395e+41
3.1069707e+42
-3.1298404e+41
-2.261725e+41
3.1949649e+42
-2.0893641e+41
-2.0821792e+41
-1.65048e+41
-2.7113532e+41
-1.6426855e+41
3.1893059e+41
2.965049e+42
-3.5487269e+42
-3.6315721e+41
3.0357635e+42
3.916709e+41
-3.6387181e+42
-3.5003587e+41
-2.7988855e+41
3.4054727e+41
3.9304822e+42
-2.209303e+41
3.8359425e+42
-2.2033671e+41
3.2491111e+41
3.0425264e+42
-3.6597811e+42
-3.5967276e+41
3.017875e+42
-3.5953822e+42
-3.5075562e+41
-2.7824697e+41
3.8920975e+42
-2.1061383e+41
3.9320111e+42
-2.269684e+41
-3.1042666e+42
-2.120292e+41
3.9029841e+42
-1.4892197e+41
-2.4338509e+41
-2.0145722e+41
3.1253635e+42
-3.0382511e+41
-2.2902287e+41
-2.7113506e+41
3.9561833e+42
-1.6474243e+41
2.4648745e+41
3.0685307e+42
-2.1547609e+41
3.1267181e+42
-2.0897292e+41
-2.2822127e+41
3.9586139e+42
-1.5856641e+41
3.86744e+42
-1.5537358e+41
-2.9879419e+42
-1.4620405e+41
-8.1914087e+40
-1.5502839e+41
-3.8035397e+42
-1.0440833e+41
2.9996112e+42
-3.8531125e+42
-1.9215382e+41
-1.6127257e+41
-1.8505979e+41
-1.4762571e+41
-3.0691085e+42
-1.6791657e+41
-1.1880723e+41
-1.8736888e+41
-1.3431395e+41
3.0896591e+42
-2.2926382e+41
-1.7703054e+41
-2.182e+41
-1.4694227e+41
-3.0140252e+42
-1.6864684e+41
-8.3824114e+40
-1.6065507e+41
-3.8554584e+42
-1.3544826e+41
2.9478057e+42
-3.7618756e+42
-1.6292236e+41
-3.0954097e+42
-1.8859762e+41
-1.4123981e+41
-1.8905117e+41
-1.6273065e+41
3.0337588e+42
-1.6689628e+41
-1.4364507e+41
6.2372369e+43
-2.4222842e+43
-1.4614412e+43
1.0357299e+44
9.7085261e+43
3.0077351e+44
2.9417847e+44
2.9090196e+44
2.9488774e+44
-2.1864317e+43
2.2187193e+43
1.2013988e+43
3.0948233e+44
7.7977015e+42
3.1130335e+44
-2.0127017e+43
2.1659276e+43
1.2393471e+43
3.1745554e+44
1.2933044e+43
3.155605e+44
-2.4759829e+43
2.2839097e+43
-7.3668835e+42
-7.895071e+42
-1.7580305e+43
1.772022e+43
2.5757889e+44
9.966344e+42
-2.2552168e+43
2.2402617e+43
1.6064401e+42
1.1779844e+43
2.4644395e+44
2.2393452e+42
4.6181881e+43
-7.3368924e+42
-3.2825407e+44
-6.8938037e+42
-3.3382253e+44
-4.4510494e+43
1.2630748e+43
-2.250004e+44
-3.9201232e+43
4.1976443e+43
3.2499293e+42
-3.085042e+44
1.3046783e+43
-2.1367715e+44
5.5988839e+42
-3.002471e+44
-3.8298157e+43
1.1747313e+42
3.9439475e+43
6.6741135e+41
-3.2751927e+44
7.8550047e+41
2.8459912e+42
-3.2179955e+44
3.2804543e+43
-3.2014723e+44
-1.8010495e+43
-1.4030469e+43
1.8843326e+43
1.5106793e+43
-8.3391548e+42
1.0462343e+43
5.0375594e+42
-7.2469117e+43
4.3028631e+42
-7.3247041e+43
3.418343e+43
-3.2250062e+44
-1.4344585e+43
1.9211909e+43
1.4690676e+43
-1.8850998e+43
8.1156452e+42
4.5191368e+42
-7.4312887e+43
5.2825526e+42
-7.4074209e+43
-3.8393615e+42
-1.3324052e+43
-3.2709834e+42
3.5570962e+42
1.0266527e+43
-1.3490815e+43
-3.0244949e+43
3.0768243e+43
1.1835263e+43
-2.3442828e+44
-2.9429816e+43
3.0445779e+43
6.4196806e+42
-3.0719454e+44
-1.2596222e+43
8.9868698e+42
-1.4015992e+43
1.1134277e+43
-2.3121692e+44
5.6182077e+42
-3.053297e+44
3.0458322e+43
-3.6155062e+42
-1.2052162e+42
-3.1849861e+44
-3.0095016e+42
3.2113216e+43
-8.5642822e+41
-3.1911734e+44
-2.7565244e+43
2.8193517e+43
-3.1950522e+44
1.6125739e+43
-1.4930339e+43
-1.8865853e+43
1.2289043e+43
6.9890704e+42
5.65751e+43
-8.0857437e+42
-7.2333646e+43
-1.3852713e+42
5.7031126e+43
8.8443149e+42
-7.2470866e+43
-4.5593125e+40
-7.5304138e+42
2.2435983e+42
9.6883996e+42
-8.9516015e+42
1.3469303e+42
-3.1956957e+44
1.5649316e+43
-1.4936082e+43
-1.8713105e+43
1.1980888e+43
-6.6374036e+42
5.6177909e+43
-7.1351563e+43
-3.4940864e+40
5.5416773e+43
-7.0980119e+43
-1.3218313e+42
6.9323055e+42
1.5580073e+42
2.3902948e+42
-1.9936554e+42
2.6529503e+42
-1.2608104e+43
-2.1825926e+42
2.6269907e+42
8.4996148e+42
-1.3514557e+43
-2.1900175e+43
2.5932743e+43
2.7734104e+42
-2.3985824e+44
-2.4060152e+43
2.6013667e+43
-3.0795472e+42
-3.1200197e+44
-1.24537e+43
8.9479636e+42
-1.2742533e+43
4.2877739e+42
-2.3464117e+44
-3.3065255e+42
-3.0578362e+44
2.5929933e+43
-3.1723633e+44
-7.2457595e+42
-3.1923354e+44
2.6791133e+43
-6.7479213e+42
-2.2600769e+43
1.988898e+43
-4.8636963e+42
-2.3946663e+44
-2.2896548e+43
-3.0945028e+44
2.2358295e+43
-7.4241069e+42
-6.1559613e+42
-2.405493e+44
-3.0687962e+44
-8.4896894e+42
-1.9144582e+42
1.7951872e+42
-1.8161461e+42
-1.9592916e+43
-2.0784527e+43
-2.4997494e+44
2.2186484e+43
-4.0649815e+42
-2.341046e+42
-2.1108836e+43
-2.414854e+44
-1.5864469e+42
-4.5828104e+42
5.2882952e+42
-6.6614402e+43
-3.6167022e+42
-3.0438837e+42
4.1361797e+42
3.5796936e+42
-6.4978423e+43
-3.0412313e+42
4.005198e+42
3.5472866e+42
-3.5788531e+42
-6.0778476e+42
6.1251618e+42
-6.7745605e+43
-1.9771672e+42
-2.6188554e+42
4.5561193e+42
5.2451036e+42
-6.8352144e+43
-2.0088798e+42
-2.6122862e+42
4.5321269e+42
5.1996174e+42
-5.0935115e+42
-6.7186594e+43
5.5138357e+42
4.2701753e+42
-3.0130273e+42
-3.6216545e+42
3.649452e+42
-9.0689847e+41
1.2323593e+43
1.2162926e+42
-1.5832306e+43
-4.1852343e+41
1.200797e+42
1.0992689e+42
-5.5683928e+41
1.226127e+43
-1.1500677e+42
-1.5816868e+43
-4.6792096e+41
1.1816203e+42
1.0327013e+42
-5.5954796e+41
1.0620181e+42
1.2152072e+42
-2.6114959e+41
-3.7155878e+41
1.4168199e+42
-2.2610648e+41
1.1032519e+42
1.2119302e+42
-3.7045662e+41
-6.5662399e+43
-3.1732002e+42
-3.702464e+42
3.4565422e+42
4.0068819e+42
-9.41814e+41
-1.5542381e+43
-4.385438e+41
1.1473148e+42
-5.712305e+41
-1.5655531e+43
-4.6804904e+41
-5.6340875e+41
-5.8145898e+42
-6.8531614e+43
-1.9188694e+42
-2.6721505e+42
-6.8091715e+43
-2.6767001e+42
-2.0709855e+42
4.5438651e+42
5.2015173e+42
2.6283475e+43
6.1984549e+43
6.0205676e+43
5.9161739e+43
5.5755002e+43
5.644604e+43
5.9528863e+43
3.3233445e+43
5.7988447e+43
5.6826463e+43
5.7178171e+43
5.9132545e+43
2.4105343e+44
2.5248606e+44
1.235229e+44
2.6564103e+44
7.6630505e+43
2.7692251e+44
2.5354026e+44
-7.7901912e+43
7.8695709e+41
-1.6639961e+43
-1.015474e+42
-9.404501e+41
6.9637406e+41
5.4798853e+41
-2.9799089e+42
-9.5123712e+40
1.4532122e+41
-6.0963279e+40
-1.0051384e+41
-3.7934943e+42
1.3671879e+41
-7.645994e+40
-2.9970195e+42
-1.127561e+41
-3.8432362e+42
-1.4569728e+41
-9.2855711e+40
-3.8292029e+42
-1.3405237e+41
-3.7609104e+42
-1.6586587e+41
1.0224915e+42
-1.701e+43
6.8013443e+41
-9.1407748e+41
-1.0331985e+42
5.9991422e+41
-1.6958681e+43
-1.0421804e+42
-9.6520824e+41
6.8148462e+41
5.3301469e+41
-6.3021559e+42
-5.6235313e+43
3.8595443e+42
3.1624515e+42
-2.6824554e+42
-3.5461864e+42
-5.520525e+43
4.0056555e+42
3.0916616e+42
-2.7491693e+42
-3.1594669e+42
-6.6809792e+42
-6.4936066e+43
-7.0345482e+42
-6.0436355e+43
-7.3807542e+42
5.6268276e+43
5.1684324e+43
-1.9780407e+43
-1.6095297e+42
-1.6919481e+43
-1.1602747e+42
-1.0174523e+42
7.5033522e+41
5.5959775e+41
1.2633819e+42
1.3339036e+43
-1.5676876e+42
-1.6725837e+43
-1.1546563e+42
-1.0069995e+42
7.410293e+41
5.3808737e+41
1.3228727e+43
-1.6463126e+43
-1.169526e+42
-9.6916533e+41
7.4350277e+41
5.7528766e+41
-1.1013465e+42
1.7152541e+43
-1.1595894e+42
-9.8813778e+41
7.1349202e+41
6.2192516e+41
1.734069e+43
-1.3727766e+42
7.3208583e+41
-1.0257415e+42
-1.1441894e+42
5.8912255e+41
-9.8273874e+41
1.3137744e+43
6.7279277e+41
-9.7199286e+41
-1.1087201e+42
5.9871017e+41
1.3232927e+43
-1.2529608e+42
-1.1035038e+42
-1.0062488e+42
6.7739851e+41
5.55355e+41
-8.6947811e+41
-1.0691006e+42
5.8527447e+41
-1.1458626e+42
6.5541606e+41
-9.8728802e+41
-1.0634181e+42
5.4583891e+41
-1.0066419e+42
1.3222592e+43
-1.7232282e+43
7.5435149e+41
-9.5017618e+41
-1.1114976e+42
6.1668673e+41
1.2982185e+43
-1.6848005e+43
-1.0864336e+42
-9.7699577e+41
7.4245408e+41
5.6718587e+41
-9.3302633e+41
-1.0606932e+42
-8.884456e+41
6.9125789e+41
5.9532373e+41
6.8534489e+41
-9.4455358e+41
-1.0314201e+42
5.6214394e+41
1.2402296e+42
1.2890413e+43
-1.589666e+43
-1.1149392e+42
-9.6990223e+41
7.4714845e+41
5.3309044e+41
1.3182147e+43
-1.6431263e+43
-1.16073e+42
-9.6328485e+41
7.4338341e+41
5.6556036e+41
-1.1039386e+42
7.1309193e+41
-9.9129093e+41
-1.1623889e+42
6.0971157e+41
7.3963726e+41
-9.9529894e+41
-1.1120464e+42
5.9092462e+41
1.1858538e+43
-1.4712243e+42
-1.3607029e+43
2.2056354e+42
-1.3459793e+42
-1.6613343e+42
2.0275593e+42
-6.959965e+41
7.0874544e+41
5.5470864e+41
-9.0505886e+41
-1.2322809e+43
-2.0285804e+42
-8.8415698e+41
-7.8586609e+41
7.2010485e+41
5.3016808e+41
-1.3475989e+43
-2.1958425e+42
-1.4175911e+42
-8.1417323e+42
9.2781836e+42
1.2167558e+43
1.1561576e+43
-4.5264671e+42
1.4090225e+43
1.3069792e+43
-9.8309242e+42
-4.8292715e+42
1.2421533e+43
1.128639e+43
-1.5517964e+42
-1.2113101e+43
7.0558776e+41
-7.3436536e+41
-9.3003959e+41
5.3132992e+41
-1.1938975e+43
-1.953095e+42
7.2616623e+41
-7.6140859e+41
-8.5316901e+41
5.0823011e+41
-1.5691658e+42
-1.3625661e+42
-2.2348535e+42
-1.3998779e+42
2.7257473e+43
2.3074143e+43
5.5568225e+43
5.1009217e+43
5.0929018e+43
4.6515015e+43
-7.5290938e+42
1.3490326e+43
1.3224537e+43
-4.4922346e+42
1.2064012e+43
1.1311892e+43
1.3648045e+43
1.245839e+43
-4.463671e+42
1.2128663e+43
1.0837339e+43
2.2272574e+43
3.2853198e+43
5.0735946e+43
4.7949016e+43
5.5030223e+43
5.2355328e+43
-1.6230308e+42
-1.181003e+43
-8.9836303e+41
-6.8568286e+41
7.1748801e+41
5.5069806e+41
-1.2112353e+43
-1.9574673e+42
7.3203169e+41
-7.5413126e+41
-8.6547405e+41
5.1596071e+41
-1.6228034e+42
-1.2771659e+42
-2.4233628e+42
-1.320536e+42
1.520918e+42
-1.1403195e+43
7.3806202e+41
-6.9017714e+41
-7.8698463e+41
5.0885415e+41
1.1763572e+43
-1.721397e+42
-1.2297803e+42
-6.7863917e+41
7.2475973e+41
5.3727425e+41
-8.8152734e+41
-1.2851891e+42
-3.2046521e+42
-2.1150289e+41
4.0207891e+42
2.7543342e+41
-9.8858422e+40
-2.5714428e+41
-3.9911216e+42
3.0519797e+41
-1.8985385e+41
3.2123485e+42
-4.0521135e+42
-2.9825388e+41
-2.2493078e+41
-2.5442896e+41
4.0596271e+42
-1.4137884e+41
-3.0788019e+42
-3.0093492e+41
3.5549522e+41
-2.2862701e+41
-3.1804333e+41
4.0749735e+41
-3.6817669e+42
-3.9425942e+41
3.1472698e+42
-3.7895975e+41
-3.7916453e+42
-3.9049964e+41
-3.5690974e+41
-2.2824851e+41
2.9383465e+41
3.1062212e+42
-3.7039696e+41
-3.7359712e+42
-3.8582121e+41
3.1320799e+42
-3.7931538e+42
-3.8259477e+41
-2.7155132e+41
4.0223206e+42
-2.4218742e+41
3.9772791e+42
-3.2864369e+41
-2.3152356e+41
-3.1832668e+42
-1.9536154e+41
4.0329769e+42
-1.6344003e+41
-2.2046522e+41
-2.2280098e+41
3.158104e+42
-2.7363121e+41
-2.2269624e+41
3.9697845e+42
-2.2948193e+41
-1.6123929e+41
-3.0502304e+42
-1.1204269e+41
1.5555302e+41
-7.7440559e+40
-1.2413365e+41
-3.8882993e+42
1.6319066e+41
-1.0605659e+41
3.0700199e+42
-3.9422054e+42
-1.4719998e+41
-1.5297611e+41
-1.4230443e+41
-1.3402305e+41
-3.1425418e+42
-1.4596856e+41
2.1028316e+41
-1.0899493e+41
-1.7358984e+41
2.3925447e+41
-9.9726832e+40
3.1629003e+42
-1.9278659e+41
-1.6408128e+41
-1.7929733e+41
-1.3785752e+41
1.4742575e+41
3.1124099e+42
-1.8912994e+41
-1.7330328e+41
3.1537311e+42
-1.505567e+41
-1.3879458e+41
3.9294441e+42
-1.3241374e+41
3.8631922e+42
-1.7422107e+41
-1.4104525e+41
-3.0584455e+42
-1.172001e+41
-1.4303722e+41
-1.0607973e+41
-1.4098778e+41
3.0203952e+42
-1.4258163e+41
-1.5704093e+41
-1.4224916e+41
-1.5856766e+41
-3.0802368e+42
-1.088339e+41
-8.3425182e+40
-1.2576909e+41
-3.9239519e+42
-8.4728731e+40
3.0934503e+42
-3.9733788e+42
-1.5470811e+41
-1.6780756e+41
-1.4402202e+41
-1.253507e+41
-3.1654381e+42
-1.3975466e+41
-1.1886059e+41
-1.5960639e+41
-4.0266918e+42
-1.6848277e+41
3.1913097e+42
-2.0235126e+41
-4.0869291e+42
-1.8790076e+41
-1.814507e+41
-1.4186546e+41
1.6582049e+41
3.1326849e+42
-3.9896683e+42
-2.2849895e+41
-1.8318746e+41
3.1937142e+42
-4.0821556e+42
-1.5188708e+41
-1.5109718e+41
3.970166e+42
-8.6912907e+40
3.8812714e+42
-2.0284181e+41
-1.4110742e+41
-3.0869802e+42
-1.1934151e+41
-1.4434776e+41
-1.1240849e+41
-1.327231e+41
3.0367165e+42
-1.6010468e+41
-1.5822542e+41
-1.5250352e+41
-1.5757913e+41
2.9971073e+41
3.0805581e+42
-3.9787567e+41
-3.6671818e+42
-4.02631e+41
3.1468247e+42
3.7456494e+41
-3.7788833e+42
-3.8815662e+41
-2.5312314e+41
3.1868981e+41
4.0660359e+42
-2.4822412e+41
3.9781863e+42
-3.3873274e+41
-2.4868653e+41
3.0119433e+41
3.167283e+42
-3.818709e+42
-3.9657845e+41
3.1498834e+42
-3.7696021e+42
-3.8506858e+41
-2.5442673e+41
4.0458444e+42
-2.4058642e+41
4.0782593e+42
-2.5554962e+41
2.1814109e+41
3.2357172e+42
-2.8326532e+41
-2.4639864e+41
3.2140339e+42
-2.2101093e+41
-1.8297646e+41
-1.7111041e+41
-2.4648837e+41
-1.8049404e+41
-3.2259987e+42
-2.0663876e+41
-1.673176e+41
-2.187821e+41
-2.2605932e+41
3.1738412e+42
-2.9023942e+41
-2.3710829e+41
-2.5960481e+41
-1.6973553e+41
-3.2256937e+42
-1.9236099e+41
4.0442272e+42
-1.0302489e+41
-2.3939065e+41
-4.0208045e+42
-1.9243369e+41
3.2117871e+42
-4.0536663e+42
-2.7799424e+41
-2.37331e+41
-2.2913592e+41
4.0592538e+42
-1.5331717e+41
-3.1099365e+42
-2.7423837e+41
-2.2904971e+41
-3.1265306e+41
-3.7171157e+42
-3.8374026e+41
3.1496248e+42
-3.7307771e+41
-3.7989168e+42
-3.8829023e+41
-3.204829e+41
-2.4319792e+41
2.9705934e+41
3.0868508e+42
-3.8597245e+41
-3.6912129e+42
-3.9712016e+41
3.1507187e+42
-3.7890166e+42
-3.8198224e+41
-2.4718485e+41
4.0607046e+42
-2.4197219e+41
3.9740458e+42
-3.2164344e+41
-2.4873975e+41
-3.2147825e+42
-1.8705661e+41
4.065731e+42
-1.6915163e+41
-2.0895823e+41
-2.2514623e+41
3.1683716e+42
-2.8471414e+41
-2.3873295e+41
3.9849002e+42
-2.435998e+41