/*--------------------------------*- C++ -*----------------------------------*\
  =========                 |
  \\      /  F ield         | OpenFOAM: The Open Source CFD Toolbox
   \\    /   O peration     | Website:  https://openfoam.org
    \\  /    A nd           | Version:  7
     \\/     M anipulation  |
\*---------------------------------------------------------------------------*/
FoamFile
{
    version     2.0;
    format      ascii;
    class       volScalarField;
    location    "1000";
    object      pMean;
}
// * * * * * * * * * * * * * * * * * * * * * * * * * * * * * * * * * * * * * //

dimensions      [0 2 -2 0 0 0 0];

internalField   nonuniform List<scalar> 
34158
(
-2.0420581e+92
-2.0473557e+92
-2.0577564e+92
-2.063996e+92
-2.0173749e+92
-2.0127839e+92
-2.0080435e+92
-2.0139709e+92
-1.8126528e+92
-1.8091704e+92
-2.0311759e+92
-2.0228842e+92
-2.0197998e+92
-2.0261023e+92
-2.017811e+92
-1.9921265e+92
-2.0135732e+92
-1.9869795e+92
-1.9689044e+92
-1.9735749e+92
-1.8597912e+92
-1.8557874e+92
-1.8195923e+92
-1.8165507e+92
-1.715108e+92
-1.7537426e+92
-1.7536386e+92
-1.7148098e+92
-1.8216365e+92
-1.8538528e+92
-1.8524613e+92
-1.8188937e+92
-1.8155759e+92
-1.8485688e+92
-1.6660638e+92
-1.6630408e+92
-2.0399554e+92
-2.0325816e+92
-2.0297765e+92
-2.0020565e+92
-2.0233465e+92
-1.9963282e+92
-1.9789046e+92
-1.9846749e+92
-2.0057618e+92
-1.9999541e+92
-2.0172227e+92
-1.9865388e+92
-1.95779e+92
-2.0133275e+92
-1.9821599e+92
-1.9535204e+92
-1.9231019e+92
-1.9262424e+92
-1.8637605e+92
-1.8669602e+92
-1.8517757e+92
-1.8477903e+92
-1.8015352e+92
-1.7980079e+92
-1.6316843e+92
-1.8229985e+92
-1.7611441e+92
-1.7175036e+92
-1.7204955e+92
-1.7561461e+92
-1.8271446e+92
-1.8588217e+92
-1.8599629e+92
-1.825012e+92
-1.8244488e+92
-1.8585831e+92
-1.8577383e+92
-1.8246569e+92
-1.6712949e+92
-1.7935564e+92
-1.7913173e+92
-1.7584618e+92
-1.7544039e+92
-1.75405e+92
-1.7894428e+92
-1.6703028e+92
-1.8274412e+92
-1.8290005e+92
-1.8425397e+92
-1.8423894e+92
-1.8485217e+92
-1.8487508e+92
-1.8591274e+92
-1.8454797e+92
-1.8475359e+92
-1.8576692e+92
-1.8556726e+92
-1.8261108e+92
-1.8414217e+92
-1.8246842e+92
-1.839427e+92
-1.8221679e+92
-1.8234615e+92
-1.8378392e+92
-1.837346e+92
-1.8546166e+92
-1.8438584e+92
-1.8540234e+92
-1.8434993e+92
-1.6707108e+92
-1.6679863e+92
-1.659057e+92
-1.6562397e+92
-1.7294391e+92
-1.726075e+92
-2.0167587e+92
-2.0083361e+92
-1.9966777e+92
-1.9898811e+92
-2.0114327e+92
-2.0174608e+92
-2.0298381e+92
-1.9959622e+92
-1.9678083e+92
-2.0226172e+92
-1.9910143e+92
-1.963031e+92
-1.9312353e+92
-1.9353624e+92
-1.9477041e+92
-2.0239654e+92
-2.0243374e+92
-1.9432926e+92
-2.0184499e+92
-2.0193615e+92
-2.0172245e+92
-1.9861678e+92
-1.9527235e+92
-1.9168435e+92
-2.0133518e+92
-1.9814386e+92
-1.9488684e+92
-1.9136225e+92
-1.8705907e+92
-1.8732114e+92
-1.8600818e+92
-1.8566473e+92
-1.8049853e+92
-1.8083314e+92
-1.8529738e+92
-1.789578e+92
-1.8486917e+92
-1.7871883e+92
-2.0534474e+92
-2.0522231e+92
-1.6185435e+92
-1.6348936e+92
-1.8829705e+92
-1.7634184e+92
-1.7224246e+92
-1.8296468e+92
-1.8629287e+92
-1.8613507e+92
-1.8292647e+92
-1.7995127e+92
-1.7660433e+92
-1.7608229e+92
-1.7968908e+92
-1.673396e+92
-1.6761803e+92
-1.7954895e+92
-1.7950314e+92
-1.7578714e+92
-1.7600228e+92
-1.847736e+92
-1.8328168e+92
-1.8319751e+92
-1.8471798e+92
-1.8665927e+92
-1.8562323e+92
-1.8550538e+92
-1.8666235e+92
-1.8660418e+92
-1.8559169e+92
-1.8546614e+92
-1.8643864e+92
-1.8317628e+92
-1.8320994e+92
-1.848494e+92
-1.8475925e+92
-1.846557e+92
-1.8319117e+92
-1.8315316e+92
-1.8469261e+92
-1.8531609e+92
-1.8637657e+92
-1.853378e+92
-1.8641837e+92
-1.8508324e+92
-1.8525859e+92
-1.8624687e+92
-1.831815e+92
-1.846938e+92
-1.8448985e+92
-1.831965e+92
-1.6540539e+92
-1.7510831e+92
-1.7461279e+92
-1.8178889e+92
-1.8173197e+92
-1.8164674e+92
-1.8110043e+92
-1.815798e+92
-1.8087432e+92
-1.8100832e+92
-1.8137527e+92
-1.7451055e+92
-1.8128871e+92
-1.8117346e+92
-1.8092848e+92
-1.8064567e+92
-1.6521929e+92
-1.8350072e+92
-1.8362371e+92
-1.838042e+92
-1.8391533e+92
-1.8372409e+92
-1.8370131e+92
-1.8400539e+92
-1.8387581e+92
-1.8388651e+92
-1.8422093e+92
-1.8428526e+92
-1.8399707e+92
-1.83913e+92
-1.8424038e+92
-1.8415002e+92
-1.8386475e+92
-1.8497761e+92
-1.8506508e+92
-1.856196e+92
-1.8555118e+92
-1.851086e+92
-1.8510586e+92
-1.8567736e+92
-1.8567391e+92
-1.8639966e+92
-1.8628267e+92
-1.8634028e+92
-1.8682493e+92
-1.8677886e+92
-1.8470949e+92
-1.8473592e+92
-1.8529537e+92
-1.8526352e+92
-1.8486284e+92
-1.8490394e+92
-1.8545449e+92
-1.8538159e+92
-1.8669769e+92
-1.8621151e+92
-1.861423e+92
-1.8660948e+92
-1.8655767e+92
-1.8608062e+92
-1.8603933e+92
-1.8651913e+92
-1.8347793e+92
-1.8344914e+92
-1.8377804e+92
-1.8385245e+92
-1.838207e+92
-1.8410874e+92
-1.8408781e+92
-1.838512e+92
-1.8385785e+92
-1.8347586e+92
-1.8328897e+92
-1.8359096e+92
-1.8363064e+92
-1.8379484e+92
-1.8399945e+92
-1.8390525e+92
-1.829985e+92
-1.8310893e+92
-1.8344474e+92
-1.8327748e+92
-1.8320181e+92
-1.831891e+92
-1.8345513e+92
-1.8354846e+92
-1.8380846e+92
-1.8351067e+92
-1.8357794e+92
-1.8385249e+92
-1.8340551e+92
-1.8347446e+92
-1.8377571e+92
-1.8369811e+92
-1.8644482e+92
-1.8597513e+92
-1.8591729e+92
-1.8637225e+92
-1.8520026e+92
-1.8461717e+92
-1.8462526e+92
-1.8515574e+92
-1.8627567e+92
-1.8584131e+92
-1.857742e+92
-1.862274e+92
-1.8507726e+92
-1.8454593e+92
-1.8450343e+92
-1.8502802e+92
-1.6597875e+92
-1.675128e+92
-1.6723546e+92
-1.6632645e+92
-1.6610199e+92
-1.7354763e+92
-1.7322318e+92
-1.6645076e+92
-1.718186e+92
-1.6623761e+92
-1.7160503e+92
-2.0018043e+92
-2.0071962e+92
-2.0112607e+92
-1.9799875e+92
-2.0029638e+92
-1.9732168e+92
-1.9449962e+92
-1.9403162e+92
-1.9529538e+92
-2.0323089e+92
-2.0274049e+92
-1.9573301e+92
-2.0366917e+92
-2.0382678e+92
-2.0298706e+92
-1.9951677e+92
-1.9620651e+92
-1.9255547e+92
-2.0226121e+92
-1.9902116e+92
-1.9581087e+92
-1.9214132e+92
-1.8774849e+92
-1.8806854e+92
-1.8824072e+92
-1.9503144e+92
-1.9527383e+92
-1.9906306e+92
-1.9885709e+92
-1.8789177e+92
-1.9487338e+92
-1.945687e+92
-1.9830686e+92
-1.9862105e+92
-1.9861513e+92
-1.9518225e+92
-1.9167746e+92
-1.8657169e+92
-1.9814277e+92
-1.9480481e+92
-1.9135077e+92
-1.8635079e+92
-1.8114477e+92
-1.8143432e+92
-1.8620581e+92
-1.7973531e+92
-1.8584693e+92
-1.794173e+92
-1.853494e+92
-1.7907729e+92
-1.8488276e+92
-1.7886969e+92
-2.0157175e+92
-2.0136823e+92
-2.0608308e+92
-2.0565277e+92
-2.0205963e+92
-2.0726353e+92
-2.0717098e+92
-2.0837409e+92
-2.0847042e+92
-2.0188043e+92
-2.0707378e+92
-2.0691077e+92
-2.0672999e+92
-2.0646248e+92
-1.6620811e+92
-1.6637979e+92
-1.6217337e+92
-1.6381944e+92
-1.8841759e+92
-1.8915584e+92
-1.8861826e+92
-1.8909003e+92
-1.8859138e+92
-1.8853013e+92
-1.8847342e+92
-1.8855678e+92
-1.8865873e+92
-1.8013121e+92
-1.8007948e+92
-1.7637089e+92
-1.7670791e+92
-1.6779578e+92
-1.8344454e+92
-1.834216e+92
-1.8345478e+92
-1.8502016e+92
-1.8504252e+92
-1.8585667e+92
-1.8586273e+92
-1.8704755e+92
-1.8704996e+92
-1.8579795e+92
-1.8565906e+92
-1.8693292e+92
-1.8674454e+92
-1.8343208e+92
-1.8343946e+92
-1.8499305e+92
-1.8484041e+92
-1.8199057e+92
-1.819804e+92
-1.8206174e+92
-1.8152809e+92
-1.7554756e+92
-1.750669e+92
-1.8198986e+92
-1.8192963e+92
-1.812941e+92
-1.8150823e+92
-1.6561659e+92
-1.7492971e+92
-1.7523031e+92
-1.6581716e+92
-1.8195128e+92
-1.8200414e+92
-1.814702e+92
-1.8122824e+92
-1.8191629e+92
-1.8125136e+92
-1.8198016e+92
-1.8171688e+92
-1.8477938e+92
-1.8452544e+92
-1.8457461e+92
-1.8491727e+92
-1.843988e+92
-1.8408879e+92
-1.8414322e+92
-1.8450876e+92
-1.8387089e+92
-1.8397726e+92
-1.8440681e+92
-1.8432705e+92
-1.8492661e+92
-1.8460412e+92
-1.8457127e+92
-1.8489756e+92
-1.8766666e+92
-1.8714471e+92
-1.8714663e+92
-1.8765648e+92
-1.8640003e+92
-1.8576748e+92
-1.8583653e+92
-1.8641822e+92
-1.8577583e+92
-1.858106e+92
-1.8636738e+92
-1.8632501e+92
-1.876175e+92
-1.8711265e+92
-1.8709783e+92
-1.8759106e+92
-1.8751524e+92
-1.8704907e+92
-1.8698217e+92
-1.8742446e+92
-1.8624402e+92
-1.8571228e+92
-1.8569655e+92
-1.8622107e+92
-1.8557711e+92
-1.8563971e+92
-1.8615741e+92
-1.8611173e+92
-1.8737782e+92
-1.8691022e+92
-1.8687714e+92
-1.8737536e+92
-1.8397264e+92
-1.8405732e+92
-1.8447893e+92
-1.8433396e+92
-1.8404198e+92
-1.8397443e+92
-1.8438925e+92
-1.8450479e+92
-1.845918e+92
-1.8452126e+92
-1.8488465e+92
-1.8490814e+92
-1.8483893e+92
-1.8455459e+92
-1.8445999e+92
-1.8473511e+92
-1.8453321e+92
-1.8434356e+92
-1.8441854e+92
-1.8466924e+92
-1.8432134e+92
-1.8396631e+92
-1.8402272e+92
-1.8443843e+92
-1.8395737e+92
-1.8398202e+92
-1.8438474e+92
-1.8430996e+92
-1.8468431e+92
-1.8440507e+92
-1.8436299e+92
-1.8464305e+92
-1.8607617e+92
-1.8549421e+92
-1.860824e+92
-1.8556526e+92
-1.8733252e+92
-1.8681798e+92
-1.8682975e+92
-1.8731656e+92
-1.8550168e+92
-1.8606769e+92
-1.8600855e+92
-1.8546514e+92
-1.8676349e+92
-1.8679435e+92
-1.872712e+92
-1.8520173e+92
-1.8528054e+92
-1.8571522e+92
-1.8579844e+92
-1.8537657e+92
-1.8540257e+92
-1.8591304e+92
-1.8587611e+92
-1.8661288e+92
-1.8665649e+92
-1.8408411e+92
-1.8398035e+92
-1.8430901e+92
-1.8435242e+92
-1.8429582e+92
-1.8460011e+92
-1.843211e+92
-1.845748e+92
-1.8436042e+92
-1.8410365e+92
-1.8400485e+92
-1.8426261e+92
-1.8421495e+92
-1.8407915e+92
-1.8384699e+92
-1.8402062e+92
-1.7377427e+92
-1.7317205e+92
-1.7405071e+92
-1.7340321e+92
-1.8248167e+92
-1.8190021e+92
-1.8171309e+92
-1.8183526e+92
-1.8285117e+92
-1.8396425e+92
-1.835549e+92
-1.8288756e+92
-1.8278171e+92
-1.8336429e+92
-1.8354466e+92
-1.8266756e+92
-1.8317043e+92
-1.8349412e+92
-1.8264603e+92
-1.8262653e+92
-1.8338114e+92
-1.8312289e+92
-1.825789e+92
-1.8244643e+92
-1.7326096e+92
-1.8176009e+92
-1.8141606e+92
-1.8238938e+92
-1.833716e+92
-1.8296091e+92
-1.823724e+92
-1.8224456e+92
-1.8281219e+92
-1.8293501e+92
-1.8211325e+92
-1.7374419e+92
-1.7300395e+92
-1.7342865e+92
-1.847693e+92
-1.8485713e+92
-1.8511637e+92
-1.8517779e+92
-1.8493757e+92
-1.8490301e+92
-1.8525221e+92
-1.8520189e+92
-1.847335e+92
-1.8476416e+92
-1.8473806e+92
-1.8475932e+92
-1.8472215e+92
-1.8471591e+92
-1.8466036e+92
-1.8468279e+92
-1.8523321e+92
-1.8528016e+92
-1.8582359e+92
-1.8577261e+92
-1.8532594e+92
-1.8536345e+92
-1.8593654e+92
-1.8587542e+92
-1.8649242e+92
-1.8638406e+92
-1.864406e+92
-1.8703066e+92
-1.8696796e+92
-1.8495322e+92
-1.8499068e+92
-1.8556645e+92
-1.8552277e+92
-1.8507386e+92
-1.8515567e+92
-1.8571e+92
-1.8565944e+92
-1.86885e+92
-1.8631988e+92
-1.8628152e+92
-1.8680844e+92
-1.8675134e+92
-1.862054e+92
-1.8615348e+92
-1.8670326e+92
-1.8473509e+92
-1.847036e+92
-1.8506251e+92
-1.8508982e+92
-1.846193e+92
-1.846109e+92
-1.8453944e+92
-1.8460863e+92
-1.8502169e+92
-1.8470262e+92
-1.8457312e+92
-1.848973e+92
-1.844368e+92
-1.8458679e+92
-1.8448325e+92
-1.8441056e+92
-1.8432404e+92
-1.8438076e+92
-1.8471428e+92
-1.8463257e+92
-1.8444044e+92
-1.8442352e+92
-1.8475897e+92
-1.8479102e+92
-1.8434212e+92
-1.8434204e+92
-1.8434445e+92
-1.843176e+92
-1.8420433e+92
-1.8427477e+92
-1.8425293e+92
-1.8420009e+92
-1.8664321e+92
-1.8608291e+92
-1.8600479e+92
-1.8657391e+92
-1.8544499e+92
-1.8490418e+92
-1.8485016e+92
-1.8538433e+92
-1.8650779e+92
-1.8593069e+92
-1.8586355e+92
-1.8531273e+92
-1.8478304e+92
-1.8473893e+92
-1.852677e+92
-1.6632949e+92
-1.6761597e+92
-1.6779491e+92
-1.6837422e+92
-1.6822135e+92
-1.6996656e+92
-1.6778142e+92
-1.6753939e+92
-1.6971779e+92
-1.6675665e+92
-1.6649515e+92
-1.7401444e+92
-1.7371309e+92
-1.6686856e+92
-1.7244455e+92
-1.6673548e+92
-1.7219047e+92
-1.7226559e+92
-1.667054e+92
-1.6647223e+92
-1.7213369e+92
-1.9912043e+92
-1.9858457e+92
-1.9492181e+92
-1.9530173e+92
-1.9618035e+92
-1.9661114e+92
-2.0110699e+92
-1.9747085e+92
-1.9347162e+92
-2.0023e+92
-1.9678685e+92
-1.9299495e+92
-1.8874503e+92
-1.8846237e+92
-1.8863629e+92
-1.9557825e+92
-1.9574074e+92
-1.9961966e+92
-1.9936122e+92
-1.8892421e+92
-1.9611424e+92
-2.0006603e+92
-1.999572e+92
-1.9601903e+92
-1.9951537e+92
-1.9609727e+92
-1.9255589e+92
-1.8731088e+92
-1.990186e+92
-1.9572137e+92
-1.9217124e+92
-1.8693871e+92
-1.8179677e+92
-1.8206647e+92
-1.8182784e+92
-1.9140731e+92
-1.8833565e+92
-1.8819786e+92
-1.9124207e+92
-1.976367e+92
-1.9789252e+92
-1.815347e+92
-1.9109701e+92
-1.8803004e+92
-1.8769096e+92
-1.9080437e+92
-1.9747963e+92
-1.9715748e+92
-1.951733e+92
-1.917154e+92
-1.8677944e+92
-1.8018775e+92
-1.9479736e+92
-1.9137587e+92
-1.865711e+92
-1.8005554e+92
-1.8629403e+92
-1.7991955e+92
-1.8592317e+92
-1.7961572e+92
-1.853484e+92
-1.7907006e+92
-1.848804e+92
-1.7890962e+92
-2.0273892e+92
-2.0278129e+92
-2.0471315e+92
-2.0463856e+92
-2.0783988e+92
-2.0791731e+92
-2.0802979e+92
-2.0799761e+92
-2.0264988e+92
-2.0455044e+92
-2.0444644e+92
-2.0261341e+92
-2.0776209e+92
-2.0773319e+92
-2.0262634e+92
-2.0796702e+92
-2.0785608e+92
-2.0904544e+92
-2.0915956e+92
-2.0234244e+92
-2.0760967e+92
-2.0744802e+92
-2.0864512e+92
-2.088421e+92
-2.0526668e+92
-2.0337028e+92
-2.0329866e+92
-2.0520322e+92
-2.0860687e+92
-2.0919475e+92
-2.0921314e+92
-2.0859115e+92
-2.0851989e+92
-2.0915085e+92
-2.0901719e+92
-2.0843779e+92
-2.1055146e+92
-2.1001161e+92
-2.0990346e+92
-2.1007532e+92
-2.1062636e+92
-2.1060626e+92
-2.1008359e+92
-2.0320244e+92
-2.0300227e+92
-2.0493323e+92
-2.0510468e+92
-2.0835307e+92
-2.0894703e+92
-2.0830793e+92
-2.0822666e+92
-2.0813992e+92
-2.0319574e+92
-2.0861336e+92
-2.0851228e+92
-2.0297538e+92
-2.0815064e+92
-2.0834544e+92
-2.0932795e+92
-2.0951443e+92
-1.7436686e+92
-1.7420146e+92
-1.7436392e+92
-1.7457125e+92
-1.6657422e+92
-1.7470566e+92
-1.7437713e+92
-1.7451972e+92
-1.7495104e+92
-1.6251505e+92
-1.6672676e+92
-1.8868945e+92
-1.887349e+92
-1.8928248e+92
-1.8922617e+92
-1.8931527e+92
-1.8863337e+92
-1.8856065e+92
-1.8851772e+92
-1.8845677e+92
-1.8938946e+92
-1.8884148e+92
-1.8879803e+92
-1.8933568e+92
-1.8902318e+92
-1.8892294e+92
-1.8897234e+92
-1.8950996e+92
-1.8947311e+92
-1.6618748e+92
-1.8200569e+92
-1.8170743e+92
-1.8208944e+92
-1.8215212e+92
-1.8178923e+92
-1.8163378e+92
-1.8218369e+92
-1.8213584e+92
-1.8166076e+92
-1.8208337e+92
-1.7525143e+92
-1.7560747e+92
-1.6597827e+92
-1.8416187e+92
-1.8428843e+92
-1.8485409e+92
-1.8470382e+92
-1.8507544e+92
-1.8540426e+92
-1.8406807e+92
-1.8411262e+92
-1.8454901e+92
-1.8452267e+92
-1.8407062e+92
-1.8409917e+92
-1.845123e+92
-1.8464457e+92
-1.8499446e+92
-1.8486995e+92
-1.8533279e+92
-1.8538857e+92
-1.8531915e+92
-1.8488147e+92
-1.8489415e+92
-1.8527884e+92
-1.8682573e+92
-1.8625165e+92
-1.862587e+92
-1.8680965e+92
-1.8616698e+92
-1.8620533e+92
-1.8677772e+92
-1.8671217e+92
-1.8761103e+92
-1.8811243e+92
-1.8805954e+92
-1.8755605e+92
-1.8751321e+92
-1.8803035e+92
-1.8661083e+92
-1.8611776e+92
-1.8607383e+92
-1.8658305e+92
-1.858967e+92
-1.8600615e+92
-1.8651855e+92
-1.8644656e+92
-1.8738586e+92
-1.8742877e+92
-1.8797055e+92
-1.8788326e+92
-1.8781159e+92
-1.8731649e+92
-1.8724889e+92
-1.8776542e+92
-1.84054e+92
-1.8419186e+92
-1.8441564e+92
-1.8433682e+92
-1.8410814e+92
-1.8410367e+92
-1.8442521e+92
-1.8453694e+92
-1.8519397e+92
-1.8475808e+92
-1.8484036e+92
-1.8520551e+92
-1.8510453e+92
-1.8469514e+92
-1.8463024e+92
-1.8497124e+92
-1.8262517e+92
-1.8404215e+92
-1.8312768e+92
-1.8318039e+92
-1.836602e+92
-1.8374642e+92
-1.8350508e+92
-1.8305893e+92
-1.8297112e+92
-1.821122e+92
-1.7441908e+92
-1.7380709e+92
-1.8198291e+92
-1.8220894e+92
-1.8304155e+92
-1.8376688e+92
-1.8351385e+92
-1.8308071e+92
-1.8307928e+92
-1.8352937e+92
-1.8385792e+92
-1.8301805e+92
-1.7338743e+92
-1.7385637e+92
-1.7369639e+92
-1.7415414e+92
-1.8222516e+92
-1.820021e+92
-1.8205866e+92
-1.8252612e+92
-1.7407461e+92
-1.7351333e+92
-1.8357315e+92
-1.8388023e+92
-1.8300787e+92
-1.8306417e+92
-1.8301828e+92
-1.8352348e+92
-1.8379677e+92
-1.8301825e+92
-1.8307637e+92
-1.8366955e+92
-1.8400351e+92
-1.8294034e+92
-1.8383074e+92
-1.8303762e+92
-1.8309214e+92
-1.8358258e+92
-1.8539328e+92
-1.8533492e+92
-1.853671e+92
-1.854135e+92
-1.8572349e+92
-1.8538512e+92
-1.8539873e+92
-1.8576727e+92
-1.8528241e+92
-1.8533038e+92
-1.8575561e+92
-1.857354e+92
-1.8541602e+92
-1.8540313e+92
-1.8538761e+92
-1.8540525e+92
-1.8789419e+92
-1.8728309e+92
-1.872122e+92
-1.8783037e+92
-1.8664429e+92
-1.8612267e+92
-1.8603907e+92
-1.8657803e+92
-1.8597723e+92
-1.8601442e+92
-1.8655795e+92
-1.8653071e+92
-1.8779369e+92
-1.8718898e+92
-1.8716927e+92
-1.8774998e+92
-1.8771631e+92
-1.8717785e+92
-1.8707421e+92
-1.8765276e+92
-1.8649339e+92
-1.8593663e+92
-1.8590469e+92
-1.8645398e+92
-1.8581856e+92
-1.8584913e+92
-1.86437e+92
-1.8636794e+92
-1.875999e+92
-1.8705656e+92
-1.8699501e+92
-1.8756853e+92
-1.8526995e+92
-1.8531608e+92
-1.857425e+92
-1.8568586e+92
-1.8531157e+92
-1.8525867e+92
-1.8571646e+92
-1.8578609e+92
-1.8537567e+92
-1.8534924e+92
-1.8538924e+92
-1.8536675e+92
-1.8530103e+92
-1.8532593e+92
-1.8525474e+92
-1.8525183e+92
-1.8516269e+92
-1.8516649e+92
-1.8522596e+92
-1.8521583e+92
-1.8559053e+92
-1.8521351e+92
-1.8524598e+92
-1.8567137e+92
-1.8524476e+92
-1.8522153e+92
-1.8564755e+92
-1.8565075e+92
-1.8519096e+92
-1.8522006e+92
-1.8519062e+92
-1.8516893e+92
-1.8634028e+92
-1.8584419e+92
-1.8628623e+92
-1.8578975e+92
-1.8754366e+92
-1.8696823e+92
-1.8692118e+92
-1.8749958e+92
-1.857512e+92
-1.8628084e+92
-1.8625025e+92
-1.8571496e+92
-1.8685774e+92
-1.8688685e+92
-1.8746861e+92
-1.8544711e+92
-1.8557085e+92
-1.8601491e+92
-1.8609257e+92
-1.8559427e+92
-1.8564711e+92
-1.8621694e+92
-1.8611749e+92
-1.8672203e+92
-1.8681859e+92
-1.8528906e+92
-1.8524097e+92
-1.8561687e+92
-1.856087e+92
-1.8510495e+92
-1.8511043e+92
-1.8514249e+92
-1.8506022e+92
-1.8491422e+92
-1.849195e+92
-1.8482235e+92
-1.8485991e+92
-1.8543808e+92
-1.852668e+92
-1.8512279e+92
-1.8535007e+92
-1.7909257e+92
-1.7958867e+92
-1.7976305e+92
-1.7923652e+92
-1.7894424e+92
-1.7883024e+92
-1.7905569e+92
-1.7915716e+92
-1.7903302e+92
-1.7960126e+92
-1.8083115e+92
-1.8020621e+92
-1.7903192e+92
-1.7884016e+92
-1.8000739e+92
-1.8018742e+92
-1.843728e+92
-1.8402674e+92
-1.8391763e+92
-1.8401716e+92
-1.8400825e+92
-1.8369788e+92
-1.8361707e+92
-1.8382104e+92
-1.8348982e+92
-1.8339742e+92
-1.833487e+92
-1.8327188e+92
-1.8324658e+92
-1.8316087e+92
-1.8311126e+92
-1.830804e+92
-1.7898708e+92
-1.7865332e+92
-1.801415e+92
-1.7979462e+92
-1.8384886e+92
-1.8351036e+92
-1.8337289e+92
-1.8347758e+92
-1.8301671e+92
-1.829214e+92
-1.8285224e+92
-1.8284349e+92
-1.7979908e+92
-1.7863051e+92
-1.7887371e+92
-1.7866543e+92
-1.7886178e+92
-1.7912658e+92
-1.7873484e+92
-1.7918126e+92
-1.7928351e+92
-1.7884768e+92
-1.8555419e+92
-1.8615465e+92
-1.8605893e+92
-1.8546617e+92
-1.8563301e+92
-1.8617655e+92
-1.8616017e+92
-1.8559609e+92
-1.8557327e+92
-1.8626371e+92
-1.8620722e+92
-1.8551658e+92
-1.8562787e+92
-1.863179e+92
-1.8628499e+92
-1.8562802e+92
-1.8617902e+92
-1.8572951e+92
-1.8625311e+92
-1.8570053e+92
-1.8632542e+92
-1.857272e+92
-1.862684e+92
-1.8576644e+92
-1.8639934e+92
-1.8634134e+92
-1.8569031e+92
-1.8568475e+92
-1.8647645e+92
-1.8564748e+92
-1.8562977e+92
-1.8643423e+92
-1.8531126e+92
-1.8532172e+92
-1.8525164e+92
-1.8525467e+92
-1.8539835e+92
-1.8541991e+92
-1.8551118e+92
-1.8549244e+92
-1.8536402e+92
-1.853801e+92
-1.8547263e+92
-1.8543419e+92
-1.853331e+92
-1.8533699e+92
-1.8525166e+92
-1.852379e+92
-1.8519965e+92
-1.8530911e+92
-1.8531171e+92
-1.8521141e+92
-1.8532661e+92
-1.8532871e+92
-1.8541277e+92
-1.853915e+92
-1.8525572e+92
-1.8528214e+92
-1.8535008e+92
-1.8531736e+92
-1.8523237e+92
-1.8527514e+92
-1.8517137e+92
-1.8513811e+92
-1.8561853e+92
-1.8565419e+92
-1.8577146e+92
-1.8573132e+92
-1.8568053e+92
-1.8569881e+92
-1.8582482e+92
-1.8579865e+92
-1.8630408e+92
-1.8614144e+92
-1.8611553e+92
-1.8627367e+92
-1.8623987e+92
-1.8607945e+92
-1.8604384e+92
-1.8619569e+92
-1.8573419e+92
-1.8577167e+92
-1.8590012e+92
-1.8585628e+92
-1.8593528e+92
-1.8580357e+92
-1.8578465e+92
-1.8591408e+92
-1.8641588e+92
-1.8626234e+92
-1.8623354e+92
-1.8639559e+92
-1.8637732e+92
-1.8620782e+92
-1.8616818e+92
-1.8633407e+92
-1.8668231e+92
-1.8672114e+92
-1.869221e+92
-1.8687983e+92
-1.865433e+92
-1.8658965e+92
-1.8678749e+92
-1.8673677e+92
-1.8684843e+92
-1.8665356e+92
-1.8662585e+92
-1.8681827e+92
-1.8743384e+92
-1.8720983e+92
-1.8717949e+92
-1.8740031e+92
-1.8736695e+92
-1.8714505e+92
-1.870997e+92
-1.873197e+92
-1.85361e+92
-1.8539205e+92
-1.8551864e+92
-1.854792e+92
-1.8543114e+92
-1.8544833e+92
-1.8557164e+92
-1.8555416e+92
-1.8605187e+92
-1.8590955e+92
-1.8589139e+92
-1.8603476e+92
-1.8599674e+92
-1.8585059e+92
-1.8581176e+92
-1.8595995e+92
-1.8549234e+92
-1.8552675e+92
-1.8563857e+92
-1.855973e+92
-1.8569041e+92
-1.8558095e+92
-1.8555605e+92
-1.8567065e+92
-1.8617187e+92
-1.8601959e+92
-1.8599409e+92
-1.8613316e+92
-1.8611454e+92
-1.8598045e+92
-1.8595085e+92
-1.8608164e+92
-1.8727161e+92
-1.8705891e+92
-1.8701796e+92
-1.8723353e+92
-1.8670096e+92
-1.8650632e+92
-1.8647077e+92
-1.8665818e+92
-1.8640458e+92
-1.8643325e+92
-1.8663337e+92
-1.865908e+92
-1.8720576e+92
-1.8697998e+92
-1.8694465e+92
-1.8716578e+92
-1.8712458e+92
-1.8691541e+92
-1.8689705e+92
-1.8710647e+92
-1.8656632e+92
-1.8638407e+92
-1.8637177e+92
-1.8654912e+92
-1.8630301e+92
-1.8633489e+92
-1.8651935e+92
-1.8648075e+92
-1.8707362e+92
-1.8686117e+92
-1.8682748e+92
-1.8703675e+92
-1.8539687e+92
-1.8606342e+92
-1.8603827e+92
-1.8544309e+92
-1.8540138e+92
-1.8596785e+92
-1.8609125e+92
-1.8542231e+92
-1.8548488e+92
-1.8614238e+92
-1.8619665e+92
-1.8549566e+92
-1.8550367e+92
-1.8618822e+92
-1.8617478e+92
-1.8547929e+92
-1.8510262e+92
-1.852055e+92
-1.8520825e+92
-1.8510478e+92
-1.8521071e+92
-1.8522448e+92
-1.8530099e+92
-1.8527147e+92
-1.8515088e+92
-1.8517428e+92
-1.852353e+92
-1.8519718e+92
-1.8518231e+92
-1.8519343e+92
-1.8508341e+92
-1.850613e+92
-1.8536243e+92
-1.8613103e+92
-1.8610929e+92
-1.8532088e+92
-1.8543102e+92
-1.8603763e+92
-1.8603056e+92
-1.8540603e+92
-1.8533559e+92
-1.859145e+92
-1.8577231e+92
-1.8521812e+92
-1.8594188e+92
-1.852951e+92
-1.8602378e+92
-1.8522338e+92
-1.8496767e+92
-1.8504591e+92
-1.849407e+92
-1.8487816e+92
-1.8502611e+92
-1.8514435e+92
-1.8512003e+92
-1.850124e+92
-1.8509428e+92
-1.8510058e+92
-1.8517073e+92
-1.8514928e+92
-1.8500842e+92
-1.8504346e+92
-1.8510953e+92
-1.8507546e+92
-1.8554102e+92
-1.8497994e+92
-1.8495191e+92
-1.8561476e+92
-1.8508134e+92
-1.8503687e+92
-1.8568461e+92
-1.8567728e+92
-1.8580317e+92
-1.8514804e+92
-1.8580201e+92
-1.8513916e+92
-1.8504351e+92
-1.8571111e+92
-1.8569809e+92
-1.8502497e+92
-1.8514305e+92
-1.8574774e+92
-1.8571317e+92
-1.851592e+92
-1.8510956e+92
-1.8514746e+92
-1.8566855e+92
-1.8572962e+92
-1.8519158e+92
-1.8586293e+92
-1.8587897e+92
-1.8523122e+92
-1.8583452e+92
-1.8586977e+92
-1.8521114e+92
-1.8519453e+92
-1.8494478e+92
-1.8495334e+92
-1.8503291e+92
-1.8501571e+92
-1.8482139e+92
-1.8491989e+92
-1.8492912e+92
-1.8482657e+92
-1.848036e+92
-1.8491048e+92
-1.8489927e+92
-1.8479458e+92
-1.8490295e+92
-1.8492089e+92
-1.849998e+92
-1.8495941e+92
-1.8474567e+92
-1.8477163e+92
-1.8466541e+92
-1.8464188e+92
-1.8484603e+92
-1.8484968e+92
-1.8474092e+92
-1.8472468e+92
-1.8482897e+92
-1.8484254e+92
-1.8491091e+92
-1.8488811e+92
-1.8476105e+92
-1.8477398e+92
-1.848419e+92
-1.8481581e+92
-1.8698812e+92
-1.8678471e+92
-1.8675967e+92
-1.8695561e+92
-1.864397e+92
-1.8626861e+92
-1.8624499e+92
-1.8641009e+92
-1.8618245e+92
-1.862114e+92
-1.8638955e+92
-1.8636018e+92
-1.8694243e+92
-1.8674039e+92
-1.8671217e+92
-1.8690827e+92
-1.8590869e+92
-1.8576279e+92
-1.8572922e+92
-1.858842e+92
-1.8545228e+92
-1.8533549e+92
-1.8530779e+92
-1.8542199e+92
-1.8524114e+92
-1.852732e+92
-1.8539826e+92
-1.8536061e+92
-1.858684e+92
-1.8570599e+92
-1.856765e+92
-1.8583253e+92
-1.8685876e+92
-1.866704e+92
-1.8664549e+92
-1.8683125e+92
-1.8631132e+92
-1.8614004e+92
-1.8611106e+92
-1.8627919e+92
-1.8601897e+92
-1.8605811e+92
-1.8624147e+92
-1.8620513e+92
-1.8578401e+92
-1.8562993e+92
-1.8560574e+92
-1.857566e+92
-1.8517221e+92
-1.8519164e+92
-1.853182e+92
-1.8529055e+92
-1.8510478e+92
-1.8512602e+92
-1.8524915e+92
-1.8521433e+92
-1.8571594e+92
-1.855603e+92
-1.8553299e+92
-1.8567639e+92
-1.6666472e+92
-1.6871117e+92
-1.6804793e+92
-1.6793329e+92
-1.6857792e+92
-1.7030547e+92
-1.6811984e+92
-1.6791271e+92
-1.7011391e+92
-1.667628e+92
-1.6696707e+92
-1.6636186e+92
-1.6707498e+92
-1.6627133e+92
-1.668901e+92
-1.7595056e+92
-1.7438041e+92
-1.7412975e+92
-1.7566506e+92
-1.6728588e+92
-1.7283394e+92
-1.6713074e+92
-1.7267989e+92
-1.6714787e+92
-1.729128e+92
-1.7271246e+92
-1.6701154e+92
-1.7230052e+92
-1.6672332e+92
-1.6649283e+92
-1.7222522e+92
-1.9859963e+92
-1.9428731e+92
-1.9807324e+92
-1.938661e+92
-1.8908194e+92
-1.8934116e+92
-1.8930869e+92
-1.9631665e+92
-1.966314e+92
-2.0058863e+92
-2.0032342e+92
-1.8957453e+92
-1.970467e+92
-2.0099358e+92
-2.0088716e+92
-1.9690238e+92
-2.0110339e+92
-1.9750869e+92
-1.9346172e+92
-1.879129e+92
-2.0023082e+92
-1.9670537e+92
-1.9297291e+92
-1.8763559e+92
-1.8254078e+92
-1.8228848e+92
-1.8206175e+92
-1.8864897e+92
-1.9189095e+92
-1.9164767e+92
-1.885614e+92
-1.9822247e+92
-1.9834221e+92
-1.822792e+92
-1.8887088e+92
-1.8883344e+92
-1.9210029e+92
-1.9220458e+92
-1.9871717e+92
-1.9858534e+92
-1.9608825e+92
-1.9260444e+92
-1.8758741e+92
-1.8083657e+92
-1.9571127e+92
-1.9221451e+92
-1.872036e+92
-1.8058632e+92
-1.8510467e+92
-1.8514777e+92
-1.8098472e+92
-1.8115083e+92
-1.9295901e+92
-1.8887981e+92
-1.8866234e+92
-1.9274589e+92
-1.9827116e+92
-1.9836255e+92
-2.0077512e+92
-2.0062012e+92
-1.9858029e+92
-1.9844214e+92
-2.0088576e+92
-2.009527e+92
-1.8465611e+92
-1.8486156e+92
-1.8077324e+92
-1.808237e+92
-1.9256134e+92
-1.8851243e+92
-1.8824458e+92
-1.9234764e+92
-1.98037e+92
-1.9813257e+92
-2.0045527e+92
-2.0038919e+92
-1.9793209e+92
-1.9779426e+92
-2.0020109e+92
-2.0029347e+92
-1.9170918e+92
-1.8683994e+92
-1.8033786e+92
-1.9136837e+92
-1.8665143e+92
-1.8028217e+92
-1.8629485e+92
-1.7993812e+92
-1.8592384e+92
-1.796321e+92
-1.790703e+92
-1.7891295e+92
-2.0355115e+92
-2.0455122e+92
-2.0448738e+92
-2.0351885e+92
-2.0463327e+92
-2.0366208e+92
-2.0360441e+92
-2.0460198e+92
-2.058479e+92
-2.0587478e+92
-2.0681699e+92
-2.0679331e+92
-2.0578234e+92
-2.0572653e+92
-2.0663827e+92
-2.0672203e+92
-2.0858564e+92
-2.0866408e+92
-2.0828871e+92
-2.0823352e+92
-2.0870283e+92
-2.0868893e+92
-2.083277e+92
-2.0833157e+92
-2.0845152e+92
-2.0846391e+92
-2.0884957e+92
-2.088209e+92
-2.0842749e+92
-2.0872888e+92
-2.0881506e+92
-2.0836842e+92
-2.0345663e+92
-2.0343745e+92
-2.0441886e+92
-2.0442929e+92
-2.0657191e+92
-2.056563e+92
-2.0563741e+92
-2.0655606e+92
-2.0648111e+92
-2.0559118e+92
-2.0340605e+92
-2.0337093e+92
-2.043223e+92
-2.0438356e+92
-2.0819596e+92
-2.0817696e+92
-2.0853924e+92
-2.0856762e+92
-2.0816384e+92
-2.0853422e+92
-2.0845956e+92
-2.0811381e+92
-2.040004e+92
-2.0595326e+92
-2.0582923e+92
-2.0388464e+92
-2.0928611e+92
-2.0988098e+92
-2.0986619e+92
-2.0924662e+92
-2.0905416e+92
-2.0915016e+92
-2.097834e+92
-2.0965432e+92
-2.1053157e+92
-2.1063295e+92
-2.1105882e+92
-2.1118188e+92
-2.1127715e+92
-2.1127684e+92
-2.1075106e+92
-2.1073152e+92
-2.0362052e+92
-2.0559112e+92
-2.0541998e+92
-2.0351586e+92
-2.0895488e+92
-2.0955137e+92
-2.0953634e+92
-2.0891689e+92
-2.0881559e+92
-2.0944875e+92
-2.0929702e+92
-2.0871623e+92
-2.1017753e+92
-2.1030584e+92
-2.1086462e+92
-2.1070615e+92
-2.1043233e+92
-2.109646e+92
-2.1096518e+92
-2.1041044e+92
-2.064433e+92
-2.0641195e+92
-2.0736363e+92
-2.0737057e+92
-2.0516938e+92
-2.0519051e+92
-2.0420055e+92
-2.0417146e+92
-2.0411113e+92
-2.0511234e+92
-2.0503738e+92
-2.040613e+92
-2.0634427e+92
-2.0628365e+92
-2.0721585e+92
-2.0730227e+92
-2.0903488e+92
-2.0904832e+92
-2.0944271e+92
-2.0941084e+92
-2.0986944e+92
-2.1030384e+92
-2.103813e+92
-2.0990698e+92
-2.1034003e+92
-2.0986084e+92
-2.1023634e+92
-2.0978764e+92
-2.0901534e+92
-2.0941058e+92
-2.0933504e+92
-2.0896455e+92
-2.0892554e+92
-2.0893883e+92
-2.0932796e+92
-2.0929815e+92
-2.0974861e+92
-2.1020718e+92
-2.1026401e+92
-2.097787e+92
-2.1021792e+92
-2.097386e+92
-2.096364e+92
-2.1008218e+92
-2.088977e+92
-2.0929066e+92
-2.0919105e+92
-2.088321e+92
-2.1168398e+92
-2.1160336e+92
-2.1157756e+92
-2.1173223e+92
-2.1107172e+92
-2.1075974e+92
-2.1079235e+92
-2.1112607e+92
-2.1074436e+92
-2.1108228e+92
-2.1094529e+92
-2.1063984e+92
-2.1118053e+92
-2.108643e+92
-2.1091451e+92
-2.1125691e+92
-2.1170246e+92
-2.1184928e+92
-2.1173697e+92
-2.1162412e+92
-2.1169519e+92
-2.117463e+92
-2.1189541e+92
-2.118247e+92
-2.108774e+92
-2.1122452e+92
-2.1111574e+92
-2.1079952e+92
-2.0398764e+92
-2.0496618e+92
-2.0492255e+92
-2.039306e+92
-2.0383338e+92
-2.0483504e+92
-2.0474007e+92
-2.0376918e+92
-2.0607353e+92
-2.0702253e+92
-2.0692066e+92
-2.0598761e+92
-2.0619971e+92
-2.0714069e+92
-2.0710725e+92
-2.0616212e+92
-2.0878593e+92
-2.0879016e+92
-2.0917411e+92
-2.0915116e+92
-2.0959351e+92
-2.0961863e+92
-2.1010167e+92
-2.1004444e+92
-2.0874658e+92
-2.0913182e+92
-2.0904891e+92
-2.0868293e+92
-2.0901182e+92
-2.0899518e+92
-2.0863028e+92
-2.0863854e+92
-2.0858626e+92
-2.0887518e+92
-2.0896818e+92
-2.0851053e+92
-2.0358004e+92
-2.0345574e+92
-2.0657083e+92
-2.0459394e+92
-2.0450582e+92
-2.0648203e+92
-2.0989944e+92
-2.0988368e+92
-2.0981655e+92
-2.1044254e+92
-2.1031917e+92
-2.0973596e+92
-2.0435569e+92
-2.0632414e+92
-2.0616429e+92
-2.0422321e+92
-2.0948379e+92
-2.1011329e+92
-2.0997994e+92
-2.0939307e+92
-2.0963785e+92
-2.1022498e+92
-2.1020688e+92
-2.0959178e+92
-2.1151627e+92
-2.1096932e+92
-2.1085451e+92
-2.113729e+92
-2.1110132e+92
-2.1107156e+92
-2.039571e+92
-2.0379907e+92
-1.787741e+92
-1.7778625e+92
-1.7775e+92
-1.7874326e+92
-1.7455775e+92
-1.7477073e+92
-1.7497736e+92
-1.7471662e+92
-1.781319e+92
-1.7797099e+92
-1.7892526e+92
-1.7916172e+92
-1.6686656e+92
-1.6701332e+92
-1.7501015e+92
-1.7470488e+92
-1.7484692e+92
-1.7524576e+92
-1.8866857e+92
-1.8872113e+92
-1.8945539e+92
-1.8938849e+92
-1.8959672e+92
-1.8932957e+92
-1.8929948e+92
-1.8956659e+92
-1.8892748e+92
-1.8865715e+92
-1.8863065e+92
-1.8889962e+92
-1.8860304e+92
-1.8861955e+92
-1.8888227e+92
-1.8886274e+92
-1.8856672e+92
-1.8858253e+92
-1.8884074e+92
-1.8881711e+92
-1.8849971e+92
-1.8853681e+92
-1.8879563e+92
-1.8875944e+92
-1.8955549e+92
-1.8882725e+92
-1.8877366e+92
-1.8950056e+92
-1.8900372e+92
-1.8890436e+92
-1.8896517e+92
-1.8969122e+92
-1.8963963e+92
-1.7372309e+92
-1.7402737e+92
-1.8221993e+92
-1.8298378e+92
-1.8328508e+92
-1.8353475e+92
-1.828532e+92
-1.8301543e+92
-1.8374872e+92
-1.8346078e+92
-1.8302886e+92