/*--------------------------------*- C++ -*----------------------------------*\
  =========                 |
  \\      /  F ield         | OpenFOAM: The Open Source CFD Toolbox
   \\    /   O peration     | Website:  https://openfoam.org
    \\  /    A nd           | Version:  7
     \\/     M anipulation  |
\*---------------------------------------------------------------------------*/
FoamFile
{
    version     2.0;
    format      ascii;
    class       volVectorField;
    location    "1000";
    object      UMean;
}
// * * * * * * * * * * * * * * * * * * * * * * * * * * * * * * * * * * * * * //

dimensions      [0 1 -1 0 0 0 0];

internalField   nonuniform List<vector> 
34158
(
(-1.0820774e+45 7.7036002e+43 -1.0179071e+44)
(-1.0806788e+45 4.9699169e+43 -1.0238528e+44)
(-1.0826852e+45 7.5521306e+43 -1.0651206e+44)
(-1.0782874e+45 3.7902552e+43 -1.0522541e+44)
(-1.0046143e+45 6.198897e+43 -6.1947051e+43)
(-9.9293807e+44 7.1340932e+43 -6.1626793e+43)
(-1.1139879e+45 5.0524496e+43 -6.4338713e+43)
(-1.1154953e+45 5.178661e+43 -6.6323197e+43)
(-1.0502519e+45 3.3276383e+43 -5.9661e+43)
(-1.077245e+45 2.3742268e+43 -6.1959458e+43)
(-9.9520285e+44 5.6812155e+43 -6.3291136e+43)
(-9.8495721e+44 6.8383015e+43 -6.3590557e+43)
(-1.1116613e+45 4.8136973e+43 -6.8180416e+43)
(-1.111868e+45 4.444117e+43 -7.0071564e+43)
(-9.2924839e+44 7.2235412e+43 -5.978543e+42)
(-1.0546091e+45 5.5151292e+43 -4.3638575e+43)
(-9.1381566e+44 6.8810281e+43 -5.4045897e+42)
(-1.0454584e+45 5.3508732e+43 -4.2392017e+43)
(-1.1364134e+45 4.3381861e+43 -3.5113581e+43)
(-1.1373105e+45 4.4594976e+43 -3.714738e+43)
(-1.1354054e+45 3.5576656e+43 1.3519753e+43)
(-1.1294449e+45 3.4749977e+43 1.5243744e+43)
(-1.0814438e+45 3.3731927e+43 -5.9257957e+43)
(-1.0511886e+45 2.2427693e+43 -6.1772412e+43)
(-1.0285354e+45 3.5395202e+43 -1.2465867e+44)
(-1.1741157e+45 3.7675112e+43 -4.0444947e+43)
(-1.18455e+45 1.6365236e+43 -4.0918444e+43)
(-1.0281854e+45 1.3681723e+43 -1.2465924e+44)
(-9.4337626e+44 2.8605879e+43 -8.9265379e+43)
(-1.0553244e+45 3.0754929e+43 -6.4143729e+43)
(-1.0649081e+45 2.2301782e+43 -6.3517225e+43)
(-9.4392216e+44 1.849636e+43 -9.2349716e+43)
(-9.4509823e+44 2.9174335e+43 -9.6519304e+43)
(-1.0523656e+45 3.2228132e+43 -7.2575958e+43)
(-1.080801e+45 3.7410321e+43 6.5266726e+43)
(-1.0792887e+45 2.1149845e+43 6.4680749e+43)
(-1.1210621e+45 3.6063026e+43 -6.9977863e+43)
(-1.1120432e+45 3.9862701e+43 -6.8780753e+43)
(-9.2408855e+44 6.3898591e+43 -5.9561919e+42)
(-1.0497987e+45 4.882791e+43 -4.5598768e+43)
(-9.1763276e+44 6.7625683e+43 -3.9891646e+42)
(-1.0425795e+45 5.124159e+43 -4.3947089e+43)
(-1.1316833e+45 4.224012e+43 -3.7964064e+43)
(-1.1298587e+45 3.9017753e+43 -3.9465077e+43)
(-1.2173285e+45 4.1424348e+43 -6.6755913e+43)
(-1.2128147e+45 3.8397938e+43 -6.6373459e+43)
(-8.7076039e+44 5.9880034e+43 1.3939337e+43)
(-9.70164e+44 6.3034348e+43 -3.0303939e+42)
(-1.0843952e+45 4.6766109e+43 -1.7830745e+43)
(-8.0669488e+44 5.147056e+43 1.5305708e+43)
(-9.5728762e+44 6.1976842e+43 -2.7232699e+42)
(-1.0764973e+45 4.455941e+43 -1.6474139e+43)
(-1.1492053e+45 3.8147972e+43 -5.4252252e+42)
(-1.1526241e+45 3.9272603e+43 -7.7655564e+42)
(-1.1349538e+45 3.4754107e+43 1.5330846e+43)
(-1.141211e+45 3.584603e+43 1.474145e+43)
(-1.1023605e+45 3.7812614e+43 1.254515e+43)
(-1.0916293e+45 3.2901994e+43 1.4009746e+43)
(-1.1224016e+45 3.1916712e+43 1.6596249e+43)
(-1.1177811e+45 3.2938051e+43 1.809834e+43)
(-1.1274353e+45 2.6760515e+43 -1.1701008e+44)
(-1.0879134e+45 1.7768088e+43 -6.1792627e+43)
(-1.1857113e+45 4.2098464e+43 -3.921809e+43)
(-1.0295e+45 1.58315e+43 -1.2635078e+44)
(-1.031271e+45 3.7123954e+43 -1.257866e+44)
(-1.1791512e+45 2.1096551e+43 -4.2277077e+43)
(-9.6508324e+44 2.6513875e+43 -8.9021616e+43)
(-1.0673962e+45 2.6595201e+43 -5.4848629e+43)
(-1.0659745e+45 1.4237034e+43 -6.615626e+43)
(-9.5222693e+44 1.405911e+43 -9.3592518e+43)
(-9.4516085e+44 2.3831562e+43 -9.3515839e+43)
(-1.0575757e+45 2.3385563e+43 -7.2258009e+43)
(-1.0684624e+45 1.7879571e+43 -6.4111824e+43)
(-9.4614814e+44 1.4776664e+43 -9.3139925e+43)
(-9.7294701e+44 1.9601242e+43 -1.1906246e+44)
(-1.0394226e+45 2.8631791e+43 -4.4195232e+43)
(-1.0465035e+45 2.0653005e+43 -4.8221101e+43)
(-8.9927888e+44 2.095786e+43 -6.6454628e+43)
(-8.9995409e+44 1.5819368e+43 -6.8735683e+43)
(-9.0365214e+44 2.3979384e+43 -7.4239886e+43)
(-1.0493006e+45 2.4974774e+43 -5.1349858e+43)
(-9.7405712e+44 2.734412e+43 -1.2049618e+44)
(-9.335547e+44 2.0083628e+43 -1.0550016e+44)
(-9.2935801e+44 2.100371e+43 -1.0784287e+44)
(-1.0008759e+45 2.0916508e+43 -6.7542711e+43)
(-1.0046595e+45 2.2378022e+43 -6.7771929e+43)
(-9.6056492e+44 1.9945699e+43 -7.8551782e+43)
(-9.587188e+44 1.746966e+43 -7.6460054e+43)
(-9.6996196e+44 2.2804481e+43 -6.4194152e+43)
(-9.6391281e+44 2.064886e+43 -8.2473428e+43)
(-9.6179125e+44 1.473804e+43 -8.122315e+43)
(-9.7368e+44 1.4662725e+43 -6.3651399e+43)
(-9.7250552e+44 2.1088489e+43 -6.6583878e+43)
(-9.3348509e+44 1.6564846e+43 -1.0895233e+44)
(-1.0032901e+45 1.5425288e+43 -7.3399929e+43)
(-9.3270049e+44 2.0219076e+43 -1.0878211e+44)
(-1.0038844e+45 2.058043e+43 -7.6612213e+43)
(-9.2896597e+44 2.9293108e+43 -1.1371712e+44)
(-9.3078302e+44 2.1602791e+43 -1.0968095e+44)
(-1.0017627e+45 1.9655678e+43 -7.4607742e+43)
(-9.9977287e+44 2.9971215e+43 -7.8731246e+43)
(-9.7034432e+44 1.8190295e+43 -6.6142396e+43)
(-9.6085704e+44 1.7315884e+43 -8.0638282e+43)
(-9.704756e+44 3.0471657e+43 -6.6832636e+43)
(-9.58829e+44 2.8338637e+43 -8.4046705e+43)
(-1.0838569e+45 3.7007482e+43 6.4259822e+43)
(-1.0831753e+45 2.0554147e+43 6.419822e+43)
(-1.0928795e+45 3.7826862e+43 4.5921378e+43)
(-1.0697221e+45 2.606885e+43 4.340614e+43)
(-1.0822952e+45 2.8933413e+43 2.0151217e+43)
(-1.0793627e+45 3.1262144e+43 2.0747354e+43)
(-1.0554212e+45 3.946707e+43 -4.4150476e+43)
(-1.0435279e+45 4.3106502e+43 -4.3660425e+43)
(-1.1402205e+45 3.2536464e+43 -4.0580368e+43)
(-1.1318846e+45 3.5493615e+43 -3.8637367e+43)
(-1.2184539e+45 3.1223912e+43 -6.5926555e+43)
(-1.2195512e+45 3.3731309e+43 -6.6721343e+43)
(-8.5677917e+44 5.8353851e+43 1.4771875e+43)
(-9.6446174e+44 5.4566729e+43 -3.6201176e+42)
(-1.0774196e+45 4.0914666e+43 -1.9322858e+43)
(-8.4654303e+44 5.879663e+43 1.4734804e+43)
(-9.583445e+44 5.9896165e+43 -1.6589422e+42)
(-1.0717137e+45 4.3605944e+43 -1.7394849e+43)
(-1.1410215e+45 3.6768563e+43 -8.3850343e+42)
(-1.1364009e+45 3.4764234e+43 -9.6897668e+42)
(-1.209764e+45 3.8261798e+43 -1.7128556e+43)
(-1.0381468e+45 1.5727673e+43 -3.6447963e+43)
(-1.0425788e+45 3.1662266e+43 -3.9722703e+43)
(-1.2070361e+45 3.2868459e+43 -1.6228412e+43)
(-1.0349331e+45 1.7520451e+43 -3.653083e+43)
(-1.0379411e+45 3.2073065e+43 -3.8324e+43)
(-8.9306472e+44 6.1407115e+43 1.5375832e+43)
(-9.1129058e+44 5.6194325e+43 1.2969622e+43)
(-1.0043783e+45 5.4667145e+43 5.1412242e+42)
(-1.107091e+45 4.0126718e+43 2.8267467e+42)
(-8.6395452e+44 5.6676406e+43 1.6869167e+43)
(-9.0545658e+44 5.5890102e+43 1.2671668e+43)
(-9.9007092e+44 5.3890994e+43 6.5892025e+42)
(-1.0948855e+45 3.8019548e+43 4.4078027e+42)
(-1.1408094e+45 3.3444635e+43 1.5523199e+43)
(-1.1460253e+45 3.4500207e+43 1.2686765e+43)
(-1.102504e+45 3.7628917e+43 1.4781847e+43)
(-1.0953885e+45 3.4936891e+43 1.4638161e+43)
(-1.1233471e+45 3.3053499e+43 1.7422968e+43)
(-1.1282134e+45 3.1863376e+43 1.7199602e+43)
(-1.016477e+45 4.365213e+43 1.06536e+43)
(-1.1067278e+45 3.3903165e+43 1.5532288e+43)
(-9.9544382e+44 4.2429546e+43 1.0371894e+43)
(-1.089566e+45 3.1601751e+43 1.7512319e+43)
(-1.0900562e+45 2.338341e+43 -7.360124e+43)
(-1.0830462e+45 1.8966038e+43 -6.5745445e+43)
(-1.0683423e+45 2.5018216e+43 2.8568396e+43)
(-1.1304221e+45 2.640386e+43 -1.1810719e+44)
(-9.4162164e+44 1.1051873e+43 -5.6004672e+43)
(-1.190175e+45 1.2733357e+43 -4.0901513e+43)
(-1.0336701e+45 1.3125238e+43 -1.2693465e+44)
(-9.7171764e+44 2.2737817e+43 -9.403704e+43)
(-1.0696832e+45 2.343106e+43 -6.0476555e+43)
(-1.0763304e+45 1.2426246e+43 -5.5364012e+43)
(-9.6957029e+44 1.2886611e+43 -9.4204825e+43)
(-1.0572716e+45 3.0311232e+43 -4.6890586e+43)
(-9.0754771e+44 2.2828473e+43 -7.4858812e+43)
(-9.0591862e+44 1.9238162e+43 -7.5693576e+43)
(-1.0578438e+45 2.2312809e+43 -5.0028816e+43)
(-9.7449253e+44 2.9763643e+43 -1.2032554e+44)
(-9.7458922e+44 2.1324348e+43 -1.2096287e+44)
(-1.0474707e+45 2.730977e+43 -4.9490301e+43)
(-1.0435025e+45 1.8811943e+43 -4.6706383e+43)
(-9.0176105e+44 2.8493355e+43 -7.223879e+43)
(-9.0227544e+44 2.350318e+43 -6.8818776e+43)
(-9.9157735e+44 1.6188939e+43 -6.8424484e+43)
(-9.2238929e+44 1.5304695e+43 -1.0920939e+44)
(-9.3479285e+44 1.2512911e+43 -1.0216394e+44)
(-9.9881131e+44 1.3751973e+43 -5.6862081e+43)
(-9.6651989e+44 1.2339978e+43 -5.7712211e+43)
(-9.5182499e+44 1.1825111e+43 -7.7898309e+43)
(-9.536679e+44 1.0824941e+43 -7.0031278e+43)
(-9.6178186e+44 1.3350507e+43 -5.8067632e+43)
(-9.8035896e+44 4.8753373e+42 -6.266572e+43)
(-9.632457e+44 5.2784787e+42 -8.4991781e+43)
(-9.6489168e+44 1.4593757e+43 -8.2406149e+43)
(-9.7587789e+44 1.3862812e+43 -6.4020021e+43)
(-9.3543676e+44 1.3012633e+43 -1.1007316e+44)
(-9.337003e+44 9.4125484e+42 -1.126856e+44)
(-1.0042066e+45 7.4977006e+42 -7.9236476e+43)
(-1.0062632e+45 1.4949281e+43 -7.6377666e+43)
(-1.014106e+45 1.3820764e+43 -6.5153385e+43)
(-9.3641386e+44 1.4008806e+43 -1.0871164e+44)
(-9.3690106e+44 1.7476022e+43 -1.0892079e+44)
(-1.0067492e+45 1.7028079e+43 -7.3891556e+43)
(-9.6647325e+44 1.0466796e+43 -7.850302e+43)
(-9.7495776e+44 1.0735917e+43 -6.3752254e+43)
(-9.6303009e+44 1.5236246e+43 -8.3035648e+43)
(-9.7203557e+44 1.8478809e+43 -6.9122258e+43)
(-9.6653315e+44 1.8098675e+43 -7.8409007e+43)
(-9.6562049e+44 1.2401648e+43 -8.6294925e+43)
(-9.7680536e+44 1.2438025e+43 -6.7118394e+43)
(-9.3368121e+44 1.3742267e+43 -1.1140999e+44)
(-1.007638e+45 1.2548135e+43 -7.9577873e+43)
(-1.0138608e+45 1.7402233e+43 -6.598173e+43)
(-9.3286211e+44 1.6758748e+43 -1.1233966e+44)
(-8.9508817e+44 1.3085327e+43 2.2364793e+43)
(-8.6668106e+44 4.0071847e+42 -1.1351501e+44)
(-8.6866244e+44 3.4189176e+43 -1.1445186e+44)
(-9.8831311e+44 2.1947283e+43 -6.3171989e+43)
(-9.9839238e+44 2.5844227e+43 -6.2041882e+43)
(-8.6079842e+44 1.1630183e+43 -5.1018481e+43)
(-8.6566643e+44 2.3692261e+43 -4.8172344e+43)
(-9.9553239e+44 1.7362519e+43 -6.8299601e+43)
(-8.7057111e+44 1.2579794e+43 -5.3028942e+43)
(-8.7378643e+44 2.7912601e+43 -5.3234555e+43)
(-9.9231754e+44 2.2762368e+43 -6.8814031e+43)
(-8.6976997e+44 7.6539711e+42 -1.1662767e+44)
(-9.8886068e+44 2.0316859e+43 -7.0102384e+43)
(-9.9303941e+44 2.747647e+43 -7.2329353e+43)
(-8.6814377e+44 1.3947159e+43 -5.4207473e+43)
(-8.6770564e+44 2.8512657e+43 -5.5578877e+43)
(-8.9711743e+44 3.2974734e+43 2.1153347e+43)
(-8.968214e+44 2.0190653e+43 -1.167403e+44)
(-8.9627642e+44 9.2823612e+42 -1.1809471e+44)
(-9.3053641e+44 1.9501434e+43 -8.2682828e+43)
(-9.3156822e+44 7.3867407e+42 -8.1544218e+43)
(-8.903842e+44 2.1801338e+43 -1.1687418e+44)
(-8.8825035e+44 1.6663064e+43 -1.2010983e+44)
(-9.251381e+44 2.2770345e+43 -8.016145e+43)
(-9.2500402e+44 1.4452827e+43 -7.9252118e+43)
(-8.9683278e+44 1.1961251e+43 -7.9508217e+43)
(-9.0797383e+44 1.1869188e+43 -6.4246023e+43)
(-9.0876047e+44 2.0446469e+43 -6.3428303e+43)
(-8.9574912e+44 1.8036093e+43 -8.0784187e+43)
(-9.0185806e+44 7.261709e+42 -8.2357289e+43)
(-9.1311618e+44 6.8763945e+42 -6.7086908e+43)
(-9.1327311e+44 1.7721734e+43 -6.5879253e+43)
(-9.0194634e+44 1.6656608e+43 -8.1864455e+43)
(-8.9290841e+44 1.691161e+43 -6.4769035e+43)
(-8.9454053e+44 7.1365979e+42 -6.5694424e+43)
(-8.9073622e+44 8.2559822e+42 -6.0817939e+43)
(-8.9134541e+44 1.7479718e+43 -5.8229572e+43)
(-8.8881696e+44 1.7871028e+43 -6.2045556e+43)
(-8.9138736e+44 1.1441905e+43 -6.1884372e+43)
(-8.8708077e+44 1.1627482e+43 -5.7720886e+43)
(-8.8746986e+44 1.8025469e+43 -5.5678574e+43)
(-8.6672034e+44 1.6300423e+43 -5.3449292e+43)
(-8.7037839e+44 1.6416194e+43 -5.656959e+43)
(-8.6991232e+44 8.8529301e+42 -5.8384041e+43)
(-8.6796124e+44 1.090899e+43 -5.506218e+43)
(-8.6841664e+44 1.6967571e+43 -5.3441931e+43)
(-8.9426277e+44 1.7533377e+43 -6.667886e+43)
(-8.9906071e+44 8.9265923e+42 -6.8875822e+43)
(-8.9339701e+44 1.0190946e+43 -6.2407661e+43)
(-8.9039341e+44 1.7677637e+43 -6.1544947e+43)
(-8.9247953e+44 2.1256955e+43 -6.6799848e+43)
(-8.9403138e+44 1.0710729e+43 -6.6301526e+43)
(-8.8874341e+44 1.182209e+43 -6.0900557e+43)
(-8.9192669e+44 2.1583396e+43 -6.0222217e+43)
(-8.6750111e+44 1.3330146e+43 -5.5047199e+43)
(-8.6818959e+44 1.2291431e+43 -5.8384303e+43)
(-8.6985653e+44 2.0268182e+43 -5.892862e+43)
(-8.6994734e+44 1.9322288e+43 -5.3761624e+43)
(-8.7033959e+44 1.2897405e+43 -5.5220768e+43)
(-8.7146005e+44 1.1169297e+43 -5.9712107e+43)
(-8.6960486e+44 1.6778723e+43 -5.8449693e+43)
(-8.6831605e+44 1.7027312e+43 -5.4326524e+43)
(-9.0033096e+44 2.4003248e+43 -1.17235e+44)
(-8.988409e+44 1.0918634e+43 -1.1773669e+44)
(-9.3218712e+44 1.1544331e+43 -8.4104068e+43)
(-9.3373375e+44 2.3525362e+43 -8.5389838e+43)
(-9.0373853e+44 1.0593517e+43 -8.2457532e+43)
(-9.124783e+44 1.0629314e+43 -6.8692698e+43)
(-9.1420591e+44 2.2310611e+43 -6.8568329e+43)
(-9.035868e+44 1.9986009e+43 -8.4484402e+43)
(-9.3683785e+44 8.2442295e+42 -8.3907459e+43)
(-8.9745981e+44 1.0024439e+43 -1.1757339e+44)
(-8.9717893e+44 1.9459742e+43 -1.1879994e+44)
(-9.3178211e+44 1.8460073e+43 -8.630844e+43)
(-9.0334351e+44 1.7833313e+43 -8.3995906e+43)
(-9.0902973e+44 8.9478835e+42 -9.0365515e+43)
(-9.2055712e+44 8.1077252e+42 -7.0165044e+43)
(-9.1298831e+44 1.8508241e+43 -6.8942391e+43)
(-8.8894057e+44 3.0951265e+43 -1.1716926e+44)
(-8.9246572e+44 1.3648517e+43 -1.1617603e+44)
(-9.2800522e+44 1.00742e+43 -8.1787034e+43)
(-9.2049598e+44 2.8598024e+43 -8.4584834e+43)
(-8.9350641e+44 2.6699191e+43 -1.1759774e+44)
(-8.9484699e+44 1.6415342e+43 -1.182415e+44)
(-9.3164832e+44 1.4102267e+43 -8.1038987e+43)
(-9.272187e+44 2.5663186e+43 -8.4452637e+43)
(-9.1300132e+44 1.3613103e+43 -6.5516185e+43)
(-9.0225651e+44 1.3498554e+43 -8.0812967e+43)
(-8.9856493e+44 2.2251965e+43 -8.3492886e+43)
(-9.092767e+44 2.3442193e+43 -6.8220157e+43)
(-8.9498861e+44 2.6477792e+43 -8.1060839e+43)
(-8.9922685e+44 1.1018889e+43 -8.179033e+43)
(-9.1021926e+44 1.0268275e+43 -6.7333592e+43)
(-9.0403615e+44 2.6077296e+43 -6.7666923e+43)
(-8.7133208e+44 1.6398227e+43 -4.9737546e+43)
(-8.6779804e+44 1.4465801e+43 -5.6949056e+43)
(-8.6569408e+44 2.0420958e+43 -5.9082755e+43)
(-8.6482035e+44 2.0468188e+43 -5.4419477e+43)
(-8.9001311e+44 1.3958823e+43 -5.8059648e+43)
(-8.9136145e+44 1.3104426e+43 -6.3733156e+43)
(-8.899857e+44 2.1465208e+43 -6.6311796e+43)
(-8.8652577e+44 2.1568063e+43 -6.1613999e+43)
(-8.6987448e+44 1.5733993e+43 -5.1842692e+43)
(-8.6491329e+44 1.3238808e+43 -5.9407287e+43)
(-8.6041117e+44 2.3613382e+43 -5.9992834e+43)
(-8.5989543e+44 2.3705593e+43 -5.5747986e+43)
(-8.8742273e+44 1.2409645e+43 -6.185767e+43)
(-8.9073779e+44 1.0627405e+43 -6.6120729e+43)
(-8.8516056e+44 2.4285652e+43 -6.6395015e+43)
(-8.8116706e+44 2.4317418e+43 -6.2312157e+43)
(-1.149138e+45 2.6388318e+43 9.7823226e+43)
(-1.0869825e+45 3.4711118e+43 6.5813033e+43)
(-1.0876056e+45 1.9333481e+43 6.5487193e+43)
(-1.0827663e+45 3.5863714e+43 4.3652857e+43)
(-1.0740645e+45 2.2537319e+43 4.3305228e+43)
(-1.0883755e+45 2.8424453e+43 1.9821418e+43)
(-1.0845007e+45 3.132701e+43 2.0130963e+43)
(-9.8960673e+44 3.6170811e+43 8.1679313e+42)
(-1.1053547e+45 3.2730439e+43 2.8741244e+43)
(-9.4875918e+44 3.6440787e+43 8.3110784e+42)
(-1.0838059e+45 3.1605316e+43 2.9063469e+43)
(-1.1394516e+45 2.9143932e+43 -3.8343555e+43)
(-1.1393702e+45 2.6567442e+43 -3.8075226e+43)
(-9.6338342e+44 4.221138e+43 -4.5517872e+41)
(-1.0841315e+45 3.3687167e+43 -2.0323114e+43)
(-9.5564796e+44 4.8828903e+43 -1.762818e+42)
(-1.0730757e+45 3.5138694e+43 -1.8081954e+43)
(-1.1426352e+45 2.9283812e+43 -1.1338832e+43)
(-1.1410172e+45 3.1636518e+43 -8.8769609e+42)
(-1.2099527e+45 2.6456614e+43 -1.6061017e+43)
(-1.038001e+45 2.9942952e+43 -3.7337307e+43)
(-1.0472255e+45 1.3846365e+43 -3.7624745e+43)
(-1.2117829e+45 3.2150918e+43 -1.6686601e+43)
(-1.0449284e+45 1.2257232e+43 -3.5473136e+43)
(-1.0361878e+45 2.5640435e+43 -3.873244e+43)
(-8.9568189e+44 5.621823e+43 1.6398343e+43)
(-9.0251249e+44 4.9306335e+43 1.4039255e+43)
(-9.964624e+44 4.6013464e+43 5.1452894e+42)
(-1.0934657e+45 3.5682528e+43 2.2916934e+42)
(-8.855154e+44 5.8883832e+43 1.6272725e+43)
(-8.9981384e+44 5.4555453e+43 1.4163276e+43)
(-9.8898319e+44 5.2306325e+43 6.9585573e+42)
(-1.0868916e+45 3.6864495e+43 3.252009e+42)
(-1.1303682e+45 3.1109939e+43 1.1893158e+43)
(-1.1322103e+45 3.030533e+43 9.8593764e+42)
(-1.1873494e+45 3.6347236e+43 1.4446823e+43)
(-1.0321796e+45 1.5851293e+43 3.5969906e+43)
(-1.0313027e+45 2.8458254e+43 3.38846e+43)
(-1.066702e+45 3.153025e+43 -8.0017506e+42)
(-1.0536979e+45 1.9094441e+43 8.6080013e+40)
(-1.1838506e+45 2.7377981e+43 1.6026256e+43)
(-1.0257045e+45 2.6751893e+43 3.5368074e+43)
(-1.0322303e+45 1.8437933e+43 3.4834542e+43)
(-1.0517832e+45 2.1359047e+43 -4.7033498e+41)
(-1.0626706e+45 2.9708252e+43 -6.7634461e+42)
(-9.0822838e+44 5.2559222e+43 1.6156168e+43)
(-9.7384055e+44 5.0149016e+43 1.6224775e+43)
(-1.0227261e+45 4.5958922e+43 1.3980459e+43)
(-1.1140568e+45 3.4442946e+43 1.3897278e+43)
(-8.9761877e+44 4.911293e+43 1.7036645e+43)
(-9.5169218e+44 4.6899856e+43 1.7006392e+43)
(-1.0036121e+45 4.595223e+43 1.5273111e+43)
(-1.1012072e+45 3.1369908e+43 1.6033448e+43)
(-1.1275829e+45 3.1422644e+43 1.8020788e+43)
(-1.1321172e+45 3.0110543e+43 1.5916124e+43)
(-1.0088002e+45 4.2499943e+43 1.2922628e+43)
(-1.1004609e+45 3.3232965e+43 1.688156e+43)
(-9.9949691e+44 4.4098607e+43 1.2491183e+43)
(-1.0943986e+45 3.2647937e+43 1.6821967e+43)
(-9.2658695e+44 3.8281077e+43 1.6613145e+43)
(-1.0199876e+45 3.9522267e+43 6.7300225e+42)
(-9.0118351e+44 3.6973203e+43 1.6131372e+43)
(-9.9256411e+44 3.8358771e+43 7.3766266e+42)
(-1.0938924e+45 2.4376143e+43 -1.8018224e+43)
(-1.0818087e+45 1.9817039e+43 -1.5230175e+43)
(-1.0849445e+45 2.2503942e+43 -6.617205e+43)
(-1.092178e+45 1.8169177e+43 -7.2354229e+43)
(-1.0972517e+45 2.3702714e+43 -2.0726457e+43)
(-9.2925468e+44 1.9771588e+43 -5.7127191e+43)
(-9.3139718e+44 4.6294033e+42 -5.616513e+43)
(-9.3182985e+44 6.1746845e+42 -8.8845916e+43)
(-9.3135257e+44 2.158415e+43 -9.0668649e+43)
(-1.0813482e+45 1.6941665e+43 -1.0157167e+43)
(-9.2079471e+44 1.7656372e+43 -4.9139195e+43)
(-9.2642496e+44 9.341004e+42 -5.1693347e+43)
(-1.0870553e+45 1.699312e+43 -7.0744932e+43)
(-1.0878301e+45 1.4457945e+43 -6.4748998e+43)
(-9.9897773e+44 2.2574287e+43 5.1579737e+43)
(-9.9786884e+44 2.5555804e+43 5.1973178e+43)
(-1.0689057e+45 2.5354925e+43 2.8298069e+43)
(-1.133742e+45 2.4865631e+43 -1.1804807e+44)
(-9.420907e+44 1.1905244e+43 -5.4085908e+43)
(-8.4920541e+44 1.0719031e+43 -4.218282e+43)
(-8.4735998e+44 9.4193485e+42 -4.638023e+43)
(-8.4649408e+44 9.6151974e+42 -4.5350503e+43)
(-8.4666521e+44 9.0084313e+42 -4.8052531e+43)
(-8.4215667e+44 5.1728941e+42 -4.9489515e+43)
(-8.4267826e+44 7.8462631e+42 -4.9541476e+43)
(-9.4381714e+44 9.2886724e+42 -5.3992111e+43)
(-9.3866251e+44 1.5437904e+43 -5.7783899e+43)
(-1.0652344e+45 2.1412257e+43 -5.2552032e+43)
(-1.0614383e+45 1.5675633e+43 -4.899398e+43)
(-9.086558e+44 2.6068506e+43 -7.8772041e+43)
(-9.1214923e+44 2.2423866e+43 -7.7322698e+43)
(-9.8014993e+44 2.9528635e+43 -1.2192402e+44)
(-9.5307915e+44 1.655732e+43 -1.0169611e+44)
(-9.3595646e+44 1.562979e+43 -1.1066336e+44)
(-9.3898713e+44 1.2174496e+43 -1.0973155e+44)
(-9.9885196e+44 1.1580222e+43 -6.3826829e+43)
(-9.9690421e+44 1.3959462e+43 -6.6463397e+43)
(-9.5774395e+44 1.0445976e+43 -7.0991366e+43)
(-9.5486473e+44 1.3601442e+43 -7.4975303e+43)
(-9.6159809e+44 1.1103314e+43 -5.9966786e+43)
(-9.6126787e+44 1.6022171e+43 -6.2527371e+43)
(-9.5768815e+44 8.967589e+42 -7.2265026e+43)
(-9.571374e+44 1.1298268e+43 -7.0989714e+43)
(-9.6775071e+44 8.65172e+42 -5.6716991e+43)
(-9.6532287e+44 1.1452749e+43 -5.6897243e+43)
(-9.3535381e+44 1.4045714e+43 -1.1044274e+44)
(-9.3642427e+44 1.2474648e+43 -1.1071027e+44)
(-9.9845842e+44 9.3529977e+42 -6.4864427e+43)
(-9.9681855e+44 1.1407213e+43 -6.4021859e+43)
(-8.6174536e+44 1.0300013e+43 -5.9384875e+43)
(-9.8534648e+44 1.9365635e+43 -6.5111215e+43)
(-9.9970212e+44 2.1987597e+43 -6.2728366e+43)
(-8.6613777e+44 2.0933358e+43 -5.6229293e+43)
(-8.7557392e+44 4.576132e+42 -1.181781e+44)
(-8.7615163e+44 3.3653111e+43 -1.1788666e+44)
(-9.9761703e+44 1.4776825e+43 -7.1760075e+43)
(-9.9563949e+44 1.925788e+43 -7.0886851e+43)
(-8.7121343e+44 1.0710453e+43 -5.8971791e+43)
(-8.7468472e+44 2.4944086e+43 -5.7844682e+43)
(-8.958425e+44 3.4201122e+43 2.1926865e+43)
(-8.7199544e+44 8.4403881e+42 -1.1604922e+44)
(-8.6979289e+44 3.8727436e+43 -1.1475142e+44)
(-8.9542607e+44 1.33814e+43 2.0560479e+43)
(-9.9632012e+44 1.6894838e+43 -6.9084842e+43)
(-9.9980576e+44 2.2619423e+43 -6.9070921e+43)
(-8.728206e+44 1.1410304e+43 -5.5439484e+43)
(-8.7235175e+44 2.6459203e+43 -5.5040376e+43)
(-9.9077196e+44 1.861555e+43 -6.6965299e+43)
(-8.6863113e+44 1.5700408e+43 -5.1905876e+43)
(-9.975236e+44 1.4089662e+43 -6.6540602e+43)
(-8.6465615e+44 2.7749911e+43 -5.3126328e+43)
(-9.0834608e+44 8.6354045e+42 -5.9494087e+43)
(-8.9508554e+44 6.9452957e+42 -8.5220979e+43)
(-8.9356702e+44 1.4880861e+43 -7.7056651e+43)
(-9.0548065e+44 1.4796897e+43 -5.8609416e+43)
(-9.1873549e+44 1.0334185e+43 -7.9355947e+43)
(-8.8129377e+44 8.7722156e+42 -1.2008239e+44)
(-8.8419891e+44 1.9593604e+43 -1.1537489e+44)
(-9.2225446e+44 2.1017529e+43 -7.6584072e+43)
(-8.8949032e+44 1.1007174e+43 -1.1367835e+44)
(-8.8729732e+44 4.6487385e+42 -1.1687256e+44)
(-9.105003e+44 5.8486363e+42 -8.1868232e+43)
(-9.1220652e+44 1.0482607e+43 -7.9235172e+43)
(-8.9775607e+44 1.7627982e+42 -6.4301326e+43)
(-8.8382774e+44 3.521625e+42 -8.1831469e+43)
(-8.8548163e+44 7.4450519e+42 -7.8941865e+43)
(-8.9789079e+44 8.0707939e+42 -6.3018304e+43)
(-8.6726188e+44 9.49621e+42 -4.6167063e+43)
(-8.6337608e+44 7.7381956e+42 -5.2960806e+43)
(-8.636796e+44 9.9640371e+42 -5.2412329e+43)
(-8.6394947e+44 9.4667918e+42 -4.8370999e+43)
(-8.8690472e+44 7.7301524e+42 -5.3592874e+43)
(-8.8547892e+44 6.9124231e+42 -6.4251039e+43)
(-8.8741515e+44 1.1900573e+43 -5.9143429e+43)
(-8.8491613e+44 1.1788064e+43 -5.3854306e+43)
(-8.8064338e+44 7.0886977e+42 -6.178509e+43)
(-8.7956991e+44 1.5593576e+42 -6.2451126e+43)
(-8.7946414e+44 2.7389277e+42 -5.5191574e+43)
(-8.7949422e+44 8.0087995e+42 -5.5695175e+43)
(-8.588734e+44 4.5208749e+42 -5.0610944e+43)
(-8.5966638e+44 2.9965349e+42 -5.3076464e+43)
(-8.6020529e+44 6.898307e+42 -5.3336523e+43)
(-8.5861866e+44 7.8318509e+42 -5.0866183e+43)
(-8.7373109e+44 4.8486498e+42 -5.0533586e+43)
(-8.6716759e+44 2.4576461e+42 -6.1416984e+43)
(-8.6866299e+44 1.2973638e+43 -5.9082298e+43)
(-8.7125119e+44 1.1934596e+43 -5.3926874e+43)
(-8.901219e+44 2.1609491e+42 -5.9986415e+43)
(-8.9510485e+44 1.3219549e+42 -6.5617852e+43)
(-8.945615e+44 1.4791472e+43 -6.7391831e+43)
(-8.9014872e+44 1.3924779e+43 -6.1428228e+43)
(-8.9446402e+44 1.2409062e+43 -6.6022349e+43)
(-8.9157037e+44 2.8570981e+42 -6.4784606e+43)
(-8.915985e+44 3.1729619e+42 -5.9380844e+43)
(-8.893413e+44 1.189989e+43 -6.0522839e+43)
(-8.6993037e+44 5.6470576e+42 -5.253822e+43)
(-8.6956987e+44 4.0640916e+42 -5.7127256e+43)
(-8.6833851e+44 1.0951342e+43 -5.7795746e+43)
(-8.6723594e+44 1.0477638e+43 -5.4271722e+43)
(-8.9705766e+44 1.3132949e+43 -1.2063812e+44)
(-8.9700035e+44 4.2952687e+42 -1.187329e+44)
(-9.325004e+44 2.4650479e+42 -8.3284832e+43)
(-9.3050382e+44 1.209145e+43 -8.6418964e+43)
(-8.9920792e+44 1.8170086e+43 -1.1773956e+44)
(-8.9857376e+44 3.1773589e+42 -1.1726226e+44)
(-9.335049e+44 1.6056037e+42 -8.1689287e+43)
(-9.3243038e+44 1.8478402e+43 -8.5332018e+43)
(-9.0364936e+44 1.4598902e+43 -8.4115887e+43)
(-9.0510389e+44 7.2213147e+41 -8.0878815e+43)
(-9.1317717e+44 1.1084219e+42 -6.8403603e+43)
(-9.139093e+44 1.652601e+43 -6.9253951e+43)
(-9.1413556e+44 2.6037743e+42 -6.7140865e+43)
(-9.0265164e+44 3.5751473e+42 -8.2887627e+43)
(-9.0270758e+44 1.1490998e+43 -8.4018408e+43)
(-9.1279354e+44 1.3423385e+43 -6.8793878e+43)
(-9.1620703e+44 8.3967206e+42 -6.3256029e+43)
(-9.0607213e+44 7.0346384e+42 -8.7141901e+43)
(-9.0159885e+44 1.3604723e+43 -8.2520316e+43)
(-9.1145488e+44 1.4258228e+43 -6.6136598e+43)
(-9.3500681e+44 9.5750097e+42 -8.1567706e+43)
(-8.9847904e+44 9.4444132e+42 -1.2020955e+44)
(-8.9836986e+44 1.8868996e+43 -1.1842653e+44)
(-9.3225896e+44 1.8192002e+43 -8.3698335e+43)
(-8.9887189e+44 1.6227992e+43 -1.1932848e+44)
(-9.001484e+44 3.9432945e+42 -1.1875113e+44)
(-9.3533676e+44 7.0339546e+41 -8.2982741e+43)
(-9.3109083e+44 1.3477376e+43 -8.641521e+43)
(-9.1593698e+44 -7.6895247e+41 -6.758964e+43)
(-9.045058e+44 7.3281223e+41 -8.3100769e+43)
(-9.029175e+44 1.1535286e+43 -8.4003021e+43)
(-9.120799e+44 1.1957259e+43 -6.9973296e+43)
(-8.9271624e+44 7.3787907e+42 -5.7391056e+43)
(-8.9198686e+44 6.62185e+42 -6.7126992e+43)
(-8.9034066e+44 1.2291869e+43 -5.8784961e+43)
(-8.9250599e+44 1.2423595e+43 -6.4786715e+43)
(-8.6773052e+44 7.8781488e+42 -5.3190437e+43)
(-8.6844203e+44 7.1851689e+42 -5.6899528e+43)
(-8.6700808e+44 1.0916453e+43 -5.7504389e+43)
(-8.6721078e+44 1.0614774e+43 -5.309263e+43)
(-8.9386041e+44 4.3748956e+41 -6.5525011e+43)
(-8.9136432e+44 2.0866411e+42 -6.0324573e+43)
(-8.8935241e+44 1.2653624e+43 -6.3101109e+43)
(-8.9371577e+44 1.1379603e+43 -6.7489136e+43)
(-8.6797651e+44 1.2394617e+43 -6.0077318e+43)
(-8.7009081e+44 3.0659092e+42 -5.8029282e+43)
(-8.6785464e+44 5.7279696e+42 -5.5680955e+43)
(-8.8992021e+44 1.2864312e+43 -6.4247194e+43)
(-8.8460157e+44 8.0012092e+42 -6.5684483e+43)
(-8.8671845e+44 1.316534e+43 -5.9544728e+43)
(-8.8661279e+44 9.5018942e+42 -5.7690491e+43)
(-8.962514e+44 2.0580879e+43 -6.8765447e+43)
(-8.9678938e+44 5.9098265e+42 -6.6979124e+43)
(-8.9530297e+44 7.3280578e+42 -6.0959458e+43)
(-8.9141035e+44 1.9534254e+43 -6.2423393e+43)
(-8.6938365e+44 1.8517991e+43 -6.0222939e+43)
(-8.7375514e+44 8.4263967e+42 -5.8381724e+43)
(-8.9825954e+44 1.9773981e+43 -1.2040468e+44)
(-8.9909651e+44 7.0222146e+42 -1.1898128e+44)
(-9.3490397e+44 5.4837785e+42 -8.6845113e+43)
(-9.3587669e+44 2.0557247e+43 -8.6868644e+43)
(-9.0508869e+44 2.0037305e+43 -8.6757723e+43)
(-9.1571982e+44 5.905455e+42 -7.0222316e+43)
(-9.0574819e+44 6.227142e+42 -8.4920917e+43)
(-9.1580337e+44 2.2161398e+43 -7.1159325e+43)
(-9.1011416e+44 7.8541998e+42 -6.114734e+43)
(-8.934571e+44 7.8151311e+42 -8.3768345e+43)
(-8.9676197e+44 1.2717013e+43 -8.2250801e+43)
(-9.0689269e+44 1.3155383e+43 -6.6238432e+43)
(-9.3358832e+44 5.7382835e+42 -7.4547529e+43)
(-8.900088e+44 7.4557444e+42 -1.1942279e+44)
(-8.8867873e+44 1.5255725e+43 -1.2338621e+44)
(-9.2309495e+44 1.4316818e+43 -8.5446534e+43)
(-8.3176805e+44 2.8331743e+42 -1.007408e+43)
(-8.3579002e+44 3.2924896e+43 -6.4561832e+42)
(-7.6660926e+44 -4.444645e+42 1.1853881e+43)
(-7.6949665e+44 3.8366999e+43 1.1701757e+43)
(-8.1448651e+44 -6.8063265e+41 -1.305099e+44)
(-8.2744796e+44 3.3485797e+43 -1.2849953e+44)
(-8.286953e+44 -6.414181e+41 -1.2936972e+44)
(-8.3084136e+44 3.8783786e+43 -1.2907028e+44)
(-8.98674e+44 1.4929256e+43 -1.1549217e+44)
(-8.4793037e+44 6.740263e+42 -8.7168636e+43)
(-8.5385591e+44 3.0141719e+43 -7.9719093e+43)
(-9.0750898e+44 3.0659163e+43 -1.0907358e+44)
(-9.1243174e+44 7.3035505e+42 -1.1342481e+44)
(-8.6217118e+44 3.0066992e+42 -8.3042255e+43)
(-8.6888131e+44 3.1730831e+43 -8.1834805e+43)
(-9.1328552e+44 2.7095216e+43 -1.1236111e+44)
(-8.7108868e+44 3.3112545e+43 -8.1866135e+43)
(-8.6924666e+44 3.394906e+42 -8.346853e+43)
(-9.1408768e+44 9.4536187e+42 -1.143954e+44)
(-9.1780512e+44 3.1336868e+43 -1.127532e+44)
(-8.6557221e+44 3.1954676e+43 -8.5789995e+43)
(-8.6677386e+44 6.840724e+42 -8.1896426e+43)
(-9.1573424e+44 6.388957e+42 -1.1168582e+44)
(-9.1006008e+44 2.3974353e+43 -1.159018e+44)
(-7.6829317e+44 4.2206478e+42 1.1235301e+43)
(-8.2437869e+44 3.6763778e+42 -1.3081325e+44)
(-8.2419445e+44 4.2905965e+43 -1.3037662e+44)
(-9.0820708e+44 1.3869934e+43 -1.1524961e+44)
(-8.6098251e+44 8.541522e+42 -8.6336819e+43)
(-8.6186867e+44 3.4977338e+43 -8.2720653e+43)
(-9.106377e+44 3.3164105e+43 -1.1280591e+44)
(-9.0908018e+44 9.4026278e+42 -1.1257566e+44)
(-8.6255018e+44 9.398688e+42 -8.2413733e+43)
(-8.6152546e+44 4.134928e+43 -8.4866316e+43)
(-9.0232028e+44 3.4564203e+43 -1.1567992e+44)
(-7.7041956e+44 4.5234199e+43 1.0055333e+43)
(-8.3320039e+44 9.5132042e+42 -7.161436e+42)
(-8.3086629e+44 3.8820535e+43 -1.1177995e+43)
(-8.8253703e+44 1.2466795e+43 -1.3495193e+44)
(-8.8260895e+44 1.8767361e+43 -1.3671083e+44)
(-8.5873903e+44 1.152716e+43 -1.0343687e+44)
(-8.5750654e+44 1.7202457e+43 -1.059307e+44)
(-8.7544201e+44 1.3442631e+43 -1.4050737e+44)
(-8.6954553e+44 2.1192117e+43 -1.4018219e+44)
(-8.5134095e+44 1.2159984e+43 -1.078754e+44)
(-8.4685366e+44 1.8690932e+43 -1.047884e+44)
(-8.1609065e+44 1.6450283e+43 -7.6563598e+43)
(-7.9296824e+44 1.5585774e+43 -5.3575058e+43)
(-7.941152e+44 1.0809976e+43 -6.0417337e+43)
(-8.1834622e+44 1.1241485e+43 -8.2433055e+43)
(-8.2479943e+44 1.6106252e+43 -8.0885768e+43)
(-7.9997693e+44 1.528971e+43 -5.9553043e+43)
(-8.022962e+44 1.1625067e+43 -5.6236659e+43)
(-8.2673635e+44 1.1472542e+43 -7.8024434e+43)
(-7.8171236e+44 1.1856533e+43 -4.5917263e+43)
(-7.806959e+44 1.4901036e+43 -4.6914849e+43)
(-7.6045691e+44 1.4590579e+43 -3.9345669e+43)
(-7.6221419e+44 1.2121732e+43 -3.7487291e+43)
(-7.7444692e+44 1.0420262e+43 -4.9029431e+43)
(-7.751855e+44 1.5001028e+43 -4.0618543e+43)
(-7.5597972e+44 1.5005557e+43 -3.3240912e+43)
(-7.554412e+44 1.0854146e+43 -3.9981649e+43)
(-7.380298e+44 1.1362767e+43 -3.438336e+43)
(-7.4433062e+44 1.2537334e+43 -3.2576755e+43)
(-7.4250309e+44 1.4541526e+43 -3.4154278e+43)
(-7.2581038e+44 1.4580996e+43 -2.9136382e+43)
(-7.2764235e+44 1.3120064e+43 -2.8185531e+43)
(-7.8115656e+44 1.294815e+43 -4.4680045e+43)
(-7.7737659e+44 1.5056222e+43 -5.1122541e+43)
(-7.5440727e+44 1.5698745e+43 -4.4344183e+43)
(-7.6002857e+44 1.3803364e+43 -3.8766076e+43)
(-7.799454e+44 1.2296204e+43 -4.9650504e+43)
(-7.8417916e+44 1.5025628e+43 -4.5429937e+43)
(-7.633027e+44 1.4490728e+43 -3.8415567e+43)
(-7.5624062e+44 1.2724756e+43 -4.6283308e+43)
(-7.2889722e+44 1.4930791e+43 -2.8213259e+43)
(-7.4555298e+44 1.4390555e+43 -3.2915981e+43)
(-7.4021019e+44 1.346788e+43 -3.7488212e+43)