/*--------------------------------*- C++ -*----------------------------------*\
  =========                 |
  \\      /  F ield         | OpenFOAM: The Open Source CFD Toolbox
   \\    /   O peration     | Website:  https://openfoam.org
    \\  /    A nd           | Version:  7
     \\/     M anipulation  |
\*---------------------------------------------------------------------------*/
FoamFile
{
    version     2.0;
    format      ascii;
    class       volScalarField;
    location    "1000";
    object      nut;
}
// * * * * * * * * * * * * * * * * * * * * * * * * * * * * * * * * * * * * * //

dimensions      [0 2 -1 0 0 0 0];

internalField   nonuniform List<scalar> 
34222
(
1.3083868e-47
8.0697947e-48
2.5146502e-47
1.7641401e-47
1.4103229e-47
1.6908873e-47
2.3685346e-47
1.055541e-47
1.0259174e-47
7.8467049e-48
8.4391038e-48
1.3561492e-47
1.0259288e-47
4.4282335e-47
2.9980539e-47
1.6209798e-47
1.9927578e-47
1.9112063e-47
1.146735e-47
1.0796976e-47
1.7176523e-47
2.1412648e-47
2.6549013e-46
1.145789e-47
1.129701e-47
1.0358461e-47
7.9209767e-48
7.6233015e-48
8.9810962e-48
1.430556e-47
1.6882474e-47
9.7274406e-48
9.3000506e-48
1.1707531e-47
1.2512381e-47
1.3881351e-47
1.3820931e-47
1.1212757e-47
4.4140786e-47
4.1789736e-47
2.2678312e-47
1.896296e-47
2.3400791e-47
3.1554025e-47
1.6219773e-47
1.7324353e-47
2.8261097e-47
1.9625915e-47
1.3271061e-47
9.4160636e-48
1.2662796e-47
9.4311728e-46
1.204839e-46
1.2798317e-46
2.1264038e-46
1.7305783e-47
2.5522681e-47
1.3635086e-47
1.1605811e-47
1.151105e-47
8.3681716e-48
8.2257066e-48
9.4580901e-48
8.398394e-48
1.033323e-47
9.717162e-48
8.7372025e-48
2.399862e-47
2.1448241e-47
1.116935e-47
2.0261946e-47
6.7364611e-48
7.8144761e-48
1.672756e-47
1.0233909e-47
1.1477318e-47
2.0764919e-47
1.339117e-47
2.2914175e-47
1.7724526e-47
1.3477596e-47
1.6104038e-47
6.1240432e-48
6.7476751e-48
1.6331088e-47
1.7225548e-47
2.2048572e-47
2.0428855e-47
3.0613572e-47
4.1806442e-47
3.7186939e-47
2.0886206e-47
2.1795804e-47
3.2101973e-47
2.4761901e-47
2.7086668e-47
4.0212144e-47
1.6634409e-47
1.5701978e-47
1.1471451e-47
1.039039e-47
1.3748107e-47
1.8059106e-47
4.7854047e-46
1.8095308e-47
7.2942526e-46
4.64576e-46
5.1874783e-47
2.186558e-47
1.8433757e-47
6.1990912e-47
2.5446803e-47
5.6937749e-47
5.5198114e-47
2.4737909e-47
1.1464735e-46
2.7040672e-47
1.0888753e-46
1.9272987e-47
2.8682682e-47
1.8932532e-46
5.5937629e-48
4.2602222e-48
1.4814736e-47
4.2021962e-48
1.2548055e-47
1.3008129e-47
9.893342e-48
8.9473359e-48
9.6581987e-48
6.7966261e-48
8.6142201e-48
8.80871e-48
1.0807319e-47
9.3995526e-48
2.5642265e-47
2.8473287e-47
1.7927262e-47
3.0036486e-47
1.6268315e-47
2.8316389e-47
2.4223943e-47
2.2559232e-47
1.7902814e-47
4.6307828e-48
2.7141426e-48
1.7801778e-48
7.2868097e-48
7.5565275e-48
8.6454789e-48
8.5334787e-48
9.0318912e-48
7.0620595e-48
8.1236417e-48
1.6068085e-47
1.2234285e-47
1.0888698e-47
1.4598768e-47
2.1361669e-47
1.6351367e-47
1.8616844e-47
2.3734306e-47
1.8728657e-47
1.9851789e-47
1.152874e-47
1.0334417e-47
2.4677648e-47
6.3213576e-48
1.2078558e-47
6.9393212e-47
1.3703642e-47
2.3075717e-47
2.6062918e-47
4.4065311e-47
5.852431e-47
2.8974214e-47
4.367686e-47
4.3831931e-47
2.748555e-47
3.2204925e-47
2.6924998e-47
3.4850998e-47
2.2852627e-47
1.6828969e-47
1.1369787e-47
3.6471057e-47
7.5547895e-48
5.0034054e-48
3.0053276e-47
2.8812218e-47
8.4659742e-47
2.1792654e-46
2.8431458e-47
2.1427446e-46
1.905688e-47
3.4691132e-47
6.5780272e-48
5.9953276e-48
3.8557371e-47
1.8739089e-47
5.6196995e-46
4.3060077e-46
4.892392e-46
2.574157e-47
2.7378145e-47
1.9517379e-46
2.1960172e-46
2.1087235e-47
2.4365539e-47
1.4471558e-47
1.2835278e-47
8.7804411e-48
9.6048345e-48
9.0031358e-48
7.8232938e-48
1.4662559e-47
2.4228072e-47
2.4640741e-47
1.5354569e-47
2.5869062e-47
2.4707103e-47
1.6100129e-47
1.5608327e-47
2.1629714e-47
2.3933001e-47
1.3204661e-47
1.5663668e-47
5.5423833e-47
2.1038151e-47
6.3066195e-47
2.6489003e-47
9.60757e-47
2.2321045e-47
5.0273528e-47
2.3428414e-47
5.1808862e-47
1.7414508e-47
2.8470149e-47
1.0224759e-46
6.1575935e-48
5.893166e-48
5.7528187e-48
4.8659725e-48
6.1430523e-48
4.8278359e-48
6.7507335e-48
6.5726582e-48
3.2434269e-48
3.1641287e-48
3.9184666e-48
3.671032e-48
3.441111e-48
4.8083974e-48
3.6791264e-48
2.0620934e-48
4.4220224e-48
7.0449711e-48
4.4819776e-48
1.4967774e-47
1.3693604e-47
9.9877356e-48
1.3460752e-47
9.3356689e-48
9.9994467e-48
5.8774918e-48
4.9944768e-48
3.8127695e-48
4.6989072e-48
3.6595445e-48
2.2106459e-48
9.0230262e-48
9.2528271e-48
1.2061832e-47
9.3385169e-48
3.2857281e-47
3.0068788e-47
2.6127974e-47
2.9937075e-47
7.4838592e-48
7.5556913e-48
7.7446889e-48
6.8514144e-48
2.8724435e-47
1.8015009e-47
2.9261756e-47
2.8185083e-47
1.5574007e-47
9.7575905e-48
5.9659878e-48
2.4986601e-47
1.4934883e-47
9.6864144e-48
3.6525646e-48
1.0729995e-47
4.7545026e-49
5.4954432e-49
5.56882e-49
4.4713491e-49
6.8337737e-48
7.530675e-48
4.8298257e-48
4.9996053e-48
7.6033154e-48
7.6664382e-48
7.8809437e-48
8.4059006e-48
7.9578304e-48
7.4088505e-48
7.7676402e-48
8.9630251e-48
8.5817679e-48
6.9368287e-48
8.2498135e-48
8.9394197e-48
1.5494955e-47
2.3228776e-47
1.232778e-47
1.1500149e-47
1.6322349e-47
1.8760619e-47
1.8390698e-47
2.2188914e-47
1.4158946e-47
1.4357057e-47
4.102816e-47
2.9488144e-47
5.1934784e-47
1.9976138e-47
2.0998e-47
7.2929885e-47
3.0168656e-47
3.060782e-47
2.1810343e-47
2.174555e-47
3.9186165e-47
3.7176367e-47
3.823963e-47
3.8299091e-47
6.9428879e-48
5.4472372e-48
1.0304085e-47
8.1836992e-48
5.4699928e-48
9.98914e-48
1.6601179e-47
2.3214366e-47
2.1184369e-47
1.5135893e-47
2.2544226e-47
7.8900671e-48
6.9542266e-48
7.7426808e-48
2.1365526e-47
8.803845e-47
2.3920626e-47
2.2885007e-47
9.4168825e-47
1.5615625e-47
1.539323e-47
2.1738818e-47
2.1540163e-47
2.0858473e-47
2.1702859e-47
8.7592371e-47
9.560511e-47
3.4351563e-47
8.2643485e-48
5.7447855e-48
2.8542532e-47
1.0511473e-47
8.1423402e-48
5.9585874e-48
1.0189546e-47
1.7407054e-47
6.7632781e-48
7.2055879e-48
3.3947055e-47
3.6101561e-47
1.6210405e-47
3.7202527e-46
4.1371615e-46
2.6714701e-47
2.7457385e-47
1.854952e-46
2.1255652e-46
3.0139398e-47
2.953842e-47
2.3120093e-46
2.2149524e-46
1.5470143e-47
1.5360858e-47
2.1101796e-47
2.0773456e-47
1.5192643e-47
1.6564807e-47
2.2897999e-47
2.1034616e-47
2.0767442e-47
2.16953e-47
8.4956067e-47
9.6644691e-47
2.2841991e-47
2.310206e-47
9.6750632e-47
9.3298894e-47
9.3073057e-48
8.484185e-48
8.4227743e-48
7.9235682e-48
9.6846948e-48
9.7384262e-48
8.8329233e-48
8.6335492e-48
1.0460728e-47
8.984494e-48
2.590791e-48
3.2706654e-48
1.1380109e-47
1.1808964e-47
3.1675394e-48
3.1791391e-48
9.4274682e-48
1.0089754e-47
9.5492702e-48
8.5387336e-48
1.1068181e-47
1.0283084e-47
9.3205102e-48
9.712855e-48
1.002423e-47
1.0250957e-47
9.2138488e-48
8.8977629e-48
1.0787127e-47
9.7917185e-48
9.0551602e-48
9.7854904e-48
8.3084555e-48
9.0071816e-48
8.6613944e-48
7.37918e-48
2.2024907e-47
1.0368381e-47
9.9999987e-48
9.1423207e-48
9.3515508e-48
1.3750916e-47
1.5668334e-47
2.4862534e-47
2.3746941e-47
2.3869717e-47
1.5142991e-47
1.5497708e-47
4.6828982e-47
5.3498659e-47
2.2381203e-47
1.8161024e-47
2.0012185e-47
1.1911861e-47
2.1942776e-47
1.3940718e-47
2.3356207e-47
2.2551557e-47
1.4515389e-47
1.4018115e-47
4.9914566e-47
5.1740233e-47
2.2740709e-47
2.1715987e-47
6.0424871e-48
3.6659245e-48
3.8806042e-48
3.3284432e-48
3.3262942e-48
3.8203346e-48
2.9192783e-48
4.2474766e-48
3.0312944e-48
5.0998938e-48
6.0680441e-48
5.634412e-48
3.9353121e-48
3.4157153e-48
4.1979725e-48
3.5573558e-48
4.645831e-48
4.5265375e-48
4.8063752e-48
4.9308633e-48
3.7016901e-48
2.8529446e-48
4.011098e-48
2.9904699e-48
7.01862e-48
6.0831331e-48
6.4347882e-48
5.9342384e-48
4.9712079e-48
5.0845488e-48
5.2589518e-48
4.838214e-48
2.6483931e-48
2.4988371e-48
2.8914471e-48
2.7369856e-48
1.9532666e-48
1.9310456e-48
2.7053838e-48
3.0474107e-48
2.5634167e-48
2.7897359e-48
3.4338943e-48
3.3012114e-48
3.1809983e-48
3.371449e-48
4.1936873e-48
3.9215918e-48
4.546121e-48
3.79607e-48
3.5249256e-48
3.2371876e-48
3.4319453e-48
3.9782522e-48
3.2764938e-48
4.3260201e-48
3.4971407e-48
3.7983655e-48
3.8669089e-48
3.9371336e-48
4.0799728e-48
2.8277827e-48
2.8977922e-48
3.1391535e-48
3.1253418e-48
2.2346572e-48
2.2045408e-48
3.5140528e-48
3.4677524e-48
4.1028809e-48
4.2155921e-48
2.3382629e-48
4.4058881e-48
7.224027e-48
6.9087644e-48
6.0667712e-48
6.8635916e-48
5.5641989e-48
5.2354267e-48
3.8207262e-48
3.6600893e-48
4.4690756e-48
2.19451e-48
7.6806999e-48
1.4170134e-47
4.2796979e-48
1.0302488e-47
1.4636155e-47
1.1012172e-47
9.8818408e-48
3.0186862e-47
2.9388611e-47
1.2670952e-47
9.5034169e-48
1.0149212e-47
9.9715582e-48
2.7975635e-47
3.6127409e-47
6.6187858e-48
6.7605707e-48
7.3410119e-48
6.5543778e-48
3.5266914e-48
4.1138766e-48
3.7973446e-48
3.7284031e-48
3.2193288e-48
3.1596574e-48
2.8338677e-48
2.9462875e-48
2.3459155e-48
3.6903515e-48
4.0801546e-48
3.865404e-48
3.7078972e-48
3.275435e-48
3.2199595e-48
2.8647061e-48
2.9417947e-48
2.1881066e-48
2.3335713e-48
2.3962916e-48
2.5805428e-47
1.7547633e-47
3.0742567e-47
2.4982928e-47
1.3657394e-47
3.9399237e-47
7.1877879e-48
9.2223526e-48
7.4534689e-48
6.3579025e-48
6.0017237e-48
6.5650586e-48
6.6566401e-48
7.249986e-48
6.8025425e-48
6.1964764e-48
5.2703774e-48
5.1858236e-48
5.3708702e-48
5.2188765e-48
4.6716457e-48
5.1567586e-48
4.7288821e-48
4.9191912e-48
1.4536957e-47
2.0801466e-47
1.0468557e-47
5.9220432e-48
4.3294026e-49
4.5228136e-49
5.5851269e-49
4.3665191e-49
2.4605571e-47
1.4530371e-47
5.8988091e-48
1.3843979e-47
4.9828889e-48
4.7129228e-48
5.1480505e-48
5.0277093e-48
2.7062935e-48
3.0939753e-48
3.2969126e-48
3.2783581e-48
5.8336153e-48
5.4925394e-48
5.1417023e-48
5.2541637e-48
5.9213e-48
5.3874529e-48
5.4449262e-48
5.2788475e-48
5.6268623e-48
5.4621464e-48
7.2894741e-48
4.7158686e-48
4.9390875e-48
8.3069934e-48
7.8999543e-48
7.9896566e-48
7.2956794e-48
6.8260546e-48
7.4124661e-48
8.3956099e-48
7.9136306e-48
7.4541977e-48
8.6246712e-48
8.0768632e-48
2.2379887e-47
2.5803149e-47
2.2898439e-47
2.8286539e-47
2.5010269e-47
3.2563024e-47
6.8875262e-47
5.5558905e-47
3.0528993e-47
3.08869e-47
8.9517895e-47
7.2632116e-47
3.0526406e-47
3.1653597e-47
3.171044e-47
2.9100836e-47
6.2221574e-48
7.432177e-48
2.0518374e-47
1.791139e-47
1.6870821e-47
8.8739574e-48
5.8353939e-48
2.4420199e-47
1.6227091e-47
1.8355786e-47
8.7978606e-48
8.7633981e-48
6.9916612e-48
1.1684533e-47
1.1086826e-47
8.3773765e-48
8.5390668e-48
8.7432887e-48
8.7285101e-48
4.1073684e-48
4.0061238e-48
2.515271e-48
2.6707297e-48
2.395195e-48
7.7629185e-48
2.5624547e-48
2.709291e-48
2.774773e-48
2.6299395e-48
2.65176e-48
1.9846694e-48
2.2697252e-47
2.6751589e-48
2.9120667e-48
2.0821213e-48
7.8420353e-48
2.4172967e-47
2.0930285e-48
2.1361249e-48
2.9621002e-48
2.9900279e-48
1.1635417e-47
1.1609845e-47
8.0967641e-48
8.5392141e-48
7.9413035e-48
2.4091042e-47
7.3939088e-48
2.3043796e-47
8.5103851e-48
8.7507073e-48
7.9886626e-48
8.5086641e-48
1.139848e-47
1.1265397e-47
1.1752233e-47
1.1176088e-47
8.6995212e-48
8.4361041e-48
7.219995e-48
7.9405461e-48
2.2458154e-47
2.4427126e-47
7.9617736e-48
2.5199174e-47
8.0312369e-48
2.463311e-47
1.0849509e-47
8.2559474e-48
5.8165264e-48
1.0055341e-47
2.1007671e-47
1.7256726e-47
1.6665117e-47
8.4393827e-48
6.417638e-48
2.4344175e-47
1.712688e-47
1.4962067e-47
3.111079e-47
8.2996925e-48
5.7302079e-48
2.8648067e-47
5.805161e-48
7.8266165e-48
1.1045881e-47
1.0273558e-47
2.9504057e-47
6.9095281e-48
6.6020787e-48
3.1613213e-47
2.3877759e-47
2.5533103e-47
1.7653301e-46
1.9620922e-46
2.9401193e-47
2.0141904e-46
2.1058725e-46
2.8595583e-47
1.5463382e-47
1.5328389e-47
1.9744752e-47
1.9838056e-47
2.1145084e-47
1.5779443e-47
1.4567018e-47
1.9633833e-47
2.0744791e-47
2.1452036e-47
8.1208178e-47
9.1727125e-47
2.2586173e-47
9.333462e-47
2.2986673e-47
9.0650323e-47
2.0536845e-47
1.5174594e-47
1.5536327e-47
2.0840156e-47
2.1094703e-47
1.5511205e-47
1.4648288e-47
2.0062827e-47
2.3119431e-47
9.5171313e-47
2.3219744e-47
9.0874385e-47
2.1272617e-47
2.2149705e-47
8.8744697e-47
9.7235489e-47
8.4993626e-48
8.6308389e-48
8.688172e-48
8.669331e-48
1.1255538e-47
1.1372901e-47
8.0003165e-48
8.4384245e-48
1.1692716e-47
1.0908172e-47
8.4719068e-48
8.6153991e-48
7.2612654e-48
8.0154173e-48
2.1377828e-47
2.3542074e-47
8.1220213e-48
8.2072275e-48
2.481338e-47
2.4315536e-47
1.182323e-47
1.1139873e-47
8.6161837e-48
8.5276755e-48
1.1735991e-47
1.1776075e-47
8.1450489e-48
8.6010331e-48
7.5560608e-48
8.1845137e-48
2.3151384e-47
2.4755494e-47
8.1298479e-48
2.5211124e-47
8.077122e-48
2.425716e-47
9.9818204e-48
1.0322112e-47
2.7175913e-48
2.9803008e-48
9.4846966e-48
1.0405983e-47
2.8476469e-48
2.7765166e-48
2.8523326e-48
1.0880653e-47
1.0614995e-47
3.2533671e-48
1.1349563e-47
1.1688856e-47
3.143567e-48
3.0154587e-48
3.6027476e-48
3.2555108e-48
3.777687e-48
3.7719424e-48
2.8635937e-48
1.0364767e-47
1.099573e-47
3.3179649e-48
3.3331617e-48
1.2643986e-47
1.14021e-47
3.3412636e-48
3.2283495e-48
1.1931659e-47
1.2320589e-47
3.5423225e-48
3.4894422e-48
1.3780129e-47
1.1659156e-47
3.3001551e-48
1.0969234e-47
1.0804108e-47
2.9894758e-48
3.5153617e-48
1.1285766e-47
1.2358958e-47
3.3281153e-48
3.3574699e-48
1.1786031e-47
1.15379e-47
3.1049345e-48
3.562284e-48
3.28955e-48
1.2597454e-47
1.0686555e-47
3.1439616e-48
9.4332139e-48
8.3898871e-48
8.6361767e-48
2.5119293e-48
3.0378568e-48
9.6875035e-48
1.054413e-47
2.9997923e-48
2.9752097e-48
7.8636537e-48
9.7693271e-48
8.5688139e-48
1.1189277e-47
1.1100079e-47
3.0345699e-48
3.3952098e-48
1.1095376e-47
1.2506968e-47
3.2977153e-48
3.2313658e-48
9.5815612e-48
9.712834e-48
9.0539508e-48
8.6576938e-48
1.0611303e-47
9.8488439e-48
8.7301471e-48
9.3819243e-48
9.6182582e-48
1.0056394e-47
9.1328455e-48
8.4665349e-48
2.1233599e-47
1.3090235e-47
1.9142451e-47
1.1880617e-47
2.1977449e-47
1.3741966e-47
2.0281957e-47
1.2552743e-47
6.3788372e-48
7.9182572e-48
8.7180083e-48
7.5589574e-48
9.8479929e-48
9.4950606e-48
8.1381823e-48
8.0943296e-48
9.4493842e-48
9.5714958e-48
7.7969587e-48
8.2290034e-48
8.6395123e-48
1.0064421e-47
9.2967849e-48
8.1976341e-48
1.2631313e-47
2.0166748e-47
2.2069461e-47
1.4283011e-47
2.4472008e-47
2.2616445e-47
1.5152868e-47
1.3870341e-47
3.7140329e-48
3.5498549e-48
3.6177267e-48
3.2521842e-48
1.2395978e-48
1.2014584e-48
1.2521618e-48
1.3107016e-48
1.3638933e-48
1.3163384e-48
1.4119295e-48
1.3432741e-48
1.157089e-48
1.2389919e-48
1.1117347e-48
1.3747432e-48
1.3722646e-48
1.1841989e-48
1.3172553e-48
1.1747306e-48
3.9106878e-48
1.4028438e-48
1.465649e-48
1.4430493e-48
1.4911793e-48
2.7529344e-48
1.6906673e-48
1.36162e-48
1.3704067e-48
1.8783271e-48
1.5093042e-48
1.5371316e-48
1.5685261e-48
1.5293113e-48
1.8225456e-48
1.8989331e-48
1.3761097e-48
1.3682154e-48
3.8380537e-48
2.8826305e-48
3.904459e-48
3.6444251e-48
4.0741816e-48
3.5765265e-48
4.0765069e-48
3.1167376e-48
4.4650263e-48
3.1258316e-48
3.7642033e-48
1.9173063e-48
2.0165232e-48
1.7317452e-48
1.8026201e-48
1.8376286e-48
3.2713406e-48
1.482645e-48
1.7279076e-48
1.4046979e-48
2.0259329e-48
2.1262161e-48
1.9360872e-48
2.2342114e-48
1.8824777e-48
1.5430049e-48
1.6027111e-48
2.0317672e-48
3.8412626e-48
3.4089596e-48
3.553776e-48
3.533907e-48
2.8100487e-48
2.7025148e-48
3.993847e-48
4.2674212e-48
3.5426734e-48
3.6600903e-48
3.8441661e-48
3.0633091e-48
4.1273628e-48
3.1542869e-48
1.5332027e-48
1.3946969e-48
1.4598697e-48
1.6257115e-48
1.2221087e-48
1.3994762e-48
1.156468e-48
1.5101052e-48
1.6217221e-48
1.7207131e-48
1.5801062e-48
1.8118991e-48
1.5413906e-48
1.2616413e-48
1.295768e-48
1.6318479e-48
4.3233242e-48
4.0902093e-48
4.3510818e-48
3.8591569e-48
4.5047485e-48
4.6503709e-48
3.3920447e-48
3.2609266e-48
3.8189366e-48
3.4459885e-48
4.1024024e-48
3.5240292e-48
4.0441271e-48
3.1313706e-48
4.5183392e-48
3.265667e-48
3.815257e-48
2.9399302e-48
4.1890457e-48
3.1489661e-48
4.0800724e-48
3.5004234e-48
4.4347387e-48
3.723576e-48
4.4495462e-48
3.8930755e-48
4.5013767e-48
3.848366e-48
4.0861385e-48
3.2403602e-48
4.1665884e-48
3.1969915e-48
1.925631e-48
2.1371599e-48
1.9064607e-48
2.2516269e-48
2.4764873e-48
1.8387318e-48
1.8594472e-48
1.7687526e-48
2.134793e-48
2.0668518e-48
2.6974046e-48
3.0508401e-48
2.5945354e-48
2.8786344e-48
2.554141e-48
2.6150184e-48
2.4621561e-48
2.4790543e-48
2.0011272e-48
8.7195575e-48
8.9458218e-48
5.6151322e-48
5.934769e-48
4.5980282e-48
4.9015126e-48
3.9767171e-48
4.1531228e-48
5.0559645e-48
5.4885255e-48
4.55254e-48
4.6751847e-48
5.561432e-48
4.0965855e-48
3.0929445e-48
3.2546256e-48
4.3103223e-48
4.5100783e-48
3.3581582e-48
3.4944649e-48
4.7910299e-48
3.5772888e-48
3.3507777e-48
3.9526774e-48
3.6376031e-48
4.03455e-48
4.4693784e-48
3.3805668e-48
3.6157466e-48
3.8492808e-48
3.8416157e-48
3.1757071e-48
3.1069626e-48
3.4408368e-48
3.2634784e-48
3.4390454e-48
3.2246726e-48
4.122105e-48
3.6037462e-48
3.5187021e-48
4.1946557e-48
3.465796e-48
2.7277184e-48
3.5950494e-48
2.7620169e-48
2.6649694e-48
2.9955985e-48
2.6504368e-48
3.0419635e-48
3.9481785e-48
3.7627159e-48
3.2884056e-48
3.1837858e-48
3.5403732e-48
3.3839092e-48
2.8630456e-48
2.9681454e-48
3.0141279e-48
2.3392848e-48
2.8633552e-48
2.2293568e-48
3.1246758e-48
2.4428276e-48
2.5327089e-48
3.2704885e-48
2.4680315e-48
2.5828589e-48
2.1790468e-48
2.263215e-48
2.365971e-48
1.905173e-48
2.234985e-48
1.8130759e-48
2.5245241e-48
2.740248e-48
2.4358287e-48
2.850566e-48
2.4397333e-48
1.9790758e-48
2.0568494e-48
2.573036e-48
4.2075554e-48
4.700226e-48
3.4372936e-48
3.7397871e-48
4.4787236e-48
3.6497506e-48
4.6514825e-48
3.6355241e-48
3.7412988e-48
3.5150533e-48
4.1924059e-48
3.836242e-48
4.0682536e-48
3.8430045e-48
3.9342238e-48
4.1513818e-48
1.9721557e-48
2.2540007e-48
2.1438487e-48
2.2892116e-48
2.5528987e-48
2.1747639e-48
2.2833316e-48
2.2248298e-48
2.5039013e-48
2.6007602e-48
2.7704519e-48
2.7032237e-48
3.2321872e-48
3.0507745e-48
2.9876167e-48
2.896793e-48
3.1688629e-48
2.9796484e-48
2.2859954e-48
2.2656705e-48
2.3195933e-48
1.9333308e-48
1.8052437e-48
2.0432444e-48
3.2552944e-48
2.6978253e-48
2.6176353e-48
2.8085788e-48
2.2469225e-48
2.8484825e-48
2.7166438e-48
2.9156171e-48
3.0183718e-48
2.7502426e-48
2.1814042e-48
3.4455496e-48
3.7041862e-48
3.5443285e-48
3.4533701e-48
3.6696335e-48
3.4421918e-48
3.7980892e-48
3.2550091e-48
3.4133335e-48
2.3729883e-48
2.1408406e-48
2.2848475e-48
4.418661e-48
3.2851163e-48
6.2035473e-48
6.7690041e-48
6.39167e-48
5.7725094e-48
6.6309705e-48
5.9198977e-48
5.7566448e-48
5.8037253e-48
5.4277941e-48
4.8395415e-48
4.6074436e-48
5.7045958e-48
4.3804234e-48
4.4701443e-48
4.9901283e-48
4.9123401e-48
5.0398488e-48
4.9207755e-48
6.5387419e-48
5.6325421e-48
3.7539925e-48
4.0097245e-48
3.9297874e-48
3.7145704e-48
3.1352217e-48
3.1999261e-48
2.8841677e-48
2.8547923e-48
2.3103178e-48
2.817953e-48
2.8446897e-48
3.0935819e-48
2.2201726e-48
3.019148e-48
3.7393696e-48
3.675508e-48
3.7246289e-48
3.5594682e-48
2.3115436e-48
2.4066292e-48
6.866177e-48
6.3644232e-48
6.821667e-48
6.8309697e-48
1.0687383e-47
1.3227793e-47
1.0273657e-47
9.2859216e-48
4.3309418e-48
3.3565591e-48
3.4708769e-47
3.6046994e-47
3.2551563e-47
3.1333198e-47
2.4465724e-47
1.1439164e-47
2.4149362e-47
2.3234967e-47
2.8545197e-47
3.478938e-47
2.0329975e-47
2.5115681e-47
5.0072192e-48
5.0649979e-48
5.1530907e-48
4.9433376e-48
5.0747362e-48
5.1808875e-48
5.3122947e-48
5.017504e-48
7.2277125e-48
6.6227317e-48
6.4635775e-48
6.5075589e-48
6.4202967e-48
6.669546e-48
6.8061583e-48
5.8102003e-48
3.9439355e-48
3.1765642e-48
4.2581437e-48
3.3866186e-48
4.0866073e-48
4.1676484e-48
3.7891436e-48
3.8442074e-48
3.5955445e-48
3.2930755e-48
3.875899e-48
3.4924636e-48
4.3798538e-48
3.5746256e-48
4.5257036e-48
3.637129e-48
3.0965632e-48
2.9120615e-48
3.2551e-48
2.9816481e-48
2.7755043e-48
2.5982923e-48
3.1043204e-48
2.8384901e-48
1.9598184e-48
2.1602248e-48
2.1254972e-48
2.2232459e-48
2.4415776e-48
2.2537604e-48
2.3319613e-48
2.255309e-48
2.6375503e-48
2.6131179e-48
2.2693455e-48
2.4108793e-48
4.4277191e-48
4.6767635e-48
3.6031041e-48
3.7641551e-48
4.3140916e-48
4.1573103e-48
4.0358018e-48
3.8621097e-48
3.9900474e-48
3.7069764e-48
4.1708946e-48
3.8290563e-48
4.664223e-48
4.539721e-48
3.8428003e-48
3.6824584e-48
3.2269458e-48
3.0729591e-48
3.2333184e-48
2.9927886e-48
3.0414648e-48
2.8918881e-48
3.2764976e-48
3.0409941e-48
2.1701585e-48
2.288964e-48
2.0529637e-48
2.5260014e-48
2.5848732e-48
2.3273632e-48
2.2949458e-48
2.0908881e-48
2.6643033e-48
2.5948507e-48
2.1595007e-48
2.23806e-48
2.3441337e-48
2.0532905e-48
1.8239491e-48
2.0196937e-48
1.7243759e-48
1.6928675e-48
1.9121662e-48
1.9130048e-48
1.1355332e-48
1.5861972e-47
1.4594223e-47
4.3701375e-47
1.3811478e-47
1.9859929e-47
4.9040841e-47
4.6784771e-49
4.2520056e-49
4.1918415e-48
4.2911638e-48
3.9495745e-48
3.8150561e-48
3.6035409e-48
3.2521408e-48
3.8004257e-48
3.2887652e-48
3.7781443e-48
2.9431114e-48
4.2027647e-48
3.0892198e-48
4.3999065e-48
3.3527949e-48
4.639511e-48
3.2973977e-48
4.4581227e-48
4.763555e-48
3.3900979e-48
3.3932211e-48
4.4337925e-48
4.2513345e-48
4.2410889e-48
3.838529e-48
4.1704672e-48
3.8291019e-48
4.3152642e-48
3.7461681e-48
4.6656335e-48
4.671964e-48
3.5539076e-48
3.3300273e-48
4.1269365e-48
3.2563708e-48
4.3933702e-48
3.3706544e-48
4.2698836e-48
3.702701e-48
4.474159e-48
3.8025444e-48
4.6620018e-48
4.1006301e-48
4.4886417e-48
3.8831336e-48
4.3186368e-48
4.2316533e-48
3.4259658e-48
3.2649475e-48
3.6432895e-48
2.796306e-48
3.8942637e-48
2.9413599e-48
4.3801572e-48
3.8197414e-48
4.4883918e-48
3.8431757e-48
3.27442e-48
3.806617e-48
4.0403579e-48
3.3845397e-48
4.0825342e-48
3.2129439e-48
4.2493337e-48
3.2419267e-48
1.8388527e-47
2.9251937e-47
1.5576726e-47
9.4301436e-48
2.7529269e-48
2.8366266e-48
2.8747458e-48
2.9253197e-48
2.8724964e-48
3.0143428e-48
3.3173132e-48
3.2581402e-48
3.3513315e-48
3.4114338e-48
3.656374e-48
3.5059289e-48
2.9236105e-48
3.0913468e-48
3.4261576e-48
3.4310631e-48
3.1865766e-48
3.4311357e-48
3.3406746e-48
3.2066784e-48
3.0373641e-48
3.3329737e-48
3.4393914e-48
3.3210308e-48
3.1889787e-48
3.1827076e-48
3.4309447e-48
3.2627002e-48
5.3344329e-48
4.8870997e-48
2.6299297e-48
2.8390486e-48
3.0881814e-48
2.9192882e-48
5.3704619e-48
5.2945207e-48
5.32412e-48
5.6403354e-48
5.2462863e-48
5.3182824e-48
7.0660311e-48
6.5387399e-48
4.1363711e-48
4.4636517e-48
4.9487033e-48
4.9121106e-48
7.2369198e-48
6.919064e-48
4.8977765e-48
4.8414125e-48
5.3548996e-48
5.0304607e-48
7.5270797e-48
7.0976966e-48
7.5448168e-48
8.2410478e-48
4.0343071e-47
6.4375146e-47
2.4666235e-47
9.8852373e-48
5.7094996e-47
4.7647313e-47
3.7858715e-47
5.2404039e-47
6.3098335e-48
7.6110869e-48
6.2929959e-48
6.4646375e-48
1.4646335e-47
7.9853585e-48
7.715379e-48
6.1619394e-48
6.5833669e-48
1.4008048e-47
7.9707189e-48
7.8085639e-48
5.5764531e-48
1.2093912e-47
1.1943331e-47
1.0171453e-47
1.0383236e-47
7.1559595e-48
7.3306104e-48
1.1072364e-47
1.1697782e-47
1.0092189e-47
9.924738e-48
7.1884426e-48
7.0310984e-48
3.9743022e-48
5.4667654e-48
6.4041723e-48
6.3124196e-48
9.0522348e-48
9.1133338e-48
4.1364534e-48
4.196727e-48
9.3891208e-48
8.8775526e-48
4.3499985e-48
4.2396814e-48
4.3685072e-48
4.3251519e-48
2.7339522e-48
9.563739e-49
9.6151028e-49
5.8444863e-49
2.6216197e-48
2.6982701e-48
2.5764244e-48
6.1678636e-49
9.6804574e-49
9.8379555e-49
6.1080323e-49
6.0211595e-49
3.6216831e-49
2.0208039e-48
2.1199715e-48
2.9221769e-48
2.8388026e-48
7.105181e-49
7.4496353e-49
3.5863335e-49
2.4218581e-48
2.6002204e-48
2.730916e-48
2.5436871e-48
2.882571e-48
2.0945548e-48
2.1353162e-48
3.0109088e-48
3.5710402e-49
3.6360265e-49
7.5712914e-49
7.6409119e-49
4.0835476e-48
8.9861833e-48
4.1387293e-48
8.8859559e-48
9.4705251e-48
9.0736431e-48
4.310837e-48
4.3694687e-48
2.7715325e-48
2.843908e-48
2.6699016e-48
2.7299024e-48
2.1074349e-48
2.1679584e-48
3.0702661e-48
3.0399109e-48
2.4026271e-48
2.5753478e-48
2.5122052e-48
2.7267289e-48
2.865733e-48
2.048154e-48
3.0940004e-48
2.1267223e-48
1.1550611e-47
1.1118636e-47
9.6581257e-48
9.8703608e-48
7.2692763e-48
7.0153999e-48
1.091265e-47
1.1735104e-47
9.8905601e-48
9.7884346e-48
7.1722806e-48
7.2578548e-48
4.0192233e-48
8.7688423e-48
8.6722773e-48
4.0765905e-48
4.3360716e-48
9.3426862e-48
4.2627808e-48
8.8830033e-48
9.4912255e-48
4.3498588e-48
4.2786048e-48
8.9948024e-48
9.0708042e-48
9.2129418e-48
4.1338115e-48
4.2025431e-48
2.305074e-48
2.5595497e-48
2.6998613e-48
2.5028843e-48
2.5439028e-48
2.7267057e-48
2.7973915e-48
2.6272848e-48
2.8551841e-48
2.0634289e-48
2.128166e-48
3.0573695e-48
3.1370172e-48
2.209349e-48
2.1567651e-48
3.1116167e-48
2.6220802e-48
2.7567672e-48
2.5988027e-48
2.438988e-48
2.9732449e-48
2.1374317e-48
2.192094e-48
3.1982504e-48
2.5647519e-48
2.7289763e-48
2.8011634e-48
2.6193706e-48
3.1874749e-48
2.2079086e-48
2.0851974e-48
3.0410725e-48
2.1754773e-47
1.6297457e-47
1.657824e-47
9.9331001e-48
6.0511907e-48
2.0344506e-47
1.6970959e-47
1.579579e-47
6.2929725e-48
6.470677e-48
7.6796409e-48
7.8939986e-48
6.0543188e-48
6.4798461e-48
8.1283129e-48
7.9733429e-48
1.0588168e-47
7.437609e-48
5.8028052e-48
1.0616871e-47
6.3514313e-48
8.0727297e-48
2.1536923e-47
1.5290053e-47
1.4640643e-47
1.9824566e-47
1.5269395e-47
1.7248039e-47
9.8708281e-48
6.7258695e-48
5.5288467e-48
9.849583e-48
1.3286009e-47
1.3122845e-47
1.7987078e-47
1.8257677e-47
1.3664529e-47
1.4096845e-47
1.8796861e-47
1.9136229e-47
1.9924697e-47
2.0356956e-47
7.8324241e-47
8.5837643e-47
2.1797595e-47
2.1624392e-47
8.87733e-47
8.5351048e-47
1.5411054e-47
1.4550907e-47
1.9227973e-47
2.0176842e-47
2.0829738e-47
2.1445022e-47
8.1385525e-47
8.9000262e-47
2.2989584e-47
2.2696373e-47
8.8819493e-47
8.5306323e-47
1.4376245e-47
1.4307858e-47
1.9098785e-47
1.9151809e-47
8.371127e-48
8.5377061e-48
8.6873809e-48
8.5736536e-48
1.125617e-47
1.1247146e-47
8.163505e-48
8.5646108e-48
1.1632583e-47
1.0878906e-47
8.5397273e-48
8.5978353e-48
7.2926585e-48
2.0043912e-47
8.0010548e-48
2.1794423e-47
8.202513e-48
8.1059101e-48
2.3293822e-47
2.2836791e-47
1.094349e-47
1.162887e-47
8.5129718e-48
8.6235119e-48
7.6060876e-48
8.2524502e-48
2.1906536e-47
2.3272216e-47
1.1574043e-47
1.1635995e-47
8.2074895e-48
8.5932265e-48
8.284738e-48
8.2386749e-48
2.4001917e-47
2.3004803e-47
8.4815961e-48
8.8423072e-48
8.4214266e-48
8.6964932e-48
1.1706532e-47
1.0927637e-47
8.6404886e-48
8.6316345e-48
7.6105438e-48
2.2898746e-47
2.420272e-47
8.2258898e-48
1.1407872e-47
1.1341696e-47
8.2305283e-48
8.6567657e-48
8.3258323e-48
2.4223678e-47
8.3219169e-48
2.3002897e-47
1.1433845e-47
1.1391387e-47
8.0994805e-48
8.587694e-48
1.1312542e-47
1.1906385e-47
8.6290716e-48
8.8052944e-48
7.3978665e-48
8.1200918e-48
2.3571437e-47
2.1901774e-47
2.4259003e-47
2.3973769e-47
8.2853112e-48
8.3297662e-48
1.14147e-47
1.0864344e-47
9.8051949e-48
9.4625303e-48
7.1279424e-48
7.3157741e-48
1.0432958e-47
1.1197306e-47
9.3707478e-48
9.631892e-48
7.2869346e-48
7.1450531e-48
1.1231473e-47
1.1329786e-47
1.0074499e-47
9.9089655e-48
7.2711901e-48
7.3972036e-48
1.0422897e-47
1.1299377e-47
9.8443658e-48
7.2915512e-48
9.6057239e-48
7.151122e-48
8.5837109e-48
8.7274082e-48
3.9837421e-48
4.0439459e-48
4.2969862e-48
9.153127e-48
8.8159478e-48
4.2314847e-48
4.1295444e-48
8.9669946e-48
4.2160904e-48
8.9127716e-48
9.1796142e-48
8.6093172e-48
4.183426e-48
4.2966422e-48
2.3607135e-48
2.564066e-48
2.6853839e-48
2.6337189e-48
2.6523145e-48
2.6844398e-48
2.7625327e-48
2.7396902e-48
2.785225e-48
2.1225896e-48
2.1941825e-48
2.9711172e-48
2.2594868e-48
2.2825752e-48
3.0731364e-48
3.0948985e-48
2.482702e-48
2.6252515e-48
2.7771319e-48
2.6080471e-48
2.7660878e-48
2.7763771e-48
2.6442517e-48
2.5812367e-48
3.0418268e-48
2.2274457e-48
2.2955765e-48
3.2459421e-48
3.2214059e-48
2.2960039e-48
2.2004845e-48
3.1714077e-48
9.3010911e-48
8.8661213e-48
4.2269534e-48
4.2937281e-48
8.9879344e-48
9.0653364e-48
4.1404598e-48
4.1963124e-48
4.1234797e-48
9.1579229e-48
8.9704302e-48
4.156719e-48
4.3896571e-48
9.4269242e-48
9.079223e-48
4.3219133e-48
2.4287444e-48
2.6131811e-48
2.7376158e-48
2.6513522e-48
2.6915682e-48
2.7611153e-48
2.8507869e-48
2.7287042e-48
2.9967547e-48
2.1502376e-48
2.223437e-48
3.17327e-48
2.248828e-48
2.2841338e-48
3.236188e-48
3.1973627e-48
2.7820836e-48
2.6563249e-48
2.4813466e-48
2.6010728e-48
3.0539018e-48
2.2043367e-48
2.2600594e-48
3.2393387e-48
2.5568269e-48
2.7154406e-48
2.7791553e-48
2.6138809e-48
2.1286899e-48
2.2399428e-48
3.201726e-48
3.0565637e-48
3.6010109e-48
3.5394925e-48
3.1616665e-48
3.3669832e-48
3.7055971e-48
3.8918146e-48
3.8517402e-48
4.0447083e-48
1.925726e-48
4.5272015e-48
1.7492797e-48
4.393906e-48
1.9891208e-48
4.9057824e-48
1.9999256e-48
4.7110995e-48
3.5853905e-48
3.7967544e-48
4.1036571e-48
4.0625858e-48
4.1897049e-48
4.3454153e-48
4.2631001e-48
3.9893454e-48
4.1105472e-48
3.9334438e-48
4.2237053e-48
4.2873253e-48
4.30802e-48
4.1289871e-48
4.0819641e-48
3.7375014e-48
3.4449322e-48
8.7258925e-48
3.1907868e-48
1.0604245e-47
2.9040937e-48
2.7428952e-48
3.6598968e-48
3.6400046e-48
1.0154182e-47
9.691844e-48
2.827992e-48
3.0487047e-48
4.1816168e-48
3.9017962e-48
3.9658671e-48
4.1511334e-48
1.0877847e-47
9.8037448e-48
2.8698194e-48
3.2759695e-48
9.9033238e-48
1.1547456e-47
3.1829846e-48
3.0972526e-48
1.0717988e-47
1.0829397e-47
3.3992156e-48
3.0662323e-48
1.0224111e-47
1.1471266e-47
3.1572283e-48
3.0797831e-48
9.8269878e-48
9.3116201e-48
2.9759875e-48
3.4519862e-48
1.0593701e-47
1.1119385e-47
3.1832154e-48
3.1429596e-48
7.0475774e-48
8.5264542e-48
8.7200731e-48
7.4806698e-48
8.7389438e-48
7.8429352e-48
7.1650415e-48
6.67397e-48
9.8516165e-48
9.3800222e-48
8.210232e-48
8.0212719e-48
8.2142329e-48
8.780834e-48
6.8624322e-48
7.5205394e-48
8.4620107e-48
7.2761161e-48
2.2662395e-48
2.6509768e-48
2.7260703e-48
9.0886899e-48
8.7154748e-48
2.8295415e-48
1.0379559e-47
9.9087775e-48
2.7658876e-48
3.0261687e-48
1.0025977e-47
1.064726e-47
2.9513254e-48
2.9256017e-48
1.0382121e-47
9.4022715e-48
2.746713e-48
3.2278954e-48
9.8837946e-48
1.0761145e-47
3.0611307e-48
3.0187607e-48
1.0510082e-47
1.0113939e-47
2.9204638e-48
3.1880629e-48
9.7592175e-48
1.1018442e-47
3.0583838e-48
2.9649939e-48
6.7513108e-48
8.218612e-48
8.9069579e-48
7.7506133e-48
9.6799618e-48
9.5692234e-48
8.206155e-48
8.1103101e-48
9.8467701e-48
1.0156031e-47
8.6461911e-48
8.3468853e-48
1.0359693e-47
9.2842946e-48
8.0948983e-48
8.6156658e-48
1.196813e-48
1.2340365e-48
1.1996523e-48
1.245619e-48
1.2364932e-48
1.1270471e-48
1.1340312e-48
1.3217567e-48
1.2253635e-48
1.1719292e-48
1.2155931e-48
1.1870608e-48
1.1914179e-48
1.0860301e-48