/*--------------------------------*- C++ -*----------------------------------*\
  =========                 |
  \\      /  F ield         | OpenFOAM: The Open Source CFD Toolbox
   \\    /   O peration     | Website:  https://openfoam.org
    \\  /    A nd           | Version:  7
     \\/     M anipulation  |
\*---------------------------------------------------------------------------*/
FoamFile
{
    version     2.0;
    format      ascii;
    class       volScalarField;
    location    "1000";
    object      omega;
}
// * * * * * * * * * * * * * * * * * * * * * * * * * * * * * * * * * * * * * //

dimensions      [0 0 -1 0 0 0 0];

internalField   nonuniform List<scalar> 
34222
(
569.97972
468.96619
561.3748
440.28275
440.96274
471.31318
476.5019
427.75178
470.25944
415.81371
415.91685
434.63656
433.97343
561.43872
471.67997
441.04805
439.45375
469.27864
420.0453
425.45373
436.22493
432.84953
2370.0247
428.62869
386.51286
407.46767
390.64401
390.10123
406.70441
471.02257
434.48811
416.26452
417.04247
434.61944
405.28489
401.98211
409.89753
415.36276
564.15082
473.94183
439.8868
441.10676
469.30515
435.56896
429.15548
424.84811
438.22385
482.24165
487.94758
487.81423
484.58032
4371.9736
4184.4151
4272.3655
2382.7286
872.863
875.7635
429.14676
387.23748
407.79693
391.07368
391.2803
407.82102
370.46739
381.55587
381.13193
369.96572
393.19874
385.8314
385.21874
393.62679
861.4251
868.64281
470.49643
417.6584
415.4404
434.02203
434.79779
414.25508
404.16579
407.037
418.89917
477.44716
464.69514
473.53798
483.62518
440.07155
441.92436
474.48648
477.77484
435.54485
422.25118
425.32376
437.79647
492.30229
502.57375
490.66164
499.42239
581.3062
576.37038
587.51168
587.99906
1232.0569
9372.7071
1229.0009
4440.97
9437.5694
7657.6873
12949.507
1954.4901
7975.2378
1975.3962
8128.5514
7866.3975
1970.9471
4322.8826
2027.454
4195.9907
893.83088
856.80461
2328.3576
767.35024
695.7447
429.10522
700.07936
387.88289
406.99443
390.10225
391.88195
408.41225
765.24313
371.02022
370.82063
381.98676
382.24886
395.08685
387.96884
387.21934
394.88487
368.90595
377.70071
376.70698
367.96121
458.02002
452.25664
456.38855
475.31884
2051.1136
4851.0476
2110.7799
2148.7119
2108.8929
881.21944
859.72125
466.8818
414.19506
417.26992
434.83012
433.17093
405.29662
403.96929
411.84465
414.40768
481.86877
463.04341
471.4893
493.64158
542.14126
547.07455
564.28894
560.95518
425.77638
423.3799
436.96186
440.30439
499.29725
488.30481
495.32828
499.82789
602.14308
633.67539
579.01302
628.70444
550.75861
551.75938
1977.3291
666.96095
675.15739
2001.6005
4588.6637
32505.69
18701.364
4544.087
18858.944
1235.1803
1972.4109
666.56919
673.00212
2005.2045
1241.3388
4445.9271
9355.5426
9480.337
4537.0281
4603.8711
18818.825
19098.355
12736.472
13232.316
4396.7043
4380.9408
20496.097
21493.437
8103.938
7852.3999
4580.8433
13490.872
13864.469
4691.9384
13868.435
13878.479
4654.5411
4766.2997
12965.871
13808.866
4439.2824
4667.1035
8001.0353
2036.3407
8121.4824
2015.1205
4128.3548
1923.9726
7755.8327
1992.4982
8040.6307
857.49639
853.96455
4256.8756
5065.2312
4570.3746
1873.2733
4711.4449
1844.5385
4601.6245
1908.5881
1902.6328
1383.0871
3325.8852
1549.5465
3958.5736
4114.931
1577.4548
1413.0622
591.60379
695.32063
758.39703
706.74664
426.70497
405.93462
389.38058
388.04701
391.6111
407.99562
781.80852
1580.6661
1423.0849
1604.6504
1421.6423
589.21194
371.96075
371.0379
381.87438
383.17646
395.81907
387.09626
387.22983
396.12906
1905.6439
1955.5474
1923.9666
1902.6797
370.97135
371.15373
380.00751
378.85493
447.22683
443.79846
451.82626
450.70712
422.48172
437.83694
439.45289
421.64828
566.9833
597.29805
584.89111
576.68327
4766.1313
4847.2255
8644.3671
8855.3274
5139.3768
5069.0316
5195.5423
5129.5628
5114.7293
4903.7742
2143.1818
2140.6078
2055.3898
855.55101
2114.0224
863.0948
430.35516
430.94374
413.22616
413.3237
404.14145
404.37217
412.32153
413.05975
467.15368
461.13098
473.51785
482.80801
558.28908
526.19441
551.5729
606.1128
479.15204
492.91078
508.10021
491.38639
603.62397
577.24129
569.66972
589.62194
548.67062
549.80841
2124.4664
691.35831
697.7061
2151.9051
3569.2969
6799.9272
6752.6971
3592.0331
12931.113
18172.882
28498.023
28874.099
47222.686
32436.03
48379.176
12997.565
32894.936
3571.022
3517.6886
6691.9196
6766.4244
12868.008
12985.217
33005.028
33304.729
2003.9119
671.60494
671.90834
1978.6243
2120.2029
690.05709
698.17521
2160.3752
1244.3911
674.56528
675.39265
2001.8152
2005.6007
1227.806
9288.8129
9329.9527
4577.8081
4594.0568
18503.875
18924.453
4592.3401
4543.7025
18913.07
19025.297
3551.5625
3538.5069
6725.4637
6728.208
3598.0784
3603.4843
6855.584
6766.4387
12871.659
12976.186
32684.289
33535.822
12978.591
13074.347
33593.125
33417.125
20741.328
20294.705
7731.3058
7802.5223
21432.148
21869.26
8167.7736
8059.4988
37316.915
35818.311
11249.735
11405.944
38582.755
38490.962
11600.214
11723.201
21359.752
22337.984
8464.3138
8240.8356
22559.624
22493.129
8614.5623
8495.2005
22246.62
22841.141
8605.6076
8454.3826
22605.714
22124.306
8536.0456
8507.5421
20429.513
21336.097
8072.92
7890.4615
13379.517
22205.834
22496.717
8536.0272
8358.0682
4607.9239
4598.7035
13675.185
13963.209
13729.459
4651.6855
4721.465
7629.6431
7810.1577
1916.4557
1929.3062
12861.238
4350.5787
13618.074
4546.6594
13653.203
13738.692
4560.3157
4672.3046
7942.2656
8189.9169
1968.046
2007.8773
4956.0243
9685.5577
9957.4335
8905.7007
9187.8652
9261.5057
8307.7256
9499.5014
8553.7057
4538.9481
5054.1331
4569.8313
9791.6477
9328.9988
10105.229
9672.9061
4593.795
4551.315
4681.9182
4589.4886
9918.8774
9218.0472
10218.965
9545.926
5365.8837
4889.2991
5292.0417
4780.8688
4806.095
4903.5005
4968.9362
4914.3211
2977.6028
2944.8634
3286.2157
3265.448
1167.5098
6842.7144
8036.1259
8359.8814
8146.1087
8519.8931
3918.3835
4086.3101
4055.0013
3852.2965
9619.341
9405.935
10185.689
9367.97
9019.1862
8824.3794
9206.1907
9555.9267
9134.4461
9897.4489
9502.7832
4277.1928
4370.8849
4098.1863
4149.5254
3106.7813
3132.7884
3435.1496
3500.3731
1175.3882
1042.9427
1400.9487
1413.4
1584.9431
1546.9313
587.08821
693.09859
1921.7402
1856.2758
1856.606
1897.7625
761.10349
1595.0912
1425.5531
1439.6961
1617.3098
597.28042
758.72301
386.53069
693.42602
388.75186
404.84205
404.65369
389.06359
395.02742
386.27973
381.27995
371.98558
370.39646
383.07542
386.90283
396.10836
1923.7541
1929.2906
1934.3612
1958.1208
4190.4876
4158.8303
4042.5764
4366.29
3503.7628
3401.4084
3098.1679
3140.5815
1184.1618
4313.3513
4224.7975
4131.4361
4445.2072
3563.1334
3459.5705
3122.2068
3190.6913
1188.4874
1050.2154
1039.2904
369.37133
368.34566
377.72357
377.93477
452.74497
443.07957
449.63912
456.10645
5342.015
5117.5619
4623.7687
4859.9514
4834.7514
5430.0227
5341.3574
4952.5432
4850.4043
4945.1106
5048.5887
4984.9339
4662.2725
4968.8063
4784.0249
4893.6718
425.08574
425.63301
438.88275
437.53799
533.61659
552.91384
588.11611
550.9198
490.36277
528.69501
561.47334
504.69736
8476.8141
8473.6078
8855.5261
8906.1601
12029.491
12252.108
12573.039
12465.303
9285.4687
9357.5804
9053.5962
9251.6612
9340.3745
9281.4054
9304.1485
9403.6262
9156.6646
9312.5566
5029.6675
8680.1046
8834.5053
5077.134
5169.4887
5122.1112
2037.452
4778.6507
4959.7945
2048.4212
5011.0484
5092.356
2115.7268
2138.5486
412.44581
411.97047
403.98463
403.95899
454.59318
464.95816
475.69232
463.46827
527.16634
560.19235
567.17151
549.59774
574.68515
599.6208
623.55854
580.54071
549.89584
550.5521
2213.4199
4041.2958
4112.6909
675.39171
684.03629
2241.5349
4115.9417
4114.3917
7481.0832
7414.8154
15446.606
12401.649
12486.602
18393.431
18260.422
18627.567
18775.757
22996.462
22829.922
26690.675
26871.016
39532.995
28180.6
39986.71
27201.552
27071.725
40586.564
40138.683
63296.087
47425.955
52920.674
53729.247
63705.376
28895.513
47961.931
64164.425
64450.276
54390.042
54512.791
12423.954
12653.297
18317.966
18542.844
28782.776
48685.37
28815.587
48243.012
7357.6808
7444.6252
18150.423
18442.729
12517.081
12265.666
12451.601
12560.796
18386.141
18452.943
28538.595
28896.578
48155.153
49107.406
29135.993
49185.217
28554.966
49061.888
2153.9814
698.39568
693.68869
2127.2026
2212.2278
4073.419
4087.9782
673.36164
685.57876
2250.2076
4158.2754
4121.95
1992.5283
672.04766
679.80439
2021.2162
699.20328
700.50677
2150.5307
2159.6713
1952.0862
670.96841
673.44712
1989.2974
4471.3128
4543.412
18484.989
18781.502
4616.0236
18603.121
18615.34
4556.8174
3598.9448
3588.335
6779.1732
6795.6479
6865.8285
3608.1117
3583.5533
6737.7978
12909.591
12995.657
32249.043
33127.016
12942.38
33292.981
13062.578
33289.55
6767.6655
3570.2419
3616.7983
6845.1568
6706.8181
3518.1314
3572.4929
6738.6377
12920.765
33349.678
12920.286
33035.543
12954.539
13074.3
33193.2
33750.326
7402.5208
7403.2938
7545.0515
7435.8629
12306.824
12524.878
18193.834
18472.275
12465.912
12516.777
18525.707
18416.727
28609.852
29190.796
47633.611
48798.78
29430.229
28850.87
49404.376
49460.128
12472.854
12518.907
18345.128
18497.324
12710.501
12527.317
18436.151
18624.847
29169.742
29287.266
49046.445
49739.909
29228.858
49522.706
28583.228
49125.156
37551.78
37407.512
11246.243
11260.219
35612.529
36480.766
11036.445
11078.978
11654.612
37951.614
39073.597
11756.436
39157.077
39933.841
11837.244
11817.825
39549.272
37995.152
40751.351
40724.395
11764.406
37383.871
38682.138
11901.032
12126.506
40019.181
40151.794
12226.118
12254.365
40221.284
40851.204
12356.118
12314.905
40566.482
39739.737
12283.469
40276.77
39432.59
12181.8
12276.399
41084.9
41211.903
12409.376
12474.819
40978.922
40512.348
12313.402
12373.04
12119.664
40075.533
38792.426
12074.406
36814.775
35713.496
21250.031
11306.547
11389.384
38382.758
38150.631
11587.198
11683.113
8167.032
21879.91
8187.8509
40507.522
39245.95
12046.547
12184.852
40050.337
40660.07
12231.611
12239.926
22064.502
22491.025
8464.9279
8376.6968
22725.521
22605.874
8586.873
8509.4702
21836.696
22517.101
8489.6037
8361.0704
13074.413
4329.3397
12848.495
4377.7035
13751.545
4574.3429
13057.848
4389.0811
7744.6406
20230.004
21205.055
7924.5673
22014.429
22146.267
8181.407
8301.3926
22024.685
22374.841
8312.1164
8366.3702
8324.9179
22294.827
22123.958
8399.0444
4503.0624
13252.351
13900.159
4667.697
14182.409
13919.702
4726.5421
4705.055
9482.4431
8727.2862
9473.9325
8785.8948
13526.113
12865.26
13036.144
13702.052
13947.98
13229.046
14133.733
13430.686
12457.803
13149.213
12322.673
13270.543
13645.721
12812.354
13488.516
12627.038
9066.1798
12551.037
11882.13
11986.841
12642.943
8211.4786
12095.1
11410.224
11580.491
12172.576
12836.599
12981.923
12149.195
12307.916
12362.354
12489.6
11744.235
11893.91
9071.4975
8151.1018
9910.081
9111.4763
10055.309
9272.361
9486.7782
8502.5146
9572.802
8615.4215
9580.8851
14721.792
14951.215
14137.389
14415.565
14912.747
9205.7334
14243.758
14659.762
13941.951
14956.97
15235.515
14632.057
15534.245
15177.01
14445.321
14769.758
15456.828
9570.1229
9120.3906
9697.3058
9701.3652
9027.9584
9106.0831
9942.1862
10226.595
9486.994
9778.9676
10112.69
9416.0992
10324.712
9646.9624
14396.476
13735.675
14044.562
14677.508
13479.226
14074.879
13229.537
14362.89
14563.539
14930.781
14259.382
15214.227
14624.287
13688.231
13945.295
14885.975
10432.92
9592.5869
10584.647
9776.0325
9961.2131
10073.236
8929.9153
9076.0352
10141.507
9338.7966
10469.052
9649.0359
9705.3713
8709.196
9957.6943
8953.8666
10358.984
9653.6589
10759.786
10049.939
10186.729
9734.3983
10654.37
10195.634
10516.186
10030.838
10706.913
10277.949
10669.142
9937.1149
10846.093
10168.663
6842.7318
7200.7374
2559.7224
5766.2914
6011.7742
6616.0719
6741.3724
2566.0278
5636.928
5541.2805
8048.1214
8431.2458
8177.6691
8610.3492
7795.6454
7866.4578
7927.1244
8056.5359
2428.8123
19525.58
19639.911
17686.083
18036.582
18759.772
18061.351
16399.153
16763.122
18338.161
19020.6
17210.774
17625.785
19296.864
16854.702
15493.533
15817.844
17131.697
17649.81
16174.562
16581.284
17976.67
9071.8776
8899.1858
9478.4029
9321.6024
9660.637
10023.507
9253.5027
9618.5108
9335.8799
9367.4079
8929.087
9032.0581
8789.4948
8612.3586
8847.5197
8732.1571
17387.669
16513.196
16337.857
17503.32
16905.012
15908.432
17000.338
16071.223
15885.379
16464.211
15730.943
16556.493
16958.583
16632.621
15993.603
15604.49
16205.958
15962.211
15006.571
15294.197
15744.617
14884.133
15521.487
14612.835
16118.675
15158.923
15540.82
16442.897
15110.951
15328.292
14441.606
14706.898
15198.054
14482.802
14972.821
14207.5
15332.608
15661.336
14963.308
15988.725
15506.725
14711.574
15072.489
15828.168
9909.0322
10439.022
9497.6264
10021.294
10253.146
9811.5967
10458.721
10075.934
9307.0177
9138.3391
9867.2146
9708.4184
9642.1377
9461.6171
9734.8821
9845.9837
7035.5203
7526.4283
2669.3589
5936.2809
6309.7749
7290.0225
7509.7983
2700.7483
6144.5903
6321.692
8260.2554
8398.3982
8792.1678
8969.9105
8560.8681
8702.2394
8743.8608
8956.311
2530.9182
2530.8925
2199.3991
2042.8548
2031.7991
2207.6453
1394.3273
3051.6503
3027.4333
3312.1944
1171.0591
3390.3845
3069.5416
3389.2564
3493.5463
3142.6987
1185.4882
4213.0347
4138.7572
4035.9923
4347.4911
4023.9712
4218.518
1550.7168
4073.2401
3930.2381
1044.3605
1047.3777
589.85674
1534.1778
1382.1691
4718.8992
5313.3776
5211.5749
4841.5582
5169.7947
4700.3476
4979.729
1859.3762
4500.2799
4806.1353
4728.6723
1840.9464
4534.2852
4651.2232
4735.6135
4825.1229
4941.244
4874.0314
1849.2843
1843.1589
4356.3769
4174.6032
4178.4417
4392.4967
3519.7101
3502.1618
3165.2996
3156.8828
1184.5696
3156.2632
3153.0842
3471.8223
1209.9987
3497.2485
4127.4971
4305.2288
4129.059
4333.215
1044.14
1061.193
1905.5887
1896.273
1906.4106
1936.9594
381.12384
380.57875
369.79954
370.70051
1580.4121
1394.2968
385.25167
394.46086
394.7489
385.86506
449.68777
445.47064
377.68347
367.9374
368.09228
376.95965
451.53862
457.62758
4872.2413
4984.0335
4997.5138
4935.1751
4907.14
4925.0545
4822.8184
4837.9406
5389.6968
5351.2732
4833.7452
4912.3984
4791.4961
5297.8078
5258.6538
4797.7885
9697.7124
9243.2691
10042.886
9607.0363
9694.8762
9879.8715
9481.1459
9747.0812
9179.5226
8967.5957
9548.5302
9357.8836
10256.503
9790.8546
10485.401
10085.818
8649.5559
8761.6252
8774.4692
8975.832
8189.9218
8295.5681
8556.1096
8695.7623
6971.5436
7322.6209
2676.5582
5865.6445
6120.4791
7367.0651
7513.5736
2703.5711
6297.0657
6205.5562
2560.2623
2535.4099
10275.693
10538.41
9827.7338
10129.54
9989.9751
9863.2912
9764.5717
9733.962
9663.9567
9474.2282
9918.924
9780.1365
10567.604
10451.938
10073.631
10059.073
8889.1455
9013.0135
8763.1011
8972.6283
8591.355
8719.9143
8811.3283
9002.1681
7320.8384
7543.1393
2674.4527
6193.8181
6336.2862
7554.6717
7511.4359
2751.3492
6366.3379
6304.1601
2520.4006
2578.9483
2236.9297
2093.93
2037.7113
2210.9425
2066.5814
2016.6739
2183.3159
2248.0157
1804.0106
416.72648
411.88519
427.77281
433.59566
550.31426
529.36559
548.37347
541.72184
10312.196
10545.65
9471.0763
9721.7707
9708.9249
8929.6017
9946.3824
9168.4743
9282.4407
8342.2351
9472.6096
8535.7194
9825.6795
8809.634
10023.745
9022.1279
9981.2393
10104.463
8944.902
9092.3874
10568.375
10494.03
9694.786
9700.8832
10445.121
9601.1568
10617.522
9788.7766
10051.464
9988.0454
8996.8893
9011.2652
10686.518
9940.6942
10903.464
10184.436
10536.801
10041.675
10787.584
10321.592
10774.178
10236.667
10675.323
10234.405
10864.784
10780.728
10084.006
10095.193
9966.5993
9248.3835
10248.566
9547.2629
10477.257
9970.6257
10726.109
10271.338
9394.0675
9881.6152
10199.97
9727.1679
10586.989
9834.416
10838.836
10128.728
499.47673
491.19428
520.7845
550.13939
12081.416
12095.415
11824.431
11841.369
12503.209
12647.976
12756.938
12673.687
13156.857
13280.211
13255.016
13146.452
12578.474
12764.144
13037.041
13104.494
13200.599
13275.768
12998.567
12878.245
13038.098
13153.432
13321.419
13338.799
12890.505
13056.845
13118.176
13066.026
9005.1599
8907.8952
12054.95
12169.27
12406.504
12471.448
9196.5404
9249.726
9349.8956
9320.7038
9273.9461
9183.2414
4763.8298
4783.8603
8487.3117
8664.4057
8939.2685
9060.5679
4999.4084
4831.725
9127.3468
9139.9039
9136.0931
9155.2523
5137.1265
4995.4828
5176.7329
5220.2615
449.37012
451.69642
447.20889
446.5978
561.18161
575.13925
584.04152
567.76627
551.77839
548.87689
4066.2531
3978.7035
2210.6393
4753.6393
4668.8765
4071.9977
4055.9716
2238.2234
4763.6735
4748.8784
8130.7989
6301.3319
6292.9607
10434.249
10491.079
15567.526
15939.848
6259.4589
6213.6915
10390.159
10311.134
15623.737
15638.176
11272.509
16485.23
20841.952
21181.8
19014.275
18923.2
23216.357
23276.887
18787.965
18813.15
23085.519
22908.262
24992.041
24737.399
26733.435
28673.799
28928.507
54814.016
39492.045
26985.203
39920.162
55413.292
29258.07
29078.053
56338.198
55479.058
98992.205
63332.67
63824.157
53537.983
53063.082
57462.984
57964.901
99079.38
40330.609
27115.972
27165.206
40218.112
54037.409
64150.138
64054.705
54195.308
99150.666
99515.299
58484.359
58471.71
23002.111
18782.872
23153.975
18921.04
19110.21
19176.624
23321.883
23397.557
27268.602
27157.747
40469.724
40259.566
64207.5
64380.675
55208.258
54977.214
39804.039
26861.147
40188.659
27028.633
54106.057
63736.368
54778.657
64042.53
6189.236
6168.4596
10249.755
10349.079
15806.326
15376.753
6291.6807
6221.0025
10416.57
10398.762
15751.926
15677.052
22844.299
18610.172
18725.452
22975.292
23313.425
19001.758
23240.323
19064.333
18920.018
23222.081
23060.074
18948.418
19067.4
18978.078
23257.451
23332.683
39913.256
26724.424
26864.613
40273.432
40989.243
27211.971
27101.134
40533.17
54007.058
63944.812
64212.214
54752.605
55278.13
64939.268
64562.4
55518.143
27142.179
27220.273
40722.721
40579.194
55434.573
64539.056
64852.769
55685.824
40531.916
27122.919
26879.53
39778.137
55343.213
64707.743
63832.061
55108.131
2244.6683
4167.6002
4101.7569
682.76471
680.15311
2220.3945
4048.9036
4103.6154
4039.4272
4011.8273
4725.7698
4720.4347
4077.3303
4095.1949
4814.1923
4751.6478
2139.8136
696.73303
703.10141
2173.7559
685.85508
682.68267
2241.9442
4129.3978
4142.6963
2251.0613
4104.5626
4167.6739
2094.2786
693.33873
697.61115
2142.4734
3499.6265
3489.7298
6633.7617
6642.2592
3573.5459
3550.8681
6726.7611
6734.5532
12795.317
12827.772
32505.976
33121.153
12908.648
12906.88
33279.98
33214.325
3621.148
3622.3269
6795.9671
6861.4043
12907.889
12990.764
32553.966
33128.509
13035.66
12983.732
32780.333
32556.787
3573.3128
3567.5166
6755.7959
6754.5474
7466.6796
7488.2881
7564.1694
7406.1457
12426.624
12589.482
18318.539
18565.149
12578.965
12580.615
18614.663
18480.272
28578.714
47315.959
29177.21
48340.794
29127.594
29465.377
49093.047
49110.042
12481.657
12478.204
18524.444
18361.09
29189.75
29572.539
48776.343
49351.442
12724.597
12586.52
18487.772
18673.089
29446.568
28783.479
49304.93
49133.753
7439.564
7537.1558
7376.0155
7411.9008
12434.11
12460.871
18300.804
18467.197
28750.73
48990.589
49589.301
29023.962
12562.087
12351.781
18302.031
18553.431
29075.571
49038.853
28500.949
48627.658
12611.03
12409.578
18319.146
18589.401
12640.98
12618.646
18639.539
18499.193
28873.069
29361.9
49413.218
48544.342
49811.788
49721.539
29559.12
28950.118
6244.67
6234.0104
10407.531
10315.053
15412.32
15807.419
6229.9619
6197.5901
10316.007
10404.069
15718.53
15714.118
6360.3345
6356.889
10578.337
10528.135
15688.102
16007.787
6266.5753
6241.475
10442.197
15713.917
10337.399
15688.631
18764.907
18657.741
22906.017
23076.066
23398.509
19037.848
19072.79
23317.129
23398.318
19071.739
23468.27
19134.688
18952.962
18950.61
23149.279
23330.367
41058.795
26853.91
27066.872
41630.21
42563.77
27395.448
27294.095
42303.773
53236.328
64695.203
65132.451
53972.74
66036.448
66214.869
54645.806
55221.323
42456.744
27373.697
27449.304
42084.057
27311.099
27069.96
41012.86
41460.25
55337.112
66113.258
66014.819
56069.097
56015.802
65558.755
65236.581
55824.329
18898.202
18878.626
23006.733
23238.681
19111.746
19041.301
23343.954
23407.008
23159.316
18928.538
19026.381
23286.999
23523.429
19209.046
19233.535
23407.908
41178.558
27065.513
27218.844
41421.347
42122.433
27462.67
27303.012
41474.893
55323.119
65184.004
65360.432
55785.861
65551.562
66084.002
56126.87
56300.726
27333.492
27270.292
41135.865
41278.273
55898.182
65193.641
65554.569
56133.963
41084.627
27184.597
26854.023
40046.168
64254.095
65444.943
55612.613
55068.451
39670.86
39693.511
37610.519
38651.855
40259.004
41273.861
41243.19
42136.895
72004.866
34229.95
69951.719
32847.806
73314.505
35444.072
73441.261
35352.524
39641.667
40749.68
42323.384
42258.553
42473.823
43070.292
42983.678
41810.281
42359.056
41674.095
43064.159
43398.69
43192.677
42728.488
42386.559
40846.133
38686.29
37307.624
37732.71
38597.997
11666.238
11612.79
40229.113
40233.428
39623.754
39321.41
11916.467
11940.33
42594.413
41446.489
42086.323
42895.301
39873.565
38997.608
12085.013
12137.264
40201.869
40773.788
12254.936
12227.152
40530.9
41217.103
12430.925
12363.328
39956.313
40951.304
12345.487
12298.155
39244.62
38361.663
12020.737
12088.61
40332.515
40633.001
12281.165
12282.366
7885.829
21172.231
21634.838
7982.1344
21088.433
20670.162
7788.6668
7833.9937
22388.711
22464.542
8279.4389
8412.411
20802.423
21582.229
7889.6838
8035.9623
36484.222
35395.747
11150.886
11254.104
11509.977
37946.435
38066.735
11566.061
40016.352
39029.784
11905.405
12003.601
39329.555
40067.521
12022.901
11997.272
39601.29
39202.072
12091.918
12099.586
40122.119
40363.411
12172.362
12184.001
40479.737
39689.065
12116.824
12171.335
38965.926
40031.557
12065.166
12018.613
8097.2886
21016.295
21917.687
8234.3949
22423.041
22731.813
8566.3994
8403.0359
22894.535
23294.657
8736.5138
8693.6362
23013.571
22373.579
8522.4988
8575.2951
12810.739
13540.35
12848.61
13457.539
13141.477
12284.746
12242.6
13038.589
13243.057
12639.002
13175.417
12531.836
12792.298
12001.192
12853.187
12110.149
37644.271
37310.816
38600.684
38923.676
40001.701
39722.288
40462.302
40151.208
37203.624
36775.948
35884.262
38096.051
39623.912
38677.331
39224.288
38335.632
12273.632
11661.549
12206.842
11565.14
34823.632
33566.032
34874.565
36152.649
11179.628
11768.391
11828.627
11251.501
32668.938
33996.65
37259.345
37557.934
35975.858
36202.99
35081.614
35265.816
11778.839
12514.899
11821.523
12418.696
11390.913
12043.434
11968.532
11420.248
13418.545
14046.565
13338.045
14119.692
13637.845
13652.705
12759.621
12809.292
13593.394
14346.056
13562.031
14317.625
12901.547
13819.47
13795.396
12941.282
12315.259
12997.57
12289.648
12991.212
12512.026
12511.11
11818.423
11932.392
13094.04
12405.44
13107.214
12377.454
11977.989
12601.786
12575.882
11988.914
14435.347
14298.073
13748.772
13941.79
34251.206
35188.379
34867.51
35844.516
36495.935
14384.885
13586.962
14255.092
13776.311
37164.449
35477.758
36104.92
37242.026
36235.328
36878.952
36598.668
37518.842
38183.813
38571.241
37896.05
14691.719
14088.217
14102.654
14645.352
13914.668
14639.655
14584.958
13937.775
13759.134
14397.776
14363.763
13720.889
14152.547
13573.739
14026.198
13405.054
13220.018
13227.367
14090.383
14082.119
13734.197
12904.005
13842.903
13049.277
15179.66
14590.291
14799.766
15345.678
15756.503
15103.938
15160.131
15746.438
14439.396
15169.279
15328.222
14655.161
14899.6
15680.035
15653.435
14962.003
14492.095
14953.048
14275.241
15124.603
14662.351
14847.838
13737.599
13913.23
15404.807
14758.805
15416.725
14707.043
14088.153
15108.182
15084.283
14140.217
36713.37
37163.438
38307.725
37822.255
38910.2
37535.644
37682.454
38710.836
39770.063
38842.791
39345.202
39256.489
39753.061
39974.761
40428.077
40194.212
14120.069
14846.671
14054.126
14894.747
14326.11
13385.364
13433.661
14334.06
14978.324
14210.602
15039.263
14202.557
14444.686
13487.931
14398.393
13511.861
12890.998
13603.966
12856.429
13603.875
13655.259
13685.411
12928.393
12942.511
13075.79
12395.599
13091.892
12509.914
13100.94
12486.042
12474.006
13145.382
14208.709
14274.896
13505.275
13586.956
13818.554
12979.25
13790.425
12920.074
14099.941
14737.199
13946.988
14870.966
14193.231
14297.469
13263.912
13404.773
13146.265
12442.999
13159.236
12485.687
12668.891
12071.902
12652.925
11940.172
13556.525
12841.977
13461.546
12726.911
12934.02
12287.345
12393.25
13010.64
15133.814
15275.234
14459.814
14655.486
14997.598
14064.068
14828.464
13913.341
16085.924
15401.738
15871.811
15152.719
15537.629
15731.662
14495.448
14710.04
15375.51
15503.909
14785.77
14964.958
15489.78
14822.024
15352.574
14630.046
15852.723
16243.549
15582.826
16464.277
16154.608
16374.23
15361.772
15638.312
15656.989
16175.255
15525.369
16235.621
16129.559
15344.868
15488.658
16206.509
15813.988
16418.637
15777.104
16384.848
16388.239
15608.868
16336.71
15647.922
15322.501
15886.335
15164.814
15979.777
14561.355
15579.546
15707.946
14706.296
16115.724
15467.136
16158.755
15442.725
14800.779
15869.907
15810.318
14826.225
19547.784
19698.051
17744.106
18161.795
19030.66
19199.596
20931.949
20853.96
5093.4181
5040.8622
5330.933
5259.004
18768.558
19926.837
19408.224
19429.575
17593.05
17827.891
17320.249
17619.55
19127.633
19159.941
4879.4351
4919.9637
18316.526
18524.816
18133.165
16508.461
16955.503
18490.114
19461.058
17665.593
17852.298
19490.282
16057.848
16993.756
15660.234
17354.545
16845.554
18166.131
16675.974
18221.964
17988.657
16310.85
16542.652
18118.316
17664.974
16012.847
16352.192
17870.249
15599.35
16789.149
15412.935
16909.383
16441.364
15107.184
15422.898
16676.358
4576.4521
4531.8669
4789.6322
4719.044
25839.378
26516.141
26133.055
26731.172
32144.03
26187.219
27260.318
33649.554
26652.194
27268.367
27825.923
27232.104
28358.216
28969.723
29158.764
28571.704
27909.018
28519.049
29071.683
28463.438
29602.73
30216.045
30383.883
29781.227
16165.634
16473.078
15236.389
15576.798
15797.171
16057.317
14904.355
15201.003
17180.821
16124.406
16259.57
17231.019
15678.805
15794.232
16679.615
16708.356
15053.739
15452.123
14800.065
15673.425
16215.223
15474.701
15565.696
16234.851
15385.395
14614.332
15577.295
14854.298
15204.735
15285.895
16052.3
16053.689
15069.389
14385.145
14440.565
15063.795
14844.461
14690.363
14043.252
14262.219
14942.296
14156.655
14197.345
14916.93
14696.774
14546.666
13816.282
14031.154
15899.504
14925.345
15978.462
15056.128
15497.005
15462.986
14542.887
14634.881
14880.967
15544.831
14607.947
15760.422
14219.619
15092.447
15277.501
14465.203
31939.658
32847.058
32631.809
32148.194
33360.951
34064.796
33591.057
34315.498
35786.996
34784.835
35488.893
35059.725
31036.357
30856.869
31708.812
31507.833
29722.28
29143.03
29768.698
30383.76
31084.108
31761.72
30424.436
31057.596
32196.063
32864.731
33120.684
32426.643
31702.712
32457.342
32335.928
33137.06
33841.999
34502.81
32992.571
33610.305
34537.068
33549.733
34221.303
33841.332
34913.257
35561.335
35914.87
35255.643
15681.091
15021.576
15230.169
15848.32
16935.794
16731.142
15979.109
16254.077
15017.836
15594.624
14823.019
15747.828
16778.53
15693.358
16559.82
15976.855
16525.587
16597.708
15813.059
15951.207
16493.49
15588.911
16425.538
15724.242
16127.837
16773.557
16060.455
16766.159
16671.885
15833.217
15893.204
16643.054
15772.916
16441.095
15489.782
16694.499
16035.726
16245.82
15136.206
15384.612
16929.873
17738.647
16651.632
17932.726
16186.304
17207.769
17409.252
16463.435
16340.761
17358.184
17468.504
16518.611
17016.637
16114.139
16920.44
15950.384
16299.927
17171.31
17165.272
16202.472
17579.235
16578.485
17575.525
16677.845
19991.285
20140.99
18121.608
18519.053
19728.914
19993.176
21753.952
21747.949
5258.0083
5214.0767
5524.2248
5597.3957
19233.491
20812.988
20982.782
21002.782
19081.112
19334.734
19129.726
19289.728
20916.172
20837.788
5428.623
5357.9137
5497.3006
5606.5881
20058.093
19911.328
17240.952
18505.971
16830.964
18837.637
17301.117
17624.925
15938.874
16297.974
18574.068
20142.175
18272.973
20293.166
17228.927
18761.849
18957.452
17523.266
18017.724
19504.122
17749.366
19659.159
16820.55
18259.319
18419.958
17046.311
18059.649
19585.012
17891.944
19598.429
17025.502
18426.404
18454.9
17157.211
4751.7617
4732.8917
4983.8022
5033.7254
4923.2583
4808.6189
4862.6628
5009.6444
4319.1463
4284.6207
4476.7193
4547.1793
3879.4769
3793.0559
3911.5937
4045.4343
3845.913
3779.3452
3885.113
3985.5396
4372.0481
4303.2019
4398.7882
4495.512
2964.9369
3014.0561
3254.9408
3325.7143
1179.0405
7107.7855
7251.7825
2635.3001
6057.9148
5951.5436
6745.3877
7110.9612
2621.4067
5945.5647
5685.0963
7909.459
8320.5029
8016.868
8455.6733
2518.4202
2493.434
8353.9141
8482.3144
8471.5155
8665.8037
7146.8062
7272.0364
2642.791
6103.2292
6033.9275
8378.6072
8513.5109
8494.6367
8666.072
8577.6895
8700.4191
8667.0733
8852.6868
7307.3805
7425.9727
2718.7063
6233.7123
6149.7434
2503.8652
2562.8254
10031.408
9605.1611
10123.133
9731.3256
9627.9409
9736.6322
9425.7894
9589.6639
9429.9467
9253.2137
9545.6239
9399.0284
10197.918
9745.0299
10305.042
9903.906
9373.945
9173.8046
9546.8443
9407.1629
9927.5648
9485.5532
10131.563
9741.6001
4018.3388
3862.7371
3922.6717
4106.9592
9373.4356
8948.2983
9794.4553
9365.5712
8865.609
8670.482
9303.9602
9113.2393
2025.8346
2071.0635
2241.9468
2180.4557
2207.7281
2033.3576
2185.0753
1048.8091
1033.0114
1156.2852
4044.574
3879.3214
4003.4513
4209.8244
2961.3726
3025.8899
3260.2709
3372.3959
9769.3368
8763.7923
9783.5164
8816.1069
10270.967
10323.053
9439.4158
9532.9071
10216.159
9395.9824
10246.488
9461.6909
9795.0281
8785.1697
9832.3866
8862.7411
10022.624
9210.9694
10223.412
9421.5271
9563.5498
8583.4148
9729.2211
8755.966
9444.8594
8700.2062
9732.3794
8965.7516
4988.586
4947.7754
4485.0318
4550.0998
9048.7136
8145.2527
9274.3514
8352.7521
10156.247
9674.1662
10375.128
9933.7589
10277.989
9552.6086
10497.957
9805.3336
4654.6425
4593.0741
4498.6953
4582.4881
9672.7336
8994.4271
10019.935
9330.0452
9568.5686
9112.7492
9958.8993
9496.2116
10447.502
9726.2527
10496.307
9815.8672
10294.774
9820.7149
10366.519
9927.8489
10518.46
10426.173
9929.1111
10069.213
10539.842
10613.293
9796.0041
9918.5491
5199.8415
5010.6758
4544.9397
4736.9954
4547.4804
4632.833
4802.0864
4746.4257
10301.107
9840.8999
10499.974
10073.366
9800.6945
9813.6889
9600.6913
9694.7069
9714.3365
9517.4607
9923.3483
9761.2532
10392.982
10430.081
9935.514
10048.894
8728.8143
8852.5215
8716.8354
8918.5901
8653.8651
8776.6536
8849.6323
9018.3911
7386.6104
7580.0547
6252.3043
2713.9764
6358.21
7442.4518