/*--------------------------------*- C++ -*----------------------------------*\
  =========                 |
  \\      /  F ield         | OpenFOAM: The Open Source CFD Toolbox
   \\    /   O peration     | Website:  https://openfoam.org
    \\  /    A nd           | Version:  7
     \\/     M anipulation  |
\*---------------------------------------------------------------------------*/
FoamFile
{
    version     2.0;
    format      ascii;
    class       volScalarField;
    location    "1000";
    object      p;
}
// * * * * * * * * * * * * * * * * * * * * * * * * * * * * * * * * * * * * * //

dimensions      [0 2 -2 0 0 0 0];

internalField   nonuniform List<scalar> 
34222
(
-7.8651288e+95
-7.3410575e+95
-7.8745996e+95
-7.6747901e+95
-7.6635785e+95
-7.9096526e+95
-7.9310616e+95
-6.7904216e+95
-7.3390397e+95
-7.1528378e+95
-7.1580568e+95
-7.423801e+95
-7.4170465e+95
-7.8585455e+95
-7.9551245e+95
-7.6806017e+95
-7.6815231e+95
-7.9449994e+95
-7.6648235e+95
-7.6535923e+95
-7.8951536e+95
-7.9157301e+95
-7.9694222e+95
-6.78474e+95
-6.2495759e+95
-6.9000364e+95
-6.6353329e+95
-6.6336855e+95
-6.8961169e+95
-7.3174668e+95
-7.4229659e+95
-7.1520361e+95
-7.1562532e+95
-7.4250954e+95
-7.1417448e+95
-7.1478332e+95
-7.4063781e+95
-7.3992615e+95
-7.8145805e+95
-7.952564e+95
-7.6637929e+95
-7.676733e+95
-7.957128e+95
-7.9422879e+95
-7.6711614e+95
-7.6724016e+95
-7.9317462e+95
-7.6645554e+95
-7.6527026e+95
-7.8962374e+95
-7.9177445e+95
-8.0492853e+95
-7.724333e+95
-7.7044122e+95
-7.9247214e+95
-7.5890081e+95
-7.5694087e+95
-6.7632889e+95
-6.2438816e+95
-6.8922999e+95
-6.6256955e+95
-6.6320226e+95
-6.8975929e+95
-6.1278691e+95
-6.3824048e+95
-6.3806363e+95
-6.1264511e+95
-6.8875242e+95
-6.6328931e+95
-6.6308187e+95
-6.8836284e+95
-7.2857484e+95
-7.2687625e+95
-7.2783892e+95
-7.1423016e+95
-7.1282079e+95
-7.400097e+95
-7.4147019e+95
-7.4059998e+95
-7.143386e+95
-7.1472615e+95
-7.4085959e+95
-7.1388641e+95
-7.144939e+95
-7.4042193e+95
-7.3962461e+95
-7.6136831e+95
-7.6452066e+95
-7.9338792e+95
-7.8978062e+95
-7.947098e+95
-7.6588214e+95
-7.6703557e+95
-7.9498738e+95
-7.9455373e+95
-7.6713694e+95
-7.6729201e+95
-7.9343964e+95
-7.664665e+95
-7.6527596e+95
-7.8965186e+95
-7.9180891e+95
-7.7865914e+95
-7.7867614e+95
-7.7649137e+95
-8.0015602e+95
-7.7663395e+95
-7.5928108e+95
-7.5221133e+95
-7.4925458e+95
-7.5840227e+95
-7.4837529e+95
-7.5759942e+95
-7.565218e+95
-7.4659127e+95
-7.6837781e+95
-7.4765696e+95
-7.6574611e+95
-7.5505175e+95
-7.5247769e+95
-7.8643047e+95
-6.9910086e+95
-6.6963306e+95
-6.7313021e+95
-6.6836494e+95
-6.2253719e+95
-6.8692991e+95
-6.6034876e+95
-6.6162488e+95
-6.8825414e+95
-6.9759876e+95
-6.1254418e+95
-6.1192299e+95
-6.3730834e+95
-6.3793355e+95
-6.8807032e+95
-6.6237259e+95
-6.6301501e+95
-6.886314e+95
-6.1348502e+95
-6.3794518e+95
-6.3770576e+95
-6.1329879e+95
-6.8865605e+95
-6.6330937e+95
-6.6310775e+95
-6.883352e+95
-7.3076242e+95
-7.3359132e+95
-7.2982418e+95
-7.2908495e+95
-7.2825932e+95
-7.2501732e+95
-7.228767e+95
-7.2298986e+95
-7.0887607e+95
-7.1111285e+95
-7.3818377e+95
-7.3547819e+95
-7.1347672e+95
-7.1215165e+95
-7.3853261e+95
-7.39956e+95
-7.4048481e+95
-7.1414012e+95
-7.1447271e+95
-7.4071211e+95
-7.1386145e+95
-7.1447255e+95
-7.4041211e+95
-7.3960558e+95
-7.6087336e+95
-7.6404136e+95
-7.9296529e+95
-7.8919215e+95
-7.9512946e+95
-7.6597771e+95
-7.6710856e+95
-7.9537563e+95
-7.9459867e+95
-7.6715042e+95
-7.6730746e+95
-7.9347931e+95
-7.7202742e+95
-7.742565e+95
-7.6208605e+95
-7.5808363e+95
-7.5894809e+95
-7.6296555e+95
-7.654712e+95
-7.5626066e+95
-7.6432027e+95
-7.6454913e+95
-7.6342427e+95
-7.7439916e+95
-7.6008301e+95
-7.5609163e+95
-7.5728613e+95
-7.6127855e+95
-7.7165102e+95
-7.9399909e+95
-7.7178592e+95
-7.7449555e+95
-7.6256984e+95
-7.6376675e+95
-7.614851e+95
-7.626045e+95
-7.5171687e+95
-7.5127672e+95
-7.4419761e+95
-7.4466375e+95
-7.4724794e+95
-7.4750783e+95
-7.4278586e+95
-7.4255105e+95
-7.4331421e+95
-7.5039161e+95
-7.5087244e+95
-7.4379613e+95
-7.4952476e+95
-7.4995866e+95
-7.4253558e+95
-7.4295354e+95
-7.4853811e+95
-7.490901e+95
-7.416168e+95
-7.4214278e+95
-7.5543295e+95
-7.4559657e+95
-7.5427418e+95
-7.4444276e+95
-7.6331747e+95
-7.4226468e+95
-7.5202428e+95
-7.4347905e+95
-7.5325511e+95
-7.501379e+95
-7.4739157e+95
-7.6047326e+95
-7.1243649e+95
-7.2295586e+95
-7.1359308e+95
-6.9580373e+95
-6.9661536e+95
-7.0389454e+95
-7.1272628e+95
-6.9588028e+95
-6.692326e+95
-6.7566807e+95
-6.8271798e+95
-6.8174198e+95
-6.8876766e+95
-6.8219599e+95
-6.6871379e+95
-6.4241755e+95
-6.6529519e+95
-6.9403137e+95
-6.670487e+95
-6.6955233e+95
-6.8357794e+95
-6.5752514e+95
-6.1998571e+95
-6.5905058e+95
-6.8537756e+95
-6.9596015e+95
-6.8094215e+95
-6.6762713e+95
-6.8160231e+95
-6.6815639e+95
-6.4126701e+95
-6.110408e+95
-6.1010873e+95
-6.3528662e+95
-6.3638627e+95
-6.8593879e+95
-6.6029955e+95
-6.6150182e+95
-6.8721616e+95
-7.1127221e+95
-7.1201754e+95
-6.9518983e+95
-6.9445108e+95
-6.1320275e+95
-6.126372e+95
-6.3701839e+95
-6.3762456e+95
-6.87987e+95
-6.6238467e+95
-6.630204e+95
-6.8853668e+95
-6.137175e+95
-6.3805748e+95
-6.3771683e+95
-6.1343594e+95
-6.8864446e+95
-6.63309e+95
-6.6311378e+95
-6.883298e+95
-7.332209e+95
-7.3269082e+95
-7.3537038e+95
-7.3552336e+95
-7.3222813e+95
-7.3180598e+95
-7.3150143e+95
-7.311095e+95
-7.3075203e+95
-7.3036908e+95
-7.2741468e+95
-7.2627934e+95
-7.2441396e+95
-7.2086953e+95
-7.2536253e+95
-7.187904e+95
-7.3293515e+95
-7.3004221e+95
-7.0420661e+95
-7.0672999e+95
-7.082942e+95
-7.1049561e+95
-7.3677534e+95
-7.3407986e+95
-7.132836e+95
-7.1200687e+95
-7.3844868e+95
-7.3985525e+95
-7.4048011e+95
-7.1412564e+95
-7.1445422e+95
-7.4070558e+95
-7.6098705e+95
-7.6412802e+95
-7.9338922e+95
-7.8961353e+95
-7.9518131e+95
-7.6599521e+95
-7.6712468e+95
-7.9542406e+95
-7.4426074e+95
-7.4599627e+95
-7.4728991e+95
-7.430743e+95
-7.4388355e+95
-7.4809658e+95
-7.5492443e+95
-7.5700802e+95
-7.5743086e+95
-7.5532425e+95
-7.5788722e+95
-7.5419589e+95
-7.5325382e+95
-7.5351282e+95
-7.5061749e+95
-7.557874e+95
-7.5087936e+95
-7.5744289e+95
-7.5534285e+95
-7.5456011e+95
-7.5403343e+95
-7.5610805e+95
-7.5663516e+95
-7.5654996e+95
-7.5707851e+95
-7.5445503e+95
-7.5495035e+95
-7.5789376e+95
-7.5392445e+95
-7.5506674e+95
-7.590412e+95
-7.4541529e+95
-7.4123615e+95
-7.4225809e+95
-7.4641521e+95
-7.6921449e+95
-7.5296709e+95
-7.5163733e+95
-7.5559891e+95
-7.5695866e+95
-7.6638223e+95
-7.6646646e+95
-7.6932044e+95
-7.5798826e+95
-7.5935723e+95
-7.5688061e+95
-7.5816998e+95
-7.6029598e+95
-7.6148834e+95
-7.603658e+95
-7.5918793e+95
-7.5264798e+95
-7.5203627e+95
-7.5410116e+95
-7.547117e+95
-7.5359031e+95
-7.5309363e+95
-7.5516397e+95
-7.5566976e+95
-7.5454257e+95
-7.5515482e+95
-7.5250201e+95
-7.5307991e+95
-7.5610302e+95
-7.5559777e+95
-7.5353047e+95
-7.5399799e+95
-7.4676143e+95
-7.4699395e+95
-7.4207926e+95
-7.4233207e+95
-7.4628724e+95
-7.4654302e+95
-7.4185404e+95
-7.4159795e+95
-7.4334822e+95
-7.4321225e+95
-7.4081502e+95
-7.4093553e+95
-7.4354852e+95
-7.4345861e+95
-7.4102692e+95
-7.4113425e+95
-7.4539819e+95
-7.4565002e+95
-7.4095865e+95
-7.4072688e+95
-7.458511e+95
-7.4606221e+95
-7.4138942e+95
-7.4115759e+95
-7.4454551e+95
-7.4477848e+95
-7.4014354e+95
-7.3992886e+95
-7.4496857e+95
-7.4516816e+95
-7.4054256e+95
-7.4032976e+95
-7.4363875e+95
-7.4392111e+95
-7.3934055e+95
-7.3908914e+95
-7.4798666e+95
-7.4413705e+95
-7.4433787e+95
-7.3974828e+95
-7.3954104e+95
-7.4112683e+95
-7.4056798e+95
-7.4744125e+95
-7.4695842e+95
-7.4638836e+95
-7.3950189e+95
-7.4008519e+95
-7.5084351e+95
-7.4955059e+95
-7.3997022e+95
-7.4120607e+95
-7.443078e+95
-7.3751769e+95
-7.4490902e+95
-7.381094e+95
-7.4537136e+95
-7.4587876e+95
-7.3854834e+95
-7.3904246e+95
-7.4718719e+95
-7.4845573e+95
-7.3766198e+95
-7.3891372e+95
-7.1212828e+95
-7.1141931e+95
-7.1156821e+95
-7.1656562e+95
-7.1672367e+95
-7.2201326e+95
-7.2866968e+95
-7.2215894e+95
-7.2880226e+95
-7.2258935e+95
-7.1162401e+95
-7.2206138e+95
-6.9491652e+95
-6.9871003e+95
-6.950616e+95
-6.9887212e+95
-6.955689e+95
-7.0361361e+95
-6.9514207e+95
-7.0317986e+95
-7.0256136e+95
-7.0698263e+95
-7.0272239e+95
-7.0713241e+95
-7.1117897e+95
-7.2160936e+95
-7.1077777e+95
-7.2120358e+95
-7.0238023e+95
-6.944651e+95
-6.9479391e+95
-7.0275031e+95
-6.6905559e+95
-6.6933571e+95
-6.7511921e+95
-6.7542902e+95
-6.5652994e+95
-6.7205287e+95
-6.7498661e+95
-6.7513329e+95
-6.7810894e+95
-6.7822506e+95
-6.8119894e+95
-6.8816439e+95
-6.8854686e+95
-6.8154672e+95
-6.8141613e+95
-6.8469716e+95
-6.8800389e+95
-6.812651e+95
-6.8115221e+95
-6.8441629e+95
-6.8453958e+95
-6.877476e+95
-6.913843e+95
-6.8787233e+95
-6.9151079e+95
-6.8762417e+95
-6.8789753e+95
-6.8073584e+95
-6.8098483e+95
-6.6860649e+95
-6.6883582e+95
-6.7466266e+95
-6.7489329e+95
-6.560695e+95
-6.4244604e+95
-6.6463822e+95
-6.6541576e+95
-6.7857245e+95
-6.7769503e+95
-6.3866333e+95
-6.6373285e+95
-7.0859606e+95
-7.0775136e+95
-6.9113051e+95
-6.9201038e+95
-6.9228047e+95
-6.7949968e+95
-6.6625906e+95
-6.6704118e+95
-6.8029419e+95
-6.4008687e+95
-6.9062746e+95
-6.1725887e+95
-6.6201381e+95
-6.5428286e+95
-6.7954166e+95
-6.8169155e+95
-6.5599727e+95
-6.8273287e+95
-6.5755699e+95
-6.3272655e+95
-6.0894374e+95
-6.0764138e+95
-6.340627e+95
-6.5906199e+95
-6.8450691e+95
-6.9283889e+95
-6.9381736e+95
-7.0943988e+95
-7.1049561e+95
-6.8638275e+95
-6.7991715e+95
-6.7963189e+95
-6.8661383e+95
-6.7397929e+95
-6.7367369e+95
-6.6767463e+95
-6.6799987e+95
-6.5506963e+95
-6.869203e+95
-6.8052373e+95
-6.8018357e+95
-6.87312e+95
-6.7450325e+95
-6.7423495e+95
-6.6821874e+95
-6.6846563e+95
-6.5551613e+95
-6.4145977e+95
-6.419588e+95
-6.1173348e+95
-6.10807e+95
-6.3507978e+95
-6.3612283e+95
-6.8586595e+95
-6.6033249e+95
-6.6149324e+95
-6.8712526e+95
-7.0981709e+95
-7.0951089e+95
-7.199141e+95
-7.2024124e+95
-7.2055804e+95
-7.1050657e+95
-7.1011244e+95
-7.2091651e+95
-7.0167482e+95
-6.9368554e+95
-6.9412435e+95
-7.0206688e+95
-7.0105699e+95
-6.9337087e+95
-6.9312184e+95
-7.0134217e+95
-6.1333803e+95
-6.128649e+95
-6.3713823e+95
-6.3765755e+95
-6.8797786e+95
-6.623827e+95
-6.6301797e+95
-6.8852624e+95
-6.1373668e+95
-6.3806907e+95
-6.3772483e+95
-6.1345244e+95
-7.3489394e+95
-7.3518113e+95
-7.3441576e+95
-7.3464749e+95
-7.363675e+95
-7.3645148e+95
-7.3664109e+95
-7.365279e+95
-7.3392349e+95
-7.3419644e+95
-7.3354719e+95
-7.3371532e+95
-7.3317413e+95
-7.3339904e+95
-7.3281925e+95
-7.3297838e+95
-7.3245241e+95
-7.3266783e+95
-7.2999252e+95
-7.3210828e+95
-7.3227463e+95
-7.2942945e+95
-7.2891926e+95
-7.2841151e+95
-7.2352548e+95
-7.2663746e+95
-7.2711391e+95
-7.2235092e+95
-7.2752461e+95
-7.2799975e+95
-7.2031687e+95
-7.213231e+95
-7.3154319e+95
-7.2866405e+95
-7.0360847e+95
-7.0611788e+95
-7.0815669e+95
-7.1033047e+95
-7.3666472e+95
-7.3400754e+95
-7.1327038e+95
-7.1199596e+95
-7.3844544e+95
-7.3985084e+95
-7.6100559e+95
-7.6414464e+95
-7.9344137e+95
-7.8966602e+95
-7.4218069e+95
-7.4006437e+95
-7.3212103e+95
-7.4678633e+95
-7.4728284e+95
-7.2858968e+95
-7.2937097e+95
-7.329534e+95
-7.4807159e+95
-7.4766619e+95
-7.5046891e+95
-7.5088295e+95
-7.5052077e+95
-7.5337422e+95
-7.5357993e+95
-7.537443e+95
-7.5398136e+95
-7.5175902e+95
-7.5191406e+95
-7.5209708e+95
-7.5194964e+95
-7.5163087e+95
-7.5178062e+95
-7.5072661e+95
-7.5300638e+95
-7.5087538e+95
-7.5187707e+95
-7.5198259e+95
-7.5098591e+95
-7.5108512e+95
-7.4897339e+95
-7.5033993e+95
-7.4580986e+95
-7.4595506e+95
-7.4912818e+95
-7.5278125e+95
-7.5011891e+95
-7.4933568e+95
-7.4925159e+95
-7.460705e+95
-7.4616332e+95
-7.529466e+95
-7.5318193e+95
-7.5331108e+95
-7.5356676e+95
-7.5258294e+95
-7.4990617e+95
-7.523299e+95
-7.4965608e+95
-7.4955878e+95
-7.5004917e+95
-7.5238881e+95
-7.5267189e+95
-7.5228995e+95
-7.5201368e+95
-7.5251809e+95
-7.5273473e+95
-7.5311502e+95
-7.5287365e+95
-7.5140689e+95
-7.5168081e+95
-7.4873857e+95
-7.4900081e+95
-7.5189216e+95
-7.4921587e+95
-7.5211094e+95
-7.4941417e+95
-7.4348757e+95
-7.3928945e+95
-7.4027876e+95
-7.4442854e+95
-7.303845e+95
-7.4486363e+95
-7.4539921e+95
-7.2687921e+95
-7.2781221e+95
-7.3132811e+95
-7.4581889e+95
-7.4631462e+95
-7.5309649e+95
-7.4922848e+95
-7.5051098e+95
-7.5443705e+95
-7.383283e+95
-7.3722273e+95
-7.414569e+95
-7.4257247e+95
-7.5072433e+95
-7.4692175e+95
-7.4820128e+95
-7.5204721e+95
-7.5300676e+95
-7.5434537e+95
-7.5192779e+95
-7.532269e+95
-7.567936e+95
-7.5433173e+95
-7.5566316e+95
-7.5540816e+95
-7.484952e+95
-7.4779334e+95
-7.4981376e+95
-7.505026e+95
-7.510222e+95
-7.4904326e+95
-7.4958963e+95
-7.5157956e+95
-7.5018084e+95
-7.5085637e+95
-7.4815649e+95
-7.4878425e+95
-7.5191054e+95
-7.4927062e+95
-7.5134934e+95
-7.4980425e+95
-7.520337e+95
-7.5001963e+95
-7.5058004e+95
-7.5260236e+95
-7.5303376e+95
-7.5100449e+95
-7.5152901e+95
-7.5357865e+95
-7.5399351e+95
-7.5137202e+95
-7.534224e+95
-7.5192767e+95
-7.5240207e+95
-7.5298756e+95
-7.5032435e+95
-7.5090439e+95
-7.4760362e+95
-7.481293e+95
-7.4858389e+95
-7.4907328e+95
-7.5002144e+95
-7.5032614e+95
-7.5040027e+95
-7.5071722e+95
-7.5057767e+95
-7.5081418e+95
-7.5094816e+95
-7.5121056e+95
-7.4944328e+95
-7.4976112e+95
-7.4685996e+95
-7.47172e+95
-7.499953e+95
-7.5023462e+95
-7.4739949e+95
-7.4761039e+95
-7.5153079e+95
-7.5176677e+95
-7.5215975e+95
-7.519045e+95
-7.51311e+95
-7.510509e+95
-7.5143106e+95
-7.5170718e+95
-7.5047068e+95
-7.5073455e+95
-7.4785155e+95
-7.480954e+95
-7.5093654e+95
-7.4828759e+95
-7.5116636e+95
-7.4848643e+95
-7.4286155e+95
-7.4272765e+95
-7.4032157e+95
-7.4046292e+95
-7.4309337e+95
-7.4298667e+95
-7.4057944e+95
-7.4070742e+95
-7.3985637e+95
-7.4225778e+95
-7.4239163e+95
-7.3999397e+95
-7.4261614e+95
-7.4251027e+95
-7.4010516e+95
-7.4022604e+95
-7.3808278e+95
-7.3797462e+95
-7.3826829e+95
-7.3817487e+95
-7.3897221e+95
-7.4138156e+95
-7.4150645e+95
-7.3909598e+95
-7.3918899e+95
-7.4161859e+95
-7.4169682e+95
-7.3929658e+95
-7.3938624e+95
-7.4179744e+95
-7.4192762e+95
-7.3951674e+95
-7.3962343e+95
-7.4204584e+95
-7.4213648e+95
-7.3975414e+95
-7.4065734e+95
-7.4054804e+95
-7.3817674e+95
-7.382822e+95
-7.4085666e+95
-7.4076779e+95
-7.383681e+95
-7.3848328e+95
-7.4107356e+95
-7.4095612e+95
-7.3856887e+95
-7.3868071e+95
-7.3876801e+95
-7.4117977e+95
-7.4126216e+95
-7.3887964e+95
-7.3985995e+95
-7.3972158e+95
-7.4336589e+95
-7.3737608e+95
-7.3750547e+95
-7.4005917e+95
-7.3996962e+95
-7.3759426e+95
-7.3770545e+95
-7.3885889e+95
-7.4310336e+95
-7.3857797e+95
-7.4027561e+95
-7.4016132e+95
-7.3778915e+95
-7.379067e+95
-7.4044831e+95
-7.4036983e+95
-7.3799094e+95
-7.3809193e+95
-7.4257401e+95
-7.4285997e+95
-7.3833606e+95
-7.3806047e+95
-7.4210221e+95
-7.423341e+95
-7.3782674e+95
-7.3756547e+95
-7.4157438e+95
-7.4187444e+95
-7.3733095e+95
-7.3706396e+95
-7.4307322e+95
-7.3636533e+95
-7.4370223e+95
-7.369834e+95
-7.4251194e+95
-7.358184e+95
-7.418631e+95
-7.3517168e+95
-7.3514898e+95
-7.3961347e+95
-7.3993104e+95
-7.3545305e+95
-7.4017582e+95
-7.4040395e+95
-7.3568966e+95
-7.3592481e+95
-7.4061321e+95
-7.4086277e+95
-7.3611342e+95
-7.3634625e+95
-7.3656848e+95
-7.4107935e+95
-7.4132228e+95
-7.3683701e+95
-7.3307926e+95
-7.3968392e+95
-7.4026184e+95
-7.3363902e+95
-7.4075819e+95
-7.413217e+95
-7.3411855e+95
-7.3466902e+95
-7.110219e+95
-7.1618574e+95
-7.1127013e+95
-7.1642184e+95
-7.1071875e+95
-7.13232e+95
-7.1332564e+95
-7.1080508e+95
-7.108644e+95
-7.1338116e+95
-7.1094581e+95
-7.1344801e+95
-7.1870241e+95
-7.157323e+95
-7.1863951e+95
-7.1580747e+95
-7.1594721e+95
-7.1886025e+95
-7.1586612e+95
-7.1877162e+95
-7.2186007e+95
-7.2151739e+95
-7.2489274e+95
-7.2497059e+95
-7.2158379e+95
-7.2848977e+95
-7.2834774e+95
-7.3236647e+95
-7.3243137e+95
-7.2841773e+95
-7.216528e+95
-7.2174402e+95
-7.2504231e+95
-7.251186e+95
-7.2847482e+95
-7.2856814e+95
-7.3249208e+95
-7.3259287e+95
-7.2158817e+95
-7.2820415e+95
-7.1054651e+95
-7.1567807e+95
-7.1079369e+95
-7.1594537e+95
-7.21099e+95
-7.2772486e+95
-7.2136045e+95
-7.2796394e+95
-6.9479323e+95
-6.9428301e+95
-6.9436236e+95
-6.9613393e+95
-6.9622012e+95
-6.9803382e+95
-6.9857838e+95
-7.0000398e+95
-6.9794954e+95
-6.9992342e+95
-6.9638641e+95
-6.9443486e+95
-6.9629801e+95
-6.9452536e+95
-6.9810727e+95
-7.000781e+95
-7.0016478e+95
-6.981965e+95
-6.9458827e+95
-6.9837507e+95
-7.0219211e+95
-7.0242395e+95
-7.0659163e+95
-7.0683178e+95
-6.9418521e+95
-6.9440271e+95
-6.9794294e+95
-6.9817773e+95
-7.0176296e+95
-7.0614708e+95
-7.0199873e+95
-7.0638067e+95
-7.0185517e+95
-7.0397742e+95
-7.0406825e+95
-7.0193989e+95
-7.0853257e+95
-7.060938e+95
-7.0844865e+95
-7.0618073e+95
-7.0422421e+95
-7.0201281e+95
-7.0414193e+95
-7.0210219e+95
-7.0624672e+95
-7.0859654e+95
-7.0867863e+95
-7.0633433e+95
-7.1005038e+95
-7.1519841e+95
-7.1032657e+95
-7.1545769e+95
-7.2059564e+95
-7.2088011e+95
-7.2721357e+95
-7.2749204e+95
-7.0970285e+95
-7.1481632e+95
-7.0985213e+95
-7.1498389e+95
-7.2023625e+95
-7.2686347e+95
-7.2039998e+95
-7.2701419e+95
-7.0098312e+95
-7.0532215e+95
-7.0113422e+95
-7.0545944e+95
-6.9348427e+95
-6.971918e+95
-6.9363461e+95
-6.9734997e+95
-6.9378462e+95
-6.9751878e+95
-6.939913e+95
-6.977359e+95
-7.0129565e+95
-7.0564628e+95
-7.0154755e+95
-7.0591542e+95
-6.7146595e+95
-6.7157668e+95
-6.6331958e+95
-6.6850947e+95
-6.6859437e+95
-6.717178e+95
-6.719087e+95
-6.635733e+95
-6.688789e+95
-6.6869848e+95
-6.7435917e+95
-6.744825e+95
-6.7749188e+95
-6.7760888e+95
-6.746362e+95
-6.7484799e+95
-6.7777128e+95
-6.7798013e+95
-6.5740024e+95
-6.7158146e+95
-6.7166963e+95
-6.7330931e+95
-6.7339565e+95
-6.6925686e+95
-6.7477484e+95
-6.7625571e+95
-6.7634849e+95
-6.7487191e+95
-6.7496589e+95
-6.7642684e+95
-6.7649565e+95
-6.7503343e+95
-6.7774535e+95
-6.7928221e+95
-6.793448e+95
-6.7782425e+95
-6.7788055e+95
-6.7940095e+95
-6.794797e+95
-6.7795742e+95
-6.8056004e+95
-6.8382418e+95
-6.8068857e+95
-6.8397669e+95
-6.8711611e+95
-6.8729151e+95
-6.9069493e+95
-6.9089185e+95
-6.8746004e+95
-6.87653e+95
-6.9107031e+95
-6.912665e+95
-6.8085179e+95
-6.8414776e+95
-6.8105215e+95
-6.843274e+95
-6.8106833e+95
-6.8271054e+95
-6.8262879e+95
-6.8114344e+95
-6.8418446e+95
-6.8584285e+95
-6.8426112e+95
-6.8591053e+95
-6.8929676e+95
-6.8747722e+95
-6.8921619e+95
-6.8755116e+95
-6.8099028e+95
-6.8090588e+95
-6.8254839e+95
-6.8246794e+95
-6.8085082e+95
-6.8078968e+95
-6.8234824e+95
-6.8240795e+95
-6.8396773e+95
-6.856287e+95
-6.8390891e+95
-6.8557347e+95
-6.840247e+95
-6.8568878e+95
-6.8577311e+95
-6.8411059e+95
-6.8721325e+95
-6.8727397e+95
-6.889466e+95
-6.8901573e+95
-6.9074874e+95
-6.9259088e+95
-6.9067782e+95
-6.9251863e+95
-6.8915495e+95
-6.8733372e+95
-6.8907936e+95
-6.8741624e+95
-6.9080971e+95
-6.9265776e+95
-6.9274378e+95
-6.9089204e+95
-6.8654349e+95
-6.8668881e+95
-6.9004905e+95
-6.9018793e+95
-6.8681674e+95
-6.9032735e+95
-6.8699397e+95
-6.9051867e+95
-6.8011105e+95
-6.8330923e+95
-6.8022181e+95
-6.8344607e+95
-6.8033284e+95
-6.8357603e+95
-6.8372663e+95
-6.8047797e+95
-6.7108866e+95
-6.7116302e+95
-6.6289224e+95
-6.6811583e+95
-6.6817863e+95
-6.712601e+95
-6.7139181e+95
-6.6310727e+95
-6.6828308e+95
-6.6842615e+95
-6.7397795e+95
-6.770749e+95
-6.7405718e+95
-6.7715839e+95
-6.7414014e+95
-6.7725879e+95
-6.7428662e+95
-6.7740297e+95
-6.5698886e+95
-6.5718511e+95
-6.5142843e+95
-6.456407e+95
-6.4579931e+95
-6.5156898e+95
-6.6398169e+95
-6.6502075e+95
-6.645982e+95
-6.7051301e+95
-6.5230742e+95
-6.7091585e+95
-6.6538756e+95
-6.7132698e+95
-6.7187278e+95
-6.6594423e+95
-6.5302469e+95
-6.8400184e+95
-6.7777179e+95
-6.7723906e+95
-6.844766e+95
-6.7683987e+95
-6.8361232e+95
-6.7706092e+95
-6.8326263e+95
-6.7645828e+95
-6.3969408e+95
-6.3892079e+95
-6.3724568e+95
-6.764719e+95
-6.6321404e+95
-7.1725359e+95
-7.0744218e+95
-7.0702697e+95
-7.1767182e+95
-7.0668413e+95
-7.1687271e+95
-7.0627956e+95
-7.0693185e+95
-7.1644952e+95
-6.904319e+95
-6.9834063e+95
-6.9047437e+95
-6.9794505e+95
-6.9006316e+95
-6.9871831e+95
-6.9080157e+95
-6.9124592e+95
-6.9910138e+95
-7.0594096e+95
-6.8971526e+95
-6.8485594e+95
-6.7856831e+95
-6.7816845e+95
-6.8523361e+95
-6.7266047e+95
-6.7227182e+95
-6.6635842e+95
-6.6673589e+95
-6.5376427e+95
-6.6742488e+95
-6.6703151e+95
-6.7298493e+95
-6.5449281e+95
-6.7339528e+95
-6.7936919e+95
-6.8565947e+95
-6.7890851e+95
-6.8613358e+95
-6.4026851e+95
-6.4111645e+95
-6.8914683e+95
-6.8835126e+95
-7.0424726e+95
-7.0511211e+95
-6.3146647e+95
-6.2998346e+95
-6.052611e+95
-6.066114e+95
-6.7586556e+95
-6.6249762e+95
-6.5436992e+95
-6.7873738e+95
-6.8087572e+95
-6.560627e+95
-6.82665e+95
-6.5756465e+95
-6.3258116e+95
-6.096755e+95
-6.0839423e+95
-6.3391615e+95
-6.5909616e+95
-6.8442435e+95
-6.9939423e+95
-6.915376e+95
-6.919621e+95
-6.9986188e+95
-6.9293652e+95
-6.9244703e+95
-7.0037561e+95
-7.0084399e+95
-7.0823895e+95
-7.077465e+95
-7.1805951e+95
-7.1855033e+95
-7.1904871e+95
-7.0872426e+95
-7.0924975e+95
-7.1958486e+95
-6.8539464e+95
-6.888559e+95
-6.8547666e+95
-6.889184e+95
-6.7929258e+95
-6.7945484e+95
-6.8241679e+95
-6.8256318e+95
-6.7906957e+95
-6.8220357e+95
-6.7917183e+95
-6.8229981e+95
-6.8556544e+95
-6.890156e+95
-6.8572581e+95
-6.8917522e+95
-6.7334628e+95
-6.7634223e+95
-6.7352755e+95
-6.7651145e+95
-6.7308338e+95
-6.7611152e+95
-6.7322787e+95
-6.7621984e+95
-6.7020072e+95
-6.7036016e+95
-6.6199829e+95
-6.6724039e+95
-6.6741193e+95
-6.7050768e+95
-6.7068039e+95
-6.6230841e+95
-6.6776151e+95
-6.6758066e+95
-6.5613259e+95
-6.5643412e+95
-6.8585966e+95
-6.8601732e+95
-6.8931015e+95
-6.8946996e+95
-6.798323e+95
-6.8000004e+95
-6.8299339e+95
-6.8317599e+95
-6.795724e+95
-6.8268677e+95
-6.7969381e+95
-6.8283336e+95
-6.8617519e+95
-6.8639256e+95
-6.8965583e+95
-6.8989092e+95
-6.738268e+95
-6.7685231e+95
-6.7395046e+95
-6.7699798e+95
-6.7362518e+95
-6.766291e+95
-6.7374177e+95
-6.7673649e+95
-6.7077361e+95
-6.7087899e+95
-6.6249e+95
-6.6785396e+95
-6.6793473e+95
-6.7096518e+95
-6.7106039e+95
-6.6271539e+95
-6.6800959e+95
-6.680898e+95
-6.5658584e+95
-6.5682431e+95
-6.505881e+95
-6.4483196e+95
-6.4493388e+95
-6.5080256e+95
-6.4541642e+95
-6.4509425e+95
-6.5096518e+95
-6.5122025e+95
-6.3886392e+95
-6.1191738e+95
-6.1096123e+95
-6.3520633e+95
-6.3620524e+95
-6.858588e+95
-6.603327e+95
-6.6148985e+95
-6.8711514e+95
-7.087809e+95
-7.0896191e+95
-7.1392194e+95
-7.1408697e+95
-7.0853586e+95
-7.1363493e+95
-7.0864849e+95
-7.1377016e+95
-7.1902008e+95
-7.2556395e+95
-7.1916104e+95
-7.2570116e+95
-7.1929985e+95
-7.258527e+95
-7.1949782e+95
-7.2605554e+95
-7.1963234e+95
-7.1979218e+95
-7.2620412e+95
-7.2634819e+95
-7.0941628e+95
-7.0961013e+95
-7.1455224e+95
-7.1472611e+95
-7.0908377e+95
-7.1420755e+95
-7.0924033e+95
-7.1437294e+95
-7.1994135e+95
-7.2014158e+95
-7.2652188e+95
-7.2673725e+95
-7.0029682e+95
-7.0468412e+95
-7.0047837e+95
-7.048391e+95
-6.9271523e+95
-6.9645242e+95
-6.9289126e+95
-6.9663974e+95
-6.9309327e+95
-6.9684506e+95
-6.9333441e+95
-6.9706147e+95
-7.0065357e+95
-7.0087014e+95
-7.0501736e+95
-7.0521971e+95
-6.9980277e+95
-7.041526e+95
-6.9988573e+95
-7.0424508e+95
-6.9243663e+95
-6.9618143e+95
-6.9259632e+95
-6.9632915e+95
-6.9598573e+95
-6.9225898e+95
-6.9233e+95
-6.960638e+95
-6.9999291e+95
-7.0436961e+95
-7.0016449e+95
-7.0454803e+95
-6.1335285e+95
-6.1288367e+95
-6.3714861e+95
-6.3766402e+95
-7.3587975e+95
-7.3599942e+95
-7.3627108e+95
-7.3612223e+95
-7.3541046e+95
-7.3552518e+95
-7.3563921e+95
-7.357786e+95
-7.3491864e+95
-7.3502933e+95
-7.3514563e+95
-7.3530384e+95
-7.3453471e+95
-7.3461778e+95
-7.3470232e+95
-7.3482356e+95
-7.3415187e+95
-7.3424763e+95
-7.3433359e+95
-7.3445722e+95
-7.337796e+95
-7.3385409e+95
-7.3393896e+95
-7.3406805e+95
-7.3341648e+95
-7.3350693e+95
-7.3359213e+95
-7.3370896e+95
-7.3165372e+95
-7.3193792e+95
-7.3307099e+95
-7.3314995e+95
-7.3322496e+95
-7.3333907e+95
-7.3116313e+95
-7.3140882e+95
-7.3092655e+95
-7.3062804e+95
-7.3038962e+95
-7.3019058e+95
-7.2555546e+95
-7.2619354e+95
-7.2840236e+95
-7.2863825e+95
-7.2885067e+95
-7.2910743e+95
-7.2500132e+95
-7.2441838e+95
-7.2927437e+95
-7.2946232e+95
-7.2969326e+95
-7.2999163e+95
-7.2291976e+95
-7.2250199e+95
-7.2393557e+95
-7.2336992e+95
-7.3143555e+95
-7.2858436e+95
-7.0350837e+95
-7.060143e+95
-7.0814531e+95
-7.103178e+95
-7.3665895e+95
-7.3400452e+95
-7.3774337e+95
-7.3559616e+95
-7.3982742e+95
-7.393493e+95
-7.1701451e+95
-7.3171984e+95
-7.312411e+95
-7.4061527e+95
-7.4022233e+95
-7.1791167e+95
-7.3211644e+95
-7.32517e+95
-7.33067e+95
-7.4457384e+95
-7.4437682e+95
-7.4571481e+95
-7.4592615e+95
-7.4967118e+95
-7.4989131e+95
-7.4501084e+95
-7.44756e+95
-7.4612111e+95
-7.4636191e+95
-7.5009418e+95
-7.5031193e+95
-7.4242891e+95
-7.4751121e+95
-7.5016019e+95
-7.5029277e+95
-7.5146247e+95
-7.5131546e+95
-7.51495e+95
-7.516319e+95
-7.5155942e+95
-7.5164198e+95
-7.5172506e+95
-7.5183435e+95
-7.5057003e+95
-7.5044201e+95
-7.5150655e+95
-7.5062921e+95
-7.507612e+95
-7.5012451e+95
-7.5059402e+95
-7.5138738e+95
-7.5047871e+95
-7.5025873e+95
-7.5086999e+95
-7.5096956e+95
-7.5037769e+95
-7.5047519e+95
-7.4783072e+95
-7.4883705e+95
-7.4873612e+95
-7.455716e+95
-7.4568184e+95
-7.4319549e+95
-7.4330427e+95
-7.4795915e+95
-7.5024928e+95
-7.5116474e+95
-7.5130153e+95
-7.5038324e+95
-7.4531849e+95
-7.4848699e+95
-7.4861923e+95
-7.4544801e+95
-7.4818064e+95
-7.4809245e+95
-7.4343755e+95
-7.435251e+95
-7.5105615e+95
-7.5088243e+95
-7.5119522e+95
-7.5103308e+95
-7.5113355e+95
-7.5120767e+95
-7.5139216e+95
-7.5129044e+95
-7.5094493e+95
-7.5105799e+95
-7.500277e+95
-7.5013574e+95
-7.4836552e+95
-7.482714e+95
-7.4509383e+95
-7.4520099e+95
-7.4979143e+95
-7.5071691e+95
-7.4993035e+95
-7.5085609e+95
-7.4484437e+95
-7.4802225e+95
-7.4497734e+95
-7.4816022e+95
-7.4369133e+95
-7.4344887e+95
-7.4478712e+95
-7.450236e+95
-7.4898781e+95
-7.4873406e+95
-7.4419062e+95
-7.4391187e+95
-7.4524873e+95
-7.4551252e+95
-7.4945384e+95
-7.4921787e+95
-7.5011752e+95
-7.4993884e+95
-7.5010918e+95
-7.5027481e+95
-7.5038351e+95
-7.5022663e+95
-7.5049421e+95
-7.5031173e+95
-7.5068386e+95
-7.5083715e+95
-7.5094722e+95
-7.5076726e+95
-7.5058265e+95
-7.5042729e+95
-7.5060111e+95
-7.507434e+95
-7.4887274e+95
-7.4978118e+95
-7.4993439e+95
-7.4901468e+95
-7.4912241e+95
-7.5003628e+95
-7.5015562e+95
-7.4923215e+95
-7.439634e+95
-7.4712053e+95
-7.4725799e+95
-7.4409438e+95
-7.4420937e+95
-7.4738137e+95
-7.4745919e+95
-7.4428829e+95
-7.5026443e+95
-7.5040168e+95
-7.4947213e+95
-7.4934723e+95
-7.4439157e+95
-7.4757235e+95
-7.4770666e+95
-7.4452656e+95
-7.4956243e+95
-7.5048551e+95
-7.5060458e+95
-7.4967356e+95
-7.4463677e+95
-7.4781393e+95
-7.4789304e+95
-7.4471998e+95
-7.2874129e+95
-7.4350847e+95
-7.4302563e+95
-7.2514608e+95
-7.2599998e+95
-7.2951807e+95
-7.4391828e+95
-7.4439975e+95
-7.3801642e+95
-7.3749369e+95
-7.2946134e+95
-7.300301e+95
-7.3890072e+95
-7.3844208e+95
-7.304525e+95
-7.3087156e+95
-7.3906129e+95
-7.3492185e+95
-7.3615011e+95
-7.4030517e+95
-7.2427103e+95
-7.2327435e+95
-7.2703227e+95
-7.4095756e+95
-7.4158278e+95
-7.2794362e+95
-7.426147e+95
-7.4210231e+95
-7.3676812e+95
-7.3274114e+95
-7.3385706e+95
-7.3791099e+95
-7.4358756e+95
-7.4295102e+95
-7.4492139e+95
-7.4556116e+95
-7.447537e+95
-7.4413265e+95
-7.4673141e+95
-7.4609485e+95
-7.4530911e+95
-7.4594592e+95
-7.4338303e+95
-7.43987e+95
-7.46464e+95
-7.4709019e+95
-7.4450482e+95
-7.4509479e+95
-7.4659318e+95
-7.4723259e+95
-7.4923531e+95
-7.4857687e+95
-7.4766191e+95
-7.4836803e+95
-7.4566653e+95
-7.4633275e+95
-7.4891209e+95
-7.495763e+95
-7.4688971e+95
-7.4753245e+95
-7.4601623e+95
-7.4530108e+95
-7.4801368e+95
-7.4729422e+95
-7.4361637e+95
-7.4422213e+95
-7.4474188e+95
-7.4525672e+95
-7.4586806e+95
-7.4620551e+95
-7.4620278e+95
-7.4655075e+95
-7.4649243e+95
-7.4675987e+95
-7.4680957e+95
-7.4709839e+95
-7.4524778e+95
-7.4274189e+95
-7.4559768e+95
-7.4308219e+95
-7.4612595e+95
-7.4585889e+95
-7.4333149e+95
-7.4357222e+95
-7.4778003e+95
-7.475395e+95
-7.4784589e+95
-7.4811529e+95
-7.4637022e+95
-7.4665207e+95
-7.4381247e+95
-7.4407705e+95
-7.4730253e+95
-7.4701795e+95
-7.4733715e+95
-7.4763169e+95
-7.4686509e+95
-7.4711608e+95
-7.4427788e+95
-7.445133e+95
-7.4570367e+95
-7.4619186e+95
-7.4662128e+95
-7.4710665e+95
-7.494896e+95
-7.4974662e+95
-7.5013872e+95
-7.498509e+95
-7.4837565e+95
-7.4578393e+95
-7.4607257e+95
-7.4865901e+95
-7.4925902e+95
-7.4899343e+95
-7.4935016e+95
-7.4963659e+95
-7.4888319e+95
-7.4629967e+95
-7.4915599e+95
-7.4655445e+95
-7.4830416e+95
-7.4802515e+95
-7.4835127e+95
-7.4864958e+95
-7.4876879e+95
-7.4854079e+95
-7.4886976e+95
-7.4913198e+95
-7.4737508e+95
-7.4767523e+95
-7.4509938e+95
-7.4479256e+95
-7.4531737e+95
-7.4554633e+95
-7.4790096e+95
-7.4814777e+95
-7.4178292e+95
-7.4153034e+95
-7.4310708e+95
-7.4285483e+95
-7.467786e+95
-7.4704883e+95
-7.422975e+95
-7.4201468e+95
-7.4360453e+95
-7.4334018e+95
-7.4729022e+95
-7.4753486e+95
-7.427018e+95
-7.424825e+95
-7.4404134e+95
-7.438051e+95
-7.477629e+95
-7.4800618e+95
-7.432201e+95
-7.429168e+95
-7.4426697e+95
-7.4823643e+95
-7.4455335e+95
-7.4849148e+95
-7.4814419e+95
-7.4796036e+95
-7.4813579e+95
-7.4830963e+95
-7.4843393e+95
-7.4827395e+95
-7.4836979e+95
-7.4855792e+95
-7.4867302e+95
-7.4849164e+95
-7.4882419e+95
-7.4865594e+95
-7.4876338e+95
-7.4885041e+95
-7.490394e+95
-7.4892473e+95
-7.4693745e+95
-7.4780705e+95
-7.4798023e+95
-7.4710259e+95
-7.4723313e+95
-7.481004e+95
-7.4823494e+95
-7.4735921e+95
-7.4221889e+95
-7.4525187e+95
-7.4541865e+95
-7.4236912e+95
-7.4565691e+95
-7.4556253e+95
-7.4249428e+95
-7.4258378e+95
-7.4747992e+95
-7.4835035e+95
-7.4849665e+95
-7.4761466e+95
-7.4858728e+95
-7.4871008e+95
-7.4782134e+95
-7.4771148e+95
-7.4269953e+95
-7.4578018e+95
-7.4590669e+95
-7.4281454e+95
-7.4291218e+95
-7.4601123e+95
-7.460975e+95
-7.4299476e+95
-7.4971573e+95
-7.4981211e+95
-7.4999766e+95
-7.4987469e+95
-7.4960743e+95
-7.4944671e+95
-7.4962614e+95
-7.4977339e+95
-7.4915671e+95
-7.4897457e+95
-7.4913847e+95
-7.4930726e+95
-7.4940975e+95
-7.4924834e+95
-7.4933294e+95
-7.495203e+95
-7.4794587e+95
-7.4882934e+95
-7.4897636e+95
-7.4808255e+95
-7.4818456e+95
-7.4907086e+95
-7.4918901e+95
-7.482909e+95
-7.4310521e+95
-7.4622323e+95
-7.4635703e+95
-7.4322543e+95
-7.4654737e+95
-7.4647154e+95
-7.4333212e+95
-7.4341268e+95
-7.4943876e+95
-7.4929612e+95
-7.4840211e+95
-7.4853345e+95
-7.4352077e+95
-7.4665747e+95
-7.4679132e+95
-7.4364492e+95
-7.4863075e+95
-7.4953028e+95
-7.4966035e+95
-7.4874831e+95
-7.4698798e+95
-7.4690123e+95
-7.4374821e+95
-7.438368e+95
-7.3763016e+95
-7.3750223e+95
-7.3786123e+95
-7.3774402e+95
-7.3702835e+95
-7.3715622e+95
-7.3739302e+95