/*--------------------------------*- C++ -*----------------------------------*\
  =========                 |
  \\      /  F ield         | OpenFOAM: The Open Source CFD Toolbox
   \\    /   O peration     | Website:  https://openfoam.org
    \\  /    A nd           | Version:  7
     \\/     M anipulation  |
\*---------------------------------------------------------------------------*/
FoamFile
{
    version     2.0;
    format      ascii;
    class       volScalarField;
    location    "1000";
    object      pMean;
}
// * * * * * * * * * * * * * * * * * * * * * * * * * * * * * * * * * * * * * //

dimensions      [0 2 -2 0 0 0 0];

internalField   nonuniform List<scalar> 
34222
(
-2.0391061e+92
-1.9870653e+92
-2.0747439e+92
-2.0296232e+92
-2.018226e+92
-2.0536456e+92
-2.0727104e+92
-1.9206083e+92
-2.0096289e+92
-1.9590885e+92
-1.9703869e+92
-1.9908306e+92
-1.9800666e+92
-2.1084886e+92
-2.1075963e+92
-2.0520876e+92
-2.0626143e+92
-2.0959911e+92
-2.0302301e+92
-2.0177009e+92
-2.0527686e+92
-2.0717697e+92
-2.1129131e+92
-1.9343827e+92
-1.8118804e+92
-1.9222091e+92
-1.8955706e+92
-1.8901349e+92
-1.9128176e+92
-2.0305863e+92
-2.0187504e+92
-1.992686e+92
-1.9809858e+92
-2.0063381e+92
-1.9506922e+92
-1.9617596e+92
-1.9926097e+92
-1.9825694e+92
-2.1252837e+92
-2.1385786e+92
-2.0876772e+92
-2.0783945e+92
-2.129494e+92
-2.1047631e+92
-2.0503016e+92
-2.0604351e+92
-2.0944724e+92
-2.0322865e+92
-2.0207357e+92
-2.0570693e+92
-2.0755471e+92
-2.1121753e+92
-2.0900933e+92
-2.0966713e+92
-2.1373761e+92
-2.0756974e+92
-2.0822539e+92
-1.9472172e+92
-1.820774e+92
-1.9388474e+92
-1.908541e+92
-1.9008766e+92
-1.9289081e+92
-1.8025231e+92
-1.8352012e+92
-1.8307912e+92
-1.7980418e+92
-1.9221508e+92
-1.885065e+92
-1.879533e+92
-1.9126117e+92
-2.0517856e+92
-2.057881e+92
-2.0415877e+92
-2.0005265e+92
-2.0089338e+92
-2.0389904e+92
-2.0295483e+92
-2.0191238e+92
-1.9847128e+92
-1.9723535e+92
-2.007344e+92
-1.9496114e+92
-1.9617913e+92
-1.9940936e+92
-1.9836004e+92
-2.1062207e+92
-2.101572e+92
-2.1518531e+92
-2.1643698e+92
-2.1431537e+92
-2.0876251e+92
-2.0751622e+92
-2.1256346e+92
-2.1087514e+92
-2.0513591e+92
-2.0625759e+92
-2.0976357e+92
-2.0324667e+92
-2.0208797e+92
-2.0573269e+92
-2.0758032e+92
-2.0823658e+92
-2.0895539e+92
-2.0865566e+92
-2.1344775e+92
-2.0951017e+92
-2.0986317e+92
-2.099294e+92
-2.0988507e+92
-2.1021743e+92
-2.1031589e+92
-2.1065002e+92
-2.1094267e+92
-2.1109847e+92
-2.1058142e+92
-2.1082029e+92
-2.1119565e+92
-2.0905062e+92
-2.097379e+92
-2.1508566e+92
-1.9886915e+92
-1.9399554e+92
-1.9575191e+92
-1.9445095e+92
-1.8292721e+92
-1.9515602e+92
-1.9182521e+92
-1.9141986e+92
-1.944682e+92
-1.9944505e+92
-1.8077262e+92
-1.8102646e+92
-1.8451861e+92
-1.8401441e+92
-1.9396525e+92
-1.8978628e+92
-1.8900202e+92
-1.929125e+92
-1.7974132e+92
-1.837696e+92
-1.8331663e+92
-1.7925042e+92
-1.9220049e+92
-1.8845213e+92
-1.8787493e+92
-1.9121136e+92
-2.0841139e+92
-2.0984784e+92
-2.0874886e+92
-2.0924644e+92
-2.0956591e+92
-2.0659776e+92
-2.072907e+92
-2.0538973e+92
-2.0175395e+92
-2.0154623e+92
-2.0495649e+92
-2.0512676e+92
-1.9919926e+92
-2.0005336e+92
-2.0399705e+92
-2.0309718e+92
-2.0202117e+92
-1.9844685e+92
-1.9725533e+92
-2.0070705e+92
-1.9496726e+92
-1.9617938e+92
-1.994235e+92
-1.9837137e+92
-2.1053061e+92
-2.1020756e+92
-2.1583817e+92
-2.1695201e+92
-2.1463853e+92
-2.0894966e+92
-2.0775702e+92
-2.1306126e+92
-2.1090297e+92
-2.0515107e+92
-2.062712e+92
-2.097874e+92
-2.0722945e+92
-2.067384e+92
-2.0872265e+92
-2.0785846e+92
-2.0756626e+92
-2.0851037e+92
-2.0836747e+92
-2.0930443e+92
-2.0949414e+92
-2.0853044e+92
-2.0974262e+92
-2.0960835e+92
-2.0940753e+92
-2.0847958e+92
-2.0821033e+92
-2.0911456e+92
-2.1017977e+92
-2.1584077e+92
-2.1114389e+92
-2.1042438e+92
-2.0926667e+92
-2.0901374e+92
-2.1048356e+92
-2.1016324e+92
-2.1015609e+92
-2.1038359e+92
-2.1057181e+92
-2.1023403e+92
-2.10386e+92
-2.103594e+92
-2.1055395e+92
-2.105338e+92
-2.1089802e+92
-2.1076811e+92
-2.1064442e+92
-2.1081947e+92
-2.1119126e+92
-2.1101834e+92
-2.1152612e+92
-2.1119093e+92
-2.1147733e+92
-2.1136847e+92
-2.1176184e+92
-2.1172942e+92
-2.1146317e+92
-2.1156876e+92
-2.1182375e+92
-2.1201822e+92
-2.1194248e+92
-2.1271654e+92
-2.1251458e+92
-2.1249366e+92
-2.1222053e+92
-2.1057114e+92
-2.1092646e+92
-2.121599e+92
-2.0512077e+92
-2.0707566e+92
-2.0391305e+92
-2.0055024e+92
-2.0034857e+92
-2.0255465e+92
-2.0435178e+92
-2.0068621e+92
-1.9367345e+92
-1.9453397e+92
-1.9686534e+92
-1.9642821e+92
-1.9809384e+92
-1.9718212e+92
-1.9405245e+92
-1.8721691e+92
-1.9544235e+92
-2.0060327e+92
-1.9508942e+92
-1.9661414e+92
-1.9625295e+92
-1.9295008e+92
-1.8372728e+92
-1.9244794e+92
-1.9570151e+92
-2.0009475e+92
-1.9771702e+92
-1.9448353e+92
-1.9744241e+92
-1.9415618e+92
-1.8783883e+92
-1.8131793e+92
-1.8194454e+92
-1.8540795e+92
-1.8492379e+92
-1.9520381e+92
-1.9074147e+92
-1.9034201e+92
-1.9456125e+92
-2.0496894e+92
-2.0476277e+92
-2.0096011e+92
-2.0115408e+92
-1.8028048e+92
-1.8051737e+92
-1.8474629e+92
-1.8422769e+92
-1.9395761e+92
-1.8974899e+92
-1.889689e+92
-1.9296403e+92
-1.7969295e+92
-1.8372822e+92
-1.8328297e+92
-1.7918459e+92
-1.9219902e+92
-1.8844732e+92
-1.8786875e+92
-1.9120904e+92
-2.1004767e+92
-2.1029719e+92
-2.1067486e+92
-2.1064141e+92
-2.1050065e+92
-2.1063233e+92
-2.10903e+92
-2.1120604e+92
-2.1143676e+92
-2.1155594e+92
-2.0998022e+92
-2.1033326e+92
-2.1111237e+92
-2.0802219e+92
-2.1081937e+92
-2.0869815e+92
-2.0596887e+92
-2.0651704e+92
-2.0294228e+92
-2.0244359e+92
-2.0079873e+92
-2.0061809e+92
-2.0508422e+92
-2.0493275e+92
-1.9917707e+92
-2.0004393e+92
-2.0408366e+92
-2.0320313e+92
-2.0203205e+92
-1.9844824e+92
-1.97246e+92
-2.0072149e+92
-2.1075806e+92
-2.1031363e+92
-2.1607892e+92
-2.1734257e+92
-2.146602e+92
-2.0896023e+92
-2.0777314e+92
-2.1309547e+92
-2.0437522e+92
-2.0372833e+92
-2.080272e+92
-2.0653539e+92
-2.0617571e+92
-2.0767637e+92
-2.0854012e+92
-2.0952784e+92
-2.0940213e+92
-2.0836123e+92
-2.0906069e+92
-2.0967898e+92
-2.0994068e+92
-2.0987399e+92
-2.1014591e+92
-2.0956007e+92
-2.1013275e+92
-2.0917129e+92
-2.0971388e+92
-2.0875551e+92
-2.0885717e+92
-2.0989744e+92
-2.097442e+92
-2.0956256e+92
-2.0943915e+92
-2.1009348e+92
-2.0997422e+92
-2.1010923e+92
-2.0923673e+92
-2.0895207e+92
-2.0992463e+92
-2.0873478e+92
-2.0717494e+92
-2.0690905e+92
-2.0840429e+92
-2.1114096e+92
-2.0949727e+92
-2.0987039e+92
-2.1079681e+92
-2.1048414e+92
-2.1152395e+92
-2.1248081e+92
-2.1208894e+92
-2.107809e+92
-2.1044947e+92
-2.1214319e+92
-2.1174391e+92
-2.1000259e+92
-2.0980392e+92
-2.1098344e+92
-2.1131175e+92
-2.0943055e+92
-2.0955326e+92
-2.1061217e+92
-2.104362e+92
-2.0909941e+92
-2.0925891e+92
-2.1026766e+92
-2.1014964e+92
-2.1029199e+92
-2.1013281e+92
-2.108097e+92
-2.1064874e+92
-2.0982946e+92
-2.0993474e+92
-2.104587e+92
-2.1033678e+92
-2.1061788e+92
-2.1046717e+92
-2.1080929e+92
-2.1059879e+92
-2.1081934e+92
-2.1075574e+92
-2.1093987e+92
-2.1096167e+92
-2.1041816e+92
-2.1043055e+92
-2.1091627e+92
-2.1098281e+92
-2.1034581e+92
-2.1039263e+92
-2.1093083e+92
-2.1083487e+92
-2.1122719e+92
-2.1118846e+92
-2.1139179e+92
-2.113871e+92
-2.1107376e+92
-2.1093098e+92
-2.1106503e+92
-2.1126532e+92
-2.1168602e+92
-2.1165845e+92
-2.1182388e+92
-2.1184179e+92
-2.1151197e+92
-2.1135388e+92
-2.1148213e+92
-2.116981e+92
-2.1198545e+92
-2.1198888e+92
-2.1224449e+92
-2.1221312e+92
-2.1172561e+92
-2.1191094e+92
-2.1179702e+92
-2.1194968e+92
-2.1214953e+92
-2.1195483e+92
-2.1230495e+92
-2.1195276e+92
-2.1220377e+92
-2.1228116e+92
-2.1252154e+92
-2.1250559e+92
-2.1288602e+92
-2.1308999e+92
-2.1334793e+92
-2.1307548e+92
-2.1288161e+92
-2.1313826e+92
-2.1279748e+92
-2.131515e+92
-2.1263693e+92
-2.1249565e+92
-2.1302162e+92
-2.1274829e+92
-2.1348406e+92
-2.1332894e+92
-2.1358923e+92
-2.1353142e+92
-2.0536228e+92
-2.0568186e+92
-2.0562653e+92
-2.0683941e+92
-2.0679958e+92
-2.0827334e+92
-2.0899661e+92
-2.0824419e+92
-2.0898241e+92
-2.0727977e+92
-2.0557388e+92
-2.0755098e+92
-2.0045218e+92
-2.0136366e+92
-2.0038604e+92
-2.0130084e+92
-2.0078509e+92
-2.0278584e+92
-2.0093252e+92
-2.0298616e+92
-2.0278197e+92
-2.0396176e+92
-2.0273158e+92
-2.0391646e+92
-2.0573328e+92
-2.0772676e+92
-2.0584139e+92
-2.0781519e+92
-2.0330316e+92
-2.0128323e+92
-2.0112785e+92
-2.0316626e+92
-1.9336056e+92
-1.9318503e+92
-1.9486681e+92
-1.9471055e+92
-1.8976431e+92
-1.9323694e+92
-1.9433926e+92
-1.9427525e+92
-1.950302e+92
-1.9495039e+92
-1.9680443e+92
-1.9846404e+92
-1.98303e+92
-1.9666212e+92
-1.9613647e+92
-1.968439e+92
-1.9803219e+92
-1.9621318e+92
-1.9628846e+92
-1.9698933e+92
-1.9691712e+92
-1.981734e+92
-1.9900966e+92
-1.9811559e+92
-1.9894257e+92
-1.9876829e+92
-1.986297e+92
-1.9708471e+92
-1.9697883e+92
-1.9358586e+92
-1.9351111e+92
-1.9513211e+92
-1.9502485e+92
-1.9016814e+92
-1.8703825e+92
-1.9556274e+92
-1.9521527e+92
-1.9860278e+92
-1.9884115e+92
-1.8851119e+92
-1.9606185e+92
-2.0608689e+92
-2.0629088e+92
-2.0238938e+92
-2.0221329e+92
-2.0115815e+92
-1.9836549e+92
-1.9505059e+92
-1.9463755e+92
-1.9802053e+92
-1.8832892e+92
-2.0174507e+92
-1.844047e+92
-1.9652864e+92
-1.9351287e+92
-1.9709836e+92
-1.9666154e+92
-1.9317178e+92
-1.9622467e+92
-1.9198742e+92
-1.8627192e+92
-1.8228021e+92
-1.8256318e+92
-1.8585281e+92
-1.9139993e+92
-1.9571604e+92
-2.0187669e+92
-2.0154082e+92
-2.0573285e+92
-2.0534137e+92
-1.9936488e+92
-1.9756652e+92
-1.9768458e+92
-1.9924563e+92
-1.9559377e+92
-1.9570769e+92
-1.9413501e+92
-1.9406791e+92
-1.9061674e+92
-1.9910049e+92
-1.9726744e+92
-1.9742212e+92
-1.9893713e+92
-1.9528203e+92
-1.954419e+92
-1.9390869e+92
-1.9375852e+92
-1.9038356e+92
-1.8747061e+92
-1.8732058e+92
-1.8072123e+92
-1.8139035e+92
-1.8557033e+92
-1.8509954e+92
-1.9521763e+92
-1.9069727e+92
-1.9026931e+92
-1.9454649e+92
-2.0648985e+92
-2.0658151e+92
-2.0867415e+92
-2.0859085e+92
-2.0839243e+92
-2.0609998e+92
-2.0632145e+92
-2.0807775e+92
-2.0369542e+92
-2.0156824e+92
-2.0143011e+92
-2.0349096e+92
-2.0394162e+92
-2.0171057e+92
-2.0184163e+92
-2.0382837e+92
-1.8016656e+92
-1.8045228e+92
-1.8473338e+92
-1.8419429e+92
-1.9395531e+92
-1.8974575e+92
-1.8896623e+92
-1.9295078e+92
-1.7968909e+92
-1.837245e+92
-1.832792e+92
-1.791791e+92
-2.1091028e+92
-2.1076539e+92
-2.110858e+92
-2.1102962e+92
-2.1099338e+92
-2.1103777e+92
-2.1091646e+92
-2.109845e+92
-2.1133467e+92
-2.1119522e+92
-2.1150211e+92
-2.1145901e+92
-2.1178351e+92
-2.1161896e+92
-2.1197363e+92
-2.1189961e+92
-2.1224668e+92
-2.1209595e+92
-2.1176385e+92
-2.1237557e+92
-2.1234913e+92
-2.1203587e+92
-2.1221869e+92
-2.1231214e+92
-2.1149474e+92
-2.1300222e+92
-2.1293855e+92
-2.1174466e+92
-2.1276289e+92
-2.1251853e+92
-2.1207118e+92
-2.1192977e+92
-2.0614358e+92
-2.0673379e+92
-2.0212406e+92
-2.0159671e+92
-2.0087174e+92
-2.0060833e+92
-2.0515636e+92
-2.0520903e+92
-1.9917855e+92
-2.0004321e+92
-2.0409302e+92
-2.0321115e+92
-2.1077433e+92
-2.1032229e+92
-2.160977e+92
-2.1737325e+92
-2.0507967e+92
-2.0575738e+92
-2.0700717e+92
-2.0939433e+92
-2.0927951e+92
-2.0423789e+92
-2.0394427e+92
-2.0670012e+92
-2.0885966e+92
-2.0907247e+92
-2.1021116e+92
-2.1002803e+92
-2.1038122e+92
-2.0967969e+92
-2.0960486e+92
-2.0987059e+92
-2.0983536e+92
-2.1024217e+92
-2.1023095e+92
-2.1041497e+92
-2.1044373e+92
-2.1023898e+92
-2.1021135e+92
-2.1010271e+92
-2.1005438e+92
-2.100793e+92
-2.1016022e+92
-2.1013311e+92
-2.1006027e+92
-2.1003137e+92
-2.0990939e+92
-2.1023146e+92
-2.0938813e+92
-2.0936993e+92
-2.0990539e+92
-2.1014165e+92
-2.103831e+92
-2.0984839e+92
-2.0989025e+92
-2.0934948e+92
-2.0931624e+92
-2.0986236e+92
-2.0980088e+92
-2.1005867e+92
-2.1000699e+92
-2.1027543e+92
-2.1055003e+92
-2.1033194e+92
-2.1057082e+92
-2.1057354e+92
-2.104143e+92
-2.1044284e+92
-2.1036735e+92
-2.1016819e+92
-2.1022704e+92
-2.1008534e+92
-2.1000368e+92
-2.1022142e+92
-2.1026443e+92
-2.1070345e+92
-2.1064758e+92
-2.1094528e+92
-2.1094027e+92
-2.1055057e+92
-2.1085363e+92
-2.1046722e+92
-2.1070012e+92
-2.0940084e+92
-2.0786349e+92
-2.0755443e+92
-2.0911981e+92
-2.0768815e+92
-2.1011166e+92
-2.0997653e+92
-2.0481818e+92
-2.046136e+92
-2.0738662e+92
-2.0975232e+92
-2.0956621e+92
-2.1135904e+92
-2.1048289e+92
-2.1026832e+92
-2.1121303e+92
-2.0808255e+92
-2.084733e+92
-2.1003779e+92
-2.0972047e+92
-2.1186562e+92
-2.109203e+92
-2.1069349e+92
-2.1166248e+92
-2.1186007e+92
-2.116318e+92
-2.132381e+92
-2.1300915e+92
-2.1119786e+92
-2.1271927e+92
-2.1252136e+92
-2.1132013e+92
-2.1077532e+92
-2.1086644e+92
-2.1204052e+92
-2.1187954e+92
-2.117167e+92
-2.1066539e+92
-2.1051226e+92
-2.1157865e+92
-2.1178155e+92
-2.1162487e+92
-2.1233676e+92
-2.1219096e+92
-2.1131096e+92
-2.1199569e+92
-2.1144731e+92
-2.1184958e+92
-2.1135878e+92
-2.1027742e+92
-2.1018114e+92
-2.1118958e+92
-2.1098014e+92
-2.0997982e+92
-2.0983157e+92
-2.1086809e+92
-2.105392e+92
-2.1121103e+92
-2.1063631e+92
-2.1105627e+92
-2.1108456e+92
-2.109085e+92
-2.1164297e+92
-2.1147575e+92
-2.1130988e+92
-2.1114455e+92
-2.109608e+92
-2.107829e+92
-2.1094438e+92
-2.1088534e+92
-2.111773e+92
-2.1109234e+92
-2.1079665e+92
-2.1071496e+92
-2.1099361e+92
-2.1095138e+92
-2.1144142e+92
-2.1139293e+92
-2.1170668e+92
-2.11744e+92
-2.1129613e+92
-2.1121328e+92
-2.1166263e+92
-2.1153687e+92
-2.1043992e+92
-2.1036436e+92
-2.105917e+92
-2.1064054e+92
-2.1054935e+92
-2.1060872e+92
-2.1081722e+92
-2.1075459e+92
-2.111168e+92
-2.1105976e+92
-2.1144647e+92
-2.1144377e+92
-2.1092744e+92
-2.112693e+92
-2.1083326e+92
-2.1108895e+92
-2.1057346e+92
-2.1064964e+92
-2.1113278e+92
-2.1113999e+92
-2.1045954e+92
-2.105363e+92
-2.1105443e+92
-2.1092345e+92
-2.1134807e+92
-2.1085896e+92
-2.1079934e+92
-2.1137774e+92
-2.106495e+92
-2.1072059e+92
-2.1129848e+92
-2.1117618e+92
-2.1100076e+92
-2.1099081e+92
-2.1090878e+92
-2.109629e+92
-2.1178079e+92
-2.1127997e+92
-2.1119839e+92
-2.11822e+92
-2.1178596e+92
-2.1119852e+92
-2.1106011e+92
-2.1164877e+92
-2.1159251e+92
-2.1102334e+92
-2.1098125e+92
-2.11604e+92
-2.115256e+92
-2.1097901e+92
-2.1083694e+92
-2.1136899e+92
-2.1155542e+92
-2.1165794e+92
-2.1222674e+92
-2.1224948e+92
-2.1143026e+92
-2.1155484e+92
-2.1219341e+92
-2.120621e+92
-2.113788e+92
-2.1141584e+92
-2.1201363e+92
-2.1203312e+92
-2.1194789e+92
-2.1137013e+92
-2.1125706e+92
-2.117996e+92
-2.1192482e+92
-2.1201435e+92
-2.1211749e+92
-2.125699e+92
-2.1262455e+92
-2.1181911e+92
-2.1195317e+92
-2.1260414e+92
-2.1247769e+92
-2.1229066e+92
-2.1226093e+92
-2.1249636e+92
-2.1176682e+92
-2.1183492e+92
-2.1245668e+92
-2.1246883e+92
-2.116658e+92
-2.1176262e+92
-2.1240733e+92
-2.1226064e+92
-2.124091e+92
-2.123974e+92
-2.1263937e+92
-2.1263145e+92
-2.1269193e+92
-2.1258898e+92
-2.1273709e+92
-2.1292866e+92
-2.1269931e+92
-2.1275942e+92
-2.1298539e+92
-2.129516e+92
-2.1328723e+92
-2.1363333e+92
-2.1312701e+92
-2.133512e+92
-2.134221e+92
-2.137375e+92
-2.1346924e+92
-2.136911e+92
-2.1350124e+92
-2.1332146e+92
-2.1331662e+92
-2.1354792e+92
-2.1325999e+92
-2.1316209e+92
-2.134822e+92
-2.133195e+92
-2.1306387e+92
-2.130781e+92
-2.1324567e+92
-2.1327857e+92
-2.1321981e+92
-2.1298806e+92
-2.1283653e+92
-2.1302667e+92
-2.1412524e+92
-2.1391861e+92
-2.138668e+92
-2.1412814e+92
-2.1374628e+92
-2.1367037e+92
-2.1402864e+92
-2.1381721e+92
-2.0589573e+92
-2.0708732e+92
-2.0580682e+92
-2.0696405e+92
-2.056722e+92
-2.0638343e+92
-2.0636434e+92
-2.0565262e+92
-2.0559775e+92
-2.0631843e+92
-2.0555863e+92
-2.0626513e+92
-2.07904e+92
-2.0721434e+92
-2.0791254e+92
-2.0719528e+92
-2.0710288e+92
-2.0780192e+92
-2.0714678e+92
-2.0786139e+92
-2.0841101e+92
-2.088078e+92
-2.0935711e+92
-2.0935882e+92
-2.0879212e+92
-2.0910704e+92
-2.0996017e+92
-2.1010665e+92
-2.1012964e+92
-2.0996183e+92
-2.0874764e+92
-2.0870024e+92
-2.0931316e+92
-2.0923973e+92
-2.0989968e+92
-2.0984135e+92
-2.100715e+92
-2.0999321e+92
-2.0852995e+92
-2.0927077e+92
-2.0606851e+92
-2.0723293e+92
-2.0601278e+92
-2.0719544e+92
-2.0869518e+92
-2.0941326e+92
-2.0865654e+92
-2.0938466e+92
-2.0056991e+92
-2.0013096e+92
-2.0010262e+92
-2.00569e+92
-2.0053916e+92
-2.0122142e+92
-2.014804e+92
-2.0169443e+92
-2.0124736e+92
-2.0172263e+92
-2.0045529e+92
-2.0005596e+92
-2.0049722e+92
-2.0002481e+92
-2.01174e+92
-2.0165093e+92
-2.0160955e+92
-2.0113778e+92
-2.0064065e+92
-2.0156916e+92
-2.0299646e+92
-2.0291272e+92
-2.0418995e+92
-2.0408404e+92
-2.0079282e+92
-2.0073451e+92
-2.0171154e+92
-2.0165691e+92
-2.0315487e+92
-2.0434002e+92
-2.0310499e+92
-2.0429276e+92
-2.025445e+92
-2.0320117e+92
-2.031751e+92
-2.0251701e+92
-2.0470466e+92
-2.0402228e+92
-2.0471716e+92
-2.0400584e+92
-2.0309381e+92
-2.0247247e+92
-2.0313442e+92
-2.0243872e+92
-2.0395822e+92
-2.0465598e+92
-2.0461133e+92
-2.0392663e+92
-2.0624746e+92
-2.0744882e+92
-2.0618156e+92
-2.0734319e+92
-2.0891225e+92
-2.0881726e+92
-2.0966462e+92
-2.0951773e+92
-2.0640771e+92
-2.075875e+92
-2.0634203e+92
-2.0753532e+92
-2.0905076e+92
-2.0978937e+92
-2.0901365e+92
-2.0976756e+92
-2.0348523e+92
-2.0466015e+92
-2.0342603e+92
-2.0460252e+92
-2.0112567e+92
-2.020435e+92
-2.010514e+92
-2.0197372e+92
-2.0095303e+92
-2.0188362e+92
-2.0089062e+92
-2.0180887e+92
-2.0332438e+92
-2.0451434e+92
-2.0326336e+92
-2.0443589e+92
-1.9355347e+92
-1.9347813e+92
-1.9120687e+92
-1.9294064e+92
-1.9286301e+92
-1.9339038e+92
-1.9332291e+92
-1.9105492e+92
-1.9271252e+92
-1.9277313e+92
-1.9464989e+92
-1.945889e+92
-1.9533413e+92
-1.9526801e+92
-1.9450794e+92
-1.9444275e+92
-1.9519859e+92
-1.9513067e+92
-1.8977786e+92
-1.9364497e+92
-1.9361839e+92
-1.9375554e+92
-1.9372173e+92
-1.92564e+92
-1.9436516e+92
-1.9456055e+92
-1.9452722e+92
-1.9433712e+92
-1.9429182e+92
-1.9448742e+92
-1.9444399e+92
-1.9425335e+92
-1.951527e+92
-1.9541033e+92
-1.9537459e+92
-1.9512428e+92
-1.9507865e+92
-1.9533461e+92
-1.9530294e+92
-1.9504404e+92
-1.9660718e+92
-1.9731026e+92
-1.965404e+92
-1.9724627e+92
-1.9851743e+92
-1.9846287e+92
-1.993458e+92
-1.9928879e+92
-1.983714e+92
-1.9829521e+92
-1.9920289e+92
-1.9911953e+92
-1.9645601e+92
-1.9717061e+92
-1.9639492e+92
-1.9709584e+92
-1.9593019e+92
-1.961957e+92
-1.9623695e+92
-1.9589882e+92
-1.96838e+92
-1.9715333e+92
-1.9680494e+92
-1.9712269e+92
-1.9816041e+92
-1.9781416e+92
-1.9819175e+92
-1.9778573e+92
-1.9597264e+92
-1.9599985e+92
-1.9627743e+92
-1.9630595e+92
-1.960439e+92
-1.960769e+92
-1.9638153e+92
-1.9634604e+92
-1.9695209e+92
-1.9726459e+92
-1.9698183e+92
-1.9729927e+92
-1.9690613e+92
-1.9722323e+92
-1.9719237e+92
-1.9688109e+92
-1.9796259e+92
-1.9793092e+92
-1.9834316e+92
-1.9830985e+92
-1.9896077e+92
-1.9936345e+92
-1.9898847e+92
-1.9939342e+92
-1.9823482e+92
-1.9788662e+92
-1.9826932e+92
-1.9786023e+92
-1.9891288e+92
-1.9931884e+92
-1.992819e+92
-1.9888342e+92
-1.9885315e+92
-1.9878606e+92
-1.9967106e+92
-1.995962e+92
-1.9869268e+92
-1.9950582e+92
-1.9862973e+92
-1.9943475e+92
-1.9692469e+92
-1.9763945e+92
-1.9684596e+92
-1.9755686e+92
-1.9676345e+92
-1.9747856e+92
-1.9740926e+92
-1.9671398e+92
-1.9384868e+92
-1.9375779e+92
-1.9144949e+92
-1.9323e+92
-1.9314886e+92
-1.937006e+92
-1.9364544e+92
-1.9135931e+92
-1.9308088e+92
-1.9304238e+92
-1.9494552e+92
-1.9564228e+92
-1.9487783e+92
-1.9556107e+92
-1.9479584e+92
-1.9548533e+92
-1.9475346e+92
-1.9542968e+92
-1.8993381e+92
-1.89848e+92
-1.8830535e+92
-1.87015e+92
-1.8691636e+92
-1.8822709e+92
-1.9578803e+92
-1.9510576e+92
-1.9514055e+92
-1.9675011e+92
-1.914539e+92
-1.9667782e+92
-1.9494045e+92
-1.9654215e+92
-1.9639258e+92
-1.9482881e+92
-1.9133569e+92
-2.0029751e+92
-1.9841787e+92
-1.9854922e+92
-2.0014566e+92
-1.9867704e+92
-2.0042095e+92
-1.9912534e+92
-2.0050734e+92
-1.9875921e+92
-1.882308e+92
-1.8811747e+92
-1.8897174e+92
-1.9942258e+92
-1.9610537e+92
-2.0985646e+92
-2.0751606e+92
-2.0773345e+92
-2.09578e+92
-2.0787588e+92
-2.1000924e+92
-2.0794832e+92
-2.0664923e+92
-2.1004848e+92
-2.0297883e+92
-2.0513578e+92
-2.0275545e+92
-2.0522723e+92
-2.0308709e+92
-2.0501179e+92
-2.0284512e+92
-2.0269119e+92
-2.0480195e+92
-2.0706831e+92
-2.0320164e+92
-1.9997365e+92
-1.9816138e+92
-1.9826863e+92
-1.9986467e+92
-1.9615519e+92
-1.9625845e+92
-1.9470769e+92
-1.946003e+92
-1.9118824e+92
-1.9431369e+92
-1.9443183e+92
-1.9600407e+92
-1.9081348e+92
-1.9587206e+92
-1.9787487e+92
-1.9972685e+92
-1.9800366e+92
-1.9957377e+92
-1.879993e+92
-1.878224e+92
-2.0357709e+92
-2.0372928e+92
-2.0742597e+92
-2.0733915e+92
-1.8670577e+92
-1.8689862e+92
-1.8329774e+92
-1.8321951e+92
-1.9973077e+92
-1.9632379e+92
-1.9260239e+92
-1.9710632e+92
-1.9661219e+92
-1.9218087e+92
-1.9617431e+92
-1.9193591e+92
-1.8656924e+92
-1.81711e+92
-1.8198159e+92
-1.8612e+92
-1.9137287e+92
-1.957315e+92
-2.0461539e+92
-2.0249632e+92
-2.0237123e+92
-2.0451988e+92
-2.0208005e+92
-2.022259e+92
-2.0436497e+92
-2.0415975e+92
-2.0720913e+92
-2.0728555e+92
-2.0940055e+92
-2.0934484e+92
-2.0917668e+92
-2.0704089e+92
-2.0683757e+92
-2.0889751e+92
-1.9945196e+92
-2.0028065e+92
-1.9938174e+92
-2.0020263e+92
-1.9736515e+92
-1.9730695e+92
-1.9808144e+92
-1.9801087e+92
-1.9751925e+92
-1.9823671e+92
-1.9744169e+92
-1.9815762e+92
-1.9929227e+92
-2.0011711e+92
-1.9923109e+92
-2.0004465e+92
-1.95384e+92
-1.9607928e+92
-1.9533348e+92
-1.9601533e+92
-1.9553073e+92
-1.9623443e+92
-1.9546041e+92
-1.9615487e+92
-1.9439802e+92
-1.94323e+92
-1.919777e+92
-1.9377617e+92
-1.9370816e+92
-1.9427672e+92
-1.9422207e+92
-1.9190736e+92
-1.9361495e+92
-1.9365516e+92
-1.9044638e+92
-1.9042059e+92
-1.99147e+92
-1.9908802e+92
-1.9995554e+92
-1.9989541e+92
-1.9707632e+92
-1.9701316e+92
-1.9779182e+92
-1.9772272e+92
-1.9722549e+92
-1.9792997e+92
-1.9715295e+92
-1.9786137e+92
-1.9900474e+92
-1.989412e+92
-1.9982682e+92
-1.9975818e+92
-1.9510289e+92
-1.9579128e+92
-1.9504214e+92
-1.9572127e+92
-1.9525344e+92
-1.9593829e+92
-1.9518692e+92
-1.9586335e+92
-1.9415047e+92
-1.940718e+92
-1.9173337e+92
-1.9353869e+92
-1.93467e+92
-1.9400475e+92
-1.9393943e+92
-1.9156175e+92
-1.9338974e+92
-1.9333075e+92
-1.9027542e+92
-1.9010581e+92
-1.8879951e+92
-1.8746178e+92
-1.8733416e+92
-1.8871754e+92
-1.8710695e+92
-1.8723215e+92
-1.8859171e+92
-1.8842302e+92
-1.8591005e+92
-1.8062831e+92
-1.8128277e+92
-1.8554671e+92
-1.850578e+92
-1.9521705e+92
-1.9069311e+92
-1.9026516e+92
-1.9454676e+92
-2.0702069e+92
-2.0693919e+92
-2.082595e+92
-2.0813512e+92
-2.0717076e+92
-2.0838433e+92
-2.0711348e+92
-2.083462e+92
-2.098855e+92
-2.1065439e+92
-2.0986145e+92
-2.1065444e+92
-2.0975816e+92
-2.105513e+92
-2.096483e+92
-2.1038696e+92
-2.0953007e+92
-2.0947147e+92
-2.1026827e+92
-2.1021301e+92
-2.0664775e+92
-2.0654774e+92
-2.0785995e+92
-2.0772574e+92
-2.0683237e+92
-2.0802828e+92
-2.067627e+92
-2.0797199e+92
-2.0933536e+92
-2.0920534e+92
-2.1009917e+92
-2.0992201e+92
-2.0384079e+92
-2.050554e+92
-2.0379089e+92
-2.0499833e+92
-2.0141984e+92
-2.0235688e+92
-2.0136265e+92
-2.0230544e+92
-2.0128485e+92
-2.0222953e+92
-2.0122285e+92
-2.0214544e+92
-2.0369135e+92
-2.0360671e+92
-2.0490283e+92
-2.0478987e+92
-2.0416388e+92
-2.0538638e+92
-2.0410386e+92
-2.0533658e+92
-2.0157947e+92
-2.0253404e+92
-2.0151511e+92
-2.0244889e+92
-2.0269083e+92
-2.0174904e+92
-2.016715e+92
-2.026219e+92
-2.0400857e+92
-2.052471e+92
-2.0393568e+92
-2.0515201e+92
-1.8016017e+92
-1.804484e+92
-1.8473199e+92
-1.8419191e+92
-2.1122094e+92
-2.1121649e+92
-2.110339e+92
-2.1113465e+92
-2.1141972e+92
-2.1143866e+92
-2.1137432e+92
-2.1128284e+92
-2.116656e+92
-2.1166777e+92
-2.1158784e+92
-2.1147334e+92
-2.1183887e+92
-2.1186091e+92
-2.1181749e+92
-2.1172111e+92
-2.1208928e+92
-2.1209642e+92
-2.1200304e+92
-2.1188722e+92
-2.1229242e+92
-2.1230253e+92
-2.1224659e+92
-2.1215224e+92
-2.1254141e+92
-2.1254005e+92
-2.1246402e+92
-2.123483e+92
-2.1262708e+92
-2.1247624e+92
-2.1266545e+92
-2.1269823e+92
-2.1266376e+92
-2.1257497e+92
-2.1279916e+92
-2.1275882e+92
-2.1288838e+92
-2.1302658e+92
-2.1310225e+92
-2.1314487e+92
-2.1341703e+92
-2.1320605e+92
-2.1373416e+92
-2.1373516e+92
-2.1365515e+92
-2.1354528e+92
-2.1352898e+92
-2.1355541e+92
-2.1345029e+92
-2.1342192e+92
-2.1334967e+92
-2.132211e+92
-2.1394112e+92
-2.140048e+92
-2.1366892e+92
-2.1383629e+92
-2.0634357e+92
-2.0690811e+92
-2.0216144e+92
-2.0164777e+92
-2.0088064e+92
-2.0060735e+92
-2.0516361e+92
-2.0523004e+92
-2.0639628e+92
-2.0692003e+92
-2.0887539e+92
-2.0901973e+92
-2.0477338e+92
-2.0887574e+92
-2.0900027e+92
-2.0844562e+92
-2.086867e+92
-2.0466498e+92
-2.0866903e+92
-2.0846615e+92
-2.099e+92
-2.1041712e+92
-2.1041445e+92
-2.1122801e+92
-2.1116068e+92
-2.1076654e+92
-2.1068046e+92
-2.1012922e+92
-2.1027806e+92
-2.1103908e+92
-2.1096156e+92
-2.1058036e+92
-2.1048914e+92
-2.1075213e+92
-2.1073338e+92
-2.1073335e+92
-2.1071161e+92
-2.1042935e+92
-2.1044716e+92
-2.1064515e+92
-2.1061053e+92
-2.1037214e+92
-2.1030858e+92
-2.1054744e+92
-2.1050745e+92
-2.1069998e+92
-2.1073486e+92
-2.1028466e+92
-2.1080373e+92
-2.1077351e+92
-2.104603e+92
-2.1014959e+92
-2.1031779e+92
-2.101971e+92
-2.1045297e+92
-2.1072715e+92
-2.1068668e+92
-2.1040133e+92
-2.1037369e+92
-2.10333e+92
-2.0995757e+92
-2.1003051e+92
-2.0949076e+92
-2.0942599e+92
-2.0977151e+92
-2.0972846e+92
-2.1033679e+92
-2.1030898e+92
-2.1043795e+92
-2.1040344e+92
-2.1029041e+92
-2.0961422e+92
-2.101449e+92
-2.1011104e+92
-2.0955071e+92
-2.1025072e+92
-2.1030284e+92
-2.0972132e+92
-2.0965924e+92
-2.1083652e+92
-2.1063521e+92
-2.1080172e+92
-2.1061741e+92
-2.1057834e+92
-2.1051064e+92
-2.1071156e+92
-2.1075506e+92
-2.1053841e+92
-2.105031e+92
-2.1043094e+92
-2.1039075e+92
-2.101973e+92
-2.1026012e+92
-2.0969455e+92
-2.0963857e+92
-2.1049575e+92
-2.1063022e+92
-2.1047682e+92
-2.1059568e+92
-2.0980386e+92
-2.1033109e+92
-2.0975779e+92
-2.1032031e+92
-2.1078406e+92
-2.1075188e+92
-2.1158737e+92
-2.1151907e+92
-2.1106262e+92
-2.1114036e+92
-2.1053248e+92
-2.1067714e+92
-2.1142037e+92
-2.1134258e+92
-2.1088056e+92
-2.1097429e+92
-2.1121038e+92
-2.1100713e+92
-2.1100029e+92
-2.1118423e+92
-2.1113851e+92
-2.1096352e+92
-2.1109902e+92
-2.1089492e+92
-2.107721e+92
-2.1094624e+92
-2.1090807e+92
-2.1070721e+92
-2.1083038e+92
-2.108427e+92
-2.1104141e+92
-2.1100969e+92
-2.1087752e+92
-2.1100189e+92
-2.1097816e+92
-2.1086591e+92
-2.1081772e+92
-2.1092719e+92
-2.1090025e+92
-2.1079395e+92
-2.1019849e+92
-2.1071037e+92
-2.1066816e+92
-2.1011978e+92
-2.1012107e+92
-2.1065786e+92
-2.1057819e+92
-2.1001639e+92
-2.1084257e+92
-2.1080398e+92
-2.1069786e+92
-2.107323e+92
-2.0996886e+92
-2.1052703e+92
-2.1050704e+92
-2.0993193e+92
-2.1060095e+92
-2.1071868e+92
-2.10692e+92
-2.1057151e+92
-2.0990751e+92
-2.1045116e+92
-2.1036906e+92
-2.0980999e+92
-2.0834903e+92
-2.1070514e+92
-2.1080541e+92
-2.0549705e+92
-2.0513102e+92
-2.0800876e+92
-2.1052206e+92
-2.1033288e+92
-2.0956765e+92
-2.0971032e+92
-2.0966402e+92
-2.0956371e+92
-2.0918046e+92
-2.0939064e+92
-2.0937905e+92
-2.091931e+92
-2.106378e+92
-2.0907865e+92
-2.0882391e+92
-2.1037935e+92
-2.0578438e+92
-2.0605719e+92
-2.0895162e+92
-2.1137865e+92
-2.1129071e+92
-2.0858564e+92
-2.1100694e+92
-2.111763e+92
-2.1107932e+92
-2.0946695e+92
-2.0922569e+92
-2.1087529e+92
-2.118498e+92
-2.1188648e+92
-2.1304811e+92
-2.1294642e+92
-2.1164544e+92
-2.1175646e+92
-2.1276199e+92
-2.1283733e+92
-2.1280012e+92
-2.1269277e+92
-2.133517e+92
-2.1325793e+92
-2.1258277e+92
-2.1249598e+92
-2.1314717e+92
-2.1305304e+92
-2.112574e+92
-2.1110011e+92
-2.1223189e+92
-2.1233683e+92
-2.1237219e+92
-2.1224751e+92
-2.1291282e+92
-2.1281935e+92
-2.1205057e+92
-2.1195039e+92
-2.1263569e+92
-2.1251946e+92
-2.1140592e+92
-2.1147557e+92
-2.1249938e+92
-2.1262138e+92
-2.1268338e+92
-2.1254462e+92
-2.123895e+92
-2.1223036e+92
-2.1234051e+92
-2.1228753e+92
-2.1257239e+92
-2.1248855e+92
-2.1222179e+92
-2.1213599e+92
-2.1241114e+92
-2.1235595e+92
-2.1286318e+92
-2.1314469e+92
-2.1282045e+92
-2.1317062e+92
-2.1267632e+92
-2.1274747e+92
-2.1311309e+92
-2.1299792e+92
-2.1180666e+92
-2.1189416e+92
-2.1207637e+92
-2.1203954e+92
-2.1258419e+92
-2.1251891e+92
-2.1291703e+92
-2.129166e+92
-2.1199237e+92
-2.1205316e+92
-2.1225435e+92
-2.1216929e+92
-2.1240734e+92
-2.1232242e+92
-2.1277941e+92
-2.1261398e+92
-2.1203703e+92
-2.1188962e+92
-2.1168081e+92
-2.1151778e+92
-2.1115128e+92
-2.1107392e+92
-2.1132403e+92
-2.1136453e+92
-2.1184473e+92
-2.121647e+92
-2.1212676e+92
-2.1175738e+92
-2.1126223e+92
-2.1132747e+92
-2.1156642e+92
-2.1148341e+92
-2.1163566e+92
-2.1198966e+92
-2.1155382e+92
-2.1183428e+92
-2.1162943e+92
-2.1169509e+92
-2.1191612e+92
-2.1183991e+92
-2.1146171e+92
-2.1154636e+92
-2.1174379e+92
-2.1170375e+92
-2.1221588e+92
-2.1216912e+92
-2.1255619e+92
-2.1248748e+92
-2.1247625e+92
-2.1236968e+92
-2.1208337e+92
-2.1200234e+92
-2.1152659e+92
-2.1148909e+92
-2.1226017e+92
-2.1232079e+92
-2.1186768e+92
-2.1179572e+92
-2.1124616e+92
-2.1140985e+92
-2.1207237e+92
-2.1215316e+92
-2.1169925e+92
-2.1160793e+92
-2.1114124e+92
-2.1112971e+92
-2.1190015e+92
-2.1195942e+92
-2.1150445e+92
-2.1143039e+92
-2.1086724e+92
-2.1101272e+92
-2.1178212e+92
-2.113324e+92
-2.1170593e+92
-2.1124662e+92
-2.1171597e+92
-2.1172864e+92
-2.1191477e+92
-2.1188519e+92
-2.1184415e+92
-2.116836e+92
-2.1161499e+92
-2.1180714e+92
-2.1175631e+92
-2.1156553e+92
-2.1173221e+92
-2.1155881e+92
-2.1150882e+92
-2.1143893e+92
-2.1163939e+92
-2.1167977e+92
-2.1157064e+92
-2.1170275e+92
-2.1168019e+92
-2.1156209e+92
-2.1153311e+92
-2.1164019e+92
-2.1161801e+92
-2.1150753e+92
-2.1092205e+92
-2.1140342e+92
-2.1135827e+92
-2.1082946e+92
-2.1126761e+92
-2.1136252e+92
-2.1085757e+92
-2.1074348e+92
-2.1145711e+92
-2.1156541e+92
-2.115392e+92
-2.1143873e+92
-2.1146924e+92
-2.1143798e+92
-2.1133242e+92
-2.1136536e+92
-2.107504e+92
-2.1126361e+92
-2.1123038e+92
-2.1069214e+92
-2.1067935e+92
-2.1118868e+92
-2.111254e+92
-2.1060287e+92
-2.1113979e+92
-2.1107735e+92
-2.1127985e+92
-2.113144e+92
-2.1120276e+92
-2.1121386e+92
-2.1141118e+92
-2.1138042e+92
-2.1158097e+92
-2.1138512e+92
-2.1137282e+92
-2.115529e+92
-2.1151042e+92
-2.1134013e+92
-2.1127764e+92
-2.1147458e+92
-2.1127557e+92
-2.1138849e+92
-2.1136449e+92
-2.1126276e+92
-2.1121786e+92
-2.1130994e+92
-2.1128114e+92
-2.1118597e+92
-2.1058072e+92
-2.1110167e+92
-2.110561e+92
-2.104892e+92
-2.1095879e+92
-2.110384e+92
-2.1048444e+92
-2.103923e+92
-2.1117595e+92
-2.1121492e+92
-2.1111527e+92
-2.1108314e+92
-2.1035813e+92
-2.1090426e+92
-2.1088573e+92
-2.1032224e+92
-2.1099402e+92
-2.1108983e+92
-2.1106404e+92
-2.10951e+92
-2.1074214e+92
-2.1082499e+92
-2.1028421e+92
-2.1020275e+92
-2.111727e+92
-2.112161e+92
-2.1101707e+92
-2.1110151e+92
-2.1142204e+92
-2.1139368e+92
-2.1124736e+92