/*--------------------------------*- C++ -*----------------------------------*\
  =========                 |
  \\      /  F ield         | OpenFOAM: The Open Source CFD Toolbox
   \\    /   O peration     | Website:  https://openfoam.org
    \\  /    A nd           | Version:  7
     \\/     M anipulation  |
\*---------------------------------------------------------------------------*/
FoamFile
{
    version     2.0;
    format      ascii;
    class       volVectorField;
    location    "1000";
    object      UMean;
}
// * * * * * * * * * * * * * * * * * * * * * * * * * * * * * * * * * * * * * //

dimensions      [0 1 -1 0 0 0 0];

internalField   nonuniform List<vector> 
34222
(
(-1.293412e+45 1.1805134e+44 7.1833045e+43)
(-1.4368091e+45 9.6157388e+43 1.0937849e+44)
(-1.3213462e+45 1.1937703e+44 6.4422797e+43)
(-9.0005586e+44 8.1360193e+43 1.1093153e+43)
(-8.9205164e+44 6.5866521e+43 1.0795172e+43)
(-8.0340665e+44 5.9774972e+43 -1.2966948e+43)
(-7.598657e+44 5.7893766e+43 -1.5811742e+43)
(-1.4802225e+45 7.2086928e+43 3.0898545e+43)
(-1.4498647e+45 9.312945e+43 1.028366e+44)
(-9.5536817e+44 5.9171362e+43 1.9744989e+43)
(-9.5972754e+44 5.1840641e+43 1.2102659e+43)
(-9.1660908e+44 6.8879241e+43 9.8599436e+42)
(-9.1289307e+44 6.1555476e+43 1.4262574e+43)
(-1.3625928e+45 9.3395998e+43 6.6056608e+43)
(-9.0856516e+44 8.2182434e+43 -1.0649556e+43)
(-9.2162875e+44 9.9962615e+43 2.1769002e+43)
(-9.6743329e+44 7.7686364e+43 1.8055273e+43)
(-8.7495463e+44 9.2141207e+43 -9.2034946e+42)
(-8.232586e+44 1.079694e+44 -1.1657673e+43)
(-8.2643176e+44 8.4924024e+43 -1.3331544e+43)
(-7.8025173e+44 9.303247e+43 -3.1888092e+43)
(-7.6586187e+44 1.0314667e+44 -2.9063158e+43)
(-1.1854803e+45 1.0746241e+44 9.8496822e+43)
(-1.4881499e+45 6.7842172e+43 2.9671919e+43)
(-1.4442277e+45 5.4068737e+43 -1.8276439e+43)
(-9.5383261e+44 4.2276864e+43 -6.619478e+42)
(-9.6824148e+44 3.4640619e+43 -4.8543634e+42)
(-9.7933224e+44 4.4692539e+43 1.2725644e+42)
(-9.7434844e+44 5.0067111e+43 -2.9659197e+42)
(-1.4672738e+45 7.4255172e+43 9.7758972e+43)
(-9.5216093e+44 6.8738963e+43 3.2235653e+42)
(-9.7395628e+44 5.2854586e+43 6.6654061e+42)
(-9.5101552e+44 6.3223328e+43 1.4942912e+43)
(-9.1326279e+44 7.9577508e+43 1.7180148e+43)
(-9.0292157e+44 7.2287165e+43 1.0819455e+43)
(-9.0256418e+44 7.7327876e+43 7.0621409e+42)
(-8.7265078e+44 9.1891777e+43 4.1492802e+42)
(-8.6371669e+44 7.8471633e+43 5.3880612e+42)
(-1.340826e+45 6.6559325e+43 5.1713826e+43)
(-8.8798215e+44 6.7649643e+43 -1.6112199e+43)
(-9.727957e+44 6.0073998e+43 1.365651e+43)
(-9.5048382e+44 7.1350028e+43 2.0992686e+43)
(-8.8407623e+44 7.5920436e+43 -4.5702198e+42)
(-8.6587077e+44 1.1257627e+44 -1.1338826e+43)
(-8.3753459e+44 1.1502716e+44 -2.6529011e+42)
(-8.9260387e+44 1.0754503e+44 -4.6536726e+42)
(-8.1768642e+44 1.1949443e+44 -1.6346661e+43)
(-7.430819e+44 8.3440764e+43 -2.3813229e+43)
(-7.5247691e+44 7.2791278e+43 -2.366956e+43)
(-8.7004856e+44 1.068051e+44 -2.8164572e+43)
(-8.5827471e+44 1.1484116e+44 -2.8116516e+43)
(-1.0765381e+45 1.2114602e+44 -3.2073147e+43)
(-1.082502e+45 7.8846537e+43 1.3470723e+44)
(-1.0753784e+45 4.1241157e+43 1.3590824e+44)
(-1.1469574e+45 7.5971819e+43 9.2336455e+43)
(-1.1935951e+45 5.1693415e+43 1.213948e+44)
(-1.1638573e+45 5.7333539e+43 1.1039763e+44)
(-1.4964622e+45 5.9057135e+43 2.7065791e+43)
(-1.4508471e+45 5.1010149e+43 -1.9057482e+43)
(-9.6590205e+44 4.4479266e+43 -9.2304884e+42)
(-9.7528179e+44 3.5576299e+43 -5.7126864e+42)
(-9.7925367e+44 4.5604885e+43 1.7968238e+42)
(-9.6461934e+44 5.1460042e+43 -1.6848852e+42)
(-9.7051112e+44 2.8899055e+43 -4.616805e+41)
(-9.5021931e+44 3.4384858e+43 -2.7263961e+43)
(-9.6375695e+44 3.4374766e+43 -2.7372911e+43)
(-9.7794496e+44 3.6121112e+43 4.6064175e+42)
(-9.0950521e+44 6.1698751e+43 -1.8506565e+42)
(-9.1634737e+44 5.161814e+43 -3.5246418e+42)
(-9.3777305e+44 5.7543545e+43 -2.1327658e+42)
(-9.3339705e+44 6.7115136e+43 5.7178359e+41)
(-1.1562143e+45 3.9956202e+43 7.8824108e+43)
(-1.1473155e+45 4.9463184e+43 7.8824205e+43)
(-1.4701484e+45 5.4917771e+43 9.4595887e+43)
(-9.6679055e+44 5.2573504e+43 1.2290732e+43)
(-9.9244687e+44 4.0840095e+43 8.5302973e+42)
(-9.6528769e+44 5.5165046e+43 2.7479349e+42)
(-9.4287539e+44 5.9669063e+43 1.0572878e+43)
(-9.1330816e+44 9.1259753e+43 3.1178034e+42)
(-9.203825e+44 7.4820626e+43 3.9728433e+42)
(-8.9155576e+44 7.9842793e+43 4.5774112e+42)
(-8.671001e+44 9.863711e+43 5.6169844e+42)
(-8.2926434e+44 7.0992338e+43 -8.4461066e+42)
(-8.4478792e+44 7.9809547e+43 -8.4791812e+42)
(-8.2520859e+44 9.1553714e+43 -1.3051754e+43)
(-7.457762e+44 7.4010043e+43 -1.505832e+43)
(-9.6962347e+44 4.9481634e+43 -1.3159366e+42)
(-9.8356811e+44 5.5736914e+43 5.4642614e+42)
(-9.2959219e+44 7.1461167e+43 -2.5440943e+43)
(-8.8739717e+44 5.9447815e+43 -3.7458478e+43)
(-9.1879346e+44 1.0123557e+44 -2.0188558e+43)
(-9.2184535e+44 8.1275561e+43 -9.7474288e+42)
(-8.833287e+44 9.1737928e+43 -7.8687175e+42)
(-8.5949176e+44 9.0901372e+43 -1.603378e+43)
(-9.1236987e+44 1.1758646e+44 -2.1903244e+43)
(-8.4432562e+44 1.1231079e+44 -1.7883419e+43)
(-8.4689062e+44 1.0127103e+44 -1.9026127e+43)
(-9.0321386e+44 1.2286305e+44 -2.1421982e+43)
(-8.2289548e+44 1.0217498e+44 -1.7895372e+43)
(-8.2675168e+44 8.1096874e+43 -1.811157e+43)
(-8.9853461e+44 1.079287e+44 -2.0195393e+43)
(-9.0576337e+44 1.2803868e+44 -1.8701242e+43)
(-1.0578295e+45 7.0439991e+43 -1.371552e+44)
(-8.3871333e+44 9.291864e+43 -1.4066606e+43)
(-1.0545648e+45 2.9818309e+43 -1.3761226e+44)
(-1.0585618e+45 7.1053394e+43 -3.2382565e+43)
(-8.3491084e+44 2.2868625e+43 -1.9198267e+43)
(-8.990526e+44 4.5563398e+43 1.0400585e+44)
(-7.5911532e+44 2.2717519e+43 9.0299594e+43)
(-1.1142015e+45 3.1709098e+43 1.2770228e+44)
(-9.0356305e+44 3.6055742e+43 1.0608717e+44)
(-1.1160085e+45 5.0916885e+43 1.269918e+44)
(-9.100268e+44 3.8938085e+43 1.03584e+44)
(-9.0543851e+44 2.7816559e+43 1.0778423e+44)
(-1.1044569e+45 4.903247e+43 1.2556734e+44)
(-1.0743963e+45 6.2119366e+43 1.3093375e+44)
(-1.1128592e+45 2.7613374e+43 1.2418466e+44)
(-1.0850012e+45 2.5944966e+43 1.4124595e+44)
(-1.1767628e+45 3.7478563e+43 1.093576e+44)
(-1.1768493e+45 5.1245552e+43 1.1738907e+44)
(-1.1542697e+45 4.9695447e+43 1.0253828e+44)
(-1.2207713e+45 3.3398444e+43 4.4547963e+43)
(-1.161389e+45 3.3301446e+43 -2.8577665e+43)
(-1.5039653e+45 4.8441126e+43 2.3425002e+43)
(-1.1514689e+45 3.9795053e+43 -2.6691529e+43)
(-1.4575981e+45 4.6957129e+43 -2.1517755e+43)
(-9.8467515e+44 3.912134e+43 -1.0042278e+43)
(-9.9743651e+44 3.31518e+43 -3.0922326e+42)
(-9.8192163e+44 4.2323949e+43 -9.8419866e+41)
(-9.7096084e+44 4.5825667e+43 -4.0264604e+42)
(-1.2040361e+45 4.998026e+43 4.1421478e+43)
(-9.7770498e+44 3.7401271e+43 -1.2296354e+42)
(-9.719939e+44 2.4789836e+43 -1.7360139e+42)
(-9.5337519e+44 3.2266467e+43 -2.771424e+43)
(-9.7154056e+44 3.7133266e+43 -2.6521825e+43)
(-9.1426242e+44 5.9955359e+43 -3.3343208e+42)
(-9.2033586e+44 4.994944e+43 -3.850662e+42)
(-9.3280626e+44 5.6028361e+43 -3.425705e+42)
(-9.1682252e+44 6.6879785e+43 -3.215235e+42)
(-9.1202741e+44 4.4530247e+43 -1.6717491e+43)
(-9.1314015e+44 4.7583144e+43 -1.4453033e+43)
(-9.2831928e+44 4.7390573e+43 -1.4338608e+43)
(-9.2873196e+44 4.0740834e+43 -1.637679e+43)
(-8.6873294e+44 6.3308075e+43 -9.7555968e+42)
(-8.5543214e+44 4.8358233e+43 -9.0448194e+42)
(-8.8039596e+44 5.6027665e+43 -8.5897192e+42)
(-8.8940109e+44 6.6297247e+43 -9.1914903e+42)
(-1.0469066e+45 2.5488119e+43 8.1452949e+43)
(-9.1560351e+44 3.5617985e+43 7.7960259e+43)
(-1.0565568e+45 4.319808e+43 8.0800412e+43)
(-1.0494811e+45 2.0880296e+43 7.8034907e+43)
(-1.0454041e+45 3.9584949e+43 8.1921521e+43)
(-1.1453785e+45 3.0800235e+43 7.3894947e+43)
(-1.1487629e+45 4.5771553e+43 8.2157357e+43)
(-1.4698761e+45 4.3433968e+43 9.4125568e+43)
(-1.0095096e+45 3.2664234e+43 8.9792023e+42)
(-9.772803e+44 4.0975849e+43 6.9604768e+42)
(-9.650163e+44 4.3996182e+43 1.0639445e+42)
(-9.6379991e+44 4.150764e+43 6.474715e+42)
(-9.0725007e+44 6.235625e+43 5.5411749e+42)
(-9.4347892e+44 5.6548193e+43 3.4431381e+42)
(-9.3320097e+44 6.6214087e+43 7.7271914e+41)
(-8.8941422e+44 7.4483147e+43 1.0342362e+42)
(-8.3205538e+44 8.4046249e+43 -1.4766197e+43)
(-8.6149413e+44 7.0686163e+43 -1.0996453e+43)
(-9.4199712e+44 8.5324947e+43 -1.0789239e+43)
(-9.2360306e+44 1.1246299e+44 -1.2917524e+43)
(-8.2135667e+44 7.4796923e+43 -1.0968749e+43)
(-8.3186317e+44 8.145769e+43 -9.933582e+42)
(-8.2860602e+44 9.1372794e+43 -1.3100054e+43)
(-8.2548054e+44 7.682472e+43 -1.4335628e+43)
(-8.613971e+44 6.3084883e+43 -2.0234793e+43)
(-9.1486526e+44 5.3825442e+43 -9.5813963e+42)
(-9.0359939e+44 6.9680881e+43 -2.4777066e+43)
(-8.5255169e+44 7.2545638e+43 -3.7448694e+43)
(-9.6676857e+44 1.1880583e+44 -2.2089521e+43)
(-8.481008e+44 8.3607698e+43 -1.9207132e+43)
(-8.1863497e+44 8.7802672e+43 -1.9650015e+43)
(-8.921415e+44 1.059079e+44 -2.3488851e+43)
(-9.4668537e+44 1.2134823e+44 -1.7496587e+43)
(-8.6701773e+44 1.182203e+44 -1.5307364e+43)
(-9.0169414e+44 1.0735929e+44 -1.5702008e+43)
(-9.3048447e+44 1.3234294e+44 -1.6302377e+43)
(-1.1460096e+45 3.6828276e+43 -1.0429761e+44)
(-1.1415996e+45 7.3026182e+43 -1.0261515e+44)
(-9.7682317e+44 3.0458956e+43 -1.2203026e+44)
(-1.022683e+45 4.1351175e+43 -1.1352615e+44)
(-1.0243676e+45 2.6808433e+43 -1.1208463e+44)
(-9.753986e+44 3.6114022e+43 -1.2125944e+44)
(-7.9790644e+44 3.8525541e+43 -1.5486422e+44)
(-4.2804566e+44 8.1396265e+42 3.3513128e+43)
(-6.0083634e+44 5.8960188e+43 -5.0914161e+42)
(-8.0030895e+44 2.3475284e+43 -1.5606863e+44)
(-6.0914813e+44 1.8209537e+43 -1.7681328e+42)
(-1.0594018e+45 5.5733728e+43 -1.3708605e+44)
(-9.7984959e+44 2.7349754e+43 -1.2580861e+44)
(-1.0258359e+45 4.0476643e+43 -1.1473994e+44)
(-1.0308061e+45 2.2832001e+43 -1.148013e+44)
(-9.7893682e+44 3.0919141e+43 -1.2027231e+44)
(-1.0473091e+45 1.4586199e+43 -1.3550791e+44)
(-1.0665715e+45 3.0036306e+43 -2.5083294e+43)
(-8.4418041e+44 -1.4457133e+41 -1.6041749e+43)
(-8.4251321e+44 7.611442e+43 -1.79974e+43)
(-7.9860282e+44 1.8847996e+43 -1.5895217e+44)
(-8.0256328e+44 3.3086654e+43 -1.560487e+44)
(-6.0607001e+44 1.0354707e+43 -6.2333484e+42)
(-6.1204686e+44 5.2477424e+43 -1.3134127e+42)
(-7.580253e+44 2.8046635e+43 8.545516e+43)
(-7.579841e+44 2.6008864e+43 8.4346735e+43)
(-9.7072595e+44 3.6518047e+43 1.1049993e+44)
(-9.6884531e+44 2.192248e+43 1.1074071e+44)
(-6.6353134e+44 1.2476055e+43 8.8236967e+43)
(-6.5919785e+44 1.4466519e+43 8.1978329e+43)
(-8.3593927e+44 1.842316e+43 1.0424004e+44)
(-8.3544151e+44 2.8546453e+43 1.0697449e+44)
(-9.7282053e+44 3.9303311e+43 1.1095706e+44)
(-7.6184384e+44 2.1355206e+43 8.7642898e+43)
(-7.5804783e+44 2.6019487e+43 8.046915e+43)
(-9.7327416e+44 2.423274e+43 1.0731191e+44)
(-7.624112e+44 1.8396927e+43 8.4082835e+43)
(-7.5916433e+44 2.3882998e+43 8.1759506e+43)
(-9.7990294e+44 3.1598689e+43 1.0958044e+44)
(-9.7238037e+44 1.8971427e+43 1.049208e+44)
(-7.6454104e+44 1.5486805e+43 8.8778987e+43)
(-7.6104476e+44 1.8328669e+43 8.0671927e+43)
(-9.730313e+44 3.4514286e+43 1.1264705e+44)
(-9.7498845e+44 1.7947285e+43 1.083533e+44)
(-9.0350823e+44 3.4457073e+43 1.0210493e+44)
(-1.1041046e+45 1.8960451e+43 1.1683842e+44)
(-9.0169768e+44 2.472288e+43 1.0125821e+44)
(-1.1051162e+45 4.3459355e+43 1.1747172e+44)
(-1.0772395e+45 4.8544701e+43 1.370619e+44)
(-1.1109506e+45 4.3471228e+43 1.2757472e+44)
(-9.0070643e+44 1.785414e+43 1.0504449e+44)
(-1.1175994e+45 2.0201361e+43 1.2429315e+44)
(-9.0727786e+44 2.641648e+43 1.0137859e+44)
(-1.186983e+45 3.1932544e+43 1.1847699e+44)
(-1.2004242e+45 3.9466277e+43 1.2468446e+44)
(-1.0738644e+45 9.5233581e+42 1.3848103e+44)
(-9.2415515e+44 3.0593734e+43 3.4396535e+43)
(-9.6433207e+44 3.6837193e+43 7.9418537e+43)
(-1.0999743e+45 2.5498496e+43 6.6104537e+43)
(-9.0355701e+44 2.6214766e+43 -1.3814218e+43)
(-1.0565385e+45 2.7492997e+43 3.3487487e+42)
(-9.3447756e+44 3.1069847e+43 1.4484547e+43)
(-1.1099493e+45 4.1796858e+43 6.4045138e+43)
(-1.0618147e+45 3.3475684e+43 -1.6570086e+42)
(-1.0379829e+45 2.6116776e+43 -4.0695586e+43)
(-9.2216271e+44 2.4957473e+43 -3.1657399e+43)
(-1.071514e+45 2.5711943e+43 -1.6032863e+43)
(-9.029146e+44 2.3897878e+43 -3.2213505e+43)
(-9.1378302e+44 2.6541059e+43 -1.9719223e+43)
(-1.0773056e+45 3.4033534e+43 -2.2066494e+43)
(-1.0410824e+45 2.9615883e+43 -5.0977833e+43)
(-1.1808347e+45 2.5994546e+43 -1.9172332e+43)
(-1.1657987e+45 3.5037987e+43 -2.3236471e+43)
(-1.2130644e+45 4.4838119e+43 4.5357275e+43)
(-1.1523177e+45 2.6962893e+43 -3.0572969e+43)
(-1.5072161e+45 3.8176392e+43 2.3186531e+43)
(-1.0034119e+45 3.5878221e+43 -1.4247419e+43)
(-1.0018784e+45 3.0871994e+43 -9.7778245e+42)
(-1.4662666e+45 4.1582587e+43 -2.3498501e+43)
(-9.8551992e+44 3.8977133e+43 -4.2422066e+42)
(-9.8159211e+44 4.1096994e+43 -6.2466907e+42)
(-1.2103435e+45 2.6059589e+43 3.7871005e+43)
(-1.0748973e+45 3.2668426e+43 -1.7876652e+43)
(-1.0409732e+45 2.7416573e+43 -4.5892257e+43)
(-1.0792255e+45 2.3290593e+43 -2.0824448e+43)
(-1.0475927e+45 2.3534827e+43 -4.8490025e+43)
(-1.1663137e+45 4.3343909e+43 -2.1757282e+43)
(-9.8309772e+44 3.9451749e+43 2.2746781e+42)
(-9.8718394e+44 2.6513132e+43 -5.5511148e+42)
(-9.8017877e+44 3.4184e+43 -3.1132399e+43)
(-9.6402851e+44 3.710459e+43 -2.5917934e+43)
(-9.4391189e+44 4.967141e+43 -2.9291067e+42)
(-9.5206355e+44 4.60142e+43 -4.1846786e+42)
(-9.2882823e+44 4.9676909e+43 -1.7716561e+42)
(-9.2305533e+44 5.502217e+43 -1.1660689e+42)
(-1.0953069e+45 3.8964297e+43 6.2734268e+43)
(-1.1016714e+45 2.1751157e+43 6.0589938e+43)
(-1.0621145e+45 2.2182071e+43 -5.9626225e+40)
(-1.0630885e+45 3.1572875e+43 4.0070084e+42)
(-9.2902775e+44 4.4029863e+43 -1.6724773e+43)
(-9.1360999e+44 3.5701724e+43 -1.6302016e+43)
(-9.1636301e+44 4.08145e+43 -1.4733236e+43)
(-9.3872598e+44 4.9986061e+43 -1.4721795e+43)
(-8.6446275e+44 5.4018514e+43 -1.2621627e+43)
(-8.6690269e+44 4.6122117e+43 -1.1823132e+43)
(-8.8070732e+44 5.10529e+43 -1.1200093e+43)
(-8.6485244e+44 6.370347e+43 -1.2412133e+43)
(-8.4912331e+44 4.1566165e+43 -9.7365615e+42)
(-8.6537855e+44 4.4571814e+43 -1.0714666e+43)
(-8.9554806e+44 4.9264707e+43 -1.102819e+43)
(-8.6349975e+44 3.9561794e+43 -9.4167832e+42)
(-8.5922179e+44 6.5868289e+43 -9.841375e+42)
(-8.4674765e+44 5.2533571e+43 -9.4658997e+42)
(-8.6682832e+44 5.946257e+43 -9.1915551e+42)
(-8.730527e+44 7.0554925e+43 -9.480182e+42)
(-9.1387485e+44 1.9546786e+43 7.4761755e+43)
(-9.1601915e+44 3.4259353e+43 7.3976546e+43)
(-7.8786877e+44 2.4579007e+43 7.8383095e+43)
(-7.8743979e+44 1.2969617e+43 7.4865813e+43)
(-9.177491e+44 1.8545768e+43 6.9621453e+43)
(-9.2068847e+44 3.2782421e+43 7.4213721e+43)
(-9.1723075e+44 1.5939644e+43 7.0581792e+43)
(-9.234809e+44 2.8832807e+43 7.25759e+43)
(-9.1722559e+44 1.2090459e+43 7.1584295e+43)
(-9.1834721e+44 2.8666413e+43 7.6603371e+43)
(-1.0454553e+45 1.6212122e+43 7.7005535e+43)
(-1.0484412e+45 3.6825231e+43 7.6263628e+43)
(-1.0461047e+45 3.5872907e+43 8.2110688e+43)
(-1.1463121e+45 2.7636764e+43 7.7787085e+43)
(-1.0501857e+45 1.456999e+43 7.7501833e+43)
(-1.1472968e+45 3.9438252e+43 7.8619866e+43)
(-9.7715538e+44 4.5584988e+43 3.3680602e+42)
(-9.632076e+44 3.5662578e+43 -3.1819568e+42)
(-1.0007557e+45 2.7014294e+43 3.8418449e+42)
(-1.0138558e+45 4.0377296e+43 1.0269805e+43)
(-9.713205e+44 4.6276944e+43 2.6007704e+42)
(-9.1600055e+44 4.4194737e+43 3.947537e+42)
(-9.0409278e+44 4.3961119e+43 -5.5937147e+41)
(-9.2725645e+44 4.9587623e+43 -2.9197348e+42)
(-8.2327264e+44 6.2383567e+43 -1.1094401e+43)
(-8.71537e+44 5.5421993e+43 -1.1593437e+43)
(-8.7470639e+44 6.8065118e+43 -1.4686744e+43)
(-8.0397825e+44 7.1428043e+43 -1.5015412e+43)
(-8.732977e+44 8.8693732e+43 -1.4620368e+43)
(-8.5463136e+44 6.8145524e+43 -1.3208119e+43)
(-8.2338733e+44 8.0967379e+43 -9.7898025e+42)
(-8.4553678e+44 1.0195164e+44 -1.2796008e+43)
(-8.3661954e+44 5.4242679e+43 -3.0135957e+43)
(-8.4158941e+44 6.1721887e+43 -1.9159848e+43)
(-9.4487839e+44 7.5767465e+43 -1.9714532e+43)
(-9.6744286e+44 6.2914273e+43 -3.14117e+43)
(-9.8867465e+44 9.8196031e+43 -1.4947777e+43)
(-9.1942243e+44 7.8823021e+43 -1.5116488e+43)
(-8.9233335e+44 8.9882117e+43 -1.6225324e+43)
(-9.5763992e+44 1.0444632e+44 -1.8478317e+43)
(-1.2042258e+45 4.7173543e+43 -1.163024e+44)
(-1.1991076e+45 4.6905433e+43 -1.1527432e+44)
(-1.0360047e+45 3.2880585e+43 -1.3855506e+44)
(-1.0017666e+45 3.7587239e+43 -8.8153887e+43)
(-1.0018979e+45 2.0526991e+43 -8.6467994e+43)
(-1.0328538e+45 2.8706349e+43 -1.3590402e+44)
(-8.3179155e+44 2.7154746e+43 -1.3881167e+44)
(-6.9881314e+44 2.1523172e+43 -1.6294671e+44)
(-6.9938683e+44 2.0672797e+43 -1.6434246e+44)
(-8.3227356e+44 1.747522e+43 -1.393243e+44)
(-4.8580013e+44 2.1217309e+43 -1.4737784e+44)
(-3.6033058e+44 1.3155044e+43 -1.6688797e+44)
(-2.8082966e+44 1.162765e+43 -5.6160523e+43)
(-2.8660026e+44 1.0479513e+43 -4.7886809e+43)
(-4.13766e+44 1.6554996e+42 5.8933181e+43)
(-4.2647766e+44 3.5265842e+43 2.942314e+43)
(-4.1823047e+44 1.1926921e+43 6.0115483e+43)
(-4.8695292e+44 1.6394809e+43 -1.4545179e+44)
(-4.3057272e+44 1.122629e+43 3.4270738e+43)
(-8.3409388e+44 1.6374193e+43 -1.4053679e+44)
(-8.3210859e+44 2.7501163e+43 -1.410989e+44)
(-7.0118354e+44 2.0482104e+43 -1.6615967e+44)
(-7.013421e+44 1.8301684e+43 -1.6340234e+44)
(-4.8696656e+44 1.444907e+43 -1.4847745e+44)
(-4.9058411e+44 1.9527533e+43 -1.4622187e+44)
(-4.3230164e+44 6.1040191e+42 3.2493825e+43)
(-4.3329501e+44 3.2806445e+43 3.2393915e+43)
(-9.8073554e+44 2.0695323e+43 -1.2235855e+44)
(-1.0300662e+45 3.2769639e+43 -1.1413644e+44)
(-1.0324563e+45 1.7967487e+43 -1.1292362e+44)
(-9.8091505e+44 2.6767839e+43 -1.2505536e+44)
(-1.0398331e+45 2.8915575e+43 -1.4103537e+44)
(-1.006211e+45 3.5851631e+43 -9.0080156e+43)
(-1.0056008e+45 1.7119418e+43 -8.6785932e+43)
(-1.0363671e+45 2.4505031e+43 -1.3432899e+44)
(-1.0488187e+45 4.3544648e+43 -1.3912355e+44)
(-1.0338115e+45 1.5248094e+43 -1.1372027e+44)
(-1.0264549e+45 3.4301156e+43 -1.1299902e+44)
(-9.8035254e+44 1.8944878e+43 -1.2617563e+44)
(-9.8112941e+44 2.187386e+43 -1.2347004e+44)
(-1.0502927e+45 -3.0610089e+42 -1.3974568e+44)
(-8.4730923e+44 -2.3305006e+43 -1.1853029e+43)
(-8.4593017e+44 5.642301e+43 -1.3464513e+43)
(-7.9155491e+44 8.02766e+42 -1.6148903e+44)
(-7.9754563e+44 2.2927852e+43 -1.5999613e+44)
(-6.0329782e+44 -5.0683795e+42 -7.7921153e+42)
(-6.1247511e+44 3.9974947e+43 -2.5497534e+42)
(-7.9853116e+44 1.3429651e+43 -1.5841251e+44)
(-8.0166158e+44 2.9508994e+43 -1.5924218e+44)
(-6.0588681e+44 4.9695606e+43 -8.6788588e+42)
(-6.097599e+44 6.4542923e+42 -3.0864306e+42)
(-8.385411e+44 1.2136632e+43 -1.4284094e+44)
(-8.3476862e+44 2.4738463e+43 -1.4338287e+44)
(-7.0368242e+44 1.7142258e+43 -1.6863804e+44)
(-7.0668342e+44 1.3421428e+43 -1.657358e+44)
(-8.3206945e+44 1.3577218e+43 -1.3835304e+44)
(-8.3064331e+44 2.2890758e+43 -1.3790352e+44)
(-6.9891603e+44 1.608255e+43 -1.6335136e+44)
(-7.0134594e+44 1.673263e+43 -1.648628e+44)
(-4.8610728e+44 1.0373912e+43 -1.5140522e+44)
(-4.9314736e+44 1.3507943e+43 -1.4900019e+44)
(-4.2604469e+44 -3.3234765e+41 2.910807e+43)
(-4.3209846e+44 2.5088329e+43 3.1040884e+43)
(-4.883015e+44 1.7582319e+43 -1.4774602e+44)
(-4.8680493e+44 1.005183e+43 -1.4558325e+44)
(-4.3091701e+44 2.3888783e+42 3.3710231e+43)
(-4.2725658e+44 3.1232201e+43 2.7702708e+43)
(-6.628214e+44 1.7710642e+43 8.4131051e+43)
(-6.6068313e+44 1.8928256e+43 8.3807544e+43)
(-8.3729408e+44 2.5753358e+43 1.0361485e+44)
(-8.3412162e+44 1.5661373e+43 1.0313908e+44)
(-6.6280408e+44 1.5284036e+43 8.6131008e+43)
(-6.5913948e+44 1.9599003e+43 7.9821928e+43)
(-8.3684733e+44 2.0352911e+43 1.0088502e+44)
(-8.3704201e+44 2.8647923e+43 1.0404742e+44)
(-5.7885246e+44 9.6095205e+42 8.4637899e+43)
(-5.7863166e+44 4.4314974e+42 8.8204253e+43)
(-7.2884493e+44 1.9127582e+43 9.2237418e+43)
(-7.3195155e+44 1.166072e+43 9.3699173e+43)
(-5.7361246e+44 1.1828193e+43 8.4377618e+43)
(-5.7374347e+44 3.892164e+42 8.297235e+43)
(-7.3000186e+44 1.4845636e+43 8.8768778e+43)
(-7.2927362e+44 8.598504e+42 8.876807e+43)
(-6.6565069e+44 1.1296981e+43 8.7519917e+43)
(-6.6458712e+44 1.4901369e+43 8.2528577e+43)
(-8.3988496e+44 1.6728082e+43 1.0332672e+44)
(-8.3833207e+44 2.6535926e+43 1.0578455e+44)
(-6.6039788e+44 1.3259312e+43 8.0611363e+43)
(-6.5819726e+44 1.870824e+43 8.0568509e+43)
(-8.347135e+44 1.534064e+43 9.8869697e+43)
(-8.3789546e+44 2.3068468e+43 9.9502239e+43)
(-6.6708845e+44 8.4448959e+42 8.6679571e+43)
(-6.6426438e+44 1.378664e+43 8.1164288e+43)
(-8.435604e+44 1.4951346e+43 1.0212066e+44)
(-8.4314964e+44 2.3144589e+43 1.0473745e+44)
(-6.650794e+44 1.237438e+43 8.2721398e+43)
(-6.6325965e+44 1.6176872e+43 8.2985512e+43)
(-8.3736686e+44 1.2529445e+43 1.0112994e+44)
(-8.4063461e+44 2.1568688e+43 1.0149333e+44)
(-6.7011223e+44 6.9469713e+42 8.8802126e+43)
(-6.6903058e+44 8.5759533e+42 8.3353274e+43)
(-8.4380248e+44 1.1840289e+43 1.0515096e+44)
(-8.4174749e+44 2.2285987e+43 1.0748817e+44)
(-7.5933648e+44 2.0564789e+43 8.1878565e+43)
(-6.6525127e+44 7.1044287e+42 8.1621322e+43)
(-6.6474004e+44 1.2029809e+43 8.2426123e+43)
(-8.4000506e+44 9.493415e+42 1.0079803e+44)
(-8.4159888e+44 1.7635984e+43 1.0059366e+44)
(-9.709073e+44 1.2504359e+43 1.0582106e+44)
(-9.7725946e+44 2.858993e+43 1.071939e+44)
(-7.6274804e+44 1.7621199e+43 8.2482e+43)
(-7.6033961e+44 1.6349634e+43 7.8388021e+43)
(-7.6020632e+44 1.0576684e+43 8.3173328e+43)
(-9.7242057e+44 3.0822965e+43 1.063403e+44)
(-9.7544639e+44 1.5147904e+43 1.0434954e+44)
(-8.9975572e+44 2.4143234e+43 1.0367945e+44)
(-8.9637583e+44 1.6619972e+43 1.023415e+44)
(-1.1166763e+45 3.6705145e+43 1.2578408e+44)
(-1.1151925e+45 1.350155e+43 1.2519549e+44)
(-7.5707366e+44 1.0066709e+43 8.3700531e+43)
(-9.7659521e+44 2.9503701e+43 1.1159791e+44)
(-7.5322991e+44 9.8068543e+42 7.5769047e+43)
(-9.7828209e+44 1.1592982e+43 1.0755466e+44)
(-7.5942643e+44 8.8918628e+42 8.0344462e+43)
(-7.5870429e+44 1.367399e+43 8.025827e+43)
(-9.8612203e+44 2.3537976e+43 1.0929204e+44)
(-9.776073e+44 9.4113901e+42 1.0478995e+44)
(-8.9306273e+44 1.1528181e+43 1.0630183e+44)
(-8.9424084e+44 1.862575e+43 1.0108928e+44)
(-1.1187659e+45 3.6045369e+43 1.2814819e+44)
(-1.1223049e+45 1.2921144e+43 1.2536841e+44)
(-9.2371078e+44 2.1190621e+43 3.297908e+43)
(-7.8883001e+44 2.037645e+43 1.4016776e+43)
(-7.8820937e+44 1.3385327e+43 1.1834747e+43)
(-8.1856202e+44 2.3610976e+43 4.0014819e+43)
(-8.1841124e+44 1.4084692e+43 3.7814828e+43)
(-8.0008338e+44 2.3033929e+43 5.6971852e+43)
(-8.3256075e+44 2.7001888e+43 8.689372e+43)
(-7.9885495e+44 1.2055936e+43 5.3756291e+43)
(-8.3374724e+44 1.4486235e+43 8.4664741e+43)
(-9.6583447e+44 1.9196817e+43 7.839449e+43)
(-9.2264072e+44 3.028778e+43 3.1872959e+43)
(-9.6651134e+44 3.3756834e+43 7.6848676e+43)
(-7.5663137e+44 1.8016354e+43 -1.9733223e+43)
(-7.7552632e+44 1.9515743e+43 -1.3060852e+43)
(-7.5576393e+44 1.5381179e+43 -2.1076007e+43)
(-7.7502853e+44 1.5727217e+43 -1.4396347e+43)
(-9.0340276e+44 2.26335e+43 -1.3662968e+43)
(-9.3601347e+44 2.1120948e+43 1.3825693e+43)
(-9.0276151e+44 2.6566667e+43 -1.4535846e+43)
(-9.3319978e+44 2.9557553e+43 1.1957888e+43)
(-7.672104e+44 1.8645826e+43 -1.1024634e+43)
(-7.9470834e+44 2.1106013e+43 6.1599776e+42)
(-7.6592356e+44 1.4584697e+43 -1.2856748e+43)
(-7.9472718e+44 1.4928556e+43 4.6893968e+42)
(-9.270037e+44 2.0233194e+43 2.6005122e+43)
(-9.699047e+44 1.9672539e+43 7.2582821e+43)
(-9.3237216e+44 2.7285689e+43 2.9422027e+43)
(-9.7234655e+44 3.3732226e+43 7.5881745e+43)
(-9.449161e+44 2.7802932e+43 1.0872042e+43)
(-9.087779e+44 2.2891369e+43 -1.8123252e+43)
(-9.0607202e+44 2.3027373e+43 -2.0271435e+43)
(-9.4184066e+44 2.157745e+43 8.1875873e+42)
(-9.0837267e+44 2.3803704e+43 -3.9150452e+43)
(-9.1250331e+44 2.3079699e+43 -3.6680874e+43)
(-9.189899e+44 2.563184e+43 -3.1813572e+43)
(-9.2060362e+44 2.2576046e+43 -3.0226688e+43)
(-1.059096e+45 2.4652943e+43 -3.982301e+43)
(-7.9094393e+44 1.9414255e+43 -2.5875534e+43)
(-7.6615172e+44 1.8197272e+43 -2.6605931e+43)
(-7.6560897e+44 1.7682573e+43 -2.7696508e+43)
(-7.740857e+44 1.8940784e+43 -2.3270399e+43)
(-7.7370575e+44 1.7476637e+43 -2.3579217e+43)
(-9.0000044e+44 2.4823689e+43 -3.2437108e+43)
(-9.1259602e+44 2.6490917e+43 -2.0121817e+43)
(-9.1418399e+44 2.2808069e+43 -1.8734637e+43)
(-9.0232712e+44 2.3719472e+43 -3.1077414e+43)
(-7.5237921e+44 1.6083484e+43 -2.9592747e+43)
(-7.6315981e+44 1.7182655e+43 -2.5736846e+43)
(-7.4762892e+44 1.6254749e+43 -2.6366852e+43)
(-7.5623222e+44 1.7131671e+43 -2.6861598e+43)
(-7.5715795e+44 1.7901129e+43 -2.6002406e+43)
(-7.6825688e+44 1.888606e+43 -2.2172934e+43)
(-7.6712047e+44 1.6994164e+43 -2.3074823e+43)
(-7.5263008e+44 1.7959786e+43 -2.285969e+43)
(-7.6701907e+44 1.9146791e+43 -1.6703602e+43)
(-7.5113908e+44 1.6193379e+43 -2.4170813e+43)
(-7.66625e+44 1.5906779e+43 -1.7594134e+43)
(-9.1952523e+44 2.3575726e+43 -2.3695639e+43)
(-9.1901499e+44 2.3487579e+43 -2.5179829e+43)
(-9.0756547e+44 2.1116364e+43 -3.743216e+43)
(-9.0417079e+44 2.4959213e+43 -4.0310166e+43)
(-9.2027206e+44 2.0190977e+43 -4.3897288e+43)
(-9.1546222e+44 2.5811162e+43 -4.7402151e+43)
(-9.2667388e+44 2.248998e+43 -3.7322758e+43)
(-9.2397119e+44 2.49155e+43 -3.9694007e+43)
(-1.0501922e+45 3.1367256e+43 -5.3282861e+43)
(-1.0176729e+45 3.1835183e+43 -7.5098092e+43)
(-1.0430391e+45 2.3786818e+43 -3.9760282e+43)
(-1.0510545e+45 1.5238322e+43 -4.5885604e+43)
(-1.080168e+45 1.569211e+43 -1.929947e+43)
(-1.0764173e+45 2.8597849e+43 -1.3363397e+43)
(-1.1826294e+45 3.9547135e+43 -1.6838429e+43)
(-1.1684063e+45 2.479298e+43 -2.6429181e+43)
(-1.1046136e+45 1.5541469e+43 6.2507124e+43)
(-1.0976266e+45 3.4992687e+43 6.6243071e+43)
(-1.0652559e+45 2.7998817e+43 8.4677971e+42)
(-1.0665893e+45 1.5951517e+43 1.5195702e+42)
(-1.2200635e+45 2.2869415e+43 4.4781093e+43)
(-1.0791329e+45 2.6784332e+43 -2.2894421e+43)
(-1.0457058e+45 2.2079039e+43 -5.063323e+43)
(-1.0509374e+45 1.9339794e+43 -4.701194e+43)
(-1.0791503e+45 1.8763895e+43 -2.123848e+43)
(-1.170365e+45 2.1744662e+43 -2.5539716e+43)
(-1.2092435e+45 3.9991367e+43 4.3856035e+43)
(-1.4729163e+45 3.3798688e+43 -2.7029321e+43)
(-1.1543017e+45 3.2951313e+43 -3.0416585e+43)
(-9.9867271e+44 2.2937789e+43 -1.0867656e+43)
(-9.9375193e+44 2.6732531e+43 -1.301346e+43)
(-1.0069625e+45 3.3375223e+43 -1.159358e+43)
(-1.011763e+45 3.1665697e+43 -6.3617003e+42)
(-9.744536e+44 4.44608e+43 -3.5991893e+42)
(-9.6736362e+44 4.3265791e+43 -6.8173997e+42)
(-9.8239365e+44 3.4029066e+43 -3.4723406e+43)
(-9.8320946e+44 3.3207094e+43 3.5393039e+41)
(-9.9543157e+44 2.7248939e+43 -3.1009669e+42)
(-9.7125712e+44 3.2713081e+43 -2.8236702e+43)
(-9.363555e+44 4.6055242e+43 -4.3533538e+42)
(-9.2957982e+44 4.7881951e+43 -3.2595983e+42)
(-1.064652e+45 2.7546849e+43 -9.0100246e+41)
(-1.0658174e+45 2.0102163e+43 4.2627704e+41)
(-1.1024788e+45 3.4616609e+43 5.9354131e+43)
(-1.0983136e+45 1.767067e+43 5.939674e+43)
(-9.2270359e+44 2.1883618e+43 -1.7805709e+43)
(-9.0645275e+44 1.9784068e+43 -3.6402021e+43)
(-9.090388e+44 1.886753e+43 -3.2033485e+43)
(-9.2113987e+44 1.8538043e+43 -2.1271349e+43)
(-9.2705028e+44 1.9930267e+43 -3.5578293e+43)
(-9.2803537e+44 2.0069884e+43 -3.2099585e+43)
(-9.2015808e+44 1.7318826e+43 -3.9167117e+43)
(-9.1641009e+44 2.0476223e+43 -4.4333423e+43)
(-1.0499797e+45 2.9420602e+43 -4.9133246e+43)
(-9.2421781e+44 2.1890439e+43 -2.1592145e+43)
(-9.0790644e+44 2.0373886e+43 -3.6452627e+43)
(-9.0883733e+44 1.9637525e+43 -3.6432375e+43)
(-9.2127587e+44 1.896625e+43 -2.1943278e+43)
(-9.28781e+44 1.9887643e+43 -3.6137114e+43)
(-9.2962708e+44 2.076392e+43 -3.6272002e+43)
(-9.1950039e+44 1.8444728e+43 -4.4762305e+43)
(-9.1895958e+44 2.1054039e+43 -4.5065091e+43)
(-1.0678568e+45 2.3646957e+43 -4.839157e+43)
(-1.0197914e+45 2.8370174e+43 -6.7878797e+43)
(-1.0282583e+45 2.1955771e+43 -7.0616682e+43)
(-9.2879578e+44 4.4056577e+43 -1.6224488e+43)
(-9.3762135e+44 3.6505442e+43 -1.8430755e+43)
(-9.5157207e+44 4.1858793e+43 -1.5044709e+43)
(-9.275846e+44 4.717847e+43 -1.3121069e+43)
(-8.8319689e+44 4.9153602e+43 -1.1590262e+43)
(-8.8788704e+44 4.3722453e+43 -9.6263774e+42)
(-8.65407e+44 4.7972794e+43 -9.6738565e+42)
(-8.6053759e+44 5.2943844e+43 -1.1437757e+43)
(-9.3002995e+44 1.3752366e+43 3.1028784e+43)
(-9.33306e+44 2.4880757e+43 3.6086048e+43)
(-9.6946924e+44 3.02828e+43 7.9192498e+43)
(-9.6949485e+44 1.4034823e+43 7.5285607e+43)
(-9.7533197e+44 2.8640383e+43 7.4931461e+43)
(-9.2979054e+44 1.641301e+43 2.9239321e+43)
(-9.3314835e+44 2.4142074e+43 2.9784158e+43)
(-9.691178e+44 1.5526963e+43 7.3644797e+43)
(-9.4496377e+44 2.4057007e+43 1.13265e+43)
(-9.1215759e+44 2.1089365e+43 -1.6259863e+43)
(-9.0895748e+44 1.7974965e+43 -1.6984579e+43)
(-9.4131609e+44 1.5965256e+43 1.0546395e+43)
(-9.4396915e+44 2.5806753e+43 1.6548155e+43)
(-9.0960836e+44 1.7322003e+43 -1.6276619e+43)
(-9.1120103e+44 2.1402452e+43 -1.1911236e+43)
(-9.4182753e+44 1.5757704e+43 1.2175524e+43)
(-8.7309538e+44 3.7783112e+43 -1.0719343e+43)
(-8.4891776e+44 3.0462208e+43 -1.0985792e+43)
(-8.6086644e+44 3.6259593e+43 -1.3396715e+43)
(-8.7505341e+44 4.3927175e+43 -1.2473713e+43)
(-8.6824528e+44 5.5014578e+43 -1.2599288e+43)
(-8.6035563e+44 4.5173981e+43 -1.1986195e+43)
(-8.7004991e+44 5.335273e+43 -1.1745319e+43)
(-8.7445876e+44 6.6205846e+43 -1.0737425e+43)
(-8.4042561e+44 4.289502e+43 -8.5975638e+42)
(-8.5200855e+44 4.6848034e+43 -9.0317808e+42)
(-8.640253e+44 4.7380977e+43 -8.983644e+42)
(-8.4992435e+44 3.9167171e+43 -7.9158113e+42)
(-7.9000718e+44 2.5290103e+43 7.5986842e+43)
(-7.8673934e+44 1.3879891e+43 7.6195388e+43)
(-7.879835e+44 2.5345694e+43 7.5101979e+43)
(-7.8782328e+44 1.6106041e+43 7.2155091e+43)
(-6.9206019e+44 1.7827341e+43 7.2485816e+43)
(-6.905318e+44 7.6400097e+42 7.0493036e+43)
(-6.8868245e+44 6.3081229e+42 6.7199106e+43)
(-6.8969497e+44 1.4671094e+43 6.7005044e+43)
(-7.8943898e+44 2.2022361e+43 7.142781e+43)
(-7.8558405e+44 1.3474317e+43 7.1329454e+43)
(-7.9004817e+44 2.2326224e+43 7.6946466e+43)
(-7.9038014e+44 1.1203095e+43 7.3864757e+43)
(-7.9184755e+44 2.0138262e+43 7.3550371e+43)
(-7.8851201e+44 1.0036732e+43 7.3949197e+43)
(-7.9377354e+44 1.9055972e+43 7.4323358e+43)
(-7.9350512e+44 9.9372971e+42 7.1150294e+43)
(-7.9261229e+44 1.6232161e+43 7.228429e+43)
(-7.8980862e+44 7.0391608e+42 7.2416729e+43)
(-9.1621968e+44 1.1524897e+43 7.2368378e+43)
(-7.9300691e+44 1.8504305e+43 7.8538773e+43)
(-7.9421689e+44 6.5169614e+42 7.5225496e+43)