/*--------------------------------*- C++ -*----------------------------------*\
  =========                 |
  \\      /  F ield         | OpenFOAM: The Open Source CFD Toolbox
   \\    /   O peration     | Website:  https://openfoam.org
    \\  /    A nd           | Version:  7
     \\/     M anipulation  |
\*---------------------------------------------------------------------------*/
FoamFile
{
    version     2.0;
    format      ascii;
    class       volScalarField;
    location    "4000";
    object      k;
}
// * * * * * * * * * * * * * * * * * * * * * * * * * * * * * * * * * * * * * //

dimensions      [0 2 -2 0 0 0 0];

internalField   nonuniform List<scalar> 
33730
(
1.5207078
1.5237606
1.5173331
1.5190627
1.5213433
1.5189287
1.5224427
1.521213
1.5237314
1.5203897
1.5202368
1.524911
1.5170598
1.516491
1.516664
1.5169982
1.5189586
1.5182709
1.5190474
1.5178351
1.5193606
1.5181757
1.5178031
1.5191365
1.5211561
1.5189379
1.5216933
1.5229493
1.5232983
1.5225154
1.5250357
1.5204125
1.5193983
1.5253525
1.5250415
1.5252646
1.5255648
1.5202959
1.519517
1.5189572
1.5185675
1.5187094
1.5184867
1.522327
1.5227402
1.516319
1.5168715
1.5173618
1.5170086
1.517804
1.516258
1.516578
1.516532
1.5161296
1.5181569
1.5162371
1.5166715
1.5160482
1.5163546
1.5168359
1.5164362
1.5161716
1.5170014
1.5215914
1.5186481
1.519183
1.5175133
1.5179258
1.5182515
1.5185373
1.5173135
1.5179501
1.5173274
1.5179665
1.5179557
1.5202519
1.5183514
1.5175216
1.5181373
1.5173449
1.5173234
1.5179449
1.5179187
1.5212265
1.5207286
1.5216416
1.520893
1.5210802
1.5219082
1.5219659
1.5219012
1.5227683
1.5220083
1.5227831
1.5219321
1.5228234
1.5222952
1.5262277
1.525968
1.5259747
1.526265
1.5224771
1.5189468
1.5186124
1.5184839
1.5180851
1.5180054
1.5178313
1.5180757
1.5182517
1.5195227
1.5196035
1.5180217
1.518227
1.5187149
1.5185226
1.5181486
1.5178909
1.5182613
1.5184904
1.5198331
1.5197334
1.5198146
1.5197767
1.5205775
1.519791
1.5198588
1.5197606
1.5183776
1.5180235
1.5177509
1.5177709
1.5181811
1.5209106
1.5179339
1.517734
1.517758
1.521398
1.5216108
1.5216914
1.5223434
1.5172785
1.5167403
1.5162283
1.5167259
1.5172931
1.516898
1.5178439
1.518063
1.517784
1.5174404
1.5161898
1.5164989
1.5164406
1.5160635
1.5178125
1.5174067
1.5183932
1.5179872
1.5161471
1.5162307
1.5163149
1.5161344
1.5163844
1.5161272
1.5164799
1.516922
1.5160237
1.5160194
1.5160145
1.5160152
1.5160201
1.5160147
1.5163813
1.5163626
1.5166203
1.516951
1.5168922
1.5164123
1.5160439
1.5160995
1.5164073
1.5163815
1.5161637
1.5161101
1.516116
1.5160579
1.5163227
1.5168628
1.5165867
1.5171007
1.5217116
1.5212667
1.5220637
1.5218409
1.5186207
1.5187177
1.51846
1.5181136
1.5186965
1.5180552
1.5193518
1.5186274
1.5171012
1.5176409
1.5171471
1.5176737
1.5173496
1.5177338
1.5181787
1.5179413
1.5169858
1.5169754
1.5174492
1.5174444
1.5169776
1.5174589
1.5169975
1.517468
1.519657
1.5178754
1.5174823
1.5181218
1.5179512
1.5200643
1.5206214
1.5202835
1.5172102
1.5176869
1.5171414
1.5176364
1.5170254
1.5169995
1.5174714
1.5174846
1.5170008
1.5170004
1.517453
1.5174654
1.5202849
1.5202112
1.5209698
1.5209157
1.520399
1.5203563
1.5211218
1.5210857
1.5216077
1.521186
1.5204772
1.5207682
1.521289
1.5219311
1.521727
1.5218973
1.5217685
1.521958
1.5207551
1.5206083
1.5210652
1.5211859
1.5221224
1.521645
1.5217181
1.5213334
1.5214117
1.5223639
1.5219688
1.5214544
1.5213078
1.5213849
1.521242
1.5224075
1.5214271
1.520655
1.5211391
1.5209963
1.5181626
1.5177799
1.5180581
1.518371
1.5175331
1.5175114
1.5177767
1.5177909
1.5180696
1.5176754
1.5178175
1.5181609
1.5175391
1.5174445
1.5174234
1.5175559
1.517601
1.5176775
1.5174007
1.5174842
1.518039
1.5172938
1.5173652
1.5173493
1.5172791
1.517891
1.5173239
1.5173402
1.5174601
1.5174412
1.517462
1.517682
1.5178018
1.5175928
1.5177516
1.5176106
1.5179593
1.5182713
1.5175447
1.5174359
1.5175247
1.5174169
1.5175723
1.5178106
1.517917
1.5176983
1.5176847
1.5179336
1.518158
1.5179411
1.5177723
1.517526
1.5175058
1.517748
1.5174563
1.517351
1.5173295
1.517473
1.5173807
1.5173632
1.5172936
1.5173141
1.5175249
1.5176165
1.5179229
1.5179781
1.5179743
1.5175755
1.5177165
1.5180719
1.5191936
1.5192719
1.5194385
1.5194895
1.5192095
1.5192517
1.5194421
1.5194661
1.5192358
1.5192765
1.5194472
1.5194763
1.5193188
1.519494
1.5193494
1.5198624
1.5195154
1.5196294
1.5199859
1.5196407
1.5198098
1.5199406
1.5192774
1.5193629
1.5195054
1.5192306
1.5193285
1.5194716
1.5195322
1.5192191
1.5192834
1.5194636
1.5194978
1.5181055
1.5178136
1.5175289
1.5175672
1.5173506
1.5173457
1.5173587
1.5173718
1.5180527
1.5178482
1.5201063
1.5205115
1.5175881
1.5175318
1.5173712
1.5173595
1.5173903
1.5173766
1.5207632
1.5208196
1.5209562
1.5209168
1.5210138
1.5211437
1.521729
1.5217749
1.5218031
1.5180918
1.5186712
1.5171705
1.5166931
1.5161687
1.5160696
1.5161235
1.5167305
1.5172175
1.5168087
1.5165241
1.5169156
1.5177969
1.5180264
1.5177073
1.5174093
1.5161399
1.5162165
1.5161137
1.5164894
1.5164351
1.5160206
1.5159955
1.5160001
1.5178348
1.517826
1.517783
1.5177867
1.5175169
1.5173219
1.5176017
1.5173269
1.5185512
1.5178381
1.5177794
1.5184545
1.5173311
1.5183821
1.5176409
1.5180184
1.5163081
1.5161199
1.5165387
1.5162934
1.5163008
1.5164367
1.5161382
1.5160959
1.5161081
1.5161347
1.516179
1.5161216
1.5165325
1.5164502
1.5166696
1.5172268
1.5163363
1.5167443
1.5160053
1.5160068
1.5160171
1.5160224
1.5160108
1.5160103
1.5160066
1.5160102
1.5160054
1.5160102
1.5160628
1.5160446
1.5163633
1.5163949
1.5160448
1.5163735
1.5163688
1.5160448
1.5168316
1.5163616
1.5160346
1.5160402
1.5160276
1.5160366
1.5160683
1.516091
1.5160548
1.5160847
1.5160879
1.5163835
1.5161149
1.5163972
1.5160625
1.5163772
1.5160722
1.5163722
1.5160934
1.5160452
1.5162574
1.516307
1.5161944
1.5162678
1.516626
1.5169202
1.5165091
1.5169463
1.5162028
1.5164717
1.5162849
1.5165292
1.5165027
1.5169926
1.5167153
1.5171684
1.5215938
1.5215336
1.5222666
1.5208576
1.5213135
1.5220851
1.5213186
1.5224334
1.5223145
1.522302
1.5215259
1.5222445
1.5216842
1.5185185
1.5186427
1.5183523
1.5180367
1.5184539
1.5186854
1.5188709
1.5183931
1.5180497
1.5180524
1.5180094
1.5179875
1.5190066
1.5196767
1.518354
1.5189355
1.5179764
1.5187406
1.5180572
1.5186471
1.5166413
1.5166379
1.5173374
1.5173397
1.5173735
1.516663
1.5167017
1.517395
1.5168934
1.5168085
1.5175776
1.5176105
1.5175031
1.517154
1.5178425
1.5180208
1.516557
1.5165713
1.5172025
1.5171976
1.5165453
1.5165489
1.5171978
1.5171934
1.5165406
1.5165449
1.5172011
1.5171989
1.516556
1.5165815
1.5172135
1.517224
1.5194837
1.5191515
1.5197205
1.5199709
1.5173151
1.5176501
1.5180951
1.518012
1.5170135
1.5168952
1.5177718
1.517724
1.5197188
1.5196583
1.5202368
1.5202791
1.5166907
1.5167425
1.517469
1.5174506
1.5166497
1.5166599
1.5174031
1.5173819
1.5165657
1.5165983
1.5172555
1.5172457
1.5165538
1.5165468
1.5172341
1.5172307
1.5165622
1.5172294
1.5172266
1.5165544
1.5165661
1.516579
1.5172265
1.51722
1.5198692
1.519822
1.5204782
1.520497
1.5197901
1.5197657
1.5204112
1.5204451
1.5199735
1.5199445
1.5206063
1.5205947
1.5205748
1.5199247
1.5199026
1.5205485
1.521665
1.5214694
1.5215496
1.521631
1.5200707
1.5200214
1.5206837
1.5206527
1.520951
1.5206398
1.520268
1.5208277
1.5216827
1.5217402
1.5217328
1.5216776
1.5217895
1.5217197
1.5217813
1.5217135
1.5198399
1.5203129
1.5203634
1.5199407
1.5203374
1.5198539
1.5203483
1.5199098
1.5207168
1.5205837
1.5205405
1.5206231
1.5205793
1.5211123
1.5206468
1.5205264
1.5205738
1.5205985
1.5205636
1.520947
1.5207388
1.52078
1.5209413
1.5209796
1.5208333
1.5209758
1.5217352
1.5210369
1.5211562
1.5206851
1.5207273
1.5208168
1.5207769
1.521545
1.520774
1.5208698
1.5209116
1.5209966
1.5215981
1.5217806
1.5215976
1.5215019
1.5214542
1.5215497
1.5220087
1.5209426
1.5207381
1.520858
1.5208234
1.5207912
1.5208921
1.5208414
1.5207442
1.5213495
1.5207769
1.5206555
1.5206951
1.520736
1.5207102
1.5207483
1.5207058
1.5206677
1.5212911
1.5211706
1.5211212
1.5218083
1.5212006
1.52116
1.5205998
1.5206547
1.5208364
1.5207854
1.519984
1.520331
1.5198748
1.5203777
1.520685
1.5205498
1.5206017
1.5206343
1.5205182
1.5199303
1.5203592
1.5201531
1.5176215
1.5179541
1.5177254
1.5180076
1.5173399
1.5174254
1.5173786
1.5174581
1.5174025
1.5175587
1.5174423
1.5175893
1.5176943
1.517851
1.5180093
1.5181086
1.5171838
1.5171954
1.5172555
1.5172645
1.5172439
1.5171735
1.5171697
1.5172392
1.5172308
1.5172274
1.5173683
1.5173623
1.5172412
1.5172543
1.5173778
1.5173859
1.5175052
1.5178591
1.5175874
1.5179012
1.5172295
1.5172665
1.517295
1.5173273
1.5172684
1.5173666
1.5173072
1.5173987
1.5175517
1.5178991
1.5176574
1.5179581
1.5171096
1.5171903
1.5171061
1.5171852
1.517085
1.5170957
1.5171403
1.5171481
1.5170739
1.5171278
1.5170698
1.5171228
1.5171211
1.5171327
1.5172018
1.5172094
1.5175017
1.5173166
1.5175943
1.5173176
1.5175032
1.5174973
1.5172865
1.5175359
1.5173387
1.5171567
1.517113
1.5174208
1.5171182
1.5171634
1.5171262
1.51708
1.517171
1.5171262
1.5174912
1.5173177
1.5170415
1.5170342
1.5173166
1.5170425
1.5170488
1.517009
1.5170498
1.5170012
1.5170411
1.517002
1.5170423
1.5169902
1.5170293
1.5170345
1.5170224
1.5173027
1.5170317
1.5170434
1.5172095
1.5172213
1.5170211
1.5170088
1.5170614
1.5170484
1.5170291
1.51707
1.5170201
1.5170605
1.5170544
1.5171204
1.5170449
1.5171099
1.5170455
1.5171108
1.5170333
1.5170968
1.5171534
1.5171984
1.5171057
1.5171524
1.5175464
1.5175876
1.5173248
1.5173827
1.5176057
1.5176656
1.517377
1.5174572
1.5171871
1.517259
1.5171376
1.5172105
1.5174931
1.5174545
1.5173066
1.5173441
1.5172198
1.5172491
1.5172382
1.5172757
1.5172386
1.5173278
1.5172589
1.5173448
1.5178457
1.5174562
1.5175646
1.5179233
1.5171444
1.5171335
1.5172221
1.5172103
1.5171049
1.5170945
1.5171586
1.5171477
1.5171331
1.5172099
1.5171208
1.5171962
1.5170823
1.517095
1.5171477
1.5171343
1.5172485
1.5173072
1.5171962
1.5172572
1.5176859
1.5177346
1.5174539
1.5175251
1.5177575
1.5178194
1.517524
1.5176138
1.5172985
1.517384
1.5172443
1.5173322
1.5173786
1.5173225
1.517454
1.5174032
1.517845
1.5176167
1.5178963
1.5177017
1.5179258
1.5177095
1.5180204
1.5178403
1.5174539
1.5173983
1.5175891
1.5175383
1.5172718
1.5174008
1.5172596
1.5173879
1.5172099
1.5172793
1.5171981
1.5172675
1.5171971
1.5171846
1.5172649
1.5172524
1.5172558
1.5173833
1.5172442
1.5173702
1.5170247
1.5170926
1.5170203
1.517087
1.517013
1.5170237
1.5170548
1.5170628
1.5170023
1.5170426
1.5169973
1.5170371
1.5170357
1.517047
1.5171043
1.5171116
1.5169942
1.5170367
1.5170054
1.5170445
1.5169837
1.5170253
1.5169784
1.5170194
1.5170187
1.5170128
1.5170281
1.5170216
1.5170298
1.517038
1.5170475
1.517038
1.5171712
1.5172008
1.5172082
1.5171763
1.5171268
1.5171812
1.5171617
1.5172113
1.517466
1.5178161
1.5178369
1.5174683
1.517408
1.5174679
1.5177921
1.5178103
1.5174246
1.5174906
1.5177971
1.5178237
1.5171497
1.517201
1.5171848
1.5172321
1.5171749
1.5172566
1.5172116
1.5172878
1.5174535
1.5175432
1.517818
1.5178659
1.5189694
1.5188436
1.5188842
1.5189378
1.5188525
1.5189117
1.5189999
1.5189533
1.5193063
1.5193261
1.5192714
1.5192931
1.51928
1.5193114
1.5193204
1.5193479
1.5189225
1.5187984
1.5188505
1.5188762
1.5188193
1.5188777
1.5189565
1.518907
1.519284
1.5192279
1.5192614
1.5192517
1.519251
1.5192842
1.5192806
1.519312
1.518837
1.5187123
1.5187875
1.5187632
1.5187565
1.5188324
1.5188942
1.518823
1.5192054
1.5191384
1.5191939
1.5191509
1.5191867
1.5192377
1.5192046
1.5192546
1.5186554
1.5186814
1.5187454
1.5187794
1.5191443
1.5191507
1.5190714
1.5190787
1.5186938
1.5194124
1.5193765
1.5195302
1.5195554
1.5190744
1.5191921
1.5191947
1.5192739
1.5192739
1.5196743
1.5196427
1.5196648
1.5196941
1.5191858
1.5194331
1.5194197
1.5195632
1.5195687
1.5196758
1.519664
1.5196821
1.5196947
1.5190316
1.5190788
1.5190504
1.5191033
1.5189711
1.51902
1.5190715
1.5189936
1.5190626
1.5191392
1.5190889
1.5194135
1.5193453
1.5193709
1.519396
1.5190503
1.5189133
1.5189575
1.5190214
1.5189316
1.519
1.5190876
1.5190372
1.5193651
1.519381
1.5193152
1.5193364
1.5193232
1.5193596
1.5193749
1.5194036
1.519013
1.5188799
1.5189213
1.5189834
1.5188894
1.5189467
1.5190395
1.5189969
1.5193579
1.5192972
1.5193183
1.5193412
1.5193034
1.5193315
1.5193508
1.5193739
1.517785
1.5179966
1.5175243
1.5175613
1.5172899
1.5172914
1.5173239
1.5173502
1.5171595
1.5171528
1.5171503
1.5171539
1.5171583
1.5171543
1.5171824
1.5171681
1.5196013
1.5180645
1.5179693
1.5176722
1.5177255
1.5199028
1.5201904
1.5201441
1.517422
1.517401
1.517355
1.5173325
1.5171874
1.5171834
1.5171841
1.517178
1.5172121
1.5172011
1.5171906
1.5171875
1.5203391
1.5203017
1.5203885
1.520367
1.5204926
1.5204798
1.5204614
1.5204321
1.5205719
1.5205353
1.5208752
1.5214887
1.5207176
1.5215938
1.5216429
1.5216489
1.521688
1.5216817
1.5212461
1.5208484
1.5181066
1.5185902
1.5165941
1.5171365
1.5163515
1.516414
1.516117
1.5160749
1.5161223
1.516041
1.516086
1.5168789
1.5165375
1.5167351
1.5164354
1.5168563
1.5177552
1.517774
1.5178151
1.5180103
1.5177346
1.5173879
1.5175365
1.5173073
1.516104
1.5161966
1.5160994
1.5161971
1.5160766
1.515996
1.5159925
1.5159889
1.5159772
1.5159807
1.5178279
1.5177808
1.5176166
1.5173485
1.5179412
1.5186678
1.517899
1.5185953
1.5178263
1.5178423
1.5178525
1.5178237
1.5177772
1.5177935
1.5177981
1.517776
1.5178784
1.5178507
1.5185785
1.5185531
1.5174666
1.5172973
1.5172857
1.5175318
1.5177502
1.5184747
1.5178036
1.5185487
1.5176444
1.517671
1.5177037
1.517664
1.5176382
1.5173519
1.5183752
1.5180462
1.5162475
1.5163094
1.516271
1.5164185
1.5162817
1.5164896
1.5161019
1.5161208
1.5161265
1.5160964
1.5160946
1.5161306
1.5165825
1.5165095
1.5165215
1.5166629
1.5163167
1.5163045
1.5162714
1.516258
1.5161426
1.5161397
1.51613
1.5161242
1.5160966
1.5160992
1.5160881
1.5160799
1.5161447
1.5161423
1.5161183
1.5161137
1.5160881
1.5160921
1.516073
1.5160671
1.5164606
1.5162513
1.5162042
1.5164036
1.5161543
1.5161759
1.5163677
1.5163521
1.5167108
1.5165255
1.5167661
1.516537
1.5173707
1.5170025
1.5167105
1.5170206
1.5163344
1.5163219
1.5162475
1.5162403
1.5163483
1.5164804
1.5167316
1.5165811
1.5160019
1.5159971
1.5159997
1.516005
1.5160028
1.5160074
1.5159988
1.516001
1.516004
1.5160103
1.516017
1.5160075
1.516026
1.516023
1.5160193
1.5160186
1.5160094
1.5160081
1.5160088
1.5160064
1.516002
1.5160033
1.5160037
1.5160026
1.5160052
1.516007
1.5160084
1.5160091
1.5160291
1.5160266
1.5160169
1.5160169
1.5160042
1.5160073
1.5160037
1.5160078
1.5160924
1.5162741
1.5162791
1.5160931
1.5163226
1.5161258
1.5161046
1.5162941
1.5160035
1.5160072
1.5160076
1.5160037
1.5160865
1.5160894
1.5162779
1.5162747
1.5162807
1.5160928
1.5160953
1.5162895
1.516001
1.5160004
1.5160014
1.5160012
1.5169453
1.516688
1.5165367
1.5169182
1.5165055
1.5169121
1.5163932
1.5163546
1.5162362
1.5162913
1.5162021
1.5162612
1.516027
1.5160343
1.5160261
1.5160242
1.5160209
1.5160249
1.5160313
1.5160328
1.5160347
1.5160343
1.5160529
1.5160798
1.5160504
1.5160478
1.516044
1.5160482
1.5160628
1.5160697
1.5160821
1.5160812
1.5160471
1.5160421
1.516043
1.5160488
1.5162759
1.5161147
1.5161231
1.5162839
1.516061
1.5160601
1.5160811
1.5160836
1.5161542
1.5161348
1.5162928
1.5163101
1.5160238
1.5160187
1.5160183
1.5160251
1.5162875
1.5161013
1.5161076
1.5162875
1.5160319
1.5160304
1.5160339
1.5160359
1.5161122
1.5161124
1.5162811
1.5162797
1.5161017
1.5160748
1.5160543
1.5160838
1.5160465
1.5160425
1.5160355
1.5160293
1.5161824
1.5161736
1.5161522
1.5161685
1.5162075
1.5162293
1.516254
1.5162449
1.5163829
1.5164334
1.5164802
1.5164585
1.5169818
1.5167964
1.5167221
1.5170174
1.5161629
1.5161418
1.5161355
1.5161618
1.5163437
1.5161922
1.5162213
1.5163657
1.5161963
1.5161991
1.5162422
1.5162435
1.5162948
1.5162512
1.5163866
1.51642
1.5163488
1.516362
1.5164536
1.5164578
1.5166849
1.5166949
1.5170452
1.5170789
1.5164962
1.5163815
1.5164961
1.516595
1.5171242
1.5167225
1.5168277
1.5171897
1.5217158
1.5216438
1.5223616
1.5209071
1.5214657
1.5221918
1.5214159
1.5224592
1.5224627
1.5224983
1.5224956
1.5225072
1.5225064
1.5223008
1.5223
1.5223502
1.522297
1.5223608
1.5224239
1.5217517
1.521358
1.5214162
1.5219948
1.522448
1.5223815
1.5222525
1.522212
1.5220994
1.5214258
1.5220402
1.5214777
1.5184246
1.5183903
1.5186727
1.5185788
1.5183275
1.5179746
1.5179828
1.5180272
1.5188501
1.5183588
1.5180404
1.5179783
1.5187886
1.5190945
1.5192904
1.518744
1.519487
1.5187859
1.5200956
1.5193531
1.5183069
1.5183681
1.5183655
1.5182674
1.5184274
1.5190266
1.5183069
1.5189067
1.5179905
1.5179661
1.5179949
1.5179587
1.5181568
1.5188326
1.5181035
1.5187674
1.518037
1.5180588
1.5180717
1.5180328
1.5180708
1.5180261
1.5187495
1.5187085
1.5165824
1.5165792
1.5166028
1.5166447
1.5168357
1.5167461
1.517467
1.5171
1.516496
1.5165106
1.5164846
1.5164912
1.5164816
1.5164889
1.5164966
1.516525
1.5198151
1.5189587
1.5188698
1.5197807
1.5184345
1.5186735
1.519561
1.5193963
1.5172269
1.5175704
1.516929
1.5168086
1.5200489
1.5191243
1.519082
1.5200391
1.5190447
1.5190354
1.5200098
1.5199846
1.5166172
1.516668
1.5165776
1.5165885
1.5165042
1.5165325
1.5164913
1.5164865
1.516501
1.5164913
1.5165039
1.5165166
1.5192021
1.5192555
1.5202102
1.5202019
1.5191482
1.519154
1.5201839
1.520175
1.5191305
1.519114
1.5201532
1.5201458
1.5201253
1.5191067
1.5191193
1.5201125
1.5193639
1.5193256
1.5203057
1.5202999
1.5202912
1.5192945
1.5192974
1.5202846
1.5192687
1.5192891
1.5202712
1.5202642
1.5192687
1.5192576
1.5202464
1.5202387
1.5217736
1.5216122
1.5217448
1.5215968
1.5216295
1.5213589
1.5214995
1.521395
1.5194272
1.5194912
1.520397
1.5203842
1.5193994
1.5193958
1.5203531
1.5203456
1.5201326
1.5205233
1.5208162
1.520756
1.5196339
1.5197759
1.5205704
1.5205397
1.521845
1.5218427
1.521668
1.5216712
1.5218451
1.5218329
1.5216658
1.5216614
1.5217175
1.5218969
1.5219041
1.5217168
1.5218973
1.5218874
1.521708
1.5217112
1.5195573
1.519156
1.5195832
1.5192245
1.5198391
1.5198845
1.5197857
1.5198336
1.5198446
1.5199165
1.5197917
1.5198664
1.5195612
1.5196215
1.5191784
1.5192793
1.5199578
1.5199041
1.5203601
1.5200247
1.5199675
1.519644
1.519239
1.5199168
1.5197163
1.5192758
1.5198709
1.5198934
1.5198155
1.5198415
1.5195783
1.5191496
1.5195916
1.519211
1.520311
1.5198364
1.5201019
1.5200723
1.5206165
1.5201635
1.5201344
1.5200673
1.5200162
1.5205768
1.5201313
1.5200779
1.5200046
1.5200448
1.5199746
1.5200145
1.5199708
1.5200079
1.5199203
1.519958
1.5205459
1.5205089
1.5199902
1.5200804
1.5199597
1.5200503
1.5199432
1.5199987
1.5198936
1.5199499
1.51998
1.5200389
1.5199495
1.5200085
1.5199496
1.5200371
1.519901
1.5199887
1.5198982
1.5203324
1.5203358
1.5199117
1.5205757
1.5205448
1.5205142
1.5205419
1.5202434
1.5202039
1.5203465
1.5203116
1.5202743
1.5202584
1.5203784
1.5203638
1.5203283
1.5202942
1.5204812
1.5204507
1.5203598
1.5203461
1.5205122
1.5204993
1.520353
1.5203063
1.5204547
1.5204142
1.5205001
1.5207138
1.520777
1.5206027
1.5214197
1.5215396
1.5215938
1.5214959
1.5204389
1.5203973
1.5205893
1.5205536
1.5205897
1.520775
1.5208786
1.5207324
1.5201126
1.5201937
1.5200665
1.5201497
1.5201416
1.5202242
1.5201232
1.5202061
1.5201888
1.5201714
1.5203007
1.5202839
1.5201582
1.5201151
1.5202698
1.5202293
1.5213993
1.5215247
1.5215351
1.5214257
1.5202174
1.5202983
1.5201665
1.5202505
1.5202658
1.5202166
1.5203767
1.5203313
1.5205976
1.5206532
1.5203507
1.5204361
1.5204091
1.5206439
1.5207183
1.520519
1.5215919
1.5215811
1.521577
1.5215879
1.5215976
1.5216482
1.5215926
1.5216435
1.5215733
1.5215512
1.5215544
1.5215701
1.5215281
1.5215392
1.5213584
1.5214793
1.5214887
1.5214517
1.5213764
1.5213749
1.5215185
1.5214997
1.5214046
1.5213269
1.5205421
1.5206095
1.52029
1.5203836
1.5201569
1.5201067
1.520214
1.5201651
1.5205124
1.520558
1.5202671
1.5203304
1.5201667
1.5202571
1.5201158
1.5202079
1.5201749
1.5202183
1.5201269
1.5201702
1.5204966
1.5205376
1.5202729
1.5203216
1.520543
1.5203564
1.52057
1.5208664
1.5204013
1.520265
1.5202198
1.5207846
1.5202745
1.5203186
1.5207907
1.5207138
1.5200929
1.5200737
1.5201841
1.5201649
1.5200582
1.5200083
1.5201151
1.5200665
1.5200857
1.5201433
1.5200661
1.5201236
1.5200647
1.5200166
1.5201551
1.5201081
1.5200824
1.5201231
1.5200313
1.5200728
1.5201085
1.5201504
1.520089
1.5201305
1.5202033
1.5201839
1.5207454
1.5202601
1.5202413
1.5201777
1.5201268
1.5207085
1.5202371
1.5201857
1.5206769
1.5206409
1.5208146
1.5207804
1.520726
1.5207513
1.5206566
1.5206896
1.5207138
1.5206791
1.5216268
1.521681
1.5216862
1.521633
1.521317
1.5208098
1.5207778
1.5207446
1.5207667
1.5207314
1.5207108
1.5206838
1.5206999
1.5205814
1.5205532
1.5201259
1.5200818
1.5202265
1.5201863
1.5201748
1.520277
1.5201475
1.5202526
1.5202605
1.5204054
1.5202366
1.5203839
1.5202108
1.5201705
1.5203556
1.5203185
1.519723
1.5194133
1.5192931
1.5196462
1.5198853
1.5198333
1.5199535
1.5199041
1.5192392
1.5196062
1.5196526
1.5193249
1.5199296
1.5200157
1.5199685
1.5198778
1.5200888
1.5201988
1.5200599
1.520171
1.5199962
1.5199482
1.5200755
1.5200291
1.5200399
1.520122
1.5200099
1.5200929
1.5200419
1.5199958
1.5201499
1.5201054
1.5200782
1.5201962
1.5200304
1.5201538
1.5197213
1.5193839
1.5197795
1.5194895
1.5200014
1.5200839
1.5199516
1.5200388
1.5197854
1.5194659
1.5198966
1.5196259
1.5173479
1.5173997
1.5174354
1.517391
1.517885
1.5176402
1.5176959
1.5179085
1.5174909
1.517386
1.5174581
1.5174279
1.5179132
1.5179415
1.5176769
1.5177412
1.5171698
1.5171275
1.5171706
1.5171276
1.5171623
1.5172212
1.517221
1.5171638
1.5172234
1.5171609
1.5172058
1.5171825
1.5171982
1.5172569
1.5172203
1.5172748
1.5172544
1.5172123
1.5172536
1.5172143
1.5173155
1.5172442
1.5172468
1.5173157
1.5172712
1.5173103
1.5172489
1.5172914
1.5173503
1.5172823
1.5173059
1.5173705
1.5174435
1.5174941
1.5175254
1.5174823
1.517558
1.5174788
1.517516
1.5175884
1.517721
1.5179447
1.5177752
1.5179646
1.5178226
1.5179678
1.5180067
1.517754
1.517002
1.5170414
1.5170363
1.516997
1.5170215
1.5170103
1.5170505
1.5170596
1.5170369
1.5170884
1.5170841
1.517033
1.5170578
1.5170459
1.5170977
1.5171067
1.5170328
1.5170836
1.5170788
1.5170283
1.5170317
1.5169983
1.5170371
1.5169929
1.5169965
1.5170353
1.5170289
1.5169904
1.5170321
1.5170824
1.5170762
1.5170266
1.5170796
1.5171162
1.5171123
1.5170756
1.5170791
1.5171154
1.5171101
1.5170738
1.5171701
1.5171123
1.5171758
1.5171087
1.5171115
1.517172
1.5171671
1.5171072
1.517084
1.517121
1.5171177
1.5170807
1.5171049
1.5170932
1.5171313
1.5171409
1.5171161
1.517178
1.5171735
1.5171135
1.5171387
1.5171261
1.5171877
1.5171978
1.5171968
1.517242
1.5172827
1.5172445
1.5177655
1.5175066
1.5175556
1.5177911
1.5172217
1.5172815
1.5173209
1.5172692
1.5177932
1.517531
1.5175873
1.5178216
1.5169936
1.5170301
1.5170287
1.5169939
1.5170255
1.517063
1.517078
1.5170435
1.5170157
1.5170632
1.5170616
1.5170162
1.5170485
1.5170959
1.5171114
1.5170679
1.5170844
1.5170493
1.5170863
1.5170493
1.5170758
1.5171362
1.5171339
1.5170751
1.5171364
1.5170818
1.5171196
1.5171018
1.5171085
1.5171691
1.5171298
1.5171863
1.5172619
1.5173083
1.5173468
1.5173076
1.5178236
1.5175639
1.5176152
1.5178472
1.5173629
1.5174001
1.5172925
1.5173371
1.5178521
1.517595
1.5176613
1.5178842
1.5169499
1.5169219
1.5169557
1.5169169
1.516949
1.5170022
1.516996
1.5169432
1.5169143
1.5169469
1.5169217
1.5169546
1.5169473
1.5170001
1.5169406
1.5169927
1.5168766
1.5169098
1.5169049
1.5168728
1.5168867
1.5169195
1.516926
1.5168952
1.5169343
1.5168978
1.51694
1.5168937
1.5169556
1.5169072
1.5169487
1.5169168
1.5168978
1.5168697
1.5169025
1.5168659
1.516891
1.5169327
1.5169274
1.5168869
1.516894
1.5168702
1.5169026
1.5168622
1.5168914
1.5169325
1.5168839
1.5169241
1.5169286
1.5169622
1.5169558
1.5169234
1.516937
1.5169707
1.516947
1.516979
1.517007
1.5170007
1.5169541
1.5169479
1.5169733
1.516962
1.5170154
1.5170235
1.5169661
1.5169485
1.5170947
1.5170625
1.5167797
1.5167632
1.5166429
1.5166385
1.5174859
1.5174341
1.5172579
1.5173211
1.5166284
1.5169279
1.5171197
1.5172215
1.5171759
1.5170774
1.5167873
1.5168967
1.5168724
1.5167683
1.5172731
1.5172448
1.5173286
1.5171886
1.5168752
1.5170008
1.5169026
1.5169687
1.516561
1.5165594
1.5166741
1.5166661
1.5166378
1.5166262
1.5165259
1.5165239
1.5170763
1.517119
1.517171
1.5171293
1.5165176
1.5165523
1.5166774
1.5167689
1.5167583
1.5166691
1.5166403
1.5167292
1.5167132
1.5166284
1.516852
1.5167695
1.5167586
1.5168389
1.5167124
1.5167897
1.5167287
1.5168089
1.5174118
1.5173698
1.5172544
1.5172002
1.5170436
1.5170838
1.5171206
1.5170812
1.5164795
1.5164786
1.5165837
1.5165776
1.5165723
1.5165642
1.5164643
1.5164641
1.5170056
1.5170126
1.5170606
1.5170541
1.5164584
1.5164728
1.5165851
1.5165794
1.516661
1.5166689
1.5166675
1.5167427
1.5167346
1.5166602
1.5166484
1.5165729
1.5166589
1.5165659
1.5166568
1.5167334
1.5166474
1.5167218
1.51657
1.5165655
1.5166566
1.5166494
1.5166486
1.5167325
1.5167246
1.5166547
1.5165716
1.5165654
1.5166464
1.5166566
1.5166552
1.5166463
1.5167312
1.5167196
1.516461
1.5164611
1.5165687
1.5165631
1.5165701
1.5165625
1.5164631
1.5164635
1.5170064
1.5170547
1.5170434
1.5169952
1.5164571
1.5164552
1.5169663
1.5169764
1.5170005
1.5170114
1.5169756
1.5169835
1.5170178
1.5170107
1.516729
1.516784
1.5167768
1.5167223
1.516718
1.5167284
1.5167821
1.5167704
1.5168247
1.5167782
1.5168313
1.5167722
1.5167666
1.5168172
1.5167771
1.5168289
1.5167853
1.5167395
1.516793
1.5167321
1.5167874
1.5168395
1.5168321
1.5167804
1.5167729
1.5167298
1.5167842
1.5167193
1.5167783
1.5168309
1.5167681
1.5168197
1.516863
1.5168328
1.5168703
1.5168259
1.5169085
1.5168616
1.5168544
1.5169005
1.5168136
1.5168509
1.516824
1.5168617
1.5168994
1.5168526
1.5168427
1.5168886
1.5168245
1.5168627
1.5168565
1.5168188
1.516901
1.5168538
1.5168483
1.5168946
1.5168231
1.5168122
1.5168602
1.5168488
1.5168981
1.5168417
1.5168864
1.5168523
1.5168968
1.516851
1.5169102
1.5168378
1.5169071
1.5169642
1.5169505
1.5168934
1.5168067
1.5167873
1.5168639
1.5168432
1.5168594
1.5168384
1.5169156
1.5168937
1.5173504
1.5172848
1.5174124
1.5173472
1.5173566
1.5174134
1.5174322
1.5174857
1.5170412
1.5170061
1.5170768
1.5169708
1.5170804
1.5170411
1.5171486
1.5171086
1.5175051
1.5174224
1.5175464
1.5174676
1.5174744
1.5175228
1.5175647
1.5176071
1.5171078
1.5171589
1.5171521
1.5172027
1.5172046
1.517156
1.5172635
1.5172159
1.5169883
1.5169605
1.5170027
1.5169461
1.5170488
1.516997
1.5169816
1.5170325
1.5168878
1.5169284
1.5169102
1.5169508
1.5169945
1.5169435
1.5169203
1.5169707
1.517354
1.5173104
1.5172024
1.5171484
1.517306
1.5172769
1.5171247
1.5171619
1.5170638
1.5170371
1.5170082
1.5170325
1.5170136
1.5170485
1.5170898
1.5170532
1.5169362
1.5169444
1.5169706
1.5169621
1.5169633
1.516945
1.5169538
1.5169921
1.5169841
1.5169848
1.5169454
1.5169378
1.5169754
1.5169521
1.516958
1.5169948
1.5169877
1.5170053
1.5170142
1.5169722
1.5169795
1.5170124
1.5170051
1.5170009
1.5170458
1.517039
1.5169935
1.5170229
1.5169893
1.5169999
1.5170312
1.5170209
1.5170105
1.5170563
1.5170637
1.5177885
1.5174023
1.5174617
1.5178067
1.5171494
1.5171217
1.5171633
1.5171882
1.5172017
1.517145
1.5171748
1.5172288
1.517813
1.5174376
1.5175031
1.5178404
1.5171443
1.5169568
1.5169923
1.5169828
1.5169474
1.516945
1.5169798
1.5169357
1.5169707
1.517031
1.5169871
1.5170407
1.5169772
1.5169652
1.5170182
1.5169732
1.517027
1.5168992
1.5169335
1.516925
1.5168913
1.5168897
1.5169238
1.5169135
1.5168798
1.5169568
1.516923
1.516966
1.5169145
1.5169449
1.5169127
1.5169552
1.5169032
1.5169763
1.5169484
1.5169834
1.5169419
1.5169777
1.5170296
1.5170229
1.516971
1.5169352
1.5169689
1.5169456
1.5169795
1.5169746
1.5170253
1.5169648
1.5170152
1.5168897
1.5168788
1.5169115
1.5169228
1.5168916
1.5169262
1.5169195
1.5168858
1.5169093
1.5169155
1.5169581
1.5169511
1.5169542
1.5169131
1.5169025
1.5169431
1.517064
1.5170431
1.5170816
1.5170254
1.5170747
1.5171214
1.5171024
1.5170556
1.5170001
1.5169868
1.517024
1.5169622
1.517015
1.5170618
1.5169902
1.5170371
1.5176258
1.5175294
1.5176594
1.5175691
1.5175739
1.5176166
1.5176775
1.5177119
1.5172599
1.5172656
1.5173097
1.5172129
1.5173107
1.5172551
1.5173629
1.5173095
1.517732
1.5176654
1.5177623
1.5176234
1.5177862
1.5176765
1.5178208
1.5177253
1.5173067
1.5173539
1.5173658
1.5174089
1.5174765
1.5174164
1.5173559
1.5174209
1.5171353
1.5171162
1.5171553
1.5170956
1.5172119
1.5171544
1.5171324
1.5171914
1.5170287
1.5170684
1.5170544
1.5170928
1.5171486
1.5170895
1.5170642
1.517124
1.5172154
1.5172592
1.5172403
1.517194
1.5171248
1.5171503
1.5171947
1.517171
1.5172634
1.5173175
1.5172999
1.5172433
1.517172
1.517197
1.5172539
1.5172305
1.517847
1.5178739
1.517784
1.5177409
1.5174884
1.5175328
1.5174804
1.517428
1.5179006
1.5179277
1.5178437
1.5177997
1.5175451
1.5175998
1.5175499
1.5174875
1.5179554
1.5179769
1.5178983
1.5178606
1.517613
1.5176535
1.5176064
1.5175577
1.5180057
1.5180387
1.5179616
1.5179155
1.5176667
1.5177248
1.5176788
1.5176136
1.5173226
1.5173631
1.5173469
1.5173037
1.5172321
1.5172571
1.5172987
1.5172762
1.5173683
1.51743
1.5174125
1.5173501
1.5172775
1.5173017
1.5173659
1.5173439
1.5171284
1.5171588
1.5171659
1.5171206
1.5172253
1.5171652
1.5171575
1.5172161
1.517145
1.5171135
1.5171512
1.5171072
1.5172075
1.5171492
1.5171437
1.517202
1.5170393
1.5170793
1.5170705
1.5170299
1.5171291
1.5170782
1.5170695
1.5171211
1.517025
1.5170174
1.5170653
1.5170578
1.5171149
1.5170569
1.5171078
1.5170636
1.5170268
1.5170657
1.5170601
1.5170211
1.5170138
1.5170232
1.5170609
1.5170516
1.517108
1.5170631
1.5171129
1.5170583
1.51705
1.5170987
1.5170589
1.5171079
1.5171106
1.5171065
1.5171471
1.5171433
1.5172037
1.5171412
1.517199
1.5171446
1.5171063
1.517142
1.5171336
1.5170974
1.5171909
1.5171401
1.5171987
1.5171321
1.5168397
1.5168083
1.5168438
1.5168047
1.5168345
1.5168801
1.5168756
1.5168311
1.5168001
1.5168349
1.5168083
1.5168437
1.5168349
1.5168801
1.516827
1.5168711
1.5167268
1.5167784
1.5167732
1.5167223
1.5167439
1.5167413
1.516792
1.5167932
1.5168182
1.5167723
1.5168228
1.5167684
1.5167901
1.5168378
1.5167855
1.516835
1.5167666
1.5167204
1.5167716
1.5167157
1.5167658
1.5168156
1.516811
1.5167618
1.516761
1.5167189
1.5167704
1.5167104
1.516765
1.516815
1.5167569
1.5168057
1.5168153
1.5168511
1.5168468
1.5168118
1.5168272
1.5168627
1.5168332
1.5168675
1.5168874
1.5168827
1.5168415
1.5168381
1.5168606
1.5168528
1.5168979
1.5169033
1.5165775
1.5165749
1.5166585
1.5166533
1.5166528
1.5167303
1.5167245
1.5166566
1.5165971
1.5165983