/*--------------------------------*- C++ -*----------------------------------*\
  =========                 |
  \\      /  F ield         | OpenFOAM: The Open Source CFD Toolbox
   \\    /   O peration     | Website:  https://openfoam.org
    \\  /    A nd           | Version:  7
     \\/     M anipulation  |
\*---------------------------------------------------------------------------*/
FoamFile
{
    version     2.0;
    format      ascii;
    class       surfaceScalarField;
    location    "4000";
    object      phi;
}
// * * * * * * * * * * * * * * * * * * * * * * * * * * * * * * * * * * * * * //

dimensions      [0 3 -1 0 0 0 0];

internalField   nonuniform List<scalar> 
100394
(
5.4954829e+21
-1.9174821e+22
-1.8836677e+22
-1.9400749e+22
-2.3298635e+21
-1.8796749e+22
7.1201216e+21
6.5590418e+21
-9.4159018e+22
-1.7546441e+21
-2.3963241e+21
-6.412166e+21
-1.89073e+22
-1.9326584e+22
-1.7213994e+22
-1.6655814e+22
-7.3985406e+21
-4.3830492e+21
-6.8370006e+20
2.2546875e+21
-3.827718e+21
-4.8350456e+21
-3.9883478e+21
-4.5828487e+21
-4.9153605e+20
-1.6340852e+22
-4.054963e+21
1.8732028e+21
-3.8439658e+21
-3.8993967e+21
-4.4823029e+21
-1.041665e+21
-4.6353557e+21
1.0116718e+21
-1.9800264e+22
-2.0355886e+22
-1.8258014e+22
-1.938051e+22
-1.7190316e+21
-1.5961976e+22
-8.2222921e+20
-4.9419421e+21
6.0556881e+21
-4.7446022e+21
-4.309497e+21
3.438013e+21
3.894063e+21
-3.9309067e+21
5.548019e+21
-4.4564129e+21
-6.4218418e+20
1.8352896e+21
1.80241e+21
-2.1239777e+22
-1.8304272e+20
-2.6010119e+20
1.6220888e+21
1.745949e+21
-2.0873347e+22
-3.0421647e+20
-2.628623e+20
-9.2809419e+20
7.1106972e+21
6.858326e+21
-9.3411742e+22
-1.622177e+21
-2.0764806e+21
-6.0144316e+20
1.1209512e+21
-4.0743668e+21
-4.6337694e+21
-4.4916053e+21
-3.9387216e+21
1.2392032e+21
-1.1094807e+21
-3.9972357e+21
-4.5239034e+21
-4.6270109e+21
-4.018227e+21
1.0032632e+21
-1.6546939e+21
-3.599841e+21
-3.1064342e+21
-3.6070088e+21
-3.1368717e+21
-3.5296051e+21
-3.2096355e+21
-3.675716e+21
-3.0016275e+21
-1.8889055e+22
-1.6539291e+22
-1.5061161e+22
-1.9446843e+22
-1.6529905e+22
-5.6716408e+18
-9.4315802e+20
6.2832102e+20
-7.8438286e+20
-7.617407e+20
-1.0357518e+21
-9.8409401e+20
9.2872485e+20
2.0197275e+19
-6.5087667e+19
-3.8835897e+21
-8.176164e+19
6.0965224e+20
-7.701615e+20
-1.0041141e+21
-7.8293859e+20
-1.0359703e+21
-3.7773331e+21
1.3415797e+20
-8.5446243e+20
5.3150597e+20
-7.6285402e+20
-1.3830931e+20
-9.7353448e+20
-7.6840614e+20
-1.0120627e+21
-8.9416024e+20
6.0382172e+20
-7.8670429e+20
-7.5797012e+20
-1.0313823e+21
-9.8060443e+20
8.1863989e+19
-3.7013841e+21
-9.5156082e+19
-1.1035414e+21
-4.2287729e+21
1.5427553e+21
-3.8259428e+21
-4.4289073e+21
-4.0543528e+21
-4.743166e+21
-3.7667905e+21
-3.7520723e+21
9.8998181e+20
-4.0061143e+21
-4.0014078e+21
-1.2572228e+21
-4.6541649e+21
-4.7784241e+21
-5.4003532e+20
-1.5658282e+22
-1.6259105e+22
-5.5518519e+20
-9.6237199e+21
-2.2242937e+22
-2.0770232e+22
-2.3171628e+22
-2.1236612e+22
-4.2308215e+21
5.6777888e+21
-4.5692364e+21
-4.2235198e+21
3.6056139e+21
4.0036454e+21
-3.8386445e+21
6.0117042e+21
-5.5374318e+20
-1.6087559e+22
1.3223251e+21
1.3478556e+21
-8.0250782e+20
-8.3037245e+20
1.5981679e+22
3.0930216e+20
-5.1990902e+20
-1.0367452e+21
-1.0616841e+21
1.011159e+21
9.6567245e+20
-2.0394073e+22
1.2417263e+22
4.6608984e+20
-6.9780779e+20
4.3414366e+20
-6.0600833e+20
-1.2978846e+22
-7.0978336e+20
-8.3670773e+20
-8.5794412e+20
1.2116853e+21
1.2953591e+21
-2.0394308e+22
1.0066385e+21
-1.1136421e+21
-1.0526721e+21
1.0011049e+21
-5.0092653e+19
3.8837893e+20
3.7335796e+20
-4.6507359e+21
-4.0265588e+19
-4.7837003e+19
-5.5317579e+19
3.741719e+20
3.8747481e+20
-4.8008987e+21
-4.9019204e+19
-5.0194266e+19
5.6211155e+19
3.5272092e+20
3.7085322e+20
-4.584789e+21
-5.2338282e+19
-9.5549189e+19
-5.2708759e+19
3.7786248e+20
3.6331861e+20
-4.6660505e+21
-4.9277971e+19
-5.4611585e+19
-6.479293e+20
1.7106934e+21
1.7636073e+21
-2.0535109e+22
-2.1346562e+20
-2.8634842e+20
1.6325195e+21
1.7648318e+21
-2.0803762e+22
-2.8019494e+20
-3.2174292e+20
-9.75164e+20
-5.531704e+20
-1.8194514e+19
-5.4766759e+19
6.4518071e+20
-4.0934145e+21
-7.1289337e+19
1.0404783e+19
-1.5010835e+21
-3.6249715e+21
5.4962036e+20
-1.4706388e+21
-3.590504e+21
6.3200319e+20
-4.0580817e+21
1.4061188e+21
-1.2292628e+21
-4.103224e+21
-4.6709649e+21
-4.4693954e+21
-3.8985453e+21
-5.5315995e+20
9.1972022e+19
6.5168698e+20
-1.0296892e+20
-4.0847647e+21
3.4595609e+19
-1.4624902e+21
-3.7420276e+19
-3.611748e+21
5.5074385e+20
-1.515051e+21
-3.617703e+21
6.4196962e+20
-4.072247e+21
-1.7255191e+21
-3.7377965e+21
-3.491956e+21
-3.2511453e+21
-3.0386927e+21
1.9350548e+20
1.1241029e+20
-1.4098711e+20
-8.6644619e+20
-8.4197946e+20
-6.9589168e+20
-7.0876466e+20
2.2362097e+20
-3.0339132e+20
-5.8692778e+20
-5.8916171e+20
-5.7023934e+20
-5.5532275e+20
1.7178476e+20
7.191223e+19
-8.3444607e+20
-8.6260428e+20
-6.8806509e+20
-7.1120959e+20
2.0343083e+20
-6.0826608e+20
-5.8414284e+20
-5.8992697e+20
-5.5873848e+20
1.2237401e+19
1.5016762e+20
-8.5929579e+20
-8.312978e+20
-6.8703311e+20
-7.0849279e+20
-1.6666882e+20
9.3709528e+19
-5.9570632e+20
-6.0225739e+20
-5.6970688e+20
-5.5592147e+20
-8.6335499e+20
-8.4223883e+20
-7.0950216e+20
-6.9795828e+20
-6.0231148e+20
-5.8011534e+20
-5.6816153e+20
-5.399811e+20
-1.96208e+22
-1.8443667e+22
-1.6420721e+22
-1.5485311e+22
1.4240274e+21
-2.1407481e+21
-3.9813396e+21
-4.5375099e+21
-4.5855493e+21
-3.9769242e+21
-2.7937038e+21
-3.5917199e+21
-3.5481697e+21
-2.9044907e+21
-3.0033284e+21
-1.7099009e+19
-1.8893704e+20
6.6205587e+18
1.6491131e+20
-1.5623694e+20
-2.1230791e+20
-1.6078424e+20
-2.2054932e+20
-1.9295113e+20
1.6657235e+20
-1.5911649e+20
-1.5558909e+20
-2.0881798e+20
-2.1878674e+20
-1.0091715e+19
5.1112148e+18
-8.3132931e+20
-8.1123001e+20
-1.9222064e+20
7.8089364e+18
1.347513e+18
1.6167305e+20
-1.5609035e+20
-1.6072061e+20
-2.1091158e+20
-2.2104762e+20
3.2923827e+18
2.0630494e+18
-8.2751818e+20
-1.9296932e+20
1.7165552e+20
-1.5973609e+20
-2.2043725e+20
-1.55373e+20
-2.116488e+20
-8.3306118e+20
-1.8291528e+20
1.9147177e+19
1.5498251e+20
-8.7142205e+18
-1.5657212e+20
-1.6001882e+20
-2.0957144e+20
-2.1919166e+20
-9.0123654e+20
-9.2761196e+19
5.5907238e+20
-7.513195e+20
-7.8719749e+20
-1.025336e+21
-9.654733e+20
8.5554312e+18
-8.0982498e+20
-2.4592334e+18
-1.8558716e+20
9.607626e+18
1.6924014e+20
-1.5949249e+20
-2.1886724e+20
-1.5416399e+20
-2.0999568e+20
2.9786157e+18
-8.2121974e+20
-4.9062041e+18
-1.8654009e+20
1.6661806e+20
-1.5706998e+20
-1.6068278e+20
-2.2126146e+20
-2.1325407e+20
-1.9086112e+20
1.7214524e+20
-1.597771e+20
-1.5529729e+20
-2.0860424e+20
-2.1913419e+20
-6.3413511e+18
-8.3073987e+20
-8.1242523e+20
-3.1500577e+19
-3.6831058e+21
-8.6660517e+20
-2.0787915e+20
4.98849e+20
-7.7594044e+20
-7.7426688e+20
-9.9768803e+20
-1.0235828e+21
-1.0277212e+20
-3.7748922e+21
-2.3491424e+20
-8.5439912e+20
4.6568198e+20
-7.998247e+20
-7.5863519e+20
-1.0416201e+21
-9.9028156e+20
-7.8573721e+20
3.5224859e+20
-2.1929098e+20
-1.0268824e+21
-7.834818e+20
-7.8241831e+20
-9.9075894e+20
-3.9747867e+21
-1.9869739e+21
2.8130193e+20
-4.0038293e+21
-4.9109418e+21
-4.2671735e+21
-4.6377518e+21
1.0507747e+20
-3.802619e+21
-1.0984102e+20
-3.8656859e+21
-8.6877238e+20
-1.6509406e+22
-3.482229e+21
-1.2939522e+20
-4.1382304e+21
-4.7662557e+21
-2.8899126e+20
1.5678155e+22
1.0168883e+21
-1.0012379e+21
-1.0475256e+21
9.9940041e+20
-2.0107418e+22
-1.5626171e+22
4.5132693e+20
1.3204875e+21
1.2411724e+21
-8.4670769e+20
-8.5666893e+20
-8.0941042e+20
-5.9332985e+20
9.3314631e+20
-1.0794717e+21
9.7425303e+20
-1.1066823e+21
-1.9612313e+22
1.2499765e+22
4.8205402e+20
6.0153666e+20
-1.2262246e+22
1.2507282e+21
-7.6614789e+20
-8.5359508e+20
1.2653089e+21
-4.2124359e+19
-3.6341298e+21
-1.4750136e+20
-1.563863e+20
3.0466681e+20
2.9776475e+20
-3.7278583e+21
-6.6327408e+19
-1.5747419e+20
-1.5255528e+20
3.01887e+20
3.0716109e+20
-3.1644774e+19
-4.4842615e+21
-2.0080568e+20
-2.1082768e+20
2.3611196e+20
2.3217964e+20
-7.6676229e+19
-4.5818166e+21
2.3997943e+20
-2.1033033e+20
-2.028965e+20
2.4186521e+20
1.0737214e+19
3.4419325e+21
-4.3989144e+19
-2.352252e+20
1.8059055e+20
-2.4110834e+20
1.861825e+20
-4.3358647e+21
3.5134798e+21
4.0503651e+19
-2.4403846e+20
1.8812322e+20
1.8738626e+20
-2.3435302e+20
-4.5020477e+21
-3.924512e+19
4.5759602e+21
7.0345326e+19
-2.2376541e+20
-2.3739015e+20
1.8994613e+20
1.8878836e+20
4.5114005e+21
-5.850264e+19
-2.3354261e+20
-2.2782704e+20
1.845847e+20
1.9224714e+20
2.1190411e+20
-4.1945152e+20
8.3491661e+20
9.2022013e+20
-1.1332966e+21
-1.1453662e+21
8.2042391e+20
8.3186825e+20
-4.3701069e+19
3.6504038e+21
2.3577441e+20
-2.1152708e+20
2.3338286e+20
-2.017565e+20
3.6230362e+21
-7.5464272e+19
-2.0710983e+20
-2.0100461e+20
2.3144822e+20
2.3885004e+20
5.8793057e+19
-8.5164105e+19
-1.5525236e+20
-1.5245658e+20
2.8617668e+20
2.9783614e+20
2.949969e+20
-1.5969077e+20
-1.5244139e+20
2.8931346e+20
-3.4594949e+21
1.5209003e+19
1.9240205e+20
-2.2794026e+20
-2.2374703e+20
1.9873883e+20
6.33408e+18
-4.3878662e+21
1.7969558e+20
1.7165787e+20
-2.4854256e+20
-2.539118e+20
3.4265941e+21
-4.360883e+21
-2.4938732e+20
1.8331288e+20
-2.4081348e+20
1.7848876e+20
-2.2168274e+20
-2.3051358e+20
1.9146426e+20
1.8602041e+20
-7.4905318e+20
9.5780271e+20
1.6462951e+18
-4.5158823e+19
4.0057541e+19
-4.6993289e+19
4.0836329e+19
-9.5405372e+20
-1.0105673e+18
-4.5628441e+19
3.9366164e+19
-4.7621748e+19
4.0049967e+19
-7.4557283e+20
-1.7040898e+18
-4.7445446e+19
3.8365145e+19
-4.8950783e+19
3.9531755e+19
-2.3928058e+18
3.4679987e+19
3.5465229e+19
-5.3264667e+19
-9.353553e+20
-5.5369817e+19
-1.0469877e+19
1.7129327e+20
1.7641654e+20
-2.5095742e+20
-2.631961e+20
-9.8420232e+20
1.3063441e+18
-3.4085964e+19
5.7725982e+19
-3.6254987e+19
-7.5823034e+20
2.7826458e+18
-3.9799337e+19
4.7151636e+19
-4.1676674e+19
4.7987603e+19
5.2530655e+18
-4.2000146e+19
4.3277374e+19
-4.4056729e+19
4.3774477e+19
2.9680011e+18
7.7818923e+19
8.240684e+19
-9.9467074e+20
-9.1549509e+18
-9.0762015e+18
3.5076341e+18
7.920442e+19
8.0982356e+19
-1.0191238e+21
-9.5721921e+18
-1.1196625e+19
-4.1000302e+18
4.8162509e+18
7.9336476e+19
8.2425556e+19
-1.0197303e+21
-8.8080529e+18
-1.0477146e+19
8.2416253e+19
7.8585141e+19
-1.0244739e+21
-1.0020198e+19
-1.0355082e+19
-9.5674349e+17
7.7167398e+19
8.0373907e+19
-9.9539068e+20
-9.4043596e+18
-1.0869574e+19
-3.0831072e+18
-6.2264769e+19
3.7794109e+20
3.6002911e+20
-4.5721375e+21
-4.3869448e+19
-5.1818769e+19
3.9801723e+17
8.0791377e+19
7.7793776e+19
-1.0128934e+21
-1.0544017e+19
-1.0430914e+19
2.8415414e+18
7.741078e+19
8.1930163e+19
-9.9970913e+20
-9.6888896e+18
-9.6713479e+18
8.110097e+19
7.880842e+19
-1.0201009e+21
-1.0330318e+19
-1.1589988e+19
-9.5903291e+19
3.5770009e+20
3.7071757e+20
-4.6427203e+21
-5.6701812e+19
-5.6597206e+19
-7.4728761e+19
3.6678392e+20
3.5923305e+20
-4.7692772e+21
-6.7055965e+19
-5.6739129e+19
3.6711171e+20
3.4556826e+20
-4.6810558e+21
-6.0471591e+19
-6.2789776e+19
-1.074529e+20
1.7391538e+21
1.7418282e+21
-2.0770031e+22
-2.3531411e+20
-3.5339263e+20
-6.7132387e+20
-4.0036739e+20
-3.9818612e+20
-1.9712204e+22
-4.1620606e+20
-3.9201987e+20
-9.8009941e+20
-1.9749471e+22
-5.3855026e+20
2.335315e+19
-5.6428332e+19
3.1416698e+20
3.0859752e+20
-4.0992013e+21
-2.1937816e+19
-2.3413395e+19
-3.9181035e+19
1.4694013e+19
-4.5394016e+21
5.3270008e+20
-4.50851e+21
3.1299152e+20
3.041773e+20
-4.0888481e+21
-2.2482567e+19
-2.393328e+19
-5.5934846e+20
5.1054941e+19
6.7187521e+20
-1.6920004e+20
-4.0976047e+21
-1.3284001e+19
-9.4302409e+19
-1.4922161e+21
-3.63051e+21
5.5208004e+20
-1.4847379e+21
-3.5874413e+21
6.5313434e+20
-4.0515133e+21
-5.2986497e+20
7.3837619e+19
3.1619719e+20
3.0651341e+20
-1.0166085e+20
-4.1029168e+21
-2.4619859e+19
-2.2249461e+19
-9.4003293e+18
-2.3815412e+19
-4.5246026e+21
5.320089e+20
-4.5364376e+21
3.0559579e+20
3.1232519e+20
-4.095728e+21
-2.3270415e+19
-2.1751015e+19
9.0456307e+19
2.2766846e+20
-2.4378495e+20
-7.0721704e+20
-8.5336443e+20
-7.1032663e+20
-8.6935239e+20
2.0531427e+20
-8.6612632e+20
-8.3295888e+20
-7.1240665e+20
-6.8317467e+20
2.4129155e+20
-4.2678103e+20
-5.7356031e+20
-6.0352346e+20
-5.9284959e+20
-5.6920435e+20
-5.7665063e+20
-5.9333875e+20
-6.1227716e+20
-5.5413914e+20
-6.1634571e+17
1.4175728e+20
-8.6333323e+18
-6.8275645e+20
1.4002218e+20
-6.8325942e+20
7.154955e+18
7.0509462e+18
1.436218e+20
-3.2873178e+18
-7.0325475e+20
1.4332325e+20
8.4697469e+17
-7.0412642e+20
1.7141321e+19
5.9423915e+18
-1.9303271e+19
-1.0044384e+20
-1.018154e+20
-1.2406852e+20
-1.2075841e+20
1.1417978e+18
1.5732199e+19
-1.0299858e+20
-9.9176125e+19
-1.1969673e+20
-1.2369949e+20
-3.7591877e+19
4.0441619e+19
-1.0122655e+20
-9.5926161e+19
-1.0535879e+20
-1.0019543e+20
-4.1323197e+19
-9.5927086e+19
-9.9687405e+19
-9.5340882e+19
-9.9711061e+19
1.5838301e+19
1.4020184e+20
-1.2035507e+19
-6.7285476e+20
1.3910214e+20
-6.8217616e+20
9.1707745e+18
1.4391657e+20
-3.2564606e+18
-6.976939e+20
1.4429819e+20
-7.0638777e+20
1.7803907e+17
6.7684502e+17
-1.2127262e+20
-1.0121528e+20
-1.2410168e+20
-1.0250083e+20
-2.164532e+18
8.7578998e+18
-1.2380982e+20
-1.1986302e+20
-1.0345906e+20
-9.9509539e+19
1.5503738e+19
-9.7170351e+19
-9.6775654e+19
-1.0214935e+20
-1.0159872e+20
2.3834077e+19
-9.4242421e+19
-1.0432711e+20
-9.9580864e+19
-9.8937588e+19
-1.9400377e+19
1.3916286e+20
1.5027527e+19
-6.81094e+20
1.412923e+20
-6.7508355e+20
1.4252342e+19
1.4132178e+20
-6.9482763e+20
7.3036748e+18
1.4232407e+20
-7.0470498e+20
8.0444431e+18
2.1135668e+18
-1.4488375e+20
-1.2162695e+20
-1.2516658e+20
-1.0157924e+20
-1.0384957e+20
-2.3806486e+18
-1.4443059e+20
1.1948313e+18
-1.2394764e+20
-1.2003345e+20
-1.0386269e+20
-1.0075224e+20
-2.2476581e+19
1.730737e+19
-9.8420895e+19
-1.0343168e+20
-9.4234786e+19
-9.9175129e+19
-9.4669395e+19
-9.9581346e+19
-9.5683373e+19
-1.008432e+20
4.5111749e+18
1.4246071e+20
-6.811322e+20
1.4077889e+20
-6.8194445e+20
-9.217666e+17
-7.0324646e+20
-7.0624131e+20
-8.6063204e+18
-1.5189951e+18
-1.2050953e+20
-1.2365321e+20
-1.0112139e+20
-1.0338283e+20
-2.8519016e+18
-1.2319846e+20
-1.1910619e+20
-1.0292128e+20
-1.0004022e+20
1.656803e+18
-9.3810996e+19
-9.8804859e+19
-9.5604573e+19
-1.0089806e+20
-9.6138801e+19
-9.179203e+19
-1.0122005e+20
-9.810331e+19
2.0994069e+21
1.7784908e+21
-4.4998152e+21
-4.4674479e+21
-3.9106801e+21
1.8000223e+21
-4.4473522e+21
-4.6933545e+21
-4.0988514e+21
-3.8434564e+21
2.8551177e+21
-3.5547194e+21
-2.8428619e+21
-3.820254e+21
-3.5144782e+21
-3.1273793e+21
-2.8804596e+21
-5.6321787e+20
1.8220938e+20
6.7061043e+20
-2.1948899e+20
-4.0514511e+21
1.0948252e+20
-1.4415303e+21
-1.4588334e+20
-3.6227958e+21
5.5999828e+20
-1.5222708e+21
-3.6080963e+21
6.6852458e+20
-4.0724407e+21
2.4697217e+20
2.5861167e+20
-2.9734817e+20
-8.6693921e+20
-8.5043658e+20
-7.0405953e+20
-7.0790863e+20
2.4393865e+20
-8.7345991e+20
-7.218629e+20
-8.3815448e+20
-6.869189e+20
3.8161077e+20
-4.561262e+20
-5.8784957e+20
-5.1963326e+20
-5.7938963e+20
-5.3224154e+20
-5.736715e+20
-5.948226e+20
-6.1970376e+20
-5.5067991e+20
-4.0385796e+19
-1.533931e+18
3.7004846e+18
4.5516767e+19
-3.3587475e+19
-3.2215105e+19
-4.7613354e+19
-5.0118494e+19
-1.8723722e+18
3.7757275e+18
-1.7539262e+20
-4.0246406e+19
-4.9626845e+18
4.5998622e+19
-4.970225e+19
-3.2984256e+19
-3.2435956e+19
-4.7985194e+19
-4.8284389e+18
-1.7685729e+20
-5.6973318e+18
-3.988438e+19
4.5307137e+19
-3.3624286e+19
-3.2278809e+19
-4.7925544e+19
-4.9975911e+19
-4.0492371e+19
4.5374181e+19
-3.2276899e+19
-3.280561e+19
-4.9327249e+19
-4.7312848e+19
4.608665e+18
-1.7233343e+20
-1.7648405e+20
1.9558614e+17
-4.10596e+19
2.5990273e+18
4.5681215e+19
-3.3567381e+19
-3.223802e+19
-4.7486344e+19
-5.0214797e+19
-4.1218945e+19
-2.2045463e+18
4.6843967e+19
-3.3128998e+19
-3.2715668e+19
-4.979475e+19
-4.8306048e+19
-6.4223674e+17
3.0124244e+18
-1.7500487e+20
-3.061347e+18
-1.7742189e+20
-4.0453779e+19
-3.9286034e+18
4.6712474e+19
-3.3568012e+19
-3.2401733e+19
-4.8013941e+19
-5.028701e+19
-3.7902365e+18
-1.7774588e+20
-4.0919595e+19
4.6613437e+19
-3.2747292e+19
-3.1999997e+19
-4.929357e+19
-4.7254079e+19
-1.7399776e+20
6.7867915e+17
-1.8769104e+20
1.6772935e+20
-1.6003451e+20
-1.5467512e+20
-2.0756251e+20
-2.1847849e+20
1.9080537e+18
-3.9764808e+19
4.4406238e+19
6.5106607e+17
-3.346787e+19
-3.2263566e+19
-4.7693827e+19
-5.0347369e+19
-3.9906566e+19
1.9473107e+17
4.5292991e+19
-3.3053232e+19
-3.2475967e+19
-4.9870234e+19
-4.8292448e+19
-1.6235995e+17
-1.7436805e+20
2.3615785e+18
-2.1409087e+18
-1.7674576e+20
-1.8261512e+20
-1.2482385e+19
1.6013346e+20
-1.576255e+20
-1.6063659e+20
-2.2043097e+20
-2.1286163e+20
-8.2129819e+18
3.0753779e+18
-8.248724e+20
-8.0380743e+20
-3.9863646e+19
-1.9046047e+18
4.6490695e+19
-3.3356049e+19
-3.225547e+19
-4.8101517e+19
-5.0307125e+19
-2.8209797e+18
-1.7725943e+20
-4.0885849e+19
-1.0429202e+18
4.7246403e+19
-3.1860122e+19
-3.2689702e+19
-4.948513e+19
-4.7351235e+19
-2.0311688e+18
-1.7387755e+20
2.3781079e+17
-4.047232e+19
4.6068004e+19
-3.3467756e+19
-3.2239614e+19
-4.7929378e+19
-5.0309621e+19
-4.0459048e+19
-2.5648629e+18
4.6638765e+19
-3.2587071e+19
-3.3153901e+19
-5.0083894e+19
-4.8234939e+19
8.2974736e+17
-3.6323405e+18
-1.7781693e+20
-1.7611939e+20
-4.3052602e+18
-4.0159442e+19
4.6159373e+19
-3.2386651e+19
-4.8175217e+19
-5.012993e+19
-3.3344823e+19
-4.0715755e+19
4.5894139e+19
-3.2934063e+19
-3.2329912e+19
-4.945588e+19
-4.746203e+19
3.9711774e+18
-1.7286797e+20
-1.7702463e+20
2.3175135e+19
-1.8021009e+20
-2.0863704e+19
1.4981126e+20
-1.571899e+20
-1.5980951e+20
-2.2001396e+20
-2.1083955e+20
-1.8052939e+20
1.6053259e+20
-1.6029152e+20
-1.5423114e+20
-2.0988323e+20
-2.1917136e+20
5.0282325e+18
-5.0404291e+18
-8.2018578e+20
-8.2529104e+20
1.4566638e+19
-1.7502078e+20
-3.5615385e+19
1.4941136e+20
-1.590909e+20
-1.6054017e+20
-2.1322484e+20
-2.2031042e+20
-1.8250585e+20
1.6063842e+20
-2.1989123e+20
-1.6083532e+20
-1.5402402e+20
-2.0831414e+20
-1.0303461e+18
-1.3329269e+19
-8.3549729e+20
-8.196251e+20
-1.7668683e+20
-8.3634058e+20
3.7952816e+20
-8.1039551e+20
-7.6565787e+20
-9.7578615e+20
-1.0377804e+21
1.7384157e+20
-1.5801065e+19
-8.3114039e+20
-3.7278933e+19
1.4117939e+20
-1.6210243e+20
-1.5615047e+20
-2.2033902e+20
-2.1056398e+20
-1.6724815e+20
1.1880371e+20
-2.4179239e+19
-2.097346e+20
-1.5777361e+20
-1.6085362e+20
-2.1871151e+20
-8.1787276e+20
-1.0367046e+19
7.8109313e+20
6.807797e+19
-1.8541773e+20
-3.8355404e+21
-3.5298866e+20
3.0508027e+20
-9.9738009e+20
-7.9960025e+20
-7.9710154e+20
-1.020776e+21
-3.7740271e+21
-7.6567916e+20
2.9347133e+20
-8.3181037e+20
-1.0430686e+21
-7.8081881e+20
-9.884425e+20
-3.8148894e+21
-3.4563588e+21
-3.7525066e+19
4.5152334e+21
-2.2283917e+20
-2.3196099e+20
1.9858365e+20
1.9325321e+20
-1.0577549e+19
-2.4066609e+20
-2.3178929e+20
1.8968915e+20
1.8521106e+20
-4.3934531e+21
3.475692e+21
-2.1185497e+19
-2.3838637e+20
-2.4535563e+20
1.8156103e+20
1.8415178e+20
-4.3945798e+21
-2.7926198e+19
4.5568713e+21
1.8502006e+20
-2.3603016e+20
-2.3037706e+20
1.900099e+20
-2.999734e+20
9.0205477e+20
8.8028729e+20
-1.0755607e+21
-1.1065662e+21
-6.2296616e+19
-3.7246974e+21
7.2872138e+19
-1.5719464e+20
-1.67464e+20
2.9360547e+20
2.9638587e+20
-3.6841309e+21
-1.5998073e+20
-1.5912963e+20
-8.9968489e+19
3.0173637e+20
2.8929347e+20
-3.8067783e+19
-4.6215434e+21
3.9391585e+19
-2.0746877e+20
-2.1528998e+20
2.3812762e+20
2.3344603e+20
-4.5527405e+21
-8.8942852e+19
-2.1100655e+20
2.4119671e+20
-2.0327951e+20
2.3590577e+20
-1.5409588e+22
1.2547821e+21
-8.2550935e+20
-8.8425966e+20
1.247213e+21
9.600787e+20
-1.0901036e+21
-1.0382621e+21
9.601588e+20
-1.9403967e+22
-3.4951807e+21
3.6752724e+19
-8.4162558e+19
1.9009443e+20
-2.3455482e+20
-2.2925149e+20
1.9670856e+20
2.2904996e+19
-5.2614029e+19
1.8656384e+20
1.8013438e+20
-2.4218e+20
-2.4782337e+20
-4.4216376e+21
-3.541226e+21
1.9246384e+20
-2.3447764e+20
-2.4173158e+20
1.8650783e+20
1.7795273e+20
1.8225602e+20
-2.544277e+20
-2.4659376e+20
-4.5053758e+21
-5.603626e+20
8.6841419e+20
9.0641077e+20
-1.0810098e+21
-1.1075612e+21
-3.6412763e+21
4.851325e+19
-1.5784794e+20
-1.5365246e+20
2.8957736e+20
2.955664e+20
-4.5661978e+19
3.6326822e+21
2.4049272e+20
-2.0453292e+20
-1.9336788e+20
2.4400943e+20
2.3164832e+20
-2.0955496e+20
-2.0236071e+20
2.3599691e+20
2.9790611e+20
-1.4517467e+20
-1.5523868e+20
2.9171e+20
5.1011747e+17
7.7940739e+20
-9.6632458e+20
-3.6138498e+19
-3.5311836e+19
5.7072529e+19
5.4589991e+19
7.9180935e+20
1.4351938e+17
-9.8563475e+20
-3.5714304e+19
5.5573575e+19
-3.7663957e+19
5.5610541e+19
-1.8453024e+18
1.4788549e+18
-2.623413e+19
6.5702767e+19
-2.792267e+19
6.617295e+19
-2.6139074e+19
6.7593346e+19
-2.5848522e+19
6.469612e+19
3.2187065e+18
7.9603842e+20
-9.937048e+20
-3.7156108e+19
-3.6709212e+19
5.6625297e+19
5.4357118e+19
7.9987979e+20
-9.9309154e+20
2.8840886e+18
5.6765521e+19
-3.5142346e+19
-3.7501914e+19
5.6869922e+19
-2.8713961e+18
5.2840986e+18
-2.5706328e+19
-2.7994574e+19
6.6301239e+19
6.70235e+19
-2.7312046e+19
-2.7297784e+19
6.7266177e+19
6.4676751e+19
1.4292112e+18
7.4126198e+20
-9.3249119e+20
-4.4507325e+19
-4.3616477e+19
4.229566e+19
4.0075642e+19
7.5361029e+20
-1.3288667e+18
-9.5446964e+20
-4.3961391e+19
-4.5684165e+19
4.1138605e+19
4.1296853e+19
-1.0772289e+18
-1.3449773e+18
-4.1449687e+19
4.5275465e+19
-4.3052851e+19
4.5736874e+19
-4.1681678e+19
-4.0950078e+19
4.6939006e+19
4.4515215e+19
-7.6118159e+20
-1.563777e+18
4.5156345e+17
-4.1176379e+19
4.6532151e+19
-4.3243904e+19
4.7069892e+19
1.2407017e+18
7.6060861e+20
-9.655208e+20
-4.5507173e+19
-4.4803906e+19
4.209367e+19
4.0229806e+19
-1.4325843e+18
-9.5644584e+20
-4.3507208e+19
4.194579e+19
-4.5667528e+19
4.2270038e+19
-4.2819791e+19
-4.2434184e+19
4.6676749e+19
4.4437504e+19
7.4723396e+20
2.4962352e+18
-4.3736206e+18
3.4845026e+19
3.5380824e+19
-9.4137233e+20
-5.5877321e+19
-5.3557986e+19
3.5314818e+18
9.4966767e+20
-5.387469e+18
-4.760143e+19
-4.9134095e+19
3.7869177e+19
3.8879222e+19
7.5295732e+20
3.025091e+18
3.4498009e+19
3.3159917e+19
-9.499619e+20
-5.5471604e+19
-5.6818972e+19
3.9916408e+18
9.6339023e+20
-5.0036215e+19
-4.9299417e+19
3.8178816e+19
3.644627e+19
-1.8426199e+18
-3.3229151e+21
-2.6653826e+19
1.7459821e+20
1.7373324e+20
-2.3735966e+20
-2.605079e+20
7.5800878e+20
4.4209878e+18
3.3858329e+19
3.4953208e+19
-9.6012318e+20
-5.6608142e+19
-5.5523364e+19
5.5393401e+18
9.6849034e+20
-4.9053301e+19
3.7080496e+19
-5.007705e+19
3.8143831e+19
-7.4851489e+20
9.5123594e+20
1.0498261e+19
-4.9123603e+19
3.9385136e+19
-4.8092358e+19
3.753714e+19
9.7787198e+18
3.5221005e+19
3.4637145e+19
-9.4835175e+20
-5.3517265e+19
-5.6214773e+19
-3.4405107e+21
7.7655643e+17
1.7814427e+20
1.7998399e+20
-2.4085896e+20
-2.6120483e+20
-4.9505161e+18
7.416063e+20
8.3334448e+18
-4.7838019e+19
-4.6683691e+19
3.9394257e+19
3.7608801e+19
7.5115994e+20
-4.5242793e+18
-4.7506819e+19
3.7694855e+19
-4.9022075e+19
3.8348083e+19
1.1417971e+18
-4.0032493e+18
9.6306778e+20
-4.7144062e+19
3.7978153e+19
-4.8561362e+19
3.8627071e+19
9.4408249e+20
4.9921591e+18
-4.7507067e+19
3.9466017e+19
-4.6729051e+19
3.7231954e+19
-2.1017601e+18
7.4747087e+20
-4.8470064e+19
3.8744687e+19
-4.7555298e+19
3.7234951e+19
7.4024643e+20
-4.7295313e+18
-4.5848988e+19
3.8573702e+19
-4.782575e+19
3.9323064e+19
4.1918026e+18
9.4174602e+20
-6.070153e+18
-4.5664291e+19
3.8510095e+19
-4.7357579e+19
3.9475357e+19
9.5817189e+20
-4.7899448e+19
3.9161461e+19
-4.7066314e+19
3.7538998e+19
-3.3726929e+19
3.1862979e+19
1.666188e+20
-2.6039703e+20
-2.7150017e+20
1.6836406e+20
-2.6821014e+20
1.7906181e+20
1.7383981e+20
-1.0159295e+19
-2.5434563e+20
1.5442681e+20
-2.6393014e+20
1.6199604e+20
-2.4911594e+20
-2.5667336e+20
1.7069905e+20
1.6476409e+20
-7.6027751e+20
3.2675597e+17
-2.3296823e+18
9.920501e+20
-4.2083821e+19
-4.354178e+19
4.549949e+19
4.6130925e+19
1.0743999e+18
-2.7036352e+18
-4.4325278e+19
-4.5929381e+19
4.1373988e+19
4.1773127e+19
-7.474832e+20
9.7351804e+20
-4.2157104e+19
4.7263201e+19
-4.1587471e+19
4.4607753e+19
-4.3920557e+19
-4.4772585e+19
4.2718291e+19
4.0459466e+19
-1.6613144e+18
7.5611633e+20
-4.516329e+19
4.2483641e+19
-4.4284714e+19
4.0867817e+19
7.4765439e+20
-5.8188191e+18
-4.2779596e+19
4.2080815e+19
-4.4737011e+19
4.2680377e+19
1.5663712e+18
9.730212e+20
-5.626977e+18
-4.0496304e+19
4.6108508e+19
-4.237123e+19
4.6901116e+19
9.8729381e+20
-4.2669587e+19
4.6864957e+19
-4.209303e+19
4.4806944e+19
7.2710434e+17
7.9193012e+20
8.2529001e+17
-3.6960171e+19
-3.6321436e+19
5.6886874e+19
5.4953717e+19
7.8427071e+20
-4.1908805e+18
-3.477479e+19
-3.6944158e+19
5.616127e+19
5.6769625e+19
6.3196798e+17
-3.6207498e+18
-2.5877175e+19
-2.7620105e+19
6.517025e+19
6.6372579e+19
1.1576222e+18
-2.7525273e+19
-2.7239751e+19
6.6653005e+19
6.4459252e+19
-7.9648475e+20
-2.5919512e+18
-2.7328195e+19
6.5226495e+19
-2.8794029e+19
6.6026068e+19
-1.9482278e+17
-3.6269424e+19
5.5444865e+19
-3.8060426e+19
5.5779699e+19
7.846496e+20
-3.6579237e+19
-3.5873408e+19
5.7087477e+19
5.448151e+19
-2.7083362e+19
6.7032627e+19
-2.6981533e+19
6.3978355e+19
-7.4250133e+20
9.777484e+17
-4.663209e+19
3.8493759e+19
-4.8563654e+19
3.9173995e+19
-2.2397513e+17
7.4760882e+20
-9.5239934e+20
-1.4286075e+18
-4.8651719e+19
-4.8008049e+19
3.8506527e+19
3.6656231e+19
-9.3861587e+20
-4.670407e+19
3.7716557e+19
-4.8809423e+19
3.8273954e+19
1.2427928e+18
-4.8156858e+19
-4.747158e+19
3.8995284e+19
3.719502e+19
-2.916645e+18
-7.4383424e+20
-1.4378053e+18
-4.956567e+19
3.8113618e+19
-4.9167601e+19
3.6104711e+19
-7.3628661e+20
-4.7954538e+19
3.6835111e+19
-4.9815949e+19
3.7845633e+19
2.4815132e+18
-9.3049598e+20
3.1747312e+19
3.4154344e+19
-5.5783053e+19
-5.715453e+19
-1.9839772e+17
-9.4485296e+20
3.2991075e+19
3.1256534e+19
-5.6820449e+19
-5.7640287e+19
7.4612604e+20
1.8563074e+17
-9.5110627e+20
3.4210403e+19
3.3590857e+19
-5.7348715e+19
-5.5243569e+19
-7.4547508e+17
9.5186642e+20
-4.8098652e+19
3.6891924e+19
-4.9395217e+19
3.7482241e+19
7.3260978e+20
-9.2863892e+20
3.359724e+19
3.1843394e+19
-5.5642315e+19
-5.6789743e+19
9.3112384e+20
-4.859784e+19
3.7976507e+19
-4.7735537e+19
3.5882055e+19
-4.6698195e+17
7.2878372e+20
-4.7803885e+19
3.8266328e+19
-4.6715089e+19
3.6366521e+19
7.4045244e+20
-4.7084867e+19
3.7200697e+19
-4.872109e+19
3.7610129e+19
-2.0139827e+18
-4.6670466e+19
3.7508752e+19
-4.8176422e+19
3.8042008e+19
-4.7141095e+19
3.8826661e+19
-4.6335518e+19
3.6595223e+19
1.4765703e+20
-2.4287566e+18
-1.9058465e+20
2.938891e+18
7.9151419e+18
-9.0232714e+18
7.9658333e+18
-9.5989998e+18
-2.1143366e+18
1.8878229e+20
3.2102923e+18
-8.9149303e+18
8.1224376e+18
8.0949437e+18
-9.466101e+18
1.4953785e+20
-1.9409421e+20
-9.3347551e+18
7.7544693e+18
-9.3522433e+18
8.2751514e+18
1.9225298e+20
-9.2208041e+18
8.4546933e+18
-9.242651e+18
7.9404958e+18
1.4947535e+20
-2.1190391e+18
-1.9288101e+20
2.5504873e+18
8.0149583e+18
-9.0610213e+18
8.0256536e+18
-9.6337823e+18
-2.1002456e+18
2.8681368e+18
-9.0265981e+18
8.0465389e+18
8.0413654e+18
-9.5723152e+18
1.5172934e+20
-1.9696865e+20
7.8357936e+18
-9.4034409e+18
8.365478e+18
-9.4214586e+18
-9.3515325e+18
8.3982791e+18
-9.3380762e+18
7.875369e+18
1.5268687e+20
-1.5219779e+18
-1.9848167e+20
1.797662e+18
8.1932279e+18
-8.8899235e+18
8.2506496e+18
-9.4802528e+18
-1.5677901e+18
2.2648031e+18
-9.0760286e+18
8.0934581e+18
8.0994425e+18
-9.6428635e+18
1.5477051e+20
-2.0193122e+20
8.106883e+18
-9.171602e+18
8.6300368e+18
-9.224984e+18
-9.4326839e+18
8.4609769e+18
-9.476958e+18
7.9578547e+18
-8.1718062e+17
-1.5938579e+20
1.4681204e+18
-9.8497014e+18
-1.0271348e+19
7.5092248e+18
7.5450329e+18
-1.6084203e+20
-1.0450393e+18
7.8367711e+18
7.3759255e+18
-1.0350581e+19
-1.0258203e+19
-4.0265078e+17
6.4657484e+17
-1.094379e+19
-2.0195058e+20
-5.4916448e+17
-7.3109206e+20
-2.8458607e+18
3.5711791e+19
-4.9775044e+19
-5.2282002e+19
3.6770432e+19
-8.1296187e+16
-2.0472139e+20
-1.181177e+19
-1.620956e+20
-1.0297201e+19
-1.0667018e+19
7.3952928e+18
7.3779026e+18
-7.4302787e+20
3.6301732e+19
-5.2638516e+19
-5.2759452e+19
3.4692953e+19
-2.066827e+20
-1.1743703e+19
-2.486934e+18
-3.4623511e+18
3.684089e+19
-5.1931504e+19
-5.3268742e+19
3.7232583e+19
3.5142497e+19
-5.6369443e+19
-5.4085843e+19
3.4773591e+19
1.5436227e+20
-2.7093934e+18
-1.9419064e+20
3.2394964e+18
1.030198e+19
-7.4111738e+18
1.0377415e+19
-8.055896e+18
3.3743434e+18
-6.6113885e+18
1.13489e+19
1.1321897e+19
-7.2453684e+18
-1.9782898e+20
1.0011889e+19
-7.8367781e+18
1.0589383e+19
-7.8807014e+18
1.4969947e+20
-2.6272624e+18
-1.9029158e+20
3.153307e+18
8.7412119e+18
-8.3458268e+18
8.8128423e+18
-8.9414841e+18
-2.2035001e+18
3.0098261e+18
-8.0827162e+18
9.3163174e+18
9.289743e+18
-8.6691899e+18
1.5155774e+20
-1.9359862e+20
-8.7396804e+18
8.4939078e+18
-8.7143626e+18
9.0396841e+18
-8.4274888e+18
9.6054546e+18
-8.4947741e+18
9.0403847e+18
1.4736064e+20
-2.4912201e+18
3.4812945e+18
8.1237539e+18
-8.6706886e+18
8.2421753e+18
-9.2638011e+18
-2.1899838e+18
3.2992139e+18
-8.5231575e+18
8.441249e+18
8.3998237e+18
-9.0807003e+18
1.492497e+20
7.9966704e+18
-9.0112673e+18
8.5131608e+18
-8.9994966e+18
-8.8624956e+18
8.7345416e+18
-8.9029282e+18
8.1828474e+18
3.4459182e+18
1.7652356e+19
1.6228614e+19
-2.0817114e+20
-3.2388934e+18
-3.4893171e+18
4.5604154e+18
1.6962271e+19
1.7034824e+19
-2.134003e+20
-3.3373361e+18
-3.9341759e+18
-3.8435381e+18
3.7124337e+18
1.6833676e+19
1.7207574e+19
-2.1163429e+20
-3.3091255e+18
-3.931524e+18
1.7599788e+19
1.6292285e+19
-2.1387919e+20
-3.514179e+18
-3.8357273e+18
-3.1086531e+18
3.4048765e+18
1.6739946e+19
1.7632088e+19
-2.1166244e+20
-3.1550833e+18
-3.6636396e+18
-3.456857e+18
1.7551723e+19
1.679014e+19
-2.1480898e+20
-3.6471995e+18
-3.4364937e+18
-2.9829142e+18
1.6799133e+19
1.7383966e+19
-2.1503178e+20
-3.4317112e+18
-3.9596113e+18
1.7480207e+19
1.6201411e+19
-2.1033705e+20
-3.6278186e+18
-3.3400594e+18
-2.640418e+18
1.6691975e+19
1.7576546e+19
-2.1089013e+20
2.5448173e+18
-3.2643712e+18
-3.7908039e+18
-2.7519336e+18
1.74519e+19
1.6753374e+19
-2.1440072e+20
-3.7449251e+18
-3.563423e+18
4.8737399e+17
7.6797641e+19
8.127546e+19
-9.9044755e+20
-9.3466661e+18
-9.5261971e+18
1.764624e+18
8.0127822e+19
7.8379354e+19
-1.0145757e+21
-1.0217332e+19
-1.1682548e+19
-2.1620421e+18
1.6737872e+19
1.7410113e+19
-2.1498472e+20
-3.5572252e+18
-3.9993622e+18
-2.5838841e+18
1.7484498e+19
1.6336105e+19
-2.1063469e+20
-3.4518451e+18
-3.620674e+18
-2.8582414e+18
3.7910814e+18
1.7052153e+19
1.7209819e+19