/*--------------------------------*- C++ -*----------------------------------*\
  =========                 |
  \\      /  F ield         | OpenFOAM: The Open Source CFD Toolbox
   \\    /   O peration     | Website:  https://openfoam.org
    \\  /    A nd           | Version:  7
     \\/     M anipulation  |
\*---------------------------------------------------------------------------*/
FoamFile
{
    version     2.0;
    format      ascii;
    class       volScalarField;
    location    "1000";
    object      k;
}
// * * * * * * * * * * * * * * * * * * * * * * * * * * * * * * * * * * * * * //

dimensions      [0 2 -2 0 0 0 0];

internalField   nonuniform List<scalar> 
34124
(
1.5205279
1.5565525
1.5175284
1.5178209
1.5993021
1.5499781
1.548625
1.5185208
1.5131784
1.5160536
1.6442516
1.5924085
1.5854503
1.5513337
1.5397038
1.5440191
1.5218632
1.5138454
1.512623
1.5172718
1.627634
1.6374517
1.6824389
1.5907911
1.5736995
1.5774851
1.5549722
1.5397727
1.5378737
1.5456779
1.5170744
1.5286077
1.5126046
1.5153866
1.5244397
1.616018
1.6215244
1.6687572
1.6335055
1.6771442
1.7102698
1.5896642
1.5730966
1.5692592
1.5798076
1.5454862
1.5570544
1.5374314
1.5408059
1.555576
1.5131935
1.520368
1.5213939
1.5174339
1.5165314
1.533217
1.6093066
1.6231067
1.6576963
1.6200383
1.664447
1.6999179
1.6287299
1.6738448
1.7076237
1.7240839
1.5775405
1.589843
1.567567
1.5730762
1.5955019
1.5371318
1.547149
1.5511347
1.5442319
1.5448187
1.5663843
1.5208635
1.5202516
1.5177564
1.5255051
1.5143813
1.5280563
1.547324
1.6098308
1.6219726
1.6520243
1.6385123
1.6658538
1.6911334
1.6159654
1.6619088
1.697953
1.7171226
1.6347955
1.6679481
1.70598
1.7222027
1.7314854
1.5675652
1.5849635
1.5915018
1.5791585
1.5835655
1.6040279
1.5511757
1.5507168
1.5439983
1.561955
1.5420946
1.5570196
1.5733602
1.5136254
1.5166303
1.5164736
1.5291404
1.5454683
1.5251748
1.5292784
1.5170199
1.6112956
1.6301251
1.6547023
1.6354251
1.6702478
1.6881066
1.6812844
1.640007
1.6944678
1.7102087
1.6342098
1.6549577
1.6977848
1.7153731
1.7276066
1.6532969
1.6754273
1.7030314
1.7235103
1.7290446
1.7351882
1.5888189
1.5899812
1.5842729
1.6110474
1.5822572
1.5945302
1.6042505
1.5391705
1.541804
1.5487627
1.5620033
1.5793949
1.5525877
1.5583574
1.538755
1.5171069
1.519817
1.5214805
1.5147678
1.52839
1.520041
1.5241403
1.513584
1.5202777
1.6347409
1.6291823
1.6529008
1.6465337
1.6817897
1.6924388
1.6836559
1.6357206
1.6974729
1.7086312
1.6837976
1.705754
1.6365913
1.7149619
1.7234883
1.6585574
1.6781682
1.6899214
1.7174714
1.7254798
1.7324098
1.6591279
1.6971718
1.7075894
1.722804
1.7285666
1.7327346
1.7358784
1.5780134
1.5780162
1.5975706
1.6080592
1.6214076
1.5905327
1.5910026
1.5644732
1.5439824
1.5485411
1.5633225
1.5530991
1.5747513
1.5451352
1.5491352
1.5345694
1.5480988
1.5177029
1.5321769
1.5177866
1.5232486
1.5215122
1.5175882
1.5179123
1.5125419
1.5165154
1.51813
1.6466277
1.6895885
1.6260813
1.656947
1.6662131
1.6880372
1.6906809
1.6374649
1.7086456
1.7134663
1.6742529
1.7075789
1.6309896
1.7103232
1.7205034
1.7076785
1.6743896
1.7171991
1.6040421
1.7242004
1.7296623
1.6563288
1.6969785
1.7068753
1.7171682
1.7251723
1.729877
1.7331513
1.6931883
1.6519892
1.713645
1.7222174
1.7278174
1.7307602
1.7332092
1.7326847
1.5873306
1.5906986
1.6129713
1.6037505
1.6162125
1.5771674
1.5827428
1.5608643
1.5799955
1.5402896
1.5620726
1.5412282
1.5520675
1.5586996
1.5465921
1.5399752
1.5335628
1.5388681
1.5365613
1.5336699
1.5169274
1.5340682
1.5138692
1.5104495
1.5222407
1.5170587
1.5163908
1.5115925
1.5112019
1.521518
1.636016
1.6917672
1.6284392
1.6686591
1.7116307
1.6562389
1.6553094
1.6942255
1.6945629
1.7159416
1.6776352
1.7077018
1.6282179
1.7177929
1.7223318
1.7017496
1.6727927
1.7157468
1.6053094
1.7200236
1.7269291
1.6998281
1.714928
1.655134
1.7224576
1.6157243
1.7275489
1.7304778
1.6907044
1.6464838
1.7113605
1.7193422
1.7245844
1.7276518
1.730366
1.729746
1.6802362
1.7091017
1.6191022
1.7204052
1.724368
1.728976
1.7309787
1.7294992
1.729083
1.574483
1.6051829
1.575577
1.5920664
1.5970703
1.5845549
1.5694573
1.5637881
1.5676668
1.5612342
1.5562542
1.5380859
1.5543107
1.5337424
1.5315401
1.5486989
1.5386431
1.5424704
1.5305787
1.5245221
1.5412417
1.5322509
1.5283235
1.517592
1.5153911
1.5099542
1.5101793
1.5120112
1.5111136
1.5211732
1.5096038
1.5177178
1.5326707
1.6841241
1.6211463
1.6194219
1.6655702
1.7070701
1.6435692
1.6897111
1.7029362
1.7168591
1.6400473
1.688544
1.6351575
1.7084033
1.7097075
1.7213283
1.7044371
1.6731781
1.7148067
1.6125331
1.7207941
1.7245475
1.694501
1.7131555
1.6526193
1.7197336
1.6046015
1.7247081
1.727628
1.7085638
1.6877152
1.718924
1.6567651
1.7236312
1.5888567
1.729272
1.7266791
1.6748784
1.7062846
1.6215898
1.7176697
1.7205394
1.7253503
1.7280334
1.7262724
1.7261764
1.7027728
1.6682696
1.7165769
1.6041689
1.7225917
1.7243499
1.7295686
1.726597
1.7257353
1.7250911
1.5949486
1.5702485
1.5865112
1.5671599
1.5629875
1.5817724
1.5688772
1.57236
1.5572399
1.5464314
1.5625464
1.5507141
1.5497579
1.5374807
1.5387748
1.5258303
1.5351082
1.5337296
1.526742
1.5510745
1.5199994
1.5327764
1.5541028
1.5279514
1.5315977
1.5288004
1.514316
1.5124819
1.5138752
1.5075077
1.5068386
1.5170368
1.5369398
1.5139005
1.5280392
1.5466777
1.7035203
1.6672659
1.6642713
1.6098403
1.6131977
1.6359591
1.6775346
1.6934601
1.712417
1.62294
1.6834159
1.7057885
1.7126213
1.7176032
1.6269898
1.6705037
1.7037349
1.6180875
1.7138136
1.7159569
1.721545
1.6946681
1.7115285
1.6611298
1.7164564
1.5954965
1.7210405
1.7253155
1.7071572
1.6823064
1.716528
1.6440429
1.7200997
1.5772197
1.7265679
1.7228756
1.701053
1.7133524
1.679841
1.7209367
1.6253093
1.7235424
1.5982185
1.7270247
1.7230318
1.6985266
1.656526
1.7132364
1.602112
1.7193561
1.7204443
1.7263568
1.7231223
1.7223806
1.7220234
1.6942331
1.7125792
1.6503442
1.7182649
1.6142601
1.722516
1.7229763
1.7282118
1.7221299
1.7217034
1.7208181
1.5826428
1.5772334
1.5703747
1.5754256
1.549082
1.5747997
1.5619017
1.5564615
1.5947118
1.5406319
1.5519197
1.5767455
1.5453089
1.5505077
1.549049
1.5283673
1.5354565
1.523834
1.5231729
1.5217698
1.5396386
1.5698606
1.5248389
1.5437772
1.5815941
1.528125
1.5222058
1.5137215
1.5149011
1.5083963
1.513667
1.509549
1.5061647
1.510771
1.5234697
1.527112
1.5254168
1.5447713
1.5490156
1.6927512
1.6935172
1.7100953
1.6566671
1.6529964
1.670802
1.5839549
1.61094
1.6206512
1.6105441
1.6609852
1.6980369
1.7066749
1.712789
1.6174292
1.6703875
1.7002074
1.7107362
1.7132698
1.7162942
1.6168734
1.6946386
1.652863
1.7086442
1.5947084
1.7155384
1.7163873
1.7234153
1.7051957
1.6849604
1.7137655
1.6274906
1.7157506
1.5679671
1.7246122
1.7194791
1.699025
1.710821
1.6715739
1.7177818
1.6200311
1.719496
1.5907991
1.7237184
1.7187377
1.7084516
1.6943745
1.7157739
1.6638062
1.7215603
1.6115452
1.7211264
1.7187924
1.6839825
1.7086449
1.6441512
1.7140794
1.606131
1.7186306
1.7189027
1.7247923
1.7182472
1.7180683
1.7174791
1.705794
1.680727
1.7147349
1.6362721
1.7176508
1.7212047
1.719846
1.7244362
1.7181993
1.7173616
1.7168277
1.5727104
1.5807131
1.5783349
1.548721
1.5724917
1.5392358
1.5476177
1.550662
1.5765401
1.6049878
1.5451486
1.5671645
1.6084672
1.5451347
1.5409773
1.5337732
1.5390595
1.5189142
1.5366278
1.5177511
1.5198999
1.5282047
1.5511306
1.5627023
1.5433927
1.5672641
1.5788589
1.519858
1.528671
1.5135801
1.5083577
1.5216055
1.5185035
1.5124023
1.5152897
1.5097491
1.5214452
1.5255053
1.5242501
1.5392166
1.5251519
1.5320156
1.6773618
1.7021246
1.6836865
1.6943074
1.7051703
1.7109914
1.6496587
1.6566584
1.6142926
1.6508667
1.5779374
1.5725635
1.6166933
1.6061489
1.6136224
1.6876828
1.648718
1.7046953
1.7057128
1.7105941
1.618987
1.6861318
1.6608114
1.7035326
1.7103721
1.7107119
1.7199788
1.5952151
1.676757
1.7029328
1.6401002
1.7096699
1.6002037
1.5760803
1.7141511
1.7145776
1.721128
1.7230347
1.6970213
1.7081484
1.6554758
1.7137756
1.6140927
1.7152576
1.5801407
1.5598883
1.7209244
1.7247601
1.7140213
1.7062677
1.6910304
1.712124
1.6534526
1.7176447
1.6030287
1.7164282
1.7141942
1.7030665
1.7127215
1.6866107
1.7161095
1.6472996
1.7202417
1.6506633
1.7168876
1.7143221
1.698727
1.6743905
1.7094187
1.6258051
1.7127356
1.7171019
1.7152652
1.7206441
1.7139688
1.7133728
1.71309
1.6951351
1.7096522
1.6653692
1.7148723
1.6439893
1.7158963
1.7187471
1.7148649
1.7138263
1.7132878
1.7128505
1.5702022
1.5656371
1.5612797
1.5726747
1.5361388
1.5703012
1.532749
1.5553516
1.5433979
1.5581674
1.5630091
1.5901355
1.6016521
1.5755424
1.597366
1.6128822
1.5364516
1.5450112
1.5376196
1.5205202
1.5475972
1.5357827
1.5355065
1.5278515
1.5262131
1.5451273
1.5567022
1.5573848
1.5684863
1.5516608
1.5614534
1.5256577
1.5106908
1.5212051
1.5326955
1.5177748
1.5187815
1.5202206
1.5364635
1.5321434
1.5185341
1.5100346
1.5144701
1.5298761
1.5274508
1.6926838
1.6441516
1.6717483
1.7046776
1.6962346
1.6823512
1.6796414
1.7022042
1.7051885
1.7091236
1.6135241
1.647051
1.6390583
1.5991327
1.6477001
1.5924601
1.5700662
1.5700631
1.5661594
1.5993995
1.60125
1.6139408
1.6953746
1.6694782
1.6573963
1.7035618
1.6995922
1.7108028
1.6165022
1.6944579
1.6770034
1.6257797
1.7023407
1.7083943
1.7104229
1.7156811
1.715616
1.590747
1.5906963
1.6913655
1.6688171
1.7043053
1.6209591
1.7070562
1.5799531
1.7126109
1.7096323
1.7163323
1.7243806
1.7038337
1.6790689
1.7071977
1.648316
1.7134519
1.6070442
1.7113924
1.5602585
1.7222402
1.7091665
1.6993637
1.7092952
1.6813294
1.7115528
1.6374206
1.7153878
1.641525
1.7111641
1.7094008
1.7083967
1.6975513
1.7144586
1.681202
1.7143829
1.684939
1.6470659
1.712278
1.7096898
1.7096863
1.690453
1.7036936
1.6584051
1.7094121
1.6329652
1.7110676
1.7141492
1.7095259
1.7091185
1.7089368
1.7085845
1.7027673
1.6807821
1.7116043
1.714168
1.6373156
1.6733613
1.7128335
1.7078155
1.7098306
1.7096276
1.7089989
1.7090749
1.5599176
1.5655486
1.5686612
1.543317
1.5780616
1.5572941
1.5738467
1.5500399
1.5376959
1.5513394
1.558066
1.580144
1.5931807
1.5926546
1.605524
1.5829595
1.5979352
1.5392787
1.5291567
1.5353916
1.559303
1.5395338
1.5417504
1.5562313
1.5576192
1.5579715
1.5467157
1.5319863
1.5378929
1.5576718
1.5628138
1.5152178
1.516748
1.5275524
1.5201446
1.5225209
1.5217746
1.535719
1.5891189
1.5596327
1.5227536
1.5101282
1.5249633
1.5207013
1.5273401
1.5524943
1.6995958
1.6701749
1.6841994
1.6334758
1.6690685
1.7016227
1.7001328
1.6925879
1.6655674
1.6905311
1.6688446
1.7028147
1.7091078
1.6379867
1.6474262
1.6203673
1.577867
1.6249598
1.6291101
1.5907141
1.5469218
1.5895872
1.6054789
1.6146114
1.6828732
1.6941568
1.6764307
1.6400396
1.6249717
1.6644647
1.6904669
1.6943556
1.6880012
1.708268
1.6875027
1.6982926
1.6985512
1.7201476
1.5671585
1.6864855
1.6975419
1.6557869
1.7045205
1.6219024
1.7057633
1.708605
1.7029355
1.6928552
1.7050704
1.6746867
1.7066505
1.6374969
1.7101705
1.6449894
1.7043709
1.7039246
1.7039913
1.6932541
1.7099403
1.6715845
1.708793
1.6775325
1.6193754
1.7055447
1.7023926
1.704694
1.7045541
1.7112543
1.6931145
1.71358
1.6985886
1.6719344
1.6363623
1.7082487
1.7049355
1.7061887
1.7044688
1.6975844
1.6745688
1.7058188
1.7091324
1.6276089
1.6631449
1.7082088
1.7021344
1.7040277
1.7045894
1.704186
1.7039039
1.6917434
1.7068629
1.7119968
1.712071
1.6251185
1.668569
1.6925511
1.7045519
1.7027108
1.7056382
1.7050947
1.7041351
1.7047635
1.5600271
1.5551538
1.5581688
1.5837095
1.5685638
1.5778456
1.6021567
1.5860991
1.5891748
1.5828834
1.5708445
1.5767634
1.5964585
1.6013554
1.5309757
1.5290852
1.5524439
1.5405521
1.5450768
1.5507776
1.5656797
1.5900991
1.5836897
1.5502637
1.529367
1.5535833
1.5501398
1.559183
1.592114
1.5139353
1.5198047
1.5206339
1.5208444
1.5201201
1.5373622
1.5233219
1.5340441
1.5606498
1.5470897
1.5164437
1.5275536
1.6044229
1.5259273
1.5542223
1.598113
1.7000754
1.6846075
1.6887126
1.6619819
1.680744
1.6502238
1.7015788
1.6957152
1.6730035
1.6542036
1.6826508
1.6933514
1.6289633
1.6641528
1.6366486
1.6746828
1.6763375
1.6523179
1.6821258
1.6213702
1.5870433
1.5805826
1.5881891
1.6453811
1.6196057
1.5918039
1.6080409
1.6887981
1.6504865
1.6780616
1.6868241
1.6609167
1.6826003
1.6894646
1.6919609
1.6421914
1.6054129
1.6328841
1.7006207
1.6836144
1.6799627
1.6820854
1.684938
1.69936
1.6996503
1.6991797
1.6932628
1.6713259
1.6997988
1.7041953
1.6223089
1.6519818
1.7028672
1.6954557
1.6967096
1.6986951
1.6872928
1.7051176
1.6638702
1.7032355
1.6707219
1.6131097
1.6970645
1.6940113
1.6991579
1.700227
1.7063554
1.6867455
1.7078957
1.6913577
1.652713
1.6333926
1.7010685
1.6963309
1.699036
1.6997109
1.7090683
1.7015426
1.7104187
1.7045978
1.7013005
1.6920773
1.6715766
1.6287819
1.7067272
1.6997358
1.7018974
1.7098215
1.6982088
1.6842929
1.7014523
1.7068357
1.7074279
1.6166723
1.6568176
1.6820923
1.698004
1.6962905
1.6993451
1.6998476
1.6981617
1.6988538
1.6980533
1.7092259
1.7098012
1.602606
1.6531536
1.6889722
1.700786
1.6976466
1.7083398
1.6998673
1.69724
1.7022274
1.6988488
1.698789
1.6982957
1.554317
1.5494738
1.5787553
1.5678594
1.5805236
1.5917168
1.6001417
1.612986
1.6085093
1.5852293
1.5670575
1.5956194
1.5968708
1.5983639
1.6329252
1.5304992
1.5406316
1.5374247
1.5428649
1.5435567
1.5598578
1.5565019
1.5631254
1.5871427
1.5720238
1.5504671
1.5581799
1.6324271
1.5609146
1.5866736
1.6287632
1.5242465
1.5205289
1.5190239
1.5698545
1.5573654
1.5280235
1.5298612
1.5299813
1.5251175
1.5357884
1.5329074
1.5339204
1.5375461
1.6250295
1.5693102
1.5661509
1.5934455
1.6271718
1.6921736
1.6522304
1.6234377
1.6226006
1.6715143
1.6541941
1.630748
1.6935653
1.6893763
1.6957066
1.6792638
1.6671429
1.6794328
1.6492921
1.6232085
1.5920893
1.5879916
1.5854876
1.584952
1.5603814
1.6514798
1.6493473
1.6650355
1.66977
1.674315
1.690139
1.6933322
1.694371
1.6924325
1.6766062
1.6300525
1.5780435
1.6306209
1.7021988
1.6782459
1.6753637
1.6731458
1.6779701
1.7023223
1.696277
1.7011949
1.6171497
1.6486139
1.6718611
1.689763
1.6884074
1.6914263
1.6953184
1.701559
1.6832911
1.6465163
1.6305941
1.6919277
1.6869156
1.6917539
1.6952357
1.7041404
1.6962932
1.7049487
1.6989622
1.6932409
1.6786842
1.6641075
1.6261076
1.7015605
1.690285
1.6939282
1.7038852
1.691742
1.6980665
1.697619
1.6921448
1.6752558
1.649277
1.7016859
1.6956673
1.6972912
1.6924454
1.6904249
1.7039257
1.7050573
1.601163
1.647025
1.6774489
1.6930996
1.688599
1.7026749
1.6927302
1.6897952
1.6966642
1.6919129
1.6919636
1.6927583
1.6252249
1.6543694
1.6768978
1.6954815
1.6929207
1.6940573
1.6919806
1.6999825
1.692151
1.6923702
1.6879083
1.5536744
1.5653167
1.5813441
1.5923576
1.5992308
1.5932071
1.6100122
1.6017716
1.5869323
1.5977777
1.6486604
1.5986231
1.6279731
1.6540267
1.543111
1.5429801
1.5409194
1.5813726
1.5788388
1.559654
1.5529875
1.5545671
1.548659
1.5646139
1.5677019
1.5674805
1.5738156
1.6262575
1.6175838
1.5976111
1.6260928
1.6404902
1.5754432
1.5520916
1.5638044
1.5491052
1.5151359
1.5358991
1.5507924
1.5633895
1.5779366
1.5642035
1.5476879
1.5865242
1.5874195
1.6330099
1.6402303
1.6634752
1.6409544
1.6226025
1.6229736
1.6310505
1.6706744
1.6589525
1.6415767
1.6124229
1.6989662
1.6928649
1.6984282
1.6905069
1.6999608
1.6692872
1.6735126
1.6575295
1.6367865
1.6153821
1.5704046
1.5640489
1.5784306
1.5751443
1.5719027
1.6404754
1.652285
1.6475413
1.6600949
1.66646
1.6698325
1.6665036
1.6823581
1.6985234
1.686373
1.6957524
1.6986509
1.6274
1.632532
1.6706908
1.6641896
1.6648667
1.6886856
1.6054884
1.6451408
1.6667511
1.6787132
1.6833986
1.6801508
1.6913449
1.6850065
1.6716124
1.6571868
1.6282749
1.6971478
1.679663
1.6867375
1.6845684
1.689005
1.6882081
1.6818824
1.6689337
1.6454769
1.6951243
1.6870333
1.6876091
1.6849581
1.6930955
1.6965422
1.6937783
1.6897762
1.6743871
1.6906909
1.694132
1.6861559
1.6213787
1.6545697
1.6685016
1.6856557
1.6836452
1.6852594
1.68449
1.6937219
1.684157
1.6855187
1.6845743
1.6716694
1.6767671
1.6899531
1.6909799
1.6867075
1.6896916
1.684978
1.6940922
1.6852659
1.6838864
1.6813094
1.6033752
1.6022748
1.5927856
1.5887148
1.5919962
1.6043639
1.6037647
1.6121191
1.6472978
1.6521259
1.6287414
1.6483934
1.6583555
1.5872867
1.5857275
1.5732842
1.5765629
1.5397748
1.5694891
1.5827027
1.594395
1.6079697
1.6147314
1.5854888
1.616414
1.622901
1.6561648
1.561811
1.5545174
1.552706
1.5203689
1.5555348
1.5305552
1.5412805
1.6069011
1.5960939
1.5889769
1.5342845
1.7649399
1.6310075
1.6026084
1.5642793
1.6307462
1.6339942
1.6464383
1.6677934
1.6509216
1.6517013
1.6278551
1.6187545
1.6137999
1.6121647
1.6327079
1.6423936
1.6269295
1.6572415
1.6628752
1.6454966
1.6243266
1.6063476
1.6587684
1.6649785
1.6639577
1.6388299
1.6275915
1.6225707
1.6280203
1.643594
1.653254
1.6548448
1.6563943
1.663618
1.6586367
1.663157
1.6599279
1.6352372
1.6196174
1.6213484
1.6367958
1.643846
1.6516822
1.6630615
1.6636861
1.6981668
1.6923256
1.6804694
1.6768679
1.6279661
1.6555515
1.6623582
1.6746787
1.6729859
1.6745853
1.6749363
1.687225
1.6803479
1.67993
1.6706538
1.6630265
1.6480255
1.6877006
1.6770508
1.6777285
1.6765313
1.6833965
1.6878261
1.6847462
1.6803162
1.6660076
1.6814673
1.6847803
1.6784225
1.689807
1.6918912
1.6918252
1.6915307
1.6824035
1.668224
1.6816541
1.6894285
1.6788415
1.6645818
1.6709604
1.6806783
1.6826381
1.6764175
1.6813868
1.6768284
1.6874815
1.6764112
1.67906
1.6771131
1.6679174
1.6844796
1.6909344
1.6886562
1.6840149
1.6830293
1.683873
1.6759451
1.6765763
1.677112
1.6734724
1.6029688
1.6117326
1.5957428
1.6128756
1.5787654
1.6035503
1.6192942
1.6247595
1.6409257
1.650962
1.6433773
1.6410122
1.6502664
1.6654621
1.5793148
1.5712311
1.5891756
1.5458337
1.5853291
1.5625928
1.5748509
1.6230515
1.6147153
1.620773
1.5767525
1.6618459
1.6350371
1.639397
1.6144033
1.5981689
1.5603675
1.5206045
1.6107186
1.5385254
1.5351019
1.5842596
1.5898871
1.5385985
1.7361681
1.6327492
1.691288
1.5610724
1.5471443
1.6217329
1.6542124
1.6290371
1.6088779
1.6231634
1.6367171
1.6204131
1.6522253
1.6635871
1.658319
1.6557961
1.6186521
1.6106166
1.6077887
1.6253645
1.632568
1.6379004
1.6487525
1.6430079
1.6558523
1.6267598
1.6172102
1.6123402
1.6374281
1.6542767
1.6614376
1.6323135
1.6308375
1.6087494
1.6226903
1.6263623
1.6575148
1.6448172
1.6482276
1.6588119
1.657909
1.6583726
1.6465024
1.6602107
1.6411708
1.6321555
1.6290357
1.638615
1.6341325
1.6362008
1.6279271
1.6713823
1.6669747
1.6902263
1.6929787
1.6866337
1.6675361
1.6706482
1.6723596
1.6636947
1.6715951
1.681035
1.6745115
1.6787176
1.6751415
1.6700708
1.6743903
1.6683962
1.6806377
1.6825976
1.6831128
1.6818721
1.6729033
1.656873
1.6704725
1.6804916
1.672062
1.6849341
1.6876981
1.6874279
1.6890573
1.6809186
1.667306
1.6702706
1.6751326
1.674988
1.6699838
1.6573344
1.6752153
1.6825052
1.6807239
1.6751174
1.6736405
1.6758191
1.6670813
1.669798
1.6723201
1.6680712
1.6560615
1.667888
1.6852604
1.6878166
1.6827956
1.6802987
1.6777037
1.670509
1.6683219
1.6689965
1.6684438
1.6658994
1.6052732
1.5928451
1.5826753
1.6220051
1.5946746
1.6108317
1.6389446
1.6462696
1.6382175
1.6558378
1.6441235
1.6563333
1.6562353
1.5933484
1.5821062
1.5521149
1.6365091
1.573532
1.5684904
1.6134079
1.6284612
1.5724205
1.6539427
1.6611205
1.6496503
1.6091098
1.5967164
1.5790984
1.5295828
1.5272782
1.6571211
1.6201337
1.5442275
1.5378625
1.6216517
1.566259
1.6215923
1.6062454
1.6812516
1.586537
1.5383107
1.5249225
1.6291388
1.6467811
1.6149866
1.6114678
1.5848979
1.6628903
1.6574376
1.6198924
1.6549385
1.6010285
1.636183
1.6367288
1.6474486
1.6574107
1.6010159
1.6174564
1.6150255
1.6099057
1.6137156
1.6154151
1.6214523
1.6123765
1.657613
1.6132857
1.6371327
1.6151482
1.6553453
1.6193089
1.6171724
1.6329642
1.6330351
1.6707372
1.6359793
1.6179315
1.5901219
1.6044187
1.6457116
1.6393194
1.613024
1.6095861
1.6138297
1.6314187
1.6415266
1.6532663
1.647574
1.6524524
1.6663702
1.6487254
1.6446767
1.6664366
1.5943056
1.6234191
1.6564863
1.6596944
1.6562297
1.6135546
1.6272242
1.6435384
1.6725716
1.6695208
1.6640689
1.6620432
1.6711128
1.6739683
1.6745244
1.6718233
1.6611798
1.6761105
1.678946
1.6785372
1.6796786
1.6729178
1.6549322
1.6624557
1.666376
1.6636005
1.6639917
1.682775
1.6831847
1.6855074
1.6796677
1.6667701
1.6687319
1.6673073
1.6716204
1.6675333
1.6692196
1.6612734
1.6450038
1.6541156
1.6752983
1.6778976
1.6744338
1.671074
1.6690794
1.6620999
1.6577896
1.6620903
1.6624502
1.6596176
1.6528668
1.6590397
1.660888
1.6802367
1.6813268
1.6773322
1.6747249
1.6620669
1.6628959
1.6620163
1.6603007
1.6597394
1.6581152
1.6060023
1.5883556
1.6012134
1.6027532
1.6282282
1.6501714
1.6602001
1.645527
1.648221
1.6429983
1.5987953
1.563615
1.56028
1.6550445
1.6334753
1.5837663
1.5800391
1.6195249
1.6083541
1.6436449
1.6439354
1.6806752
1.6229214
1.5833252
1.5687704
1.5475059
1.5354334
1.5262226
1.6132633
1.6276184
1.6424031
1.5415737
1.6646917
1.5687158
1.5827175
1.5978605
1.6326093
1.6679618
1.5367357
1.5183351
1.548656
1.6279161
1.6122671
1.6400837
1.6541577
1.6022209
1.6070101
1.5662047
1.6098456
1.5791679
1.579163
1.6649216
1.6087579
1.5913871
1.653005
1.6544786
1.6521473
1.6537815
1.6647333
1.670696
1.5906125
1.6100556
1.6167952
1.5787061
1.6171112
1.6114483
1.6116674
1.6014679
1.6131353
1.6650483
1.6200551
1.6117862
1.6172695
1.6150457
1.564677
1.5870161
1.5881713
1.6355901
1.6384721
1.6284433
1.6052515
1.596772
1.6017135
1.5985654
1.6383068
1.6417086
1.6438846
1.6443706
1.6643949
1.6660212
1.6601102
1.659152
1.5710188
1.652142
1.6085276
1.6707567
1.6649014
1.6550265
1.6514877
1.6453987
1.6074859
1.6175141
1.6599198
1.6565386
1.6639904
1.6706214
1.6528273
1.6739889
1.6750542
1.6763943
1.6714235
1.6519718
1.658818
1.6621812
1.6605569
1.6589006
1.6606328
1.6547969
1.6770863
1.6830938
1.6768643
1.6676789
1.668781
1.6652113
1.6791375
1.6663129
1.6636171
1.6658464
1.6596386
1.6766156
1.6525492
1.6434342
1.6452443
1.6493418
1.669713
1.6711824
1.6690282
1.6657169
1.6518283
1.6550059
1.6527674
1.653156
1.6529876
1.6512162
1.6566747
1.6554229
1.6565914
1.6746091
1.6574531
1.6733754
1.6776933
1.6702063
1.6566495
1.6558516
1.6534688
1.6708403
1.6516385
1.6513996
1.6501919
1.5946811
1.64567
1.6535645
1.6594491
1.6396903
1.6326991
1.6230536
1.5881202
1.5785439
1.5611588
1.6388689
1.6419296
1.6635195
1.5845674
1.6514324
1.5998467
1.6105268
1.630309
1.6705496
1.708188
1.5799587
1.5572057
1.5902454
1.5445715
1.5388798
1.5357285
1.5797355
1.6489216
1.6052037
1.5511235
1.6534771
1.8465337
1.6302704
1.5846197
1.5698414
1.6095707
1.7116588
1.6574456
1.5165107
1.5351565
1.5705059
1.628327
1.6074957
1.615048
1.6350541
1.6480511
1.6495736
1.5886705
1.6004385
1.596705
1.5771778
1.5625071
1.5433744
1.5489194
1.5823154
1.6114944
1.5861818
1.5657886
1.6516812
1.5946269
1.6591441
1.6669695
1.6611661
1.6605623
1.6666558
1.660565
1.66873
1.5963121
1.5999757
1.6063312
1.6090908
1.6182754
1.5987582
1.5762893
1.6156479
1.6103952
1.6094959
1.5493343
1.5547516
1.5861122
1.5792964
1.6360038
1.6332101
1.6361883
1.6309463
1.587738
1.6010284
1.5856987
1.6422372
1.5897409
1.6535638
1.6604463
1.6596568
1.6534184
1.6549138
1.6596351
1.6547619
1.5564464
1.6474734
1.5939124
1.6462664
1.6411455
1.643366
1.5906479
1.608153
1.6437822
1.6690844
1.6750696
1.6686057
1.6535219
1.653934
1.6550957
1.6711375
1.6570406
1.6537907
1.6567375
1.6516777
1.6691243
1.645633
1.6694288
1.6639777
1.6829758
1.6757516
1.6573772
1.6582578
1.6583711
1.654822
1.652437
1.6438254
1.6478325
1.6426925
1.6432436
1.6640729
1.6467696
1.6642079
1.6688961
1.6622527
1.6455504
1.6446583
1.6447081
1.6622173
1.6441946
1.6440721
1.6429462
1.6513176
1.6595498
1.6567578
1.6539986
1.6527432
1.6498568
1.6481181
1.6446794
1.6429879
1.6427915
1.6415607
1.6445823
1.6541529
1.6636633
1.6262725
1.6111118
1.6268364
1.6551354
1.5889017
1.5763419
1.5672726
1.6151009
1.6638691
1.635538
1.5977857
1.6323768
1.6664956
1.614455
1.603894
1.5933745
1.6574069
1.7193469
1.6646225
1.5490253
1.5750545
1.6050243
1.520253
1.6492242
1.5197841
1.6060672
1.5963751
1.5845683
1.7167335
1.6086467
1.6663912
1.6616549
1.7018433
1.9681772
1.526496
1.5550345
1.5380001
1.6242797
1.6204193
1.6011318
1.5922144
1.6390715
1.6356326
1.6440661
1.644738
1.577058
1.5817635
1.5896807
1.6001868
1.5807163
1.557883
1.5767416
1.5807893
1.5751256
1.5851229
1.5927578
1.5852609
1.5433384
1.5460003
1.5928502
1.5366862
1.5300098
1.563963
1.5599402
1.5389797
1.5684216
1.6171454
1.6424484
1.580349
1.5979917
1.5662315
1.602304
1.5428115
1.5390685
1.5636213
1.5713504
1.5754885
1.5521743
1.580222
1.5763438
1.5847933
1.5621903
1.5692467
1.6309193
1.6399703
1.6314552
1.6349799
1.6250126
1.5930894
1.6333951
1.5760108
1.5474496
1.5712007
1.5692844
1.5839829
1.5860746
1.6394169
1.6376264
1.6327034
1.6340662
1.5985026
1.6350617
1.6548316
1.6534438
1.6700128
1.6640146
1.6471489
1.6504743
1.650563
1.647162
1.64596
1.6363802
1.6637134
1.680521
1.678128
1.6551218
1.6879822
1.682163
1.6498333
1.6490116
1.6486028
1.6463701
1.6413429
1.6354366
1.6406735
1.6477289
1.6439098
1.6414932
1.6406569
1.6372658
1.6378468
1.6356905
1.6353723
1.6350139
1.6342105
1.6434482
1.6572231
1.6587721
1.6545347
1.6507227
1.6462282
1.6406345
1.6381095
1.6359262
1.6345062
1.6339701
1.6332731
1.6437602
1.6558857
1.6550075
1.6042854
1.6130539
1.6411333
1.6412375
1.6562961
1.5470921
1.6630448
1.5507719
1.6329306
1.6022605
1.5995518
1.6185226
1.6238949
1.6131947
1.6861385
1.6712632
1.6583501
1.561065
1.59108
1.5795397
1.5241656
1.5739851
1.5346764
1.5700811
1.5095144
1.5773612
1.5373718
1.5765671
1.6836761
1.605199
1.6295818
1.6480888
1.834803
1.640194
1.5133284
1.5382179
1.5328085
1.5621369
1.5945759
1.6231892
1.5939198
1.6062665
1.5792083
1.5882973
1.6395121
1.6416846
1.6556151
1.6502816
1.6347387
1.6350513
1.563196
1.5772619
1.6137977
1.5601035
1.5894814
1.589249
1.5592363
1.5864257
1.5638139
1.600637
1.5810211
1.5637923
1.5968941
1.6072517
1.6004668
1.5384109
1.5323269
1.5542509
1.5548583
1.5367068
1.5722099
1.580746
1.5663992
1.6401482
1.5444598
1.5551948
1.5491536
1.5514765
1.5275588
1.5530144
1.5255348
1.5729671
1.5337518
1.5569784
1.5508912
1.5543817
1.6264216
1.6316314
1.6255869
1.6351448
1.6386054
1.6359372
1.6411179
1.6389007
1.6351961
1.6079875
1.6015777
1.596511
1.6016529
1.632437
1.5852254
1.592011
1.5416625
1.5363082
1.5615551
1.5649002
1.5675671
1.5617659
1.5481291
1.5325741
1.5545043
1.561328
1.5528716
1.6230562
1.6283169
1.6278879
1.5547727
1.5720821
1.5672229
1.5688037
1.5708327
1.5705851
1.5699258
1.5770427
1.5794548
1.6319312
1.6338271
1.6364849
1.5789063
1.6343532
1.6097535
1.5909968
1.6243178
1.5401944
1.5689134
1.557079
1.5582617
1.5710025
1.5747777
1.5626833
1.5609799
1.5721024
1.6233358
1.6162472
1.6243228
1.6311672
1.629354
1.6251102
1.5907815
1.6262609
1.6521062
1.6687094
1.6668443
1.6447674
1.6756321
1.6701858
1.6392051
1.6398167
1.6408746
1.640981
1.6343947
1.626937
1.6734338
1.6569757
1.6713419
1.6859131
1.6817152
1.6455837
1.6895462
1.6674625
1.6824954
1.6414177
1.6389476
1.6395727
1.6375264
1.6317429
1.6265954
1.6347617
1.6424588
1.6459024
1.6414131
1.6376541
1.6329659
1.6289263
1.6275822
1.6270262
1.626737
1.6261632
1.6257931
1.65435
1.6458131
1.655296
1.6536282
1.6482042
1.6425864
1.6368338
1.6311348
1.6291912
1.6272015
1.6259024
1.6253768
1.6243335
1.6506746
1.6491158
1.6401422
1.5984352
1.6239788
1.6303145
1.6453539
1.627738
1.5479196
1.5908877
1.5636566
1.5856917
1.5259673
1.5879929
1.559029
1.5782049
1.6119378
1.5820572
1.6224608
1.6576012
1.6730685
1.6250435
1.538928
1.5703359
1.5736076
1.6025609
1.5249242
1.6268254
1.527652
1.5451235
1.5175527
1.5144798
1.5238769
1.5492727
1.5858877
1.5648125
1.6381553
1.5985025
1.5402327
1.741488
1.6025158
1.5303171
1.5218172
1.5417714
1.5517725
1.5240726
1.5782745
1.6019802
1.6052728
1.5634515
1.5775727
1.5721911
1.6561817
1.6557611
1.6336346
1.659995
1.6549815
1.6246971
1.6212407
1.6229286
1.6329363
1.6285952
1.6384655
1.6398024
1.6387435
1.6389103
1.5692818
1.579907
1.583675
1.5879985
1.6020548
1.5759166
1.5786335
1.5875246
1.5916785
1.6109852
1.6155706
1.5517664
1.5472089
1.5806204
1.5906867
1.6038052
1.5955778
1.6034344
1.5969284
1.5846381
1.5909776
1.6328287
1.6335128
1.6399148
1.6379868
1.6076175
1.5567717
1.5852927
1.5971487
1.6101168
1.5968992
1.5818859
1.5795691
1.5713191
1.6205182
1.6227129
1.6283281
1.6271734
1.6272437
1.6318987
1.6171754
1.6136216
1.6172714
1.6209971
1.6315222
1.6109739
1.6135057
1.5961234
1.5952925
1.5947655
1.5990669
1.5532813
1.5490396
1.5492902
1.5527146
1.5313818
1.5518615
1.5285402
1.5619376
1.5708925
1.5316351
1.5512696
1.5592776
1.5557734
1.5495787
1.6246828
1.6340308
1.6230196
1.6512758
1.6505724
1.5662075
1.536729
1.565556
1.5664173
1.5598255
1.5617376
1.5759169
1.5715262
1.5678489
1.5245163
1.5227253
1.5305428
1.5451798
1.5421948
1.5471213
1.543996
1.6175681
1.6088412
1.6153004
1.6368824
1.6310177
1.6086899
1.647511
1.6194206
1.6516079
1.6475437
1.6522967
1.6567972
1.6209244
1.6623338
1.6344098
1.5807414
1.5732342
1.6150718
1.5895132
1.5365471
1.54368
1.5571951
1.5601927
1.562335
1.5604575
1.531728
1.5478469
1.5519614
1.5526954
1.5484268
1.6221066
1.6282905
1.6278771
1.6220579
1.6073286
1.5423652
1.5282425
1.5395899
1.5435766
1.5470031
1.6115983
1.6187393
1.6143995
1.5581365
1.574753
1.5742189
1.5732429
1.5722453
1.5801931
1.5730176
1.5733281
1.5786808
1.5869357
1.5864097
1.5896932
1.6264876
1.6229835
1.6238503
1.6298733
1.6279296
1.6121187
1.5904245
1.5344359
1.5476019
1.5507159
1.5470503
1.5571617
1.5594724
1.5512955
1.5616412
1.5579142
1.6069238
1.5999784
1.6068397
1.6147937
1.6225146
1.6145932
1.6073562
1.6147897
1.6203759
1.6162223
1.5817849
1.6175041
1.6622524
1.6458607
1.6606853
1.6737032
1.6701928
1.6348848
1.6769472
1.6587717
1.6707224
1.6306658
1.6281775
1.6309733
1.6301473
1.6226327
1.6179872
1.6766654
1.6592183
1.6466477
1.6671252
1.6725097
1.6866626
1.6817237
1.6371492
1.692236
1.663934
1.6884801
1.6324144
1.6301863
1.6299787
1.6278854
1.6228249
1.6182675
1.6392208
1.6343889
1.6408291
1.6407084
1.6355098
1.6294453
1.6243338
1.6194928
1.6185711
1.6181944
1.6181099
1.6175559
1.6169414
1.655265
1.6553857
1.6394289
1.6503158
1.6456863
1.6397408
1.6334375
1.6279355
1.6223928
1.6203755
1.618321
1.6173541
1.6165614
1.6156137
1.6402887
1.63118
1.6264221
1.5747993
1.6099409
1.6298431
1.6315829
1.6159525
1.6338941
1.5501514
1.5683376
1.5512257
1.5650323
1.5406716
1.5338518
1.5444825
1.5721156
1.571884
1.5806202
1.6036663
1.5877666
1.5791336
1.6576528
1.6048897
1.5589971
1.5495532
1.5751887
1.5882856
1.5595117
1.5517498
1.5167219
1.5946623
1.5463118
1.5257525
1.5244225
1.5218621
1.523065
1.5166346