/*--------------------------------*- C++ -*----------------------------------*\
  =========                 |
  \\      /  F ield         | OpenFOAM: The Open Source CFD Toolbox
   \\    /   O peration     | Website:  https://openfoam.org
    \\  /    A nd           | Version:  7
     \\/     M anipulation  |
\*---------------------------------------------------------------------------*/
FoamFile
{
    version     2.0;
    format      ascii;
    class       volScalarField;
    location    "1000";
    object      omega;
}
// * * * * * * * * * * * * * * * * * * * * * * * * * * * * * * * * * * * * * //

dimensions      [0 0 -1 0 0 0 0];

internalField   nonuniform List<scalar> 
34124
(
143.72429
232.04839
137.2432
136.68554
298.33522
220.00511
216.41668
141.41205
123.97267
133.50363
343.98039
289.16728
279.99855
223.92636
197.61247
208.42378
151.31947
127.40288
123.72338
139.19304
330.68663
339.47256
360.34671
287.72035
263.68563
268.74024
230.7008
199.35881
193.89734
211.30643
137.55245
175.64925
124.33965
133.43658
157.17539
318.53624
325.94178
354.56813
336.42043
359.4634
362.66491
287.56755
262.94834
256.13283
270.41053
212.5365
244.0309
193.40076
200.69733
231.11688
128.50099
151.66205
159.29488
137.57803
135.02472
182.5914
311.35978
321.40336
346.65404
323.20247
353.51254
361.42973
333.52063
359.4402
363.32879
352.70234
268.9327
295.46239
253.50719
259.55353
291.43695
195.33592
222.02774
239.65268
206.85409
209.07147
251.72477
150.38528
152.01128
151.2363
172.68303
130.43489
171.14264
233.63438
310.73102
319.73076
343.35785
334.88962
348.6922
356.30689
318.70479
351.81214
361.41391
354.983
346.36435
358.781
362.71264
352.59671
336.45112
253.82882
286.22546
301.36662
267.9578
275.98955
301.77658
223.75661
229.17692
222.58236
260.51751
204.01251
233.98551
273.76252
129.70382
142.16077
147.07044
190.73728
240.00998
163.19971
181.20442
146.74458
310.26049
326.40085
344.1055
331.42105
350.5766
354.73915
356.43083
338.54494
355.93232
354.21277
340.44239
347.54704
359.26008
353.76433
339.06386
355.57915
362.8226
361.79511
347.16445
336.91569
318.10722
282.12577
292.09134
289.59427
327.42603
275.37657
288.97298
308.67611
198.83911
207.54821
227.64443
256.61947
293.61136
225.07138
244.04053
211.23038
149.2013
152.44037
161.76574
140.83133
186.09816
166.04671
169.68138
137.81993
159.81507
329.86552
331.9775
340.19424
339.04955
352.39914
354.24453
355.55183
332.26427
355.98258
351.71355
361.22024
358.33755
340.7524
353.10425
339.80341
353.64136
359.83871
356.53735
347.85978
337.92122
317.01513
363.52693
368.51856
356.13794
341.94378
329.62573
315.61673
301.95681
268.89622
272.24207
298.70215
318.91465
342.66966
283.12555
291.00562
261.13588
214.92262
219.81259
252.47691
238.21182
286.25171
239.08901
226.18165
200.06837
233.99991
154.61215
204.60706
151.8606
173.56139
168.29099
154.18014
184.4542
137.95138
149.87258
166.69251
335.30837
348.06403
325.36239
347.72639
350.57909
352.14239
350.3554
331.79899
350.84019
344.74028
352.46894
351.78069
334.57481
349.24417
338.10686
351.86739
363.13668
341.41467
318.32824
331.46117
315.57874
356.73608
360.01872
350.69233
340.7894
329.00591
312.05203
299.39794
363.43243
366.13862
354.42902
334.67797
321.46937
309.6578
293.10792
297.37707
286.52933
286.13614
315.34631
309.62034
336.16545
295.83167
277.04298
252.68707
291.49662
208.94659
252.18535
208.49008
234.85065
256.84943
237.06113
245.40892
200.90438
214.2943
215.37177
220.67106
157.14505
213.48354
149.3222
132.18041
171.89333
178.55005
170.58713
136.65512
150.90922
178.56313
332.04575
345.06328
327.36628
342.32279
335.11476
345.35994
351.10835
350.38828
349.9268
335.98362
349.62034
339.44878
328.22602
337.69715
326.24868
348.28411
358.23075
335.48433
317.5786
332.55444
311.30053
360.20899
338.30689
362.50861
317.96872
340.80893
311.60027
297.87888
356.14842
359.11216
348.69232
336.33908
318.0743
307.1715
289.96601
292.85701
370.4649
351.21366
345.01206
333.48807
315.39788
305.1167
288.80838
284.76771
296.53267
267.81336
310.39327
265.65847
293.47394
312.16153
301.80428
294.01302
257.58309
270.28894
262.31222
245.53302
206.6034
241.94524
203.13429
194.62056
242.20123
238.88985
244.07642
197.45526
189.46605
230.64839
224.71088
193.91753
173.64206
148.04224
141.54922
130.12701
146.91055
153.08164
174.97958
156.98312
175.56562
206.48232
347.3856
319.39488
320.15702
342.04987
332.03454
340.03019
344.27622
334.44416
321.07444
338.46509
349.82388
348.35982
337.70433
339.48611
316.13242
339.92266
353.13245
321.57763
322.55847
317.36112
304.07186
356.36211
329.14256
359.43234
312.26607
326.96124
305.60937
288.54318
340.72331
366.60731
321.0375
371.87419
299.14371
307.50653
300.38117
289.00373
364.01072
344.58048
346.45188
327.84398
314.68561
301.75252
285.23228
277.54076
290.13413
361.34974
375.57564
336.31821
335.64472
316.7711
298.94688
289.89283
278.69026
284.02778
295.29128
299.52257
260.92961
292.20457
260.82506
256.78121
295.28348
289.88363
299.03422
251.74927
236.47624
268.63379
243.63038
240.38987
214.21296
210.87438
192.01605
204.11271
217.65052
207.74727
258.22694
188.07827
216.99961
251.38058
204.83376
230.56148
199.31296
175.41903
139.37858
189.30772
128.76733
129.72902
160.26166
212.00523
174.12908
202.65926
224.48249
333.3001
344.66624
341.28932
316.83218
313.48862
335.07689
343.18053
332.31144
312.63046
331.15535
347.86727
327.9023
317.63799
306.49798
335.80504
359.65124
337.34957
337.47959
321.94692
318.7692
299.44453
347.9952
320.69643
359.37756
302.25982
313.15326
300.35675
284.44854
335.81654
362.97295
310.18662
367.51507
291.03434
290.82048
293.03928
271.59136
348.74443
321.51851
370.61743
302.46153
352.28373
289.44294
320.33653
293.1378
285.92814
357.25995
368.54927
328.17469
331.95034
310.57587
295.78052
286.17159
268.25301
272.58405
286.61911
373.67825
345.31763
377.09525
318.54123
347.18998
301.57088
288.8942
280.93012
279.94834
281.15931
297.73725
287.56295
285.47456
266.19319
276.41044
238.05819
277.59311
274.22094
268.93098
331.01692
231.97314
253.5519
289.76848
236.78341
250.80758
239.12259
210.39304
204.69004
205.80263
186.92599
189.29389
227.54928
282.09423
200.02231
233.26777
295.1662
215.01806
178.05185
157.7785
148.97994
142.16415
147.37144
172.84666
125.92171
137.19456
167.63076
175.5262
200.10939
233.2585
235.28516
341.07814
331.42051
314.51572
341.5627
347.34405
343.72928
291.70468
316.81386
327.58812
323.72723
346.65334
327.29808
308.01182
293.95636
329.29162
357.19963
329.53643
309.73277
298.81869
296.26451
333.71306
351.81198
358.87341
321.45168
322.62258
304.12508
289.85181
287.17471
330.2729
356.01413
302.27008
351.24971
284.83697
279.78767
292.11673
261.17852
342.59019
314.8142
371.90925
292.85575
346.74866
278.58215
310.96192
282.23882
266.01231
329.52969
355.2978
305.19295
368.97143
291.19146
335.18639
287.93506
282.852
369.89101
338.57691
369.60307
316.13054
334.56474
292.81552
281.70023
272.62433
262.33638
267.114
285.38717
363.11049
379.86886
330.75417
369.18188
305.12454
292.54573
287.45726
281.40084
277.5517
278.44482
307.21947
280.89276
288.24676
286.57732
244.79239
270.43548
238.35932
244.84727
256.63265
298.88417
334.40532
240.48115
273.88784
330.11142
244.931
230.31959
218.93469
218.47203
183.70546
211.60008
192.00054
184.02498
196.34252
240.79417
256.4687
230.48955
272.53835
289.41235
179.02142
223.34764
147.60045
137.68585
170.52878
172.83498
149.15816
176.43899
141.85535
165.88316
167.54284
173.29971
221.45158
166.26996
191.75876
352.00366
326.67955
342.97709
330.47992
309.07949
294.4633
342.30277
346.02248
324.22761
346.86059
283.72439
291.60234
327.27903
321.24949
325.98661
336.39765
345.11804
305.52714
283.90662
279.90487
324.42787
349.58842
356.12418
313.55933
296.19181
282.39148
303.331
320.22886
360.29746
335.88394
360.21213
308.79171
328.40746
307.03499
287.36305
275.03146
269.27786
293.65933
339.34638
307.27985
365.50376
285.98293
338.09097
271.30668
295.67057
276.51231
277.56106
301.27583
254.47724
321.15097
357.42999
296.80686
366.59777
280.62038
323.2074
269.28964
260.65834
340.38164
311.93016
358.84198
292.35681
359.48323
289.30431
359.96071
286.76494
278.45272
359.90573
374.58165
324.83061
354.11906
302.33757
282.82565
272.00063
270.0929
259.44987
261.8764
291.07801
373.52366
353.42895
376.82591
315.52886
366.65967
295.6665
292.89027
287.82717
269.67742
283.32795
321.50794
280.94942
275.15915
263.94102
272.10731
221.8131
272.59314
225.51616
268.47792
246.57934
273.65193
272.20046
309.45057
326.6612
282.13424
311.52421
335.24475
224.64967
258.31185
218.76347
186.74136
236.55889
221.4851
205.47174
207.76183
196.0529
223.65569
243.63969
255.75504
265.68613
231.7587
258.8882
219.27997
140.41302
196.97202
213.30326
163.87279
159.90328
179.49783
202.47991
188.04222
154.12606
128.97667
135.041
194.27184
169.23434
334.60633
342.40691
342.09871
307.68209
328.27176
340.43924
342.55993
309.68377
286.97681
280.56075
314.63264
342.18872
342.0819
320.56935
343.30543
303.39578
272.9453
282.5698
286.0918
316.15472
319.3285
318.18445
317.3461
345.26515
336.36055
285.42154
270.2423
271.84788
319.58382
334.54152
352.06837
350.87611
301.79364
282.12124
274.0606
291.31465
287.95557
317.14552
326.6195
351.01889
366.62848
320.96546
344.15971
299.33254
314.52849
277.17985
262.80714
265.629
278.67224
314.45164
362.82324
292.24664
357.86133
274.10106
323.42828
259.25199
275.44372
292.053
251.83184
340.06293
304.49708
359.14932
284.7999
352.27104
270.52126
347.52394
264.13472
254.0356
322.86962
342.92865
296.89519
354.75979
287.31316
342.0698
365.7215
275.19517
283.15636
281.7364
368.95949
345.44566
369.57115
310.201
353.41173
290.10907
274.87678
267.40776
251.60941
262.75727
304.13031
364.68051
374.68848
340.9017
303.72274
357.81636
368.56721
294.17267
291.29478
270.0914
269.98107
292.3443
341.0239
266.59157
281.60511
272.93228
234.15661
283.59775
259.03105
274.44412
251.82923
238.29373
257.53557
278.87497
287.85719
309.96414
320.05459
312.78543
287.5492
313.44071
246.72705
201.32998
238.12194
273.35093
227.64129
217.30781
252.82797
246.05
244.5172
230.98775
196.82883
197.9653
250.92549
245.60846
171.43633
184.45239
206.12911
167.30589
167.00286
156.40871
203.09319
354.45397
256.70501
169.57286
126.14362
169.42994
165.60297
169.88747
213.68164
314.85703
342.80815
327.87021
342.00495
339.84263
287.10704
306.19936
324.23034
341.4276
326.643
343.72032
287.62892
274.00625
334.59769
322.72359
331.27536
287.83948
334.75919
336.98312
307.23328
253.60638
306.81952
318.07225
321.83322
331.66073
296.66504
322.1624
345.91891
331.98967
357.22026
291.58761
258.17575
288.72921
276.73549
336.58007
317.17092
291.57859
278.48907
292.35649
361.18297
338.65066
361.27918
304.9875
336.70069
288.27632
267.83501
260.91643
345.85089
296.28152
356.39428
282.19504
348.05364
261.5317
338.57786
256.55334
244.13801
323.62522
340.9493
290.63013
353.33756
275.9945
336.43767
332.67137
253.20466
269.81737
252.41898
328.14455
305.86088
341.99488
289.95936
322.07978
362.87624
350.28462
273.7178
273.1652
292.38492
296.2352
359.39174
368.87003
331.21739
297.50559
348.28918
358.95833
281.39253
276.94523
253.82587
248.53404
268.709
317.76889
370.01081
355.17374
328.84372
299.89234
361.13345
369.91669
352.45247
311.41027
272.72945
266.29131
274.63723
307.51551
363.94393
273.978
254.06154
272.24785
300.98724
278.50304
281.21361
312.16941
293.98015
302.17534
301.62691
284.2731
272.37852
309.25786
311.23144
218.30679
222.26384
259.25811
231.5143
226.47698
226.89958
273.92775
317.45621
296.74989
241.65819
186.62058
239.54992
232.19777
238.72676
281.40046
166.07633
181.60952
177.16964
162.18903
156.77001
205.93205
174.4225
209.05269
261.18195
243.35888
150.01834
171.0036
330.45562
163.72332
222.90685
281.48452
295.11939
333.0719
308.69707
348.52655
327.84427
338.58695
282.95716
305.98893
328.29544
341.33535
330.41548
311.92288
334.49471
329.64192
347.81125
310.45193
341.71002
331.35185
312.06739
342.97016
306.64834
301.94159
308.06327
337.72211
330.71527
306.73871
321.71619
310.16072
343.69059
306.13391
316.85562
341.16191
344.7443
336.01511
327.28215
357.65423
322.9548
353.12038
291.29152
274.96488
310.02705
273.2115
249.56551
302.60437
293.75366
287.06503
352.91658
361.85044
323.37419
295.58664
342.08923
350.11128
280.26709
275.26825
246.97716
327.02093
340.76601
289.27556
350.81843
275.08996
332.78501
317.95436
246.52456
270.88994
240.06854
325.05793
303.81843
339.16227
279.39552
316.62676
347.58406
343.75776
250.09971
257.19809
283.12434
257.35705
313.40126
326.4246
296.97707
318.66997
302.04571
343.01698
357.34618
344.2222
285.27698
271.86477
281.08051
300.56132
306.88194
365.12149
349.08577
319.14983
289.4985
345.71099
362.27188
345.16587
298.50275
259.14282
246.55144
248.89632
276.41756
334.92281
361.04965
341.02639
316.97742
333.55345
371.22227
359.40478
352.70569
322.79128
325.61946
284.26853
263.99251
268.36643
286.85165
323.41583
381.27374
259.77268
258.92669
295.49834
286.86378
292.3071
296.48992
323.83166
338.98006
331.71342
306.85036
272.90526
324.73746
306.74222
307.77009
342.24444
219.92112
240.70713
228.92387
223.01707
218.53089
245.87636
265.23333
273.71109
306.5258
287.72277
247.54483
242.4063
374.92708
243.02661
276.829
331.19882
197.38105
176.01693
166.30318
295.08243
273.85633
171.93841
204.52754
203.74551
187.98532
205.46089
199.97886
210.49843
192.43215
383.44242
240.04492
255.24749
273.2141
334.30748
321.03991
343.49267
340.15334
335.20346
320.06223
341.82217
359.86554
317.10384
330.3819
306.8272
289.98538
317.63215
338.49475
346.39238
356.06499
319.36174
320.91772
312.21587
302.84694
275.41487
353.28559
356.9683
335.74923
324.17246
288.14759
322.33871
320.71546
307.16382
313.61371
359.38299
354.66164
292.3166
353.12871
283.69262
293.32771
262.30122
258.95441
247.90555
288.96399
340.10023
313.49773
343.84966
357.4457
342.3077
296.56709
256.35604
240.50011
325.70023
306.06573
317.09255
336.83379
339.07673
243.1047
257.30813
284.89865
238.1391
309.15828
320.88728
291.13587
312.53505
293.89006
338.0548
352.71559
340.88208
253.38063
251.73099
267.90628
295.07161
260.45582
290.23835
318.14423
339.59971
368.77521
357.92669
283.99145
279.97439
275.24077
317.83888
355.95168
335.2965
305.10518
331.49208
365.81816
354.33615
345.68972
316.44841
318.12266
274.01924
246.31837
245.10696
252.73629
285.60814
362.36723
363.61583
388.0228
370.95855
330.40337
294.01257
268.11186
262.49556
276.51241
298.22329
330.5475
398.72722
264.98874
283.11274
289.83442
300.83741
333.03053
326.62194
337.41868
328.12811
314.65421
321.70225
392.24601
308.39939
339.21958
368.08204
252.89288
242.75929
233.60617
299.93864
308.60149
243.8066
269.2529
254.04014
256.79598
269.91718
270.00568
284.0039
273.1345
357.31209
334.36339
298.70184
328.82321
343.84255
316.6349
234.61646
313.1095
224.73129
152.73698
204.42811
240.74084
269.76102
273.6756
228.60709
200.9646
273.20624
255.03283
318.45613
346.31517
338.27806
342.14242
344.71893
356.63204
352.69509
303.8753
329.6349
356.17279
352.79011
311.00961
312.54909
305.26774
321.22661
294.81809
297.61658
272.26832
332.82196
355.61828
347.9404
293.78267
286.84825
311.7091
307.02681
298.4729
354.86339
338.57886
359.44946
348.61942
313.71366
306.10898
267.71438
350.7196
330.69497
343.22564
316.40668
302.03722
354.44841
372.07419
274.33751
252.12805
252.59518
259.81255
338.87202
362.51985
353.38064
318.04295
274.01995
243.85194
237.09618
295.13945
331.34501
348.43737
343.84544
239.57622
247.6313
270.3821
237.83215
277.82886
316.68604
339.75406
363.05063
354.7677
253.56282
252.14615
256.42566
263.27428
282.42082
301.2521
319.97147
352.33779
371.3991
294.98061
283.54526
356.70878
357.48377
384.90069
364.39767
328.3228
285.78474
252.37117
242.50851
247.45561
256.00948
300.72106
381.35292
387.55351
385.35942
348.34102
301.80903
275.11527
264.21896
263.53537
275.75591
309.11172
348.52207
401.81115
328.12385
336.9467
305.27453
321.0116
319.09994
331.15588
343.12326
343.53589
382.82998
401.95997
344.6939
361.87869
365.21403
321.03972
299.22537
296.26879
269.67609
220.46147
279.78609
306.66051
323.89801
322.19669
327.57015
280.93836
325.57676
314.50733
351.0571
274.41564
260.15323
233.05337
161.95671
228.75207
190.55551
206.49411
368.66657
346.0935
307.67473
169.74283
695.81315
363.82486
265.53351
201.90419
336.81674
351.58062
340.06505
322.0151
339.42157
361.5651
346.55436
346.70933
350.37022
333.18538
358.3827
369.31089
349.61018
309.94842
281.60355
338.16985
353.8867
342.56285
316.32576
279.32315
256.98454
339.21273
352.11151
357.29444
358.19289
345.83254
317.28283
371.83715
351.26554
327.44046
289.21686
286.98921
254.94353
372.4722
363.13876
366.48929
377.08678
380.49624
270.4891
255.26677
257.2036
241.81108
243.64974
253.88734
257.19927
362.45483
380.365
359.36441
333.23447
287.15598
251.20931
239.87472
236.05647
278.04699
311.7582
338.65558
362.36121
357.66435
241.45861
244.6998
254.28271
236.30344
266.50099
294.91762
318.13077
348.62151
364.98711
253.86594
255.95514
283.67167
285.60179
288.15672
304.23121
324.75632
346.87065
358.2776
307.71761
296.46185
386.53906
376.92876
380.02394
344.15518
299.99712
264.01279
245.51918
240.30376
247.07059
262.07948
319.9558
386.13294
369.00317
361.31648
349.79706
308.93021
280.28762
268.94778
267.0738
273.46732
348.96413
359.2388
382.12328
334.94694
335.83913
332.75974
332.18623
302.23955
338.62756
362.41097
367.81346
374.20891
404.7009
391.49231
356.08075
353.6037
365.55212
289.46122
286.55909
293.99005
235.46482
282.5294
271.83986
283.74221
376.48559
352.23934
350.67214
265.60258
446.67589
346.24751
324.87667
286.88728
378.28424
252.24675
152.06293
339.74531
223.2519
211.7872
312.91376
302.19685
193.90563
641.89231
386.53306
449.76755
195.54761
175.67291
315.61892
346.04131
305.61045
326.50346
344.11164
340.42564
346.07666
321.58385
300.70296
321.49435
356.45297
346.3034
343.63374
343.80479
348.73977
358.55922
360.41194
285.75318
316.23148
269.87628
335.07125
347.65542
354.16481
317.29537
293.46591
254.79827
341.63814
378.70061
344.52435
355.5489
325.74556
349.89723
324.27582
294.83325
370.96312
329.4136
303.96935
270.88677
254.1334
407.20786
373.36672
372.77124
379.91172
272.11359
237.96059
276.25569
242.30088
235.72715
246.01413
239.46813
245.42981
364.44282
340.67793
309.223
264.32035
241.57067
236.86784
266.02046
291.49254
318.36933
345.95559
248.45101
234.58411
262.99422
275.87631
298.8381
321.72324
341.72746
343.96855
256.39893
255.94557
310.29552
293.22173
287.10147
290.74546
303.63865
322.79577
349.01046
325.39783
368.33682
300.30267
392.55344
366.29227
355.9868
345.53817
309.61136
275.02948
253.59906
242.2183
240.91006
281.41968
332.96064
373.57647
372.76419
333.35001
332.61352
310.66456
284.6164
270.13597
270.30325
325.48647
277.59445
362.56249
339.09688
366.33461
329.91507
323.76534
310.5156
342.82219
332.78916
353.80427
386.25034
395.09895
388.60044
428.29243
358.02647
353.31298
361.5282
329.59492
283.18423
239.04434
386.05224
304.9306
287.63734
358.55783
382.25642
265.82544
436.45155
453.47475
351.89162
277.37714
264.5758
296.66585
183.63542
179.12226
419.26362
368.08363
229.29031
206.99235
416.63184
275.22354
403.94674
331.78247
514.88831
261.61983
164.82958
145.6201
359.1812
330.77817
274.23003
298.0227
286.32506
342.31023
326.58182
269.79118
305.0536
290.96279
301.08755
321.37181
298.14204
302.57145
335.38598
333.89935
356.77978
346.73771
341.23569
342.67879
332.72824
338.72531
280.16763
357.59787
295.01123
308.05335
263.23277
335.17447
375.3013
321.99179
300.52709
244.26757
404.38752
377.59522
328.54422
314.2545
366.38216
405.41203
362.50834
303.97345
269.95895
307.47975
305.82879
322.36258
302.22837
305.31729
350.82639
280.43788
265.78507
234.46566
262.87454
249.4999
265.98415
240.36461
230.26041
237.72434
208.31146
269.71087
337.63223
311.70899
279.87303
252.56519
258.87613
274.23517
298.06655
323.53614
227.89862
260.91187
267.1479
280.44697
298.16216
317.7903
331.33078
308.60106
287.10998
260.42279
318.3618
292.14353
284.62729
291.12692
308.37785
333.83566
331.05179
315.22661
360.99731
345.05661
300.02797
410.02915
372.90272
322.35053
327.81403
306.88859
282.43369
259.16911
248.97853
257.09325
249.53982
284.90516
308.82694
374.67706
381.13383
341.66357
310.06736
309.67548
288.0397
271.78872
269.16776
297.8275
363.97316
283.31153
359.6844
320.31058
355.89369
342.1213
317.5085
349.60568
353.96477
385.20065
428.80352
456.32708
349.39158
341.22328
343.72078
326.30634
268.20832
266.09019
404.74247
395.11622
321.81697
303.53191
382.95883
367.9915
448.19161
420.79611
521.38269
315.65313
242.4931
228.24138
224.74201
194.21805
178.06816
333.16584
370.76575
434.6675
203.03165
535.43765
310.96387
320.35814
345.47362
407.77
514.65115
177.4336
137.88347
204.06091
353.03789
353.81372
324.59228
290.06956
244.58
267.24659
241.9133
309.50381
277.11083
292.99473
321.75714
241.63042
261.48977
280.02602
287.03017
272.16528
268.08862
312.67338
300.69674
287.20058
369.47271
381.73183
314.829
371.27018
358.904
359.00377
343.77374
356.61144
253.78681
394.24621
374.73632
392.81434
391.01543
267.54791
347.20143
264.16967
376.3998
314.40968
411.07055
372.00708
301.19144
268.21403
237.30822
276.88073
271.48162
267.78627
276.4662
325.78441
303.60261
302.56897
243.7749
227.75601
249.44545
222.8579
264.24011
255.89269
232.42394
216.08603
236.92303
215.98035
196.61759
259.02016
245.55124
281.80404
279.90884
218.96385
263.01166
269.46684
281.50341
301.02518
315.80482
305.51465
292.13532
282.24961
276.07493
266.56346
303.49391
286.34694
290.94412
300.84484
323.19791
339.31267
323.54709
300.31429
319.328
386.93729
375.47376
353.09842
290.15505
419.20974
377.41751
330.62636
296.03801
305.05842
284.19576
265.26436
251.53915
254.6512
270.23697
261.7669
268.84351
290.72389
370.34243
408.61701
343.75012
323.5284
294.58904
297.98203
286.32605
278.6865
270.23468
349.00846
301.74955
354.865
278.9913
358.70917
301.27325
324.78261
338.9978
441.06052
445.07158
482.82018
340.04999
327.47443
315.48756
314.68901
299.276
267.87065
373.99792
409.60525
486.70201
312.9105
494.28192
379.33251
399.08935
415.23701
508.74341
627.41631
249.60715
209.83525
275.12018
207.6043
192.28952
193.7458
270.10888
423.00817
354.11164
217.5296
544.87176
1053.9213
503.39976
371.50471
283.31012
399.87895
651.20709
521.41852
146.82969
176.81773
245.58669
357.1674
345.90185
392.72971
309.96701
295.79893
260.2857
225.76277
242.31186
265.53412
285.06084
246.5384
262.72142
213.02682
252.26116
307.53094
301.35756
320.55489
252.29727
216.2709
289.8744
282.02793
272.70304
261.9317
267.78938
259.22487
267.76308
347.79091
373.14079
358.2142
380.30626
390.73475
387.26349
333.28534
381.632
364.5034
411.87576
234.3769
307.45494
265.91329
375.8326
374.15631
324.57717
284.31256
446.50819
314.48404
377.55758
241.81218
247.81608
219.34652
285.97703
281.49558
269.80475
258.65848
274.20682
263.90007
253.56703
202.52841
236.43041
204.18285
222.34862
225.62452
204.78897
207.75984
186.7891
207.63749
264.88787
274.08658
287.50519
290.13286
320.88818
281.76766
281.99585
279.80051
297.97847
298.79716
289.68144
267.70924
288.019
317.87088
324.69896
320.60005
347.65427
318.00753
343.30581
384.34361
399.6055
379.5131
406.72056
393.91476
330.04473
302.62162
289.25725
276.96156
278.78598
272.71439
258.77123
283.0809
261.2565
257.09149
266.32153
255.80576
276.95444
340.70911
421.5263
377.80555
334.88912
324.83346
320.39619
338.58286
362.78702
358.61051
357.63967
298.69826
308.79277
437.17035
487.59738
539.23269
331.02321
301.61119
323.20872
337.74438
311.58489
288.06775
281.6021
340.51989
460.16996
438.43899
331.05261
492.46598
556.47875
452.39541
418.12175
339.90758
513.50165
686.1355
547.07688
201.5837
252.22038
293.21408
149.56656
435.88075
140.20146
376.96895
409.1725
400.9514
808.20577
440.56908
687.10553
548.96221
678.39437
1458.1502
165.60763
215.86637
177.60633
356.45072
379.38972
363.01276
392.4957
277.68406
312.2012
262.12377
241.57088
211.08669
225.7207
241.84205
266.23916
308.26724
304.84672
294.4991
253.52917
248.35118
278.85411
286.16719
296.10107
253.81888
213.56093
243.4596
336.23381
213.06588
352.58541
343.65366
195.14762
210.52905
317.85998
237.99058
204.3081
405.36002
361.06767
426.38647
274.48185
214.01549
232.2754
244.73439
225.03492
390.54874
283.72326
304.07469
328.10166
381.51002
358.30228
287.75949
386.23002
322.36931
257.45208
451.94728
412.16395
232.93084
208.69158
189.12711
194.41023
198.72121
197.32072
194.02236
228.01028
215.33524
219.41513
193.70431
180.79289
199.94535
291.70147
282.8496
313.28679
335.66075
269.79741
293.76871
324.18328
322.85401
312.66515
268.82419
309.84306
300.75081
286.88116
334.59063
309.38401
334.63851
341.61938
332.86086
371.0674
399.01408
381.67535
386.19654
408.79504
351.37482
310.61043
292.20371
275.24851
275.42086
284.562
254.2781
247.691
270.35496
333.20738
456.69489
415.61899
372.55183
344.7862
354.32512
343.81902
354.87126
375.75804
362.26974
372.66255
298.50359
302.65605
488.77715
548.39617
554.05103
299.0062
309.74595
325.82743
329.65727
345.91474
205.4743
474.53615
217.76915
451.62608
434.37889
447.34423
496.44924
495.88474
504.74251
627.85806
598.25257
579.35502
231.83277
272.75672
253.94416
181.96112
350.13366
181.61187
292.66929
132.43826
379.43808
271.84569
463.30208
800.86236
559.9448
543.07271
553.62971
1113.3958
535.95218
140.7456
185.2666
166.67638
228.1345
304.66191
391.26168
311.70805
387.27005
369.71496
427.00988
280.49056
259.79063
310.64715
327.68539
238.92992
229.274
201.58558
226.80274
291.9661
303.4584
360.24429
322.02147
304.1638
267.31288
225.38863
257.04008
260.83945
273.38993
308.97063
313.09225
319.62076
361.05124
213.34682
321.28128
318.46923
194.64441
215.73053
228.62951
212.38539
262.37055
583.91978
440.22632
420.40827
390.16718
286.76539
389.80119
182.23747
396.99422
183.06934
200.3399
191.52918
191.72526
226.88561
333.42796
335.61999
328.10747
320.20501
325.62783
311.81678
314.5852
332.9009
310.85929
311.80314
308.85571
306.47807
228.12315
430.56265
432.35824
327.26253
257.04846
277.9487
290.06009
270.39292
258.23744
215.2281
200.22608
206.8489
216.11864
222.95079
245.09368
262.35064
236.67754
509.56305
570.86568
497.33842
440.54058
484.04892
340.96681
363.90859
403.22108
369.58324
294.95247
309.94322
336.55892
464.95796
402.35814
476.11769
468.6123
224.12294
177.09772
181.84436
183.98033
180.4372
180.32772
187.6624
188.35465
191.93207
190.34145
219.24021
214.86774
211.57148
222.87701
203.69633
186.2889
173.67476
194.18703
282.22117
290.63521
277.16306
278.12166
307.40418
331.838
266.43143
284.59336
320.70364
346.00198
286.86029
256.86919
284.25537
323.85344
282.3269
290.04695
278.18221
316.76273
306.28965
346.48879
326.20261
343.15948
324.4547
359.0824
363.40295
362.87887
390.65335
455.21064
378.31902
335.46503
307.72741
298.84846
278.63402
269.95178
279.34715
253.41515
247.37218
270.54108
332.67363
467.36451
502.65431
417.86486
379.96398
364.35325
377.23848
352.47078
347.17356
391.34112
377.66651
368.67529
295.02555
293.02914
552.99819
566.33384
545.24928
292.11702
311.93153
318.85651
337.63729
312.64635
219.2455
384.50919
255.3323
317.83352
177.37121
412.01821
340.19702
452.30232
549.50743
463.54763
531.80602
586.80466
648.05762
500.08968
196.99816
243.83015
244.39212
293.06102
209.0495
655.5006
181.56356
246.26096
172.1384
166.67885
188.78964
306.7493
526.44392
410.3878
711.78867
525.4431
251.6912
900.29941
445.91595
202.04305
160.11527
197.28546
208.33452
153.08974
274.19951
345.00175
362.14611
256.52217
378.36691
452.04356
287.78567
273.8724
246.18785
310.30053
332.73649
218.3168
287.51742
279.85349
301.02676
317.39233
274.68905
289.08722
292.71652
278.04289
349.71793
327.19217
344.43566
342.22025
347.25389
333.66118
315.00696
327.85168
343.86799
257.41903
278.25364
202.53422
238.07067
220.57557
244.16918
240.59809
219.53243
233.18859
219.03331
221.745
235.71046
261.77468
263.53394
259.96521
258.17152
291.50832
324.04453
277.88602
309.07397
330.49935
282.24324
329.25242
331.5241
331.54487
355.4751
290.35693
326.40674
334.15849
360.09485
353.84699
352.6829
340.24751
338.68321
346.74844
323.76249
344.91581
342.13745
320.92284
328.14282
326.54065
328.75363
813.26904
426.38346
417.44453
389.76985
319.58519
401.54129
186.09421
368.68859
408.28783
182.0327
193.28661
203.39225
201.93597
192.82322
234.753
248.16602
234.59498
265.13106
261.22083
1451.1478
553.5489
746.69109
791.38234
613.35914
610.46651
513.13641
514.98647
448.99256
260.74579
162.53745
171.45618
185.62901
179.06966
185.66845
179.16793
216.79462
208.50986
207.94099
346.95185
349.42843
324.18353
340.7134
322.27217
324.83486
329.70886
308.70273
325.73519
316.81542
308.04462
344.51598
274.71057
272.17888
324.97454
502.08961
297.5906
419.2877
313.73011
336.50113
319.9048
301.79806
242.80615
256.04387
266.32087
251.09087
241.99558
282.52066
294.11563
276.24644
262.97736
230.10528
208.39354
186.49871
201.5885
192.11532
200.5903
217.80153
224.95739
235.69777
596.11131
774.83193
726.37059
560.88337
590.52594
453.42627
397.48624
391.88907
444.07191
610.7979
567.34353
543.20077
338.87936
356.52951
385.91108
358.6625
453.30085
530.35993
510.46824
165.8806
167.99543
178.66801
171.89048
169.41834
176.57983
175.19481
174.94865
168.33761
198.66451
201.99233
194.7781
202.67959
215.63497
209.89322
208.2954
204.77623
190.64547
179.95252
167.90136
191.02215
271.85189
285.90548
268.55327
287.46226
274.53796
278.98019
303.9724
340.25877
324.87773
262.72805
267.28864
318.60826
310.37282
261.48945
254.04767
273.38497
321.95486
315.81511
291.5915
275.56122
288.91219
277.40006
335.59797
304.15134
338.60265
327.1288
329.99458
301.63735
324.12756
335.24973
350.69309
384.03206
415.22631
493.11399
368.05365
330.54689
313.48941
298.02295
269.37732
257.88918
283.21604
250.25268
249.06116
272.86515
323.32781
506.5492
480.68363
505.54148
418.36986
385.99179
371.91491
397.86192
359.18379
348.52967
388.01264
362.80764
364.59723
290.15023
281.79506
568.96601
544.40727
531.27492
263.75762
298.25878
323.51344
335.39471
301.77502
325.61624
225.74715
353.72766
250.89673
300.15312
224.29336
217.86654
220.33746
404.87932
441.70209
503.39674
585.81035
488.17886
407.67466
635.33945
460.37955
310.6396
215.87319
253.49329
271.51613
232.33837
249.71131
147.40167
453.44758
339.64355
216.91538
181.9044
195.88116
193.45841
182.13979
230.69856
692.25473
1218.7123