/*--------------------------------*- C++ -*----------------------------------*\
  =========                 |
  \\      /  F ield         | OpenFOAM: The Open Source CFD Toolbox
   \\    /   O peration     | Website:  https://openfoam.org
    \\  /    A nd           | Version:  7
     \\/     M anipulation  |
\*---------------------------------------------------------------------------*/
FoamFile
{
    version     2.0;
    format      ascii;
    class       volScalarField;
    location    "1000";
    object      p;
}
// * * * * * * * * * * * * * * * * * * * * * * * * * * * * * * * * * * * * * //

dimensions      [0 2 -2 0 0 0 0];

internalField   nonuniform List<scalar> 
34124
(
-3.2342201e+18
-3.2340838e+18
-3.2188798e+18
-3.2416207e+18
-3.2241193e+18
-3.2189932e+18
-3.2439155e+18
-3.1834717e+18
-3.2252686e+18
-3.2589376e+18
-3.2246056e+18
-3.2099242e+18
-3.2296107e+18
-3.1805928e+18
-3.2268725e+18
-3.260549e+18
-3.0912984e+18
-3.1884217e+18
-3.2442103e+18
-3.3107774e+18
-3.2253825e+18
-3.2154768e+18
-3.3540694e+18
-3.1736888e+18
-3.2138675e+18
-3.2382937e+18
-3.0892209e+18
-3.185725e+18
-3.2445745e+18
-3.2991775e+18
-3.0972806e+18
-2.8863869e+18
-3.2006127e+18
-3.2982059e+18
-3.5210575e+18
-3.2268813e+18
-3.21623e+18
-3.3570335e+18
-3.1895074e+18
-3.3520798e+18
-3.5761854e+18
-3.09566e+18
-3.1772821e+18
-3.2202628e+18
-3.2633695e+18
-3.0927611e+18
-2.8921154e+18
-3.1958805e+18
-3.2850251e+18
-3.4544251e+18
-3.1109335e+18
-2.8856539e+18
-2.6444047e+18
-3.2439708e+18
-3.5476174e+18
-4.2650018e+18
-3.2178818e+18
-3.2373491e+18
-3.3667544e+18
-3.191984e+18
-3.3563954e+18
-3.576832e+18
-3.1400058e+18
-3.3410076e+18
-3.575324e+18
-3.8110374e+18
-3.0997958e+18
-2.9304434e+18
-3.1814665e+18
-3.2418283e+18
-3.3481989e+18
-3.1072862e+18
-2.8840278e+18
-2.6507794e+18
-3.2282979e+18
-3.4585738e+18
-4.0031045e+18
-3.1401998e+18
-2.8841263e+18
-2.6338493e+18
-2.0646025e+18
-3.4584414e+18
-4.3950342e+18
-3.5728821e+18
-3.1973953e+18
-3.2311728e+18
-3.3693864e+18
-3.2695033e+18
-3.3836159e+18
-3.5824961e+18
-3.1430335e+18
-3.3467067e+18
-3.5773822e+18
-3.810994e+18
-3.052519e+18
-3.321397e+18
-3.567539e+18
-3.8099266e+18
-4.0445378e+18
-3.1113e+18
-2.9166009e+18
-2.7010192e+18
-3.1973644e+18
-3.3273428e+18
-3.6103472e+18
-3.1298718e+18
-2.8701896e+18
-2.6366377e+18
-2.1309005e+18
-3.3867407e+18
-4.0972605e+18
-3.4911232e+18
-3.2763146e+18
-2.9151319e+18
-2.5777503e+18
-2.0876603e+18
-1.4520629e+18
-4.0441204e+18
-3.5300268e+18
-3.152942e+18
-3.1506046e+18
-3.2137179e+18
-3.3636237e+18
-3.2601193e+18
-3.3904294e+18
-3.5845981e+18
-3.3667176e+18
-3.3269248e+18
-3.5800533e+18
-3.8108962e+18
-3.0539246e+18
-3.3297529e+18
-3.5709986e+18
-3.8111948e+18
-4.0458717e+18
-2.8999472e+18
-3.2626718e+18
-3.5443969e+18
-3.80275e+18
-4.0443019e+18
-4.3215768e+18
-3.1214436e+18
-2.9203694e+18
-2.6877086e+18
-2.3505786e+18
-3.2735921e+18
-3.588837e+18
-3.3472189e+18
-3.2408676e+18
-2.9023709e+18
-2.5791699e+18
-2.1693048e+18
-2.1664934e+18
-3.8831917e+18
-3.462326e+18
-3.1404498e+18
-2.8473296e+18
-3.4626465e+18
-2.421549e+18
-1.9138517e+18
-2.0640406e+18
-2.6060952e+18
-3.469719e+18
-3.1529037e+18
-2.7647332e+18
-3.1611068e+18
-3.0685013e+18
-3.3459336e+18
-3.2362562e+18
-3.3844761e+18
-3.5803594e+18
-3.3593281e+18
-3.3208957e+18
-3.5843078e+18
-3.8114163e+18
-3.3843335e+18
-3.5642934e+18
-3.2788286e+18
-3.8021299e+18
-4.0474814e+18
-2.9019361e+18
-3.2737463e+18
-3.5531859e+18
-3.80705e+18
-4.0467688e+18
-4.3178393e+18
-2.7528145e+18
-3.1930452e+18
-3.5093842e+18
-3.7721898e+18
-4.0408542e+18
-4.3232159e+18
-4.690051e+18
-3.1771171e+18
-2.9359335e+18
-2.6634615e+18
-2.3751754e+18
-2.3862839e+18
-3.5069083e+18
-3.3430875e+18
-3.1309251e+18
-2.8448989e+18
-3.3996585e+18
-2.456539e+18
-2.0528134e+18
-2.1926285e+18
-2.6203562e+18
-3.4201886e+18
-3.1396051e+18
-2.7693191e+18
-3.0469392e+18
-9.2909536e+17
-3.3813405e+18
-8.7119841e+17
-2.2327666e+18
-2.6244886e+18
-2.8587577e+18
-3.143102e+18
-2.777654e+18
-1.9130299e+18
-3.1815913e+18
-3.3566891e+18
-3.0782349e+18
-2.9261274e+18
-3.295517e+18
-3.570439e+18
-3.344577e+18
-3.2833941e+18
-3.5876633e+18
-3.8062096e+18
-3.3870761e+18
-3.5707545e+18
-3.2839809e+18
-3.8027398e+18
-4.050321e+18
-3.580759e+18
-3.4217172e+18
-3.8140232e+18
-3.1722192e+18
-4.0560784e+18
-4.3137819e+18
-2.7645488e+18
-3.2056288e+18
-3.5306716e+18
-3.7805361e+18
-4.0450889e+18
-4.3235223e+18
-4.6650973e+18
-3.1170382e+18
-2.7084802e+18
-3.478848e+18
-3.766421e+18
-4.0337477e+18
-4.3251901e+18
-4.6813769e+18
-5.0651434e+18
-2.9252011e+18
-3.275894e+18
-2.6189018e+18
-2.3337768e+18
-2.3846053e+18
-2.6544256e+18
-3.330443e+18
-3.1271579e+18
-2.797755e+18
-3.0357681e+18
-1.8700043e+18
-3.3492299e+18
-1.7141577e+18
-2.277066e+18
-2.6392568e+18
-2.8495856e+18
-3.1273529e+18
-2.7716317e+18
-2.0159986e+18
-8.903943e+17
-3.3066092e+18
-4.5915104e+17
-3.1362455e+18
-2.3209193e+18
-2.6498349e+18
-2.8556366e+18
-3.0481896e+18
-2.7349815e+18
-1.8725206e+18
-7.2634419e+17
-3.2295595e+18
-3.3891675e+18
-3.1509794e+18
-3.3285801e+18
-3.593815e+18
-2.969004e+18
-2.7872137e+18
-3.2290853e+18
-3.5613906e+18
-3.7973841e+18
-3.3882556e+18
-3.5872827e+18
-3.2911918e+18
-3.8055741e+18
-4.0499861e+18
-3.5948286e+18
-3.442107e+18
-3.8353296e+18
-3.1753961e+18
-4.0608799e+18
-4.32469e+18
-3.6374602e+18
-3.8486682e+18
-3.3944907e+18
-4.0951697e+18
-2.9372033e+18
-4.3290813e+18
-4.6295625e+18
-3.1373125e+18
-2.7189239e+18
-3.4928636e+18
-3.7871903e+18
-4.0402941e+18
-4.3287893e+18
-4.6627161e+18
-5.0311762e+18
-3.066125e+18
-3.4586662e+18
-2.7809765e+18
-3.7610166e+18
-4.0444568e+18
-4.3354965e+18
-4.6701866e+18
-5.0409198e+18
-5.2757207e+18
-3.0456396e+18
-2.4093228e+18
-3.2972423e+18
-2.2405368e+18
-2.4112873e+18
-2.6738999e+18
-2.8464511e+18
-3.120588e+18
-2.7806186e+18
-2.183599e+18
-2.0025641e+18
-3.2578408e+18
-1.3377201e+18
-3.1076892e+18
-2.3916348e+18
-2.6588349e+18
-2.8509745e+18
-3.0388743e+18
-2.7288879e+18
-1.9794009e+18
-1.1227492e+18
-2.9312403e+18
-4.8820366e+17
-2.957705e+18
-2.0510382e+18
-2.3422821e+18
-2.7009809e+18
-2.8476944e+18
-3.0338824e+18
-3.1203578e+18
-1.715656e+18
-4.1852974e+17
-1.0033115e+18
-3.4279546e+18
-3.2958183e+18
-3.1696576e+18
-3.4156187e+18
-3.6489551e+18
-2.9780334e+18
-3.2993753e+18
-3.5909717e+18
-3.8276383e+18
-2.832392e+18
-3.1792419e+18
-2.7325227e+18
-3.5295504e+18
-3.8107179e+18
-4.0519736e+18
-3.6297308e+18
-3.4684051e+18
-3.8769034e+18
-3.188682e+18
-4.0665524e+18
-4.3380308e+18
-3.6598142e+18
-3.8715393e+18
-3.4256216e+18
-4.117003e+18
-2.9354647e+18
-4.3476282e+18
-4.6348038e+18
-3.888752e+18
-3.6826224e+18
-4.140517e+18
-3.3445684e+18
-4.4049557e+18
-2.497592e+18
-4.5786975e+18
-4.9824153e+18
-3.0927166e+18
-3.4783982e+18
-2.7961418e+18
-3.7796017e+18
-4.0611648e+18
-4.3481636e+18
-4.656806e+18
-5.007737e+18
-5.2577982e+18
-3.4072342e+18
-3.0830674e+18
-3.7491514e+18
-2.8570591e+18
-4.0701615e+18
-4.358949e+18
-4.6660061e+18
-5.0103975e+18
-5.2540777e+18
-5.3967178e+18
-2.540836e+18
-3.1772612e+18
-2.0787965e+18
-3.101488e+18
-2.4923036e+18
-2.6888291e+18
-2.8534e+18
-3.0305353e+18
-2.7369004e+18
-2.1431176e+18
-1.7814797e+18
-2.9588524e+18
-1.3354214e+18
-2.9530874e+18
-2.188003e+18
-2.4228729e+18
-2.7132952e+18
-2.8472644e+18
-3.03007e+18
-3.1224641e+18
-1.875429e+18
-1.0279006e+18
-1.3261186e+18
-2.4434518e+18
-3.198123e+18
-9.791738e+17
-6.4712302e+17
-2.6455553e+18
-7.5686068e+17
-2.8271236e+18
-2.9944042e+18
-3.102179e+18
-3.2403574e+18
-3.6650321e+17
-5.4862944e+17
-2.3354214e+18
-3.7172168e+18
-3.5082333e+18
-3.4490311e+18
-3.214066e+18
-3.2513736e+18
-3.0433514e+18
-3.3677473e+18
-3.6525901e+18
-3.9187251e+18
-2.860884e+18
-3.2651194e+18
-3.5964008e+18
-3.8470843e+18
-4.0981335e+18
-2.756329e+18
-3.137452e+18
-3.5161438e+18
-2.8199356e+18
-3.8233563e+18
-4.0804612e+18
-4.3620831e+18
-3.7011996e+18
-3.9170062e+18
-3.4803824e+18
-4.1469465e+18
-2.9366673e+18
-4.3725808e+18
-4.6402955e+18
-3.9118658e+18
-3.7178096e+18
-4.16361e+18
-3.3685553e+18
-4.427733e+18
-2.4652317e+18
-4.6028624e+18
-4.9591712e+18
-3.9615953e+18
-4.1910157e+18
-3.7090611e+18
-4.462785e+18
-3.2680636e+18
-4.8248127e+18
-2.513291e+18
-4.8012761e+18
-5.218479e+18
-3.4371384e+18
-3.0994292e+18
-3.7723711e+18
-2.8776684e+18
-4.0934059e+18
-4.3795233e+18
-4.6687951e+18
-4.9775401e+18
-5.2332838e+18
-5.3891977e+18
-3.4394367e+18
-3.7711695e+18
-3.1526378e+18
-4.0768726e+18
-3.0020003e+18
-4.4010853e+18
-4.7106311e+18
-4.9553449e+18
-5.225056e+18
-5.3874971e+18
-5.4944439e+18
-2.9626776e+18
-2.0509322e+18
-3.0083933e+18
-2.4581438e+18
-2.5825675e+18
-2.7455381e+18
-2.8581118e+18
-3.0173044e+18
-3.1468801e+18
-2.0806471e+18
-1.7753215e+18
-2.1525917e+18
-2.5918148e+18
-3.1670056e+18
-1.9558906e+18
-1.4729483e+18
-2.6798159e+18
-1.5648106e+18
-2.833538e+18
-2.9946802e+18
-3.1070146e+18
-3.2394412e+18
-1.0241205e+18
-1.1917412e+18
-2.4348002e+18
-3.2873213e+18
-2.8525157e+18
-2.8599109e+18
-2.5554926e+18
-2.36361e+18
-2.733418e+18
-3.2030713e+17
-2.9424886e+18
-3.0379659e+18
-3.2263895e+18
-3.4799238e+18
-4.4512241e+17
-2.1116731e+18
-3.1953991e+18
-3.7832592e+18
-3.7474161e+18
-3.9862326e+18
-3.5384709e+18
-3.5485616e+18
-3.458817e+18
-2.974815e+18
-3.217877e+18
-3.1452337e+18
-2.8037135e+18
-3.355451e+18
-3.6715174e+18
-3.9355346e+18
-4.1855439e+18
-2.9212838e+18
-3.2002993e+18
-3.59527e+18
-3.8833186e+18
-4.1450595e+18
-4.4084733e+18
-2.8882698e+18
-3.495876e+18
-3.1325986e+18
-3.816991e+18
-2.9091625e+18
-4.1276797e+18
-4.4056776e+18
-4.6730954e+18
-3.9530825e+18
-3.7693988e+18
-4.1955368e+18
-3.4051454e+18
-4.4536864e+18
-2.470553e+18
-4.6258375e+18
-4.9286509e+18
-3.9871798e+18
-4.2145456e+18
-3.7468326e+18
-4.4832839e+18
-3.2899131e+18
-4.82215e+18
-2.5441763e+18
-4.7962091e+18
-5.1917627e+18
-4.2380359e+18
-4.0248148e+18
-4.4925381e+18
-3.7423911e+18
-4.8186991e+18
-3.1990383e+18
-5.1475063e+18
-5.3743807e+18
-3.4691995e+18
-3.8018071e+18
-3.1570711e+18
-4.1026407e+18
-2.9967233e+18
-4.4240015e+18
-4.7162545e+18
-4.9294727e+18
-5.1999901e+18
-5.3789904e+18
-5.491305e+18
-3.8036135e+18
-3.469117e+18
-4.1248449e+18
-3.2568093e+18
-4.4203915e+18
-4.7374763e+18
-5.0916643e+18
-5.1153683e+18
-5.3680141e+18
-5.4909046e+18
-5.6039773e+18
-2.7356417e+18
-3.1199185e+18
-2.5433226e+18
-2.1607383e+18
-2.744586e+18
-1.9975663e+18
-2.8543056e+18
-2.9985248e+18
-3.1288677e+18
-3.3047077e+18
-1.830732e+18
-2.1887562e+18
-2.9425812e+18
-3.2907432e+18
-2.9086275e+18
-3.0012156e+18
-2.6245409e+18
-2.4840694e+18
-2.7387875e+18
-1.1024065e+18
-2.9511665e+18
-3.0411556e+18
-3.2257265e+18
-3.4821786e+18
-1.2679668e+18
-2.3377987e+18
-3.2221809e+18
-3.421119e+18
-4.3287288e+18
-2.7860493e+18
-3.4762906e+18
-2.5975282e+18
-2.8858782e+18
-2.7069313e+18
-8.0510481e+17
-2.9409929e+18
-3.1165258e+18
-3.4686716e+18
-3.7380905e+18
-1.0107504e+18
-3.2047592e+18
-2.3296682e+18
-3.8507906e+18
-4.041625e+18
-3.8378052e+18
-3.8091381e+18
-4.0522517e+18
-4.2545474e+18
-3.5904135e+18
-3.540946e+18
-3.4685037e+18
-3.4086201e+18
-3.0556198e+18
-2.7029077e+18
-3.2432127e+18
-3.0899712e+18
-3.0563454e+18
-3.7354635e+18
-3.337194e+18
-4.0103774e+18
-4.272246e+18
-4.4871855e+18
-2.9193824e+18
-3.6029514e+18
-3.1975647e+18
-3.888928e+18
-4.2068849e+18
-4.4808054e+18
-4.6364289e+18
-2.9405943e+18
-3.5180029e+18
-3.8572696e+18
-3.1657519e+18
-4.1428823e+18
-2.9958878e+18
-2.9449138e+18
-4.4479829e+18
-4.7260716e+18
-4.8924878e+18
-4.6978079e+18
-4.0316334e+18
-4.2477137e+18
-3.7966089e+18
-4.5030213e+18
-3.3114587e+18
-4.816871e+18
-2.5482173e+18
-2.4509387e+18
-4.7846439e+18
-4.6651483e+18
-5.150269e+18
-4.2638456e+18
-4.0628843e+18
-4.5104293e+18
-3.7774477e+18
-4.8182024e+18
-3.2365064e+18
-5.1220132e+18
-5.3642472e+18
-4.3073869e+18
-4.5171426e+18
-4.1035246e+18
-4.7866721e+18
-3.8639728e+18
-5.0866643e+18
-3.7924213e+18
-5.3322047e+18
-5.483228e+18
-3.8308597e+18
-3.4909603e+18
-4.1554271e+18
-3.2439364e+18
-4.4453843e+18
-4.7452975e+18
-5.0691353e+18
-5.0906915e+18
-5.3592153e+18
-5.4877247e+18
-5.6020115e+18
-3.7981536e+18
-4.134091e+18
-3.5356921e+18
-4.4285129e+18
-3.6004081e+18
-4.7477732e+18
-5.0630036e+18
-5.3221736e+18
-5.4805117e+18
-5.6031241e+18
-5.718441e+18
-3.2156604e+18
-2.9785301e+18
-3.0757865e+18
-2.7255476e+18
-2.6638816e+18
-2.7599043e+18
-1.9248806e+18
-2.321751e+18
-2.9654526e+18
-2.897359e+18
-3.0725844e+18
-3.2886543e+18
-3.5185582e+18
-2.4589823e+18
-2.9744401e+18
-3.3353886e+18
-3.374395e+18
-4.0951904e+18
-2.8228188e+18
-3.5126058e+18
-2.6090179e+18
-2.9834342e+18
-2.7195015e+18
-1.7652188e+18
-2.9519098e+18
-3.1076537e+18
-3.4704511e+18
-3.7443691e+18
-2.1850707e+18
-3.2191962e+18
-2.4128883e+18
-4.5675826e+18
-2.9977349e+18
-3.703107e+18
-2.708451e+18
-3.7631097e+18
-2.3061258e+18
-3.6070931e+18
-1.6584153e+18
-3.4105195e+18
-3.7360669e+18
-3.7649242e+18
-3.0998455e+18
-2.3100664e+18
-1.1498788e+18
-4.1067305e+18
-3.8692437e+18
-3.9404921e+18
-4.3173084e+18
-4.1336284e+18
-3.9279554e+18
-3.8609e+18
-4.1785087e+18
-4.3822139e+18
-4.552097e+18
-3.9482324e+18
-3.6296151e+18
-3.5846894e+18
-3.4182264e+18
-3.480439e+18
-3.3239237e+18
-3.1882019e+18
-2.7857017e+18
-2.8522783e+18
-3.2762971e+18
-3.2063083e+18
-2.973604e+18
-4.0802736e+18
-3.741107e+18
-3.5267032e+18
-4.3722502e+18
-4.8420158e+18
-4.8796934e+18
-2.8680673e+18
-3.9483888e+18
-3.5971255e+18
-3.2196117e+18
-4.2180227e+18
-4.533635e+18
-4.83432e+18
-4.8070034e+18
-4.7955064e+18
-2.9742201e+18
-3.056614e+18
-3.8735672e+18
-3.5170617e+18
-4.198912e+18
-3.2217984e+18
-4.4749677e+18
-2.9983888e+18
-4.7556001e+18
-5.0313175e+18
-5.0362007e+18
-4.8165747e+18
-4.3001485e+18
-4.1094413e+18
-4.5318567e+18
-3.8240056e+18
-4.8148393e+18
-3.3345822e+18
-5.0843164e+18
-2.508215e+18
-4.7635038e+18
-5.3385536e+18
-4.3436265e+18
-4.5422085e+18
-4.1320574e+18
-4.7870452e+18
-3.8870344e+18
-5.0674065e+18
-3.8191008e+18
-5.3236197e+18
-5.4800102e+18
-4.5855873e+18
-4.3975853e+18
-4.8283283e+18
-4.1937905e+18
-5.0359866e+18
-4.4524748e+18
-3.8140069e+18
-5.4701231e+18
-5.3026903e+18
-5.5964523e+18
-3.8256675e+18
-4.1595788e+18
-3.5473944e+18
-4.4521926e+18
-3.6024764e+18
-4.7605823e+18
-5.0440532e+18
-5.3136912e+18
-5.4777892e+18
-5.6014435e+18
-5.7135123e+18
-4.1261229e+18
-3.8328133e+18
-4.4076353e+18
-4.7253929e+18
-3.784775e+18
-4.1045689e+18
-5.0261905e+18
-5.2738221e+18
-5.4635981e+18
-5.5989689e+18
-5.7169926e+18
-5.8204292e+18
-3.2043691e+18
-3.4200676e+18
-2.9142016e+18
-3.5079061e+18
-2.6790203e+18
-3.1712344e+18
-2.7893383e+18
-2.5128095e+18
-2.256446e+18
-2.9832067e+18
-2.974431e+18
-3.2023813e+18
-3.5082553e+18
-3.7801723e+18
-3.2591913e+18
-3.3214455e+18
-2.7317876e+18
-4.0918508e+18
-2.9965831e+18
-3.6638808e+18
-2.7345162e+18
-3.7521046e+18
-2.3463178e+18
-3.6799542e+18
-1.8145148e+18
-3.4150555e+18
-3.7407127e+18
-3.7713189e+18
-3.1352161e+18
-2.4074889e+18
-1.2972397e+18
-3.1292659e+18
-3.7622397e+18
-2.6340862e+18
-4.1155491e+18
-2.4842795e+18
-3.7202034e+18
-4.4429243e+18
-1.3431587e+19
-2.7526222e+18
-3.7269197e+18
-3.7633366e+18
-3.5360279e+18
-2.1906907e+18
-1.020784e+18
-2.9385822e+18
-4.3766805e+18
-4.1770541e+18
-4.2250983e+18
-3.9437017e+18
-4.0253411e+18
-4.60147e+18
-4.4663911e+18
-4.2812745e+18
-3.9906808e+18
-4.2420706e+18
-3.8887554e+18
-4.5546014e+18
-4.8822867e+18
-4.1570087e+18
-4.5446732e+18
-3.9818792e+18
-3.6541488e+18
-3.6845693e+18
-3.5989676e+18
-3.2825477e+18
-2.584799e+18
-3.2517575e+18
-3.1834982e+18
-2.9169547e+18
-4.0803781e+18
-4.427453e+18
-4.2581144e+18
-3.9164196e+18
-3.8411692e+18
-3.5622531e+18
-5.0162107e+18
-5.2923599e+18
-4.9151994e+18
-4.8476499e+18
-3.9251069e+18
-4.281668e+18
-4.5789965e+18
-4.9045359e+18
-3.0020906e+18
-3.8608069e+18
-4.1905984e+18
-3.5781616e+18
-4.4815165e+18
-3.6193549e+18
-4.7734991e+18
-5.0132683e+18
-5.295792e+18
-4.3831386e+18
-4.5782053e+18
-4.1690322e+18
-4.7920776e+18
-3.9442935e+18
-5.0424561e+18
-3.9420122e+18
-5.3053864e+18
-5.4711355e+18
-4.6189635e+18
-4.4186185e+18
-4.8443074e+18
-4.2044684e+18
-5.0263087e+18
-4.4681027e+18
-3.8159609e+18
-5.4693202e+18
-5.3038965e+18
-5.5966586e+18
-4.6606949e+18
-4.8492423e+18
-4.4940604e+18
-5.0684299e+18
-4.9998525e+18
-4.4815064e+18
-3.5315927e+18
-5.6023209e+18
-5.4924271e+18
-5.3120775e+18
-5.7042044e+18
-4.1505105e+18
-3.8492446e+18
-4.4287837e+18
-4.7313299e+18
-3.7903755e+18
-4.1217287e+18
-5.0158644e+18
-5.2693577e+18
-5.4633937e+18
-5.5983115e+18
-5.7123898e+18
-5.8153462e+18
-4.15683e+18
-4.3885462e+18
-4.6750196e+18
-4.9916598e+18
-3.9806064e+18
-4.2584635e+18
-4.6826914e+18
-5.2007244e+18
-5.4529542e+18
-5.5971206e+18
-5.7113843e+18
-5.8169155e+18
-5.853399e+18
-3.1014696e+18
-3.0459769e+18
-3.6570472e+18
-2.8398457e+18
-3.7226341e+18
-2.5897852e+18
-3.9030609e+18
-2.8304081e+18
-3.4763072e+18
-3.7783831e+18
-3.7975274e+18
-3.3284018e+18
-2.7659178e+18
-1.9889843e+18
-3.0358412e+18
-3.681648e+18
-2.6442055e+18
-4.0834617e+18
-2.6037698e+18
-3.7648379e+18
-4.3967193e+18
-2.3853193e+19
-2.7758857e+18
-3.7315776e+18
-3.7688619e+18
-3.5888278e+18
-2.3704762e+18
-1.1912432e+18
-2.9191402e+18
-3.487079e+18
-2.8172344e+18
-4.2107526e+18
-2.1785033e+18
-4.5147081e+18
-8.2975591e+17
-4.8353991e+18
-9.8620882e+17
-1.9691114e+18
-3.6709075e+18
-3.7558969e+18
-3.5944662e+18
-7.7964207e+17
-3.7297761e+17
-2.8690805e+18
-4.2344326e+18
-4.6849931e+18
-4.4693944e+18
-4.5222422e+18
-4.253081e+18
-4.3726867e+18
-4.0762572e+18
-4.8922464e+18
-4.6098465e+18
-4.5524902e+18
-4.0208327e+18
-4.2407418e+18
-4.5637561e+18
-4.2605476e+18
-4.6685544e+18
-4.2694243e+18
-5.0134888e+18
-4.5501358e+18
-4.6158429e+18
-4.6792391e+18
-3.9644159e+18
-3.0415573e+18
-3.707191e+18
-3.8098727e+18
-4.1206845e+18
-3.6792843e+18
-3.2501476e+18
-3.1897205e+18
-4.403461e+18
-4.4124422e+18
-4.8651128e+18
-4.5323483e+18
-4.5660163e+18
-3.8911998e+18
-4.2349703e+18
-4.230925e+18
-4.7274144e+18
-3.1249765e+18
-3.807284e+18
-4.9866953e+18
-5.3536225e+18
-5.0747473e+18
-5.2898991e+18
-5.5001629e+18
-4.561164e+18
-4.830973e+18
-4.882685e+18
-4.1767776e+18
-3.8847879e+18
-4.4508816e+18
-4.7380579e+18
-3.8112988e+18
-4.194854e+18
-5.012013e+18
-5.2671137e+18
-5.4665315e+18
-4.6555907e+18
-4.447301e+18
-4.8692547e+18
-4.2346382e+18
-5.0268591e+18
-4.5356598e+18
-3.909139e+18
-5.4714122e+18
-5.3286868e+18
-5.5964817e+18
-4.6816207e+18
-4.8626338e+18
-4.5066753e+18
-5.0674249e+18
-5.008888e+18
-4.4972692e+18
-3.5659421e+18
-5.6048641e+18
-5.4967221e+18
-5.3160129e+18
-5.7036822e+18
-4.8700242e+18
-4.7509554e+18
-5.0841846e+18
-4.9731621e+18
-5.3438038e+18
-5.0555424e+18
-4.5509077e+18
-3.090288e+18
-5.6856597e+18
-5.6396189e+18
-5.5109086e+18
-5.068165e+18
-5.7992915e+18
-4.1766945e+18
-4.4085068e+18
-4.6845631e+18
-4.9807806e+18
-3.9844219e+18
-4.2756789e+18
-4.6967753e+18
-5.2041288e+18
-5.4545129e+18
-5.5988627e+18
-5.7075765e+18
-5.8117729e+18
-5.8529922e+18
-4.4181134e+18
-4.6308308e+18
-4.9345192e+18
-3.9532443e+18
-4.4419506e+18
-4.8144079e+18
-4.7260775e+18
-5.1593705e+18
-4.8552409e+18
-5.4452896e+18
-5.6065738e+18
-5.7127058e+18
-5.8075937e+18
-5.8523175e+18
-5.8340724e+18
-2.9456659e+18
-3.5733154e+18
-2.7376616e+18
-3.980674e+18
-3.289199e+18
-3.8955815e+18
-4.2757535e+18
-8.3778664e+18
-3.0993606e+18
-3.7627287e+18
-3.7957559e+18
-3.7389053e+18
-2.8961178e+18
-1.9947619e+18
-3.2195188e+18
-3.4735356e+18
-2.8438938e+18
-4.1682646e+18
-2.1518977e+18
-4.4628697e+18
-2.1245411e+18
-4.6433566e+18
-1.1436443e+18
-2.2113971e+18
-3.6827624e+18
-3.7612392e+18
-3.6233519e+18
-1.6762558e+18
-8.7670267e+17
-2.8544347e+18
-4.2309872e+18
-3.2618796e+18
-4.1917684e+18
-2.2145982e+18
-7.2910889e+17
-5.0594427e+18
-1.6486239e+18
-3.8326103e+18
-1.1504296e+18
-2.78821e+18
-3.1239185e+18
-3.885488e+18
-3.786155e+18
-3.6743458e+18
-9.3998578e+17
-4.3482635e+18
-2.6394528e+18
-4.2945724e+18
-1.7907519e+18
-4.7441853e+18
-4.8104109e+18
-4.4220712e+18
-4.1725111e+18
-5.1349375e+18
-4.788495e+18
-4.2803525e+18
-4.9903427e+18
-4.7828114e+18
-4.9789096e+18
-5.3742845e+18
-5.1202541e+18
-4.5493786e+18
-4.6809631e+18
-3.9807988e+18
-3.0871946e+18
-3.4524641e+18
-3.6203629e+18
-3.1453857e+18
-4.0304921e+18
-4.73931e+18
-4.4749306e+18
-4.9379564e+18
-5.0565835e+18
-5.2765509e+18
-4.4903145e+18
-4.7643804e+18
-4.7804114e+18
-4.506233e+18
-4.2201789e+18
-4.0020824e+18
-2.763061e+18
-4.0510086e+18
-5.0913585e+18
-5.3757127e+18
-5.5547339e+18
-5.5016557e+18
-5.6536603e+18
-4.9747147e+18
-4.4303211e+18
-4.6902307e+18
-3.9959774e+18
-4.3540694e+18
-4.7597713e+18
-5.2326033e+18
-5.4630104e+18
-5.6060067e+18
-4.7104618e+18
-4.8806825e+18
-5.0513625e+18
-4.6169613e+18
-3.7291449e+18
-5.615058e+18
-5.5160152e+18
-5.3435612e+18
-5.6993476e+18
-4.8799862e+18
-4.7625944e+18
-5.0827167e+18
-4.9813975e+18
-5.3516282e+18
-5.075603e+18
-4.5779421e+18
-3.101268e+18
-5.6879623e+18
-5.644548e+18
-5.5167193e+18
-5.069529e+18
-5.796239e+18
-5.5572582e+18
-5.4140557e+18
-5.22558e+18
-4.7109222e+18
-3.6461855e+18
-5.7523914e+18
-5.7847114e+18
-5.6709114e+18
-5.8529888e+18
-4.4366961e+18
-4.642842e+18
-4.9289907e+18
-3.9631599e+18
-4.4550983e+18
-4.8338794e+18
-4.7362979e+18
-5.1693917e+18
-4.8573384e+18
-5.4500789e+18
-5.6108524e+18
-5.711248e+18
-5.802895e+18
-5.8517976e+18
-5.8351398e+18
-4.1101889e+18
-4.6300471e+18
-4.9627122e+18
-5.229568e+18
-5.4535738e+18
-5.6346113e+18
-5.7392549e+18
-5.7908353e+18
-5.8461944e+18
-5.835373e+18
-5.7939646e+18
-3.4582083e+18
-2.9049504e+18
-4.274448e+18
-3.3680369e+18
-4.2507134e+18
-2.4088589e+18
-3.3237762e+18
-3.7466634e+18
-3.7925696e+18
-3.7471091e+18
-3.5406838e+18
-2.0196391e+18
-3.1894703e+18
-4.2512966e+18
-3.2719289e+18
-4.1297409e+18
-2.2772302e+18
-2.0091253e+18
-4.9152724e+18
-1.9113697e+18
-3.7988225e+18
-2.546357e+18
-2.8419354e+18
-3.2094989e+18
-3.8942852e+18
-3.7930035e+18
-3.683749e+18
-1.8571655e+18
-4.2987783e+18
-2.7063469e+18
-4.2634946e+18
-3.1007061e+18
-4.0727004e+18
-2.6290131e+18
-1.1236857e+18
-2.3921127e+18
-3.8152194e+18
-3.9731802e+18
-3.8722068e+18
-3.6816645e+18
-3.5099259e+18
-4.3009213e+18
-4.5389426e+18
-4.6487893e+18
-3.1123161e+18
-8.168868e+17
-4.9559755e+18
-5.3171572e+18
-4.8828036e+18
-4.4300622e+18
-4.5150358e+18
-3.8660923e+18
-5.4621077e+18
-5.2733808e+18
-4.8557076e+18
-4.5108534e+18
-4.8974045e+18
-5.0151394e+18
-5.0931884e+18
-4.7931034e+18
-5.0976524e+18
-5.4429782e+18
-5.6080021e+18
-5.1902679e+18
-4.8002497e+18
-4.2695103e+18
-2.5364435e+18
-3.2931786e+18
-3.6535122e+18
-3.045822e+18
-3.9554617e+18
-4.7103977e+18
-5.1438976e+18
-4.6139175e+18
-5.0355576e+18
-5.3223786e+18
-5.3701232e+18
-5.5358688e+18
-4.4855274e+18
-4.6541807e+18
-4.7646397e+18
-4.868741e+18
-4.9310289e+18
-4.3105536e+18
-4.1233225e+18
-5.5736176e+18
-5.6971136e+18
-5.6770435e+18
-5.7001946e+18
-3.9968874e+18
-4.5051722e+18
-4.90912e+18
-5.2171343e+18
-5.469828e+18
-5.6258804e+18
-5.7078581e+18
-5.3921097e+18
-5.1759762e+18
-4.6746482e+18
-3.1916383e+18
-5.6920926e+18
-5.6593729e+18
-5.5421054e+18
-5.7901522e+18
-5.5653035e+18
-5.4303222e+18
-5.2487221e+18
-4.7241472e+18
-3.6375813e+18
-5.750736e+18
-5.7844642e+18
-5.6768535e+18
-5.851462e+18
-5.7012482e+18
-5.6016891e+18
-5.5547073e+18
-5.4016346e+18
-4.976069e+18
-5.85171e+18
-5.7964086e+18
-5.8400832e+18
-4.1096952e+18
-4.6338527e+18
-4.9816537e+18
-5.2446684e+18
-5.4628357e+18
-5.639964e+18
-5.7403971e+18
-5.7859306e+18
-5.8455723e+18
-5.8364487e+18
-5.794569e+18
-4.7253032e+18
-5.1145474e+18
-5.3099104e+18
-5.4977016e+18
-5.6598322e+18
-5.7766942e+18
-5.8311459e+18
-5.8312612e+18
-5.8409018e+18
-5.7947417e+18
-5.7366137e+18
-3.7345609e+18
-4.4470994e+18
-2.6813351e+18
-3.8372589e+18
-3.6038074e+18
-3.9831096e+18
-3.8354633e+18
-3.8016843e+18
-3.5996689e+18
-4.334339e+18
-3.2120618e+18
-4.2120919e+18
-5.0973485e+18
-4.0797906e+18
-2.764065e+18
-2.83585e+18
-3.9938457e+18
-3.8770754e+18
-3.9948112e+18
-3.8872829e+18
-3.7044439e+18
-3.5616109e+18
-4.258375e+18
-4.5674522e+18
-4.5350121e+18
-3.5939743e+18
-1.2325498e+18
-7.6732679e+17
-4.3004261e+18
-4.5328437e+18
-4.3522846e+18
-4.0113482e+18
-4.3466807e+18
-3.7768874e+18
-3.6023377e+18
-3.6320574e+18
-4.5515156e+18
-4.5558004e+18
-5.6329512e+17
-6.0004447e+18
-4.7530043e+17
-4.8783524e+18
-5.563152e+18
-4.9987823e+18
-5.4518022e+18
-5.5877142e+18
-5.4818782e+18
-4.9743612e+18
-4.4632311e+18
-4.611414e+18
-4.8540287e+18
-3.3008628e+18
-4.1608919e+18
-4.3116802e+18
-3.4435828e+18
-5.558561e+18
-5.6699629e+18
-5.3517727e+18
-5.0613385e+18
-4.5982492e+18
-5.4758342e+18
-5.6468491e+18
-5.7417286e+18
-5.2567468e+18
-4.8762381e+18
-4.496907e+18
-5.1795964e+18
-5.2159443e+18
-5.4394695e+18
-4.7171134e+18
-5.114992e+18
-5.3869768e+18
-5.5809511e+18
-5.5975873e+18
-5.7192172e+18
-4.3030282e+18
-4.0545533e+18
-3.9880423e+18
-4.2162622e+18
-4.3203114e+18
-5.8152256e+18
-5.8062015e+18
-5.7765744e+18
-5.7039359e+18
-5.711348e+18
-5.7447074e+18
-5.7475785e+18
-4.1272079e+18
-4.6404766e+18
-5.0370016e+18
-5.3036031e+18
-5.5011889e+18
-5.6585791e+18
-5.7445592e+18
-5.774824e+18
-5.5987801e+18
-5.505861e+18
-5.3295011e+18
-4.7648794e+18
-3.7000212e+18
-5.7503228e+18
-5.7844238e+18
-5.6967928e+18
-5.8445253e+18
-5.7073192e+18
-5.6122863e+18
-5.5691326e+18
-5.4184333e+18
-4.9779126e+18
-5.8491499e+18
-5.797495e+18
-5.8411794e+18
-5.7978348e+18
-5.7201934e+18
-5.6982466e+18
-5.6815314e+18
-5.6124486e+18
-5.6341008e+18
-5.8528289e+18
-5.854818e+18
-5.7986709e+18
-4.7331031e+18
-5.1233302e+18
-5.3213763e+18
-5.5082687e+18
-5.6665372e+18
-5.7778795e+18
-5.8273897e+18
-5.8284986e+18
-5.841817e+18
-5.7953644e+18
-5.7369385e+18
-5.2227929e+18
-5.2780702e+18
-5.3931657e+18
-5.5381131e+18
-5.6786491e+18
-5.8040836e+18
-5.8508823e+18
-5.85459e+18
-5.8001319e+18
-5.7370637e+18
-5.6629806e+18
-4.1249786e+18
-3.4424881e+18
-4.5624869e+18
-3.4855854e+18
-4.0930784e+18
-4.103736e+18
-3.966547e+18
-3.8310409e+18
-4.0717514e+18
-4.3396302e+18
-4.8013078e+18
-4.2233583e+18
-5.1010841e+18
-4.9154118e+18
-2.0115879e+18
-4.3457971e+18
-4.4427927e+18
-4.4081442e+18
-3.9838467e+18
-4.3676002e+18
-3.8140986e+18
-3.6287978e+18
-3.6711711e+18
-4.5316548e+18
-4.5800666e+18
-1.4673068e+18
-5.8551794e+18
-1.1518991e+18
-4.9346118e+18
-1.2193937e+18
-1.2745282e+18
-4.7831696e+18
-5.606688e+18
-4.7391865e+18
-4.3718643e+18
-6.7114515e+17
-3.8237131e+18
-4.6308607e+18
-7.9950902e+17
-4.9812753e+18
-7.1177921e+17
-4.8931348e+18
-5.4847852e+18
-5.8341111e+18
-5.6308752e+18
-5.8240981e+18
-5.5950896e+18
-5.1898005e+18
-5.5393755e+18
-5.2276654e+18
-5.6502917e+18
-5.7206632e+18
-5.6832581e+18
-5.0506789e+18
-4.3407107e+18
-4.9090802e+18
-4.9357765e+18
-3.6830195e+18
-4.2236933e+18
-3.7661824e+18
-5.7117861e+18
-5.5934824e+18
-5.7687817e+18
-5.3945446e+18
-5.0529988e+18
-4.7435689e+18
-5.515746e+18
-5.6771229e+18
-5.8237705e+18
-5.315451e+18
-4.2763813e+18
-5.3134887e+18
-5.2743698e+18
-5.6552595e+18
-5.1969584e+18
-5.4847081e+18
-5.6413569e+18
-4.760671e+18
-5.4067911e+18
-5.6005194e+18
-5.7323825e+18
-5.821972e+18
-3.881196e+18
-4.1453273e+18
-4.053593e+18
-4.1665632e+18
-5.844658e+18
-5.8557383e+18
-5.8397321e+18
-5.838956e+18
-5.8143411e+18
-5.734257e+18
-5.7443752e+18
-5.7677032e+18
-5.1451557e+18
-5.3530528e+18
-5.5448229e+18
-5.690272e+18
-5.7824203e+18
-5.8188344e+18
-5.7297081e+18
-5.6607994e+18
-5.6220006e+18
-5.468894e+18
-5.799848e+18
-5.8478198e+18
-5.8000427e+18
-5.7260538e+18
-5.7064968e+18
-5.6906201e+18
-5.6236384e+18
-5.6408988e+18
-5.8535426e+18
-5.8530186e+18
-5.7994825e+18
-5.8608385e+18
-5.7949019e+18
-5.7695603e+18
-5.7959593e+18
-5.8169049e+18
-5.9102126e+18
-5.9306896e+18
-5.8100132e+18
-5.8692426e+18
-5.7392302e+18
-5.220825e+18
-5.2826084e+18
-5.3996279e+18
-5.5455837e+18
-5.6849099e+18
-5.8055906e+18
-5.8494181e+18
-5.8553366e+18
-5.8008218e+18
-5.7373924e+18
-5.6631447e+18
-5.4733368e+18
-5.707798e+18
-5.5316961e+18
-5.5985099e+18
-5.706527e+18
-5.8116836e+18
-5.8689864e+18
-5.8126348e+18
-5.876842e+18
-5.7399254e+18
-5.6631363e+18
-5.5769552e+18
-3.8990386e+18
-4.4780169e+18
-4.5774865e+18
-4.1550311e+18
-4.4557091e+18
-3.9679828e+18
-3.9034408e+18
-4.5483466e+18
-4.799172e+18
-4.8755031e+18
-5.192809e+18
-4.9676906e+18
-5.4906861e+18
-3.229337e+18
-2.9980899e+18
-4.7888914e+18
-5.5684176e+18
-4.758038e+18
-4.3873775e+18
-1.3860629e+18
-3.875416e+18
-4.6397942e+18
-1.7582397e+18
-4.9750992e+18
-1.9367665e+18
-4.9511967e+18
-5.4985608e+18
-1.1314157e+18
-4.7915532e+18
-5.0235644e+18
-5.5246837e+18
-5.6385865e+18
-4.788122e+18
-4.0119755e+18
-5.4759418e+17
-4.6545436e+18
-4.6760774e+18
-4.9643222e+18
-6.0702634e+18
-5.0516744e+18
-5.4931545e+18
-5.4673422e+18
-5.488286e+18
-5.7408322e+18
-5.9070999e+18
-5.8703658e+18
-5.779423e+18
-5.7012517e+18
-5.7830528e+18
-5.8904474e+18
-5.8579703e+18
-5.8165791e+18
-5.7918504e+18
-5.7109028e+18
-5.7592902e+18
-5.7674973e+18
-5.4604264e+18
-5.5194618e+18
-5.3531051e+18
-5.1451295e+18
-5.3393706e+18
-5.2444159e+18
-5.5475287e+18
-5.3286027e+18
-5.7821378e+18
-5.0425944e+18
-5.7421749e+18
-5.7389832e+18
-5.8293712e+18
-5.4032696e+18
-4.6459426e+18
-5.5586894e+18
-5.7088104e+18
-5.8456709e+18
-3.5078866e+18
-4.9750728e+18
-5.3646796e+18
-5.7298976e+18
-5.199491e+18
-4.3859852e+18
-5.6357784e+18
-5.7247709e+18
-5.8697537e+18
-5.7389411e+18
-5.6618468e+18
-5.4710907e+18
-5.6731811e+18
-5.6204742e+18
-5.308305e+18
-5.7307355e+18
-5.8314739e+18
-5.8450597e+18
-5.8799901e+18
-5.8693035e+18
-5.8368806e+18
-5.8572482e+18
-5.8606008e+18
-5.8732311e+18
-5.826119e+18
-5.8407579e+18
-5.4164826e+18
-5.5635482e+18
-5.7014576e+18
-5.8107239e+18
-5.8064098e+18
-5.7503948e+18
-5.7340235e+18
-5.7196261e+18
-5.8056929e+18
-5.8588519e+18
-5.7969398e+18
-5.7743642e+18
-5.8010968e+18
-5.818047e+18
-5.9097968e+18
-5.9302388e+18
-5.8107475e+18
-5.8691145e+18
-5.7396703e+18
-5.8520577e+18
-5.8240637e+18
-5.8423281e+18
-5.8877262e+18
-5.9060659e+18
-5.9608468e+18
-5.9366614e+18
-5.8221639e+18
-5.7465542e+18
-5.8789414e+18
-5.6645273e+18
-5.4645056e+18
-5.7065396e+18
-5.5338352e+18
-5.6034349e+18
-5.7122708e+18
-5.8124651e+18
-5.8671474e+18
-5.8133372e+18
-5.8774022e+18
-5.7403049e+18
-5.6633225e+18
-5.5770179e+18
-5.7013037e+18
-5.8254919e+18
-5.9168543e+18
-5.6972145e+18
-5.7469623e+18
-5.83245e+18
-5.8821249e+18
-5.8345695e+18
-5.7489435e+18
-5.9144105e+18
-5.6643392e+18
-5.5769766e+18
-5.4804195e+18
-5.019911e+18
-4.8299347e+18
-4.831904e+18
-4.4413215e+18
-4.7924989e+18
-4.8638566e+18
-5.0378217e+18
-5.4699489e+18