/*--------------------------------*- C++ -*----------------------------------*\
  =========                 |
  \\      /  F ield         | OpenFOAM: The Open Source CFD Toolbox
   \\    /   O peration     | Website:  https://openfoam.org
    \\  /    A nd           | Version:  7
     \\/     M anipulation  |
\*---------------------------------------------------------------------------*/
FoamFile
{
    version     2.0;
    format      ascii;
    class       surfaceScalarField;
    location    "1000";
    object      phi;
}
// * * * * * * * * * * * * * * * * * * * * * * * * * * * * * * * * * * * * * //

dimensions      [0 3 -1 0 0 0 0];

internalField   nonuniform List<scalar> 
100795
(
349.32456
-193.97133
-49.765187
224.53305
45.511146
-661.3568
565.61819
-477.04619
-119.10874
505.15376
-212.31396
78.295215
268.32606
-416.85015
-985.98165
545.64576
34.089855
-772.96807
261.93512
-48.737924
-373.6126
502.35148
-853.16781
99.315317
902.6746
-409.24053
-140.6097
679.54574
-260.5513
191.86683
-2010.2109
-4771.4955
460.65626
596.05835
-441.86427
-1127.8938
392.93578
-683.54093
-975.86203
683.07921
-139.96517
-670.74354
844.29567
127.09112
-890.43861
216.33608
-296.94461
73.77302
812.20758
1065.6712
-1906.3281
730.90955
-740.26902
206.79547
1355.3819
-580.61112
-130.01836
1562.3928
-1334.8757
1622.8883
-2684.1018
-5335.1582
1035.941
-2171.2605
-4468.5718
507.98357
-1154.3139
-6340.8301
155.49792
720.21129
-447.61849
-914.14271
984.72432
-464.11074
-1487.7622
201.05867
-1203.3881
-781.27892
1924.9304
-31.726355
-1685.3707
969.25793
150.16129
-932.17211
1216.2487
-132.68209
-915.57228
-31.924062
-2186.8974
1801.7827
1379.1898
2083.6963
-1863.9186
-3011.0594
567.48283
-898.50863
936.73381
-985.50311
361.35962
5831.1242
-3246.0358
684.26994
1817.9304
151.84639
1882.9521
-6360.4004
-3101.9617
672.60917
-3134.4042
-4724.9682
1337.6751
-1564.8038
-6601.0475
1071.5609
-2050.2023
-3564.7542
28.344448
-1260.1815
-5636.6445
-165.33336
-198.88592
-4992.3727
-106.49254
2930.5652
46.748654
-2167.1646
1191.9117
-203.64035
-1397.2682
1086.9928
-975.85717
-1586.0331
-181.97056
-4812.0918
281.36104
3337.8748
578.41604
-2418.6991
-1851.1039
-1311.8808
-1255.6533
959.50863
22.648979
-1110.2776
5039.4333
-1952.6706
-358.07375
-189.62683
-1110.29
1886.8766
358.69035
2354.195
-748.07852
-3532.4196
2095.0229
-992.44227
1246.153
112.3477
-1171.6086
3502.8036
-4340.2679
671.19466
12577.021
-797.74856
541.53277
17413.432
1445.9178
-797.87771
-5515.3012
-3657.0112
764.48761
-16714.386
-2249.2564
-1276.0323
-6463.9544
-2288.6752
822.74462
-3372.3312
-3520.1483
1309.1995
-1814.9422
-5730.053
1021.4449
-360.13698
-5671.6037
933.1407
-3338.9311
-5610.5852
4536.4819
-1598.1137
-4159.0729
-1135.3616
-113.57677
-4675.8539
-315.10015
-532.11384
-2768.0871
-256.56479
4337.2327
-84.87879
-1071.4065
908.34543
-3495.2144
-1865.7093
848.95189
-527.72942
-1734.8447
3424.1162
-4224
-558.82155
-574.21167
-4437.8513
452.7482
460.06951
387.26697
112.40187
-3705.3812
-816.55933
-2741.1563
982.36903
-613.59587
-355.21254
3488.3499
-1405.0746
-1643.4238
10619.172
817.17069
-327.70221
15810.719
1043.4183
-965.03934
-518.05948
4487.1184
-3595.6279
-10731.223
4467.555
1439.4452
3034.9915
2.717033
-1068.7853
2395.8987
2597.4731
-74.28314
9355.8097
-1484.3341
446.61461
39655.691
-1469.7368
-1281.8975
10974.917
-1295.0306
-967.94801
-4057.8912
-4480.906
500.07409
-13913.851
-2660.1642
-373.36162
-5385.9161
-2658.3073
529.74472
-11687.051
90.73426
-851.81263
-11918.504
-3496.8118
-3448.8478
-4844.3704
-1064.6722
996.77742
-6845.8483
-2107.6816
6431.4384
-2294.6897
-3929.6696
205.34039
-511.95111
-5054.2893
802.45888
-107.85754
-4053.2607
449.37776
-972.00637
-7985.3369
4785.6094
-1243.3708
-4484.1302
3082.4118
-235.26828
-4193.0945
-1139.8411
-458.19727
-3253.2944
-40.489912
-642.62667
-1270.1339
-156.82712
-0.35727782
-1548.0353
1395.8047
-8296.4592
975.27163
-950.92864
596.14945
-2060.223
206.2587
2217.042
-2962.2689
-1725.2915
7626.9058
-1807.088
-197.2971
12244.902
-366.91203
-623.15773
893.96216
855.9831
-3285.917
-15762.632
2544.5232
1782.6526
3069.3193
-2230.2204
-1158.8528
-3609.0927
3303.5944
2237.4229
7815.4361
1716.0563
-1001.917
42282.344
-603.75814
-1307.1757
12225.424
-2124.706
-1214.8556
5290.9384
3114.392
2086.0493
-25197.162
3139.8797
9480.2145
-4873.4307
5773.507
-295.58123
-3847.7822
-876.01915
1612.773
-19196.389
-6861.4036
3204.5478
25553.144
-2324.9992
-1509.7535
10401.301
-1919.5868
-1304.9722
4078.3619
575.17228
-1154.8147
-11911.055
-438.92287
1445.8733
-10357.541
-4334.1187
-1486.0682
-3713.7737
-3264.2861
-202.52969
-10444.025
4183.6358
-459.85681
-9949.0645
-4425.8549
-575.47902
-3944.83
-1263.3404
381.35293
-9853.0584
-137.29436
4255.7556
-1903.1168
2093.4586
-802.36602
-4577.3685
-930.55732
-4842.0311
-3938.8451
151.03659
682.43557
728.51516
-2027.6827
-10077.004
-3663.9536
-2734.7608
7656.8933
-933.22904
-4074.3265
-76.863976
-150.41527
-4098.039
539.54624
-28.037364
-1551.6458
-111.54235
-23.997667
-602.69555
-4759.3253
6856.4407
-2963.4648
437.49527
2929.4201
-2101.1842
-2156.6222
-213.4817
-3653.8162
-1372.6678
-688.49151
-1546.5768
217.75933
-1558.5505
-728.8585
-289.23165
1985.3432
-1989.8513
-3611.8252
-20533.821
3438.9227
3703.3387
806.51175
-572.10673
-176.22509
-6933.2335
2154.67
2312.8031
4083.747
925.25036
-725.93041
36265.7
5779.8096
-327.38676
11768.044
-860.34354
-843.48494
5040.2785
3664.2389
-841.48502
-27829.142
-1515.2893
3405.8833
-9515.8009
3654.3694
540.47154
-4867.4187
640.11888
2524.0923
-18150.684
-6184.6367
1391.2572
27592.358
-2294.8248
-1350.0908
11285.41
-2805.3926
-1510.6286
4212.825
1002.2293
-1544.1937
-32827.568
5606.6417
6111.536
29440.206
-1510.1571
-607.50162
-34198.755
9595.14
7646.2179
3266.4246
60.324035
2182.6192
-7960.979
-3057.6145
2115.6823
2744.7631
-685.70148
1158.4073
6120.1156
-1849.8468
-1206.1268
3322.8682
355.02112
-1046.2101
2450.8164
427.28769
-2117.3102
-11472.473
-3620.7654
-5190.2313
-4524.7048
893.32093
-16613.062
-8837.674
-1586.9085
4492.5259
-870.85943
-8297.3723
-1526.053
-7890.5854
-6379.1431
-429.85879
-2790.4244
-1585.5561
-704.77365
-195.2307
-657.17054
-9242.6723
10327.72
23071.338
503.74086
-2867.2201
-1511.6697
-2038.1104
-3788.8116
-39.025377
119.67651
182.21137
-4390.5395
2592.966
-1784.2338
1648.4907
3222.6285
1448.6085
8259.9825
-1659.8568
-8275.0772
2512.7037
-3613.2185
-2209.0156
1086.6968
-300.80146
6696.5066
479.74717
-8421.7441
2351.8221
-1698.147
-6609.2964
5296.5701
-1262.3307
2477.1384
-466.07508
-4726.1121
803.59404
68.832566
-1759.4859
-10.924675
-1098.6212
-868.08151
-594.28832
-2976.1568
-8969.3562
3863.6283
2477.9863
53.744658
-7482.5601
11693.174
-348.31757
-8920.5081
-901.99759
66.128557
-7743.7307
-722.50816
-1245.2729
-1812.2491
-1648.2711
-365.67588
-75.460557
-1470.1643
-1658.9074
-710.93177
-439.84491
6736.1622
-2320.5835
-28331.905
-2116.1534
2445.8647
-13634.814
5434.0073
1816.1826
-4475.562
-631.08476
2217.5526
-15354.819
-7265.6011
1305.1641
29508.49
3457.6272
-319.86796
11206.864
-424.13423
-685.0621
4998.8984
1350.5287
-1740.8268
-42302.909
2657.7341
8966.6411
28152.419
-1399.5157
-448.96147
-36491.628
5336.6185
4016.4309
-4537.9958
4969.1341
4015.807
-14956.47
1166.7751
2168.0902
2959.1452
-3285.5452
1022.7215
6900.4409
-3637.6842
-1298.1037
3316.9918
737.77847
-1240.2947
3142.4937
940.96017
-2434.1635
18159.987
-6966.5207
2703.598
-22574.318
8757.8615
10324.256
16499.476
-1994.4418
-393.35672
-26586.065
17108.823
15767.835
-4077.4734
1456.7334
2013.1914
3661.7731
-654.21805
1086.3815
1069.2472
181.07995
898.97652
3526.1447
883.79303
-1152.6356
8438.3521
-101.79779
-1157.8893
4951.4023
-1738.0887
-2777.8337
-2942.5461
-36114.432
26273.913
-1422.6474
-1158.2633
-17768.25
-435.61077
-38971.35
1360.1855
10715.717
2220.4616
-18981.176
-6084.7605
521.52377
-10285.043
484.91678
389.55254
6123.7364
21066.612
-1686.0082
-34252.287
15432.657
20867.831
2009.6077
585.01334
-2809.8895
-2658.0627
-3381.2679
65.032952
-1643.6262
9025.4853
10702.951
2867.865
2160.852
-498.8851
-14200.273
4993.0024
8109.7368
55.980995
-7452.4294
2427.4118
-5327.668
-2668.6025
866.6572
-218.87003
583.54374
2422.5822
-6723.4275
10994.645
2703.0173
-147.56281
2403.8709
1680.5164
-1390.1398
8643.8249
5483.8714
-5638.6849
-6717.4721
2615.8304
-3254.0738
-996.18883
-566.58597
-770.07381
-4035.7653
-5815.543
2878.9863
-0.4753668
654.72018
-8296.0882
10518.767
557.16432
-7254.8948
6611.2749
-34.537134
-9728.3011
-267.53824
-1753.401
341.90266
-978.92139
-928.32833
-620.23619
-897.11514
-1876.335
-1007.3689
-7297.7356
1509.3148
-9105.9437
-22000.959
-11230.503
4891.4955
-1309.8427
1529.0367
-8114.2664
1996.7343
514.1623
-11535.713
-5405.5581
-724.30231
-6150.1952
-1898.083
-359.2804
-1222.1944
-1618.5019
-1504.0801
-705.16281
-1505.135
-2252.6207
-1858.7527
-53503.312
2609.2819
13211.232
25895.227
1750.3074
1643.9214
-35313.641
4792.3344
1909.5731
-9087.5736
2787.1733
2947.4625
-15921.826
-5744.815
1662.1391
3181.9665
-5886.9149
1424.2911
8971.3784
-2569.5343
-245.49091
3105.6943
1927.2554
-1050.6102
4497.2629
1867.2006
-2449.6352
22778.394
-6486.6691
3126.6543
-20756.793
4979.2708
7506.5492
15519.258
-3599.1662
492.53267
-39422.762
11828.658
9993.5732
-7666.2469
5555.6994
3215.6675
5124.2414
-3518.7235
938.74213
1217.175
202.14146
722.69612
3264.1401
836.75351
-1135.237
8664.0543
1142.6384
-1667.8527
7863.7502
-1249.5261
-2598.9629
-123733.59
9221.7805
-8247.843
37475.849
-3089.1629
-2093.9241
-63096.102
5078.9208
12211.171
30385.615
-2354.4875
-2145.5825
26394.53
-5621.7981
3745.638
4848.333
-282.66339
815.52193
1818.9646
-268.98152
707.45074
3028.0052
-1312.8034
77.735087
14447.547
-1947.1183
-1769.4732
7240.9103
-3231.1246
-2461.909
15791.876
-19940.247
1063.3743
5158.028
14908.688
18318.881
1645.5152
23181.541
-41297.171
-3628.077
-44294.649
20257.909
-2175.8993
5857.9579
-49896.408
8060.1833
1119.6714
-25878.07
6111.8871
-26827.781
-2521.9756
1623.3477
-13912.166
1385.7287
4043.375
3267.5722
-25771.182
-4246.0746
1185.6592
3683.5434
6518.876
2285.0496
549.22909
20103.398
1931.328
6172.745
9953.9343
-3374.6523
-41480.401
4322.531
9904.1908
1747.2828
-3360.2328
3685.0587
-10370.407
-2548.19
-176.25824
-1855.6137
9817.608
3752.0082
-2781.8133
13551.914
8037.1453
383.18725
-1830.4805
-711.03302
-6827.1284
15211.641
-1211.5741
-2194.7863
-8313.6904
2657.66
-5522.8037
-1137.0276
-318.60689
-738.46728
11618.337
-5602.1945
813.26941
-717.40587
-1155.8637
-6821.1344
21780.36
-6017.3515
-3007.3063
-672.78399
1027.6512
-3841.442
12523.04
395.84615
-5883.3141
-1444.5942
8.6987961
-4124.2841
-2238.466
-245.52313
-1227.8444
-6804.8525
883.91152
-6538.0176
-25931.929
-12964.615
3852.6047
-543.51454
3664.589
-12169.626
1204.0128
132.22698
-6629.9237
-4347.6759
-1081.4378
-11459.265
-1090.7087
-514.28897
-879.88196
-1144.9586
-1978.6387
-991.60727
-808.18244
-2642.9737
-2245.7538
-16090.845
-11771.666
4016.8038
-8208.0784
1872.5219
-8304.8202
-21459.023
5176.8325
4801.4287
-3548.7933
1379.3987
-7633.001
-5834.4094
-79.477222
-9694.0828
-4299.0452
-1904.3209
-2792.0979
-2006.3401
-1872.3227
-1018.6358
-1767.3447
-1548.2592
-2139.3297
-1469.3797
-3291.7449
-2566.9082
24424.241
-2992.171
5706.1153
-19095.494
8345.0619
7997.2204
17818.173
-5617.512
2393.0172
-47174.18
8897.5543
3550.5101
-12233.939
-588.97303
2359.2543
6315.7333
-6598.8417
1182.4935
1163.1758
-1236.4634
1026.4636
3555.4233
1889.8392
-499.42256
8293.885
3066.0717
-1879.3999
8531.0125
-519.64927
-961.79648
-115405.13
5558.6721
-15394.491
41332.801
-3625.9643
-703.39019
-53148.172
983.26361
8403.9894
34543.812
-1946.2183
-882.74223
49388.479
-10785.427
3340.287
6724.6283
-2851.5759
672.13222
2387.8873
-157.8365
729.73274
3992.3387
-2097.3975
-83.490024
14954.781
2117.1943
-2617.0847
8987.4638
-2633.5561
-2030.742
16192.187
-8875.6979
1802.308
44557.674
-4248.9394
3501.1176
334062.76
35446.431
-2325.9033
24674.61
7390.7963
-32111.687
-2124.2462
-22002.375
4695.5767
40714.901
-23021.441
-3191.4946
19643.042
-1630.0019
570.45731
2272.1967
-1022.4796
505.84594
4962.0671
-2550.8314
4.7393052
1492.2037
-887.36786
-224.67991
10449.082
-10296.324
-2788.396
27250.802
-2096.7325
3782.9027
26751.72
-27189.536
4384.4599
-11261.061
20414.78
17753.344
26664.042
11044.149
-658.82656
4894.3669
18875.087
15345.807
-4676.7407
14512.191
-33124.258
7951.8539
-4533.6367
-26701.021
12355.321
-16848.302
11767.504
2050.5843
2600.7628
-21577.714
-8828.9266
9112.1111
-53305.976
13095.426
-7028.7188
-28786.165
4720.5751
-36593.824
-16199.463
-1459.067
-155.50673
-15834.871
-22908.668
-16552.323
2680.8829
-5329.2456
4522.1558
-24321.888
-2388.1414
4181.4618
5379.1507
-1860.5812
-172.91622
-4313.4304
18021.905
4534.7124
-14182.265
14798.354
12228.032
2602.3643
-13304.418
-3669.8474
-22651.46
19788.423
151.74058
574.11868
-10542.002
539.8408
-8858.3115
-1627.115
-1054.2516
-1402.0805
20846.82
-556.17773
3116.4079
5449.1003
-2164.2128
-7494.9346
28645.664
-4912.946
-2780.9634
-1750.8891
393.07903
-3484.5948
19958.776
1877.0535
-3213.7829
-1847.5234
-811.05898
-4627.2972
-2313.2101
-364.14977
-1444.5585
-2523.0551
-489.56072
-7264.6958
11183.346
-10968.292
-3412.4021
-5038.2382
-661.62716
-6525.8198
14429.333
-7771.1375
-2002.2848
-7870.8775
110.70043
-3656.849
3798.4405
1743.6055
-1800.1493
-4107.1604
-5230.6925
2148.5928
-5536.0504
-18581.56
-11943.449
2353.4508
-8744.6815
2914.0265
-5250.7662
-23503.374
8171.2766
4041.3085
-2455.6462
1898.823
-15029.07
-7848.3246
8.7873532
-5706.6446
-8056.4475
-2957.0118
-5259.8937
-1557.6626
-2127.4746
-1179.7633
-1049.0435
-1813.2114
-2539.6267
-939.90131
-4039.4049
-3061.4183
-9044.9175
5239.8727
-11571.04
-26389.372
6298.964
6486.6968
-7449.1526
2514.9985
-7932.1428
-4634.6576
5161.4403
-6118.3214
191.27508
-5938.7364
-6896.6728
-979.06489
-7700.5698
-5281.684
-2375.2829
-2960.7647
-2058.0474
-947.78016
-2432.1632
-2038.2464
-3005.6956
-3086.5966
-1968.615
-4512.5021
-2536.8445
-98408.322
11840.122
-23483.927
43553.204
-5143.968
3012.2319
-37059.169
-5860.2448
6666.1177
35363.253
1802.6024
1660.8011
57755.834
-9323.6714
3917.8812
7425.3889
-5928.3595
987.97506
2556.2316
-1217.0012
994.66451
4026.949
-3086.3798
878.67392
13219.94
6046.962
-1745.4917
7185.2401
595.71653
-1192.6954
8442.8185
-562.59393
3184.6239
46478.918
-5703.5974
5715.1822
282559.26
29857.935
7234.7348
32691.32
13276.518
-23942.605
-4894.0853
-5471.409
5859.7171
51759.563
-9481.1016
-329.12147
23921.503
-3249.25
-540.71683
3345.4901
-931.28924
372.27663
6810.1194
-3445.6972
229.98914
3312.8789
-155.7216
-1087.3635
9665.8098
-2688.0815
-1779.4709
11990.582
1779.4385
2575.0996
31458.069
-12741.003
6915.5673
60544.198
10370.254
460.98183
25996.113
5603.4043
1508.2479
-87691.973
6387.9805
25608.819
188962.61
25925.719
17139.042
11683.743
-1560.7924
1127.825
-15320.729
7593.1393
-283.47221
7124.7813
-4219.1265
1816.3649
1699.3927
-2540.7146
-173.08639
3346.1813
-3475.0882
-73.954159
-4650.598
679.27841
953.53827
19202.908
1599.278
2829.7728
31833.944
-3026.4279
4708.9034
10425.353
3234.9991
2472.3468
14480.416
-459.40362
692.27239
28810.492
12088.529
20978.386
-29492.717
23427.23
24036.944
41398.102
6663.3415
18134.428
50365.61
16583.322
-5179.134
-86819.688
22690.256
-6577.5769
8653.6851
20743.912
-29682.995
2310.7484
7945.583
-56742.842
10000.819
-17764.684
-19145.741
-16518.001
-14253.866
10200.783
2112.2779
-10834.42
-26730.238
-5086.2651
13572.112
-26280.892
-7626.2503
115.28153
-55211.971
1474.1876
-14006.592
-28656.501
11330.212
-6840.743
14157.91
-19564.988
-16041.669
317.0689
-6358.0153
3535.7602
-17235.412
-21181.236
4056.8111
3727.2184
-9554.3398
2029.0136
-15070.871
-5234.6661
3596.7908
-1004.5602
-7600.4253
-2579.9289
-3817.0219
26717.521
978.92332
9913.0124
7543.2076
-4975.4045
-14970.507
28418.24
3031.4458
-50.128585
-13051.327
-3208.5633
-7602.4898
28049.052
7244.4898
-1540.7334
-6082.7761
-1425.6978
-4251.8112
-2491.4493
-1009.235
-1772.2671
3112.5324
-640.55776
-7715.5774
19589.716
-7778.7215
-2425.4127
-4509.1092
-1365.0047
-6265.7128
21749.906
-5949.4241
-2275.5109
-7848.8941
-153.42942
-4164.3321
8854.5427
-1084.6692
-2118.6359
-4672.9612
-3528.7045
2309.6359
-6505.2336
-4289.5425
-5919.9477
-3544.72
-2165.7138
-1361.5242
-5562.2316
6448.57
-10589.593
-4807.391
-9351.4485
-587.3058
-5844.3944
-4547.452
-2705.26
2665.0399
-333.48512
2526.996
-12523.248
-276.69162
-8063.7076
5867.9323
-3066.4425
-12410.486
1179.4137
-7869.2332
-11116.333
4680.1664
-11638.585
-28998.493
7047.6829
6085.9189
-8747.5369
3539.5248
-5593.3387
-3848.1551
5811.0223
-9352.9327
-296.09872
-11489.298
-7601.981
-1076.5841
-6883.3152
-5172.2974
-3232.3508
-4264.6113
-1174.3921
-1025.1517
-2851.471
-1257.4078
-3627.272
-3732.7157
-1854.0692
-5417.4947
-2892.9984
-18607.424
5323.8725
7565.5769
-15337.214
4342.0512
-8414.0944
-8948.0753
-17768.205
8217.9084
5404.2787
-13011.029
1015.356
-3624.9074
-4165.3788
-9703.5131
356.87573
-5129.7934
-10977.393
-2276.5713
-6182.5846
-1661.0256
-5544.1715
-4619.4167
2010.6886
-8551.6945
-2610.9924
-4807.1437
-3022.0855
-2376.3279
-3905.6947
-2100.468
49284.996
-8621.0385
12511.232
183560.59
45964.441
23690.242
28884.172
17882.815
-9260.7114
-15344.232
3432.6144
4359.9066
55630.893
2775.9632
1060.483
25067.949
-3732.8967
575.86292
3691.5314
-1628.8843
1053.8091
5775.6604
-3221.5634
2164.314
7315.2757
-3276.7694
-2261.0893
5920.5253
3052.4188
-456.96001
881.48647
9042.4146
311.82445
7641.7479
-4498.0987
9586.8004
67468.976
16043.839
1185.7688
30071.035
9804.9558
5111.8859
-110728.26
8186.9918
16612.73
125032.73
16753.315
13753.071
16137.2
-1568.3446
-274.74629
-19976.672
4054.4611
-2415.7786
8875.1677
-4569.5483
1347.1312
1768.2147
-2815.8244
-326.40484
5612.6239
-1830.8725
-361.38017
-7306.7437
1833.9382
-339.41611
12333.255
3538.1989
3331.6568
17471.029
-1226.9867
5424.3108
16775.867
-445.86658
4345.5452
21009.18
7034.8527
6853.9453
50054.447
8135.4558
-59.446606
71656.945
3412.5212
2870.8639
2046.7271
15732.063
463.998
33059.201
4347.4914
3489.3916
5299.1372
-5804.3455
-279.00181
-10963.969
625.46592
1728.0738
-2592.8095
5918.3467
-5676.8199
-1767.3955
3049.9045
-2030.1864
1004.3305
1418.3241
-2166.7609
1919.3849
23087.994
-2322.7224
-446.25769
1378.2452
-6637.9968
1820.9469
4756.8399
8505.2675
-1042.3313
26345.203
25606.384
18056.992
9631.5813
20009.986
-57282.658
11775.808
5381.2892
1079.6189
52864.266
25420.684
7596.8895
52161.743
25842.188
12790.895
-83020.818
5929.4321
22962.588
51871.497
25453.504
13018.431
26761.82
16200.14
20640.277
28464.358
33074.116
5258.1211
51708.436
56984.143
51772.849
1988.3765
-11200.544
17814.738
4937.8328
27670.302
-59431.586
-3812.5513
-5444.5551
-72876.406
-1651.2398
-4229.5358
-24841.945
11480.852
-13618.966
8325.0404
-8575.3457
-31381.266
2716.4871
8551.2282
10288.132
-38355.354
178.78196
-1299.2667
-34599.225
-8667.8284
-14315.558
-51469.809
-20192.146
-13525.175
-8622.6154
-10465.191
18479.478
10030.291
-10822.468
2731.7186
-15531.511
-28410.795
-1215.6981
5001.8512
-16306.092
5177.5066
-12825.271
5889.133
-2318.5461
-13551.839
2482.114
-9757.0707
-4174.6708
-436.29135
-6575.9366
-3704.1981
-3922.8127
-3853.8785
17556.43
1672.3973
-20112.645
22589.832
4561.3899
5382.9285
-7672.7084
-7462.9706
-7552.4766
26536.502
1537.217
870.6311
-14531.88
520.52052
-2865.8949
2494.1919
10740.146
-4771.1979
-2608.5061
-1695.9161
2300.0572
-7079.5154
-3646.5559
-5511.5928
-3549.8485
-6057.0164
-1464.2644
-3725.53
10048.853
-8755.4039
-3220.0696
-9413.3722
-135.1393
-6222.3314
1025.9045
-9304.3526
4121.571
-823.51531
2975.1722
-9073.3458
-838.95768
-9751.3175
6690.7133
-2454.6353
-11854.617
1473.1674
-9791.735
1258.8585
-3989.6885
-4108.0329
752.88255
-9379.5715
-5742.2755
-4696.2128
-1495.2411
-3871.3237
-8637.4371
-4242.1204
-1419.1857
-10418.743
-1235.6194
-6988.6036
-17141.448
-1186.4435
26.408595
-14687.455
-22.150343
-8633.36
-17011.354
510.01882
-9536.1291
-18273.041
4729.3659
6664.3173
-18916.883
3120.557
-7640.2159
-11303.038
-15073.596
9454.8649
5239.2339
-16294.539
2371.6652
-4977.0267
-3881.7445
-14582.383
433.79159
-8120.527
-10794.484
-2820.7423
-7478.6004
-471.3263
-6479.4448
-3898.6809
2993.243
-10192.761
-2404.0165
-5859.361
-3497.9339
-2590.1285
-4336.2496
-2362.1701
-21800.202
6705.4251
4876.9385
-13737.705
7054.5903
5866.5141
-14451.49
1203.1805
-5661.1347
-10490.643
5557.497
8265.5217
-11736.934
161.72892
-1723.1643
-10641.352
-2714.4496
-6086.9692
4280.8178
-13202.715
-2673.8511
-9452.287
-4173.1572
-11565.019
-3001.1877
-10315.933
-2932.88
-4253.7112
-2428.4038
-3380.8068
-3319.0894
-1794.8047
62606.922
32677.755
9527.8466
36217.127
14593.312
9654.819
-115938.22
19485.185
12847.795
96364.14
9266.0373
12917.94
17344.841
-1306.8809
726.33782
4180.2968
-1987.4522
-18056.609
-3758.9936
3439.5798
8141.5548
1680.8357
-3665.8303
1585.4669
8973.838
-3511.7024
-961.98564
-4898.4938
5739.5908
-9163.6364
5527.3782
9420.6161
5970.8065
2638.8031
6169.3194
4476.3121
8216.43
-35698.583
6828.949
24261.346
12467.871
10128.778
44269.68
13734.043
1423.679
90387.82
-921.21106
4055.6126
-1707.4488
13972.824
4826.9527
42518.302
1345.6056
7003.2324
5241.4189
-5503.7762
717.07688
-7408.85
-2432.6568
1371.355
-1111.9632
8783.6272
-3007.2598
-2015.3506
3975.6096
-601.77833
1148.5652
3496.3455
-3397.5174
1320.8056
24000.763
-794.08101
1985.8778
10511.178
-7469.1519
3313.7097
7095.0216
7821.6897
-4096.1382
59920.284
7330.341
253.38105
124717.64
-2833.2499
-8753.0156
9499.9827
7530.1744
2308.6608
34694.03
-366.98428
-1043.1149
-18756.654
7812.1112
-2186.1294
9695.0058
20845.732
-9052.7092
-15784.357
10116.095
-31053.9
6680.903
-6434.4273
-19018.759
-2506.449
-8566.1794
1775.6708
-6385.4068
2403.6598
-5250.9132
1718.277
4577.4201
232.22751
201.02731
-28097.163
-16552.157
11639.614
26297.259
6024.1943
-957.15852
15878.893
11576.616
-5049.2143
58090.357
14765.391
28241.459
15679.656
11717.438
27541.721
18406.021
29003.478
33143.723
2076.69
42465.092
-102614.6
-11973.948
9602.8536
-53342.667
-1014.6906
16681.479
-23911.087
31493.82
35331.314
11199.597
11757.803
5722.3142
24510.954
27179.132
42331.442
21688.092
9806.3944
27219.78
39633.402
99288.631
8093.8365
30635.189
-8435.0519
8034.2718
7857.8278
5561.3609
39967.636
29581.533
20382.613
41360.853
51533.166
31955.33
-108473.19
31842.077
23946.74
15648.8
-9051.4816
18423.729
-440.83523
-11423.767
7485.0166
-2807.0935
6822.8712
-68713.051
-10034.423
-10921.731
-64817.581
-12148.674
-17760.502
-29656.898
3652.2883
-4438.4442
15990.925
-2207.1045
-37191.006
7482.3854
-19115.947
-6129.426
18030.508
12923.115
4592.9928
-73476.836
26.880886
-25450.315
-37043.076
-27091.328
-8947.1646
-33131.225
-481.23937
114.15582
-5237.8006
-3017.8822
4340.6816
-1285.9212
452.44948
6523.0654
-17680.07
-2319.8804
3242.9421
-19905.393
2229.1892
-11594.767
-6739.4124
-10198.126
3119.6012
3746.2109
-24946.454
5730.0002
-7421.1579
-3051.1881
-2908.149
4930.2833
-15635.884
586.30839
-9726.0888
-7992.0085
-3271.0983
-9811.5512
-9151.8751
3061.7725
313.2677
-2255.4734
-2392.9612
-3297.0992
-217.87265
6102.6354
-8532.3321
-5208.6007
-19891.768
11149.794
3435.9474
2383.359
-12786.159
-1293.4185
-2365.8168
-7268.605
-6027.5096
2128.0893
2733.6881
2835.3427
-1928.6934
-1707.0096
-11139.019
7443.7003
6784.8572
-4479.7619
-2090.4705
-2181.1007
9143.3483
6487.0756
-38463.445
1498.633
-2062.1626
-5152.9046
211.05183
-7011.9611
-4750.4588
-3933.4491
-1781.4911
-2843.0614
-8179.7843
-157.63826
600.81453
-7432.7965
-1781.3034
-8265.2535
-12513.589
-1134.807
-1679.8081
-13240.858
-182.54137
-9542.3026
-18101.61
466.22734
-11572.081
244.83688
-7163.1218
-6443.1028
-2068.0444
-4013.1566
-1040.3005
-14745.396
-4299.2318
-4568.0527
-11008.827
102.32867
-4317.4609
-812.35837
-19329.832
-1823.1713
-7622.583
-12315.004
-2114.3124
-95514.106
4303.417
-537.5338
-38627.891
-13611.589
-4180.1111
-14664.36
-3646.4137
-7054.9794
-21808.326
5534.7772
2323.1055
-11018.571
7526.9174
5873.6791
-19063.717
942.03684
-1598.1623
-12499.024
7365.093
8856.1616
-15419.792
2137.332
-2997.7575
-10579.409
-2763.4861
-8239.1782
4079.2512
-11579.462
-2947.7234
-10233.415
-3580.1391
-12050.032
-3824.3793
-11743.531
-3231.5337
-4790.1211
-2745.4151
-3550.0193
-3587.5364
-2034.1529
-12971.966
6026.2889
4609.079
-18081.772
3581.8862
2422.8771
6044.9404
-8012.0515
6012.432
-13617.014
-1301.302
-3086.8492
2628.5093
-4729.0784
5296.9996
-7741.6581
-3422.1271
-5783.68
-6770.6751
-10935.81
-4653.0103
-31480.456
-8033.1175
-13371.611
-12363.198
-4680.4209
-8250.7214
-4161.4863
-3397.43
-2044.2127
-4408.2362
-2435.8437
-1622.5406
41744.729
18382.999
11404.713
45010.971
24432.15
3839.6666
108669.92
-7703.458
8342.2345
-9338.4685
10315.93
8856.2124
47286.826
-355.37086
12685.025
259.50568
-1662.5332
3611.7149
-1672.5721
1696.9006
-1522.4775
-1714.9951
1164.5098
-19.423177
1611.695
2335.7848
18236.417
-17100.14
5720.9531
1127.5631
17234.324
-9609.0058
-12.357334
-2378.3514
-1653.5151
20979.243
-8298.9754
23459.654
681.46939
-23709.082
2313.5626
18531.366
-22489.361
-14340.794
71937.536
8469.2675
5715.3259
155260.99
-3463.1064
-17872.682
4133.454
12917.198
7846.0278
40903.256
-2295.2813
1487.2974
-29316.794
7392.0298
2491.0498
13116.302
28241.246
-4496.1489
-9013.1604
3825.0499
-39537.219
8089.6202
-2714.3433
-9129.206
-2800.6469
-14857.049
13983.483
-10309.958
7085.9974
-8809.5677
1878.251
6819.9264
549.28595
146.24107
-22575.052
-13767.025
2760.4349
33799.651
7481.2006
-3848.3969
15512.48
7849.6592
-5925.7819
143131.37
-12239.445
-13667.986
20683.635
-480.34369
-143.38443
22520.693
-3061.2775
97.430743
-20203.933
4078.4674
15280.025
-4103.7192
1840.4265
-2809.0186
-10513.458
-35392.878
24371.016
-547.07579
-276.21195
-32166.793
-404500.81
97989.728
-15050.259
-26661.761
-6536.4666
489.10571
5175.7885
-586.41663
79.284435
4566.134
-664.90231
-1257.5796
45522.888
2563.1318
-7482.6133
11479.36
19790.755
-10654.663
29669.189
-48986.56
12411.857
29346.321
19290.832
21836.012
17431.713
18649.297
17013.067
18078.407
38029.763
22033.078
612.78489
-30474.003
32031.587
-7176.6181
13411.139
38336.833
-2835.3352
10772.831
39040.874
19484.539
14741.671
33694.189
-19791.382
19118.551
-95145.908
-44651.193
-7140.9557
5096.5613
-9248.7521
-14945.28
-24652.047
-27786.656
723.14127
-138041.82
-67622.669
4757.9523
-7174.9945
136632.18
432851.94
-19422.508
-102456.08
21105.576
7997.4962
51831.441
20416.379
20843.909
-21060.227
17114.892
20328.288
5608.8839
-71752.235
-3137.2203
34091.611
-25788.14
9391.7411
-11646.791
12554.032
13453.827
2273.2587
-712.26022
-1332.7738
78282.701
10718.817
24659.126
60650.668
23367.445
24790.493
-34542.279
15909.35
36893.526
27563.989
-1158.9855
-15710.396
9222.9895
-2121.0215
-2309.1053
62747.162
12391.734
-3203.269
-30823.829
85386.951
-247899
-11668.912
103080.92
-5791.2333
-62478.844
-3172.8231
-13956.186
2930.6442
19993.842
12006
75890.528
-4716.5614
-60138.293
-237886.5
-42370.446
8242.7866
8512.0617
-29043.467
-8123.7856
13850.359
58946.5
6200.6776
-9809.8388
-8133.8354
-34559.713
576.16369
-4511.4917
-22783.973
17757.598
9655.5217
-9783.9692
-10715.563
-103373.98
-24845.069
-16787.154
2775.7686
-23478.955
-8414.1592
1667.7228
2138.6939
-532.45955
-829.92075
11103.453
4811.0204
-3035.8352
-2121.6263
-23247.334
3175.6985
-1827.3861
-11749.236
3700.8932
3392.4063
-22463.619
188.68419
-2653.5087
2985.6057
24255.258
-23518.099
2264.5868
-1001.0464
-1156.7407
-10494.931
-2493.1736
-10588.414
6415.2094
-5316.0773
-45969.32
2826.4806
2132.8773
-1464.1003
-2143.4809
5867.0443
-7651.3001
-965.97122
7409.9933
3305.725
-11710.513
-4869.0174
-8539.2367
-7489.0777
1225.923
2594.5956
-1146.6653
-2941.3713
-7417.5287
12935.498
15376.705
-643.8699
-46292.421
2251.6918
-19628.199
-7191.76
-41795.861
-2443.4664
-1230.8882
-5154.8803
-2001.8007
-3303.8684
-3696.838
-14943.289
-1539.2308
-3171.0657
-9263.8841
-535.3509
-5833.3645
-814.84405
-18056.103
-994.1778
-8238.2025
-9745.2131
-2779.3077
-90596.913
-1707.8909
-5032.7977
-36539.85
-13926.339
-5476.4007
-16499.933
-4799.9257
-8168.0979
-2333.0699
-7162.9869
-3485.1732
-16845.906
-2642.0173
-5003.9717
-2387.5563
-4095.6113
-2938.7093
-5440.8113
-17460.109
-477.8744
-6938.0506
-11258.393
-1110.5411
-109539.57
5271.0197
11216.498
-4063.8484
-128396.11
36863.751
-4682.5892
-27976.909
-10802.264
-5302.5355
-58219.851
5212.982
-14370.355
-8574.2731
-10741.157
-4637.5058
-4789.4288
-10344.13
6087.7458
4346.3157
-16594.272
2298.7617
-521.13254
6411.9388
-6806.8348
5621.4649
-12401.569
-406.7104
-269.69076
22890.609
-6466.8032
2597.6081
-4148.6699
-3453.4746
-5900.1493
-8088.8856
-8990.049
-5043.9214
-30803.936
-9010.1304
-13816.482
-14112.547
-5395.5426
-9388.5083
-4427.9473
-3745.0942
-2321.6513
-4567.2023
-2588.3117
-1893.9491
-8378.8613
3184.2922
3614.9206
4940.3368
-7689.5119
5248.7
-14503.324
-714.88916
1046.6931
-16217.217
-3198.6615
-4755.7374
-9222.868
-5006.3094
4138.4243
-13238.499
-3191.1347
-6076.2941
552.11632
-10046.334
-8811.2147
-3481.6762
-42967.949
6554.7232
-9685.1224
-16751.265
-18401.312
-6155.8869
-13010.735
-15545.708
-3628.919
-6347.8974
-5072.2104
-2397.6314
-1819.4
-5230.548
-2553.9173
-1469.9101
93425.615
6546.0229
14781.055
179706.33
-2985.6614
-17758.411
-4906.7226
13188.609
10007.227
43881.601
-1893.3385
6901.8229
-33635.459
5853.3864
5658.9535
15926.671
5200.1848
8151.811
14887.278
10352.872
-2219.2056
-3174.0821
2233.5972
-3849.0113
1159.6172
-105048.02
166849.9
-53703.994
-1374.0463
1816.4222
-5343.3104
8429.2409
3601.8067
-2132.6239
21670.715
-33430.668
-11068.964
40597.795
-14153.66
-12820.792
2062.3103
-810.81561
-15447.762
181917.33
-13510.071
-20269.752
34834.214
1852.6996
2629.0743
11104.094
-3504.5345
-5246.7439
-29765.945
4931.2626
19868.878
-6094.6802
5880.7758
-954.95881
-6514.2224
-42301.606
24003.588
-10628.105
-2686.5104
-16112.592
-510903.87
133921.71
-22763.78
-39975.694
-3178.895
-2626.6613
8408.6684
-348.95723
-457.00957
7340.8074
-788.83123
-586.93254
74806.123
-6204.2399
-12837.926
13108.358
10951.914
-8578.7772
34264.513
-20787.416
5969.7994
49479.154
-8167.7338
-12107.626
38997.303
-8516.9256
-4605.7357
-10365.793
1395.1216
10867.21
-3206.5513
20605.597
-1170.2528
39831.887
-43979.447
5147.906
88192.105
-12058.284
-10759.332
34362.526
3963.4602
-1226.3586
4443.4967