/*--------------------------------*- C++ -*----------------------------------*\
  =========                 |
  \\      /  F ield         | OpenFOAM: The Open Source CFD Toolbox
   \\    /   O peration     | Website:  https://openfoam.org
    \\  /    A nd           | Version:  7
     \\/     M anipulation  |
\*---------------------------------------------------------------------------*/
FoamFile
{
    version     2.0;
    format      ascii;
    class       volScalarField;
    location    "9000";
    object      k;
}
// * * * * * * * * * * * * * * * * * * * * * * * * * * * * * * * * * * * * * //

dimensions      [0 2 -2 0 0 0 0];

internalField   nonuniform List<scalar> 
33943
(
1.5228764
1.5208831
1.5224243
1.5216898
1.5272422
1.5208239
1.5222964
1.5237658
1.5218594
1.5215679
1.5235832
1.5232925
1.5205126
1.5208588
1.5207688
1.5204475
1.5209911
1.521734
1.5225825
1.5228846
1.5273084
1.5204446
1.5205605
1.5268865
1.5287414
1.5283697
1.5280642
1.5284364
1.5205203
1.5194223
1.5201157
1.5209946
1.5212401
1.5225052
1.5223202
1.5225401
1.5228406
1.5220031
1.5222255
1.5225379
1.5221547
1.5247408
1.5244486
1.521295
1.5212583
1.521949
1.5219806
1.521173
1.5209961
1.5217407
1.5215811
1.5205556
1.5203455
1.5205708
1.5203987
1.5205527
1.5205428
1.5202916
1.5202847
1.5275502
1.522215
1.5228932
1.5220452
1.522737
1.5202116
1.5200223
1.5201182
1.519909
1.5205634
1.5202166
1.5204815
1.520098
1.521468
1.5212904
1.5216605
1.5216183
1.5235396
1.5270084
1.5239243
1.529114
1.5288137
1.5284398
1.5287412
1.5202397
1.520232
1.5203388
1.5202769
1.5282975
1.5270873
1.5271568
1.5279854
1.5300301
1.5298596
1.5300709
1.5303281
1.5194541
1.5195552
1.5210389
1.5211714
1.5187726
1.5187252
1.5203881
1.5203946
1.5192971
1.5205697
1.5210274
1.5197048
1.5207845
1.5207665
1.5210113
1.5210413
1.5208686
1.5213154
1.5212973
1.5210442
1.5225824
1.5223616
1.5226339
1.5225069
1.522508
1.5227035
1.5228142
1.5228433
1.5225104
1.5227498
1.5218199
1.5219845
1.5228688
1.5220604
1.5221005
1.5254859
1.5215155
1.521775
1.5227826
1.5225316
1.5213752
1.5222664
1.5214151
1.5222908
1.5210711
1.5210616
1.5213259
1.5213241
1.5210516
1.5210426
1.5212907
1.5212823
1.5210172
1.5210006
1.5211997
1.5211815
1.5209359
1.5208544
1.5209359
1.5210364
1.5208456
1.5208574
1.5203649
1.5203732
1.5207991
1.5208522
1.520407
1.5203954
1.5208745
1.5208834
1.5203535
1.5203529
1.5203347
1.5208549
1.5208769
1.5203497
1.5274155
1.5236655
1.5230933
1.5227215
1.5296434
1.5291097
1.5288011
1.5293293
1.5238301
1.5211393
1.5211314
1.5213262
1.5213205
1.521307
1.5216614
1.5216637
1.5212845
1.5210797
1.5209086
1.5210401
1.5211957
1.5213705
1.5214925
1.5211714
1.5210111
1.5201588
1.5200268
1.5201023
1.5200933
1.5199934
1.5200681
1.5200296
1.5199506
1.5200656
1.5199934
1.5200089
1.520054
1.5199546
1.5199698
1.5202793
1.520239
1.5201754
1.5203327
1.5201209
1.5202214
1.5201901
1.52016
1.5201467
1.5202376
1.5202328
1.5201353
1.5201138
1.5200983
1.5201258
1.520086
1.5210837
1.5211049
1.5208471
1.5209614
1.5211989
1.5218538
1.5212049
1.5211676
1.5211769
1.5218824
1.5247321
1.5276484
1.5271708
1.528253
1.5286759
1.5220678
1.5224257
1.5303831
1.5306687
1.5305091
1.5301695
1.5203922
1.5203933
1.5203717
1.5203909
1.5204293
1.5204223
1.5203948
1.5204074
1.5284613
1.5268694
1.5270177
1.528518
1.5303032
1.530167
1.5302632
1.5305093
1.5180865
1.5188392
1.5224879
1.5187924
1.5189159
1.5206087
1.5202442
1.5188882
1.518849
1.520569
1.5206392
1.5205391
1.5209774
1.5209959
1.5212141
1.521048
1.5209806
1.5212395
1.521188
1.5190232
1.5189655
1.52062
1.5206198
1.5194306
1.5207441
1.5211461
1.5198529
1.5207893
1.5207581
1.5208889
1.5209303
1.5208806
1.5207636
1.5207693
1.5208898
1.5209473
1.5209869
1.5209912
1.520938
1.5209993
1.5209507
1.5210231
1.520995
1.5208521
1.5208804
1.5209349
1.5209751
1.5211817
1.5211935
1.5213777
1.5215031
1.521169
1.5215558
1.5210783
1.5213343
1.5209795
1.5210204
1.5210034
1.5210219
1.522662
1.522521
1.522669
1.5224424
1.5227099
1.5229102
1.522825
1.522527
1.5227224
1.5228526
1.5224874
1.5226158
1.5226651
1.5224708
1.5227835
1.5227855
1.5227595
1.5228237
1.5217401
1.5218987
1.5223502
1.5225649
1.5226706
1.52195
1.5227199
1.5219815
1.5228818
1.5228937
1.5228967
1.5229135
1.5227693
1.5220254
1.5227888
1.5220431
1.5228108
1.5220311
1.5225063
1.523661
1.5211959
1.5215491
1.5211724
1.5215328
1.5212673
1.5217027
1.5214067
1.5218867
1.521118
1.5211035
1.5214077
1.5214064
1.5211379
1.5214416
1.5211271
1.5214404
1.5209926
1.5209832
1.5210799
1.5210787
1.5209802
1.5209779
1.5210722
1.5210712
1.5210606
1.5209756
1.5209743
1.5210607
1.5209715
1.5209706
1.5210481
1.5210512
1.520964
1.5209642
1.5210166
1.5210184
1.52096
1.5209564
1.5209936
1.5210011
1.5209322
1.5209332
1.5209083
1.52092
1.5209184
1.5209251
1.5207726
1.5208204
1.5214753
1.52146
1.5204915
1.520496
1.5214753
1.5214838
1.5205114
1.5205046
1.5205055
1.5212615
1.5213653
1.5205042
1.5214553
1.5214403
1.5205173
1.5205195
1.5215158
1.5215453
1.520503
1.5205094
1.5205095
1.5215589
1.5215457
1.5205093
1.5215308
1.5215138
1.5204776
1.5204839
1.5215482
1.5215406
1.5204986
1.520506
1.5243828
1.5285396
1.5292548
1.5286933
1.5279686
1.5247966
1.5218832
1.5219269
1.521399
1.5214187
1.5216587
1.5216342
1.5213238
1.5219294
1.5212053
1.521467
1.5212024
1.5214369
1.5307449
1.530512
1.5307792
1.5309567
1.5219565
1.5221221
1.5223873
1.5215735
1.5209075
1.5209053
1.5209435
1.5209496
1.5208985
1.5208945
1.5209341
1.520934
1.5209947
1.5209312
1.5209257
1.5209975
1.5209427
1.5209418
1.5210072
1.5210155
1.5210038
1.521004
1.521068
1.5210631
1.5212075
1.5210571
1.5210595
1.521215
1.5211845
1.5210303
1.5210395
1.5211882
1.5210442
1.5209834
1.520989
1.521043
1.5206617
1.520787
1.5208349
1.520731
1.5206774
1.5207883
1.520767
1.520644
1.5208892
1.5208465
1.5208572
1.5208811
1.5209432
1.5208769
1.52089
1.520936
1.5207398
1.5208571
1.5209721
1.5208809
1.5209675
1.5209859
1.5211075
1.5210982
1.5209872
1.5209417
1.5209274
1.5209761
1.5208615
1.5208308
1.5207126
1.5207617
1.5205042
1.5204756
1.5205197
1.520481
1.520473
1.5204952
1.5204452
1.5204593
1.5204899
1.5204683
1.5205031
1.5204722
1.52049
1.5204544
1.5205124
1.5204698
1.5204159
1.5204151
1.5204371
1.5204282
1.520441
1.5204422
1.5204479
1.5204424
1.5203635
1.5203556
1.5202829
1.5202729
1.5203249
1.5203377
1.5202552
1.5202362
1.5205281
1.5205243
1.5204853
1.5204756
1.5204702
1.5204392
1.5204608
1.5205146
1.5204821
1.5205105
1.5204711
1.5204867
1.5205164
1.5204464
1.5204681
1.520413
1.5204092
1.5204613
1.5204545
1.5204585
1.5204437
1.5204147
1.520432
1.5203856
1.520397
1.5204827
1.5204755
1.5204324
1.5204305
1.5204541
1.520475
1.5204018
1.5204152
1.5204432
1.5204433
1.520421
1.5204144
1.5204907
1.5204507
1.5205135
1.520466
1.5205097
1.5204979
1.5204601
1.5204618
1.5205061
1.5204741
1.5205194
1.5204778
1.5204807
1.5205027
1.5204345
1.5204494
1.520473
1.5204719
1.520411
1.5204073
1.5204238
1.520424
1.5203825
1.5203814
1.5203986
1.5204225
1.520362
1.520379
1.5204424
1.5204696
1.5203843
1.5204036
1.5204733
1.5205023
1.5204206
1.5204415
1.5205236
1.5204772
1.5205198
1.5204685
1.5205087
1.5205056
1.5204527
1.520446
1.5204852
1.5204411
1.5205143
1.5204624
1.5209708
1.5209632
1.5209849
1.5209824
1.5208134
1.5207626
1.5209016
1.5208894
1.5210281
1.5210266
1.5212589
1.5212571
1.5210354
1.5210319
1.5210108
1.5210079
1.521019
1.5210176
1.5212865
1.5212782
1.5233607
1.5266791
1.5267289
1.5283737
1.5283567
1.5213773
1.521356
1.5214956
1.5217124
1.5305941
1.5308219
1.5306849
1.5304015
1.5205298
1.5205377
1.5205356
1.5205368
1.5205117
1.5205032
1.5205262
1.5205347
1.5205227
1.5205232
1.5205395
1.5205415
1.5205132
1.5205198
1.5205289
1.5205363
1.5287047
1.5269552
1.5271441
1.5288024
1.5304661
1.5303799
1.5304327
1.5306395
1.5181281
1.5181076
1.5180972
1.5186941
1.5228196
1.5225303
1.5192286
1.5189992
1.5191662
1.520834
1.5204779
1.5191403
1.5191096
1.5208068
1.5208751
1.5194472
1.5205158
1.5205782
1.5209697
1.5208051
1.52099
1.5210236
1.5211294
1.5211759
1.5210182
1.5204358
1.5209722
1.5205792
1.5211197
1.5212208
1.5211688
1.5211571
1.5211712
1.5210481
1.5210425
1.5212035
1.521202
1.5209951
1.5209541
1.5211021
1.5211675
1.5212519
1.5211812
1.521257
1.5211808
1.5212325
1.5211605
1.5211176
1.5211677
1.5190583
1.5190196
1.520788
1.5208756
1.5208445
1.5207815
1.5208438
1.5208497
1.5194475
1.5208775
1.5209143
1.5209432
1.5212348
1.5212122
1.5214218
1.519788
1.5209183
1.520957
1.5209085
1.5209164
1.5209474
1.5209531
1.5209793
1.5209695
1.5209751
1.5209748
1.5209698
1.5209705
1.5209787
1.5209717
1.5209895
1.520979
1.5209407
1.520942
1.5209653
1.5209648
1.5210086
1.5209789
1.5210376
1.5209993
1.5209555
1.52095
1.5209796
1.5209733
1.5210431
1.5210036
1.521004
1.5209821
1.5209874
1.5209811
1.5209749
1.5209719
1.5209572
1.5209911
1.5211743
1.5214883
1.5211214
1.5211404
1.5211765
1.5211751
1.5213613
1.5216201
1.52141
1.521702
1.521102
1.5211615
1.5210688
1.5210284
1.5217079
1.5211782
1.5214379
1.5213248
1.5209813
1.5210007
1.5210091
1.5209866
1.5210099
1.5210247
1.5210245
1.5210473
1.5210073
1.5210163
1.5209887
1.5209947
1.5210277
1.521051
1.5209994
1.5210119
1.5226813
1.5225499
1.5227425
1.5225514
1.5227085
1.5228419
1.5229725
1.522842
1.5225854
1.5224941
1.5226357
1.5224866
1.5226634
1.5224818
1.5227216
1.5227023
1.5227554
1.5227864
1.5227865
1.522821
1.522848
1.5228374
1.5228768
1.522891
1.5229009
1.5229162
1.5226709
1.5226732
1.5226919
1.5227094
1.5225223
1.5224516
1.5224256
1.5225412
1.5227915
1.5228001
1.5228054
1.5227925
1.5228313
1.5228301
1.5228381
1.5228461
1.5218094
1.5221557
1.5223369
1.5219624
1.522046
1.522432
1.5225091
1.5220967
1.5225444
1.5224017
1.5225334
1.5223652
1.5227136
1.5226687
1.5227042
1.522649
1.5227873
1.5228025
1.5227682
1.5227851
1.5220981
1.5225288
1.5225483
1.5221121
1.5228081
1.5228262
1.5228449
1.5228297
1.5225581
1.522609
1.5221535
1.5221123
1.5229078
1.5229034
1.5228999
1.5229064
1.5229225
1.5229206
1.5229167
1.522921
1.522899
1.5228917
1.522867
1.5228741
1.5221708
1.5226156
1.5226299
1.5221957
1.5229131
1.5229085
1.5228826
1.5228901
1.5226749
1.5226447
1.5222107
1.5222271
1.5229394
1.5229289
1.5229037
1.5229146
1.5221867
1.5226481
1.5226653
1.5222042
1.5219202
1.5220862
1.5228092
1.522641
1.5212003
1.5210897
1.5210837
1.5211944
1.5210755
1.5210711
1.5211709
1.5211743
1.5211324
1.5211221
1.5212826
1.5212693
1.5212114
1.5211703
1.5214653
1.5213696
1.5210461
1.5210437
1.5211125
1.5211138
1.5210343
1.5210159
1.5211048
1.521101
1.5210562
1.5210552
1.5211324
1.5211315
1.5210519
1.5211208
1.5210491
1.5211208
1.5209616
1.5209742
1.5209915
1.5209902
1.5209504
1.5209538
1.5209861
1.5209852
1.5209471
1.5209484
1.5209844
1.5209844
1.5209449
1.5209459
1.5209823
1.5209814
1.5209446
1.5209441
1.5209791
1.5209792
1.5209443
1.520945
1.5209776
1.5209765
1.5209447
1.5209436
1.5209736
1.5209733
1.5209493
1.5209469
1.5209709
1.520969
1.5209555
1.5209518
1.520958
1.5209576
1.5209584
1.5209581
1.5209564
1.5209554
1.5209609
1.5209583
1.5209494
1.5209489
1.5209658
1.5209634
1.5209433
1.5209388
1.5209724
1.5209641
1.520903
1.5209015
1.5209947
1.5209822
1.5208954
1.5208904
1.5210136
1.5208424
1.5210654
1.5208402
1.5211324
1.5212083
1.5208004
1.5207608
1.5215579
1.5215392
1.5215632
1.5215558
1.5213272
1.5214352
1.5215213
1.5215184
1.5215999
1.5216302
1.5216442
1.5216168
1.5216219
1.5216013
1.5216324
1.5216325
1.5230174
1.5231761
1.5265313
1.5283531
1.5283383
1.526627
1.5230604
1.5234371
1.5210901
1.5210991
1.521289
1.521302
1.521074
1.5210779
1.5212887
1.5212708
1.521085
1.5210144
1.5210924
1.5210154
1.521104
1.5210245
1.5210303
1.5211073
1.5212303
1.5213173
1.5210321
1.5211235
1.5209867
1.5210077
1.5211026
1.5211031
1.5210024
1.5210103
1.5209531
1.5209385
1.5210965
1.521316
1.5214233
1.521232
1.5208959
1.5208998
1.52095
1.5209528
1.5209381
1.5209367
1.5210363
1.5210211
1.5208904
1.5209487
1.5209387
1.5208962
1.5210326
1.5209447
1.5210408
1.5209504
1.5312915
1.5312113
1.5311017
1.530934
1.5309623
1.5308028
1.5309659
1.5310903
1.521321
1.5214155
1.5211961
1.521519
1.5211474
1.5211747
1.5213854
1.5213923
1.521506
1.5212819
1.5217153
1.5215426
1.521077
1.5210981
1.5211844
1.5211746
1.5208667
1.5208664
1.5208586
1.5208596
1.5208722
1.5208691
1.5208607
1.5208626
1.5208738
1.5208877
1.5208681
1.5208832
1.5208661
1.5208801
1.5208646
1.52088
1.520863
1.5208638
1.5208567
1.5208565
1.5208592
1.5208587
1.5208515
1.5208529
1.5208627
1.5208749
1.5208625
1.5208758
1.5208587
1.5208711
1.5208574
1.5208711
1.5208855
1.5209057
1.5208844
1.5209069
1.5208749
1.5208744
1.5208852
1.520885
1.5208706
1.5208692
1.5208803
1.5208796
1.5208806
1.5208788
1.5209015
1.5209019
1.5208796
1.5208903
1.5208895
1.5208778
1.5208888
1.5208991
1.5208818
1.5208937
1.5208998
1.5209202
1.5209163
1.5208926
1.5208902
1.5209125
1.5208881
1.5209133
1.5209206
1.5209364
1.5209143
1.5209329
1.520912
1.520929
1.5209105
1.5209291
1.5209281
1.520956
1.5209263
1.520957
1.520936
1.5209622
1.5209305
1.5209605
1.5209809
1.521039
1.5209771
1.5210398
1.5209541
1.5209764
1.5209526
1.5209765
1.520961
1.5209828
1.5209568
1.5209812
1.5209742
1.5210335
1.5209723
1.5210359
1.5209671
1.521022
1.5209655
1.5210242
1.5209409
1.5209388
1.5209608
1.5209598
1.5209474
1.5209681
1.5209463
1.5209683
1.5209595
1.5210156
1.5209567
1.5210166
1.5209227
1.5209478
1.5209215
1.520949
1.5209012
1.5209167
1.5208997
1.5209164
1.5209064
1.5209224
1.5209056
1.5209229
1.5209166
1.5209146
1.5209422
1.5209425
1.5207521
1.5207293
1.5207464
1.5207254
1.520818
1.5208193
1.5208112
1.5208119
1.5208259
1.5208334
1.5208184
1.5208261
1.520758
1.5207613
1.5207363
1.5207409
1.5207394
1.5207409
1.5207068
1.5207168
1.5208088
1.5208121
1.5208021
1.5208053
1.5208008
1.5207934
1.5207928
1.5207842
1.5207226
1.5206824
1.5206478
1.520709
1.5208468
1.5208567
1.5208459
1.5208565
1.5208372
1.5208356
1.5208275
1.5208296
1.5208445
1.5208437
1.5208357
1.5208371
1.5208404
1.5208501
1.5208384
1.5208487
1.5208692
1.5208855
1.5208684
1.5208859
1.5208525
1.5208595
1.5208501
1.5208572
1.5208587
1.5208667
1.520858
1.5208664
1.5208623
1.5208782
1.5208593
1.5208763
1.5207875
1.5207532
1.5207803
1.5207463
1.5208626
1.5208533
1.5208656
1.5208563
1.5208704
1.5208987
1.5208597
1.5208897
1.5207868
1.5208111
1.5207445
1.5207727
1.5209146
1.5209094
1.520928
1.5209235
1.5209244
1.5209402
1.5209231
1.5209394
1.5209412
1.5209853
1.5209393
1.5209854
1.5209292
1.5209227
1.5209722
1.5209683
1.5209032
1.5209228
1.5209022
1.5209229
1.520888
1.5208874
1.5209009
1.5209007
1.5208808
1.5208773
1.5208921
1.5208891
1.5208946
1.5208902
1.5209131
1.5209101
1.5208504
1.5208418
1.5208576
1.5208493
1.5208396
1.5208317
1.520844
1.520836
1.5207482
1.5207715
1.5207682
1.5207444
1.5207783
1.5207505
1.5207803
1.5207529
1.5208485
1.5208799
1.520826
1.5209123
1.5208426
1.5207853
1.5208046
1.5208722
1.5209797
1.5209077
1.52096
1.5208957
1.5209176
1.5208482
1.5209345
1.5208575
1.5211092
1.521006
1.5210097
1.5211192
1.5211504
1.5211274
1.5210244
1.521041
1.5209353
1.5210233
1.5209305
1.5210357
1.52107
1.5209678
1.521044
1.5209498
1.5209538
1.5210174
1.520931
1.52105
1.520943
1.5208667
1.5208891
1.5209764
1.5210255
1.5211117
1.521012
1.5211319
1.5210301
1.5209401
1.5210513
1.5209526
1.520949
1.5208829
1.5208889
1.5209611
1.520834
1.5209162
1.5209044
1.5208385
1.5209708
1.5209967
1.5209042
1.5209231
1.5208558
1.520953
1.5208725
1.5209278
1.5214149
1.5214102
1.5212376
1.5212247
1.5212478
1.5210981
1.5210942
1.5212454
1.5214281
1.5214301
1.5212483
1.5212506
1.521261
1.5212743
1.5211131
1.5211218
1.5211432
1.521284
1.5211326
1.5213049
1.5211356
1.5210114
1.521029
1.521163
1.5212319
1.5214035
1.5212316
1.5214098
1.5212409
1.5210986
1.5212555
1.5211062
1.5214633
1.5214842
1.5212852
1.5212878
1.5214004
1.5213899
1.5216038
1.5216099
1.521458
1.5215932
1.5216226
1.5216232
1.5214139
1.5213922
1.5214241
1.5214093
1.5216347
1.5216357
1.5216225
1.5216109
1.5210215
1.5209542
1.5209573
1.5210317
1.5210287
1.521017
1.5209476
1.5209524
1.5209048
1.520978
1.5209037
1.5209862
1.5209812
1.5208977
1.5209727
1.5208959
1.5211409
1.5210326
1.5210392
1.5211537
1.5209609
1.5210514
1.5209534
1.5210666
1.5211105
1.5210006
1.5210793
1.5209783
1.5210773
1.5211765
1.5210747
1.5211866
1.521094
1.5210007
1.5210033
1.5211047
1.5210778
1.5211761
1.5210707
1.5211894
1.5210915
1.5209945
1.521105
1.5210001
1.5209736
1.5209037
1.520912
1.5209881
1.5210005
1.5209292
1.5210294
1.5209505
1.5208592
1.520927
1.5208518
1.520941
1.5209807
1.5209541
1.5208764
1.5208949
1.5214567
1.5214524
1.5212733
1.5212623
1.5212868
1.5211285
1.5211272
1.5212826
1.5212886
1.5214703
1.5212989
1.5214674
1.5213082
1.5211634
1.5211609
1.5213125
1.5212944
1.5214772
1.5213
1.5214762
1.5213113
1.5211611
1.5213187
1.5211627
1.5205378
1.5205713
1.5205328
1.5205793
1.5205934
1.5205529
1.5205626
1.520607
1.5205345
1.5204991
1.520541
1.5205034
1.5205158
1.5205223
1.5205543
1.5205651
1.5206519
1.5206916
1.5206452
1.5207013
1.5206622
1.5206483
1.5206106
1.5206177
1.5206213
1.5206123
1.5205695
1.5205721
1.5205956
1.5206002
1.5206476
1.5206559
1.5206284
1.5206689
1.5206211
1.5206796
1.5206946
1.5206454
1.5206599
1.5207136
1.5206225
1.5205699
1.5206324
1.5205754
1.5205914
1.5206029
1.5206474
1.5206641
1.5205628
1.5205975
1.5205593
1.5206034
1.5205749
1.5205711
1.5205397
1.5205394
1.5205123
1.5205421
1.5205418
1.5205099
1.5205258
1.5205272
1.5205612
1.5205653
1.5208061
1.5208536
1.5208009
1.5208636
1.520821
1.5207606
1.5207651
1.5208308
1.5208407
1.5208772
1.5208235
1.5208997
1.5208454
1.5207826
1.5207976
1.5208668
1.5208032
1.5207486
1.5207939
1.5207435
1.520757
1.5207362
1.520695
1.5207079
1.5207173
1.5207005
1.5206488
1.5206579
1.5206894
1.5206952
1.5207517
1.5207593
1.5208262
1.5208003
1.520758
1.5207751
1.5207969
1.5207737
1.5207253
1.5207394
1.5208252
1.5208681
1.5208164
1.5208818
1.520778
1.5208367
1.5208488
1.5207834
1.52073
1.520776
1.5207248
1.5207847
1.5207997
1.5207474
1.5207619
1.5208182
1.5207329
1.5206684
1.5207417
1.5206739
1.5206917
1.5207059
1.5207569
1.5207744
1.5207192
1.5206626
1.5206671
1.5207256
1.5207186
1.5206636
1.5206648
1.5207211
1.5206625
1.5206013
1.5206057
1.5206703
1.5206657
1.5206039
1.5206048
1.5206686
1.5206018
1.5205571
1.5205614
1.5206087
1.520606
1.5205609
1.5205617
1.5206081
1.5205582
1.5205155
1.5205197
1.5205643
1.5205629
1.52052
1.5205189
1.5205641
1.5205698
1.5205275
1.5205347
1.5205804
1.5206125
1.5205981
1.5205541
1.5205647
1.5205293
1.5204889
1.5204949
1.520538
1.520568
1.5205561
1.5205123
1.5205201
1.5206757
1.5206237
1.5206337
1.5206893
1.5207251
1.5207064
1.5206536
1.5206681
1.5206256
1.5205679
1.5205762
1.5206383
1.5206733
1.5206564
1.5205954
1.5206075
1.5207909
1.5207359
1.5207435
1.5208023
1.5208366
1.5208186
1.5207623
1.520776
1.520745
1.5206747
1.5206831
1.5207562
1.5207893
1.5207725
1.5207022
1.5207162
1.5209254
1.5209314
1.5208692
1.5208697
1.5208913
1.5208963
1.5208258
1.5208251
1.520919
1.5208615
1.5208624
1.5209242
1.5208182
1.5208166
1.5208849
1.5208882
1.5208427
1.5207864
1.5207869
1.5208466
1.5208367
1.5207804
1.5207779
1.5208374
1.5207954
1.5207206
1.5207217
1.5207998
1.5207914
1.5207167
1.5207154
1.5207898
1.5208731
1.5208166
1.5208856
1.5208234
1.52085
1.5208386
1.520774
1.5207797
1.5209228
1.5208592
1.5208995
1.5208424
1.5207995
1.5208659
1.5208867
1.5208131
1.5209402
1.5209395
1.5209349
1.5209302
1.5209474
1.5209467
1.5209463
1.5209452
1.520843
1.5208415
1.5208073
1.5207636
1.5208982
1.5208968
1.520892
1.5208869
1.52097
1.5209706
1.5209684
1.5209675
1.5210616
1.5210611
1.5210543
1.52105
1.5209774
1.5209754
1.5209717
1.5209707
1.5209609
1.5209603
1.5209567
1.5209586
1.5209658
1.5209653
1.5209645
1.5209633
1.5210748
1.5210779
1.5210676
1.5210672
1.5224498
1.522649
1.526502
1.5266965
1.5285116
1.5283911
1.521139
1.5211301
1.5211137
1.5211102
1.5212129
1.521198
1.5213868
1.5212806
1.5305776
1.5308983
1.5307852
1.5304836
1.5287608
1.5268931
1.5271037
1.5289336
1.5181565
1.5181279
1.5180179
1.5193883
1.5193384
1.5184855
1.5196737
1.5200327
1.5192849
1.5190622
1.519201
1.5210016
1.5210767
1.5211111
1.5206774
1.5209196
1.5206131
1.5191925
1.5191507
1.5209776
1.5210906
1.5210464
1.5210408
1.5211345
1.5211356
1.5192305
1.5195223
1.5195973
1.5191833
1.520667
1.5210174
1.5211666
1.5212046
1.5211017
1.5210503
1.5210623
1.5211306
1.5192577
1.5196779
1.5203411
1.5206095
1.5206187
1.5209536
1.5209382
1.5210559
1.5208637
1.5205731
1.5205419
1.5209022
1.521065
1.5211268
1.5210845
1.5211046
1.521232
1.5212411
1.5212534
1.5212387
1.5212119
1.5211909
1.5211979
1.5212239
1.5211774
1.5211989
1.5211147
1.521122
1.5212116
1.5212271
1.5211242
1.5211332
1.5212368
1.5212339
1.5211394
1.5212034
1.5212764
1.5212707
1.5212662
1.5212845
1.5212562
1.521249
1.52114
1.5211446
1.5212734
1.5212704
1.5212865
1.521284
1.5212566
1.521259
1.521144
1.5211425
1.5212509
1.5212408
1.5212593
1.5212709
1.5211969
1.5211555
1.5211649
1.521225
1.5212082
1.5211459
1.5211091
1.5210638
1.5212481
1.5211363
1.5212361
1.5211309
1.5208594
1.5208891
1.5209216
1.5209514
1.5209191
1.5208614
1.5208583
1.5209107
1.520913
1.5209181
1.5209476
1.5209269
1.5209888
1.5209685
1.5209906
1.5213943
1.5212121
1.5213137
1.5212074
1.5214314
1.5209099
1.5209135
1.5209592
1.520954
1.520978
1.520971
1.520933
1.5209554
1.5210097
1.5209799
1.5210345
1.520998
1.5209034
1.5209042
1.5209446
1.5209447
1.5209632
1.5209618
1.5209133
1.5209094
1.5209565
1.5209492
1.5209671
1.5209749
1.5209831
1.5209894
1.5209865
1.5209959
1.5209805
1.5209743
1.5209756
1.5209831
1.520982
1.5209815
1.520981
1.5209812
1.5209808
1.5209802
1.5209811
1.5209815
1.5209623
1.5209748
1.5209751
1.5209635
1.5209643
1.5209754
1.5209763
1.5209644
1.5209835
1.5209862
1.5209862
1.5209834
1.5209648
1.5209772
1.5209801
1.5209671
1.520992
1.5209922
1.521
1.521001
1.5209719
1.5209858
1.5209948
1.5209784
1.5209783
1.5209714
1.5209706
1.5209776
1.5209771
1.5209703
1.5209707
1.5209778
1.5210472
1.5210557
1.5210291
1.5210311
1.5210014
1.521006
1.5210117
1.521005
1.5209839
1.5209861
1.5209925
1.5209897
1.5209785
1.5209797
1.5209865
1.5209846
1.5210616
1.5210608
1.5210325
1.5210305
1.5210127
1.5210141
1.521006
1.5210035
1.5210021
1.5210344
1.5210091
1.5209844
1.5209887
1.5209957
1.5209746
1.5209699
1.5209948
1.5209953
1.520992
1.5209911
1.5209891
1.5209894
1.5209871
1.5209866
1.520967
1.5209831
1.5209805
1.5209655
1.5209778
1.5209793
1.5209641
1.5209631
1.5209579
1.5209531
1.5209889
1.5209823
1.5210055
1.5209987
1.5209917
1.5209795
1.5210049
1.5210237
1.5210207
1.5210402
1.521197
1.5211663
1.521128
1.5211701
1.5211205
1.5211663
1.52154
1.5214032
1.5213516
1.5216144
1.5213402
1.521652
1.5211074
1.5211134
1.5211189
1.521121
1.52115
1.5211592
1.5211741
1.5211765
1.5212871
1.5213147
1.5213499
1.5213494
1.5216309
1.5217417
1.5218037
1.521597
1.5210965
1.5211028
1.5211169
1.521112
1.5211763
1.5211437
1.5211744
1.521136
1.5211112
1.5210655
1.5211004
1.5211528
1.5210298
1.5210698
1.5210879
1.5210449
1.5215754
1.521835
1.5215621
1.5218624
1.5212271
1.5213421
1.5212709
1.5211617
1.5218188
1.5215352
1.5214269
1.5216224
1.5213489
1.5212704
1.5213511
1.521256
1.5210118
1.5210054
1.521008
1.5210161
1.5210206
1.5210138
1.5210152
1.5210232
1.5210308
1.5210262
1.5210284
1.5210349
1.5210458
1.5210529
1.5210617
1.5210492
1.521014
1.5210147
1.5210196
1.5210198
1.5210233
1.5210237
1.5210267
1.5210268
1.5209857
1.5210043
1.521011
1.5209918
1.521018
1.5210146
1.5209952
1.5209975
1.5210319
1.521033
1.5210375
1.5210372
1.5210479
1.52105
1.5210651
1.5210643
1.5209991
1.5210207
1.5210268
1.5210043
1.5210518
1.5210362
1.5210113
1.5210213
1.5227185
1.5227405
1.5224896
1.5225989
1.5225701
1.5227339
1.5227218
1.5225812
1.5224957
1.5226178
1.5225983
1.522501
1.5227369
1.5227586
1.5227411
1.522723
1.5228421
1.5228536
1.5228473
1.5228594
1.5228445
1.5228624
1.522851
1.522854
1.522646
1.522679
1.5224892
1.5224893
1.5226791
1.5227065
1.5224396
1.5225364
1.5227674
1.5227949
1.5227977
1.5228299
1.522809
1.5227984
1.5228465
1.5228362
1.5228832
1.522906
1.522897
1.5229215
1.5229065
1.5229121
1.5229236
1.5229264
1.5226791
1.5227161
1.5224207
1.5225476
1.5228101
1.5227968
1.5228343
1.5228489
1.5220594
1.5222142
1.5223809
1.5222208
1.5223136
1.5224861
1.5225194
1.5223418
1.5225485
1.5223994
1.5225285
1.5223622
1.5227168
1.5226729
1.5226928
1.5226447
1.5227901
1.522804
1.5227571
1.5227691
1.5223663
1.5225658
1.5225782
1.5223823
1.522793
1.5228269
1.5228446
1.522809
1.5225964
1.5226064
1.5224083
1.5223973
1.522901
1.5229077
1.5229179
1.5229217
1.5228985
1.5228907
1.5228467
1.5228525
1.5224414
1.5226404
1.5226517
1.5224636
1.5229117
1.5229073
1.52286
1.5228632
1.5226582
1.5226654
1.5224774
1.5224682
1.5228789
1.522887
1.5224692
1.522674
1.5226899
1.5224895
1.5215484
1.5215148
1.5220321
1.5221362
1.5215987
1.5215863
1.5222965
1.5223196
1.521073
1.5210706
1.5210787
1.5210748
1.5210734
1.5210742
1.5210691
1.5210674
1.5210717
1.5210705
1.5210575
1.5210571
1.5210723
1.5210719
1.5210515
1.5210481
1.5210724
1.5210696
1.5211442
1.5211392
1.5210767
1.5210749
1.5211277
1.521121
1.5210558
1.521033
1.5212863
1.5212334
1.5212013
1.521072
1.5210781
1.5211915
1.5210684
1.5210681
1.5210156
1.521016
1.5210648
1.521069
1.521014
1.5210129
1.5210462
1.5210563
1.5210089
1.5210075
1.521003
1.5210269
1.5210009
1.5209983
1.5210753
1.5210712
1.5210272
1.5210263
1.5210784
1.5210787
1.5210237
1.5210233
1.521077
1.521077
1.5210197
1.52102
1.5210711
1.5210752
1.5210179
1.5210171
1.5209581
1.5209716
1.520946
1.5209497
1.5209424
1.5209438
1.5209401
1.5209412
1.5209399
1.5209394
1.5209397
1.5209404
1.5209402
1.5209391
1.5209455
1.5209428
1.5209533
1.5209493
1.5209563
1.5209563
1.5209596
1.5209569
1.5209652
1.5209629
1.5209751
1.5209668
1.5209989
1.5209859
1.5210228
1.5210774
1.5211536
1.5212378
1.5221182
1.5215218
1.5220979
1.5215024
1.5221309
1.5215266
1.5221355
1.5215181
1.5218091
1.5212955
1.5219652
1.5214004
1.5220773
1.5214864
1.522061
1.5214836
1.5221762
1.5215636
1.5222071
1.5215931
1.5222209
1.5216069
1.5222012
1.5215787
1.5222149
1.5215809
1.5221925
1.5215604
1.5222548
1.521591
1.5222382
1.5215917
1.5222005
1.5224281
1.5224452
1.5222687
1.522171
1.522292
1.5223922
1.5224478
1.5261054
1.5281701
1.5282794
1.5263355
1.5262537
1.5283053
1.5283502
1.5264027
1.5223291
1.522409
1.5221975
1.5224887
1.5226527
1.5225159
1.5224603
1.5222491
1.5209859
1.5209852
1.5210068
1.521008
1.5209927
1.5210151
1.5209906
1.5210147
1.521012
1.5210824
1.5210089
1.5210856
1.5210035
1.5210749
1.5210021
1.5210804
1.520975
1.5209682
1.5209952
1.5209913
1.5209814
1.5210017
1.5209808
1.5210027
1.5209919
1.5209857
1.5210625
1.5210636
1.5210665
1.5209991
1.5209979
1.5210713
1.520958
1.5209833
1.5209571
1.5209856
1.5209455
1.5209451
1.5209585
1.5209595
1.5209516
1.5209434
1.5209784
1.5209749
1.5209398
1.5209311
1.5209531
1.5209472
1.5209678
1.5209949
1.5209657
1.5209962
1.5209492
1.5209489
1.5209626
1.5209637
1.5209544
1.5209687
1.5209531
1.5209688
1.5209617
1.5209609
1.5209889
1.5209918
1.5211019
1.5210257
1.521002
1.5210939
1.5210872
1.5211166
1.5210154
1.5210524
1.5209691
1.5209608
1.5209417
1.5209528
1.5209714
1.5209947
1.5209615
1.5209891
1.52094
1.5209367
1.5209497
1.5209474
1.5209555
1.5209666
1.5209496
1.5209616
1.5209674
1.5209918
1.5209609
1.5209893
1.5209506
1.5209468
1.5209755
1.5209768
1.5209198
1.5209379
1.520916
1.5209366
1.5209353
1.5209532
1.5209292
1.520949
1.5209293
1.5209238
1.5209116
1.5209049
1.5209133
1.52091
1.5208899
1.5208947
1.5209937
1.5210095
1.5209844
1.5210022
1.5211044
1.5211352
1.5210378
1.5210694
1.5211255
1.5211733
1.5210547
1.5211058
1.5210082
1.5210411
1.5209974
1.5210372
1.5208889
1.5208886
1.5208687
1.5208688
1.5208939
1.5208924
1.5208717
1.5208735
1.5209036
1.5209196
1.5209022
1.520919
1.5208988
1.5209151
1.5208982
1.5209154
1.5209105
1.5208999
1.5209183
1.5209092
1.5209162
1.5209237
1.5209155
1.5209232
1.5209201
1.5209098
1.5209408
1.520935
1.5209261
1.5209448
1.5209251
1.5209465
1.5208866
1.5208866
1.5208672
1.5208669
1.5208912
1.5209072
1.5208814
1.5208987
1.5208965
1.5209116
1.5208961
1.5209117
1.5208831
1.5208759
1.5208641
1.5208593
1.5209343
1.5209539
1.5209327
1.5209548
1.5209196
1.5209273
1.520919
1.5209268
1.5209293
1.5209495
1.5209284
1.5209517
1.5209243
1.5209327
1.5209231
1.5209316
1.5313626
1.5312465
1.5312325
1.5310573
1.5310478
1.5308185
1.5310336
1.531155
1.5210593
1.5210458
1.5211033
1.5210982
1.5211648
1.5212079
1.521088
1.5211322
1.5210381
1.5210634
1.5210272
1.5210556
1.521199
1.5212582
1.5211141
1.5211787
1.5210187
1.5210144
1.5210447
1.5210433
1.5210399
1.5210319
1.5210681
1.521063
1.5210649
1.5210554
1.5211441
1.5211435
1.5210408
1.5211227
1.5210352
1.5211272
1.521249
1.5213011
1.5211569
1.5212142
1.5210985
1.5211349
1.5210845
1.5211247
1.5212928
1.5213949
1.5211929
1.5213078
1.5211301
1.5212227
1.5211131
1.5212188
1.5209742
1.5209713
1.5209913
1.5209907
1.5209919
1.5209855
1.5210067
1.5210108
1.5210094
1.521043
1.5210018
1.5210403
1.5209894
1.5209853
1.521023
1.5210245
1.5208862
1.5208857
1.5208837
1.5208825
1.52088
1.520879
1.5208824
1.520882
1.520882
1.5208857
1.5209253
1.5209176
1.5209184
1.5209082
1.520891
1.5208884
1.5208949
1.520893
1.5208944
1.5209233
1.5209192
1.5209092
1.5209028
1.5209122
1.5209135
1.5209047
1.5209105
1.5209027
1.5208857
1.5208917
1.5208881
1.5208893
1.5208892
1.5208893
1.5208874
1.5208877
1.520881
1.5208845
1.5208821
1.5208836
1.5208843
1.5208834
1.5208828
1.5208837
1.5208774
1.5208806
1.5208783
1.5208798
1.5208806
1.5208795
1.5208791
1.5208804
1.5208793
1.5208792
1.5208772
1.5208767
1.520877
1.5208764
1.5208792
1.5208791
1.520879
1.520879
1.520878
1.520878
1.5208753
1.5208747
1.5208774
1.5208772
1.520881
1.5208813
1.5208808
1.5208778
1.520878
1.5208777
1.5208758
1.5208763
1.5208777
1.5208776
1.5208788
1.5208787
1.520875
1.5208775
1.5208755
1.5208772
1.5208779
1.5208768
1.5208767
1.5208778
1.5208732
1.5208759
1.5208736
1.5208757
1.5208756
1.5208749
1.5208749
1.5208756
1.5208745
1.5208777
1.5208744
1.5208781
1.5208756
1.5208755
1.5208763
1.5208765
1.5208905
1.5208888
1.5208904
1.5208891
1.5208971
1.5208926
1.5208927
1.5208973
1.5208872
1.5208875
1.5208886
1.5208887
1.5208958
1.5208909
1.5208958
1.5208909
1.5208818
1.5208808
1.5208817
1.5208809
1.5208797
1.5208804
1.5208804
1.5208797
1.5208852
1.5208825
1.5208849
1.5208827
1.520884
1.5208842
1.5208863
1.5208866
1.5208775
1.5208781
1.5208783
1.5208777
1.5208785
1.5208773
1.5208774
1.5208783
1.5208828