/*--------------------------------*- C++ -*----------------------------------*\
  =========                 |
  \\      /  F ield         | OpenFOAM: The Open Source CFD Toolbox
   \\    /   O peration     | Website:  https://openfoam.org
    \\  /    A nd           | Version:  7
     \\/     M anipulation  |
\*---------------------------------------------------------------------------*/
FoamFile
{
    version     2.0;
    format      ascii;
    class       volScalarField;
    location    "9000";
    object      nut;
}
// * * * * * * * * * * * * * * * * * * * * * * * * * * * * * * * * * * * * * //

dimensions      [0 2 -1 0 0 0 0];

internalField   nonuniform List<scalar> 
33943
(
1.2689728e-51
3.7284137e-52
7.4847385e-53
4.1669171e-53
4.6049238e-53
3.7535051e-51
1.4743962e-51
1.2463607e-51
4.0599183e-52
3.7825683e-52
7.9734395e-53
7.9384513e-53
1.9167408e-52
1.3862029e-52
1.441771e-52
1.9183181e-52
1.9852408e-53
3.1701171e-53
4.2061167e-53
3.4452942e-53
4.5982284e-53
5.6611004e-53
5.3979676e-53
5.8743732e-53
9.4659827e-53
2.0235765e-52
8.0050683e-53
7.2525057e-53
3.6622323e-51
9.0090582e-53
7.4512407e-53
1.6302749e-51
1.5646473e-51
7.7539375e-53
2.0997163e-53
9.8683498e-53
9.8099544e-53
8.1832836e-52
8.0518841e-52
3.9227528e-52
3.8004915e-52
7.1269903e-53
7.3625076e-53
1.9217698e-52
1.8923754e-52
9.7590072e-53
7.969613e-53
1.9646461e-52
1.8354739e-52
8.9678972e-53
1.0512495e-52
7.0633179e-53
5.3040658e-53
6.8974692e-53
5.1447642e-53
7.6462424e-53
7.2019998e-53
5.400282e-53
4.971268e-53
4.7661553e-53
1.6711945e-53
2.3739397e-53
1.7909104e-53
3.6503262e-53
2.3754922e-53
1.8131166e-53
2.3959093e-53
1.7894954e-53
4.0261453e-53
3.5094489e-53
4.8591686e-53
3.4826692e-53
5.0701552e-53
5.1742041e-53
4.7840815e-53
5.3270169e-53
3.8089744e-53
2.116988e-53
2.8515047e-53
4.4321243e-53
3.9917154e-53
7.3268054e-53
6.0590202e-53
3.659208e-53
3.5165722e-53
3.4178579e-53
3.6816724e-53
8.8905468e-53
5.3009523e-53
6.8041012e-53
1.4840512e-52
1.8359003e-52
1.2053913e-52
1.1828261e-52
1.2891043e-52
1.4827612e-52
1.0225147e-52
1.5416551e-51
1.3697488e-51
2.0923692e-53
2.124997e-53
8.19512e-53
7.8478714e-53
2.0170614e-53
7.6098485e-53
7.5354726e-53
1.9516109e-53
1.1258528e-52
1.0748099e-52
8.1054842e-52
8.5853137e-52
1.0340347e-52
9.9145663e-53
7.8874082e-52
8.7017937e-52
2.9960847e-53
1.9649999e-53
3.9814085e-53
3.8915632e-53
6.1493626e-53
6.3860975e-53
4.0496788e-53
6.2650972e-53
8.4209853e-53
8.2148713e-53
3.3175423e-52
3.2808804e-52
8.4284925e-53
3.4814991e-52
3.083778e-52
2.6537549e-53
1.8260123e-52
2.0517438e-52
7.4143611e-53
6.9041182e-53
1.5822813e-52
5.1881352e-53
1.7349306e-52
5.0818072e-53
6.9662931e-53
7.4196889e-53
5.0887891e-53
5.3133882e-53
7.6483112e-53
7.3534379e-53
5.3955672e-53
5.163563e-53
7.5837727e-53
7.6164754e-53
5.6103235e-53
6.0112712e-53
7.4454265e-53
7.0456866e-53
5.4535472e-53
5.5919907e-53
3.3236421e-53
3.2751973e-53
2.4369915e-53
2.4024851e-53
3.071084e-53
3.3141473e-53
2.3941349e-53
2.5075953e-53
3.6458147e-53
3.6888304e-53
2.7194406e-53
2.8069503e-53
2.5868485e-53
3.4589242e-53
3.3522513e-53
2.4315294e-53
3.6753738e-53
2.7370442e-53
1.254353e-53
1.4729542e-53
4.4243059e-53
4.8646062e-53
5.1910478e-53
3.9306891e-53
1.5966811e-53
1.692829e-53
1.7725014e-53
2.6298357e-53
2.2606377e-53
3.4767488e-53
3.7086968e-53
4.8441024e-53
3.669889e-53
2.5067516e-53
1.7907151e-53
1.6981774e-53
2.2521297e-53
5.6645735e-53
4.8525607e-53
4.3232671e-53
4.1448241e-53
1.4446814e-53
1.5389775e-53
1.5432055e-53
1.4271929e-53
1.293735e-53
1.3006738e-53
1.2301417e-53
1.1834632e-53
1.5873599e-53
1.5873756e-53
1.6741522e-53
1.4880362e-53
1.3001744e-53
1.3620498e-53
3.4278251e-53
2.9017188e-53
2.8964397e-53
3.0220029e-53
2.0007686e-53
1.9839287e-53
1.9871118e-53
2.0450691e-53
3.1952234e-53
3.4291318e-53
3.4447409e-53
2.9866765e-53
2.0558179e-53
2.1038985e-53
2.0935356e-53
2.0038459e-53
3.8946628e-53
3.7097781e-53
3.707955e-53
3.7074549e-53
3.6199634e-53
3.719343e-53
3.543605e-53
3.5922719e-53
3.722924e-53
3.4086039e-53
1.3501711e-53
4.2371762e-53
4.0142958e-53
5.3500516e-53
3.9007643e-53
3.6964368e-53
3.1519626e-53
9.4472515e-53
7.8122512e-53
2.0414613e-52
1.4890571e-52
2.0626165e-53
2.1055512e-53
1.9013587e-53
1.8705035e-53
1.809523e-53
1.9039257e-53
1.8291854e-53
1.8833988e-53
1.3921711e-52
1.133456e-52
7.2176563e-53
2.0482878e-52
3.1883608e-53
3.3627003e-53
5.7202224e-53
5.3454949e-53
2.4572328e-53
2.4646359e-53
5.5802269e-53
2.3086517e-53
2.7077045e-53
8.9030604e-53
8.3210394e-53
1.9983052e-53
1.9298706e-53
7.5050348e-53
7.6412072e-53
1.6463626e-52
1.4095265e-52
8.338692e-52
7.3859138e-52
1.2295279e-52
1.0689674e-52
8.0257164e-52
7.0849585e-52
1.8138269e-53
1.9019722e-53
3.1260813e-53
3.1321044e-53
1.9698301e-53
3.0463108e-53
3.1548195e-53
1.8857618e-53
4.1222005e-53
4.2183141e-53
6.8335737e-53
6.561122e-53
6.4364779e-53
4.1509199e-53
4.2331273e-53
6.7028348e-53
8.5311608e-53
3.3388541e-52
2.9316918e-52
9.2920928e-53
9.4472342e-53
9.0835913e-53
3.1174488e-52
3.0926631e-52
3.9501076e-53
4.1241124e-53
6.2122003e-53
6.5291385e-53
6.3395533e-53
4.1489433e-53
4.2195357e-53
6.5745595e-53
8.8584114e-53
8.190299e-53
3.3940507e-52
2.9764365e-52
9.1554546e-53
8.7731343e-53
3.4094544e-52
3.2947828e-52
4.085901e-53
4.4591436e-53
4.4886794e-53
1.7166028e-53
1.6523218e-53
4.0004138e-53
4.6058145e-53
2.8190258e-53
2.7712651e-53
2.8580435e-53
3.7528733e-53
3.8734606e-53
2.823888e-53
2.7694031e-53
2.814936e-53
3.7954609e-53
3.8223779e-53
2.7814924e-53
7.4384219e-53
7.6436786e-53
2.6053682e-53
2.5927161e-53
2.6511803e-53
7.8214235e-53
2.4939522e-53
7.4682327e-53
3.7793023e-53
3.951049e-53
2.8123181e-53
2.8884462e-53
2.663732e-53
8.0626374e-53
2.6092005e-53
7.9633922e-53
2.6304876e-53
7.9648401e-53
2.1027068e-52
3.5266496e-53
7.2043428e-53
4.0186224e-53
6.5875686e-53
3.7721643e-53
6.9354132e-53
3.683812e-53
6.5732293e-53
3.6226946e-53
7.0630905e-53
6.5193671e-53
4.6129272e-53
4.3229277e-53
7.1879638e-53
4.7562565e-53
7.3191478e-53
4.6691128e-53
3.079658e-53
3.3001527e-53
2.3896015e-53
2.3977801e-53
3.4521703e-53
3.3867888e-53
2.5230678e-53
2.4018595e-53
2.6390981e-53
3.5886727e-53
3.6150249e-53
2.6247973e-53
3.4830213e-53
3.3430064e-53
2.4337771e-53
2.6448295e-53
3.4473572e-53
3.5283253e-53
2.6296121e-53
2.5859154e-53
3.4669082e-53
3.4052559e-53
2.5312241e-53
2.6278466e-53
3.4242663e-53
3.5297242e-53
2.7192766e-53
2.6351299e-53
3.4065788e-53
3.0412116e-53
2.4274264e-53
2.6862571e-53
3.5562519e-53
3.7673054e-53
8.9626157e-54
9.332193e-54
3.855751e-53
3.3478664e-53
8.9157231e-54
9.3640707e-54
8.6004831e-54
3.4390843e-53
3.403483e-53
8.7620123e-54
3.410898e-53
3.9804349e-53
9.0566812e-54
8.9673937e-54
4.1436341e-53
4.0790478e-53
9.8257461e-54
1.0438777e-53
1.0027207e-53
4.4202797e-53
3.6867838e-53
1.0093068e-53
3.770971e-53
3.9126779e-53
9.5141173e-54
9.8201688e-54
3.3527709e-53
3.9043374e-53
9.5881562e-54
9.1498752e-54
1.0640095e-53
4.279159e-53
3.6759971e-53
5.2023664e-53
4.0764476e-53
1.9512333e-53
2.9221101e-53
3.6759168e-53
3.5751252e-53
3.4023684e-53
1.3175297e-53
2.1408656e-53
1.5512758e-53
1.5846455e-53
1.5298874e-53
2.3577669e-53
1.6199737e-53
1.9811654e-53
4.7878766e-53
6.5131335e-53
8.7280943e-53
5.7965394e-53
2.1302685e-53
2.8401624e-53
1.9328611e-53
2.9411556e-53
1.3160601e-53
1.2740028e-53
1.3512233e-53
1.3684517e-53
1.3073433e-53
1.3085951e-53
1.4968216e-53
1.4857443e-53
1.792608e-53
1.8618134e-53
1.7871543e-53
1.7344611e-53
1.6173538e-53
1.6034269e-53
1.5298338e-53
1.5628863e-53
2.1806252e-53
2.2325965e-53
2.2784456e-53
2.1683428e-53
3.5780974e-53
3.0457374e-53
3.0622214e-53
3.6698572e-53
4.2091728e-53
3.2583368e-53
3.6141942e-53
3.8563615e-53
2.3712273e-53
2.2456019e-53
2.3174702e-53
2.3568752e-53
1.7199627e-53
1.7612669e-53
1.6284036e-53
1.6029836e-53
1.4599543e-53
1.4513554e-53
1.3572442e-53
1.3427649e-53
1.4066871e-53
1.311908e-53
1.321717e-53
1.3678863e-53
1.5910715e-53
1.6413749e-53
1.6657144e-53
1.6161985e-53
3.2054353e-53
3.4217726e-53
3.790403e-53
3.9162542e-53
3.2407056e-53
3.3327044e-53
3.5302817e-53
3.8617274e-53
2.2993196e-53
2.260658e-53
2.2539916e-53
2.3491481e-53
2.1794471e-53
2.1799283e-53
2.1287976e-53
2.1851008e-53
1.4230637e-53
1.1649274e-53
1.5099475e-53
1.2281277e-53
1.3405794e-53
1.3937694e-53
1.2315904e-53
1.2764981e-53
1.326411e-53
1.2168385e-53
1.4060156e-53
1.2838563e-53
1.4519275e-53
1.2065062e-53
1.5064265e-53
1.2575936e-53
1.0493505e-53
1.0070835e-53
1.0926629e-53
1.0344314e-53
1.0307554e-53
9.8230151e-54
1.0972739e-53
1.0315859e-53
7.6044112e-54
7.8795171e-54
8.2849593e-54
8.6066637e-54
7.5042452e-54
7.711659e-54
8.4420459e-54
8.0844308e-54
1.6408031e-53
1.6252321e-53
1.3366389e-53
1.3209735e-53
1.3765363e-53
1.2602576e-53
1.2807851e-53
1.5335997e-53
1.3990325e-53
1.5191001e-53
1.3810403e-53
1.4951301e-53
1.5022117e-53
1.2452914e-53
1.2549745e-53
1.0768942e-53
1.0257472e-53
1.2061639e-53
1.1347256e-53
1.2153716e-53
1.1179705e-53
1.7359812e-53
1.7666848e-53
1.3740996e-53
1.4385561e-53
1.4862724e-53
1.4060018e-53
1.2926102e-53
1.3887105e-53
1.4359621e-53
1.5075278e-53
1.3360868e-53
1.4239223e-53
1.6865947e-53
1.6272199e-53
1.2851401e-53
1.3941522e-53
1.4300029e-53
1.2370362e-53
1.5028823e-53
1.3033952e-53
1.4213811e-53
1.3414599e-53
1.073465e-53
1.1385378e-53
1.3980668e-53
1.1980326e-53
1.4804181e-53
1.2719222e-53
1.4004056e-53
1.4648657e-53
1.1367073e-53
1.1952843e-53
1.6188015e-53
1.6111779e-53
1.4859319e-53
1.5154109e-53
1.8661946e-53
1.8495891e-53
1.4518305e-53
1.5194632e-53
1.7662147e-53
1.7337271e-53
1.3958347e-53
1.407105e-53
1.4921473e-53
1.514811e-53
1.3725217e-53
1.4035538e-53
1.4531946e-53
1.4813567e-53
1.1714744e-53
1.1917836e-53
1.6059606e-53
1.3715946e-53
1.5947008e-53
1.3689145e-53
1.5397866e-53
1.5314835e-53
1.2352613e-53
1.2366018e-53
1.4860059e-53
1.2839723e-53
1.5202406e-53
1.3162371e-53
1.9541053e-53
1.9586727e-53
1.9667351e-53
2.0073346e-53
1.9884366e-53
1.8552854e-53
1.982713e-53
2.0652334e-53
1.9062011e-53
1.8669083e-53
3.3445067e-53
3.1230612e-53
1.7828162e-53
1.8315625e-53
1.9727576e-53
1.898025e-53
1.9970157e-53
2.0048405e-53
3.3768261e-53
3.3451707e-53
3.0932519e-53
6.5933875e-53
8.7801196e-53
2.1607976e-52
6.899669e-53
3.1280719e-53
2.891761e-53
2.6833895e-53
2.6373864e-53
2.7637671e-53
4.3815827e-53
5.1112572e-53
2.9013401e-53
1.0513919e-53
1.1009252e-53
1.0484427e-53
1.0270327e-53
1.064251e-53
9.7870598e-54
9.9807082e-54
9.310014e-54
9.3762046e-54
9.2709178e-54
9.4297168e-54
9.3827407e-54
9.2617463e-54
9.8267104e-54
9.7647726e-54
9.3335489e-54
2.4139605e-53
1.6025002e-53
1.7725378e-53
2.6703495e-53
3.7704201e-53
3.9098176e-53
6.6923606e-53
6.3170568e-53
2.6037506e-53
2.4810291e-53
4.953076e-53
5.2416407e-53
2.1583546e-53
1.8830977e-53
1.0189434e-52
1.609048e-53
1.7544804e-53
3.3201878e-53
3.2233837e-53
1.8379366e-53
1.7739158e-53
3.2733562e-53
3.243317e-53
1.5249332e-52
4.6062054e-53
7.6281584e-53
8.1929559e-53
5.0206638e-53
4.612552e-53
4.7970839e-53
7.1377975e-53
7.4851288e-53
1.0564049e-52
6.7824353e-52
2.5350494e-52
1.1705041e-52
2.501149e-52
9.4599038e-53
1.0701985e-52
2.7239367e-52
2.4128962e-52
4.3340927e-53
4.6415962e-53
7.2828434e-53
7.108953e-53
4.3274378e-53
4.3879703e-53
6.8425661e-53
6.6100819e-53
1.0809893e-52
2.9073692e-52
9.8931914e-53
2.8628269e-52
9.7220386e-53
8.7072052e-53
2.6134761e-52
2.9772578e-52
1.7250423e-53
1.7382461e-53
3.9694999e-53
4.6156846e-53
4.5172621e-53
4.0754386e-53
4.6430202e-53
4.5609782e-53
1.6807248e-53
3.8101181e-53
4.4922663e-53
4.5860085e-53
4.182245e-53
4.7204146e-53
4.7300247e-53
1.6938895e-53
2.8901611e-53
2.9776835e-53
2.9379234e-53
2.8721187e-53
4.0012974e-53
3.9355519e-53
2.841343e-53
2.9678342e-53
2.9712768e-53
2.9225178e-53
7.5335941e-53
7.6443844e-53
2.9057454e-53
7.4697463e-53
2.6430425e-53
7.1547809e-53
4.0649649e-53
3.958312e-53
3.0896388e-53
3.0829944e-53
4.0009296e-53
4.0776601e-53
3.0725414e-53
3.0834058e-53
4.0717517e-53
3.9876274e-53
3.0483082e-53
2.931963e-53
2.9401692e-53
2.9444012e-53
6.8917718e-53
7.187657e-53
3.0135395e-53
2.7616017e-53
7.3123451e-53
7.0925181e-53
2.8533811e-53
2.7939673e-53
2.9201428e-53
2.8598078e-53
2.9221475e-53
3.8540421e-53
3.9797062e-53
2.9357652e-53
2.8501485e-53
3.8403163e-53
3.8945864e-53
2.7638893e-53
2.7822584e-53
2.7259807e-53
7.767727e-53
7.718489e-53
2.4917591e-53
7.6878437e-53
7.0254535e-53
2.7433673e-53
3.8208294e-53
2.9356937e-53
2.9788056e-53
3.9537222e-53
3.8686328e-53
3.8037281e-53
2.9126433e-53
2.8174232e-53
2.8089571e-53
2.7661909e-53
7.5668393e-53
7.7165364e-53
2.8453717e-53
2.604387e-53
7.7031189e-53
7.4390749e-53
1.8372583e-53
1.8382109e-53
3.575959e-53
2.2749859e-53
2.2276888e-53
1.9077818e-53
3.7579412e-53
2.3723943e-53
2.9741968e-53
2.8763616e-53
3.0184541e-53
3.1003197e-53
2.4397129e-53
2.4361875e-53
2.8874526e-53
2.8742518e-53
3.0701882e-53
2.9272166e-53
2.4478528e-53
2.4080593e-53
3.0226397e-53
2.9042454e-53
3.0803909e-53
3.0500553e-53
2.4260508e-53
2.4622445e-53
3.2533746e-53
1.5546621e-53
3.334874e-53
1.5512245e-53
3.3004839e-53
3.2426627e-53
1.574931e-53
1.5930263e-53
3.2421724e-53
3.3911402e-53
1.6360801e-53
1.5996304e-53
1.5523745e-53
3.2191364e-53
3.2171222e-53
1.5354546e-53
9.4772283e-54
8.9871106e-54
9.1259627e-54
1.0042982e-53
1.0326662e-53
9.1693161e-54
8.6103176e-54
9.9661177e-54
7.9036001e-54
7.771091e-54
1.5913113e-53
1.6116979e-53
7.9988499e-54
8.0341145e-54
1.5303534e-53
1.663124e-53
7.9577072e-54
8.0509224e-54
1.7599879e-53
1.6462985e-53
1.0115043e-53
8.9384896e-54
8.9234973e-54
1.0192333e-53
1.5935229e-53
8.0997292e-54
8.0123541e-54
1.4277379e-53
8.679788e-54
8.3141763e-54
9.8742536e-54
1.0161965e-53
3.343003e-53
3.24946e-53
1.586666e-53
1.6239658e-53
3.3426167e-53
3.2642878e-53
1.5662042e-53
1.5611946e-53
7.9086065e-54
7.806658e-54
1.8772512e-53
1.7166617e-53
1.0154864e-53
8.9805214e-54
9.2253898e-54
1.0505999e-53
8.0573249e-54
8.1366523e-54
1.7656455e-53
1.6475852e-53
8.4760412e-54
8.9187532e-54
1.0534881e-53
1.004377e-53
8.1840875e-54
8.1323399e-54
1.6917043e-53
1.5542862e-53
9.9452493e-54
8.7133862e-54
8.8341177e-54
1.0100386e-53
6.5350779e-53
7.3137395e-53
3.3288898e-53
3.0885508e-53
2.4568686e-53
3.4929902e-53
3.3912183e-53
2.3186642e-53
3.2371163e-53
3.0071771e-53
2.1038333e-53
2.3555137e-53
3.2873606e-53
3.1717266e-53
2.1260869e-53
1.9686169e-53
2.8628642e-53
3.0141709e-53
1.9186499e-53
1.8369672e-53
3.3817418e-53
3.3944596e-53
2.5529067e-53
2.5184375e-53
3.2006081e-53
2.9271097e-53
2.4955144e-53
2.176549e-53
3.3119044e-53
3.4275322e-53
2.4645884e-53
2.4301678e-53
3.5066473e-53
2.5124495e-53
3.3446438e-53
2.3563156e-53
3.0249037e-53
2.9057014e-53
8.5749064e-54
8.7643831e-54
3.1996608e-53
3.367692e-53
8.916778e-54
8.7076484e-54
3.4603053e-53
3.4388333e-53
9.3276501e-54
9.6563477e-54
3.2628386e-53
3.5354386e-53
9.3238719e-54
8.9891299e-54
3.5946682e-53
3.6005396e-53
9.7380573e-54
9.8913351e-54
3.6043913e-53
3.8588961e-53
9.7653165e-54
9.5067869e-54
3.5473011e-53
3.6805134e-53
9.4832891e-54
9.8062837e-54
3.3273042e-53
3.7430022e-53
9.4217439e-54
8.8765191e-54
3.5390642e-53
3.5962803e-53
9.3196318e-54
9.7073937e-54
3.5895645e-53
3.8728763e-53
9.5224864e-54
9.2150191e-54
3.6622519e-53
3.7887796e-53
9.5016276e-54
9.7946823e-54
3.5145543e-53
3.9377836e-53
9.4696309e-54
9.1819674e-54
3.7012931e-53
3.7873722e-53
9.416628e-54
9.7866865e-54
3.7040705e-53
4.1269762e-53
9.7109613e-54
9.6154195e-54
3.9894672e-53
9.6110333e-54
3.6734544e-53
9.7583081e-54
3.6796375e-53
3.0359919e-53
9.1379289e-54
8.3883155e-54
1.378436e-53
1.3651628e-53
1.3910822e-53
1.3488962e-53
1.2237472e-53
1.2783191e-53
1.3466228e-53
1.3826969e-53
1.470056e-53
1.5099404e-53
1.5300992e-53
1.4645459e-53
1.42957e-53
1.4302045e-53
1.3453086e-53
1.427376e-53
1.2921677e-53
1.5055008e-53
4.2607949e-53
3.6744553e-53
6.5852465e-53
5.6660297e-53
2.2052923e-53
1.5999578e-53
3.0113811e-53
3.1581009e-53
3.4855404e-53
3.3303616e-53
2.8874528e-53
3.2538064e-53
3.2809519e-53
3.6565821e-53
2.2771363e-53
2.2810267e-53
2.2219644e-53
2.1908686e-53
2.3926173e-53
2.3796324e-53
2.3819593e-53
2.3978444e-53
1.2499884e-53
1.47995e-53
1.4210218e-53
1.6412055e-53
1.8555835e-53
1.9724752e-53
1.9518113e-53
1.8277221e-53
1.6194918e-53
1.5642296e-53
1.3587698e-53
1.3631356e-53
1.8231066e-53
1.7477763e-53
1.7133131e-53
1.8496235e-53
1.4126233e-53
1.3780644e-53
1.5268809e-53
1.5495536e-53
1.8098174e-53
1.8699237e-53
1.7100442e-53
1.8012913e-53
1.3606014e-53
1.5493502e-53
1.4732473e-53
1.3526064e-53
1.7575023e-53
1.7619047e-53
1.7586889e-53
1.793942e-53
5.1828983e-53
4.085674e-53
8.86965e-53
5.1878605e-53
2.2735983e-53
2.4827735e-53
3.3289438e-53
2.9852482e-53
2.0643261e-53
2.1667961e-53
2.2467945e-53
2.0380011e-53
2.7808034e-53
3.2561639e-53
3.3492033e-53
2.6826327e-53
2.6429722e-53
2.5091813e-53
2.7711617e-53
2.4188776e-53
2.2393051e-53
2.3697178e-53
2.3445835e-53
2.2649515e-53
8.5588163e-54
8.4107027e-54
9.4046009e-54
9.5724968e-54
8.2290881e-54
8.4652409e-54
9.3122921e-54
9.1740236e-54
1.0751121e-53
1.032451e-53
1.1251327e-53
1.057854e-53
1.1465042e-53
1.1097786e-53
1.141265e-53
1.0817405e-53
9.1356455e-54
9.0300227e-54
1.0013416e-53
1.0214254e-53
8.4360229e-54
8.5132684e-54
9.3922168e-54
9.2491118e-54
1.1919046e-53
1.1522059e-53
1.2276538e-53
1.1450479e-53
1.1587777e-53
1.1161964e-53
1.1825987e-53
1.1303534e-53
1.6704339e-53
1.3820308e-53
1.6745932e-53
1.3737185e-53
1.5410034e-53
1.5544608e-53
1.4303512e-53
1.4333798e-53
1.4657762e-53
1.4966073e-53
1.3557357e-53
1.3823772e-53
1.6145768e-53
1.6328047e-53
1.3575735e-53
1.380269e-53
1.475076e-53
1.3650951e-53
1.3565063e-53
1.4671975e-53
1.3956356e-53
1.2934658e-53
1.4550509e-53
1.335818e-53
1.4923621e-53
1.2424219e-53
1.2859214e-53
1.5508007e-53
1.6190227e-53
1.3597298e-53
1.5996749e-53
1.346032e-53
1.4758657e-53
1.2840239e-53
1.5452583e-53
1.3357325e-53
1.5716118e-53
1.3686771e-53
1.5824961e-53
1.379799e-53
1.5377322e-53
1.2582131e-53
1.5270267e-53
1.256268e-53
1.3928261e-53
1.1282487e-53
1.4418005e-53
1.1670051e-53
1.7692974e-53
1.4403918e-53
1.768063e-53
1.5063179e-53
1.566447e-53
1.4909874e-53
1.5642319e-53
1.5193648e-53
1.4445658e-53
1.3623774e-53
1.5011813e-53
1.4434693e-53
1.9382676e-53
1.5924779e-53
1.8245375e-53
1.6078591e-53
2.0005216e-53
1.5657342e-53
1.9313835e-53
1.5924681e-53
1.5909607e-53
1.5879958e-53
1.498421e-53
1.5220859e-53
1.6754507e-53
1.5548518e-53
1.6635932e-53
1.5677741e-53
1.9549386e-53
1.5937365e-53
1.8445809e-53
1.5988092e-53
1.586399e-53
1.2844204e-53
1.5779217e-53
1.2727864e-53
1.5779041e-53
1.3672161e-53
1.6104024e-53
1.3965196e-53
1.649295e-53
1.4288565e-53
1.6573191e-53
1.4294372e-53
1.5401851e-53
1.5453716e-53
1.2551378e-53
1.2672933e-53
1.4983821e-53
1.40381e-53
1.3589237e-53
1.2843771e-53
1.5226706e-53
1.3820841e-53
1.5513343e-53
1.4036686e-53
1.6038539e-53
1.3140955e-53
1.6330239e-53
1.3442546e-53
1.6177928e-53
1.3384257e-53
1.5199958e-53
1.2762409e-53
1.1850826e-53
1.1230207e-53
1.1000522e-53
1.0438105e-53
1.203294e-53
1.1235769e-53
1.2359739e-53
1.1388314e-53
9.0223267e-54
9.0988733e-54
1.0000246e-53
1.0268609e-53
8.6020064e-54
7.8199238e-54
8.7200251e-54
9.6093061e-54
1.1803294e-53
1.0980583e-53
1.2036336e-53
1.1084098e-53
8.3969544e-54
8.5769502e-54
9.6314843e-54
9.3219283e-54
8.8818332e-54
8.8679616e-54
9.7827738e-54
9.9108635e-54
1.125862e-53
1.0887703e-53
1.1638206e-53
1.1146803e-53
1.6104419e-53
1.3304811e-53
1.6328689e-53
1.3448741e-53
1.4505593e-53
1.3418626e-53
1.4909792e-53
1.3788873e-53
1.4953288e-53
1.370943e-53
1.5101435e-53
1.3840376e-53
1.5940535e-53
1.3356412e-53
1.630753e-53
1.3744737e-53
1.5679361e-53
1.4815951e-53
1.4561351e-53
1.4187146e-53
1.6077002e-53
1.6429594e-53
1.4768771e-53
1.5441814e-53
1.8541096e-53
1.4551836e-53
1.8748115e-53
1.5521811e-53
1.8942015e-53
1.5315938e-53
1.7384135e-53
1.4928318e-53
1.5776272e-53
1.6079069e-53
1.4854199e-53
1.5481552e-53
1.6213235e-53
1.503861e-53
1.6335496e-53
1.5528261e-53
1.8941315e-53
1.4929185e-53
1.8644769e-53
1.5570361e-53
1.9067023e-53
1.8716836e-53
1.5405725e-53
1.593242e-53
1.5233762e-53
1.23092e-53
1.5482405e-53
1.2538541e-53
1.5996559e-53
1.6202314e-53
1.377588e-53
1.4057641e-53
1.5531886e-53
1.6012658e-53
1.3486455e-53
1.3969403e-53
1.5234701e-53
1.5552275e-53
1.247699e-53
1.2876049e-53
1.5251812e-53
1.5654755e-53
1.2203025e-53
1.2597388e-53
1.6077548e-53
1.6454159e-53
1.3726269e-53
1.4154771e-53
1.5119489e-53
1.5898526e-53
1.3588103e-53
1.309287e-53
1.5397345e-53
1.4579873e-53
1.2358003e-53
1.1890203e-53
8.1265455e-54
8.8915798e-54
7.8934942e-54
9.2228971e-54
7.922946e-54
6.4792443e-54
6.5556092e-54
8.1887298e-54
9.2713223e-54
8.1722934e-54
9.4433481e-54
8.2917617e-54
8.3908634e-54
6.8610405e-54
8.2285575e-54
6.6950558e-54
1.2470711e-53
1.0576472e-53
1.0679447e-53
1.2518963e-53
1.2646242e-53
1.2588234e-53
1.0742452e-53
1.0724872e-53
8.2587702e-54
1.0323383e-53
8.229731e-54
1.0504989e-53
1.0654952e-53
8.4897896e-54
1.0655051e-53
8.5263546e-54
1.0591822e-53
1.1973103e-53
1.0215214e-53
1.2504565e-53
1.0051246e-53
8.0417278e-54
8.180376e-54
1.0456023e-53
1.080652e-53
1.2772056e-53
1.0837845e-53
1.2688967e-53
1.0805103e-53
8.6438717e-54
1.0668444e-53
8.4022212e-54
9.0992318e-54
8.0332824e-54
8.1431135e-54
9.2949664e-54
6.6493651e-54
8.232984e-54
8.130056e-54
6.6680712e-54
9.3225326e-54
9.3670113e-54
8.2486118e-54
8.2597558e-54
6.9082394e-54
8.4178913e-54
6.8871718e-54
8.4100019e-54
1.8667552e-53
1.865503e-53
1.5324481e-53
1.5106975e-53
1.4877335e-53
1.1463958e-53
1.1372051e-53
1.4975615e-53
1.8549522e-53
1.8534563e-53
1.5070974e-53
1.5200717e-53
1.5259184e-53
1.5200395e-53
1.1751774e-53
1.1626693e-53
1.4853358e-53
1.7933651e-53
1.469638e-53
1.8266385e-53
1.4431881e-53
1.1072093e-53
1.1196375e-53
1.4670308e-53
1.5504003e-53
1.9052043e-53
1.5530995e-53
1.9065617e-53
1.5569353e-53
1.195707e-53
1.5757488e-53
1.1753827e-53
2.8037551e-53
2.8237722e-53
1.9966825e-53
1.9707493e-53
2.1916264e-53
2.1269628e-53
3.0466627e-53
3.0341108e-53
1.7957729e-53
1.9419168e-53
2.9251293e-53
2.910995e-53
2.0819391e-53
2.0317449e-53
2.1170276e-53
2.0476123e-53
2.9329301e-53
2.9332854e-53
1.8796922e-53
1.8638165e-53
1.1025768e-53
9.8026653e-54
9.8702929e-54
1.1149144e-53
1.0481302e-53
1.0728394e-53
9.4766295e-54
9.2871233e-54
7.9840609e-54
9.8874721e-54
8.0690551e-54
9.9702042e-54
9.3471838e-54
7.6127548e-54
9.596806e-54
7.8564478e-54
1.3183265e-53
1.1216077e-53
1.1325653e-53
1.3175053e-53
8.7532198e-54
1.0963411e-53
8.7376863e-54
1.1135106e-53
1.0777049e-53
8.5002395e-54
1.0868099e-53
8.661873e-54
1.2719646e-53
1.4565101e-53
1.2509717e-53
1.4897535e-53
1.2394379e-53
9.9277244e-54
9.8700774e-54
1.2577001e-53
1.211974e-53
1.4222387e-53
1.2164596e-53
1.4116828e-53
1.2142696e-53
9.7459828e-54
1.1960826e-53
9.4332586e-54
9.6965611e-54
8.5790141e-54
8.6718477e-54
9.8714516e-54
9.500973e-54
8.3693374e-54
9.3784981e-54
8.2331834e-54
7.1150869e-54
8.697799e-54
7.1043815e-54
8.7805229e-54
8.4745666e-54
8.6532725e-54
7.0837767e-54
6.9107281e-54
1.9255301e-53
1.918338e-53
1.586763e-53
1.5631781e-53
1.5481358e-53
1.2001312e-53
1.1885374e-53
1.5624904e-53
1.7534813e-53
2.1143599e-53
1.7553792e-53
2.123239e-53
1.7334727e-53
1.339529e-53
1.3297586e-53
1.7307326e-53
1.7017917e-53
2.0461061e-53
1.7062653e-53
2.0348606e-53
1.7055165e-53
1.318548e-53
1.7265132e-53
1.2954371e-53
5.8005426e-54
5.3887361e-54
5.5155847e-54
5.4426694e-54
5.5506623e-54
5.6534301e-54
5.8550958e-54
5.6311621e-54
6.3528387e-54
5.437736e-54
6.4556247e-54
5.4743856e-54
5.6989283e-54
5.6521623e-54
6.4646646e-54
6.5359335e-54
4.5475851e-54
4.7427189e-54
4.478325e-54
4.7410746e-54
4.6294708e-54
4.519162e-54
4.3199096e-54
4.4275574e-54
4.5428879e-54
4.4892916e-54
4.1218222e-54
4.1629369e-54
4.3050395e-54
4.3802543e-54
4.6901179e-54
4.8523028e-54
4.5585531e-54
4.6764431e-54
4.4127759e-54
4.7617358e-54
4.8057407e-54
4.5458984e-54
4.7185512e-54
4.9160417e-54
4.620762e-54
4.2353664e-54
4.7198773e-54
4.2746412e-54
4.3878838e-54
4.4828829e-54
4.7640588e-54
4.9823753e-54
5.6814279e-54
5.415862e-54
5.518595e-54
5.4986908e-54
5.3163266e-54
5.2621595e-54
5.4620185e-54
5.5859083e-54
5.4934612e-54
6.3365031e-54
6.3875019e-54
5.5553054e-54
5.6181795e-54
5.6283137e-54
6.4591872e-54
6.3173587e-54
6.4323019e-54
7.1154596e-54
6.3853167e-54
7.1804218e-54
6.3900908e-54
5.2652356e-54
5.2913953e-54
6.4307181e-54
6.5589852e-54
7.2895132e-54
6.5344151e-54
7.3181294e-54
6.5875203e-54
5.4341168e-54
5.4263366e-54
6.5901465e-54
5.7766955e-54
5.2370211e-54
5.8979087e-54
5.3203759e-54
5.7331181e-54
5.614586e-54
5.1029514e-54
5.2091757e-54
5.1184371e-54
5.0393884e-54
4.1839983e-54
4.2525286e-54
4.4153891e-54
4.3768634e-54
5.3000316e-54
5.198692e-54
7.1074612e-54
6.9322959e-54
6.2323824e-54
6.320861e-54
6.2991962e-54
6.2136546e-54
5.1204653e-54
5.1715251e-54
6.3753892e-54
7.2664328e-54
6.4907433e-54
7.1228274e-54
5.4177999e-54
6.5656821e-54
6.4187858e-54
5.2856853e-54
5.3152275e-54
5.8038756e-54
5.259804e-54
5.8637453e-54
5.9001339e-54
5.3446628e-54
5.352922e-54
5.9050812e-54
5.2316361e-54
4.3346258e-54
5.2901772e-54
4.3791048e-54
4.4904398e-54
4.5272059e-54
5.36419e-54
5.3839829e-54
5.5256786e-54
5.1662401e-54
5.3502916e-54
5.5713965e-54
5.3886064e-54
5.0504244e-54
5.1539713e-54
5.3678716e-54
5.3254063e-54
4.8549029e-54
4.9323688e-54
5.5472894e-54
5.2870096e-54
4.8406925e-54
4.8844225e-54
5.4188514e-54
6.0795622e-54
6.1904166e-54
6.3712434e-54
6.2165062e-54
5.9916042e-54
6.1155642e-54
6.2307849e-54
6.0734819e-54
7.1574568e-54
6.141225e-54
6.2367425e-54
7.1867726e-54
7.0830733e-54
6.1330635e-54
6.101551e-54
6.9056503e-54
5.6844158e-54
5.7943033e-54
6.147874e-54
5.9020561e-54
5.6209826e-54
5.6973136e-54
5.8016029e-54
5.8067242e-54
6.5572052e-54
5.6283445e-54
5.8102284e-54
6.976236e-54
6.371779e-54
6.6560782e-54
5.8315628e-54
5.672039e-54
4.987581e-54
4.6892876e-54
4.88052e-54
5.1465035e-54
4.9321923e-54
4.9683644e-54
4.716847e-54
4.7074555e-54
4.8589909e-54
4.4319819e-54
4.5548978e-54
5.1151189e-54
4.8683942e-54
4.9297254e-54
4.4945064e-54
4.4539424e-54
6.2339522e-54
5.655316e-54
5.709219e-54
6.2502747e-54
5.974688e-54
6.1500496e-54
5.5552141e-54
5.4192871e-54
5.6082586e-54
4.6174205e-54
4.6296795e-54
5.6294944e-54
5.3765497e-54
5.5203143e-54
4.614214e-54
4.526246e-54
8.6708837e-54
8.6702233e-54
7.7936053e-54
7.7247852e-54
7.7930434e-54
7.7126166e-54
6.4050921e-54
6.3296254e-54
8.3666181e-54
7.4999022e-54
7.2999145e-54
8.1343393e-54
6.2531205e-54
6.053143e-54
7.5731293e-54
7.334229e-54
7.0545944e-54
6.4044545e-54
6.3943786e-54
7.0200196e-54
6.828179e-54
6.1940196e-54
6.0208135e-54
6.6330846e-54
6.3605075e-54
5.2056487e-54
5.1984764e-54
6.3210139e-54
6.1991403e-54
5.1059504e-54
4.994053e-54
6.0124626e-54
7.608624e-54
6.8358871e-54
7.6735291e-54
6.835001e-54
6.8450369e-54
6.8494531e-54
5.6408598e-54
5.6203657e-54
7.3787211e-54
6.6022972e-54
7.5357724e-54
6.7548354e-54
5.6160152e-54
6.8078481e-54
6.6207806e-54
5.4483363e-54
9.859236e-54
1.0364562e-53
9.8065328e-54
9.3776023e-54
9.9459591e-54
9.9840156e-54
9.730826e-54
9.4255837e-54
1.0257232e-53
1.0389981e-53
9.6569541e-54
8.7214845e-54
1.0110135e-53
1.0176168e-53
1.0012232e-53
9.8871417e-54
1.0127642e-53
9.5328339e-54
9.5703912e-54
9.0095636e-54
1.9050525e-53
1.8867697e-53
1.8217638e-53
1.6615504e-53
8.8662907e-54
8.9924368e-54
8.9435921e-54
8.9374593e-54
9.8141918e-54
1.0421231e-53
9.1304036e-54
9.8043625e-54
1.0191101e-53
1.015602e-53
9.7692898e-54
9.6624817e-54
1.8623226e-53
1.8638298e-53
1.874769e-53
1.7950914e-53
2.2856688e-53
2.3514626e-53
1.8889013e-53
1.6033397e-53
2.282724e-53
2.3051332e-53
1.8328115e-53
1.7747774e-53
1.7668808e-53
1.6227729e-53
1.6194165e-53
1.5345688e-53
1.4423758e-53
1.4197312e-53
3.0428309e-53
4.713697e-53
5.7590116e-53
3.3985393e-53
2.8365483e-53
1.8714732e-53
2.0782462e-53
3.0644482e-53
4.6482536e-53
4.0591207e-53
3.9422719e-53
1.9489743e-53
2.0164711e-53
4.3563867e-53
1.973512e-53
1.8509865e-53
3.3680517e-53
1.5065815e-53
1.6551405e-53
3.9255361e-53
4.633424e-53
4.8195259e-53
3.7138025e-53
4.8796704e-53
4.4713635e-53
1.7813715e-53
1.6338469e-53
4.0386687e-53
4.7494596e-53
4.7835004e-53
3.896015e-53
4.4961171e-53
4.8229802e-53
4.6492405e-53
5.4466788e-53
9.0100376e-53
8.4636749e-53
3.5080007e-53
3.2898297e-53
3.3222122e-53
3.1092649e-53
4.6104346e-53
4.5734146e-53
3.6770076e-53
3.39116e-53
1.1171349e-52
9.8620968e-53
2.4637634e-52
2.1271084e-52
3.1258093e-53
5.7021183e-53
3.122885e-53
6.0620906e-53
4.7413149e-53
4.4522863e-53
4.008026e-53
3.8302759e-53
3.1902338e-53
2.90141e-53
6.2051428e-53
6.0468514e-53
4.3691097e-53
4.3219274e-53
3.1601312e-53
3.4311023e-53
4.5930616e-53
4.337695e-53
3.7765379e-53
3.6586321e-53
3.2429956e-53
3.1547321e-53
6.3555072e-53
6.5113794e-53
3.2071019e-53
2.8686247e-53
6.4787498e-53
6.1196869e-53
3.01799e-53
3.1041683e-53
2.9396881e-53
3.0563326e-53
3.4271041e-53
4.2502971e-53
4.0974945e-53
3.3502597e-53
3.0387761e-53
3.1137901e-53
6.4731271e-53
6.7205025e-53
4.1932332e-53
4.1414141e-53
3.2399851e-53
3.0549272e-53
2.874953e-53
3.1687308e-53
6.8780915e-53
6.6647683e-53
4.0565564e-53
4.1992258e-53
3.2151116e-53
3.2649681e-53
4.0980695e-53
4.0039195e-53
2.91535e-53
3.0718528e-53
3.0295427e-53
2.7656975e-53
6.8819522e-53
6.5015159e-53
3.1182891e-53
6.8228728e-53
3.0119705e-53
6.9865842e-53
1.879158e-53
1.9165637e-53
3.5673344e-53
2.3405449e-53
2.3285964e-53
1.8917875e-53
1.9172649e-53
3.5233179e-53
2.3400124e-53
2.3391272e-53
1.8814639e-53
1.8682439e-53
3.30259e-53
2.3203367e-53
2.2716926e-53
1.9287129e-53
1.9373025e-53
3.585961e-53
2.4212674e-53
2.3575962e-53
2.911199e-53
2.9511755e-53
3.2954757e-53
3.0785863e-53
2.5701902e-53
2.4723998e-53
3.0875237e-53
2.9937428e-53
3.2918789e-53
3.1547182e-53
2.5485518e-53
2.5123002e-53
3.0762835e-53
2.958394e-53
3.1274456e-53
3.2480276e-53
2.5162502e-53
2.4976927e-53
2.9514591e-53
2.9710132e-53
3.0828717e-53
3.2587327e-53
2.5103795e-53
2.4180442e-53
3.1715821e-53
1.546159e-53
3.2115484e-53
1.5443146e-53
1.6656578e-53
3.273652e-53
3.449558e-53
1.6848252e-53
1.4462251e-53
9.4928467e-54
9.633674e-54
1.2839992e-53
1.489008e-53
9.601273e-54
9.433028e-54
1.2088952e-53
1.0728727e-53
9.3576133e-54
9.4991595e-54
1.0943072e-53
1.0948491e-53
9.3731926e-54
9.0377941e-54
1.0572037e-53
9.2157553e-54
9.2852859e-54
1.376279e-53
1.6076858e-53
1.0536891e-53
9.2953388e-54
9.3561406e-54
1.0516581e-53
1.5714266e-53
8.9314618e-54
8.8086096e-54
1.2329601e-53
1.0372241e-53
9.1432246e-54
8.7437227e-54
1.0019225e-53
1.6793576e-53
3.2810037e-53