/*--------------------------------*- C++ -*----------------------------------*\
  =========                 |
  \\      /  F ield         | OpenFOAM: The Open Source CFD Toolbox
   \\    /   O peration     | Website:  https://openfoam.org
    \\  /    A nd           | Version:  7
     \\/     M anipulation  |
\*---------------------------------------------------------------------------*/
FoamFile
{
    version     2.0;
    format      ascii;
    class       volScalarField;
    location    "9000";
    object      p;
}
// * * * * * * * * * * * * * * * * * * * * * * * * * * * * * * * * * * * * * //

dimensions      [0 2 -2 0 0 0 0];

internalField   nonuniform List<scalar> 
33943
(
-5.5470922e+106
-5.4016656e+106
-5.3200075e+106
-5.139157e+106
-5.5186941e+106
-5.5858505e+106
-5.4325233e+106
-5.5926216e+106
-5.4342224e+106
-5.4161615e+106
-5.3531132e+106
-5.3346609e+106
-5.3327768e+106
-5.2691388e+106
-5.2614422e+106
-5.3246386e+106
-4.7888515e+106
-4.9646088e+106
-5.1547594e+106
-5.1714916e+106
-5.2273347e+106
-5.1515692e+106
-5.1596747e+106
-5.5891453e+106
-5.4440182e+106
-5.5867507e+106
-5.5482933e+106
-5.4095509e+106
-5.6294096e+106
-5.4538748e+106
-5.4377541e+106
-5.4644178e+106
-5.4467292e+106
-5.3452095e+106
-5.3148555e+106
-5.3633328e+106
-5.3557334e+106
-5.360065e+106
-5.3520641e+106
-5.4843193e+106
-5.4558837e+106
-5.4053423e+106
-5.3759997e+106
-5.3672325e+106
-5.3585855e+106
-5.2954621e+106
-5.3040976e+106
-5.3499294e+106
-5.3406502e+106
-5.2864925e+106
-5.277194e+106
-5.2893873e+106
-5.2435607e+106
-5.293683e+106
-5.2476344e+106
-5.2855559e+106
-5.2811782e+106
-5.2396712e+106
-5.2354269e+106
-4.8747658e+106
-4.8050028e+106
-4.9891244e+106
-4.7971636e+106
-4.9766874e+106
-4.8753597e+106
-4.7951869e+106
-4.8703916e+106
-4.7910002e+106
-5.0580469e+106
-4.9562105e+106
-5.0505891e+106
-4.9499883e+106
-5.1763799e+106
-5.1679491e+106
-5.1927129e+106
-5.1848648e+106
-5.1941333e+106
-5.2932025e+106
-5.2192398e+106
-5.1211255e+106
-5.0981701e+106
-5.2608911e+106
-5.2904711e+106
-5.1714959e+106
-5.1680827e+106
-5.1798216e+106
-5.175382e+106
-5.4900359e+106
-5.5367931e+106
-5.6719637e+106
-5.6336815e+106
-5.4386364e+106
-5.579935e+106
-5.5454002e+106
-5.4047074e+106
-5.4971107e+106
-5.4744078e+106
-5.5129655e+106
-5.4862095e+106
-5.3377995e+106
-5.3453823e+106
-5.3760658e+106
-5.3683242e+106
-5.3299325e+106
-5.3603406e+106
-5.3521795e+106
-5.3218349e+106
-5.3953648e+106
-5.3872668e+106
-5.3849667e+106
-5.3934148e+106
-5.3788916e+106
-5.3705365e+106
-5.367567e+106
-5.3764023e+106
-5.2601097e+106
-5.2289617e+106
-5.3034551e+106
-5.3069941e+106
-5.321677e+106
-5.3179695e+106
-5.2995638e+106
-5.3140574e+106
-5.326489e+106
-5.3226158e+106
-5.3168313e+106
-5.3127145e+106
-5.3186539e+106
-5.3087198e+106
-5.3042757e+106
-5.4401945e+106
-5.4013333e+106
-5.4156429e+106
-5.3578023e+106
-5.341755e+106
-5.3767936e+106
-5.3149904e+106
-5.3882332e+106
-5.3277723e+106
-5.3271053e+106
-5.3234325e+106
-5.2815775e+106
-5.2779614e+106
-5.3196163e+106
-5.3153749e+106
-5.274112e+106
-5.2698655e+106
-5.3112681e+106
-5.3067557e+106
-5.2656064e+106
-5.2610935e+106
-5.3024643e+106
-5.2977104e+106
-5.2518556e+106
-5.2566642e+106
-5.2648656e+106
-5.2625546e+106
-5.2334031e+106
-5.231194e+106
-5.2691511e+106
-5.2669328e+106
-5.237732e+106
-5.2354698e+106
-5.2606902e+106
-5.2586845e+106
-5.2293964e+106
-5.2274382e+106
-5.2256042e+106
-5.2568164e+106
-5.2548359e+106
-5.2237345e+106
-4.912389e+106
-5.0051501e+106
-4.8258064e+106
-4.8153995e+106
-4.7756242e+106
-4.9488574e+106
-4.9312492e+106
-4.7617088e+106
-5.0223129e+106
-4.8104802e+106
-4.8065783e+106
-4.8912841e+106
-4.895287e+106
-4.9815732e+106
-5.0879786e+106
-5.0812315e+106
-4.9762926e+106
-4.8809386e+106
-4.7997947e+106
-4.8028535e+106
-4.8860817e+106
-5.0659217e+106
-5.0737575e+106
-4.969936e+106
-4.9628245e+106
-4.9132318e+106
-4.8699379e+106
-4.873224e+106
-4.9095976e+106
-4.834898e+106
-4.8379711e+106
-4.8025598e+106
-4.7993388e+106
-4.9070785e+106
-4.865544e+106
-4.8675732e+106
-4.9049731e+106
-4.8308878e+106
-4.8327437e+106
-5.1125524e+106
-5.0533534e+106
-5.048955e+106
-5.1169552e+106
-4.9496801e+106
-5.0016981e+106
-4.9534994e+106
-4.9977488e+106
-5.0455621e+106
-5.1088569e+106
-5.1059063e+106
-5.0428103e+106
-4.9920167e+106
-4.9468183e+106
-4.9945135e+106
-4.9446275e+106
-5.1934976e+106
-5.1985454e+106
-5.1842872e+106
-5.1887999e+106
-5.2098126e+106
-5.2023467e+106
-5.2133337e+106
-5.2028223e+106
-5.2063699e+106
-5.2123518e+106
-5.2559392e+106
-5.1771685e+106
-5.3660325e+106
-5.3282863e+106
-5.1503833e+106
-5.2251311e+106
-5.2385826e+106
-5.1104292e+106
-5.0886986e+106
-5.2500205e+106
-5.2788605e+106
-5.1866196e+106
-5.1844871e+106
-5.1828033e+106
-5.1813616e+106
-5.1951069e+106
-5.1924528e+106
-5.1903562e+106
-5.1884504e+106
-5.4844751e+106
-5.5309149e+106
-5.6733106e+106
-5.6287517e+106
-5.4372543e+106
-5.5801472e+106
-5.5460284e+106
-5.404229e+106
-5.2588741e+106
-5.2436438e+106
-5.0575915e+106
-5.3824908e+106
-5.3723652e+106
-5.405022e+106
-5.4158443e+106
-5.3632882e+106
-5.3540802e+106
-5.3850583e+106
-5.3947906e+106
-5.4386822e+106
-5.4264013e+106
-5.4403646e+106
-5.4263747e+106
-5.4149514e+106
-5.4046596e+106
-5.4139037e+106
-5.4027974e+106
-5.2511813e+106
-5.2583969e+106
-5.2890478e+106
-5.2819693e+106
-5.2437002e+106
-5.2745777e+106
-5.2674401e+106
-5.2363457e+106
-5.3371323e+106
-5.3336002e+106
-5.3489386e+106
-5.3525482e+106
-5.3451301e+106
-5.3299131e+106
-5.3257434e+106
-5.340935e+106
-5.3464088e+106
-5.3420059e+106
-5.3377426e+106
-5.350667e+106
-5.3582398e+106
-5.3545176e+106
-5.3496087e+106
-5.3459219e+106
-5.3219249e+106
-5.318404e+106
-5.3370216e+106
-5.3332811e+106
-5.3295169e+106
-5.31471e+106
-5.3106525e+106
-5.3253669e+106
-5.3345406e+106
-5.3302478e+106
-5.3252451e+106
-5.3207307e+106
-5.3424367e+106
-5.3384747e+106
-5.3336343e+106
-5.3294159e+106
-5.1737657e+106
-5.2654233e+106
-5.2616342e+106
-5.1462877e+106
-5.1383089e+106
-5.1657158e+106
-5.2577416e+106
-5.2840723e+106
-5.2802236e+106
-5.2762272e+106
-5.3024117e+106
-5.3006005e+106
-5.3044341e+106
-5.306354e+106
-5.3024728e+106
-5.2964395e+106
-5.2986137e+106
-5.3002501e+106
-5.289912e+106
-5.2878601e+106
-5.3028633e+106
-5.300918e+106
-5.2989455e+106
-5.2857682e+106
-5.2966403e+106
-5.2833805e+106
-5.2944347e+106
-5.2924497e+106
-5.2982366e+106
-5.2961985e+106
-5.294672e+106
-5.2815131e+106
-5.2926422e+106
-5.2794964e+106
-5.2906492e+106
-5.277537e+106
-5.4330964e+106
-5.3776472e+106
-5.3582492e+106
-5.3154266e+106
-5.3517417e+106
-5.3083693e+106
-5.364445e+106
-5.3221093e+106
-5.3708046e+106
-5.3289742e+106
-5.3355608e+106
-5.3310739e+106
-5.2907173e+106
-5.2859977e+106
-5.3455765e+106
-5.3015305e+106
-5.3401654e+106
-5.2956711e+106
-5.3014803e+106
-5.2999231e+106
-5.270756e+106
-5.269182e+106
-5.2984231e+106
-5.2965523e+106
-5.2676701e+106
-5.2657749e+106
-5.2639956e+106
-5.2947413e+106
-5.2928958e+106
-5.2621969e+106
-5.2911877e+106
-5.2891429e+106
-5.2585122e+106
-5.2605683e+106
-5.2870896e+106
-5.2848608e+106
-5.2540622e+106
-5.2564208e+106
-5.2826851e+106
-5.2801472e+106
-5.2492107e+106
-5.2518164e+106
-5.2779514e+106
-5.2756821e+106
-5.2445432e+106
-5.246921e+106
-5.2736002e+106
-5.2712345e+106
-5.2399145e+106
-5.242358e+106
-5.2411087e+106
-5.242192e+106
-5.2253418e+106
-5.2242738e+106
-5.240139e+106
-5.2388648e+106
-5.2222428e+106
-5.2233224e+106
-5.2299633e+106
-5.2467747e+106
-5.2456371e+106
-5.228722e+106
-5.243181e+106
-5.2445572e+106
-5.2275613e+106
-5.2263308e+106
-5.2379576e+106
-5.2370328e+106
-5.2213512e+106
-5.2203464e+106
-5.2193981e+106
-5.2361319e+106
-5.2348515e+106
-5.2183191e+106
-5.2331087e+106
-5.2340056e+106
-5.2174524e+106
-5.216559e+106
-5.231482e+106
-5.232406e+106
-5.2158328e+106
-5.215017e+106
-4.84093e+106
-4.8041074e+106
-4.7901674e+106
-4.9688729e+106
-4.9894732e+106
-5.0503965e+106
-5.1038984e+106
-5.0964591e+106
-4.9881744e+106
-4.9932162e+106
-4.8233011e+106
-4.9090935e+106
-4.8206349e+106
-4.9121035e+106
-4.817002e+106
-4.9007218e+106
-4.8146973e+106
-4.9040751e+106
-4.7707762e+106
-4.9376806e+106
-4.9210191e+106
-4.7574718e+106
-5.005347e+106
-5.1130889e+106
-5.1235559e+106
-4.9989869e+106
-4.8175644e+106
-4.8194602e+106
-4.8569676e+106
-4.8553903e+106
-4.8164493e+106
-4.8152433e+106
-4.85464e+106
-4.8533609e+106
-4.9350455e+106
-4.8922577e+106
-4.8907304e+106
-4.9333629e+106
-4.8929283e+106
-4.8946457e+106
-4.9378895e+106
-4.9361173e+106
-4.9810739e+106
-4.9790148e+106
-5.0292915e+106
-5.0314401e+106
-5.1496367e+106
-5.0818006e+106
-5.0844693e+106
-5.1465947e+106
-5.1438244e+106
-5.0766092e+106
-5.0795442e+106
-5.1405396e+106
-5.0272351e+106
-4.9753746e+106
-4.9774197e+106
-5.0246563e+106
-4.8762856e+106
-4.879451e+106
-4.9203519e+106
-4.9166576e+106
-4.8409395e+106
-4.8437405e+106
-4.8080442e+106
-4.8054491e+106
-4.8503788e+106
-4.8101806e+106
-4.8129441e+106
-4.8465255e+106
-4.9296258e+106
-4.8827911e+106
-4.887293e+106
-4.9246186e+106
-5.0576789e+106
-5.0626056e+106
-5.1261941e+106
-5.121629e+106
-5.0674046e+106
-5.0727307e+106
-5.1361595e+106
-5.1309795e+106
-5.0209064e+106
-4.9717156e+106
-4.9664642e+106
-5.0157927e+106
-5.0107292e+106
-4.9615898e+106
-4.957233e+106
-5.0058104e+106
-4.909504e+106
-4.930075e+106
-4.9074788e+106
-4.9279622e+106
-4.8688007e+106
-4.8675114e+106
-4.8870304e+106
-4.8856358e+106
-4.8721851e+106
-4.8904884e+106
-4.8702829e+106
-4.8886151e+106
-4.9058294e+106
-4.9262788e+106
-4.9043703e+106
-4.9247799e+106
-4.8338359e+106
-4.8513952e+106
-4.8326322e+106
-4.8502006e+106
-4.8370863e+106
-4.8547148e+106
-4.8352703e+106
-4.8528518e+106
-4.8202881e+106
-4.8184848e+106
-4.8033105e+106
-4.8013545e+106
-4.8169717e+106
-4.8158223e+106
-4.7987533e+106
-4.7997973e+106
-4.9031937e+106
-4.9018731e+106
-4.92342e+106
-4.922051e+106
-4.8643254e+106
-4.8822878e+106
-4.8813583e+106
-4.8664103e+106
-4.8844733e+106
-4.865198e+106
-4.8832639e+106
-4.9008629e+106
-4.899904e+106
-4.9210687e+106
-4.9202065e+106
-4.8298139e+106
-4.8471395e+106
-4.831628e+106
-4.8491145e+106
-4.8306622e+106
-4.8479897e+106
-5.1106978e+106
-5.1087724e+106
-5.1506985e+106
-5.1488272e+106
-5.0479943e+106
-5.0504786e+106
-5.0818711e+106
-5.0794747e+106
-5.0460334e+106
-5.0442137e+106
-5.0775124e+106
-5.0755436e+106
-5.1125465e+106
-5.1151731e+106
-5.1554044e+106
-5.1526994e+106
-4.9467611e+106
-4.9691408e+106
-4.9451585e+106
-4.9674056e+106
-4.9942107e+106
-4.9965628e+106
-5.0233551e+106
-5.0209413e+106
-4.9506264e+106
-4.9730827e+106
-4.9484246e+106
-4.9708877e+106
-4.9924113e+106
-4.9906372e+106
-5.0190559e+106
-5.0173027e+106
-5.0426009e+106
-5.0408515e+106
-5.0738633e+106
-5.0721638e+106
-5.1069937e+106
-5.1050722e+106
-5.1469742e+106
-5.144934e+106
-5.1037617e+106
-5.1024689e+106
-5.1434428e+106
-5.142168e+106
-5.0396105e+106
-5.038491e+106
-5.0707801e+106
-5.0694792e+106
-4.986472e+106
-4.9855534e+106
-5.0128498e+106
-5.011874e+106
-4.9437023e+106
-4.965859e+106
-4.9422688e+106
-4.9644398e+106
-4.989064e+106
-4.9874829e+106
-5.015654e+106
-5.0139816e+106
-4.9413359e+106
-4.9634608e+106
-4.9404858e+106
-4.9625671e+106
-5.2096823e+106
-5.2071029e+106
-5.2148306e+106
-5.2120525e+106
-5.1996877e+106
-5.1974461e+106
-5.2046189e+106
-5.2018784e+106
-5.2253016e+106
-5.2237725e+106
-5.2206842e+106
-5.2169103e+106
-5.2282789e+106
-5.2266684e+106
-5.2187141e+106
-5.2169958e+106
-5.2220569e+106
-5.2201521e+106
-5.2312608e+106
-5.2254445e+106
-5.2546697e+106
-5.1615055e+106
-5.3518337e+106
-5.3157891e+106
-5.1370465e+106
-5.2439065e+106
-5.2376269e+106
-5.2503723e+106
-5.2572686e+106
-5.1087506e+106
-5.0872644e+106
-5.2488662e+106
-5.2769068e+106
-5.1949564e+106
-5.1938352e+106
-5.1919653e+106
-5.1928564e+106
-5.1901395e+106
-5.1910747e+106
-5.1895048e+106
-5.1889202e+106
-5.2036643e+106
-5.2021655e+106
-5.2009512e+106
-5.1998407e+106
-5.1988225e+106
-5.197665e+106
-5.1967781e+106
-5.1958612e+106
-5.4821678e+106
-5.5269922e+106
-5.6758979e+106
-5.6286792e+106
-5.4372225e+106
-5.5802714e+106
-5.5461797e+106
-5.4042523e+106
-5.2746668e+106
-5.2902252e+106
-5.0852517e+106
-5.0719539e+106
-5.0505476e+106
-5.0577838e+106
-5.4285826e+106
-5.2899513e+106
-5.2814594e+106
-5.3132003e+106
-5.3217153e+106
-5.2735555e+106
-5.2659447e+106
-5.296704e+106
-5.3043879e+106
-5.4534088e+106
-5.3741108e+106
-5.3910885e+106
-5.3857479e+106
-5.3690076e+106
-5.364209e+106
-5.3588702e+106
-5.3805354e+106
-5.3750324e+106
-5.3927115e+106
-5.4561168e+106
-5.3912924e+106
-5.3984245e+106
-5.3852774e+106
-5.3813931e+106
-5.3871195e+106
-5.3794228e+106
-5.3733763e+106
-5.3538676e+106
-5.3496689e+106
-5.3653151e+106
-5.3698639e+106
-5.3455169e+106
-5.3412319e+106
-5.3566321e+106
-5.3609884e+106
-5.3760304e+106
-5.3676799e+106
-5.3712e+106
-5.3625925e+106
-5.3667327e+106
-5.362269e+106
-5.3535695e+106
-5.3580009e+106
-5.1670781e+106
-5.1736693e+106
-5.1999618e+106
-5.2938601e+106
-5.2904384e+106
-5.1936423e+106
-5.2870208e+106
-5.2832339e+106
-5.1601511e+106
-5.1867235e+106
-5.2797272e+106
-5.2763214e+106
-5.1805329e+106
-5.272866e+106
-5.2691297e+106
-5.1532932e+106
-5.309744e+106
-5.3131447e+106
-5.3061317e+106
-5.3024404e+106
-5.3216938e+106
-5.3196103e+106
-5.3242475e+106
-5.3264044e+106
-5.3269704e+106
-5.3251591e+106
-5.3144632e+106
-5.3126751e+106
-5.3232586e+106
-5.3108654e+106
-5.3211026e+106
-5.3088335e+106
-5.3236149e+106
-5.3253614e+106
-5.3301676e+106
-5.3283336e+106
-5.3325708e+106
-5.3309431e+106
-5.3374237e+106
-5.3357353e+106
-5.3291536e+106
-5.3272471e+106
-5.3339488e+106
-5.3320139e+106
-5.3340786e+106
-5.3324551e+106
-5.321263e+106
-5.3197719e+106
-5.3307283e+106
-5.3288052e+106
-5.3181512e+106
-5.3162964e+106
-5.2987153e+106
-5.2952028e+106
-5.2916456e+106
-5.2879381e+106
-5.3143982e+106
-5.3101567e+106
-5.3083521e+106
-5.3124302e+106
-5.3104774e+106
-5.304324e+106
-5.3064309e+106
-5.3082938e+106
-5.3110053e+106
-5.309023e+106
-5.2961456e+106
-5.2981866e+106
-5.3047929e+106
-5.2940847e+106
-5.291836e+106
-5.307034e+106
-5.3176722e+106
-5.3222955e+106
-5.3204006e+106
-5.3159242e+106
-5.3140469e+106
-5.3120175e+106
-5.3184736e+106
-5.3163252e+106
-5.3191354e+106
-5.317205e+106
-5.3068128e+106
-5.3047629e+106
-5.3152184e+106
-5.3129871e+106
-5.3026346e+106
-5.3002478e+106
-5.218031e+106
-5.2217593e+106
-5.0899667e+106
-5.1753979e+106
-5.1717776e+106
-5.2142097e+106
-5.0821376e+106
-5.1679962e+106
-5.2476093e+106
-5.2497358e+106
-5.2567114e+106
-5.2587902e+106
-5.2810728e+106
-5.2830507e+106
-5.2439519e+106
-5.245715e+106
-5.2548071e+106
-5.2529239e+106
-5.2791116e+106
-5.2770667e+106
-5.2398197e+106
-5.2420946e+106
-5.2509817e+106
-5.2489054e+106
-5.2750448e+106
-5.2730178e+106
-5.2908819e+106
-5.2929703e+106
-5.2896175e+106
-5.2918032e+106
-5.2918268e+106
-5.2925818e+106
-5.2947941e+106
-5.293921e+106
-5.2886326e+106
-5.2878161e+106
-5.2898958e+106
-5.2908346e+106
-5.2888572e+106
-5.2867909e+106
-5.2854759e+106
-5.2876251e+106
-5.2629402e+106
-5.2821478e+106
-5.281146e+106
-5.2618798e+106
-5.260846e+106
-5.2801586e+106
-5.2787511e+106
-5.2594763e+106
-5.2931659e+106
-5.2940508e+106
-5.2896764e+106
-5.2906501e+106
-5.2910698e+106
-5.2921915e+106
-5.2874458e+106
-5.2887021e+106
-5.2900856e+106
-5.2891103e+106
-5.2865394e+106
-5.2854794e+106
-5.2584486e+106
-5.2778462e+106
-5.2767716e+106
-5.2573701e+106
-5.2843639e+106
-5.2880333e+106
-5.2868293e+106
-5.2831379e+106
-5.2756794e+106
-5.2743786e+106
-5.2551331e+106
-5.2563782e+106
-5.2836682e+106
-5.2844584e+106
-5.2866204e+106
-5.2857108e+106
-5.2814146e+106
-5.2826939e+106
-5.2847364e+106
-5.2835555e+106
-5.2848928e+106
-5.285829e+106
-5.2822744e+106
-5.2813059e+106
-5.2541442e+106
-5.2735541e+106
-5.2726279e+106
-5.2532281e+106
-5.2827771e+106
-5.2839129e+106
-5.2802554e+106
-5.2790406e+106
-5.2702599e+106
-5.2715861e+106
-5.2523173e+106
-5.2510383e+106
-5.2808591e+106
-5.2818438e+106
-5.2781699e+106
-5.2771752e+106
-5.2501362e+106
-5.2694066e+106
-5.2684754e+106
-5.2492792e+106
-5.377656e+106
-5.3831842e+106
-5.3429706e+106
-5.3368138e+106
-5.3010669e+106
-5.3299921e+106
-5.3270288e+106
-5.2979008e+106
-5.3243448e+106
-5.3212748e+106
-5.2916788e+106
-5.2950713e+106
-5.3361839e+106
-5.3330503e+106
-5.3077037e+106
-5.3042159e+106
-5.3418273e+106
-5.3388994e+106
-5.3138687e+106
-5.3105917e+106
-5.30865e+106
-5.3067198e+106
-5.2782735e+106
-5.2761705e+106
-5.304988e+106
-5.3031729e+106
-5.2743751e+106
-5.272485e+106
-5.3183054e+106
-5.3156244e+106
-5.2885298e+106
-5.2856274e+106
-5.3133342e+106
-5.2831812e+106
-5.3108786e+106
-5.280504e+106
-5.2781103e+106
-5.2787388e+106
-5.2623673e+106
-5.2616543e+106
-5.2765727e+106
-5.277431e+106
-5.2609778e+106
-5.2601525e+106
-5.2752018e+106
-5.2758575e+106
-5.2594818e+106
-5.2587699e+106
-5.273552e+106
-5.2744996e+106
-5.2580793e+106
-5.2571482e+106
-5.2717377e+106
-5.2725753e+106
-5.2562431e+106
-5.25532e+106
-5.2699802e+106
-5.270909e+106
-5.2544767e+106
-5.2535848e+106
-5.2683552e+106
-5.2691531e+106
-5.252822e+106
-5.2520066e+106
-5.2664055e+106
-5.2675239e+106
-5.2511815e+106
-5.2500827e+106
-5.2642151e+106
-5.2652806e+106
-5.2490146e+106
-5.2478143e+106
-5.2618592e+106
-5.2631176e+106
-5.2466343e+106
-5.2453463e+106
-5.2595401e+106
-5.2606937e+106
-5.2442405e+106
-5.2430363e+106
-5.2570448e+106
-5.2584202e+106
-5.2418455e+106
-5.2404737e+106
-5.2546884e+106
-5.2558232e+106
-5.2392793e+106
-5.2380088e+106
-5.2522947e+106
-5.2535844e+106
-5.2368144e+106
-5.2355749e+106
-5.251274e+106
-5.2345155e+106
-5.2502267e+106
-5.2334111e+106
-5.2491873e+106
-5.2478892e+106
-5.2323395e+106
-5.2310854e+106
-5.2082479e+106
-5.2092647e+106
-5.2072455e+106
-5.2061775e+106
-5.2139806e+106
-5.2126716e+106
-5.2103453e+106
-5.2114716e+106
-5.2051761e+106
-5.2042151e+106
-5.2032465e+106
-5.202297e+106
-5.2004914e+106
-5.2013492e+106
-5.199166e+106
-5.1998483e+106
-4.8274402e+106
-4.9180495e+106
-4.7957615e+106
-4.7841025e+106
-4.9565431e+106
-4.9745043e+106
-5.0135516e+106
-5.1370394e+106
-5.0939895e+106
-5.0981864e+106
-5.1654436e+106
-5.1603205e+106
-5.0873947e+106
-5.0906133e+106
-5.1529318e+106
-5.1561697e+106
-5.0370807e+106
-4.9859365e+106
-5.0341611e+106
-4.9834737e+106
-5.0431803e+106
-4.9883384e+106
-4.990762e+106
-5.0401239e+106
-4.8278106e+106
-4.8673628e+106
-4.8267392e+106
-4.8663031e+106
-4.9034348e+106
-4.9046603e+106
-4.9498829e+106
-4.9482471e+106
-4.8646633e+106
-4.8653994e+106
-4.8262517e+106
-4.8255883e+106
-4.9056498e+106
-4.9073713e+106
-4.9541772e+106
-4.9519121e+106
-4.8233381e+106
-4.8245329e+106
-4.8630487e+106
-4.8615903e+106
-4.896926e+106
-4.8985256e+106
-4.9403477e+106
-4.9422972e+106
-4.8224293e+106
-4.8591675e+106
-4.8603326e+106
-4.8212553e+106
-4.9462653e+106
-4.8998078e+106
-4.9442366e+106
-4.9017008e+106
-4.4466992e+106
-4.4533373e+106
-4.5985284e+106
-4.608516e+106
-4.7695207e+106
-4.9359277e+106
-4.9194639e+106
-4.7565251e+106
-5.0532769e+106
-5.000959e+106
-4.9977925e+106
-5.0571527e+106
-5.1021377e+106
-5.1065096e+106
-5.1766726e+106
-5.1713319e+106
-5.1159807e+106
-5.1107445e+106
-5.1883704e+106
-5.1820921e+106
-4.9925323e+106
-4.9949582e+106
-5.0493205e+106
-5.0459437e+106
-4.8377444e+106
-4.8378252e+106
-4.819531e+106
-4.8197085e+106
-4.8394301e+106
-4.8384083e+106
-4.8203462e+106
-4.8213866e+106
-4.85723e+106
-4.876233e+106
-4.8560707e+106
-4.8750906e+106
-4.8555025e+106
-4.8745468e+106
-4.8556709e+106
-4.8748096e+106
-4.8379035e+106
-4.8376188e+106
-4.8187437e+106
-4.8193408e+106
-4.8370429e+106
-4.836171e+106
-4.817493e+106
-4.8182037e+106
-4.8558568e+106
-4.8749431e+106
-4.8556825e+106
-4.8748078e+106
-4.8552192e+106
-4.8743172e+106
-4.8542173e+106
-4.8732344e+106
-4.9334912e+106
-4.9552458e+106
-4.93303e+106
-4.9546413e+106
-4.8936263e+106
-4.8934001e+106
-4.913059e+106
-4.9133343e+106
-4.8928394e+106
-4.8915671e+106
-4.9123759e+106
-4.9110013e+106
-4.9323772e+106
-4.9309684e+106
-4.9539726e+106
-4.9526849e+106
-4.8933879e+106
-4.9133587e+106
-4.9133906e+106
-4.893527e+106
-4.89497e+106
-4.9147797e+106
-4.8938764e+106
-4.9138743e+106
-4.9352134e+106
-4.9574585e+106
-4.9565038e+106
-4.9342494e+106
-4.933792e+106
-4.9559354e+106
-4.933667e+106
-4.955704e+106
-4.9792829e+106
-5.0027939e+106
-4.9782443e+106
-5.0018085e+106
-4.9776198e+106
-5.0010984e+106
-4.9771818e+106
-5.0005134e+106
-5.0251788e+106
-5.0526265e+106
-5.0245109e+106
-5.0519643e+106
-5.0269788e+106
-5.0544679e+106
-5.0258475e+106
-5.0533773e+106
-5.1480813e+106
-5.188729e+106
-5.1468118e+106
-5.1873268e+106
-5.0800602e+106
-5.1121551e+106
-5.079228e+106
-5.1110545e+106
-5.0820772e+106
-5.1141765e+106
-5.08091e+106
-5.113151e+106
-5.1457962e+106
-5.1861542e+106
-5.1445304e+106
-5.1848221e+106
-5.1431941e+106
-5.183099e+106
-5.1415583e+106
-5.1813163e+106
-5.0758331e+106
-5.0742585e+106
-5.1072722e+106
-5.10553e+106
-5.0782668e+106
-5.1098635e+106
-5.0769561e+106
-5.1085447e+106
-5.140278e+106
-5.1800021e+106
-5.1385251e+106
-5.1783717e+106
-5.0237551e+106
-5.0510088e+106
-5.0226797e+106
-5.0498141e+106
-4.9751348e+106
-4.9980972e+106
-4.9737902e+106
-4.9966935e+106
-4.9765998e+106
-4.9997867e+106
-4.975847e+106
-4.9989688e+106
-5.0217319e+106
-5.0202805e+106
-5.048762e+106
-5.0473324e+106
-4.8753993e+106
-4.8737962e+106
-4.8938955e+106
-4.892161e+106
-4.8793452e+106
-4.898152e+106
-4.8770602e+106
-4.8957269e+106
-4.9176307e+106
-4.9389057e+106
-4.9149349e+106
-4.9360276e+106
-4.9130291e+106
-4.9339413e+106
-4.9112122e+106
-4.9320252e+106
-4.8401401e+106
-4.8578268e+106
-4.8386593e+106
-4.8563538e+106
-4.8435428e+106
-4.8615029e+106
-4.841622e+106
-4.8593977e+106
-4.8266222e+106
-4.8247863e+106
-4.8096531e+106
-4.8077924e+106
-4.8233042e+106
-4.8218484e+106
-4.8048505e+106
-4.8063333e+106
-4.8523906e+106
-4.8710495e+106
-4.8497981e+106
-4.8682053e+106
-4.8301839e+106
-4.8283311e+106
-4.8112215e+106
-4.8126155e+106
-4.8344322e+106
-4.832177e+106
-4.8140982e+106
-4.8160316e+106
-4.8474362e+106
-4.8657709e+106
-4.8452906e+106
-4.8635292e+106
-4.928768e+106
-4.9504236e+106
-4.9257517e+106
-4.9474187e+106
-4.8839524e+106
-4.9032613e+106
-4.8815281e+106
-4.9006095e+106
-4.8893052e+106
-4.9087118e+106
-4.8863453e+106
-4.905785e+106
-4.9231607e+106
-4.9447368e+106
-4.9203088e+106
-4.9418234e+106
-5.0554137e+106
-5.0528235e+106
-5.0869811e+106
-5.0843205e+106
-5.0610641e+106
-5.057928e+106
-5.092314e+106
-5.089435e+106
-5.1253502e+106
-5.1652532e+106
-5.1224007e+106
-5.1624241e+106
-5.1201804e+106
-5.1602509e+106
-5.1176736e+106
-5.1579764e+106
-5.0667683e+106
-5.0638504e+106
-5.0980537e+106
-5.0951058e+106
-5.072199e+106
-5.1033425e+106
-5.0693363e+106
-5.1006231e+106
-5.1362571e+106
-5.1759718e+106
-5.1333398e+106
-5.1730824e+106
-5.1309183e+106
-5.1280748e+106
-5.1706468e+106
-5.1680119e+106
-5.0182896e+106
-5.0452295e+106
-5.0154366e+106
-5.0424087e+106
-4.9716571e+106
-4.9686596e+106
-4.9946022e+106
-4.9917778e+106
-4.9659782e+106
-4.9629664e+106
-4.9890549e+106
-4.9859861e+106
-5.012797e+106
-5.0097421e+106
-5.0397879e+106
-5.0368651e+106
-5.006889e+106
-5.0037262e+106
-5.0339331e+106
-5.0307771e+106
-4.9600731e+106
-4.9570521e+106
-4.9830678e+106
-4.9800481e+106
-4.9526838e+106
-4.954815e+106
-4.977623e+106
-4.9752549e+106
-5.0012354e+106
-4.9987514e+106
-5.0282223e+106
-5.0257082e+106
-4.9159628e+106
-4.9072114e+106
-4.916983e+106
-4.9061571e+106
-4.9269666e+106
-4.9374696e+106
-4.9362875e+106
-4.9258511e+106
-4.9043709e+106
-4.9140761e+106
-4.9052829e+106
-4.9150383e+106
-4.9249584e+106
-4.9353583e+106
-4.9239823e+106
-4.9344132e+106
-4.867738e+106
-4.8763218e+106
-4.8755727e+106
-4.8669398e+106
-4.8657439e+106
-4.8663266e+106
-4.8749372e+106
-4.874322e+106
-4.8934861e+106
-4.8851061e+106
-4.8942859e+106
-4.8843203e+106
-4.883078e+106
-4.8922249e+106
-4.8837144e+106
-4.8928442e+106
-4.8787468e+106
-4.871032e+106
-4.8796875e+106
-4.8700716e+106
-4.8885309e+106
-4.8977976e+106
-4.8967473e+106
-4.8875227e+106
-4.8770189e+106
-4.8692391e+106
-4.8778894e+106
-4.8683968e+106
-4.8867082e+106
-4.8959014e+106
-4.8858255e+106
-4.8950347e+106
-4.903609e+106
-4.9132993e+106
-4.912467e+106
-4.9027746e+106
-4.9336382e+106
-4.9223493e+106
-4.9232204e+106
-4.9327634e+106
-4.9021386e+106
-4.9014856e+106
-4.9118119e+106
-4.9111184e+106
-4.9320883e+106
-4.9209954e+106
-4.9313661e+106
-4.921711e+106
-4.8340345e+106
-4.8332182e+106
-4.842263e+106
-4.8414612e+106
-4.8498515e+106
-4.8591441e+106
-4.8583496e+106
-4.8506673e+106
-4.8326625e+106
-4.8321422e+106
-4.8402993e+106
-4.8408445e+106
-4.8492397e+106
-4.8486769e+106
-4.8577317e+106
-4.8571868e+106
-4.8444983e+106
-4.8371553e+106
-4.8453884e+106
-4.8362116e+106
-4.8538369e+106
-4.8623958e+106
-4.8614445e+106
-4.8529188e+106
-4.8429839e+106
-4.8355031e+106
-4.8437097e+106
-4.8347783e+106
-4.8521195e+106
-4.860616e+106
-4.85135e+106
-4.8598112e+106
-4.8192889e+106
-4.818403e+106
-4.8287126e+106
-4.8278065e+106
-4.8270562e+106
-4.8263531e+106
-4.8176168e+106
-4.8168535e+106
-4.8056369e+106
-4.8039452e+106
-4.8160894e+106
-4.8153435e+106
-4.8255682e+106
-4.8248048e+106
-4.8242185e+106
-4.8237446e+106
-4.8147508e+106
-4.8142405e+106
-4.8012005e+106
-4.8023903e+106
-4.9009187e+106
-4.9105245e+106
-4.9098371e+106
-4.9001987e+106
-4.899058e+106
-4.8996304e+106
-4.9092278e+106
-4.9086148e+106
-4.9298297e+106
-4.9203381e+106
-4.9306566e+106
-4.9195664e+106
-4.9183741e+106
-4.9286599e+106
-4.9189885e+106
-4.9292326e+106
-4.863243e+106
-4.8716899e+106
-4.8711888e+106
-4.8627146e+106
-4.8888068e+106
-4.8803278e+106
-4.8893652e+106
-4.8797904e+106
-4.8789056e+106
-4.8879351e+106
-4.8793581e+106
-4.8883316e+106
-4.8731948e+106
-4.8652503e+106
-4.8738075e+106
-4.8646383e+106
-4.8825328e+106
-4.8916541e+106
-4.890929e+106
-4.8818496e+106
-4.8721257e+106
-4.8641244e+106
-4.8726489e+106
-4.8636323e+106
-4.8813331e+106
-4.8903864e+106
-4.8807891e+106
-4.8898544e+106
-4.898556e+106
-4.90811e+106
-4.9075403e+106
-4.8979646e+106
-4.8974885e+106
-4.9070732e+106
-4.8970877e+106
-4.9066653e+106
-4.9276465e+106
-4.9179002e+106
-4.9281895e+106
-4.9173199e+106
-4.9165226e+106
-4.9169142e+106
-4.9272429e+106
-4.9268821e+106
-4.83003e+106
-4.8295136e+106
-4.8381558e+106
-4.8376534e+106
-4.8459225e+106
-4.8547806e+106
-4.8542756e+106
-4.8464306e+106
-4.8393618e+106
-4.8316254e+106
-4.8398371e+106
-4.8311293e+106
-4.8482201e+106
-4.8567024e+106
-4.856111e+106
-4.8476889e+106
-4.838619e+106
-4.8308696e+106
-4.8389686e+106
-4.8305423e+106
-4.8472398e+106
-4.8556194e+106
-4.8468354e+106
-4.8551692e+106
-5.128799e+106
-5.1092202e+106
-5.1297147e+106
-5.1082001e+106
-5.1073702e+106
-5.1279237e+106
-5.1270147e+106
-5.106461e+106
-5.1506957e+106
-5.1750719e+106
-5.1496364e+106
-5.1739433e+106
-5.1731146e+106
-5.1721991e+106
-5.1488225e+106
-5.147926e+106
-5.0593623e+106
-5.0450557e+106
-5.0604038e+106
-5.0439774e+106
-5.0461281e+106
-5.0475134e+106
-5.0628535e+106
-5.0615066e+106
-5.0768887e+106
-5.0783293e+106
-5.0961391e+106
-5.0946799e+106
-5.0935504e+106
-5.0924364e+106
-5.0757957e+106
-5.0747391e+106
-5.0573989e+106
-5.0430624e+106
-5.0584104e+106
-5.042016e+106
-5.0412224e+106
-5.0565666e+106
-5.055735e+106
-5.0404034e+106
-5.0738572e+106
-5.0915957e+106
-5.0727737e+106
-5.0905448e+106
-5.0897267e+106
-5.0888006e+106
-5.0719713e+106
-5.0710931e+106
-5.1305623e+106
-5.1111631e+106
-5.1318032e+106
-5.1100295e+106
-5.1123433e+106
-5.1138403e+106
-5.1344837e+106
-5.1330549e+106
-5.1800363e+106
-5.1540706e+106
-5.1556204e+106
-5.1784907e+106
-5.177254e+106
-5.1760998e+106
-5.1528455e+106
-5.151633e+106
-4.9538744e+106
-4.9439651e+106
-4.9547423e+106
-4.9430724e+106
-4.9656479e+106
-4.9773875e+106
-4.9764364e+106
-4.9647156e+106
-4.9523113e+106
-4.9423744e+106
-4.9531275e+106
-4.9416093e+106
-4.9639695e+106
-4.9756478e+106
-4.9748263e+106
-4.96314e+106
-4.9900013e+106
-5.0028203e+106
-4.9910259e+106
-5.0038876e+106
-4.9920591e+106
-4.9933567e+106
-5.0062215e+106
-5.0049518e+106
-5.0178969e+106
-5.0192405e+106
-5.0335405e+106
-5.0321853e+106
-5.0311133e+106
-5.0300238e+106
-5.0168458e+106
-5.015762e+106
-4.9466396e+106
-4.947857e+106
-4.9587054e+106
-4.957488e+106
-4.9684041e+106
-4.9696746e+106
-4.9814989e+106
-4.980215e+106
-4.9555263e+106
-4.9456944e+106
-4.9565117e+106
-4.9447322e+106
-4.9791973e+106
-4.9674326e+106
-4.9664436e+106
-4.9782146e+106
-5.0010446e+106
-4.9891683e+106
-5.0019697e+106
-4.9881971e+106
-4.987406e+106
-5.0002264e+106
-4.9993333e+106
-4.9865525e+106
-5.0149165e+106
-5.0291337e+106
-5.0139289e+106
-5.0281247e+106
-5.0273365e+106
-5.026489e+106
-5.0131494e+106
-5.0122664e+106
-5.0396367e+106
-5.0549453e+106
-5.0540862e+106
-5.0387059e+106
-5.0379173e+106
-5.0532487e+106
-5.0524339e+106
-5.0371668e+106
-5.0703248e+106
-5.0880082e+106
-5.0869545e+106
-5.0693371e+106
-5.0685702e+106
-5.0861679e+106
-5.085326e+106
-5.0677236e+106
-5.1056084e+106
-5.1261126e+106
-5.1250539e+106
-5.1045074e+106
-5.1036671e+106
-5.1241572e+106
-5.1232048e+106
-5.1028158e+106
-5.1470656e+106
-5.1713315e+106
-5.1701971e+106
-5.1459219e+106
-5.1450275e+106
-5.1692554e+106
-5.168368e+106
-5.1441014e+106
-5.1021724e+106
-5.1225291e+106
-5.1219273e+106
-5.1014192e+106
-5.1002605e+106
-5.1008441e+106
-5.121291e+106
-5.1206039e+106
-5.1433462e+106
-5.1674995e+106
-5.1666073e+106
-5.1425665e+106
-5.1414183e+106
-5.1420324e+106
-5.1660644e+106
-5.165519e+106
-5.0365493e+106
-5.0517469e+106
-5.0511267e+106
-5.0359011e+106
-5.0347943e+106
-5.0353682e+106
-5.0505396e+106
-5.0498883e+106
-5.0670442e+106
-5.0846396e+106
-5.083847e+106
-5.0662859e+106
-5.065144e+106
-5.0657474e+106
-5.0833052e+106
-5.0827442e+106
-4.9831068e+106
-4.9957795e+106
-4.9952432e+106
-4.9825357e+106
-4.9816974e+106
-4.982127e+106
-4.9947983e+106
-4.9943101e+106
-5.008613e+106
-5.0227258e+106
-5.0221217e+106
-5.0080018e+106
-5.0070593e+106
-5.007563e+106
-5.0216166e+106
-5.0210857e+106
-4.9408935e+106
-4.9400436e+106
-4.9515766e+106
-4.9507342e+106
-4.9623952e+106
-4.961511e+106
-4.9740611e+106
-4.9731654e+106
-4.939436e+106
-4.950108e+106
-4.9495142e+106
-4.9388549e+106
-4.9725064e+106
-4.971931e+106
-4.960889e+106
-4.9602986e+106
-4.9858016e+106
-4.9985715e+106
-4.9976997e+106
-4.984894e+106
-4.9842096e+106
-4.9969804e+106
-4.9962984e+106
-4.9835909e+106
-5.0115146e+106
-5.0257299e+106
-5.0247994e+106
-5.0105863e+106
-5.0098698e+106
-5.024043e+106
-5.0233149e+106
-5.0091578e+106
-4.9383975e+106
-4.949049e+106
-4.9378554e+106
-4.9485419e+106
-4.9592776e+106