/*--------------------------------*- C++ -*----------------------------------*\
  =========                 |
  \\      /  F ield         | OpenFOAM: The Open Source CFD Toolbox
   \\    /   O peration     | Website:  https://openfoam.org
    \\  /    A nd           | Version:  7
     \\/     M anipulation  |
\*---------------------------------------------------------------------------*/
FoamFile
{
    version     2.0;
    format      ascii;
    class       volVectorField;
    location    "9000";
    object      UMean;
}
// * * * * * * * * * * * * * * * * * * * * * * * * * * * * * * * * * * * * * //

dimensions      [0 1 -1 0 0 0 0];

internalField   nonuniform List<vector> 
33943
(
(-2.8290193e+50 1.5347086e+49 2.807711e+49)
(-2.5312809e+50 1.3161103e+49 3.8098328e+49)
(-2.7846622e+50 5.0680844e+48 2.9663796e+49)
(-2.771659e+50 1.3135707e+48 2.0441664e+49)
(-3.1563028e+50 -6.1226482e+48 9.4251652e+48)
(-2.5901952e+50 3.9661492e+49 2.7835588e+48)
(-1.9613376e+50 2.2118461e+49 1.2593815e+48)
(-2.6744335e+50 4.7682541e+48 3.0157756e+49)
(-2.5361124e+50 4.3909596e+48 3.8639638e+49)
(-2.5904079e+50 1.5999737e+49 3.618422e+49)
(-2.7826172e+50 -3.1764509e+48 2.8315687e+49)
(-2.8232987e+50 -1.4594971e+48 2.9194385e+49)
(-2.1391634e+50 9.0753316e+48 3.1091456e+49)
(-2.6160084e+50 5.6938895e+48 3.262148e+49)
(-2.6343124e+50 6.3725318e+47 3.2866498e+49)
(-2.1614974e+50 1.1072769e+49 2.9618962e+49)
(-2.7567115e+50 -1.0077586e+48 -6.4211977e+48)
(-2.8860057e+50 1.7377759e+48 1.0334908e+49)
(-2.7681038e+50 -5.1521231e+48 1.9386625e+49)
(-2.7600217e+50 -6.1936198e+48 1.9748761e+49)
(-3.4312426e+50 -1.0223992e+48 1.7323611e+49)
(-2.5109212e+50 -2.0060888e+48 2.1659691e+49)
(-2.5138361e+50 1.9883379e+48 2.1890895e+49)
(-3.0437077e+50 -8.7769938e+48 8.1364308e+48)
(-2.2131531e+50 -2.2111592e+49 -6.598639e+48)
(-2.0538308e+50 -2.7092226e+49 -1.5577271e+49)
(-2.3061522e+50 -1.5829084e+49 -1.1584102e+49)
(-2.2802301e+50 -1.6051702e+49 -2.2874297e+48)
(-2.6004577e+50 3.0404604e+49 8.9680229e+48)
(-2.4723083e+50 9.0415785e+48 -2.571824e+49)
(-2.5233665e+50 1.859043e+49 -2.8381904e+49)
(-1.9595472e+50 1.4199679e+49 4.0271194e+48)
(-2.0055921e+50 2.9877993e+49 3.2886282e+48)
(-2.2789899e+50 7.127865e+48 -2.7922918e+49)
(-2.4023393e+50 8.2669548e+48 -2.4954292e+49)
(-1.8571773e+50 8.28761e+48 -3.450257e+49)
(-1.8871048e+50 1.0718923e+49 -3.4961287e+49)
(-1.4162841e+50 1.3788985e+49 3.527194e+48)
(-1.4497084e+50 2.1962346e+49 3.4828268e+48)
(-2.4744903e+50 -7.5020052e+48 3.9830635e+49)
(-2.6149783e+50 7.007102e+48 3.8695057e+49)
(-2.6108185e+50 -1.4539428e+49 2.3926152e+49)
(-2.8183698e+50 -9.9290583e+48 2.8439133e+49)
(-2.1522488e+50 3.4811884e+48 3.1555589e+49)
(-2.1745208e+50 6.5203264e+48 3.0594159e+49)
(-2.636619e+50 -5.1762531e+48 3.3017254e+49)
(-2.6025499e+50 -6.6908852e+47 3.2259492e+49)
(-2.1398622e+50 6.5942868e+48 2.966959e+49)
(-2.1549176e+50 9.8362482e+48 2.9375341e+49)
(-2.6349643e+50 1.9081237e+48 3.0893405e+49)
(-2.6422467e+50 -1.5435453e+48 3.1269009e+49)
(-1.8158201e+50 7.1804458e+48 2.4502499e+49)
(-2.3208126e+50 1.4231935e+48 2.9522289e+49)
(-1.8057124e+50 6.7031136e+48 2.5593908e+49)
(-2.2960159e+50 5.0990787e+48 2.9061937e+49)
(-1.7882978e+50 6.8797401e+48 2.3561007e+49)
(-1.8016723e+50 8.1057707e+48 2.4163081e+49)
(-2.2971317e+50 4.4897759e+48 2.7459629e+49)
(-2.3089845e+50 1.5723188e+48 2.8415835e+49)
(-3.5371503e+50 -1.694843e+47 1.8215736e+48)
(-2.7415666e+50 -4.8457139e+48 -6.8163809e+48)
(-2.8700581e+50 -4.3137875e+48 1.0194018e+49)
(-2.7555597e+50 -4.1352461e+48 -6.5105768e+48)
(-2.8824251e+50 -5.1812102e+48 9.687822e+48)
(-2.5633602e+50 1.9958476e+47 -4.3430631e+48)
(-2.4864112e+50 -9.0044184e+47 -1.1177085e+49)
(-2.5533602e+50 -1.6261093e+48 -4.2587948e+48)
(-2.4686997e+50 -1.7090649e+48 -1.0808235e+49)
(-2.6157366e+50 1.5403507e+48 1.5200357e+49)
(-2.5375754e+50 2.3255396e+47 7.2958825e+47)
(-2.6203154e+50 -1.7870741e+48 1.5306858e+49)
(-2.5259239e+50 -1.2793817e+48 7.10819e+47)
(-2.5132543e+50 -4.6695579e+47 2.0617686e+49)
(-2.5150206e+50 -3.8770897e+48 2.1495721e+49)
(-2.5023323e+50 -3.3123856e+48 2.2519391e+49)
(-2.5002944e+50 -7.0761294e+48 2.2019889e+49)
(-2.7201878e+50 -1.4908096e+49 1.8291035e+49)
(-3.3969959e+50 -7.4609813e+48 1.7434373e+49)
(-2.6097881e+50 -1.9043675e+49 1.4812687e+49)
(-2.2346584e+50 -1.7382184e+49 -3.34538e+48)
(-2.2925695e+50 -1.2287083e+49 -1.4842826e+48)
(-2.297728e+50 -1.5001404e+49 -2.514154e+48)
(-2.1807277e+50 -2.0254043e+49 -5.4388709e+48)
(-2.1839416e+50 3.2937363e+48 1.897191e+49)
(-2.1855699e+50 1.5068687e+46 1.9832749e+49)
(-2.1898647e+50 2.9902885e+48 2.0392726e+49)
(-2.195727e+50 -6.1505861e+47 2.0064895e+49)
(-2.1101065e+50 -2.1993098e+49 -1.2748047e+49)
(-1.909746e+50 -2.477079e+49 -1.1830784e+49)
(-1.9263002e+50 -1.4255043e+49 -1.9851983e+49)
(-1.8953639e+50 -2.5102283e+49 -2.2987093e+49)
(-2.1315002e+50 -1.5179982e+49 -9.6617227e+48)
(-2.1822925e+50 -1.6819706e+49 -1.4143395e+49)
(-2.2337239e+50 -7.6887643e+48 -9.3555099e+48)
(-2.151839e+50 -9.6765472e+48 -6.2760352e+48)
(-2.4724133e+50 4.8340879e+47 -1.8315004e+49)
(-2.5247216e+50 1.2871535e+49 -2.3186399e+49)
(-1.9693273e+50 2.9436897e+48 1.1412862e+49)
(-2.0251068e+50 2.1368581e+49 8.4140553e+48)
(-2.4369509e+50 2.2427683e+48 -2.3700147e+49)
(-2.4072163e+50 5.6748555e+48 -2.2025133e+49)
(-2.2750346e+50 3.7782998e+48 -2.5370064e+49)
(-2.2932137e+50 4.5683954e+48 -2.5088954e+49)
(-2.4168291e+50 5.8432205e+48 -2.315065e+49)
(-2.2825649e+50 4.6780315e+48 -2.6145151e+49)
(-2.29499e+50 6.8697146e+48 -2.6347295e+49)
(-2.4321547e+50 3.5698563e+48 -2.4353558e+49)
(-1.8519512e+50 4.3591576e+48 -3.2453657e+49)
(-1.8832107e+50 8.0276952e+48 -3.2918742e+49)
(-1.454262e+50 1.716715e+49 5.0576788e+48)
(-1.4239407e+50 7.965488e+48 4.7289717e+48)
(-1.867159e+50 5.8839211e+48 -3.3426476e+49)
(-1.885143e+50 1.0597304e+49 -3.3799747e+49)
(-1.4290478e+50 2.041079e+49 2.9128796e+48)
(-1.422819e+50 1.1146244e+49 3.102429e+48)
(-2.4276263e+50 6.6658286e+48 -3.2237463e+49)
(-2.3719733e+50 5.2059266e+48 -1.8979338e+49)
(-1.9472188e+50 1.7425333e+48 -3.269328e+49)
(-1.9298024e+50 4.7681774e+48 -3.1977186e+49)
(-1.6070839e+50 6.1263725e+48 -3.7554536e+49)
(-1.6253106e+50 4.8162393e+48 -3.7418419e+49)
(-1.9323699e+50 3.5824513e+48 -3.1411296e+49)
(-1.6095022e+50 5.2931552e+48 -3.6841767e+49)
(-1.1244081e+50 7.0019286e+48 -3.1875768e+49)
(-1.148466e+50 7.3281525e+48 -3.2313961e+49)
(-1.0216414e+50 7.8610373e+48 1.0950726e+49)
(-1.0360654e+50 1.2390388e+49 9.9181565e+48)
(-1.1285925e+50 6.4803319e+48 -3.1623637e+49)
(-1.0086497e+50 7.9102991e+48 9.1583066e+48)
(-1.0168306e+50 1.372727e+49 8.4175905e+48)
(-2.5515824e+50 -1.6352554e+49 3.0053906e+49)
(-2.2027277e+50 -1.247047e+48 3.34779e+49)
(-2.1480906e+50 -6.0606605e+48 3.3041877e+49)
(-2.5420321e+50 -1.2570631e+49 3.0208446e+49)
(-2.6091687e+50 -1.5728214e+49 3.2788809e+49)
(-2.1824341e+50 3.9506303e+48 3.1630002e+49)
(-2.6566618e+50 -8.6732217e+48 3.2785632e+49)
(-2.1766329e+50 -3.8833337e+47 3.2459615e+49)
(-2.6515709e+50 -6.9053166e+48 3.2851822e+49)
(-1.8198812e+50 2.7738716e+48 2.6223829e+49)
(-1.8295531e+50 3.5040532e+48 2.5192548e+49)
(-2.3043265e+50 7.2425596e+47 2.965409e+49)
(-2.3160812e+50 -3.1151935e+48 2.9531374e+49)
(-1.8139645e+50 4.0065869e+48 2.5048864e+49)
(-1.8120278e+50 5.2181899e+48 2.4709485e+49)
(-2.3221724e+50 7.6527369e+47 2.8855214e+49)
(-2.3094393e+50 -2.3169845e+48 2.8262306e+49)
(-1.8039009e+50 5.2511194e+48 2.4876241e+49)
(-1.8165643e+50 6.3774377e+48 2.3971595e+49)
(-2.3032546e+50 3.2942759e+48 2.7857277e+49)
(-2.3164064e+50 5.0621657e+46 2.7853119e+49)
(-1.8103057e+50 6.6201836e+48 2.4624661e+49)
(-1.814152e+50 7.1841215e+48 2.4615102e+49)
(-2.3118744e+50 -1.5497619e+46 2.8478834e+49)
(-2.3162124e+50 3.6215723e+48 2.8327072e+49)
(-1.565176e+50 5.6989673e+48 2.2269368e+49)
(-1.5681989e+50 6.3428804e+48 2.2461913e+49)
(-1.9876042e+50 4.2560507e+48 2.6217515e+49)
(-1.984081e+50 2.1451862e+48 2.634712e+49)
(-1.573619e+50 5.2825126e+48 2.369814e+49)
(-1.5793913e+50 6.2336648e+48 2.2704054e+49)
(-1.9756693e+50 5.0708627e+48 2.6901333e+49)
(-1.985816e+50 2.7582533e+48 2.68778e+49)
(-1.5539737e+50 5.4781046e+48 2.2240764e+49)
(-1.5635609e+50 6.8661756e+48 2.166838e+49)
(-1.9647473e+50 5.2930396e+48 2.5427984e+49)
(-1.9741066e+50 3.4588845e+48 2.5603828e+49)
(-1.975149e+50 5.0331879e+48 2.6218777e+49)
(-1.5558022e+50 6.5669304e+48 2.2244235e+49)
(-1.5491961e+50 6.6887311e+48 2.2002948e+49)
(-1.9671645e+50 2.5741662e+48 2.6172694e+49)
(-3.5197184e+50 -1.9944346e+48 -4.4971401e+48)
(-2.841126e+50 -1.3436426e+49 8.8043375e+48)
(-2.65171e+50 -1.1544752e+49 -9.1263863e+48)
(-2.705079e+50 -9.237181e+48 -7.2342632e+48)
(-2.2469722e+50 -9.4269124e+48 -4.8675433e+48)
(-2.2003928e+50 -1.4587027e+49 -7.2141718e+48)
(-2.2913028e+50 -1.0693116e+49 -6.5780044e+48)
(-2.289962e+50 -6.6753934e+48 -3.7412045e+48)
(-2.7616341e+50 -1.6629841e+49 6.4463348e+48)
(-2.4599448e+50 -3.0383114e+48 -1.0074648e+49)
(-2.4555179e+50 -4.1945427e+48 -1.0668265e+49)
(-2.5110504e+50 -5.0286267e+48 -5.0676739e+48)
(-2.5371866e+50 -2.8928577e+48 -3.829206e+48)
(-2.5197233e+50 -3.6041563e+48 1.539475e+48)
(-2.5923974e+50 -3.4072476e+48 1.5605532e+49)
(-2.6019367e+50 -6.6147909e+48 1.550469e+49)
(-2.5029134e+50 -5.3261847e+48 8.4082171e+47)
(-2.5659291e+50 -3.2516377e+48 -4.0904608e+48)
(-2.4704253e+50 -3.1220392e+48 -1.0745444e+49)
(-2.4736766e+50 -2.7376647e+48 -1.1432369e+49)
(-2.5485611e+50 -2.0767036e+48 -5.3074145e+48)
(-2.6345926e+50 -3.8008402e+48 1.574812e+49)
(-2.6163027e+50 -8.7135009e+47 1.4484562e+49)
(-2.5246344e+50 -1.8804704e+48 -2.8842324e+47)
(-2.5362056e+50 -2.6907294e+48 8.8012352e+47)
(-2.1830094e+50 3.78971e+47 -4.9149116e+48)
(-2.1527909e+50 1.3651229e+47 -8.1665526e+48)
(-2.1502791e+50 -2.7072352e+46 -8.4938037e+48)
(-2.1892243e+50 -2.9663053e+47 -4.6318989e+48)
(-2.2016925e+50 -1.8036764e+47 -8.106441e+48)
(-2.1958064e+50 -7.1709475e+46 -8.4460288e+48)
(-2.1756931e+50 -6.4069148e+47 -1.0326601e+49)
(-2.1826881e+50 7.3804325e+46 -9.8028287e+48)
(-2.1724543e+50 4.6652868e+47 -5.5548554e+48)
(-2.1366673e+50 6.0337028e+47 -8.4287593e+48)
(-2.1298096e+50 -3.8692074e+46 -9.4359235e+48)
(-2.1744512e+50 4.9037453e+46 -4.8043081e+48)
(-2.1840722e+50 9.1020883e+46 -8.2498932e+48)
(-2.1780555e+50 -1.6787755e+47 -9.1784446e+48)
(-2.306536e+50 -6.3685037e+47 1.8700467e+49)
(-2.215011e+50 1.9763003e+48 8.1608579e+48)
(-2.2145166e+50 -3.9673633e+47 7.9688081e+48)
(-2.2947503e+50 2.8177338e+48 1.8715537e+49)
(-2.1628311e+50 -1.1912085e+47 -3.4025047e+48)
(-2.233682e+50 1.5886923e+48 3.2952134e+48)
(-2.1584427e+50 7.2670905e+47 -3.5298883e+48)
(-2.2382293e+50 -5.3887413e+47 3.2518583e+48)
(-2.1999195e+50 2.0315389e+48 7.0002297e+48)
(-2.2929735e+50 2.7548115e+48 1.7821018e+49)
(-2.3019429e+50 -3.3490703e+47 1.8724408e+49)
(-2.1998939e+50 2.5830052e+47 7.6276492e+48)
(-2.2274658e+50 -1.9151161e+47 3.0281812e+48)
(-2.1441346e+50 7.9923538e+47 -4.3784215e+48)
(-2.2251507e+50 1.5252568e+48 2.46052e+48)
(-2.1449384e+50 3.1701644e+47 -3.6759625e+48)
(-2.1960825e+50 -1.7746992e+48 1.9326542e+49)
(-2.1935267e+50 1.2802219e+48 1.9452639e+49)
(-2.1938665e+50 -1.2886909e+48 2.0588458e+49)
(-2.2021617e+50 2.638036e+48 1.9866192e+49)
(-2.1997032e+50 -4.4326873e+48 2.0662301e+49)
(-2.5291998e+50 -9.8053993e+48 2.3176785e+49)
(-2.1936067e+50 -7.974371e+47 2.0880397e+49)
(-2.1893794e+50 -3.3183616e+48 2.0061143e+49)
(-2.2016559e+50 4.376158e+46 1.9642159e+49)
(-2.5194624e+50 -8.4111754e+48 2.2027712e+49)
(-2.461601e+50 -2.5527842e+49 1.2880043e+49)
(-2.1504498e+50 -1.7523671e+49 -1.0455073e+49)
(-2.0168536e+50 -2.6395964e+49 -1.2536101e+49)
(-2.1139026e+50 -2.1547234e+49 -1.0474942e+49)
(-2.1603824e+50 -1.7035178e+49 -8.4017854e+48)
(-2.4917594e+50 -1.7082936e+49 2.3154797e+49)
(-2.4566055e+50 -1.57307e+49 2.1794787e+49)
(-2.1492762e+50 -8.7341125e+48 -3.4204009e+48)
(-2.2165398e+50 -6.5400188e+48 -1.4176245e+48)
(-2.1962206e+50 -7.8110509e+48 -3.2080434e+48)
(-2.1049155e+50 -1.1378981e+49 -5.6358897e+48)
(-1.8606463e+50 3.9872201e+48 1.8787672e+49)
(-1.8641328e+50 1.9430237e+48 1.868764e+49)
(-1.8709724e+50 4.4836278e+48 1.9315687e+49)
(-1.8597994e+50 1.6369054e+48 1.9609594e+49)
(-1.8752946e+50 3.8886393e+48 2.0248878e+49)
(-1.8782914e+50 1.2709134e+48 1.9932471e+49)
(-1.8827399e+50 3.6089899e+48 1.9129195e+49)
(-1.8748593e+50 1.1939557e+48 1.9560827e+49)
(-2.1614621e+50 -1.7380966e+49 -1.3179239e+49)
(-1.9754196e+50 -1.7372116e+49 -1.7687633e+49)
(-1.7446749e+50 -2.0083612e+49 -2.1954984e+49)
(-2.1535465e+50 -1.5761158e+49 -1.8995862e+49)
(-2.0792684e+50 -1.212898e+49 -1.0046479e+49)
(-2.3316166e+50 -9.5166341e+48 -1.2768072e+49)
(-2.3426775e+50 -3.372029e+48 -7.7467417e+48)
(-2.0644355e+50 -1.0909775e+49 -6.8782597e+48)
(-2.8940365e+50 9.8746918e+48 -2.2479233e+49)
(-2.8771775e+50 9.7266708e+48 -2.3631623e+49)
(-2.9034789e+50 8.641774e+48 -1.3385882e+49)
(-2.3826325e+50 -8.4989912e+45 -1.6464628e+49)
(-2.4334212e+50 -1.7982444e+48 -1.9736516e+49)
(-2.2839116e+50 -8.2555403e+47 -2.142021e+49)
(-2.2503448e+50 -3.6597544e+48 -2.0075302e+49)
(-2.4164089e+50 1.9815671e+48 -1.9845181e+49)
(-2.4344846e+50 9.4165954e+47 -2.1445181e+49)
(-2.2905641e+50 3.2009885e+48 -2.4163854e+49)
(-2.2718835e+50 -2.6375945e+47 -2.286829e+49)
(-1.8404426e+50 -4.5294733e+48 -2.7408236e+49)
(-1.8833549e+50 1.6639193e+48 -2.9633867e+49)
(-1.4661423e+50 -1.6844363e+48 1.045503e+49)
(-1.5007936e+50 9.693286e+48 1.0241772e+49)
(-1.8609191e+50 2.2241418e+47 -3.065213e+49)
(-1.882085e+50 6.3028497e+48 -3.1823384e+49)
(-1.4596985e+50 3.8206128e+48 7.2131244e+48)
(-1.4533749e+50 1.44303e+49 5.456488e+48)
(-2.3825245e+50 3.5412923e+46 -1.7483536e+49)
(-2.3695321e+50 3.3940681e+48 -1.6692101e+49)
(-2.4229297e+50 3.8550155e+48 -3.0000425e+49)
(-2.429277e+50 3.3034145e+48 -2.9415663e+49)
(-2.3842503e+50 4.1123296e+48 -1.7651843e+49)
(-2.4277341e+50 5.2646952e+48 -3.0880762e+49)
(-2.4293785e+50 4.7028869e+48 -3.0726202e+49)
(-2.3847892e+50 6.826301e+47 -1.8437586e+49)
(-1.9229089e+50 2.7141069e+48 -3.0363006e+49)
(-1.9367955e+50 2.0490018e+47 -3.1101583e+49)
(-1.6216589e+50 3.183778e+48 -3.6292498e+49)
(-1.6086777e+50 3.7050782e+48 -3.6373733e+49)
(-1.6125973e+50 3.5406938e+48 -3.5803951e+49)
(-1.9303765e+50 2.2369147e+48 -2.998481e+49)
(-1.9349771e+50 8.0475957e+47 -3.0805688e+49)
(-1.6186566e+50 4.2213209e+48 -3.6456033e+49)
(-1.1427627e+50 6.5235213e+48 -3.1235442e+49)
(-1.0341826e+50 5.2678816e+48 1.1012563e+49)
(-1.0305115e+50 1.115607e+49 9.9543353e+48)
(-1.1331947e+50 4.1298326e+48 -3.0560181e+49)
(-1.1227823e+50 3.8066324e+48 -3.0945357e+49)
(-1.1477117e+50 5.2461024e+48 -3.1000354e+49)
(-1.0334761e+50 3.849159e+48 1.1668975e+49)
(-1.0507878e+50 9.4697063e+48 1.1563869e+49)
(-1.9314808e+50 3.6813655e+48 -3.1058973e+49)
(-1.9459646e+50 1.2662017e+48 -3.1822848e+49)
(-1.6145952e+50 4.9658015e+48 -3.6874847e+49)
(-1.6292191e+50 4.3882811e+48 -3.6791111e+49)
(-1.6122982e+50 4.9304218e+48 -3.6326843e+49)
(-1.9339885e+50 3.4558015e+48 -3.0782974e+49)
(-1.9404687e+50 1.9888391e+48 -3.1551671e+49)
(-1.6219574e+50 5.4956652e+48 -3.7016117e+49)
(-1.1346769e+50 6.1886364e+48 -3.0990031e+49)
(-1.1439452e+50 8.1520188e+48 -3.184551e+49)
(-1.0266539e+50 7.863242e+48 1.0150328e+49)
(-1.0267257e+50 1.2940349e+49 9.5098507e+48)
(-1.131013e+50 5.620479e+48 -3.1541521e+49)
(-1.1543375e+50 6.9915954e+48 -3.170791e+49)
(-1.0229268e+50 6.501633e+48 1.0082055e+49)
(-1.0413951e+50 1.2008201e+49 1.0068063e+49)
(-2.4806794e+50 4.7484927e+48 -2.6579888e+49)
(-1.9490453e+50 4.1533612e+48 -3.3363414e+49)
(-1.958239e+50 8.4672349e+47 -3.3547651e+49)
(-2.4722921e+50 4.1051753e+48 -1.3924757e+49)
(-2.5205944e+50 1.7221502e+48 -1.5642146e+49)
(-2.4818383e+50 3.6461043e+48 -2.543618e+49)
(-1.9475749e+50 3.6406612e+48 -3.2618533e+49)
(-1.6912068e+50 5.7775784e+48 -4.1226252e+49)
(-1.7059728e+50 4.8392157e+48 -4.1122499e+49)
(-1.6932098e+50 5.644687e+48 -4.0594745e+49)
(-1.1545234e+50 4.2174385e+48 -3.4715091e+49)
(-1.1576381e+50 2.809255e+48 -3.474867e+49)
(-8.4228389e+49 4.5254864e+48 -3.7140392e+49)
(-8.2948294e+49 5.908711e+48 -3.779675e+49)
(-8.4242449e+49 5.1993716e+48 -3.7355566e+49)
(-1.1667034e+50 2.5045334e+48 -3.5013781e+49)
(-1.1689141e+50 3.4367606e+48 -3.4524533e+49)
(-8.5167579e+49 4.7109295e+48 -3.7652351e+49)
(-9.95631e+49 4.3407694e+48 1.6710045e+49)
(-1.0039563e+50 7.0706296e+48 1.6484932e+49)
(-6.6161384e+49 7.530486e+48 -9.3823868e+48)
(-6.6700138e+49 6.9144001e+48 -1.0504636e+49)
(-6.7017262e+49 7.493581e+48 -9.7785492e+48)
(-9.9124638e+49 5.0228603e+48 1.5692711e+49)
(-6.5916516e+49 6.9391146e+48 -1.2301844e+49)
(-9.7799384e+49 6.9687562e+48 1.4616467e+49)
(-1.1522177e+50 3.802898e+48 -3.4181648e+49)
(-1.1554549e+50 2.7596633e+48 -3.4258385e+49)
(-8.2896319e+49 5.6468838e+48 -3.7255332e+49)
(-8.4556871e+49 4.9657778e+48 -3.6621396e+49)
(-6.5728179e+49 7.4562641e+48 -9.3914277e+48)
(-9.8264044e+49 4.1330779e+48 1.5500469e+49)
(-6.6605573e+49 7.6209652e+48 -1.0473263e+49)
(-9.9337614e+49 7.7501819e+48 1.5563303e+49)
(-6.7137272e+49 8.4069332e+48 -9.0332739e+48)
(-9.8683883e+49 6.2190269e+48 1.5662927e+49)
(-2.1437956e+50 -8.0681164e+48 3.1833989e+49)
(-2.5036414e+50 -2.1733547e+49 2.7172608e+49)
(-1.8478447e+50 -1.0141111e+48 2.7453973e+49)
(-2.3268462e+50 -6.5101958e+48 3.0532103e+49)
(-1.8547571e+50 5.9138268e+47 2.8074528e+49)
(-2.3290235e+50 -9.3989874e+48 3.1239184e+49)
(-1.855253e+50 -1.9125892e+48 2.7960968e+49)
(-2.3149181e+50 -1.1499797e+49 3.1185729e+49)
(-1.8449845e+50 -3.0146313e+48 2.8781504e+49)
(-2.2971012e+50 -8.0396373e+48 3.0808844e+49)
(-1.8445366e+50 2.7988268e+48 2.6659311e+49)
(-1.834717e+50 3.2884056e+48 2.6423545e+49)
(-2.3394682e+50 -1.1688026e+48 3.0517616e+49)
(-2.3310827e+50 -4.9688561e+48 3.0649622e+49)
(-1.8447122e+50 6.4848745e+47 2.7627648e+49)
(-2.3309566e+50 -2.8041549e+48 3.0786364e+49)
(-1.8527514e+50 2.4152141e+48 2.662042e+49)
(-2.3421789e+50 -5.4758106e+48 3.0643619e+49)
(-1.5843858e+50 2.4683835e+48 2.4330606e+49)
(-1.5868952e+50 3.2110702e+48 2.3373855e+49)
(-1.9958248e+50 1.7695323e+48 2.7692906e+49)
(-2.002896e+50 -2.9455894e+47 2.7508175e+49)
(-1.5812691e+50 3.1561755e+48 2.3005109e+49)
(-1.5827502e+50 3.7773404e+48 2.3448051e+49)
(-1.9994675e+50 1.3783878e+48 2.6669092e+49)
(-1.996816e+50 -9.363648e+47 2.7129397e+49)
(-1.9896286e+50 2.5980006e+48 2.6666364e+49)
(-1.5732154e+50 3.2874129e+48 2.3606681e+49)
(-1.5758836e+50 4.8037513e+48 2.2755069e+49)
(-1.995262e+50 8.9932217e+47 2.6591116e+49)
(-1.571635e+50 4.6489195e+48 2.2828615e+49)
(-1.5687951e+50 5.0745654e+48 2.3029793e+49)
(-1.9827061e+50 2.0424322e+47 2.6701685e+49)
(-1.9886251e+50 2.6492741e+48 2.6428298e+49)
(-1.5671466e+50 4.3995642e+48 2.3357554e+49)
(-1.5736019e+50 5.2184701e+48 2.2474469e+49)
(-1.9853204e+50 1.5856893e+48 2.6222621e+49)
(-1.9750853e+50 3.7827649e+48 2.6202933e+49)
(-1.5695154e+50 5.2710505e+48 2.2371034e+49)
(-1.5669958e+50 6.0574497e+48 2.2231546e+49)
(-1.983688e+50 1.5535209e+48 2.5730725e+49)
(-1.9872267e+50 3.4599022e+48 2.546417e+49)
(-1.5704164e+50 5.5601118e+48 2.3104053e+49)
(-1.5772688e+50 6.4730387e+48 2.2340787e+49)
(-1.9906122e+50 2.9846196e+48 2.6254388e+49)
(-1.9827194e+50 4.8959791e+48 2.619069e+49)
(-1.5751306e+50 6.378836e+48 2.2908263e+49)
(-1.5740578e+50 6.2639597e+48 2.299315e+49)
(-1.9853504e+50 1.8018092e+48 2.687737e+49)
(-1.9899371e+50 4.4279727e+48 2.6633588e+49)
(-1.3498383e+50 5.769906e+48 2.0105366e+49)
(-1.346919e+50 3.5819283e+48 2.0806834e+49)
(-1.7157069e+50 4.8590496e+48 2.1717324e+49)
(-1.7190755e+50 3.689806e+48 2.2085088e+49)
(-1.344417e+50 5.3701985e+48 2.067672e+49)
(-1.3307027e+50 6.2011999e+48 1.9731876e+49)
(-1.7088251e+50 2.8691078e+48 2.2313415e+49)
(-1.7171687e+50 4.6710471e+48 2.2737776e+49)
(-1.7177291e+50 5.0129906e+48 2.3324692e+49)
(-1.3621742e+50 3.789394e+48 2.2162662e+49)
(-1.3520062e+50 5.5978086e+48 2.0499635e+49)
(-1.7194492e+50 3.4677904e+48 2.3088075e+49)
(-1.3359611e+50 5.821688e+48 1.9615676e+49)
(-1.347539e+50 4.8507871e+48 2.0571353e+49)
(-1.7232142e+50 4.4480694e+48 2.2573724e+49)
(-1.718466e+50 3.0841226e+48 2.2273787e+49)
(-1.3325238e+50 3.7658767e+48 2.0584545e+49)
(-1.3315002e+50 6.1036312e+48 1.9563728e+49)
(-1.6955741e+50 4.9477234e+48 2.15098e+49)
(-1.7021661e+50 3.8525965e+48 2.1927651e+49)
(-1.7016349e+50 4.8771662e+48 2.1074512e+49)
(-1.3236964e+50 5.388636e+48 1.9387187e+49)
(-1.3156253e+50 6.3398588e+48 1.8674792e+49)
(-1.701087e+50 3.7364514e+48 2.1284854e+49)
(-1.3371818e+50 6.6701776e+48 1.9941941e+49)
(-1.3346487e+50 4.1584597e+48 2.0609596e+49)
(-1.7024673e+50 5.5519675e+48 2.1649126e+49)
(-1.7069101e+50 4.5054388e+48 2.2294331e+49)
(-1.3239291e+50 6.0587556e+48 2.0076769e+49)
(-1.3268632e+50 5.7316356e+48 2.0161764e+49)
(-1.6985763e+50 5.1447482e+48 2.2358319e+49)
(-1.6944024e+50 3.0405048e+48 2.2337455e+49)
(-2.5616797e+50 -1.6363003e+49 -1.2624487e+49)
(-2.2764854e+50 -4.240211e+48 -6.2011489e+48)
(-2.2185493e+50 -5.9372145e+48 -8.0856461e+48)
(-2.1804181e+50 -1.2299736e+49 -1.2173885e+49)
(-2.1916661e+50 -1.0451521e+49 -1.2886984e+49)
(-2.6471807e+50 -2.6143829e+49 2.915683e+48)
(-2.615408e+50 -8.2791146e+48 1.6046809e+49)
(-2.6378629e+50 -9.7961768e+48 1.754248e+49)
(-2.5223829e+50 -7.3551985e+48 1.7231337e+48)
(-2.5037774e+50 -8.1273534e+48 9.0341341e+46)
(-2.3975078e+50 -7.4044255e+48 -9.6915637e+48)
(-2.495715e+50 -1.083632e+49 -3.7914113e+48)
(-2.4096904e+50 -8.1019751e+48 -9.6711869e+48)
(-2.467388e+50 -9.892073e+48 -4.160652e+48)
(-2.4400999e+50 -5.8718648e+48 -1.1178622e+49)
(-2.5407333e+50 -7.2281799e+48 -3.666115e+48)
(-2.4412426e+50 -5.7344453e+48 -1.0078738e+49)
(-2.5221386e+50 -6.6928734e+48 -5.196809e+48)
(-2.1768828e+50 -2.5791972e+48 -5.2379927e+48)
(-2.1713284e+50 -5.5287336e+48 -5.3921633e+48)
(-2.2216409e+50 -5.0724363e+48 -3.5156594e+48)
(-2.2306692e+50 -1.9787545e+48 -3.9496648e+48)
(-2.4632474e+50 -1.2856586e+49 1.6922234e+48)
(-2.5744779e+50 -1.6328282e+49 1.6449903e+49)
(-2.5328633e+50 -1.4872902e+49 1.5666881e+49)
(-2.4830709e+50 -1.2591574e+49 2.2651332e+48)
(-2.1654464e+50 -1.6441656e+48 -9.3528303e+48)
(-2.1544497e+50 -2.1105407e+48 -9.4107678e+48)
(-2.1813221e+50 -1.9315103e+48 -7.6211299e+48)
(-2.1924411e+50 -2.1701799e+48 -7.5618328e+48)
(-2.1569617e+50 -2.3144012e+48 -1.0596757e+49)
(-2.1557405e+50 -1.6479625e+48 -9.6336658e+48)
(-2.1650993e+50 -2.3158873e+48 -9.4666725e+48)
(-2.1657963e+50 -2.121769e+48 -8.4801138e+48)
(-2.1648203e+50 -2.3232563e+48 -6.0056364e+48)
(-2.1292081e+50 -2.3145466e+48 -9.2691914e+48)
(-2.1306228e+50 -1.7303871e+48 -8.2202496e+48)
(-2.1651227e+50 -2.4648329e+48 -5.0740778e+48)
(-2.146551e+50 -2.2834011e+48 -7.726035e+48)
(-2.1402928e+50 -2.2157667e+48 -7.7973596e+48)
(-2.1675239e+50 -2.4221794e+48 -4.8902205e+48)
(-2.1808785e+50 -3.188275e+48 -4.5736711e+48)
(-2.150288e+50 -2.2373971e+48 -3.3072394e+48)
(-2.1587028e+50 -3.1758221e+48 -3.0619089e+48)
(-2.2356253e+50 -3.8903572e+48 3.6601971e+48)
(-2.2242344e+50 -1.7353888e+48 3.4759122e+48)
(-2.2908912e+50 -1.1345341e+48 1.8979779e+49)
(-2.2161129e+50 -3.8504911e+48 8.6641819e+48)
(-2.2127491e+50 -1.380772e+48 8.6963682e+48)
(-2.3065112e+50 -4.4779423e+48 1.9262692e+49)
(-2.3110367e+50 -4.9632134e+47 1.8478202e+49)
(-2.2025639e+50 -2.6001854e+48 7.9581449e+48)
(-2.2056679e+50 -1.0278278e+48 6.9525057e+48)
(-2.3016306e+50 -3.6317439e+48 1.8997969e+49)
(-2.2260581e+50 -1.636256e+48 2.1504066e+48)
(-2.1432414e+50 -2.203533e+48 -3.7044112e+48)
(-2.1439523e+50 -2.0529497e+48 -4.6981672e+48)
(-2.2258287e+50 -2.9944219e+48 3.0668509e+48)
(-2.1476526e+50 -2.4180714e+47 -7.8715286e+48)
(-2.1405038e+50 -6.3527999e+47 -8.9772485e+48)
(-2.184503e+50 -1.751383e+47 -5.1857309e+48)
(-2.1875341e+50 -8.3435039e+47 -4.2848295e+48)
(-2.1957566e+50 -7.4771875e+47 -7.769587e+48)
(-2.188772e+50 -7.4580858e+47 -8.6917235e+48)
(-2.1589932e+50 -1.204525e+48 -1.0639038e+49)
(-2.1721381e+50 -4.4496568e+47 -9.4872133e+48)
(-2.1843752e+50 -1.3097067e+48 -8.5549614e+48)
(-2.1623645e+50 -8.3426816e+47 -1.0142697e+49)
(-2.1562234e+50 -1.773603e+48 -1.0526032e+49)
(-2.1892227e+50 -1.1777742e+48 -8.3535057e+48)
(-2.1723448e+50 -1.0994056e+48 -5.6618874e+48)
(-2.1436277e+50 -9.0247263e+47 -8.516134e+48)
(-2.1392478e+50 -1.2353096e+48 -8.7285927e+48)
(-2.1780984e+50 -1.4974843e+48 -5.3973203e+48)
(-2.2147511e+50 -6.5552555e+47 8.5800137e+48)
(-2.2142028e+50 1.6248207e+48 7.5835631e+48)
(-2.3116187e+50 2.1693101e+48 1.862184e+49)
(-2.3087634e+50 -1.5582396e+48 1.9396392e+49)
(-2.2091414e+50 -1.285915e+48 7.3247949e+48)
(-2.2068137e+50 3.9333816e+47 7.2149913e+48)
(-2.298053e+50 1.1852441e+48 1.799932e+49)
(-2.3054588e+50 -1.7224735e+48 1.8035794e+49)
(-2.2253266e+50 -5.0140959e+46 2.3020014e+48)
(-2.1496152e+50 -7.8724213e+47 -4.346878e+48)
(-2.1561463e+50 -1.1264286e+48 -4.0365845e+48)
(-2.2325802e+50 -1.536297e+48 2.5045665e+48)
(-2.2386019e+50 9.1385573e+47 2.8183952e+48)
(-2.1580631e+50 2.0595038e+47 -4.0571487e+48)
(-2.1600859e+50 -4.8962902e+47 -3.0524963e+48)
(-2.241965e+50 -1.1210243e+48 3.7336633e+48)
(-1.7694997e+50 1.2742319e+48 -6.1372828e+48)
(-1.8082534e+50 1.3785632e+48 -4.2950571e+48)
(-1.7716802e+50 1.0818903e+48 -5.8593093e+48)
(-1.8135477e+50 7.7749713e+47 -3.997249e+48)
(-1.7913186e+50 8.5978944e+47 -6.7440745e+48)
(-1.7809304e+50 7.4577643e+47 -6.6637737e+48)
(-1.8163542e+50 1.1053547e+48 -5.8262358e+48)
(-1.8074983e+50 7.4128463e+47 -5.6942228e+48)
(-1.7838428e+50 8.966929e+47 -6.862803e+48)
(-1.8075337e+50 1.1147975e+48 -5.9242181e+48)
(-1.7865439e+50 9.2460958e+47 -6.5579459e+48)
(-1.8112469e+50 8.6602993e+47 -5.6567377e+48)
(-1.776164e+50 1.2435326e+48 -6.1061303e+48)
(-1.8169732e+50 1.3004117e+48 -4.343932e+48)
(-1.7658881e+50 9.4778924e+47 -5.9461744e+48)
(-1.8089205e+50 6.390029e+47 -4.0994743e+48)
(-1.81349e+50 6.3473707e+47 -6.9093764e+48)
(-1.8331726e+50 8.1213422e+47 -5.8961112e+48)
(-1.8044585e+50 5.3909878e+47 -6.9067817e+48)
(-1.8240653e+50 4.7912076e+47 -5.8362922e+48)
(-1.8078146e+50 7.0074153e+47 -6.9813011e+48)
(-1.8242765e+50 7.9027179e+47 -6.0679169e+48)
(-1.8095438e+50 7.4906973e+47 -6.7370606e+48)
(-1.8283583e+50 6.1284319e+47 -5.7759058e+48)
(-1.867535e+50 6.1839752e+47 -6.7131816e+48)
(-1.8705034e+50 4.2868598e+47 -6.4776681e+48)
(-1.8875489e+50 4.7761237e+47 -8.7773925e+48)
(-1.8881921e+50 2.8875406e+47 -8.5376958e+48)
(-1.8747603e+50 6.4476495e+47 -6.6035584e+48)
(-1.8664908e+50 2.6221256e+47 -6.6118154e+48)
(-1.8832742e+50 1.4580312e+47 -8.7421627e+48)
(-1.8927277e+50 4.7106537e+47 -8.722015e+48)
(-1.7428511e+50 1.0977538e+48 -7.1397253e+48)
(-1.7476002e+50 1.4548545e+48 -6.6840337e+48)
(-1.7852425e+50 1.2860457e+48 -5.15186e+48)
(-1.7920892e+50 1.1247711e+48 -4.70615e+48)
(-1.7700402e+50 1.3338546e+48 -6.9272989e+48)
(-1.7963519e+50 1.5888109e+48 -5.9744948e+48)
(-1.7950011e+50 1.3245811e+48 -5.5918169e+48)
(-1.754995e+50 6.6065557e+47 -7.980409e+48)
(-1.7807555e+50 9.2897749e+47 -6.9422146e+48)
(-1.7608494e+50 1.3048365e+48 -7.5103835e+48)
(-1.7868591e+50 1.2100648e+48 -6.5177875e+48)
(-1.7569888e+50 1.7710897e+48 -6.2039497e+48)
(-1.7518756e+50 1.5834177e+48 -5.853511e+48)
(-1.7995137e+50 1.8070928e+48 -4.4078006e+48)
(-1.7950607e+50 1.1771893e+48 -4.0244894e+48)
(-1.7893676e+50 1.0976643e+48 -7.1623637e+48)
(-1.8114532e+50 1.2584717e+48 -6.1104688e+48)
(-1.773787e+50 3.7001102e+47 -8.321072e+48)
(-1.7944488e+50 5.3811435e+47 -7.2037513e+48)
(-1.779792e+50 1.1602516e+48 -7.9643342e+48)
(-1.8017038e+50 9.6473568e+47 -6.772365e+48)
(-1.900928e+50 3.08696e+48 1.2796619e+49)
(-1.8944951e+50 9.9652413e+47 1.3250233e+49)
(-1.9836088e+50 3.3688545e+48 2.0292819e+49)
(-1.9796616e+50 7.7057697e+47 2.078889e+49)
(-1.8682195e+50 1.0356529e+48 3.1650213e+48)
(-1.8647197e+50 2.4083143e+48 3.0905578e+48)
(-1.937745e+50 3.1104793e+48 9.4595491e+48)
(-1.9428816e+50 1.0630358e+48 9.4203452e+48)
(-1.8705032e+50 2.2701277e+48 2.7133245e+48)
(-1.8619077e+50 9.0222208e+47 3.1118544e+48)
(-1.9439025e+50 2.5635324e+48 8.8749323e+48)
(-1.9398782e+50 6.8921809e+47 9.3075846e+48)
(-1.898148e+50 9.9684227e+47 1.3445965e+49)
(-1.8986471e+50 3.4629088e+48 1.3701237e+49)
(-1.9712407e+50 3.8856317e+48 2.0873199e+49)
(-1.9794001e+50 1.1563337e+48 2.0842144e+49)
(-1.7896508e+50 1.4391978e+48 -5.172118e+48)
(-1.8374981e+50 1.5620839e+48 -3.4812512e+48)
(-1.7800767e+50 9.5714816e+47 -4.9133335e+48)
(-1.8311989e+50 7.9185551e+47 -3.178685e+48)
(-1.8125277e+50 1.1815948e+48 -2.8465756e+48)
(-1.8103226e+50 1.8836264e+48 -3.0038573e+48)
(-1.8772131e+50 2.0953319e+48 1.2206599e+48)
(-1.8840085e+50 8.8372707e+47 1.4164063e+48)
(-1.7823644e+50 1.4959677e+48 -5.1057037e+48)
(-1.8301675e+50 1.6972137e+48 -3.3665421e+48)
(-1.785426e+50 1.0920693e+48 -4.8267976e+48)
(-1.834993e+50 9.8604353e+47 -3.1725528e+48)
(-1.815999e+50 1.815508e+48 -3.1886064e+48)
(-1.8076105e+50 1.0753135e+48 -2.8717306e+48)
(-1.8855281e+50 1.8841125e+48 1.0224624e+48)
(-1.8799548e+50 6.2588584e+47 1.4044677e+48)
(-1.8455772e+50 2.3799303e+48 2.1728867e+48)
(-1.8498922e+50 1.4838148e+48 2.4080342e+48)
(-1.919145e+50 3.0712824e+48 8.3615763e+48)
(-1.9250605e+50 1.5126701e+48 8.5048494e+48)
(-1.8796272e+50 3.5042211e+48 1.2447742e+49)
(-1.8805422e+50 1.626319e+48 1.2427712e+49)
(-1.9573829e+50 3.9810412e+48 1.9629117e+49)
(-1.9647053e+50 1.7271253e+48 1.9761893e+49)
(-1.8867506e+50 3.9659866e+48 1.2773688e+49)
(-1.8796186e+50 1.6598024e+48 1.3244686e+49)
(-1.9715515e+50 4.1355264e+48 2.0382004e+49)
(-1.9651237e+50 1.2210345e+48 2.0869135e+49)
(-1.8562932e+50 2.9290832e+48 2.659881e+48)
(-1.8488325e+50 1.5712696e+48 3.08711e+48)
(-1.9313853e+50 3.3317046e+48 8.8134678e+48)
(-1.9272093e+50 1.3718503e+48 9.2436939e+48)
(-1.7994095e+50 2.3713006e+48 -3.2627358e+48)
(-1.7929096e+50 1.7177421e+48 -2.8990547e+48)
(-1.8719626e+50 2.499162e+48 9.9953586e+47)
(-1.8672386e+50 1.2739489e+48 1.3906499e+48)
(-1.759489e+50 1.3874598e+48 -5.9542791e+48)
(-1.8093851e+50 1.6242004e+48 -4.1772537e+48)
(-1.7644443e+50 1.447193e+48 -5.5097715e+48)
(-1.8153269e+50 1.3182521e+48 -3.8390921e+48)
(-1.789465e+50 1.8050987e+48 -3.8284137e+48)
(-1.7925294e+50 1.5525099e+48 -3.5138589e+48)
(-1.8584355e+50 2.021177e+48 3.7513237e+47)
(-1.8658282e+50 1.2404119e+48 7.0722407e+47)
(-1.7727043e+50 1.9456856e+48 -5.236517e+48)