/*--------------------------------*- C++ -*----------------------------------*\
  =========                 |
  \\      /  F ield         | OpenFOAM: The Open Source CFD Toolbox
   \\    /   O peration     | Website:  https://openfoam.org
    \\  /    A nd           | Version:  7
     \\/     M anipulation  |
\*---------------------------------------------------------------------------*/
FoamFile
{
    version     2.0;
    format      ascii;
    class       volScalarField;
    location    "3000";
    object      nut;
}
// * * * * * * * * * * * * * * * * * * * * * * * * * * * * * * * * * * * * * //

dimensions      [0 2 -1 0 0 0 0];

internalField   nonuniform List<scalar> 
34158
(
2.2291117e-20
2.8472007e-20
4.5833482e-20
5.202753e-20
2.5477116e-20
2.6003281e-20
1.8458726e-20
1.9075382e-20
7.433676e-21
7.3349872e-21
2.8647116e-20
2.5154937e-20
1.7807799e-20
1.957079e-20
3.3018768e-20
3.989474e-20
2.9916412e-20
3.4513243e-20
3.0395985e-20
2.9930005e-20
4.3950563e-20
3.7368609e-20
6.9963095e-21
7.0831265e-21
1.6415025e-20
4.8038909e-21
4.5949237e-21
1.4474021e-20
1.0095651e-20
5.100307e-21
4.9415203e-21
9.8564379e-21
8.7715017e-21
5.0725989e-21
2.5524602e-20
2.4883387e-20
2.1428335e-20
1.9343934e-20
2.8966484e-20
3.8167743e-20
2.6420062e-20
3.629403e-20
2.7905883e-20
2.9861323e-20
3.4253567e-20
3.2435252e-20
2.750575e-20
2.0548951e-20
4.5040485e-20
3.9884963e-20
3.0038838e-20
3.8512386e-20
4.3401138e-20
4.3405151e-20
4.6369456e-20
4.2717573e-20
6.5983586e-20
6.7436383e-20
5.4766331e-20
5.7307577e-20
1.0368204e-20
6.9411786e-21
4.5985867e-21
1.410206e-20
1.8023406e-20
4.6889866e-21
7.4723164e-21
4.8292847e-21
4.7465726e-21
7.7779988e-21
9.845345e-21
5.1421644e-21
5.1692739e-21
8.70108e-21
2.967545e-21
2.6433566e-21
2.6633143e-21
3.9300931e-21
3.6867297e-21
3.4144067e-21
2.6315749e-21
3.2293626e-21
4.1379748e-21
4.0011613e-21
2.7500983e-21
2.6635634e-21
6.4994332e-21
6.931732e-21
5.5593162e-21
6.8604826e-21
7.0268939e-21
5.0794605e-21
5.2866829e-21
4.2217066e-21
2.6504769e-21
4.3246885e-21
2.7412074e-21
4.8445884e-21
4.3817601e-21
2.7809848e-21
2.855876e-21
5.9371453e-21
6.5371708e-21
5.7374116e-21
6.2551123e-21
2.6914629e-20
2.5580096e-20
5.3880403e-20
4.0290255e-20
1.4242762e-20
1.264652e-20
3.5409546e-20
3.3126672e-20
2.8891274e-20
2.7545079e-20
3.551451e-20
3.4187095e-20
1.0943872e-19
1.9371151e-20
4.9040681e-20
9.4252767e-20
2.0667882e-20
5.2226216e-20
4.0628955e-20
4.1763883e-20
2.1119003e-20
2.8522447e-20
3.9482717e-20
2.0692251e-20
2.9111536e-20
3.8759998e-20
6.9849662e-20
1.7979353e-20
4.0276529e-20
4.8720759e-20
1.368682e-19
1.0981028e-20
6.3285632e-20
4.2187876e-20
4.4073732e-20
4.6409648e-20
4.9842107e-20
5.0252232e-20
6.6678134e-20
5.6172802e-20
1.5282079e-20
4.9109766e-20
1.2222306e-20
4.8876367e-20
8.3705104e-20
8.1426696e-20
9.7326121e-21
1.0118967e-20
1.4081927e-20
4.4041381e-21
1.4365174e-20
7.2052249e-21
4.7800403e-21
4.8417957e-21
6.6633543e-21
2.4218134e-21
3.4980938e-21
3.2330684e-21
2.5056614e-21
3.0998427e-21
2.9936185e-21
2.6823553e-21
2.6335771e-21
3.6510105e-21
3.3968076e-21
2.8167102e-21
4.3127818e-21
4.0568908e-21
2.4876536e-21
5.7580691e-21
6.1578223e-21
4.914475e-21
4.9492615e-21
5.7236745e-21
6.6997124e-21
7.21943e-21
5.0922113e-21
4.0711132e-21
4.2492672e-21
2.6285777e-21
2.6740431e-21
2.5480891e-21
4.0563681e-21
4.1968551e-21
2.6376961e-21
5.8414368e-21
5.4314755e-21
6.0816761e-21
5.5715015e-21
7.1907657e-21
7.2678336e-21
5.4386747e-21
4.1889177e-21
2.6897651e-21
2.7701695e-21
4.2386277e-21
2.628591e-21
2.405915e-21
2.6895317e-21
1.0122428e-21
1.0252953e-21
1.5020561e-21
1.3934322e-21
1.0746398e-21
1.4705685e-21
1.3768864e-21
1.0637768e-21
2.4996048e-21
1.0445158e-21
1.0510175e-21
1.553375e-21
1.4736861e-21
2.8267442e-21
2.9277938e-21
2.6501588e-21
2.7514305e-21
2.6532886e-21
2.9787665e-21
2.1016481e-21
2.8471165e-21
2.6367311e-21
2.9551959e-21
3.3570088e-21
3.2505657e-21
2.9080546e-21
2.6800401e-21
2.8777832e-21
2.9629931e-21
2.79257e-21
5.1949654e-21
5.1930535e-21
6.1332505e-21
5.9698995e-21
5.7170408e-21
5.8165318e-21
6.6186788e-21
6.4935765e-21
6.6155038e-21
5.9617157e-21
6.2459717e-21
5.8201886e-21
5.7359097e-21
5.2980922e-21
5.214041e-21
6.024691e-21
6.3338233e-21
5.7463979e-21
5.2935285e-21
6.2543573e-21
5.7533404e-21
5.6223864e-21
5.8036357e-21
5.1633513e-21
5.3396481e-21
5.8428968e-21
5.8862646e-21
5.9403295e-21
5.6571666e-21
3.3534787e-21
2.8310215e-21
2.7365368e-21
2.8105537e-21
2.8616284e-21
2.9638717e-21
2.9973807e-21
2.8237846e-21
2.3903943e-21
2.9902942e-21
2.750854e-21
2.7582063e-21
2.9227218e-21
2.7629001e-21
2.891453e-21
3.0487526e-21
2.9449606e-21
2.7096519e-21
2.7496306e-21
2.8614635e-21
3.1986257e-21
2.309893e-21
2.6190079e-21
2.8574031e-21
3.19885e-21
2.900628e-21
2.8298544e-21
3.0006726e-21
2.7629543e-21
2.7169283e-21
2.8835219e-21
2.8660608e-21
6.277417e-21
7.0407976e-21
6.5525523e-21
6.1554061e-21
6.1367623e-21
5.2369922e-21
5.1304018e-21
6.247333e-21
6.0230319e-21
6.9556678e-21
6.0191242e-21
5.5098881e-21
6.0093393e-21
4.892036e-21
4.5667736e-21
5.5210611e-21
1.7379295e-20
2.765509e-20
2.5145394e-20
5.7218271e-20
4.5715927e-20
1.3417983e-20
1.2727257e-20
1.7142462e-20
4.2189324e-20
1.4577429e-20
4.3220146e-20
2.8490483e-20
3.0073428e-20
2.2853372e-20
4.1462181e-20
2.0929565e-20
4.5133297e-20
4.1853005e-20
3.9552491e-20
2.1486541e-20
4.0761065e-20
3.2464337e-20
1.996727e-20
2.4565517e-20
3.0637396e-20
8.6854622e-20
4.0251194e-20
2.4323589e-20
5.8966301e-20
1.202234e-19
1.8644923e-20
6.9526682e-20
5.1198986e-20
4.8098051e-20
4.3125662e-20
1.179862e-20
1.8589605e-20
1.8352136e-20
1.9606282e-20
1.7709254e-20
1.153791e-20
1.6553122e-20
1.8150667e-20
1.7174016e-20
1.8754824e-20
4.6264224e-20
5.1297775e-21
9.3148455e-21
4.5933645e-20
2.1718362e-20
3.436574e-21
1.2514877e-20
4.4558971e-20
6.640081e-20
6.2751085e-20
3.2885086e-20
4.6365503e-20
9.4374019e-21
4.1857303e-20
4.569813e-20
4.130941e-20
9.1575897e-21
4.1723858e-20
5.0412595e-20
5.5474895e-20
8.7169313e-20
7.0537323e-20
5.3143116e-20
3.7821776e-20
3.7316087e-20
3.3586362e-20
3.1956162e-20
5.8595336e-20
4.0524466e-20
3.9497697e-20
9.08603e-20
8.6677356e-20
3.581279e-21
3.3648776e-21
9.743023e-21
9.9151915e-21
1.193663e-20
7.4235752e-21
7.2922097e-21
8.6984698e-21
8.0319209e-21
7.9004897e-21
7.003447e-21
1.1594171e-20
1.2064796e-20
2.4220775e-21
2.4232744e-21
3.4117133e-21
3.118607e-21
3.1178571e-21
3.9892662e-21
4.3772385e-21
4.0828594e-21
2.6383571e-21
2.6433489e-21
4.9856061e-21
5.0610068e-21
4.9970364e-21
4.8635848e-21
5.7168917e-21
6.1765757e-21
4.8510092e-21
5.0701268e-21
3.9557485e-21
4.2465097e-21
2.6504954e-21
2.7714946e-21
1.4958745e-21
1.0189246e-21
1.0156377e-21
1.3908442e-21
2.30453e-21
2.5683885e-21
1.0742311e-21
1.0548681e-21
1.5128799e-21
1.4148876e-21
2.8126219e-21
2.5164927e-21
2.4198468e-21
2.682563e-21
1.0444974e-21
1.0526573e-21
1.5386673e-21
1.4769457e-21
1.0176293e-21
1.556065e-21
1.0567136e-21
1.477796e-21
3.6336149e-21
3.1272352e-21
2.8984107e-21
3.0011635e-21
2.1795017e-21
2.2125945e-21
2.628298e-21
2.6789015e-21
3.0900386e-21
3.1043406e-21
2.7398304e-21
2.7244539e-21
2.6850622e-21
2.5170475e-21
2.5265186e-21
2.5924475e-21
6.4964833e-21
7.3567166e-21
7.0813232e-21
6.3984872e-21
6.3086798e-21
5.1781472e-21
5.2816279e-21
6.66153e-21
5.6698711e-21
5.9087691e-21
6.3609703e-21
6.5247341e-21
6.0857715e-21
6.4640835e-21
6.3504805e-21
5.9237172e-21
5.4860929e-21
6.5572605e-21
6.184912e-21
5.5726286e-21
7.0673191e-21
5.2755401e-21
5.3627362e-21
6.310177e-21
5.3568217e-21
5.8703776e-21
5.8679964e-21
6.4137276e-21
5.524124e-21
5.3003997e-21
5.897363e-21
5.5703573e-21
2.7051368e-21
2.7470587e-21
2.5555039e-21
2.6082497e-21
3.2855596e-21
2.5229639e-21
2.5435461e-21
2.7092843e-21
2.7918317e-21
2.7091033e-21
2.9585989e-21
2.9108182e-21
2.9873158e-21
2.6719232e-21
2.9136321e-21
3.0251034e-21
3.181482e-21
2.9697289e-21
2.6997664e-21
2.7052317e-21
2.3369053e-21
2.4745959e-21
3.1378815e-21
2.7825293e-21
2.9185275e-21
2.7758332e-21
2.6031643e-21
2.6966277e-21
2.8489988e-21
2.6511465e-21
2.7322258e-21
2.8134251e-21
5.3920284e-21
4.4833236e-21
5.9843357e-21
4.7063821e-21
5.8385664e-21
6.0162579e-21
6.2396634e-21
5.7452701e-21
5.118882e-21
5.9249738e-21
6.3120108e-21
5.0104451e-21
6.1766623e-21
6.0322136e-21
5.794889e-21
5.5469457e-21
4.9664518e-21
6.2833868e-21
5.3921353e-21
5.3288229e-21
5.6414605e-21
5.8149377e-21
6.5478531e-21
6.1363483e-21
5.364541e-21
2.7927001e-21
2.7692469e-21
2.6168787e-21
2.6129918e-21
2.8636356e-21
3.1078018e-21
2.8190655e-21
3.0255771e-21
3.2579056e-21
2.8129321e-21
3.1326651e-21
3.1929246e-21
2.2168242e-21
2.5087629e-21
2.447313e-21
2.7130826e-21
2.6247696e-21
2.9184814e-21
2.216244e-21
2.5875127e-21
3.4579113e-21
4.133789e-21
4.6709282e-21
3.4047099e-21
8.5101486e-22
7.6836976e-22
7.2605827e-22
8.6380948e-22
9.3115996e-22
7.7505376e-22
7.5365802e-22
9.2929639e-22
7.8876031e-22
8.2692623e-22
9.6173005e-22
9.5213225e-22
8.2352345e-22
8.5062879e-22
9.6715751e-22
9.3672467e-22
2.3493317e-21
3.8002569e-21
3.9591884e-21
9.1521539e-22
8.1417294e-22
7.7333038e-22
9.3285217e-22
9.6804284e-22
8.2641433e-22
8.2044739e-22
9.8711327e-22
2.4125006e-21
2.7414574e-21
2.6722919e-21
5.7016719e-21
4.7853707e-21
4.5491409e-21
4.6144703e-21
4.7025494e-21
3.9728453e-21
5.0845126e-21
5.2473694e-21
1.1042624e-20
9.9994808e-21
8.9883162e-21
9.7981919e-21
8.5793292e-21
8.1867644e-21
8.2489834e-21
8.7132615e-21
1.1243398e-20
1.1067954e-20
1.0970969e-20
1.0620637e-20
1.2206725e-20
1.295389e-20
1.2466114e-20
1.1364933e-20
1.4700921e-20
1.3640829e-20
1.4137486e-20
1.4529259e-20
1.4112549e-20
1.1297338e-20
1.056079e-20
1.0771541e-20
1.0799079e-20
1.10866e-20
1.0988662e-20
1.0827491e-20
9.9503433e-21
1.4433072e-20
1.3811823e-20
1.2320953e-20
1.3352492e-20
1.4892308e-20
1.396488e-20
1.3618118e-20
1.3881157e-20
5.811112e-21
4.0263602e-21
4.8570522e-21
4.329899e-21
8.3245738e-21
8.1214011e-21
7.4566874e-21
7.5546295e-21
4.5958793e-21
5.4368569e-21
5.5839804e-21
4.5439494e-21
8.6628019e-21
7.4138394e-21
7.514764e-21
8.2936679e-21
4.794835e-21
4.4212019e-21
4.2579686e-21
4.6777927e-21
4.9535294e-21
3.7622635e-21
4.5752112e-21
4.8831958e-21
8.7386208e-21
8.9911432e-21
8.713985e-21
8.0468802e-21
8.2037752e-21
8.1600532e-21
7.8489239e-21
7.4762717e-21
1.4819363e-20
1.5096484e-20
1.4410691e-20
1.5052467e-20
1.1227621e-20
1.1125515e-20
1.1076427e-20
1.101639e-20
1.4891433e-20
1.4469867e-20
1.2937124e-20
1.0583164e-20
1.0590047e-20
1.0393286e-20
1.013319e-20
1.7482994e-20
2.8783259e-20
2.8915174e-20
2.1934982e-20
2.0725499e-20
2.2647218e-20
2.4053036e-20
2.2874248e-20
2.1062064e-20
4.7998393e-20
3.8217482e-20
1.3501469e-20
1.2504292e-20
1.6397763e-20
4.2698222e-20
1.4624135e-20
4.5239902e-20
4.1231955e-20
1.6202775e-20
1.1500393e-20
3.7912911e-20
4.5872225e-20
4.2017676e-20
4.1840067e-20
4.3478155e-20
2.0521381e-20
2.1033161e-20
9.576093e-20
2.0117964e-20
5.5948777e-20
1.048609e-19
1.8794416e-20
5.0816757e-20
4.50952e-20
4.6098823e-20
1.1538957e-20
1.8215639e-20
1.8569647e-20
1.7327093e-20
2.1495046e-20
1.1630943e-20
1.9850527e-20
1.8081166e-20
1.6920044e-20
1.8427212e-20
2.3581673e-19
8.2579254e-21
1.4366302e-20
4.1828114e-20
5.995763e-20
5.2062004e-21
1.7834563e-20
4.104139e-20
6.6687382e-20
5.5239624e-20
1.0062891e-20
9.1201867e-21
9.3546442e-21
9.4144754e-21
9.5163813e-21
4.868704e-20
4.4165259e-20
9.9688376e-21
8.9898938e-21
9.8648431e-21
9.6535771e-21
9.7411321e-21
4.0221172e-20
4.9555052e-20
8.5287718e-21
3.3920453e-21
8.5471425e-20
5.0146094e-20
5.1237327e-21
1.7192486e-20
5.056003e-20
5.1105722e-20
4.9130725e-21
3.6355932e-20
1.2341589e-20
3.5978397e-20
7.4628413e-22
4.1172335e-21
8.2992177e-22
3.772282e-21
3.1504428e-20
2.960967e-20
3.064738e-20
3.0849368e-20
2.3451755e-20
2.4073175e-20
2.4096572e-20
2.3763899e-20
3.3490519e-20
3.6033519e-20
3.7325594e-20
3.4904542e-20
2.5839223e-20
2.4568331e-20
5.1541151e-20
3.8453703e-20
4.057962e-20
3.4354467e-20
3.4587914e-20
6.110637e-20
3.4719591e-20
3.7420441e-20
3.2376315e-20
3.2150321e-20
3.4167325e-20
3.19607e-20
3.1679425e-20
3.0650906e-20
2.4195533e-20
2.0216638e-20
2.0647057e-20
2.3788417e-20
2.4398096e-20
2.1169531e-20
2.0925783e-20
2.3030522e-20
2.8555627e-20
2.7006205e-20
2.6648065e-20
2.4955009e-20
2.7067774e-20
2.6184558e-20
2.604955e-20
3.5529413e-20
3.1545505e-20
3.4347974e-20
3.7544046e-20
2.6270298e-20
2.2471727e-20
2.5261631e-20
2.3886792e-20
2.3177661e-20
5.292533e-20
3.8981097e-20
3.9099469e-20
6.2638153e-20
3.7184694e-20
3.889597e-20
3.256972e-20
3.4716843e-20
3.5674662e-21
1.021973e-20
6.2716771e-21
3.3670623e-21
3.5731485e-21
1.1636664e-20
8.597446e-21
3.4144384e-21
3.6523065e-21
9.7057232e-21
3.3798498e-21
7.2844852e-21
7.3229162e-21
6.9617438e-21
7.5811707e-21
1.8082867e-20
1.821775e-20
2.0559598e-20
1.9608099e-20
1.7171071e-20
7.1784456e-21
6.446463e-21
7.2438098e-21
7.4180209e-21
7.2868304e-21
6.9353171e-21
7.1757928e-21
6.9470377e-21
7.4062187e-21
2.727686e-21
1.0538928e-21
1.3724489e-21
1.0024341e-21
1.020278e-21
1.4982712e-21
1.4217319e-21
1.0206869e-21
9.9482493e-22
1.5286205e-21
1.4460887e-21
2.4527821e-21
2.3327372e-21
2.8962463e-21
2.7687772e-21
2.774284e-21
2.7354478e-21
2.8082677e-21
2.5849748e-21
2.5379778e-21
3.0779719e-21
2.4110217e-21
2.8402073e-21
2.7592412e-21
3.3351538e-21
1.9986354e-21
2.8984363e-21
2.8743879e-21
2.5409666e-21
2.4430164e-21
2.6961095e-21
2.7502139e-21
2.6274543e-21
2.3413783e-21
2.5674565e-21
2.7046363e-21
6.2771391e-21
5.5136641e-21
5.5731884e-21
6.3204161e-21
5.3874895e-21
5.3217776e-21
5.8190148e-21
6.2070671e-21
6.4277797e-21
5.9571e-21
5.6697176e-21
5.9841081e-21
6.2751437e-21
5.8033701e-21
6.2930283e-21
6.1763696e-21
6.0040584e-21
6.6784756e-21
6.3001262e-21
6.4860022e-21
6.203425e-21
7.2439304e-21
6.1349516e-21
5.2810946e-21
4.8441473e-21
5.8440715e-21
5.6522559e-21
5.5365439e-21
6.7004111e-21
6.0505198e-21
2.5852822e-21
2.2609255e-21
2.70724e-21
2.7204594e-21
3.2802079e-21
2.2326379e-21
2.7897788e-21
2.7658314e-21
2.7158603e-21
2.3578769e-21
2.5752281e-21
2.8344281e-21
2.9041989e-21
2.4610009e-21
2.9375776e-21
3.2360379e-21
2.7456115e-21
8.0827664e-22
8.9228343e-22
8.7076009e-22
7.5963587e-22
7.7540261e-22
8.031448e-22
9.8215561e-22
9.6759279e-22
3.3394492e-21
2.1166362e-21
2.4638206e-21
3.7209447e-21
3.050001e-21
9.6512681e-22
8.5751713e-22
8.1932608e-22
9.6022986e-22
9.5919595e-22
8.7653533e-22
8.4325404e-22
9.44764e-22
2.7217672e-21
2.6598177e-21
2.3396324e-21
2.2960517e-21
3.4860481e-21
3.7446916e-21
3.5897095e-21
2.6534098e-21
2.5030748e-21
2.8468752e-21
7.9138092e-22
8.3450005e-22
9.28055e-22
9.2721605e-22
9.5729371e-22
8.3067861e-22
8.1815196e-22
9.640462e-22
9.0505681e-22
8.421704e-22
8.1966976e-22
8.8722314e-22
8.2868095e-22
9.4336229e-22
9.3188344e-22
8.0891928e-22
9.5571557e-21
1.2009711e-20
1.1770183e-20
8.9846631e-21
5.5801801e-21
3.2801974e-21
4.6757338e-21
4.9363773e-21
4.2208755e-21
4.0686442e-21
4.7329647e-21
4.3581053e-21
9.7989249e-21
1.1613129e-20
1.0331755e-20
8.4467674e-21
1.5309267e-20
1.5287679e-20
1.60853e-20
1.6213807e-20
1.120689e-20
1.206739e-20
1.3247851e-20
1.2590651e-20
1.1703524e-20
1.266377e-20
1.1543621e-20
1.1030168e-20
1.5039105e-20
1.4618601e-20
1.3747312e-20
1.3971383e-20
1.3408654e-20
1.5539728e-20
1.4048694e-20
1.4432034e-20
1.1677103e-20
1.1046261e-20
1.1149833e-20
1.061719e-20
1.145143e-20
1.2464916e-20
1.1072713e-20
1.0963458e-20
1.4450935e-20
1.3410544e-20
1.3808446e-20
1.4140579e-20
5.2895974e-21
5.490171e-21
4.4254622e-21
4.5935807e-21
5.1896942e-21
3.9056507e-21
4.4057805e-21
4.2789131e-21
8.3186073e-21
8.6591574e-21
8.1541851e-21
7.7961736e-21
8.5971331e-21
8.7770888e-21
9.1516664e-21
8.5837954e-21
7.9930836e-21
9.4154361e-21
9.1095856e-21
7.8142201e-21
5.2275571e-21
3.8247901e-21
5.3701465e-21
4.2322251e-21
5.422267e-21
4.963639e-21
4.1179167e-21
4.3245141e-21
8.2977416e-21
8.2837683e-21
8.2508248e-21
7.8345959e-21
1.0444333e-20
1.0570245e-20
1.1432467e-20
1.1258558e-20
1.4653959e-20
1.3905041e-20
1.4440938e-20
1.4593951e-20
1.096331e-20
1.077739e-20
1.0882665e-20
1.0931374e-20
1.3538139e-20
1.3820042e-20
1.4345034e-20
1.3157453e-20
1.2066622e-20
1.205628e-20
1.0531892e-20
1.1297967e-20
1.1975698e-20
1.091538e-20
1.119129e-20
1.4256245e-20
1.294473e-20
7.7079691e-21
4.707997e-21
4.5246614e-21
4.1246045e-21
8.23428e-21
8.3356171e-21
7.9720156e-21
8.2525081e-21
8.4463702e-21
8.8496214e-21
1.1021724e-20
9.4570908e-21
4.423466e-21
4.9603784e-21
4.6013135e-21
5.5968057e-21
2.1023241e-21
2.5603643e-21
1.5200215e-21
1.3963797e-21
1.9820728e-21
2.355859e-21
1.4609057e-21
1.4582946e-21
2.4326098e-21
1.9958977e-21
1.9057028e-21
2.1688251e-21
2.2929287e-21
2.5664582e-21
2.3228791e-21
2.1225947e-21
1.3871838e-21
1.1407733e-21
1.2544336e-21
1.2997335e-21
1.4136351e-21
1.2930403e-21
1.4886925e-21
1.5765918e-21
8.8952447e-22
8.5621706e-22
9.4752142e-22
9.5808284e-22
9.7751602e-22
9.3680589e-22
9.6215593e-22
9.6789152e-22
2.496242e-21
2.692834e-21
2.2933976e-21
2.3902594e-21
1.4468452e-21
1.2586921e-21
1.4269241e-21
1.6177131e-21
9.5463721e-22
9.2931269e-22
9.9962242e-22
1.0245634e-21
2.04043e-21
2.3218336e-21
2.6421936e-21
2.2469717e-21
1.5086149e-21
1.5588812e-21
2.8149231e-21
2.3219233e-21
1.6229291e-21
1.6364666e-21
1.1551924e-21
1.9079661e-21
2.1675925e-21
1.1543294e-21
1.1202138e-21
2.0399761e-21
2.1767699e-21
1.2678881e-21
1.8286942e-21
4.4703793e-21
5.5862842e-21
1.9000678e-21
1.8994278e-21
4.5276647e-21
4.9843161e-21
1.7787231e-21
2.2936056e-21
1.0706808e-21
2.2483036e-21
1.1575529e-21
2.6088659e-21
1.028349e-21
2.4562082e-21
1.1998001e-21
5.2067605e-21
5.4107028e-21
2.0153958e-21
1.8874768e-21
6.7411301e-21
2.3331627e-21
2.3289124e-21
7.4424041e-21
2.9590971e-21
2.9805734e-21
2.8976617e-21
2.9553713e-21
3.3001627e-21
3.2084862e-21
2.5949117e-21
2.7460649e-21
2.8671286e-21
3.0564715e-21
2.4838649e-21
2.3755091e-21
2.4871802e-21
2.6472143e-21
2.6775179e-21
2.6061e-21
2.495217e-21
2.4355593e-21
2.3576216e-21
2.4871213e-21
2.7557451e-21
2.7789089e-21
2.2605533e-21
2.3301098e-21
2.8166207e-21
2.7201973e-21
2.231385e-21
2.3300945e-21
2.4601397e-21
2.3431169e-21
2.3357253e-21
2.5347095e-21
2.6318034e-21
2.5514243e-21
2.2136505e-21
2.3061622e-21
2.6353475e-21
2.634016e-21
2.2811876e-21
2.3282668e-21
2.4179765e-21
2.751712e-21
2.7709412e-21
2.4875835e-21
2.3586108e-21
2.6744381e-21
2.707612e-21
2.4076805e-21
2.6652623e-21
2.862555e-21
2.4694366e-21
2.3452787e-21
2.4926595e-21
2.9573072e-21
3.0986442e-21
2.6777774e-21
2.5354011e-21
2.9435281e-21
3.1802429e-21
2.7771153e-21
2.6407591e-21
3.0056623e-21
2.7767823e-21
2.4590889e-21
2.9433657e-21
3.2273929e-21
2.8403388e-21
2.6484444e-21
2.8681493e-21
2.8605946e-21
2.5307551e-21
2.5747989e-21
2.6233113e-21
2.9356938e-21
2.9830883e-21
2.6937324e-21
2.838104e-21
3.1803299e-21
3.2459392e-21
2.9494231e-21
2.7811219e-21
3.0903255e-21
3.0682072e-21
2.769627e-21
2.6904062e-21
2.560491e-21
2.199893e-21
2.3280139e-21
2.7326948e-21
2.5962575e-21
2.2749125e-21
2.4178547e-21
2.462972e-21
2.7219624e-21
2.8668207e-21
2.5942998e-21
2.3150789e-21
2.6181668e-21
2.7124714e-21
2.3807107e-21
2.5020235e-21
2.5296442e-21
2.1513222e-21
2.1835091e-21
2.3272563e-21
2.6358116e-21
2.6094182e-21
2.3021915e-21
2.3512571e-21
2.7042123e-21
2.7168303e-21
2.4564165e-21
2.263889e-21
2.5193342e-21
2.5404176e-21
2.2971328e-21
2.7857506e-21
3.139286e-21
3.2397014e-21
2.9255809e-21
2.5487467e-21
2.8537023e-21
2.9355382e-21
2.6685326e-21
2.7575757e-21
2.7466192e-21
2.4706238e-21
2.5264207e-21
2.7642041e-21
3.0408469e-21
3.0449916e-21
2.7709487e-21
3.006313e-21
3.3432434e-21
3.466377e-21
3.1414676e-21
2.6954824e-21
2.9779647e-21
3.1128645e-21
2.839409e-21
2.8115134e-21
2.7804601e-21
2.4590453e-21
2.5197111e-21
2.7038297e-21
2.9866218e-21
2.98632e-21
2.7051064e-21
1.1553069e-21
1.934554e-21
2.0265358e-21
1.1914134e-21
1.0128974e-21
1.9599239e-21
2.1373139e-21
1.3141951e-21
1.8767418e-21
4.4055393e-21
4.9342337e-21
1.7856489e-21
1.7199841e-21
3.8811023e-21
4.3307561e-21
1.6404827e-21
2.4338909e-21
2.3759574e-21
2.3037227e-21
2.4020651e-21
2.6745814e-21
2.7290783e-21
2.232287e-21
2.2820994e-21
2.5152446e-21
2.570344e-21
2.1317844e-21
2.1293264e-21
2.1290325e-21
2.1838518e-21
2.2056075e-21
2.2401477e-21
1.8481517e-21
4.3498738e-21
5.4563378e-21
1.7999732e-21
1.1945965e-21
1.925962e-21
2.2833048e-21
1.370878e-21
1.1445095e-21
2.0406012e-21
2.396435e-21
1.1436165e-21
5.9459607e-21
1.8406679e-21
4.4972962e-21
1.9836774e-21
2.5696174e-21
2.3450318e-21
2.3147348e-21
2.6124158e-21
2.2312027e-21
2.2283559e-21
2.2423421e-21
2.3874303e-21
2.7304588e-21
2.5675912e-21
2.1767939e-21
2.3499817e-21
2.8645861e-21
2.6424516e-21
2.2040862e-21
2.3807848e-21
2.1519533e-21
1.1614753e-21
1.1563399e-21
1.8853425e-21
1.1644709e-21
1.3138782e-21
1.9318575e-21
2.3446886e-21
4.5485024e-21
1.8466891e-21
4.0276836e-21
1.8263661e-21
1.7986557e-21
4.4011125e-21
5.37572e-21
1.8632318e-21
1.1753643e-21
1.9806103e-21
2.1145493e-21
1.1837591e-21
1.0560844e-21
1.2082281e-21
2.1008878e-21
2.4427757e-21
1.9811932e-21
4.9219469e-21
4.990154e-21
1.9190718e-21
4.8252396e-21
4.3820362e-21
1.7876105e-21
1.8037299e-21
2.8208659e-21
2.8672494e-21
2.2426368e-21
2.3430046e-21
2.5073639e-21
2.5078643e-21
2.4562743e-21
2.523177e-21
2.4145017e-21
2.3291348e-21
2.3845966e-21
2.5206317e-21
2.8066025e-21
2.7253779e-21
2.2904248e-21
2.3789242e-21
2.3794613e-21
2.2748281e-21
2.257632e-21
2.419217e-21
2.3204927e-21
2.3636502e-21
2.3830492e-21
2.3923341e-21
2.6516142e-21
2.7113679e-21
2.2587154e-21
2.2446507e-21
2.6756816e-21
2.5889373e-21
2.1599194e-21
2.2391527e-21
2.5609706e-21
2.8954122e-21
3.2167792e-21
2.8931176e-21
2.4369679e-21
2.7686853e-21
3.0278315e-21
2.7080993e-21
3.0884937e-21
3.1487246e-21
2.7984281e-21
2.8102044e-21
3.067762e-21
3.3345616e-21
3.3554783e-21
3.0734891e-21
2.3281431e-21
2.6967888e-21
2.8279995e-21
2.5012202e-21
2.2097198e-21
2.5017115e-21
2.6541987e-21
2.3388423e-21
2.7135355e-21
2.6768875e-21
2.3415518e-21
2.397639e-21
2.5250223e-21
2.8406812e-21
2.8637511e-21
2.5665907e-21
2.7934709e-21
3.1470682e-21
3.1305475e-21
2.8214367e-21
2.6135055e-21
2.9829296e-21
2.9262465e-21
2.6315185e-21
2.7970953e-21
2.8393131e-21
2.5162383e-21
2.5297726e-21
2.4468129e-21
2.7218478e-21
2.671146e-21
2.3940832e-21
2.5461154e-21
2.605574e-21
2.2481531e-21
2.2444967e-21
2.5497861e-21
2.5105525e-21
2.1691644e-21
2.2275756e-21
2.2989162e-21
2.6017072e-21
2.6112269e-21
2.3380578e-21
1.725287e-20
2.1728368e-20
3.1028225e-20
2.7747937e-20
2.0627992e-20
2.1777238e-20
2.388058e-20
2.2765564e-20
2.012646e-20
5.5078448e-20
4.6974052e-20
1.1834727e-20
5.4833662e-20
1.2592464e-20
4.2058834e-20
7.3619689e-21
1.3647071e-20
1.3341484e-20
7.3920628e-21
1.5189221e-20
4.3863359e-20
1.4015554e-20
4.2103832e-20
1.7418065e-20
7.3455185e-20
5.2043966e-20
1.1492627e-20
1.039332e-20
1.2627826e-20
9.6510697e-21
8.8609837e-21
2.4550268e-20
5.9517422e-20
2.1455551e-20
5.0777518e-20
5.1568263e-20
4.525221e-20
1.1811668e-20
1.9268165e-20
1.9579268e-20
2.0231057e-20
1.8001471e-20
1.2093474e-20
1.7725417e-20
1.9302097e-20
1.7205516e-20
1.7801734e-20
8.7328064e-20
1.4984114e-20
2.310225e-20
4.4842834e-20
7.4112852e-20
1.3481628e-20
2.7972519e-20
4.0862681e-20
5.0894659e-20
6.9113852e-20
1.0089101e-20
1.0620894e-20
9.5336669e-21
9.1775277e-21
9.6133998e-21
3.937896e-20
4.776072e-20
1.0153619e-20
1.0239259e-20
9.9340948e-21
9.8938267e-21
1.0374036e-20
5.691813e-20
4.7838454e-20
1.6526599e-20
1.0723311e-20
4.5342949e-20
5.3119098e-20
8.1042025e-21
3.4810381e-21
3.7959207e-20
5.6243211e-20
8.5263521e-21
9.250282e-21
7.1646227e-21
7.0199807e-21
1.4151634e-20
1.9458386e-20
2.1944629e-20
1.4988989e-20
2.7126118e-20
2.8751342e-20
3.1193055e-20
2.7484197e-20
2.4784888e-20
2.3104675e-20
2.3954559e-20
2.5492711e-20
8.5039727e-21
9.2633638e-21
6.7863339e-21
7.2160995e-21
1.3177906e-20
1.8902801e-20
2.0320782e-20
1.4769101e-20
2.5507599e-20
2.5743808e-20
2.2930312e-20
2.4560034e-20
3.0832933e-20
2.7533997e-20
2.9428146e-20
2.9959713e-20
9.1046671e-22
2.5947015e-21
3.2348004e-20
9.0592653e-22
2.2689235e-21
2.5726665e-20
8.3029849e-22
5.4130441e-21
7.554518e-22
4.0823254e-21
8.8098604e-22
9.7966033e-22
1.7744979e-20
1.7315148e-20
1.7774588e-20
1.7740239e-20
1.7456948e-20
1.8054793e-20
1.7612292e-20
1.6927827e-20
2.0325071e-20
1.9271974e-20
1.777946e-20
1.892917e-20
2.0272514e-20
2.0734628e-20
1.8569134e-20
1.862379e-20
5.2445106e-21
5.1356914e-21
3.7622983e-21
3.8881478e-21
4.9699369e-21
4.9690936e-21
3.7381006e-21
3.6757041e-21
3.8084883e-21
3.6960164e-21
5.0086563e-21
5.0366276e-21
3.6518007e-21
5.0432313e-21
4.939389e-21
3.7631132e-21
1.8823348e-20
1.8832318e-20
1.7993945e-20
1.8077543e-20
1.9705328e-20
2.1052253e-20
2.1195391e-20
1.9599374e-20
1.9010521e-20
2.1289139e-20
1.7818994e-20
1.7777412e-20
1.7219615e-20
1.7575402e-20
3.7298908e-21
3.965728e-21
5.2676281e-21
5.0029145e-21
3.6806848e-21
4.9589594e-21
5.1199193e-21
3.7898366e-21
3.4017279e-20
3.5125205e-20
3.7046103e-20
3.3508793e-20
2.5268895e-20
2.1401479e-20
2.170842e-20
2.4515063e-20
2.2932753e-20
2.3778567e-20
2.0303537e-20
1.9554542e-20
2.5547581e-20
2.5762101e-20
2.6932027e-20
2.6850331e-20
2.7421326e-20
2.6983266e-20
2.5186407e-20
2.5965214e-20
2.8494904e-20
2.9262281e-20
3.2029735e-20
3.1608093e-20
2.3668576e-20
2.0536044e-20
2.0837968e-20
2.3480445e-20
2.3474485e-20
1.9894803e-20
2.0282204e-20
2.2569656e-20
2.5524388e-20
2.5398999e-20
2.6806208e-20
2.6372359e-20
2.4814416e-20
2.7189929e-20
2.6298675e-20
2.5513319e-20
2.0827579e-20
2.1022757e-20
1.8568725e-20
1.7995493e-20
1.8056971e-20
1.8274336e-20
1.8649011e-20
1.8520888e-20
1.8093513e-20
1.7252672e-20
1.7414781e-20
1.7295239e-20
2.0124751e-20
2.0338377e-20
1.8300839e-20
1.8851414e-20
3.862439e-21
3.7689543e-21
5.0743957e-21
5.119861e-21
7.9711665e-21
7.8190813e-21
7.9194947e-21
8.0965878e-21
7.9409121e-21
8.2313772e-21
7.8212811e-21
8.5187719e-21
3.6945097e-21
4.9434514e-21
5.0545777e-21
3.8002259e-21
3.7565581e-21
3.6526741e-21
4.9035719e-21
4.9379278e-21
8.0736301e-21
7.8622561e-21
7.9638386e-21
8.1937837e-21
8.0553797e-21
8.2379287e-21
8.3924647e-21
7.7523001e-21
3.6994507e-21
5.0084287e-21
5.0915439e-21
3.8287454e-21
1.7308131e-20
1.426615e-20
1.4525439e-20
1.6607662e-20
1.1567165e-20
1.1089042e-20
1.1154601e-20
1.135773e-20
1.1049932e-20
1.1482442e-20
1.1192999e-20
1.0606029e-20
1.1597309e-20
1.1069588e-20
1.1151422e-20
1.1427491e-20
1.4401001e-20
1.7056941e-20
1.7265757e-20
1.4409981e-20
1.4472599e-20
1.4467211e-20
1.7298898e-20
1.7373936e-20
1.1003219e-20
1.132531e-20
1.1243596e-20
1.0755182e-20
1.9512006e-20
1.8990234e-20
1.9112226e-20
1.8720761e-20
1.7313568e-20
1.6742722e-20
1.7163104e-20
1.73979e-20
2.0229129e-20
1.8817398e-20
1.8951185e-20
2.0197148e-20
2.1796696e-20
2.0229853e-20
2.0426911e-20
2.2288209e-20
3.954883e-21
3.7885182e-21
5.1499738e-21
5.3084754e-21
8.536749e-21
8.6063646e-21
8.3877778e-21
8.3682441e-21
3.7403568e-21
5.1387345e-21
5.1756865e-21
3.9064275e-21
4.8499636e-21
4.9206211e-21
3.7284703e-21
3.6420764e-21
3.7010302e-21
5.2332764e-21
4.9972986e-21
3.9115239e-21
5.2011529e-20
6.1406743e-20
3.8666362e-20
3.5071881e-20
3.3957656e-20
3.3978836e-20
2.4213291e-20
2.3440966e-20
2.4450892e-20
2.0737739e-20
2.0533957e-20
2.2912583e-20
3.4097665e-20
3.5865859e-20
3.2560238e-20
3.3978873e-20
2.2611769e-20
1.8609997e-20
1.9431857e-20
2.1698572e-20
2.6001803e-20
2.1874267e-20
2.1710593e-20
2.4554465e-20
2.5524429e-20
2.3939377e-20
2.4598489e-20
2.5156952e-20
2.6053074e-20
2.5927583e-20
5.1180238e-20
5.540013e-20
3.1204354e-21
1.5208976e-20
9.9451478e-21
3.2292214e-21
1.0154266e-20
6.2318551e-21
3.2810641e-21
3.4871526e-21
1.7735591e-20
1.0303163e-20
2.9766757e-21
3.0918073e-21
3.5999611e-21
3.4095285e-21
1.1463621e-20
8.4951378e-21
3.3661913e-21
3.5323137e-21
1.7849305e-20
1.8048393e-20
1.7695412e-20
1.8483165e-20
2.8214317e-21
3.143053e-21
3.4172905e-21
3.1038603e-21
2.7170341e-21
3.0502241e-21
3.2707068e-21
2.9623053e-21
3.500592e-21
3.7346542e-21
3.3213687e-21
3.2192327e-21
3.4959956e-21
3.2619533e-21
2.9095844e-21
3.1843015e-21
3.0738405e-21
3.3216469e-21
2.9953895e-21
2.8409975e-21
1.7016396e-20
1.5562097e-20
1.8244081e-20
1.8567525e-20
1.8026152e-20
1.7346609e-20
1.7726347e-20
1.7441259e-20
1.8280964e-20
2.7759523e-21
2.4295704e-21
2.4277086e-21
1.1277673e-21
9.7334325e-22
8.7055867e-22
1.1180491e-21
8.9054454e-22
8.2534886e-22
8.0133035e-22
9.724073e-22
9.4939763e-22
8.390451e-22
8.3260457e-22
1.0095185e-21
2.9631314e-21
3.074015e-21
9.3250886e-22
8.4194205e-22
8.3467348e-22
9.9672092e-22
9.0858601e-22
8.6347949e-22
8.3804958e-22
9.2682017e-22
2.8633947e-21
2.2156277e-21
2.3548136e-21
2.3000638e-21
2.6429551e-21
2.5670904e-21
6.4288143e-21
6.7897547e-21
4.0269893e-21
4.9495436e-21
1.1057677e-20
8.9307231e-21
4.8660231e-21
4.1071097e-21
3.5262631e-21
4.7548285e-21
4.3804625e-21
3.1068401e-21
3.7013518e-21
4.9463657e-21
1.1076901e-20
8.9421855e-21
8.3303699e-21
8.7300053e-21
8.0945533e-21
8.5332153e-21
1.0958722e-20
8.725395e-21
1.0884708e-20
1.1492787e-20
1.2282213e-20
1.1056494e-20
1.2384525e-20
1.1277193e-20
1.026423e-20
1.128377e-20
1.3938403e-20
1.4346121e-20
1.3506752e-20
1.3222997e-20
1.4073051e-20
1.4011339e-20
1.088858e-20
1.209552e-20
1.3001425e-20
1.166492e-20
1.4547397e-20
1.4176051e-20
1.159477e-20
1.2685307e-20
1.4805812e-20
1.2246406e-20
1.1957375e-20
1.4796866e-20
1.4074466e-20
1.3710834e-20
1.5381414e-20
1.4830549e-20
4.4630112e-21
4.7984157e-21
4.1646402e-21
5.5817e-21
6.5901428e-21
3.6260477e-21
3.5825884e-21
4.8115726e-21
7.9386047e-21
8.0960098e-21
1.0703692e-20
9.0065001e-21
9.4453578e-21
1.0034314e-20
1.3611969e-20
1.1302603e-20
1.6841791e-21
1.5745283e-21
1.2430494e-21
9.2829486e-22
8.8647387e-22
1.4212403e-21
1.4010146e-21
9.7980178e-22
9.8327609e-22
1.9590796e-21
1.8119283e-21
2.2732444e-21
2.403801e-21
2.2235135e-21
2.1176536e-21
2.01136e-21
1.5391485e-21
1.3839453e-21
1.5799548e-21
1.6540629e-21
9.9052088e-22
9.4278694e-22
9.6582539e-22
9.6222453e-22
2.2315678e-21
2.5726979e-21
1.546073e-21
1.5026358e-21
2.70734e-21
1.6064853e-21
2.2258559e-21
1.5939789e-21
2.2680825e-21
2.508788e-21
2.1266557e-21
2.2741865e-21
2.2469201e-21
1.8003952e-21
2.1246475e-21
1.8120203e-21
1.4975451e-21
1.2895786e-21
1.4115867e-21
1.5083446e-21
1.501679e-21
1.4415384e-21
1.6335651e-21
1.7347503e-21
2.1517166e-21
2.6050602e-21
1.5292597e-21
1.4220213e-21
2.3477988e-21
1.4768578e-21
1.9841819e-21
1.4736223e-21