/*--------------------------------*- C++ -*----------------------------------*\
  =========                 |
  \\      /  F ield         | OpenFOAM: The Open Source CFD Toolbox
   \\    /   O peration     | Website:  https://openfoam.org
    \\  /    A nd           | Version:  7
     \\/     M anipulation  |
\*---------------------------------------------------------------------------*/
FoamFile
{
    version     2.0;
    format      ascii;
    class       surfaceScalarField;
    location    "3000";
    object      phi;
}
// * * * * * * * * * * * * * * * * * * * * * * * * * * * * * * * * * * * * * //

dimensions      [0 3 -1 0 0 0 0];

internalField   nonuniform List<scalar> 
101481
(
7.1126394e+15
-8.513755e+15
-5.3298466e+16
6.4426116e+15
-7.975217e+15
-5.445612e+16
7.5754901e+15
-8.4625632e+15
-5.0773038e+16
-6.7718956e+15
-5.1773166e+16
-9.5276041e+15
9.5819764e+15
-3.1301915e+15
-5.1780609e+16
-3.9519974e+15
-5.1546184e+16
8.1326228e+15
-3.798736e+15
-5.6987481e+16
7.2963314e+15
-4.366022e+15
-5.7065909e+16
-2.8542345e+15
4.0057837e+15
-6.0707006e+16
-1.4935256e+15
3.1832753e+15
3.1064014e+15
-1.7498929e+15
-6.2597236e+16
-1.7779898e+15
3.1919812e+15
-1.0574205e+16
-2.6525224e+15
-4.9525658e+16
-2.2759783e+15
-4.7846875e+16
8.5242699e+15
-4.4517718e+15
-5.5616077e+16
8.7668234e+15
-4.4389652e+15
-5.5460768e+16
-8.9897011e+15
8.3312261e+15
1.5856273e+15
-3.9041958e+16
-8.5971764e+15
8.104633e+15
-1.1489076e+15
-5.4505172e+16
9.0406037e+14
-3.6811494e+16
-1.4574586e+15
-5.3722536e+16
7.5769534e+15
-2.1744688e+15
-5.990228e+16
7.6508808e+15
-2.4881885e+15
-5.9945802e+16
-5.3082454e+15
5.4216328e+15
-2.0320578e+15
-5.9918022e+16
-1.5854155e+15
-5.9958587e+16
-3.8740219e+15
4.5979149e+15
-6.2639545e+16
-1.5693823e+15
3.4112487e+15
3.1561401e+15
-1.7724157e+15
-6.1297312e+16
-1.450141e+15
3.2785849e+15
3.0583334e+15
-1.6119267e+15
4.9140888e+16
2.100016e+14
-5.3867882e+16
4.9437319e+14
-1.1572502e+16
-2.8269101e+15
4.4529437e+15
4.0156243e+15
3.9564706e+15
-1.8090077e+15
-2.0152021e+15
-4.9542111e+16
-2.1460133e+15
4.0763e+15
-5.3625015e+16
-1.1204597e+16
9.6250026e+15
-4.8644303e+14
4.8289569e+14
-1.1703799e+16
-4.7648119e+14
-4.2792038e+14
7.5955931e+14
7.3366583e+14
-6.8127079e+14
8.7666098e+14
-8.5229833e+14
-7.7165979e+14
5.7587846e+14
-9.9484756e+15
-8.9013304e+14
-8.4703036e+14
-7.8939925e+14
6.7346655e+14
5.8757977e+14
-5.4989833e+14
-1.2149916e+16
-4.5553822e+14
7.6594244e+14
-4.9201704e+14
6.9661873e+14
9.8941351e+15
-1.2271392e+16
-5.4423967e+14
-4.6786829e+14
7.2052866e+14
6.763304e+14
5.9859969e+14
-8.0890449e+14
5.6291222e+14
-8.9518198e+14
-1.7213119e+15
2.0218841e+15
1.506349e+15
5.7273391e+16
1.1984171e+15
5.7563106e+16
-1.0044396e+16
-4.3831647e+15
-5.678267e+16
-4.1858206e+15
-5.5235873e+16
-8.7378585e+15
2.5169842e+15
-3.7375404e+16
-9.2441673e+15
9.4933289e+15
-1.068161e+15
-5.3145616e+16
1.9282917e+15
-3.922577e+16
-9.1263322e+14
-5.2525543e+16
8.0990295e+15
5.487696e+15
-2.7106468e+15
-5.8841271e+16
5.3306474e+15
8.3207196e+15
-2.6660942e+15
-5.8347009e+16
-7.1662075e+15
7.4460679e+15
-5.9441271e+16
-2.1231317e+15
-1.5925146e+15
-5.9436389e+16
-2.0423226e+15
-1.5692485e+15
-6.4894969e+14
5.5363093e+14
1.2860165e+15
-2.1089751e+15
-7.9349335e+15
7.7586142e+15
8.6127125e+14
-4.0875811e+16
-7.5115733e+15
7.7403296e+15
-1.4339796e+15
-5.5788131e+16
1.0612253e+15
-2.1537735e+15
9.3529185e+13
-3.8496573e+16
-1.5787914e+15
-5.4514372e+16
6.8248355e+15
-1.6919215e+15
-6.0845883e+16
7.2078535e+15
-1.8179053e+15
-6.1236195e+16
5.7245502e+15
-2.1914056e+15
-5.9895846e+16
5.7886091e+15
-2.2829728e+15
-6.0152741e+16
-4.7383339e+15
4.9015933e+15
-1.6527457e+15
-5.6507452e+16
-1.5165556e+15
-5.5555669e+16
-4.6053254e+15
-5.8801015e+16
4.5587073e+15
-3.5831759e+15
-5.9185531e+16
-3.332522e+15
4.5935005e+16
4.546787e+16
-2.2310665e+16
1.8981145e+16
-6.33252e+16
-1.7150691e+15
3.4714935e+15
3.1759515e+15
-1.8649354e+15
-4.9459315e+16
-4.2019793e+15
4.5527144e+15
4.203635e+15
-1.7561798e+15
-1.9857269e+15
4.038317e+15
5.41851e+13
4.9464671e+16
-5.3686929e+16
-1.1296066e+16
-5.404051e+16
6.163941e+14
-1.1353061e+16
4.2379826e+15
3.9857493e+15
-2.0180869e+15
-1.7631818e+15
9.9974349e+15
-6.7693206e+14
7.1553569e+14
-1.2296003e+16
7.8226183e+14
-4.0893327e+14
-4.6947115e+14
7.8672639e+14
-6.5867256e+14
8.5419759e+14
6.4737135e+14
-7.3229599e+14
-8.1037163e+14
6.0551418e+14
-9.9742476e+15
-8.6298663e+14
6.9315406e+14
-7.913175e+14
-8.2687131e+14
6.0723198e+14
-6.0855452e+14
-1.2431645e+16
-4.5734995e+14
-4.1482132e+14
7.7483561e+14
7.1394166e+14
9.7824394e+15
-3.9311491e+14
-1.2065219e+16
7.9235508e+14
-4.2151164e+14
-4.7574741e+14
7.2210562e+14
-5.525484e+14
-7.7285241e+14
6.0584058e+14
-8.5703322e+14
5.6196017e+14
-9.7284991e+15
-8.1989734e+14
-7.8794014e+14
6.614191e+14
-1.184491e+16
-4.2789599e+14
7.5996108e+14
7.2904268e+14
-4.6684141e+14
1.0146152e+16
1.0640774e+16
-3.304198e+13
8.0394168e+14
-5.0160834e+15
8.6979945e+15
9.1227821e+15
-4.0835573e+14
-9.3490402e+15
3.5863173e+14
9.5239668e+14
9.7532922e+14
-9.8682369e+13
-1.1845024e+14
-9.7409727e+15
-4.4246774e+14
9.7897624e+14
-1.7252202e+14
-1.5051307e+14
9.2570168e+14
3.6878848e+14
-2.714045e+14
-1.1092762e+15
3.7769325e+14
-1.1243039e+15
9.9212199e+15
-1.0701702e+16
-1.2512116e+15
9.3050214e+14
9.2136101e+14
-1.7964459e+14
-2.1100904e+14
9.0935333e+15
-5.0472117e+15
1.2339218e+14
2.408481e+15
-1.3369193e+14
-2.8922716e+15
-1.5707134e+14
-1.4855416e+14
1.5188082e+14
1.713547e+14
2.3396047e+15
1.0946684e+14
-2.7758871e+15
-1.5704142e+14
-1.4482162e+14
1.5724235e+14
1.6690849e+14
-1.7302775e+14
3.1605102e+15
1.9379287e+14
-1.805281e+14
1.5218402e+14
1.4536294e+14
-1.9913003e+14
3.2384472e+15
-1.8662269e+14
-1.871724e+14
1.5986695e+14
1.4201422e+14
-1.974138e+14
1.4544686e+14
2.5290154e+15
-1.5473683e+14
-2.070215e+14
-1.9973656e+14
1.448249e+14
1.2835674e+14
1.8873804e+14
-2.1059056e+14
-1.9284162e+14
1.3797724e+14
1.3074447e+14
-1.8765447e+14
-2.0961063e+14
-1.9604938e+14
1.3792298e+14
1.1876347e+14
1.3073678e+14
2.5216967e+15
-3.1926514e+15
-1.6529701e+14
-2.1211037e+14
-2.0280102e+14
1.4694772e+14
1.2644875e+14
2.5335424e+15
-3.2138352e+15
-2.1430798e+14
-1.9889688e+14
1.3926698e+14
1.4083164e+14
-1.5066144e+14
1.3142056e+14
-1.9332586e+14
-2.1373224e+14
1.2286229e+14
-1.6711219e+14
1.3953706e+14
-1.949751e+14
-2.0769989e+14
1.1950009e+14
2.3899508e+15
-9.7303973e+13
-2.8774917e+15
-1.6399741e+14
-1.4978685e+14
1.5830652e+14
1.5109334e+14
-1.3811695e+14
-1.8756247e+14
1.4634526e+14
1.4019376e+14
-2.05424e+14
2.3722805e+15
-1.1720881e+14
-2.8503017e+15
1.6727841e+14
-1.4854066e+14
-1.5969665e+14
1.4686844e+14
-1.6823163e+14
-1.9976867e+14
-1.8769979e+14
1.5726908e+14
1.3656242e+14
1.2309144e+14
2.3964444e+15
-2.9027581e+15
-1.6517816e+14
-1.5273413e+14
1.6297277e+14
1.4022045e+14
2.3579217e+15
-2.8164337e+15
-1.637908e+14
-1.4983699e+14
1.6045913e+14
1.4969546e+14
-1.5789544e+14
3.1715913e+15
1.4793743e+14
-1.8600615e+14
-2.0429468e+14
1.3888695e+14
3.2180043e+15
-2.0244826e+14
-1.8904353e+14
1.5323084e+14
1.3163139e+14
-2.497468e+15
-1.562589e+14
1.4124257e+14
-1.8768436e+14
-2.1755438e+14
1.2048612e+14
-1.4906738e+14
1.367915e+14
-1.9334696e+14
-2.1824944e+14
1.2379452e+14
-2.527277e+15
1.5248806e+14
-1.9338349e+14
-2.1281932e+14
1.1694575e+14
1.400807e+14
-2.0138159e+14
-2.135372e+14
1.1805881e+14
-1.8565749e+15
2.2394594e+15
1.4701819e+15
5.7640377e+16
1.2893065e+15
5.7756679e+16
-4.0996505e+15
4.3332963e+15
1.2950285e+15
6.1410333e+16
1.3938283e+15
5.9419629e+16
-3.6976123e+15
3.7818319e+15
-3.6878022e+15
-3.6315189e+15
-1.0476861e+16
-9.8277632e+14
-5.3709993e+16
-6.0937876e+14
-5.2175811e+16
-9.0178222e+15
5.1047316e+15
9.4165398e+15
-2.5860256e+15
-5.9700111e+16
5.0914931e+15
-2.3891286e+15
-5.8635334e+16
8.0186932e+15
-5.9230482e+16
-1.5752596e+15
-2.2271795e+15
-5.9951941e+16
-2.1165413e+15
-1.5706011e+15
-5.8706888e+14
2.0891702e+15
-1.8351309e+15
-8.1392805e+15
8.8704951e+15
1.6115939e+15
-4.0786367e+16
-8.2273067e+15
8.5282465e+15
-1.2813075e+15
-5.4831337e+16
1.7980669e+15
-1.7756213e+15
7.819172e+14
-4.1300984e+16
-1.5302657e+15
-5.4192899e+16
7.4023787e+15
2.9270175e+15
-2.0179526e+15
-5.9944861e+16
2.8980886e+15
7.703656e+15
-1.9007502e+15
-5.964563e+16
-6.5520488e+15
6.7094283e+15
-5.9000199e+16
-2.7818813e+15
-2.2003398e+15
3.9339462e+15
3.347909e+15
9.5891028e+14
-1.2169527e+15
9.9638356e+14
-1.3846724e+16
1.0065536e+15
1.3442815e+15
-1.3898783e+16
-5.8952583e+16
-2.2035501e+15
-2.7546012e+15
3.3755146e+15
3.9145386e+15
8.4908062e+14
-1.3780648e+16
-1.3795252e+16
-5.8390041e+14
5.0751004e+14
-1.7097467e+15
-5.2959538e+14
4.5621436e+14
1.2527157e+15
-2.4270265e+15
-6.5386585e+15
7.0666234e+15
-2.0819277e+15
-4.0755825e+16
-6.6440848e+15
7.081645e+15
-1.7539139e+15
-5.6289679e+16
-1.6401241e+15
1.0147914e+15
-3.0671929e+15
-1.9922919e+15
-3.8937074e+16
-1.8497747e+15
-5.4808073e+16
5.9559811e+15
-2.5993707e+15
-6.0615691e+16
6.0103812e+15
-2.538038e+15
-6.0950924e+16
-5.3550173e+15
5.3715409e+15
-1.7313844e+15
-5.5841403e+16
-1.9299654e+15
-5.5169404e+16
4.920434e+15
-5.9177487e+16
-3.6193769e+15
-5.9189484e+16
5.0135305e+15
-3.5054695e+15
-4.1901333e+15
4.2121629e+15
-1.2097528e+15
-4.1941779e+16
-4.2660264e+15
-5.8344186e+16
4.4917216e+15
-1.972125e+15
-1.4266997e+15
-4.1058412e+16
-5.6765136e+16
-1.9200047e+15
-1.1710765e+15
1.2684127e+15
-1.3523188e+16
-4.0939158e+14
-5.2243346e+14
9.2066989e+14
1.018128e+15
-1.3242731e+16
-4.326318e+14
-5.2183315e+14
4.438135e+16
4.3900026e+16
2.6899685e+16
4.8402876e+16
4.8788493e+16
1.935583e+16
4.5776896e+16
4.6101957e+16
-2.2401558e+16
1.9463772e+16
-3.222754e+15
2.0293609e+14
1.4634164e+14
-1.7420976e+14
1.2826212e+14
-2.0893971e+14
-5.0023364e+16
4.3268205e+15
4.1141493e+15
-1.9542704e+15
-1.7347804e+15
-5.4114434e+16
-1.0961372e+16
1.0239091e+16
-5.5290986e+14
-1.2686144e+16
-5.0248066e+14
-4.388636e+14
7.8552437e+14
7.3999036e+14
-6.1980135e+14
-7.7043235e+14
-8.5247162e+14
6.1275193e+14
5.7504997e+14
-1.012138e+16
-7.523942e+14
-8.0965787e+14
6.9309407e+14
6.0611326e+14
-1.2472712e+16
-4.6646393e+14
-4.2248637e+14
8.1082718e+14
7.2714538e+14
-9.6439862e+15
-7.0602635e+14
5.8775447e+14
-1.2426769e+14
9.6587734e+14
9.7695826e+14
-1.4867559e+14
2.4163242e+14
-1.0252633e+16
-1.8519045e+14
-1.203973e+15
9.97032e+15
-1.0635012e+16
9.4487552e+13
-1.1738871e+15
-7.1849647e+14
1.0006944e+15
9.3594113e+14
-1.8213736e+14
-1.6503414e+14
6.8073026e+14
1.0631533e+16
1.0413764e+16
-4.6616478e+15
9.1288974e+15
9.0915007e+15
1.1662088e+15
8.8869004e+15
9.2237986e+15
-4.7349304e+15
-3.6185265e+14
-9.7675326e+15
9.5458376e+14
9.5002056e+14
-1.4874068e+14
-1.7220961e+14
-9.5606042e+15
9.4323025e+14
-1.4332884e+14
9.9810306e+14
-9.9781045e+13
1.0357045e+14
-1.1631674e+15
-1.0778551e+15
-2.3040082e+15
-1.7604429e+14
3.1357709e+15
1.5407203e+14
1.7227918e+14
-1.6874689e+14
-1.8815107e+14
1.570903e+14
-1.2880395e+14
1.3011863e+14
-2.7663541e+15
1.6850065e+14
-1.3456415e+14
-1.4604724e+14
1.6420892e+14
2.4241335e+15
-1.5568897e+14
-2.9204821e+15
-1.4505514e+14
-1.3654009e+14
1.7594869e+14
1.5940926e+14
3.2437838e+15
-1.7092867e+14
1.6674038e+14
-1.7143073e+14
-1.8222492e+14
1.4887592e+14
-2.4881182e+15
-1.4703312e+14
1.7951299e+14
1.4681771e+14
-1.8175141e+14
-2.110655e+14
1.2625476e+14
-1.5494993e+14
1.7220037e+14
1.4928626e+14
-1.7789769e+14
-2.0717034e+14
1.33888e+14
2.506824e+15
-1.2723788e+14
-1.9882837e+14
-1.8587605e+14
1.508186e+14
1.3276197e+14
-1.5810062e+14
1.3857325e+14
-1.9007227e+14
-2.0427499e+14
1.2022138e+14
-2.5363196e+15
-1.5226859e+14
1.4969796e+14
-1.8072251e+14
-2.1448148e+14
1.3240493e+14
-1.1954566e+14
-3.1903728e+15
1.3997046e+14
-1.9971403e+14
-2.1626093e+14
1.3104821e+14
2.520807e+15
-3.1833702e+15
-1.6332361e+14
-2.1096045e+14
-1.9484525e+14
1.5853644e+14
1.2673929e+14
-1.7338458e+14
1.4199403e+14
-1.9104339e+14
-2.0768479e+14
1.1958005e+14
9.7854505e+13
2.3659876e+15
-1.0656024e+14
-2.8407012e+15
-1.5220013e+14
-1.4198812e+14
1.6987546e+14
1.5038274e+14
2.3588052e+15
-2.8564684e+15
-1.5498307e+14
-1.4070865e+14
1.6589459e+14
1.5480493e+14
-1.2952086e+14
-1.9981612e+14
-1.8475849e+14
1.4554695e+14
1.4088796e+14
-1.481355e+14
1.5704011e+14
-1.8464279e+14
-1.9560305e+14
1.3837964e+14
-2.366765e+15
-1.5195299e+14
3.2147992e+15
1.6759184e+14
-1.7644842e+14
-1.945038e+14
1.5149916e+14
-1.0838788e+14
-2.8101991e+15
1.6470574e+14
-1.4349117e+14
-1.551357e+14
1.576717e+14
2.3839584e+15
-1.1083526e+14
-2.8769214e+15
-1.5365087e+14
-1.4541051e+14
1.6936191e+14
1.4936276e+14
3.1942115e+15
-1.4962119e+14
1.5582004e+14
-1.8598011e+14
-1.9649476e+14
1.3617572e+14
2.5331295e+15
-1.3179114e+14
1.4455077e+14
-1.8576594e+14
1.3116918e+14
-2.1266918e+14
-1.291495e+14
1.292425e+14
-1.8864284e+14
-2.1177552e+14
1.2019085e+14
2.5034258e+15
-1.5116613e+14
-1.9778127e+14
1.4172537e+14
1.2061597e+14
-2.1143258e+14
-1.8484529e+14
-2.1066883e+14
-1.9695765e+14
1.3480553e+14
1.231294e+14
-3.2202453e+15
-2.0998049e+14
-1.8582164e+14
1.3179465e+14
1.6080195e+14
2.5043326e+15
-3.1749803e+15
-2.221929e+14
-1.9534904e+14
1.4797028e+14
1.2424243e+14
-2.1897233e+14
-1.9033874e+14
2.3501554e+15
-6.3353189e+13
-2.8330339e+15
-1.5751308e+14
-1.443364e+14
1.5704856e+14
1.5230164e+14
-1.0169214e+14
-2.0583922e+14
1.4349545e+14
-1.8695539e+14
1.3650622e+14
-2.3477575e+15
1.7510735e+14
-1.7661451e+14
-1.9414797e+14
1.4431071e+14
-2.7897501e+15
1.7524916e+14
-1.4274772e+14
-1.5682135e+14
1.4558476e+14
-1.4658821e+14
5.1550306e+15
1.0089211e+15
8.442076e+15
8.8408235e+15
7.8569547e+15
8.2080608e+15
2.0637828e+14
2.1261196e+15
2.2497978e+15
-2.5666911e+14
-6.2344289e+14
1.876127e+15
2.0104124e+15
2.2929135e+15
2.2695439e+15
2.7038804e+14
-6.8446256e+14
2.0189886e+15
2.0374907e+15
-1.0515455e+14
-2.0400858e+15
6.0336201e+13
1.8044024e+14
-5.0205392e+13
-5.515216e+13
1.8633173e+14
-2.1476766e+15
-1.2548047e+14
1.9131706e+14
-6.0033049e+13
-5.8815312e+13
1.785923e+14
6.1429442e+13
-5.8992545e+13
-1.5084815e+13
5.0880677e+13
-5.779655e+12
-2.1658291e+15
-8.4751166e+13
-7.0735824e+13
-6.1146675e+13
1.8078526e+14
1.7768219e+14
2.8107996e+13
-2.2664578e+13
2.1478194e+15
2.4533634e+13
-2.5213478e+13
-9.5056164e+13
-6.3826943e+13
-6.4694147e+13
1.8949793e+14
1.725478e+14
2.2189776e+15
2.3200952e+15
-7.9532831e+14
1.9626456e+15
2.0411042e+15
-1.0036606e+14
-2.0973112e+15
1.7590086e+14
-6.1425925e+13
-7.2614105e+13
1.7482924e+14
-2.1803165e+15
1.8295879e+14
-7.1260858e+13
-7.3808357e+13
1.655803e+14
1.5081398e+13
-4.8525572e+13
-5.131982e+13
5.0263645e+15
8.1330076e+15
8.3444626e+15
8.6793205e+15
8.8881275e+15
2.7325807e+13
6.0313332e+14
-3.1223587e+13
-7.0687522e+14
-4.9431468e+13
6.1123112e+14
3.3281845e+13
-7.1425327e+14
-5.1487899e+13
3.4344005e+13
7.9170841e+14
-3.9304838e+13
-3.1733338e+13
4.4563175e+13
8.0575733e+14
-3.3390658e+13
2.9766187e+13
6.0665379e+14
-7.1084934e+14
-4.9330196e+13
5.9761187e+14
2.7898346e+13
-6.8592996e+14
-5.4635699e+13
3.7991536e+13
8.0050738e+14
-3.0039573e+13
7.9281855e+14
4.1244734e+13
-3.1551463e+13
6.4164884e+14
-3.3549606e+13
4.3112956e+13
-3.8921791e+13
-3.4901154e+13
8.1397816e+14
4.4446662e+13
-2.9690787e+13
-6.4741945e+14
-4.4386827e+13
8.2951707e+14
-2.7248981e+13
-3.9485065e+13
-4.0106594e+13
6.4982091e+14
-2.8727738e+13
-4.1993257e+13
-3.474256e+13
8.3064677e+14
-3.060318e+13
-6.4229234e+14
8.1761602e+14
-4.0448981e+13
-2.7602995e+13
-3.6276374e+13
-4.0449025e+13
3.6053428e+13
6.4702951e+14
-4.377287e+13
-2.8715544e+13
6.5411869e+14
4.6897696e+13
-3.4052755e+13
-4.2942125e+13
5.1938407e+13
8.1800211e+14
-2.8054782e+13
8.0535778e+14
-5.0334739e+13
-2.2578939e+13
3.9857047e+13
6.5363814e+14
-2.7670928e+13
6.4412744e+14
4.8871808e+13
-3.2005676e+13
-4.1644109e+13
5.1471013e+13
-2.8116649e+13
8.1737644e+14
-2.2699503e+13
-5.484738e+13
-2.6446958e+13
4.3068764e+13
6.3311806e+14
-5.3835321e+13
-2.6604336e+13
6.3953767e+14
-2.9363546e+13
-4.5847369e+13
-3.0429438e+13
-5.3655814e+13
-2.6797788e+13
3.5877772e+13
6.4341246e+14
-8.1248172e+14
-4.5539346e+13
-3.3379523e+13
6.5498472e+14
4.8264132e+13
-8.3329308e+14
-3.6879021e+13
-4.1651865e+13
5.3420187e+13
8.1696161e+14
-2.6797494e+13
8.0013667e+14
-4.9538731e+13
-2.2388601e+13
3.8179028e+13
6.5480124e+14
-8.2820377e+14
-3.0820279e+13
6.4351469e+14
-8.1156794e+14
-3.6437424e+13
-4.210074e+13
8.0163655e+14
-2.7088829e+13
8.188267e+14
-1.1874349e+13
-6.3034445e+14
-4.3843137e+13
-3.2274555e+13
-4.561311e+13
-3.0255945e+13
6.3945564e+14
-5.5191979e+13
-2.4782309e+13
-5.5200103e+13
-2.6214471e+13
-6.3819345e+14
-4.5646148e+13
-3.0335253e+13
-4.1840707e+13
-2.9558198e+13
6.289103e+14
-5.1766637e+13
-2.6547596e+13
-5.2391506e+13
-2.6897511e+13
2.770086e+13
6.1059603e+14
-3.2499173e+13
-7.2011281e+14
-4.96821e+13
5.9954556e+14
-7.0100014e+14
-5.185492e+13
-3.2513978e+13
7.8710525e+14
-3.6043836e+13
8.0109527e+14
-3.6972253e+13
-3.4947475e+13
6.3821543e+14
-3.1390084e+13
-4.3558852e+13
-3.3755188e+13
-3.3700988e+13
-6.4642197e+14
-4.4608688e+13
-3.0734453e+13
-3.8467579e+13
-4.3673122e+13
-6.0652858e+14
-3.1545746e+13
8.0503688e+14
-3.6656331e+13
-2.335928e+13
-7.1200548e+14
-5.2203558e+13
6.001902e+14
-2.8882794e+13
-7.0034648e+14
-5.4016858e+13
7.8920367e+14
-3.8087971e+13
-3.5602696e+13
3.097763e+13
6.397694e+14
-3.8023409e+13
-4.3288516e+13
6.5307399e+14
-4.3226797e+13
-3.4654927e+13
-3.2903723e+13
-4.0680574e+13
-3.0124201e+13
2.9941536e+13
5.9134223e+14
-6.9634764e+14
-5.2484983e+13
6.051109e+14
3.4066096e+13
-7.0953834e+14
-5.2431202e+13
-3.3788215e+13
4.0245058e+13
7.97035e+14
-3.5407997e+13
7.7817042e+14
-3.4408155e+13
2.8980704e+13
6.0466662e+14
-7.1190582e+14
-5.1466221e+13
5.9963189e+14
-6.9355968e+14
-5.58112e+13
-3.3432426e+13
7.906716e+14
-3.523609e+13
7.958875e+14
-3.4712736e+13
-6.4037227e+14
-3.4072764e+13
8.1280088e+14
-3.1098916e+13
-3.154275e+13
-4.2187418e+13
6.4310346e+14
-4.0040599e+13
-4.3012675e+13
-4.4498324e+13
8.2274681e+14
-3.0330717e+13
3.2776043e+13
6.3153819e+14
-4.1007609e+13
6.4329707e+14
-4.257006e+13
-3.7955504e+13
8.220638e+14
-3.2078537e+13
8.0229854e+14
-2.9416073e+13
-6.2952794e+14
-4.5066915e+13
-2.0021976e+13
-4.5347105e+13
-7.990962e+14
-2.4535646e+13
6.3385284e+14
-8.1110815e+14
-5.5489024e+13
-3.0157077e+13
-5.648371e+13
-2.7504944e+13
-6.4342596e+14
-4.0394266e+13
-2.8023142e+13
-3.843354e+13
-3.1077787e+13
6.47807e+14
-4.7089571e+13
-3.4653475e+13
-5.2347319e+13
-2.7553476e+13
-6.357417e+14
-4.922116e+13
-1.6855277e+13
-4.5446735e+13
-8.1024379e+14
-2.8923599e+13
6.2256787e+14
-7.9052321e+14
-3.0885045e+13
-6.4763846e+14
-4.4976205e+13
-2.9895594e+13
-3.8394216e+13
-3.5651513e+13
6.3418258e+14
-3.3769328e+13
-2.7083057e+13
1.7698316e+16
-2.5043479e+15
-2.0263027e+15
2.0589157e+16
2.0090629e+16
5.4408152e+16
5.4761639e+16
5.4729638e+16
5.4097451e+16
-1.8606228e+15
1.7538784e+15
2.0379367e+15
5.8073575e+16
1.6448193e+15
5.8395414e+16
-4.0398532e+15
4.7246855e+15
1.2194391e+15
6.0439655e+16
1.4791702e+15
5.9746379e+16
-4.0436956e+15
4.1835759e+15
-3.6189767e+15
-3.6223321e+15
-3.753243e+15
3.7266873e+15
4.7636508e+16
1.2575486e+15
-4.1271907e+15
4.3439276e+15
-8.383823e+14
1.2028184e+15
4.5253395e+16
-9.00696e+14
9.6918656e+15
-2.4260741e+15
-6.0272746e+16
-2.5817962e+15
-6.0512705e+16
-9.2726755e+15
1.9105898e+15
-4.116185e+16
-8.9079058e+15
9.4354773e+15
-8.5585337e+14
-5.5967734e+16
2.0495223e+15
-4.0203049e+16
-7.027781e+14
-5.4241819e+16
-8.2226162e+15
2.5304378e+15
8.5481262e+15
-1.7812607e+15
-6.0774803e+16
2.6312332e+15
-1.7813494e+15
-6.0004176e+16
7.0464939e+15
-5.9050625e+16
-2.7695002e+15
-2.3245252e+15
3.731663e+15
3.4766704e+15
-1.1769098e+15
1.5192523e+15
9.459789e+14
-1.3694237e+16
9.9066365e+14
-1.4202911e+16
7.4840169e+15
-5.966109e+16
-2.3793885e+15
3.7803745e+15
3.3160765e+15
-2.9149985e+15
1.1817526e+15
1.0298357e+15
-1.4136303e+16
1.0023735e+15
-1.3835762e+16
-5.509172e+14
-1.7314342e+15
-4.9399276e+14
5.3351208e+14
1.8245012e+15
-2.0875431e+15
-7.3532245e+15
7.7658559e+15
-1.6442419e+15
-4.083606e+16
-7.3958875e+15
7.5630069e+15
-1.6243423e+15
-5.527486e+16
-1.5640712e+15
1.4503998e+15
-2.4818757e+15
-2.6784815e+15
-4.0439369e+16
-1.6433079e+15
-5.4881785e+16
6.1150875e+15
2.5772633e+15
-3.0132633e+15
-5.9613582e+16
2.613403e+15
6.4115787e+15
-3.0012531e+15
-5.9554266e+16
-5.7753649e+15
5.8544452e+15
-5.8294766e+16
3.4183987e+15
-2.0590539e+15
-2.4852897e+15
2.9548262e+15
9.0615562e+14
1.069349e+16
-9.6616313e+14
-1.3197198e+16
-2.181583e+14
1.0772415e+16
1.1662754e+15
-1.3208355e+16
-2.4519971e+13
-9.3334827e+14
4.8620683e+14
1.25472e+15
-1.0961397e+15
3.5746659e+14
-5.8267995e+16
3.3455116e+15
-2.0323106e+15
-2.4831165e+15
2.9292445e+15
-8.329071e+14
1.067427e+16
-1.3008619e+16
-2.4565178e+12
1.0648831e+16
-1.3100194e+16
-1.8526589e+14
8.3072602e+14
4.1400519e+14
5.2814416e+14
-4.5477031e+14
4.1209696e+14
-1.5554983e+15
-5.2977063e+14
5.3285386e+14
-3.6749007e+13
-4.4752832e+15
-5.8266644e+15
6.5439373e+15
-2.086606e+15
-4.1140405e+16
-5.6813637e+15
5.8162733e+15
-1.5561177e+15
-5.7406508e+16
-1.5653432e+15
-5.8462215e+14
-4.6023539e+15
-1.6025768e+15
-3.9903143e+16
-1.6786419e+15
-5.6038624e+16
5.1842574e+15
-5.9857858e+16
-3.3660596e+15
-6.0019194e+16
5.2664803e+15
-3.3863035e+15
-4.771059e+15
4.9541414e+15
-8.0610747e+14
-4.1010009e+16
-4.9016699e+15
-5.740844e+16
5.0605693e+15
-2.0973262e+15
-1.5786145e+15
-3.979876e+16
-5.7015289e+16
-2.1834352e+15
-5.5612279e+14
5.741745e+14
-1.1815479e+15
-4.1333744e+15
-3.7622462e+15
-4.514973e+16
4.1679766e+15
8.3010303e+14
-1.2118994e+15
-4.2406935e+15
-4.3355398e+16
7.8703016e+14
-1.0028609e+15
1.1242879e+15
-1.3212011e+16
-7.472978e+14
-6.5930712e+14
8.0397018e+14
7.2833273e+14
-1.2873841e+16
-6.6590514e+14
7.7660561e+14
7.2140131e+14
-7.466236e+14
-1.4237697e+15
1.3975435e+15
-1.3300432e+16
-4.221977e+14
-5.2371107e+14
9.0123463e+14
9.9957816e+14
-1.3590762e+16
-4.2542251e+14
-5.2065318e+14
9.1561315e+14
1.0098428e+15
-1.1036809e+15
-1.3284644e+16
1.2062548e+15
8.1884029e+14
-6.5393593e+14
-7.4860023e+14
7.287855e+14
-1.7815661e+14
2.4743071e+15
2.4158332e+14
-3.1959411e+15
-9.2847123e+13
2.3331183e+14
2.2158869e+14
-1.1323738e+14
2.4663809e+15
-2.1137644e+14
-3.1990584e+15
-9.8574825e+13
2.3587666e+14
2.1515306e+14
-1.0899056e+14
1.7258966e+14
2.3996324e+14
-5.731005e+13
-6.9372693e+13
2.3508861e+14
-5.3888361e+13
2.2381615e+14
2.336059e+14
-7.2885497e+13
-1.2877731e+16
-6.8651126e+14
-7.633708e+14
6.9493179e+14
7.6802695e+14
-1.7321022e+14
-3.1426831e+15
-9.6577354e+13
2.2474645e+14
-1.1503487e+14
-3.1765938e+15
-9.8199283e+13
-1.0847021e+14
-1.4473349e+15
-1.3423595e+16
-4.0106245e+14
-5.3438131e+14
-1.3362715e+16
-5.2930109e+14
-4.2927993e+14
9.018007e+14
1.0011827e+15
3.0628807e+14
1.3060432e+16
1.0195219e+16
1.0124628e+16
1.0039165e+16
1.0253041e+16
1.3153979e+16
1.0839432e+15
9.820008e+15
1.0048354e+16
1.0217366e+16
9.926171e+15
4.4299386e+16
4.475648e+16
2.6603995e+16
4.8651308e+16
1.9518905e+16
4.9156238e+16
4.6248938e+16
-2.2412007e+16
1.6909501e+14
-3.2300744e+15
-2.0571137e+14
-1.8343808e+14
1.4991541e+14
1.1498524e+14
-6.1796053e+14
-4.8360684e+13
6.2668931e+13
-1.6115514e+13
-4.9002153e+13
-7.8661959e+14
6.1330218e+13
-1.7878783e+13
-6.2142589e+14
-5.5995182e+13
-7.968183e+14
-2.6554157e+13
-4.5647062e+13
-7.9255147e+14
-2.7571953e+13
-7.8280178e+14
-2.7822674e+13
2.2095978e+14
-3.2745752e+15
1.3775011e+14
-1.8382544e+14
-2.1124908e+14
1.1939316e+14
-3.2568013e+15
-2.0754195e+14
-1.8599251e+14
1.4858195e+14
1.1357491e+14
-4.3668797e+14
-1.0016758e+16
9.7799777e+14
9.6447885e+14
-1.665378e+14
-2.009673e+14
-9.8979463e+15
1.0305546e+15
9.6084613e+14
-1.6855065e+14
-1.3239951e+14
8.6988198e+13
-1.0804085e+16
-1.1703611e+15
-1.0583922e+16
-1.1470074e+15
9.3154257e+15
9.2798712e+15
-4.4107374e+15
-1.4911175e+14
-3.0220667e+15
-1.4984954e+14
-1.3485248e+14
1.8137529e+14
1.5270572e+14
1.3548615e+14
2.4017317e+15
-1.4889968e+14
-2.9376971e+15
-1.470187e+14
-1.348276e+14
1.8042958e+14
1.4831478e+14
2.3759683e+15
-2.8704819e+15
-1.506485e+14
-1.3544042e+14
1.7449686e+14
1.5361656e+14
-1.4245348e+14
3.1880683e+15
-1.9004644e+14
-1.7172445e+14
1.5242658e+14
1.4511255e+14
3.2186879e+15
-1.5896506e+14
1.6062051e+14
-1.7449138e+14
-1.8664528e+14
1.4006175e+14
-1.3733967e+14
2.4810178e+15
1.412556e+14
-1.8397572e+14
-2.0495615e+14
1.3156317e+14
2.5015265e+15
-1.6363484e+14
-2.0059848e+14
-1.8473403e+14
1.4898364e+14
1.2733384e+14
-1.4878355e+14
-2.1077606e+14
1.1948059e+14
-1.9224192e+14
1.3977799e+14
-1.8771797e+14
-2.0572e+14
1.168934e+14
-1.2799884e+14
2.5020392e+15
-3.2015625e+15
1.6097981e+14
-1.7896322e+14
-2.0595419e+14
1.3543043e+14
2.4832611e+15
-3.1605998e+15
-2.02174e+14
-1.8024864e+14
1.644495e+14
1.2985532e+14
-1.5587213e+14
-2.0847529e+14
-1.7110614e+14
1.4116999e+14
1.2259966e+14
1.4561576e+14
-1.8023443e+14
-2.0263755e+14
1.2019704e+14
9.5226615e+13
2.3398293e+15
-2.8239592e+15
-1.4455201e+14
-1.3087814e+14
1.8055427e+14
1.474338e+14
2.3698473e+15
-2.8885397e+15
-1.4964721e+14
-1.3283272e+14
1.7503942e+14
1.4997346e+14
-1.1184716e+14
1.5218254e+14
-1.7138432e+14
-1.9109405e+14
1.4228983e+14
1.6215944e+14
-1.6956884e+14
-1.8531058e+14
1.4131969e+14
2.0548208e+15
5.5830576e+13
-2.1503948e+15
-4.0844567e+13
-4.3679177e+13
-1.2573737e+14
1.0905788e+14
-4.6776892e+13
1.8261532e+14
1.8788621e+14
-5.2700928e+13
-2.1676193e+15
-1.6200755e+14
-5.6576253e+13
-5.7901219e+13
1.9366187e+14
1.811818e+14
-2.2660318e+15
3.6969985e+13
-3.1401896e+13
9.7411945e+13
-1.5156137e+14
1.9133566e+15
2.0361265e+15
-6.2883151e+14
2.3001588e+15
2.277135e+15
1.2124356e+14
-6.5158447e+14
2.0456716e+15
2.0547023e+15
-9.8324957e+13
-2.1621568e+15
1.8486069e+14
-5.6298227e+13
-6.5868384e+13
1.8000648e+14
-2.1455911e+15
-1.0616104e+14
1.9215103e+14
-6.0120247e+13
-5.8459862e+13
1.7509668e+14
2.5984146e+13
-3.3149113e+13
2.2080452e+13
-2.9586224e+13
7.8064755e+14
5.388065e+15
8.9175143e+15
8.9800549e+15
8.2587438e+15
8.3216358e+15
1.8540378e+14
2.2114115e+15
2.3006469e+15
-6.4783417e+14
1.9850124e+15
2.0523357e+15
2.2796087e+15
2.2180588e+15
-5.8903622e+14
2.036981e+15
1.9967696e+15
5.2761353e+15
1.3828078e+15
8.1049234e+15
8.3538812e+15
8.7002446e+15
8.984201e+15
-1.0487334e+14
-2.0991281e+15
-6.4102246e+13
-5.5008514e+13
1.8009886e+14
1.8123729e+14
-2.1684917e+15
-1.0121236e+14
1.8891755e+14
-6.2699481e+13
-6.2385848e+13
1.7409802e+14
1.6673452e+13
-3.1050027e+13
-2.4789908e+12
-2.0901802e+13
3.9400684e+13
-2.0820806e+15
1.9044047e+14
-5.5173326e+13
-5.22908e+13
1.7352029e+14
2.1391708e+15
9.9927294e+12
-1.5362234e+13
-5.5672067e+13
1.830476e+14
1.7917071e+14
-6.4117974e+13
-1.2802516e+13
-6.4828049e+14
-3.8820029e+13
8.2620323e+14
4.6692808e+13
-1.3516288e+13
-3.941744e+13
-7.8415398e+14
3.8755021e+13
-3.2210943e+13
6.4688932e+14
-7.9718603e+14
-4.3352475e+13
-3.3919269e+13
-4.4337301e+13
8.290849e+14
-1.9588012e+13
-5.8066834e+14
-4.2076306e+13
3.4797362e+13
-2.7705976e+13
-2.9206303e+13
2.5597767e+13
-6.6489843e+14
-4.6725461e+13
5.997149e+14
-3.6799124e+13
-6.9680623e+14
-4.1363006e+13
-5.1646796e+13
-2.3691679e+13
2.5811823e+13
5.8919757e+14
-2.8243263e+13
-6.9244873e+14
-3.9372435e+13
5.9070997e+14
-6.9634977e+14
-4.188753e+13
-3.616045e+13
7.7809314e+14
-2.6920767e+13
7.7272865e+14
-3.7296415e+13
-2.2985823e+13
-6.2923312e+14
-3.2586181e+13
8.1127865e+14
-2.7056249e+13
-2.8961109e+13
-3.6962046e+13
6.2665565e+14
-3.1091636e+13
-3.4021349e+13
8.0075515e+14
-3.344829e+13
-2.4361448e+13
-6.3475238e+14
-4.5641243e+13
5.7987006e+13
-1.7395229e+13
-4.626362e+13
-8.0699798e+14
5.8250172e+13
-2.1492374e+13
6.3827642e+14
-8.1606391e+14
-5.326834e+13
-2.6273245e+13
-5.412863e+13
-2.3799696e+13
-6.5108319e+14
-4.1852815e+13
5.6512625e+13
-2.1288295e+13
-4.1140567e+13
5.4695142e+13
-1.6332222e+13
6.5192993e+14
-4.3302047e+13
-2.785385e+13
-4.9440094e+13
-2.2658678e+13
3.2510372e+13
6.3629972e+14
-3.7030838e+13
-2.9852443e+13
6.4294796e+14
-2.8337e+13
-3.8658943e+13
8.0785553e+14
-2.4870102e+13
7.9666436e+14
-4.4167236e+13
-2.2094352e+13
-6.3300896e+14
-4.491784e+13
-3.0179997e+13
-4.0670796e+13
-2.782322e+13
6.2800917e+14
-5.0412627e+13
-2.5877931e+13
-5.2788632e+13
-2.6700407e+13
-6.3755201e+14
-4.444152e+13
-1.7505745e+13
-4.5843054e+13
-8.0675989e+14
-1.6084173e+13
6.4030289e+14
-8.1720853e+14
-5.4689748e+13
-2.8729113e+13
-5.40759e+13
-2.0019846e+13
-6.4609484e+14
-3.9991793e+13
-2.4869993e+13
-3.4886185e+13
-8.1264266e+14
-3.5310811e+13
6.5129998e+14
-4.4800469e+13
-8.2410344e+14
-3.354315e+13
-5.2067904e+13
-2.2784191e+13
3.7364647e+13
6.4319523e+14
-8.0972655e+14
-4.8094475e+13
-3.369925e+13
6.5332323e+14
-8.2489682e+14
-3.070745e+13
-4.3589649e+13
8.1734426e+14
-1.3962816e+13
8.0059182e+14
-5.089787e+13
-2.3349088e+13
-6.3904896e+14
-4.39272e+13
-2.9448013e+13
-4.1918387e+13
-2.5519429e+13
6.2997855e+14
-5.1750259e+13
-2.7239621e+13
-4.9537253e+13
-2.7564229e+13
2.295497e+13
5.9261177e+14
-2.6565749e+13
-6.9068065e+14
-5.0520405e+13
6.0081307e+14
3.2351983e+13
-7.035234e+14
-4.8674734e+13
-2.7405035e+13
3.7881756e+13
7.9433345e+14
-3.4121598e+13
7.8234258e+14
-3.2755232e+13
-3.3997792e+13
2.819351e+13
6.0209465e+14
-7.0895466e+14
-4.3964513e+13
5.9657812e+14
-6.9185236e+14
-4.54841e+13
-3.209723e+13
7.8742057e+14
-3.0146977e+13
7.9335141e+14
-3.0667287e+13
2.7777662e+13
6.4280023e+14
-3.6968109e+13
-4.0074431e+13
6.3877932e+14
-3.9431165e+13
-2.981816e+13
-3.1946479e+13
-4.0817081e+13
-2.9416291e+13
-6.4231527e+14
-3.5209967e+13
-3.1148505e+13
-2.7290183e+13
-4.2302504e+13
6.3556693e+14
-3.3882043e+13
-4.2235485e+13
-4.156522e+13
-2.9424684e+13
-6.4961024e+14
-3.2708995e+13
8.2605084e+14
-1.7704912e+13
-3.2331473e+13
-7.9108152e+14
-3.6527589e+13
6.4307915e+14
-7.9561311e+14
-3.5148915e+13
-3.9152306e+13
-3.7607105e+13
8.2419623e+14
-2.471976e+13
-5.9381534e+14
-3.3143335e+13
-3.2172264e+13
-2.6192491e+13
-6.8712885e+14
-5.0550785e+13
6.0372491e+14
-2.9445847e+13
-7.0942619e+14
-4.6181007e+13
-3.6852711e+13
-3.0507094e+13
2.2993001e+13
5.915486e+14
-2.6289267e+13
-6.9303902e+14
-4.8864098e+13
6.0390741e+14
-7.0715074e+14
-4.8619998e+13
-2.6733859e+13
7.9597054e+14
-3.2819962e+13
7.7811429e+14
-3.1250383e+13
-3.2686422e+13
-6.41685e+14
-3.0799487e+13
8.2223934e+14
-3.1541877e+13
-2.5107835e+13
-4.1735625e+13
6.3192005e+14
-3.3984176e+13
-4.1424141e+13
8.0516068e+14