/*--------------------------------*- C++ -*----------------------------------*\
  =========                 |
  \\      /  F ield         | OpenFOAM: The Open Source CFD Toolbox
   \\    /   O peration     | Website:  https://openfoam.org
    \\  /    A nd           | Version:  7
     \\/     M anipulation  |
\*---------------------------------------------------------------------------*/
FoamFile
{
    version     2.0;
    format      ascii;
    class       volScalarField;
    location    "3000";
    object      pMean;
}
// * * * * * * * * * * * * * * * * * * * * * * * * * * * * * * * * * * * * * //

dimensions      [0 2 -2 0 0 0 0];

internalField   nonuniform List<scalar> 
34158
(
-2.2050513e+37
-2.2122549e+37
-2.2171921e+37
-2.2240128e+37
-2.1798244e+37
-2.1717041e+37
-2.1661531e+37
-2.1742003e+37
-1.9883826e+37
-1.9832933e+37
-2.1940157e+37
-2.1855866e+37
-2.181845e+37
-2.190197e+37
-2.1788375e+37
-2.1504879e+37
-2.1705416e+37
-2.1422182e+37
-2.1294076e+37
-2.1369872e+37
-2.0165422e+37
-2.0107797e+37
-2.0005474e+37
-1.9944138e+37
-1.894108e+37
-1.9351093e+37
-1.9332674e+37
-1.8923726e+37
-2.0000086e+37
-2.0304265e+37
-2.0273321e+37
-1.9953032e+37
-1.9913616e+37
-2.0232226e+37
-1.8318625e+37
-1.8281769e+37
-2.2109232e+37
-2.1998071e+37
-2.193485e+37
-2.1664101e+37
-2.1848668e+37
-2.1580097e+37
-2.1451568e+37
-2.154063e+37
-2.1780386e+37
-2.1696248e+37
-2.1790878e+37
-2.1463233e+37
-2.119188e+37
-2.1710485e+37
-2.1381309e+37
-2.1114558e+37
-2.0874078e+37
-2.0934981e+37
-2.0227245e+37
-2.0283761e+37
-2.0086785e+37
-2.0034292e+37
-1.9588256e+37
-1.9536805e+37
-1.8063649e+37
-2.0066983e+37
-1.9493701e+37
-1.9003672e+37
-1.9056974e+37
-1.9407236e+37
-2.0101703e+37
-2.0403301e+37
-2.0394799e+37
-2.0057688e+37
-2.0046709e+37
-2.0371895e+37
-2.0347791e+37
-2.0030618e+37
-1.8445212e+37
-1.9767001e+37
-1.9725391e+37
-1.9406644e+37
-1.934955e+37
-1.9333528e+37
-1.9691569e+37
-1.8422825e+37
-2.0059069e+37
-2.0087295e+37
-2.021168e+37
-2.0196869e+37
-2.0263527e+37
-2.0276682e+37
-2.0380413e+37
-2.0222227e+37
-2.0250526e+37
-2.0361244e+37
-2.0335082e+37
-2.0043425e+37
-2.0184586e+37
-2.0012983e+37
-2.015353e+37
-1.9977144e+37
-2.0002808e+37
-2.0140289e+37
-2.0127718e+37
-2.0326628e+37
-2.020824e+37
-2.0314488e+37
-2.0199754e+37
-1.839276e+37
-1.8351223e+37
-1.8259009e+37
-1.8219158e+37
-1.893034e+37
-1.8885204e+37
-2.1872277e+37
-2.1758301e+37
-2.1735182e+37
-2.1625694e+37
-2.1867651e+37
-2.1972115e+37
-2.1939583e+37
-2.1621262e+37
-2.1366142e+37
-2.1853576e+37
-2.1539642e+37
-2.1281414e+37
-2.1017036e+37
-2.109129e+37
-2.1225486e+37
-2.2033357e+37
-2.2051931e+37
-2.1151175e+37
-2.1957652e+37
-2.1977631e+37
-2.1791077e+37
-2.1462637e+37
-2.1146076e+37
-2.0819064e+37
-2.1710674e+37
-2.137874e+37
-2.1067874e+37
-2.0755143e+37
-2.0348478e+37
-2.0400134e+37
-2.0206381e+37
-2.015337e+37
-1.9639848e+37
-1.9693946e+37
-2.0096008e+37
-1.9471559e+37
-2.0046912e+37
-1.9438305e+37
-2.2408505e+37
-2.2383301e+37
-1.7913892e+37
-1.8138521e+37
-2.0691153e+37
-1.9550001e+37
-1.9117792e+37
-2.0158555e+37
-2.0474288e+37
-2.0438395e+37
-2.0128039e+37
-1.9893701e+37
-1.9559325e+37
-1.9486262e+37
-1.9841358e+37
-1.8499608e+37
-1.8552976e+37
-1.9809621e+37
-1.9785723e+37
-1.9432163e+37
-1.9440485e+37
-2.031542e+37
-2.0171388e+37
-2.0148088e+37
-2.0293373e+37
-2.0515222e+37
-2.0405458e+37
-2.0382308e+37
-2.0504582e+37
-2.0490135e+37
-2.0382085e+37
-2.035652e+37
-2.0462235e+37
-2.0134443e+37
-2.0150177e+37
-2.0303567e+37
-2.0282441e+37
-2.0273704e+37
-2.0139991e+37
-2.0124817e+37
-2.0267214e+37
-2.0340008e+37
-2.0454945e+37
-2.0332471e+37
-2.0447585e+37
-2.0299055e+37
-2.0323091e+37
-2.0426661e+37
-2.0127211e+37
-2.0266561e+37
-2.0235662e+37
-2.0114394e+37
-1.8263405e+37
-1.9352639e+37
-1.9277922e+37
-2.0005922e+37
-1.999372e+37
-2.0039456e+37
-1.9983912e+37
-1.9972245e+37
-1.9946139e+37
-1.9941535e+37
-1.9932307e+37
-1.9253045e+37
-1.9923263e+37
-1.9902098e+37
-1.9924997e+37
-1.989127e+37
-1.8233215e+37
-2.01427e+37
-2.016357e+37
-2.0184054e+37
-2.0202707e+37
-2.0176571e+37
-2.017707e+37
-2.0214425e+37
-2.0206462e+37
-2.021071e+37
-2.0250728e+37
-2.0251933e+37
-2.021767e+37
-2.0206116e+37
-2.0243876e+37
-2.0229176e+37
-2.019521e+37
-2.0325002e+37
-2.033874e+37
-2.0392905e+37
-2.0381272e+37
-2.0346782e+37
-2.0351018e+37
-2.0406757e+37
-2.0401532e+37
-2.0479419e+37
-2.0460118e+37
-2.0469908e+37
-2.0513479e+37
-2.0505406e+37
-2.0287747e+37
-2.0293466e+37
-2.0349045e+37
-2.0342458e+37
-2.0307437e+37
-2.0316761e+37
-2.0370942e+37
-2.0359664e+37
-2.0495564e+37
-2.045068e+37
-2.0440252e+37
-2.0482701e+37
-2.0474897e+37
-2.0431809e+37
-2.0425513e+37
-2.0468871e+37
-2.0135598e+37
-2.0138149e+37
-2.0182719e+37
-2.0183938e+37
-2.019046e+37
-2.0225035e+37
-2.0217144e+37
-2.0187981e+37
-2.018326e+37
-2.013301e+37
-2.010336e+37
-2.014955e+37
-2.0161163e+37
-2.0182002e+37
-2.0207761e+37
-2.0194822e+37
-2.0060386e+37
-2.0079455e+37
-2.0130785e+37
-2.0110086e+37
-2.0091475e+37
-2.0095329e+37
-2.0138087e+37
-2.0142142e+37
-2.0186257e+37
-2.0149487e+37
-2.0152622e+37
-2.0186464e+37
-2.0133787e+37
-2.0141905e+37
-2.0178445e+37
-2.0169146e+37
-2.0462425e+37
-2.0419901e+37
-2.0411196e+37
-2.0452241e+37
-2.0337374e+37
-2.0279594e+37
-2.0276875e+37
-2.0329223e+37
-2.0440739e+37
-2.0401325e+37
-2.039302e+37
-2.0434484e+37
-2.0319985e+37
-2.0267748e+37
-2.0262114e+37
-2.0313255e+37
-1.8339212e+37
-1.8476207e+37
-1.8428763e+37
-1.8324874e+37
-1.8284151e+37
-1.9023389e+37
-1.8973884e+37
-1.8303747e+37
-1.8787099e+37
-1.8273151e+37
-1.875518e+37
-2.1838803e+37
-2.1960934e+37
-2.1827492e+37
-2.1560871e+37
-2.1715164e+37
-2.1457858e+37
-2.1266765e+37
-2.1176989e+37
-2.1313416e+37
-2.2165347e+37
-2.209527e+37
-2.1400095e+37
-2.2230468e+37
-2.2272656e+37
-2.1940012e+37
-2.1625595e+37
-2.1318975e+37
-2.0978806e+37
-2.1853951e+37
-2.1539589e+37
-2.1237812e+37
-2.0901092e+37
-2.0470798e+37
-2.0537274e+37
-2.0543342e+37
-2.1283758e+37
-2.1328147e+37
-2.17242e+37
-2.1685167e+37
-2.0476211e+37
-2.1256487e+37
-2.1209064e+37
-2.160616e+37
-2.1651087e+37
-2.1462602e+37
-2.1140003e+37
-2.08104e+37
-2.0312572e+37
-2.1378521e+37
-2.1058673e+37
-2.0740199e+37
-2.0267301e+37
-1.9746898e+37
-1.9801088e+37
-2.0217432e+37
-1.9581209e+37
-2.0166295e+37
-1.9529584e+37
-2.0097009e+37
-1.9489773e+37
-2.0049734e+37
-1.9463244e+37
-2.2019882e+37
-2.1987678e+37
-2.2514642e+37
-2.2450437e+37
-2.2094317e+37
-2.2656621e+37
-2.2642503e+37
-2.2737015e+37
-2.2751291e+37
-2.2060494e+37
-2.262558e+37
-2.260622e+37
-2.2626653e+37
-2.2573314e+37
-1.8346955e+37
-1.8382492e+37
-1.7989621e+37
-1.8222442e+37
-2.0705762e+37
-2.0797571e+37
-2.0751686e+37
-2.0787683e+37
-2.0744876e+37
-2.0733833e+37
-2.0723261e+37
-2.0727001e+37
-2.0744288e+37
-1.9942734e+37
-1.9913214e+37
-1.9569773e+37
-1.9589189e+37
-1.8612815e+37
-2.0225819e+37
-2.0203578e+37
-2.0223509e+37
-2.03687e+37
-2.0359406e+37
-2.0455545e+37
-2.0446384e+37
-2.0582097e+37
-2.0569445e+37
-2.043675e+37
-2.0414402e+37
-2.0551784e+37
-2.0525558e+37
-2.0186968e+37
-2.0202521e+37
-2.0352e+37
-2.0326208e+37
-2.0151112e+37
-2.0087479e+37
-2.0089657e+37
-2.0101062e+37
-1.9468536e+37
-1.9394255e+37
-2.007222e+37
-2.0046848e+37
-2.0058002e+37
-2.0060095e+37
-1.8317345e+37
-1.9361031e+37
-1.9378156e+37
-1.8360084e+37
-2.0049742e+37
-2.0045874e+37
-2.004829e+37
-2.0018532e+37
-2.0013764e+37
-2.0010576e+37
-2.0037927e+37
-2.0042101e+37
-2.0354465e+37
-2.0323665e+37
-2.0323834e+37
-2.0363301e+37
-2.0309356e+37
-2.0270329e+37
-2.0273442e+37
-2.0314244e+37
-2.0230109e+37
-2.0250684e+37
-2.0298795e+37
-2.0281994e+37
-2.0360023e+37
-2.0322577e+37
-2.0311224e+37
-2.0349664e+37
-2.0651584e+37
-2.0603973e+37
-2.0600185e+37
-2.0645568e+37
-2.0525694e+37
-2.0463812e+37
-2.0466784e+37
-2.0523843e+37
-2.0449644e+37
-2.0459856e+37
-2.0515035e+37
-2.0503912e+37
-2.0637131e+37
-2.0592663e+37
-2.0585389e+37
-2.0628871e+37
-2.0618207e+37
-2.0576343e+37
-2.0564126e+37
-2.0604854e+37
-2.0493322e+37
-2.0440823e+37
-2.0432956e+37
-2.0484535e+37
-2.0410882e+37
-2.0422528e+37
-2.0474509e+37
-2.046378e+37
-2.0596555e+37
-2.0553366e+37
-2.0545756e+37
-2.0591956e+37
-2.0229971e+37
-2.0250021e+37
-2.0294293e+37
-2.0270414e+37
-2.0248237e+37
-2.0246254e+37
-2.0291399e+37
-2.0297353e+37
-2.0306484e+37
-2.0304573e+37
-2.0347048e+37
-2.0342139e+37
-2.0332356e+37
-2.0301077e+37
-2.0284908e+37
-2.0315967e+37
-2.0296716e+37
-2.0273041e+37
-2.0276515e+37
-2.0304741e+37
-2.0270915e+37
-2.0230438e+37
-2.0231335e+37
-2.0277993e+37
-2.0215893e+37
-2.0225554e+37
-2.0271684e+37
-2.025858e+37
-2.0303737e+37
-2.0273334e+37
-2.0265068e+37
-2.0295111e+37
-2.0460781e+37
-2.0403916e+37
-2.0456931e+37
-2.0406003e+37
-2.0587252e+37
-2.0539547e+37
-2.0536149e+37
-2.0580463e+37
-2.0396295e+37
-2.0452371e+37
-2.0442149e+37
-2.0388553e+37
-2.0522181e+37
-2.0529197e+37
-2.0572464e+37
-2.0360002e+37
-2.0368725e+37
-2.041026e+37
-2.0418437e+37
-2.0377433e+37
-2.0382985e+37
-2.043319e+37
-2.0425906e+37
-2.0503507e+37
-2.0510389e+37
-2.02258e+37
-2.0219772e+37
-2.0260429e+37
-2.0260657e+37
-2.02566e+37
-2.0292957e+37
-2.0261947e+37
-2.0286987e+37
-2.0266822e+37
-2.0238007e+37
-2.0224139e+37
-2.0254997e+37
-2.0249099e+37
-2.0226493e+37
-2.0190197e+37
-2.0221147e+37
-1.9194909e+37
-1.910926e+37
-1.9227703e+37
-1.9141172e+37
-2.0154115e+37
-2.0087468e+37
-2.0055981e+37
-2.004551e+37
-2.0096384e+37
-2.0264952e+37
-2.0232574e+37
-2.0102837e+37
-2.0088448e+37
-2.0207456e+37
-2.0215477e+37
-2.0065663e+37
-2.0168598e+37
-2.0207995e+37
-2.0063827e+37
-2.0055956e+37
-2.016249e+37
-2.0153211e+37
-2.0045764e+37
-2.0017848e+37
-1.9109274e+37
-2.0032295e+37
-1.9988829e+37
-2.0016038e+37
-2.0167364e+37
-2.0126763e+37
-2.0010991e+37
-1.9993243e+37
-2.010601e+37
-2.0108983e+37
-1.9968092e+37
-1.9148837e+37
-1.90772e+37
-1.9106223e+37
-2.0291227e+37
-2.0307056e+37
-2.0358399e+37
-2.0370548e+37
-2.031657e+37
-2.0319272e+37
-2.0380308e+37
-2.0379553e+37
-2.033927e+37
-2.0342047e+37
-2.0335525e+37
-2.0337855e+37
-2.0329581e+37
-2.0328051e+37
-2.0316499e+37
-2.0319221e+37
-2.0375931e+37
-2.0386296e+37
-2.0436423e+37
-2.042612e+37
-2.0395015e+37
-2.0402473e+37
-2.0454394e+37
-2.044499e+37
-2.0502863e+37
-2.0484505e+37
-2.049481e+37
-2.0548526e+37
-2.0538014e+37
-2.0336174e+37
-2.0342486e+37
-2.0396357e+37
-2.0389297e+37
-2.0352615e+37
-2.0365489e+37
-2.0417195e+37
-2.0406802e+37
-2.0527798e+37
-2.0475332e+37
-2.0466391e+37
-2.0515634e+37
-2.0507557e+37
-2.0457249e+37
-2.0449609e+37
-2.0499902e+37
-2.0278807e+37
-2.0281609e+37
-2.0350202e+37
-2.0347854e+37
-2.0309884e+37
-2.0308789e+37
-2.0296515e+37
-2.0303489e+37
-2.0341015e+37
-2.0276955e+37
-2.0256237e+37
-2.0323662e+37
-2.0283101e+37
-2.0301263e+37
-2.0289548e+37
-2.0279998e+37
-2.0217373e+37
-2.0227283e+37
-2.0298253e+37
-2.0286698e+37
-2.0233968e+37
-2.0238375e+37
-2.0309246e+37
-2.0307551e+37
-2.0273083e+37
-2.0273094e+37
-2.0268891e+37
-2.0266719e+37
-2.0250946e+37
-2.0260559e+37
-2.0258816e+37
-2.0251247e+37
-2.0493756e+37
-2.0442512e+37
-2.0432109e+37
-2.0484103e+37
-2.0381914e+37
-2.0331121e+37
-2.032242e+37
-2.0372793e+37
-2.0475736e+37
-2.0423335e+37
-2.0413847e+37
-2.0364321e+37
-2.0314434e+37
-2.0307723e+37
-2.0356967e+37
-1.8421853e+37
-1.8549576e+37
-1.8589916e+37
-1.8626953e+37
-1.8585324e+37
-1.8789231e+37
-1.8546317e+37
-1.8497853e+37
-1.8739318e+37
-1.8406161e+37
-1.8355215e+37
-1.9117573e+37
-1.9062608e+37
-1.8370811e+37
-1.8881823e+37
-1.8340461e+37
-1.8836825e+37
-1.8836178e+37
-1.832578e+37
-1.8298557e+37
-1.8811631e+37
-2.1780628e+37
-2.1668746e+37
-2.1363312e+37
-2.1460539e+37
-2.1497829e+37
-2.1601004e+37
-2.1831223e+37
-2.150882e+37
-2.1150809e+37
-2.1719183e+37
-2.1411543e+37
-2.106083e+37
-2.0691957e+37
-2.0616162e+37
-2.0621315e+37
-2.1374086e+37
-2.1408683e+37
-2.1812946e+37
-2.1767822e+37
-2.0695968e+37
-2.1493649e+37
-2.1907831e+37
-2.1869616e+37
-2.1457246e+37
-2.1625801e+37
-2.1312917e+37
-2.0973489e+37
-2.0450688e+37
-2.1539648e+37
-2.1228255e+37
-2.0894874e+37
-2.0377939e+37
-1.9866477e+37
-1.9932121e+37
-1.9894322e+37
-2.0907494e+37
-2.0581843e+37
-2.0544706e+37
-2.0870655e+37
-2.1619296e+37
-2.1662917e+37
-1.9827395e+37
-2.0842786e+37
-2.0514062e+37
-2.0461505e+37
-2.07969e+37
-2.1590831e+37
-2.1543338e+37
-2.1139585e+37
-2.0814329e+37
-2.0324545e+37
-1.9669373e+37
-2.1057936e+37
-2.0735003e+37
-2.0278857e+37
-1.9634543e+37
-2.0224291e+37
-1.9595584e+37
-2.0173538e+37
-1.9548522e+37
-2.0096888e+37
-1.9497999e+37
-2.004972e+37
-1.9474924e+37
-2.2186307e+37
-2.2194842e+37
-2.2384935e+37
-2.2373694e+37
-2.2723465e+37
-2.2733274e+37
-2.2749402e+37
-2.274498e+37
-2.2172167e+37
-2.236019e+37
-2.2347536e+37
-2.2164813e+37
-2.2714795e+37
-2.2711327e+37
-2.2182307e+37
-2.2762872e+37
-2.2741584e+37
-2.2834351e+37
-2.2856154e+37
-2.2134374e+37
-2.2705328e+37
-2.2682789e+37
-2.2775721e+37
-2.28022e+37
-2.2463455e+37
-2.2279045e+37
-2.2266193e+37
-2.2451457e+37
-2.2827411e+37
-2.2871672e+37
-2.2871941e+37
-2.282415e+37
-2.2812289e+37
-2.286147e+37
-2.2844375e+37
-2.2801014e+37
-2.2975347e+37
-2.29404e+37
-2.2926794e+37
-2.2952699e+37
-2.2986992e+37
-2.2986713e+37
-2.2952119e+37
-2.2248538e+37
-2.2223315e+37
-2.2412873e+37
-2.2434309e+37
-2.2790332e+37
-2.2835696e+37
-2.2784673e+37
-2.2772484e+37
-2.2761421e+37
-2.2290105e+37
-2.2878002e+37
-2.2855144e+37
-2.2240421e+37
-2.279386e+37
-2.2823437e+37
-2.2884868e+37
-2.2914589e+37
-1.9214184e+37
-1.9186385e+37
-1.9193378e+37
-1.9216061e+37
-1.8434871e+37
-1.9277578e+37
-1.9224621e+37
-1.9243943e+37
-1.9313495e+37
-1.8073795e+37
-1.8476415e+37
-2.0760309e+37
-2.0767361e+37
-2.0815036e+37
-2.0806544e+37
-2.0820267e+37
-2.0757125e+37
-2.0746343e+37
-2.0738544e+37
-2.0727133e+37
-2.0834647e+37
-2.0786119e+37
-2.0777584e+37
-2.0824867e+37
-2.0817893e+37
-2.0797003e+37
-2.0806888e+37
-2.0855163e+37
-2.0846244e+37
-1.846851e+37
-2.0138205e+37
-2.0164685e+37
-2.0146216e+37
-2.0137331e+37
-2.0168736e+37
-2.0144277e+37
-2.012854e+37
-2.0100916e+37
-2.0132832e+37
-2.0157227e+37
-1.9474959e+37
-1.9491722e+37
-1.8417439e+37
-2.0313047e+37
-2.0340718e+37
-2.0396906e+37
-2.0370328e+37
-2.0409302e+37
-2.0444813e+37
-2.0283845e+37
-2.0294944e+37
-2.0341861e+37
-2.0335759e+37
-2.0293943e+37
-2.0304389e+37
-2.0346587e+37
-2.0356754e+37
-2.0393403e+37
-2.0385663e+37
-2.0436443e+37
-2.0435362e+37
-2.0425683e+37
-2.0379449e+37
-2.0376374e+37
-2.0416267e+37
-2.0596312e+37
-2.0538141e+37
-2.0532366e+37
-2.0587387e+37
-2.0514797e+37
-2.0523314e+37
-2.0580118e+37
-2.056858e+37
-2.067241e+37
-2.071973e+37
-2.0708848e+37
-2.0661657e+37
-2.0652543e+37
-2.0700527e+37
-2.0557293e+37
-2.0508683e+37
-2.0499927e+37
-2.0549967e+37
-2.0475483e+37
-2.0490657e+37
-2.0541464e+37
-2.0529879e+37
-2.0633164e+37
-2.0641291e+37
-2.0691893e+37
-2.0679203e+37
-2.0669245e+37
-2.0623993e+37
-2.0614601e+37
-2.0662115e+37
-2.0268373e+37
-2.0293533e+37
-2.0321133e+37
-2.0304605e+37
-2.0284434e+37
-2.0289208e+37
-2.032577e+37
-2.0334985e+37
-2.0407645e+37
-2.0361678e+37
-2.0366587e+37
-2.0403887e+37
-2.0393172e+37
-2.0351821e+37
-2.0338317e+37
-2.0374553e+37
-2.0251537e+37
-2.035051e+37
-2.019049e+37
-2.0200482e+37
-2.0320398e+37
-2.031112e+37
-2.0297714e+37
-2.0181666e+37
-2.0160476e+37
-2.0188673e+37
-1.9337948e+37
-1.9254197e+37
-2.0159861e+37
-2.0158689e+37
-2.0169969e+37
-2.0308215e+37
-2.0273946e+37
-2.0168839e+37
-2.0164566e+37
-2.0263955e+37
-2.0281048e+37
-2.0142705e+37
-1.9188449e+37
-1.9219832e+37
-1.9220529e+37
-1.9255082e+37
-2.0153536e+37
-2.0122102e+37
-2.0120525e+37
-2.0150335e+37
-1.9303858e+37
-1.9221282e+37
-2.0257829e+37
-2.028923e+37
-2.0145391e+37
-2.0148401e+37
-2.013855e+37
-2.0246086e+37
-2.0265084e+37
-2.0127904e+37
-2.0128646e+37
-2.023941e+37
-2.0255191e+37
-2.0098768e+37
-2.0267587e+37
-2.0131083e+37
-2.013238e+37
-2.0237415e+37
-2.0449364e+37
-2.0446709e+37
-2.0443899e+37
-2.0448035e+37
-2.0482363e+37
-2.042465e+37
-2.0418786e+37
-2.0480673e+37
-2.0396931e+37
-2.0409443e+37
-2.04738e+37
-2.0464884e+37
-2.0442933e+37
-2.0441946e+37
-2.0433337e+37
-2.0435056e+37
-2.068674e+37
-2.0631011e+37
-2.0620029e+37
-2.067624e+37
-2.0570587e+37
-2.0522006e+37
-2.0512493e+37
-2.0561419e+37
-2.0495056e+37
-2.0505625e+37
-2.055554e+37
-2.0546654e+37
-2.0668857e+37
-2.0613981e+37
-2.0606483e+37
-2.0658903e+37
-2.0651614e+37
-2.0602222e+37
-2.058675e+37
-2.0640155e+37
-2.0538333e+37
-2.0486535e+37
-2.0477137e+37
-2.05278e+37
-2.0459299e+37
-2.0467507e+37
-2.0521993e+37
-2.0510786e+37
-2.0631898e+37
-2.0581489e+37
-2.0571542e+37
-2.0624439e+37
-2.0383456e+37
-2.0395962e+37
-2.045834e+37
-2.044677e+37
-2.0393148e+37
-2.0392544e+37
-2.0460492e+37
-2.0462747e+37
-2.0422319e+37
-2.0426273e+37
-2.0429838e+37
-2.042071e+37
-2.0410497e+37
-2.04154e+37
-2.0404157e+37
-2.040123e+37
-2.0392473e+37
-2.0394878e+37
-2.0395451e+37
-2.0393598e+37
-2.0434664e+37
-2.0372556e+37
-2.0369543e+37
-2.0438688e+37
-2.0364645e+37
-2.0366973e+37
-2.0435427e+37
-2.0432659e+37
-2.0387529e+37
-2.0392278e+37
-2.0385616e+37
-2.0380877e+37
-2.0506554e+37
-2.046051e+37
-2.0498023e+37
-2.045263e+37
-2.0620548e+37
-2.0566924e+37
-2.0557907e+37
-2.0611609e+37
-2.0445764e+37
-2.0494717e+37
-2.0487461e+37
-2.0437894e+37
-2.0545156e+37
-2.0552254e+37
-2.0605861e+37
-2.0409509e+37
-2.0421076e+37
-2.0460625e+37
-2.0468206e+37
-2.0422493e+37
-2.042958e+37
-2.0482105e+37
-2.0470401e+37
-2.0527798e+37
-2.0539377e+37
-2.0364687e+37
-2.0363549e+37
-2.0428647e+37
-2.0426148e+37
-2.0375288e+37
-2.0374456e+37
-2.0380527e+37
-2.0367623e+37
-2.0355008e+37
-2.035944e+37
-2.0348838e+37
-2.035062e+37
-2.0411715e+37
-2.0367168e+37
-2.0346097e+37
-2.0397368e+37
-1.9731291e+37
-1.9784346e+37
-1.9805145e+37
-1.9748607e+37
-1.9683096e+37
-1.9689697e+37
-1.9716251e+37
-1.9701707e+37
-1.9735902e+37
-1.979826e+37
-1.9950375e+37
-1.9881891e+37
-1.9697125e+37
-1.9701727e+37
-1.9848111e+37
-1.9843856e+37
-2.0319443e+37
-2.0292283e+37
-2.0277575e+37
-2.0273504e+37
-2.0270792e+37
-2.0229327e+37
-2.0211162e+37
-2.0211975e+37
-2.0171108e+37
-2.0162425e+37
-2.0155392e+37
-2.013602e+37
-2.0131274e+37
-2.0115754e+37
-2.0107222e+37
-2.0089752e+37
-1.9683745e+37
-1.9647001e+37
-1.98311e+37
-1.9792035e+37
-2.0224056e+37
-2.018819e+37
-2.0168563e+37
-2.0165451e+37
-2.0084133e+37
-2.0069916e+37
-2.0058026e+37
-2.0045458e+37
-1.9784286e+37
-1.9636198e+37
-1.9666452e+37
-1.9639958e+37
-1.9658272e+37
-1.9691564e+37
-1.9633699e+37
-1.9662569e+37
-1.9666963e+37
-1.9645302e+37
-2.0402386e+37
-2.0488042e+37
-2.0476657e+37
-2.0387126e+37
-2.0410678e+37
-2.0493273e+37
-2.0491751e+37
-2.040557e+37
-2.0443724e+37
-2.0521748e+37
-2.0515768e+37
-2.0435026e+37
-2.0456215e+37
-2.0530288e+37
-2.0527483e+37
-2.0451018e+37
-2.0497867e+37
-2.0426062e+37
-2.0503797e+37
-2.0421569e+37
-2.051485e+37
-2.0428167e+37
-2.0504795e+37
-2.0432259e+37
-2.0540992e+37
-2.0535276e+37
-2.0465183e+37
-2.0461562e+37
-2.0545067e+37
-2.0465123e+37
-2.0461797e+37
-2.0548224e+37
-2.0437217e+37
-2.043917e+37
-2.0425926e+37
-2.0424511e+37
-2.0439782e+37
-2.0442023e+37
-2.0442186e+37
-2.0439269e+37
-2.0430456e+37
-2.0435097e+37
-2.0435481e+37
-2.0429246e+37
-2.0431913e+37
-2.0436292e+37
-2.0422037e+37
-2.0416685e+37
-2.0410623e+37
-2.042658e+37
-2.0424128e+37
-2.0407918e+37
-2.0420817e+37
-2.0423872e+37
-2.0424732e+37
-2.0419573e+37
-2.0408758e+37
-2.041385e+37
-2.0413143e+37
-2.0407076e+37
-2.0411108e+37
-2.0418056e+37
-2.0402018e+37
-2.0395574e+37
-2.0437901e+37
-2.0443587e+37
-2.0447247e+37
-2.0441053e+37
-2.0449143e+37
-2.0453251e+37
-2.0457832e+37
-2.0452645e+37
-2.0496999e+37
-2.0487972e+37
-2.0483395e+37
-2.0491737e+37
-2.0485633e+37
-2.0476945e+37
-2.0471825e+37
-2.0479479e+37
-2.0459363e+37
-2.0465008e+37
-2.0468936e+37
-2.0463033e+37
-2.0474466e+37
-2.0470569e+37
-2.0468772e+37
-2.0471977e+37
-2.051274e+37
-2.050531e+37
-2.0502883e+37
-2.0510574e+37
-2.0507282e+37
-2.0498444e+37
-2.0493157e+37
-2.0501986e+37
-2.0536151e+37
-2.0540863e+37
-2.055322e+37
-2.0548515e+37
-2.051398e+37
-2.0520019e+37
-2.0532927e+37
-2.0526448e+37
-2.0543551e+37
-2.0531108e+37
-2.0526532e+37
-2.0538635e+37
-2.0594078e+37
-2.0578341e+37
-2.0573673e+37
-2.058923e+37
-2.0583516e+37
-2.0567746e+37
-2.0561981e+37
-2.0577569e+37
-2.0400955e+37
-2.0403951e+37
-2.0408567e+37
-2.0404404e+37
-2.0409034e+37
-2.0411548e+37
-2.0416023e+37
-2.0413186e+37
-2.0456062e+37
-2.0448377e+37
-2.0445942e+37
-2.0453267e+37
-2.0448263e+37
-2.0440673e+37
-2.0436941e+37
-2.044459e+37
-2.0417335e+37
-2.0422077e+37
-2.0425181e+37
-2.0419843e+37
-2.0435024e+37
-2.043193e+37
-2.0427426e+37
-2.04306e+37
-2.0474733e+37
-2.0466582e+37
-2.0461939e+37
-2.0468927e+37
-2.0464432e+37
-2.0457696e+37
-2.0453661e+37
-2.0460192e+37
-2.0570739e+37
-2.0555665e+37
-2.0550213e+37
-2.0565615e+37
-2.0520822e+37
-2.0507866e+37
-2.0502709e+37
-2.0514967e+37
-2.0492579e+37
-2.0496366e+37
-2.051001e+37
-2.0504914e+37
-2.0560655e+37
-2.0544156e+37
-2.0539743e+37
-2.0555842e+37
-2.0549792e+37
-2.0534866e+37
-2.0531913e+37
-2.0546645e+37
-2.0500813e+37
-2.0488893e+37
-2.0486762e+37
-2.0497854e+37
-2.0478514e+37
-2.048155e+37
-2.0493265e+37
-2.0489283e+37
-2.0541743e+37
-2.0526697e+37
-2.0523253e+37
-2.0537655e+37
-2.0373523e+37
-2.046922e+37
-2.0467106e+37
-2.037677e+37
-2.0377325e+37
-2.0463908e+37
-2.0475049e+37
-2.0375694e+37
-2.0430725e+37
-2.0504161e+37
-2.0509759e+37
-2.0427807e+37
-2.0426898e+37
-2.0505628e+37
-2.0504772e+37
-2.0422856e+37
-2.0390709e+37
-2.0406259e+37
-2.0404206e+37
-2.0387902e+37
-2.0399865e+37
-2.0403441e+37
-2.0403585e+37
-2.0398103e+37
-2.0390383e+37
-2.0394277e+37
-2.0392925e+37
-2.0387413e+37
-2.0397865e+37
-2.0400684e+37
-2.0384312e+37
-2.0379823e+37
-2.0411913e+37
-2.0497193e+37
-2.0497586e+37
-2.0407598e+37
-2.0375436e+37
-2.0465468e+37
-2.0465176e+37
-2.0369799e+37
-2.0364759e+37
-2.0452118e+37
-2.0436309e+37
-2.0350649e+37
-2.0476174e+37
-2.0403041e+37
-2.0485731e+37
-2.0394238e+37
-2.0375065e+37
-2.0383114e+37
-2.0366462e+37
-2.0359843e+37
-2.0376149e+37
-2.0393421e+37
-2.0391606e+37
-2.0373942e+37
-2.0382898e+37
-2.0384236e+37
-2.0383734e+37
-2.0380336e+37
-2.0373771e+37
-2.0377225e+37
-2.0375725e+37
-2.0372038e+37
-2.0401298e+37
-2.0312912e+37
-2.0307168e+37
-2.0407425e+37
-2.0323982e+37
-2.0317025e+37
-2.0416344e+37
-2.0415464e+37
-2.0452553e+37
-2.0377941e+37
-2.04523e+37
-2.0375071e+37
-2.0366554e+37
-2.0440591e+37
-2.0440973e+37
-2.0363148e+37
-2.0333271e+37
-2.0424977e+37
-2.0421742e+37
-2.0332249e+37
-2.0335204e+37
-2.0335423e+37
-2.0421949e+37
-2.04276e+37
-2.0390717e+37
-2.0464349e+37
-2.0467422e+37
-2.0391579e+37
-2.0459455e+37
-2.0462059e+37
-2.0387526e+37
-2.0383745e+37
-2.0365088e+37
-2.0367145e+37
-2.0367073e+37
-2.0363914e+37
-2.0353582e+37
-2.0368988e+37
-2.0367825e+37
-2.0351659e+37
-2.0347595e+37
-2.036322e+37
-2.0360419e+37
-2.0344188e+37
-2.0357347e+37
-2.0360815e+37
-2.0361066e+37
-2.0355563e+37
-2.0342393e+37
-2.0345278e+37
-2.0329619e+37
-2.0326063e+37
-2.0352828e+37
-2.0354165e+37
-2.033837e+37
-2.0335494e+37
-2.0347777e+37
-2.0350076e+37
-2.0349951e+37
-2.0346166e+37
-2.0339712e+37
-2.0341664e+37
-2.0340975e+37
-2.0337422e+37
-2.0531676e+37
-2.0517732e+37
-2.0514876e+37
-2.0528218e+37
-2.0484215e+37
-2.0473884e+37
-2.0471348e+37
-2.0481116e+37
-2.0463335e+37
-2.0466744e+37
-2.0477444e+37
-2.0473681e+37
-2.052543e+37
-2.0511466e+37
-2.0508164e+37
-2.0521621e+37
-2.043865e+37
-2.0431289e+37
-2.0428003e+37
-2.0435839e+37
-2.0401125e+37
-2.0397633e+37
-2.0394297e+37
-2.0397665e+37
-2.0384847e+37
-2.0389127e+37
-2.0393919e+37
-2.0388998e+37
-2.0432953e+37
-2.0424131e+37
-2.0420323e+37
-2.0428612e+37
-2.0515122e+37
-2.0502158e+37
-2.049875e+37
-2.0511732e+37
-2.0467458e+37
-2.0457247e+37
-2.0453202e+37
-2.0463625e+37
-2.044207e+37
-2.044637e+37
-2.0458326e+37
-2.0454153e+37
-2.0422569e+37
-2.0414108e+37
-2.0410378e+37
-2.0418401e+37
-2.0375433e+37
-2.0378617e+37
-2.0383736e+37
-2.0379463e+37
-2.0366815e+37
-2.0369522e+37
-2.03741e+37
-2.0369705e+37
-2.0412765e+37
-2.0404111e+37
-2.040087e+37
-2.0408091e+37
-1.8510295e+37
-1.8716663e+37
-1.8662335e+37
-1.8625899e+37
-1.8673101e+37
-1.8884584e+37
-1.8638411e+37
-1.8588514e+37
-1.8832907e+37
-1.8466837e+37
-1.8508567e+37
-1.8416707e+37
-1.8484083e+37
-1.8382994e+37
-1.8433388e+37
-1.9401502e+37
-1.9218318e+37
-1.9158272e+37
-1.9333318e+37
-1.8448529e+37
-1.8963731e+37
-1.8409731e+37
-1.8924123e+37
-1.8398497e+37
-1.8932156e+37
-1.8889189e+37
-1.8369183e+37
-1.8842789e+37
-1.8327714e+37
-1.8300656e+37
-1.8820591e+37
-2.172583e+37
-2.134071e+37
-2.1620494e+37
-2.1242417e+37
-2.0777467e+37
-2.0857434e+37
-2.0785134e+37
-2.1539195e+37
-2.1602523e+37
-2.2020221e+37
-2.1961393e+37
-2.0864186e+37
-2.1706873e+37
-2.2125067e+37
-2.2080438e+37
-2.1659938e+37
-2.1831556e+37
-2.1504809e+37
-2.1141836e+37
-2.0601062e+37
-2.1719496e+37
-2.140733e+37
-2.1053593e+37
-2.0520035e+37
-2.006708e+37
-1.9995672e+37
-1.9957206e+37
-2.0654233e+37
-2.0992086e+37
-2.0948576e+37
-2.0622886e+37
-2.1710667e+37
-2.1740052e+37
-2.002576e+37
-2.0723294e+37
-2.0692572e+37
-2.103346e+37
-2.1070151e+37
-2.1826105e+37
-2.1786269e+37
-2.1312289e+37
-2.0971489e+37
-2.0468636e+37
-1.9797697e+37
-2.12273e+37
-2.0891768e+37
-2.0392434e+37
-1.973486e+37
-2.0222113e+37
-2.0248427e+37
-1.9833811e+37
-1.9869727e+37
-2.1118484e+37
-2.0656832e+37
-2.061389e+37
-2.1078039e+37
-2.1723113e+37
-2.1740452e+37
-2.199426e+37
-2.1971549e+37
-2.1778182e+37
-2.1757251e+37
-2.2013506e+37
-2.2026666e+37
-2.0142754e+37
-2.0181136e+37
-1.9779518e+37
-1.9802899e+37
-2.104501e+37
-2.0583502e+37
-2.0542187e+37
-2.1008249e+37
-2.1687598e+37
-2.1702722e+37
-2.1948356e+37
-2.1936929e+37
-2.1670791e+37
-2.1651122e+37
-2.1907626e+37
-2.1921645e+37
-2.0814605e+37
-2.0333433e+37
-1.9677717e+37
-2.0734392e+37
-2.029129e+37
-1.9652989e+37
-2.0224372e+37
-1.9599611e+37
-2.0173624e+37
-1.9555646e+37
-1.9498381e+37
-1.9475387e+37
-2.229298e+37
-2.2392775e+37
-2.2383833e+37
-2.2287868e+37
-2.2406538e+37
-2.2310174e+37
-2.2303005e+37
-2.2402184e+37
-2.2533285e+37
-2.253719e+37
-2.2626106e+37
-2.2622496e+37
-2.2522298e+37
-2.2514837e+37
-2.2600598e+37
-2.2611368e+37
-2.2806502e+37
-2.2816603e+37
-2.2784147e+37
-2.2776768e+37
-2.2821467e+37
-2.2820428e+37
-2.2790202e+37
-2.2789601e+37
-2.2807346e+37
-2.2807872e+37
-2.2840701e+37
-2.2838218e+37
-2.2803009e+37
-2.2824985e+37
-2.2836232e+37
-2.2794895e+37
-2.2279728e+37
-2.2276768e+37
-2.2374817e+37
-2.2376675e+37
-2.2593066e+37
-2.2506296e+37
-2.2503778e+37
-2.2590873e+37
-2.257976e+37
-2.2495076e+37
-2.2269143e+37
-2.2263874e+37
-2.2358865e+37
-2.2367247e+37
-2.2773503e+37
-2.2771662e+37
-2.2802399e+37
-2.2805594e+37
-2.276923e+37
-2.2801424e+37
-2.2791415e+37
-2.2762022e+37
-2.2379372e+37
-2.2569455e+37
-2.2545879e+37
-2.2356577e+37
-2.2933554e+37
-2.2978317e+37
-2.2972481e+37
-2.2924926e+37
-2.289301e+37
-2.2907866e+37
-2.2957029e+37
-2.2937868e+37
-2.3018973e+37
-2.3034697e+37
-2.3051944e+37
-2.3070378e+37
-2.3086971e+37
-2.3091201e+37
-2.3057688e+37
-2.3051895e+37
-2.2318748e+37
-2.2510112e+37
-2.2486454e+37
-2.2301573e+37
-2.2878451e+37
-2.2923369e+37
-2.2918162e+37
-2.2870584e+37
-2.2854425e+37
-2.2903625e+37
-2.2883859e+37
-2.2840681e+37
-2.2965423e+37
-2.2982068e+37
-2.301893e+37
-2.2998711e+37
-2.3004e+37
-2.303474e+37
-2.3038156e+37
-2.2998643e+37
-2.261714e+37
-2.2612428e+37
-2.2700907e+37
-2.2703193e+37
-2.248284e+37
-2.2486929e+37
-2.2390114e+37
-2.2385018e+37
-2.2373529e+37
-2.247217e+37
-2.2461316e+37
-2.2365967e+37
-2.2600396e+37
-2.2591437e+37
-2.2677834e+37
-2.2689902e+37
-2.2886209e+37
-2.2886841e+37
-2.2919617e+37
-2.2917035e+37
-2.2957753e+37
-2.2997049e+37
-2.3004526e+37
-2.296113e+37
-2.2998374e+37
-2.2954181e+37
-2.298552e+37
-2.2944607e+37
-2.2881983e+37
-2.2914996e+37
-2.2904624e+37
-2.2874573e+37
-2.2869485e+37
-2.2869249e+37
-2.2901798e+37
-2.2899932e+37
-2.2939279e+37
-2.2981508e+37
-2.2986233e+37
-2.2941575e+37
-2.2979529e+37
-2.2935262e+37
-2.2923376e+37
-2.2963923e+37
-2.2863136e+37
-2.2896195e+37
-2.2883743e+37
-2.2854486e+37
-2.3100144e+37
-2.3106537e+37
-2.3104673e+37
-2.3104387e+37
-2.3056664e+37
-2.3033702e+37
-2.3035826e+37
-2.3061463e+37
-2.3029174e+37
-2.3055345e+37
-2.3039241e+37
-2.3017003e+37
-2.3073067e+37
-2.3049757e+37
-2.3054236e+37
-2.3080392e+37
-2.3120382e+37
-2.3119807e+37
-2.3106146e+37
-2.3110327e+37
-2.3122068e+37
-2.3126759e+37
-2.3126342e+37
-2.3119859e+37
-2.3048733e+37
-2.3075455e+37
-2.3061912e+37
-2.3038865e+37
-2.2355478e+37
-2.2451622e+37
-2.2445287e+37
-2.2347649e+37
-2.2332157e+37
-2.2431351e+37
-2.2418741e+37
-2.2323078e+37
-2.2560769e+37
-2.2650402e+37
-2.2637388e+37
-2.2549964e+37
-2.2580125e+37
-2.2668075e+37
-2.2663332e+37
-2.2574699e+37
-2.284956e+37
-2.2848986e+37
-2.2881221e+37
-2.2879517e+37
-2.2918711e+37
-2.2921221e+37
-2.2966015e+37
-2.2960057e+37
-2.2843242e+37
-2.2875841e+37
-2.2865319e+37
-2.2835022e+37
-2.2860272e+37
-2.2859363e+37
-2.2829111e+37
-2.2828525e+37
-2.2821896e+37
-2.2843393e+37
-2.2854713e+37
-2.2812813e+37
-2.2389342e+37
-2.2345378e+37
-2.2682692e+37
-2.2490643e+37
-2.2468545e+37
-2.2660132e+37
-2.3047213e+37
-2.3040329e+37
-2.3024595e+37
-2.3073052e+37
-2.305245e+37
-2.3009442e+37
-2.2438424e+37
-2.2629339e+37
-2.2602551e+37
-2.241377e+37
-2.2964547e+37
-2.301314e+37
-2.2992687e+37
-2.2949443e+37
-2.2993098e+37
-2.3037006e+37
-2.3030126e+37
-2.2983218e+37
-2.3126481e+37
-2.3090852e+37
-2.3073115e+37
-2.3105208e+37
-2.3117055e+37
-2.3109332e+37
-2.248932e+37
-2.2440783e+37
-1.9639806e+37
-1.9536951e+37
-1.9515017e+37
-1.9610668e+37
-1.9296716e+37
-1.9305072e+37
-1.9331345e+37
-1.9326683e+37
-1.961199e+37
-1.957511e+37
-1.9672256e+37
-1.9719515e+37
-1.8530948e+37
-1.8579547e+37
-1.9388727e+37
-1.9336109e+37
-1.9357413e+37
-1.9425407e+37
-2.0763203e+37
-2.07723e+37
-2.0840191e+37
-2.082953e+37
-2.0849835e+37
-2.0827966e+37
-2.0823902e+37
-2.0845545e+37
-2.0788166e+37
-2.0766945e+37
-2.076346e+37
-2.0784636e+37
-2.0757855e+37
-2.0760346e+37
-2.0780826e+37
-2.0777699e+37
-2.0749678e+37
-2.0753255e+37
-2.077329e+37
-2.0769003e+37
-2.07378e+37
-2.074349e+37
-2.0763629e+37
-2.0758007e+37
-2.0859049e+37
-2.0790607e+37
-2.0780633e+37
-2.084851e+37
-2.0821485e+37
-2.0801174e+37
-2.0813158e+37
-2.0881324e+37
-2.0870296e+37
-1.9333742e+37
-1.9362386e+37
-2.0253758e+37
-2.0232509e+37
-2.0329039e+37
-2.0341139e+37
-2.0202588e+37
-2.022503e+37
-2.0372966e+37
-2.0341761e+37
-2.022091e+37
-2.0216276e+37