# Forces        
# CofR          : (5.00000000e-01 5.00000000e-02 0.00000000e+00)
# Time          forces(pressure viscous porous)	moments(pressure viscous porous)
0.25            	((4.37686912e+01 -2.17355908e-01 -6.40984144e-01) (9.71789133e-03 -2.45255055e-05 -1.00629202e-04) (0.00000000e+00 0.00000000e+00 0.00000000e+00)) ((6.26882663e-02 -1.93861224e+00 2.14737980e+00) (4.89274624e-06 8.26717810e-05 4.80345679e-04) (0.00000000e+00 0.00000000e+00 0.00000000e+00))
0.5             	((2.67684660e+02 -7.16787623e-01 -2.73139692e+02) (2.90421245e-01 -8.62544763e-04 -1.05045286e-02) (0.00000000e+00 0.00000000e+00 0.00000000e+00)) ((1.15437594e+01 -1.15509931e+02 1.29745921e+01) (4.33423497e-04 -6.14999097e-04 1.41305916e-02) (0.00000000e+00 0.00000000e+00 0.00000000e+00))
0.75            	((2.12433082e+02 -3.81229693e-01 -4.06536182e+02) (6.27552177e-01 -2.04245680e-03 -1.63596831e-02) (0.00000000e+00 0.00000000e+00 0.00000000e+00)) ((1.50181463e+01 -1.83694177e+02 9.72845348e+00) (6.44214432e-04 1.70969201e-03 3.12342281e-02) (0.00000000e+00 0.00000000e+00 0.00000000e+00))
1               	((2.68868030e+02 2.06982892e+00 -2.30129552e+02) (7.78528180e-01 -9.36249441e-04 -1.92878296e-02) (0.00000000e+00 0.00000000e+00 0.00000000e+00)) ((1.29090292e+01 -1.13315435e+02 1.23610886e+01) (8.39137138e-04 2.12770886e-03 3.86999585e-02) (0.00000000e+00 0.00000000e+00 0.00000000e+00))
1.25            	((1.16694365e+02 -7.99828363e-02 -4.47378200e+02) (8.49551181e-01 -1.38219352e-04 -1.96254811e-02) (0.00000000e+00 0.00000000e+00 0.00000000e+00)) ((1.74545898e+01 -2.01045658e+02 6.04257129e+00) (8.71752328e-04 2.90702120e-03 4.26502119e-02) (0.00000000e+00 0.00000000e+00 0.00000000e+00))
1.5             	((3.06514836e+02 1.47178693e+00 -5.69053143e+01) (9.49393662e-01 4.19673451e-04 -1.48560748e-02) (0.00000000e+00 0.00000000e+00 0.00000000e+00)) ((1.05738232e+01 -4.75251484e+01 1.39790779e+01) (7.63740003e-04 6.01692542e-03 4.74397120e-02) (0.00000000e+00 0.00000000e+00 0.00000000e+00))
1.75            	((-8.92885137e+01 -3.79412402e+01 -4.30852725e+02) (9.31325924e-01 -1.72890260e-02 -1.04384039e-02) (0.00000000e+00 0.00000000e+00 0.00000000e+00)) ((2.53675893e+01 -1.89539985e+02 -9.03089802e+00) (7.67916806e-04 7.88981329e-03 4.43391276e-02) (0.00000000e+00 0.00000000e+00 0.00000000e+00))
2               	((3.61667489e+02 1.42874277e+01 9.63092815e+01) (9.94319265e-01 -2.52883638e-02 -1.90068463e-03) (0.00000000e+00 0.00000000e+00 0.00000000e+00)) ((-6.81614292e+00 1.36510070e+01 1.27823777e+01) (2.28510226e-04 1.22311504e-02 4.45366203e-02) (0.00000000e+00 0.00000000e+00 0.00000000e+00))
2.25            	((-9.26423572e+01 -1.99740764e+01 -3.62637360e+02) (9.97518681e-01 -3.10628145e-02 5.26022163e-03) (0.00000000e+00 0.00000000e+00 0.00000000e+00)) ((2.19008643e+01 -1.59301565e+02 -8.38318466e+00) (-2.55205462e-04 1.56885798e-02 3.99542771e-02) (0.00000000e+00 0.00000000e+00 0.00000000e+00))
2.5             	((3.63314827e+02 1.93116894e+01 1.53119371e+02) (1.07845199e+00 -2.61743591e-02 1.19959386e-02) (0.00000000e+00 0.00000000e+00 0.00000000e+00)) ((-7.46312577e+00 3.84026765e+01 9.15445447e+00) (-3.84785022e-04 2.00265172e-02 3.96951604e-02) (0.00000000e+00 0.00000000e+00 0.00000000e+00))
2.75            	((5.44780988e+01 -3.63694514e+01 -3.11388847e+02) (1.16814403e+00 -3.92878126e-02 1.97865292e-02) (0.00000000e+00 0.00000000e+00 0.00000000e+00)) ((2.29867373e+01 -1.40559699e+02 3.75593981e+00) (-6.78041145e-04 2.47588875e-02 4.30217260e-02) (0.00000000e+00 0.00000000e+00 0.00000000e+00))
3               	((3.25011377e+02 1.39440358e+01 1.49469397e+02) (1.28241635e+00 -4.33056564e-02 2.60066798e-02) (0.00000000e+00 0.00000000e+00 0.00000000e+00)) ((-3.43862288e+00 3.88811870e+01 -4.82169093e+00) (-6.32888809e-04 2.94718261e-02 4.27325135e-02) (0.00000000e+00 0.00000000e+00 0.00000000e+00))
3.25            	((1.67142220e+02 1.68488029e+01 -2.36079778e+02) (1.42072267e+00 -2.74084361e-02 3.24853793e-02) (0.00000000e+00 0.00000000e+00 0.00000000e+00)) ((9.26680660e+00 -1.12571925e+02 3.80764329e+01) (-8.80960442e-04 3.43033576e-02 6.11486228e-02) (0.00000000e+00 0.00000000e+00 0.00000000e+00))
3.5             	((3.00845057e+02 1.31862594e+02 1.68470958e+02) (1.55353637e+00 4.15288610e-02 3.99095271e-02) (0.00000000e+00 0.00000000e+00 0.00000000e+00)) ((2.39203867e+00 4.79988984e+01 -3.29142747e+00) (-1.00835834e-03 3.96783025e-02 6.91776354e-02) (0.00000000e+00 0.00000000e+00 0.00000000e+00))
3.75            	((9.43617569e+00 -1.82958947e+02 -2.07473587e+02) (1.61236608e+00 2.19428016e-03 4.72930926e-02) (0.00000000e+00 0.00000000e+00 0.00000000e+00)) ((2.50867020e+01 -9.67357184e+01 6.15844834e+01) (-2.47791031e-04 4.39192419e-02 9.30402807e-02) (0.00000000e+00 0.00000000e+00 0.00000000e+00))
4               	((1.30150127e+02 1.06281139e+02 1.99874978e+02) (1.63230857e+00 -1.91166085e-02 5.86907688e-02) (0.00000000e+00 0.00000000e+00 0.00000000e+00)) ((1.38520298e+00 6.61746867e+01 -3.88669208e+01) (-3.77862130e-04 4.92853032e-02 9.87316123e-02) (0.00000000e+00 0.00000000e+00 0.00000000e+00))
4.25            	((3.43844277e+01 -1.82242512e+02 -1.08264081e+02) (1.65783331e+00 -7.50473385e-02 6.96166788e-02) (0.00000000e+00 0.00000000e+00 0.00000000e+00)) ((-1.72266064e+00 -5.54706571e+01 6.37749954e+01) (-4.44812914e-04 5.43153148e-02 1.15736441e-01) (0.00000000e+00 0.00000000e+00 0.00000000e+00))
4.5             	((1.91236904e+02 1.48394722e+02 2.65938046e+02) (1.73031564e+00 -7.38641849e-02 8.05933216e-02) (0.00000000e+00 0.00000000e+00 0.00000000e+00)) ((-2.92125176e+01 9.37685407e+01 -4.20451806e+01) (-1.43867681e-03 6.01783221e-02 1.20304238e-01) (0.00000000e+00 0.00000000e+00 0.00000000e+00))
4.75            	((-9.46454512e+01 -1.18681792e+02 -1.68594396e+02) (1.72019046e+00 -6.79813112e-02 9.34334845e-02) (0.00000000e+00 0.00000000e+00 0.00000000e+00)) ((4.93939091e+01 -7.49911002e+01 -3.82669116e+01) (-3.84125956e-03 6.54391429e-02 7.83478613e-02) (0.00000000e+00 0.00000000e+00 0.00000000e+00))
5               	((2.66846032e+02 7.32786129e+01 3.51455768e+02) (1.82263546e+00 -7.94243333e-02 1.01717176e-01) (0.00000000e+00 0.00000000e+00 0.00000000e+00)) ((-7.84844516e+01 1.27150018e+02 3.70492961e+01) (-4.20271822e-03 7.06258573e-02 9.68255365e-02) (0.00000000e+00 0.00000000e+00 0.00000000e+00))
5.25            	((-5.33155882e+02 -2.02474873e+02 -3.21315542e+02) (1.62352468e+00 -1.55199065e-01 1.21281538e-01) (0.00000000e+00 0.00000000e+00 0.00000000e+00)) ((1.33626005e+02 -1.23405917e+02 -1.94080397e+02) (-9.43023046e-03 7.59738407e-02 -8.65885953e-04) (0.00000000e+00 0.00000000e+00 0.00000000e+00))
5.5             	((5.12858747e+02 1.97519478e+02 4.57860827e+02) (1.69118351e+00 -1.34987239e-01 1.30599608e-01) (0.00000000e+00 0.00000000e+00 0.00000000e+00)) ((-9.16800530e+01 1.64717919e+02 7.04182989e+01) (-1.06446275e-02 8.11353433e-02 -3.68301387e-02) (0.00000000e+00 0.00000000e+00 0.00000000e+00))
5.75            	((-8.29927776e+02 -8.12484273e+02 -2.79184726e+02) (1.50489808e+00 -4.85617495e-01 1.48763501e-01) (0.00000000e+00 0.00000000e+00 0.00000000e+00)) ((-2.23442538e+01 -9.67105994e+01 8.34522034e+01) (-9.69966179e-03 8.60242535e-02 7.51108511e-02) (0.00000000e+00 0.00000000e+00 0.00000000e+00))
6               	((7.85331297e+02 1.00376266e+03 2.70834697e+02) (1.57585376e+00 -3.81420669e-01 1.52938378e-01) (0.00000000e+00 0.00000000e+00 0.00000000e+00)) ((2.16954534e+02 8.59230349e+01 -3.40464167e+02) (-8.12699316e-03 8.96021306e-02 -1.86638682e-02) (0.00000000e+00 0.00000000e+00 0.00000000e+00))
6.25            	((-1.68281046e+03 -1.94917037e+03 -1.41743699e+02) (1.27557403e+00 -7.90357668e-01 1.65713908e-01) (0.00000000e+00 0.00000000e+00 0.00000000e+00)) ((-4.24170423e+02 -2.53984009e+01 3.67879684e+02) (-6.81766983e-03 9.11375586e-02 5.39426356e-02) (0.00000000e+00 0.00000000e+00 0.00000000e+00))
6.5             	((1.94018923e+03 2.29750242e+03 -1.37012850e+02) (1.43715485e+00 -6.33141204e-01 1.66818004e-01) (0.00000000e+00 0.00000000e+00 0.00000000e+00)) ((6.22791547e+02 -9.01580026e+01 -3.88744964e+02) (-8.02437575e-03 9.51308648e-02 1.92685379e-02) (0.00000000e+00 0.00000000e+00 0.00000000e+00))
6.75            	((-6.93374127e+03 -6.12032307e+03 4.08656322e+02) (4.05879186e-02 -1.87257733e+00 1.84260187e-01) (0.00000000e+00 0.00000000e+00 0.00000000e+00)) ((-1.14429742e+03 2.64463649e+02 -9.72669250e+01) (5.00846281e-03 8.41973503e-02 -5.10017580e-03) (0.00000000e+00 0.00000000e+00 0.00000000e+00))
7               	((6.42260514e+03 1.48630973e+03 -3.87922221e+03) (1.07128714e-01 -2.67772543e+00 1.75372652e-01) (0.00000000e+00 0.00000000e+00 0.00000000e+00)) ((2.67515451e+03 -1.61069779e+03 2.27303576e+03) (1.95838775e-02 8.29858559e-02 4.17332625e-01) (0.00000000e+00 0.00000000e+00 0.00000000e+00))
7.25            	((-3.03295193e+04 -2.14216251e+04 1.32432522e+04) (-3.31028696e+00 -5.76369272e+00 2.13479169e-01) (0.00000000e+00 0.00000000e+00 0.00000000e+00)) ((-1.02304528e+04 5.69771478e+03 -6.84996011e+03) (3.20075623e-02 5.05130973e-02 2.00246251e-01) (0.00000000e+00 0.00000000e+00 0.00000000e+00))
7.5             	((3.52654861e+04 1.62339009e+04 -1.40840676e+04) (-2.78387466e+00 -6.11715931e+00 2.16407623e-01) (0.00000000e+00 0.00000000e+00 0.00000000e+00)) ((8.31201713e+03 -5.92454468e+03 1.08737879e+04) (4.16738990e-02 6.04042284e-02 4.11582908e-01) (0.00000000e+00 0.00000000e+00 0.00000000e+00))
7.75            	((-6.48054106e+04 -4.03124954e+04 8.31657081e+03) (-5.14235900e+00 -8.24758612e+00 1.52308837e-01) (0.00000000e+00 0.00000000e+00 0.00000000e+00)) ((-7.80441916e+03 4.03077861e+03 -1.73013387e+04) (9.57934842e-02 -5.20310849e-03 5.48310000e-01) (0.00000000e+00 0.00000000e+00 0.00000000e+00))
8               	((5.92045451e+04 2.97421930e+04 -3.44527741e+04) (-5.21059306e+00 -8.84040137e+00 9.95024153e-02) (0.00000000e+00 0.00000000e+00 0.00000000e+00)) ((2.10798592e+04 -1.41427479e+04 1.68661411e+04) (1.41353152e-01 -2.92312907e-02 5.99178667e-01) (0.00000000e+00 0.00000000e+00 0.00000000e+00))
8.25            	((-8.60997852e+04 -4.18660708e+04 5.66853159e+04) (-6.85891732e+00 -9.93981846e+00 1.30837556e-01) (0.00000000e+00 0.00000000e+00 0.00000000e+00)) ((-3.83438405e+04 2.38518886e+04 -2.73457967e+04) (1.19155567e-01 -4.11972832e-02 5.59809699e-01) (0.00000000e+00 0.00000000e+00 0.00000000e+00))
8.5             	((5.21869424e+04 9.96383920e+03 -7.12816559e+04) (-8.20601867e+00 -1.16300604e+01 5.77236877e-02) (0.00000000e+00 0.00000000e+00 0.00000000e+00)) ((3.98812029e+04 -2.87044940e+04 1.97321886e+04) (1.79582810e-01 -9.42298511e-02 7.34913836e-01) (0.00000000e+00 0.00000000e+00 0.00000000e+00))
8.75            	((-5.00510320e+04 3.31030282e+03 7.60646697e+04) (-8.18144562e+00 -1.13613142e+01 1.04264873e-01) (0.00000000e+00 0.00000000e+00 0.00000000e+00)) ((-4.38942666e+04 3.12048128e+04 -2.57836059e+04) (1.55320911e-01 -7.47447622e-02 5.17965901e-01) (0.00000000e+00 0.00000000e+00 0.00000000e+00))
9               	((1.06618061e+04 -3.29832277e+04 -5.90248794e+04) (-9.64274055e+00 -1.29249295e+01 8.33347276e-02) (0.00000000e+00 0.00000000e+00 0.00000000e+00)) ((2.36275487e+04 -2.31272683e+04 1.41071676e+04) (1.79844906e-01 -1.07163935e-01 6.52287103e-01) (0.00000000e+00 0.00000000e+00 0.00000000e+00))
9.25            	((-1.22265890e+04 5.52163861e+04 -1.81374991e+03) (-9.68257304e+00 -1.24517030e+01 3.91586950e-02) (0.00000000e+00 0.00000000e+00 0.00000000e+00)) ((2.06173445e+04 -9.95328286e+02 -2.52744585e+04) (2.26372860e-01 -1.29715843e-01 3.18516731e-01) (0.00000000e+00 0.00000000e+00 0.00000000e+00))
9.5             	((-4.90565332e+04 -9.75948242e+04 3.98445982e+03) (-1.19626962e+01 -1.47666049e+01 3.37628219e-02) (0.00000000e+00 0.00000000e+00 0.00000000e+00)) ((-2.71836970e+04 3.62010013e+03 7.31360779e+03) (2.42587618e-01 -1.66341659e-01 6.31215403e-01) (0.00000000e+00 0.00000000e+00 0.00000000e+00))
9.75            	((2.89804550e+04 1.11892763e+05 -1.18753379e+05) (-1.25268840e+01 -1.46266783e+01 -8.46590219e-02) (0.00000000e+00 0.00000000e+00 0.00000000e+00)) ((1.04061649e+05 -4.88543588e+04 -2.36334059e+04) (3.35633336e-01 -2.31263218e-01 3.43836771e-01) (0.00000000e+00 0.00000000e+00 0.00000000e+00))
10              	((-1.39029956e+05 -1.73937215e+05 1.12040884e+05) (-1.61683676e+01 -1.75835941e+01 -5.57768581e-02) (0.00000000e+00 0.00000000e+00 0.00000000e+00)) ((-9.98699288e+04 4.92715451e+04 -1.26153197e+04) (3.26482245e-01 -2.69912130e-01 5.75725109e-01) (0.00000000e+00 0.00000000e+00 0.00000000e+00))
10.25           	((1.65884839e+05 2.40145812e+05 -1.95329013e+05) (-1.53050492e+01 -1.59452292e+01 -1.42335955e-01) (0.00000000e+00 0.00000000e+00 0.00000000e+00)) ((1.46085251e+05 -8.14369281e+04 3.17331174e+03) (3.87872891e-01 -3.02697429e-01 7.41821855e-02) (0.00000000e+00 0.00000000e+00 0.00000000e+00))
10.5            	((-3.05558259e+05 -3.01029349e+05 2.20907203e+05) (-1.97082100e+01 -1.90333477e+01 -5.42578666e-02) (0.00000000e+00 0.00000000e+00 0.00000000e+00)) ((-1.56180796e+05 9.51578524e+04 -5.27902092e+04) (3.49472571e-01 -3.22309924e-01 2.00001646e-01) (0.00000000e+00 0.00000000e+00 0.00000000e+00))
10.75           	((2.34363934e+05 3.01616151e+05 -1.05003993e+05) (-2.12569177e+01 -1.94089428e+01 -9.66572282e-02) (0.00000000e+00 0.00000000e+00 0.00000000e+00)) ((3.60914615e+04 -4.30476413e+04 1.87301573e+04) (3.44366106e-01 -3.69815250e-01 4.96547748e-03) (0.00000000e+00 0.00000000e+00 0.00000000e+00))
11              	((-4.53504035e+05 -3.92830878e+05 8.78019426e+04) (-2.69197938e+01 -2.30815551e+01 -9.44243989e-02) (0.00000000e+00 0.00000000e+00 0.00000000e+00)) ((-2.46576971e+04 4.10314010e+04 -8.64469847e+04) (3.78247545e-01 -4.50477423e-01 2.08117291e-01) (0.00000000e+00 0.00000000e+00 0.00000000e+00))
11.25           	((4.12299799e+05 3.70628267e+05 -2.03518337e+05) (-2.77483342e+01 -2.37482686e+01 -2.59147616e-01) (0.00000000e+00 0.00000000e+00 0.00000000e+00)) ((6.68642724e+04 -8.21468068e+04 9.09980290e+04) (4.52547232e-01 -5.44374086e-01 6.39292557e-01) (0.00000000e+00 0.00000000e+00 0.00000000e+00))
11.5            	((-7.19983723e+05 -4.97136784e+05 3.47376051e+05) (-3.42548203e+01 -2.76772180e+01 -5.38106811e-02) (0.00000000e+00 0.00000000e+00 0.00000000e+00)) ((-1.66108594e+05 1.48466210e+05 -1.84052142e+05) (3.77403745e-01 -5.42279440e-01 5.54969636e-01) (0.00000000e+00 0.00000000e+00 0.00000000e+00))
11.75           	((6.95204730e+05 4.86445133e+05 -4.00734529e+05) (-3.45860206e+01 -2.79273902e+01 -2.59844148e-01) (0.00000000e+00 0.00000000e+00 0.00000000e+00)) ((1.38959285e+05 -1.62466627e+05 1.94129510e+05) (4.51658098e-01 -6.50737777e-01 9.57369106e-01) (0.00000000e+00 0.00000000e+00 0.00000000e+00))
12              	((-1.09302952e+06 -5.76953525e+05 5.89336044e+05) (-4.19774841e+01 -3.11028702e+01 1.01776711e-02) (0.00000000e+00 0.00000000e+00 0.00000000e+00)) ((-2.54601860e+05 2.48912814e+05 -3.21090859e+05) (3.64436794e-01 -6.30318512e-01 6.24797636e-01) (0.00000000e+00 0.00000000e+00 0.00000000e+00))
12.25           	((1.01538364e+06 6.07970590e+05 -1.26355609e+06) (-4.31357871e+01 -3.08926123e+01 -5.75185570e-01) (0.00000000e+00 0.00000000e+00 0.00000000e+00)) ((5.85157167e+05 -5.14085534e+05 3.07684660e+05) (6.17839300e-01 -9.27676659e-01 8.10141983e-01) (0.00000000e+00 0.00000000e+00 0.00000000e+00))
12.5            	((-1.47988444e+06 -6.94066183e+05 1.47880286e+06) (-5.09869036e+01 -3.38394670e+01 -4.35730939e-02) (0.00000000e+00 0.00000000e+00 0.00000000e+00)) ((-6.72055834e+05 6.15669189e+05 -4.25749735e+05) (4.17341392e-01 -7.86456551e-01 7.16023653e-01) (0.00000000e+00 0.00000000e+00 0.00000000e+00))
12.75           	((1.48826614e+06 8.83393194e+05 -2.03821164e+06) (-5.09374435e+01 -3.15616187e+01 -7.12967739e-01) (0.00000000e+00 0.00000000e+00 0.00000000e+00)) ((8.61595354e+05 -8.32750935e+05 4.34636312e+05) (6.27204315e-01 -1.11320415e+00 1.09050487e+00) (0.00000000e+00 0.00000000e+00 0.00000000e+00))
13              	((-2.05298257e+06 -1.02674346e+06 2.25365382e+06) (-5.99549677e+01 -3.52960749e+01 -5.77166315e-02) (0.00000000e+00 0.00000000e+00 0.00000000e+00)) ((-8.74096000e+05 9.35573741e+05 -5.50886028e+05) (4.69600625e-01 -9.23767696e-01 8.95094728e-01) (0.00000000e+00 0.00000000e+00 0.00000000e+00))
13.25           	((2.50592040e+06 1.51983003e+06 -2.79501225e+06) (-5.47073644e+01 -2.90247621e+01 -8.39741615e-01) (0.00000000e+00 0.00000000e+00 0.00000000e+00)) ((1.02428265e+06 -1.15343446e+06 7.01089576e+05) (6.40303644e-01 -1.23606653e+00 2.36524170e+00) (0.00000000e+00 0.00000000e+00 0.00000000e+00))
13.5            	((-2.72871516e+06 -1.42698427e+06 3.26205128e+06) (-5.93564148e+01 -2.94132643e+01 1.21895219e-01) (0.00000000e+00 0.00000000e+00 0.00000000e+00)) ((-9.58941504e+05 1.34181366e+06 -6.50717151e+05) (4.41168863e-01 -8.44398395e-01 3.91616570e+00) (0.00000000e+00 0.00000000e+00 0.00000000e+00))
13.75           	((2.56284789e+06 1.40191197e+06 -4.27698359e+06) (-6.08388614e+01 -2.99230878e+01 -1.35766433e+00) (0.00000000e+00 0.00000000e+00 0.00000000e+00)) ((1.32513851e+06 -1.75482356e+06 6.73176001e+05) (9.37786044e-01 -1.56487062e+00 5.28277074e+00) (0.00000000e+00 0.00000000e+00 0.00000000e+00))
14              	((-3.40546995e+06 -1.47373346e+06 4.66079813e+06) (-7.44489312e+01 -3.24198466e+01 1.33612312e-01) (0.00000000e+00 0.00000000e+00 0.00000000e+00)) ((-1.41666784e+06 1.93644440e+06 -7.78568481e+05) (3.04601400e-01 -1.04470111e+00 4.20270198e+00) (0.00000000e+00 0.00000000e+00 0.00000000e+00))
14.25           	((2.64586065e+06 1.25685274e+06 -3.82351926e+06) (-8.22830470e+01 -3.55006925e+01 -9.72263870e-01) (0.00000000e+00 0.00000000e+00 0.00000000e+00)) ((7.48787650e+05 -1.56710226e+06 7.03740323e+05) (4.94626803e-01 -1.68081147e+00 5.34096731e+00) (0.00000000e+00 0.00000000e+00 0.00000000e+00))
14.5            	((-3.63119354e+06 -1.52528682e+06 2.92070030e+06) (-9.43123264e+01 -3.99729615e+01 -5.31949372e-01) (0.00000000e+00 0.00000000e+00 0.00000000e+00)) ((-3.77624976e+05 1.22839719e+06 -7.22390000e+05) (5.35326323e-01 -1.66927240e+00 6.03820644e+00) (0.00000000e+00 0.00000000e+00 0.00000000e+00))
14.75           	((4.12160659e+06 1.38937458e+06 -4.83271489e+06) (-8.88310026e+01 -4.09540263e+01 -1.80018057e+00) (0.00000000e+00 0.00000000e+00 0.00000000e+00)) ((1.26320602e+06 -1.98043759e+06 8.85709933e+05) (8.89187939e-01 -2.17796780e+00 8.00444061e+00) (0.00000000e+00 0.00000000e+00 0.00000000e+00))
15              	((-5.95745923e+06 -1.52638693e+06 5.69230214e+06) (-1.09581526e+02 -4.43601876e+01 -1.16612771e-01) (0.00000000e+00 0.00000000e+00 0.00000000e+00)) ((-1.56878307e+06 2.38692585e+06 -8.81200978e+05) (3.22845705e-01 -1.67916001e+00 1.02255654e+01) (0.00000000e+00 0.00000000e+00 0.00000000e+00))
15.25           	((5.79435598e+06 2.29298704e+06 -7.30046889e+06) (-1.11890963e+02 -3.63518589e+01 -1.88127662e+00) (0.00000000e+00 0.00000000e+00 0.00000000e+00)) ((1.89657126e+06 -2.98033218e+06 1.25453679e+06) (3.80689694e-01 -2.53064187e+00 1.52895947e+01) (0.00000000e+00 0.00000000e+00 0.00000000e+00))
15.5            	((-7.56575493e+06 -2.42315752e+06 8.44124642e+06) (-1.30540466e+02 -3.87634770e+01 1.24280661e-01) (0.00000000e+00 0.00000000e+00 0.00000000e+00)) ((-2.56256475e+06 3.50921837e+06 -1.20850031e+06) (-3.25073418e-01 -1.86285324e+00 1.59220221e+01) (0.00000000e+00 0.00000000e+00 0.00000000e+00))
15.75           	((6.41755743e+06 3.01556494e+06 -1.11033440e+07) (-1.39519166e+02 -3.24326134e+01 -2.63474085e+00) (0.00000000e+00 0.00000000e+00 0.00000000e+00)) ((2.67594700e+06 -4.51152070e+06 1.20616319e+06) (4.62144487e-02 -3.27281964e+00 1.65287877e+01) (0.00000000e+00 0.00000000e+00 0.00000000e+00))
16              	((-8.20755681e+06 -3.01778604e+06 1.08223040e+07) (-1.55077224e+02 -3.35673101e+01 -5.77647167e-01) (0.00000000e+00 0.00000000e+00 0.00000000e+00)) ((-3.97544546e+06 4.49248862e+06 -1.17744318e+06) (-7.45326970e-01 -2.56098834e+00 1.71532127e+01) (0.00000000e+00 0.00000000e+00 0.00000000e+00))
16.25           	((7.36104171e+06 3.77187750e+06 -1.25402466e+07) (-1.59942394e+02 -2.63294204e+01 -2.70982718e+00) (0.00000000e+00 0.00000000e+00 0.00000000e+00)) ((3.43405945e+06 -5.09085861e+06 1.28276464e+06) (-4.27207849e-01 -3.63320213e+00 1.82233780e+01) (0.00000000e+00 0.00000000e+00 0.00000000e+00))
16.5            	((-9.84190643e+06 -3.45005898e+06 1.22143453e+07) (-1.80564834e+02 -2.48314889e+01 -2.78090977e-01) (0.00000000e+00 0.00000000e+00 0.00000000e+00)) ((-3.99808276e+06 5.08747950e+06 -9.51798090e+05) (-9.61632576e-01 -2.79633916e+00 2.09614593e+01) (0.00000000e+00 0.00000000e+00 0.00000000e+00))
16.75           	((8.57895610e+06 2.71518095e+06 -1.87288822e+07) (-1.86591083e+02 -2.97850399e+01 -4.22687940e+00) (0.00000000e+00 0.00000000e+00 0.00000000e+00)) ((3.40847674e+06 -7.60816897e+06 9.98695307e+05) (-4.60212767e-01 -4.75596489e+00 2.11079675e+01) (0.00000000e+00 0.00000000e+00 0.00000000e+00))
17              	((-1.12407835e+07 -2.62853548e+06 1.51811339e+07) (-2.05349871e+02 -2.95942375e+01 -1.28566524e+00) (0.00000000e+00 0.00000000e+00 0.00000000e+00)) ((-3.23757355e+06 6.35790599e+06 -7.70867924e+05) (-7.71869049e-01 -3.63848777e+00 2.23453617e+01) (0.00000000e+00 0.00000000e+00 0.00000000e+00))
17.25           	((1.06585946e+07 1.50176333e+06 -2.14894825e+07) (-2.03960755e+02 -3.68991200e+01 -4.65296327e+00) (0.00000000e+00 0.00000000e+00 0.00000000e+00)) ((4.52066216e+06 -8.71126528e+06 3.88814685e+05) (1.56571550e-01 -5.24972759e+00 1.97233221e+01) (0.00000000e+00 0.00000000e+00 0.00000000e+00))
17.5            	((-1.28608170e+07 -1.22772284e+06 2.14377852e+07) (-2.17800259e+02 -3.57718553e+01 1.43377949e-01) (0.00000000e+00 0.00000000e+00 0.00000000e+00)) ((-3.90523007e+06 8.93526801e+06 -5.67249360e+05) (-2.29151876e-01 -3.18107406e+00 1.95833166e+01) (0.00000000e+00 0.00000000e+00 0.00000000e+00))
17.75           	((1.23974517e+07 3.53780319e+05 -1.89702444e+07) (-2.14931447e+02 -4.07079757e+01 -1.93568447e+00) (0.00000000e+00 0.00000000e+00 0.00000000e+00)) ((4.41869611e+06 -7.70448088e+06 5.07206073e+05) (3.17103315e-01 -4.20470714e+00 1.88677864e+01) (0.00000000e+00 0.00000000e+00 0.00000000e+00))
18              	((-1.28264886e+07 -6.22092389e+05 2.01130986e+07) (-2.18586015e+02 -4.20304012e+01 2.31957858e+00) (0.00000000e+00 0.00000000e+00 0.00000000e+00)) ((-1.72065613e+06 8.30965414e+06 -5.78616277e+05) (7.13041695e-01 -2.31366247e+00 1.88447052e+01) (0.00000000e+00 0.00000000e+00 0.00000000e+00))
18.25           	((1.49727236e+07 4.90273296e+05 -2.12355023e+07) (-2.01943134e+02 -4.15532605e+01 9.93910714e-02) (0.00000000e+00 0.00000000e+00 0.00000000e+00)) ((3.86271035e+06 -8.64282760e+06 9.19743662e+05) (1.14998217e+00 -3.24514678e+00 1.94857796e+01) (0.00000000e+00 0.00000000e+00 0.00000000e+00))
18.5            	((-1.75383896e+07 -4.31605655e+05 2.54641974e+07) (-2.23907220e+02 -4.08387797e+01 4.93104169e+00) (0.00000000e+00 0.00000000e+00 0.00000000e+00)) ((-3.51369193e+06 1.05122182e+07 -8.09470185e+05) (1.00960088e-01 -1.27801329e+00 2.24381723e+01) (0.00000000e+00 0.00000000e+00 0.00000000e+00))
18.75           	((1.77505604e+07 5.47160763e+05 -2.99587254e+07) (-2.19598763e+02 -3.90248622e+01 1.21901472e-01) (0.00000000e+00 0.00000000e+00 0.00000000e+00)) ((3.09459397e+06 -1.22248326e+07 1.35084565e+06) (-3.15901955e-01 -3.53756301e+00 2.51096711e+01) (0.00000000e+00 0.00000000e+00 0.00000000e+00))
19              	((-2.01244089e+07 -1.59620655e+06 3.10001791e+07) (-2.37092278e+02 -4.62091270e+01 4.36486081e+00) (0.00000000e+00 0.00000000e+00 0.00000000e+00)) ((-4.20452976e+06 1.27943815e+07 -1.95390873e+06) (-2.60677355e-01 -1.83698312e+00 2.34785009e+01) (0.00000000e+00 0.00000000e+00 0.00000000e+00))
19.25           	((1.86068006e+07 2.58843170e+06 -3.13406873e+07) (-2.40923501e+02 -4.00460038e+01 -3.84424639e-01) (0.00000000e+00 0.00000000e+00 0.00000000e+00)) ((3.81395265e+06 -1.27592246e+07 1.92795059e+06) (-4.12209278e-01 -4.08902730e+00 2.31660852e+01) (0.00000000e+00 0.00000000e+00 0.00000000e+00))
19.5            	((-2.09757945e+07 -2.18410973e+06 3.35024538e+07) (-2.56523119e+02 -3.92848197e+01 4.52086754e+00) (0.00000000e+00 0.00000000e+00 0.00000000e+00)) ((-5.73694447e+06 1.37577445e+07 -1.88292565e+06) (-7.42727281e-01 -2.06810979e+00 2.47704285e+01) (0.00000000e+00 0.00000000e+00 0.00000000e+00))
19.75           	((1.65159629e+07 1.67842654e+06 -3.66628405e+07) (-2.74170977e+02 -4.19105383e+01 -1.66663662e+00) (0.00000000e+00 0.00000000e+00 0.00000000e+00)) ((4.96722302e+06 -1.48426052e+07 1.59642744e+06) (-7.86339124e-01 -5.10877004e+00 2.44584994e+01) (0.00000000e+00 0.00000000e+00 0.00000000e+00))
20              	((-2.31570744e+07 -2.10654436e+06 3.39250931e+07) (-3.06824954e+02 -4.50485268e+01 2.63269550e+00) (0.00000000e+00 0.00000000e+00 0.00000000e+00)) ((-1.27708958e+06 1.40175754e+07 -1.99813891e+06) (3.16336549e-01 -3.59653147e+00 2.39263704e+01) (0.00000000e+00 0.00000000e+00 0.00000000e+00))
20.25           	((1.85421689e+07 1.74269033e+06 -4.14420775e+07) (-3.20940120e+02 -4.60800005e+01 -3.62763441e+00) (0.00000000e+00 0.00000000e+00 0.00000000e+00)) ((6.68759693e+06 -1.67337121e+07 1.33003634e+06) (1.04757999e+00 -6.60902657e+00 2.21048004e+01) (0.00000000e+00 0.00000000e+00 0.00000000e+00))
20.5            	((-2.27421504e+07 -1.32918456e+06 4.01904345e+07) (-3.37950798e+02 -4.54757011e+01 2.23873343e+00) (0.00000000e+00 0.00000000e+00 0.00000000e+00)) ((-7.03513747e+06 1.65816680e+07 -8.88795831e+05) (1.07197803e-01 -4.20934172e+00 2.56946007e+01) (0.00000000e+00 0.00000000e+00 0.00000000e+00))
20.75           	((2.15905594e+07 1.02529583e+06 -4.74401476e+07) (-3.37295238e+02 -4.62545559e+01 -3.62345506e+00) (0.00000000e+00 0.00000000e+00 0.00000000e+00)) ((5.68704914e+06 -1.91512184e+07 7.09297853e+05) (1.10329908e-01 -6.92803496e+00 2.51958467e+01) (0.00000000e+00 0.00000000e+00 0.00000000e+00))
21              	((-2.66461416e+07 -9.24903568e+05 4.70261131e+07) (-3.57669803e+02 -4.60157279e+01 3.41037236e+00) (0.00000000e+00 0.00000000e+00 0.00000000e+00)) ((-2.22408134e+06 1.94104962e+07 -5.28473024e+05) (2.50364163e-01 -3.96697718e+00 2.73944692e+01) (0.00000000e+00 0.00000000e+00 0.00000000e+00))
21.25           	((2.88890119e+07 1.56682843e+06 -5.51761502e+07) (-3.45218532e+02 -4.19088373e+01 -3.18272435e+00) (0.00000000e+00 0.00000000e+00 0.00000000e+00)) ((1.19644387e+06 -2.23786536e+07 1.55960030e+06) (-4.00825652e-01 -6.98637165e+00 3.05769611e+01) (0.00000000e+00 0.00000000e+00 0.00000000e+00))
21.5            	((-3.48854217e+07 -1.42761593e+06 6.00828530e+07) (-3.71961075e+02 -4.24462683e+01 5.29411274e+00) (0.00000000e+00 0.00000000e+00 0.00000000e+00)) ((-2.14275462e+06 2.48297072e+07 -1.84268167e+06) (-5.59811296e-01 -3.35964068e+00 3.09884042e+01) (0.00000000e+00 0.00000000e+00 0.00000000e+00))
21.75           	((3.99594682e+07 5.29594240e+05 -5.78617045e+07) (-3.47732007e+02 -4.50659950e+01 -1.15311857e+00) (0.00000000e+00 0.00000000e+00 0.00000000e+00)) ((1.88688598e+06 -2.37074072e+07 1.11012250e+06) (-6.66785197e-01 -6.21727211e+00 2.77543015e+01) (0.00000000e+00 0.00000000e+00 0.00000000e+00))
22              	((-4.09403418e+07 8.52631074e+05 6.27301518e+07) (-3.58278355e+02 -3.86824217e+01 6.50361804e+00) (0.00000000e+00 0.00000000e+00 0.00000000e+00)) ((-2.19897308e+06 2.57964777e+07 -7.61330511e+05) (-6.21939098e-01 -2.86455961e+00 3.02966554e+01) (0.00000000e+00 0.00000000e+00 0.00000000e+00))
22.25           	((3.81890400e+07 8.28481455e+05 -6.84268236e+07) (-3.62223693e+02 -3.18769001e+01 -2.08488278e+00) (0.00000000e+00 0.00000000e+00 0.00000000e+00)) ((1.53597796e+06 -2.78565238e+07 1.18229907e+06) (-1.81800753e+00 -6.94201345e+00 3.17145623e+01) (0.00000000e+00 0.00000000e+00 0.00000000e+00))
22.5            	((-4.27812836e+07 -1.00931073e+06 7.38369638e+07) (-3.84855070e+02 -3.34522044e+01 6.47036603e+00) (0.00000000e+00 0.00000000e+00 0.00000000e+00)) ((-3.04903670e+06 3.03291081e+07 -1.77608020e+06) (-1.35634615e+00 -3.30650172e+00 3.11488301e+01) (0.00000000e+00 0.00000000e+00 0.00000000e+00))
22.75           	((3.33462497e+07 8.11836691e+05 -7.81950124e+07) (-4.10659361e+02 -3.48616679e+01 -4.14202572e+00) (0.00000000e+00 0.00000000e+00 0.00000000e+00)) ((2.93755200e+06 -3.16600918e+07 1.01928235e+06) (-1.61893379e+00 -8.45082351e+00 3.00756295e+01) (0.00000000e+00 0.00000000e+00 0.00000000e+00))
23              	((-3.93633213e+07 -2.94845595e+05 7.94951955e+07) (-4.31586859e+02 -3.26489653e+01 4.73434257e+00) (0.00000000e+00 0.00000000e+00 0.00000000e+00)) ((-3.79513294e+06 3.26595841e+07 -1.08012029e+06) (-1.22515931e+00 -4.74731205e+00 3.10454440e+01) (0.00000000e+00 0.00000000e+00 0.00000000e+00))
23.25           	((3.43953040e+07 2.79275083e+05 -9.69241903e+07) (-4.40633192e+02 -3.33249682e+01 -6.33338887e+00) (0.00000000e+00 0.00000000e+00 0.00000000e+00)) ((4.30866515e+06 -3.93643883e+07 1.39986820e+06) (-1.46992184e+00 -9.98548447e+00 3.21858069e+01) (0.00000000e+00 0.00000000e+00 0.00000000e+00))
23.5            	((-4.28319470e+07 -2.93510221e+06 9.37754081e+07) (-4.66250821e+02 -4.18165180e+01 4.20344363e+00) (0.00000000e+00 0.00000000e+00 0.00000000e+00)) ((-4.99408143e+06 3.87563897e+07 -2.50470015e+06) (-1.13170587e+00 -5.51928896e+00 3.04150908e+01) (0.00000000e+00 0.00000000e+00 0.00000000e+00))
23.75           	((4.69212228e+07 2.26499546e+06 -8.27153267e+07) (-4.46151850e+02 -4.22929769e+01 -3.34485356e+00) (0.00000000e+00 0.00000000e+00 0.00000000e+00)) ((4.54195569e+06 -3.37607326e+07 2.54849863e+06) (-8.10702980e-01 -8.83381967e+00 2.87751199e+01) (0.00000000e+00 0.00000000e+00 0.00000000e+00))
24              	((-5.49326957e+07 -2.05125039e+06 8.73550053e+07) (-4.75646327e+02 -4.30177228e+01 6.76832753e+00) (0.00000000e+00 0.00000000e+00 0.00000000e+00)) ((-1.72222862e+06 3.59681017e+07 -2.85727401e+06) (-2.95921117e-01 -4.59839962e+00 3.04513765e+01) (0.00000000e+00 0.00000000e+00 0.00000000e+00))