/*--------------------------------*- C++ -*----------------------------------*\
  =========                 |
  \\      /  F ield         | OpenFOAM: The Open Source CFD Toolbox
   \\    /   O peration     | Website:  https://openfoam.org
    \\  /    A nd           | Version:  7
     \\/     M anipulation  |
\*---------------------------------------------------------------------------*/
FoamFile
{
    version     2.0;
    format      ascii;
    class       surfaceScalarField;
    location    "6000";
    object      phi;
}
// * * * * * * * * * * * * * * * * * * * * * * * * * * * * * * * * * * * * * //

dimensions      [0 3 -1 0 0 0 0];

internalField   nonuniform List<scalar> 
99138
(
-3.7156186e+31
-9.8413416e+33
-2.3965179e+33
2.7617365e+33
3.3989461e+33
2.3676245e+33
1.6547744e+33
-5.6230578e+32
-2.6066862e+32
8.9900395e+32
4.5915301e+32
-1.7258162e+33
-1.0704565e+34
3.8058515e+33
1.9118185e+33
3.8831863e+33
-7.2710159e+32
4.2208002e+33
-5.2345275e+32
-1.153339e+33
-3.1993402e+32
-4.8055317e+32
5.0266512e+32
7.3159054e+32
1.263521e+33
-8.4017683e+33
-1.3748397e+33
5.7660491e+32
-4.1861311e+32
1.7644191e+33
1.4768342e+33
1.2425924e+33
8.6573034e+32
7.6460936e+32
-1.5559897e+32
1.3905062e+33
-7.5343451e+32
-7.1236008e+32
-2.6082312e+33
5.4452588e+33
-7.8682971e+32
7.7609131e+32
2.6170854e+33
-8.9903507e+32
4.0699797e+32
7.3612661e+32
-1.1119256e+33
1.4012182e+33
-2.8698665e+32
3.5895881e+32
2.0816275e+33
-2.5380787e+33
-5.5560279e+32
9.0790125e+31
2.5470955e+33
-2.6712706e+33
1.2700361e+32
-7.2943392e+32
4.010263e+33
1.5412804e+32
-8.1080466e+32
2.3831288e+33
2.3902298e+32
-5.7336603e+32
-7.8542615e+33
7.8272437e+32
1.5766535e+33
2.6113921e+33
3.0200294e+33
2.039583e+33
-1.2349589e+33
-1.4031543e+32
-3.4882754e+32
3.1976254e+32
-1.5184378e+33
5.6977816e+33
8.671969e+32
1.8804626e+33
5.3567089e+32
-2.0838697e+33
-2.2116756e+33
8.6595447e+33
-2.046312e+33
8.1274854e+32
-9.5948202e+33
3.3389287e+32
2.9755831e+33
7.6129782e+32
4.1471482e+33
1.1005773e+33
7.1024068e+33
2.1385734e+32
-1.2891425e+33
-5.2129254e+32
-2.6429654e+32
6.4340627e+32
3.5061529e+32
-1.5238356e+32
1.9290379e+33
9.2745633e+31
1.9361534e+33
-3.2132176e+32
1.4344239e+31
2.7280973e+32
-4.2201077e+32
4.994126e+31
1.1343408e+32
4.0096495e+33
-7.9788257e+33
-1.5244482e+33
1.7157427e+33
-4.5594797e+32
-8.7538195e+32
4.2794583e+32
1.4101593e+33
1.6739424e+33
-9.7176688e+31
3.1950863e+32
1.0068078e+33
8.9520629e+32
-6.7101713e+32
7.5725968e+32
-1.4116461e+33
1.5808947e+33
3.0900845e+32
-2.1331806e+33
-3.2621501e+32
1.5088015e+32
3.5255089e+32
4.7224254e+32
8.1591797e+32
1.1305201e+33
-5.0746594e+32
4.550045e+32
7.6992306e+32
-6.7427022e+32
-3.0362703e+32
2.6585877e+32
1.118711e+32
1.5031643e+33
5.6573278e+32
-1.6234554e+33
1.3483193e+33
4.9480123e+32
-2.1739315e+33
1.4828314e+32
1.3760983e+33
-1.40667e+33
-1.797265e+32
-2.5816817e+33
8.2372386e+33
4.247428e+32
1.8448423e+33
-1.2067692e+33
-1.3133089e+33
-9.2213067e+32
1.7671013e+33
-1.1196526e+33
6.0371694e+33
-7.3181646e+31
-6.7993513e+32
-2.7573159e+32
-3.6309361e+32
-4.9229369e+32
1.6070341e+33
-1.3824902e+32
9.1600379e+31
2.0094561e+33
-1.8800292e+33
-3.0906492e+32
1.7882811e+32
2.1719281e+33
-1.8923708e+33
1.0856233e+32
-2.2011896e+32
2.8784708e+33
1.0547027e+32
-3.5096347e+32
2.2313944e+33
1.4792979e+32
-8.1378309e+33
1.9172653e+33
-5.5587232e+32
2.1535552e+32
2.7031315e+32
-6.3887042e+32
2.106517e+33
2.4449978e+33
1.0797018e+33
2.3985245e+33
-6.3027215e+32
1.2054742e+33
1.3710304e+33
1.2305585e+33
-6.141253e+32
-3.9584598e+32
6.6534321e+32
7.9755907e+32
-2.0672226e+33
-3.0699941e+31
-4.2484669e+32
5.0094992e+33
6.3114272e+31
-1.1330659e+33
-9.427197e+33
7.6269298e+33
3.0951907e+33
2.3017241e+33
2.0207674e+33
-6.5155993e+32
3.7489209e+33
-1.8924665e+32
-4.7593142e+32
-8.3660569e+32
2.8353858e+32
-1.4398774e+33
7.941796e+33
1.4270141e+33
3.2389812e+33
-3.47911e+33
-8.3094176e+32
1.0510073e+33
-3.4101321e+32
-3.1342403e+33
-1.5534406e+33
-2.3723669e+33
1.3175761e+34
-1.9191086e+33
-9.0723039e+32
4.806618e+33
-3.277061e+32
-1.225654e+33
1.3026284e+33
2.2128527e+33
2.191128e+32
-5.3162954e+32
-9.304065e+32
-1.0622012e+34
3.5226669e+33
1.2032339e+34
-2.7326934e+33
2.1926403e+33
1.6477015e+33
1.2692462e+34
1.0069016e+33
-1.4656505e+33
-6.4341497e+32
6.942627e+31
3.9361166e+32
-3.3753693e+32
3.1497576e+32
1.6734824e+33
-4.6622703e+32
-4.7768019e+31
1.7074558e+33
4.2358068e+31
-3.2343719e+32
7.8357274e+31
-4.3101138e+32
-1.5085805e+30
-4.7509957e+31
1.7191289e+33
6.0565677e+31
1.7298233e+33
-1.6462428e+32
3.727478e+31
5.0066992e+31
-2.2081632e+32
7.0484922e+31
6.0377129e+31
3.434405e+33
-6.6872332e+33
-1.4464184e+32
2.3133997e+33
2.7113995e+33
-8.7741586e+32
-9.017119e+32
-4.8733858e+32
-4.902157e+32
-8.1447228e+32
4.1938497e+32
-2.5209573e+31
9.0210358e+31
1.1787738e+33
1.2292303e+33
-4.34471e+32
1.4317051e+33
-1.8833808e+33
1.0398404e+32
7.7713273e+32
-1.5968769e+33
-4.3626867e+32
-5.3839264e+31
1.0043611e+33
1.5991181e+33
-1.927004e+33
-6.7339394e+32
4.248686e+32
1.2540576e+33
-4.0920778e+31
1.1761765e+33
3.1448369e+33
6.9067785e+32
5.2303131e+32
-3.2844015e+32
3.149326e+32
1.7043405e+32
2.0782651e+33
3.0785215e+32
6.2024216e+32
5.6533343e+32
-1.4454018e+33
1.7027469e+32
-1.3220945e+33
1.7380048e+33
4.2480643e+32
-1.5779595e+33
-5.0917772e+32
7.520672e+31
-5.1592852e+32
1.1526054e+33
1.027209e+33
-2.2772475e+32
-6.1496954e+32
1.3111937e+33
7.0135005e+32
1.2361127e+33
-9.9327991e+32
1.0473679e+33
-7.9494644e+32
-3.8325276e+31
1.0493063e+33
-2.2691765e+33
-1.0440794e+33
4.9480999e+32
-5.1888131e+32
1.9968547e+33
3.3095484e+32
-1.885654e+33
1.7958206e+33
7.2848166e+32
-1.7482463e+33
1.2661717e+32
2.21186e+32
8.6904618e+31
1.1607782e+32
6.6458116e+31
7.7466124e+33
1.6710294e+32
1.4162745e+32
-1.3861382e+33
5.2892213e+29
-6.5729978e+32
1.4418838e+31
-1.1938041e+33
9.6383197e+33
4.8167291e+31
-5.5150889e+32
4.2836142e+33
-1.9718188e+32
4.4471235e+32
-2.4611626e+32
-6.1096566e+31
3.5075445e+31
-5.9884966e+31
-2.5085056e+32
9.5535194e+31
1.2555592e+33
1.9054296e+32
8.5390718e+30
1.7545839e+32
-1.4826209e+32
-2.7303668e+31
1.7039658e+32
1.8066386e+32
-1.5387412e+32
1.0261197e+32
-1.2956911e+31
2.8730067e+32
4.3171857e+31
-1.6247481e+31
1.7777351e+32
1.4890559e+32
7.6679523e+32
3.931716e+32
-4.1693346e+32
5.2075919e+32
-5.1443644e+32
-8.6044016e+33
-5.3874941e+32
-5.9170655e+32
6.7167661e+32
-1.1950993e+32
-6.889514e+32
2.4683464e+33
2.9152494e+33
2.2054481e+33
3.066804e+33
1.8066181e+33
-2.313009e+32
-2.2823346e+33
2.2730142e+32
-7.6155001e+31
-3.6451507e+31
4.5390368e+32
-2.210663e+32
1.8255894e+33
-2.101951e+33
-1.5207155e+32
2.8868454e+33
-2.3573621e+33
-7.7718724e+31
8.1845925e+32
-1.60756e+33
1.6819225e+33
7.8885016e+32
-6.1350357e+32
1.1232369e+33
-1.1054675e+33
3.8591928e+33
1.8500329e+33
-3.2921974e+33
4.4362202e+32
3.5686828e+33
-2.678321e+32
6.5258246e+31
2.2199684e+33
2.1500425e+33
-2.534703e+33
-2.9715968e+33
2.1141865e+32
1.0841736e+33
-1.3322019e+32
-4.7830357e+33
1.2856089e+33
1.2666295e+33
4.136763e+33
-7.6660891e+32
6.5688667e+32
7.5506084e+33
-7.1147443e+32
4.1613226e+32
4.7392565e+33
1.4502055e+33
5.7272862e+33
-1.3962835e+33
1.1602424e+33
1.8500541e+33
-2.5079582e+32
4.1412309e+32
-8.6685289e+33
3.9735146e+33
2.2161523e+33
-2.8091001e+33
1.6082944e+33
1.6835847e+33
7.0665396e+33
5.3048885e+31
-1.2337884e+33
-1.3232207e+32
3.6926985e+31
-1.0639088e+32
8.1448743e+33
2.1605105e+33
1.0194351e+33
-1.2062472e+34
-1.2378164e+32
9.9787497e+31
-4.5427636e+32
-2.365948e+32
-2.2023395e+33
-7.0064777e+32
7.4977491e+33
-1.7007253e+31
-1.2330854e+32
1.3059973e+34
4.5291213e+32
1.751764e+33
-3.8562962e+33
-1.3036677e+33
-2.1258029e+31
7.3289962e+33
2.4587017e+33
-2.6437616e+33
-1.3452552e+33
5.7961561e+32
6.6821903e+32
8.9492085e+33
-9.4080178e+32
-9.259906e+33
-1.2575554e+33
1.6266543e+33
1.9176224e+33
5.2951466e+33
3.3205566e+33
1.335344e+33
5.1832756e+32
-2.6690005e+32
1.1854881e+33
-4.1189832e+32
4.627744e+33
1.3039916e+34
1.283484e+33
-7.687942e+33
-1.0531774e+33
-5.3523474e+32
4.638077e+31
2.616731e+32
-4.6806807e+32
1.3808501e+33
4.2169303e+32
-5.079313e+32
-8.3982843e+31
4.3457426e+32
-5.0250852e+32
-7.866622e+31
-1.496555e+33
1.0348775e+31
4.4624035e+30
2.323917e+32
1.6002227e+33
-3.0397542e+32
-8.4208632e+29
1.6075935e+33
2.3583318e+31
-3.2510706e+32
4.1995328e+31
-3.8328156e+32
7.8929244e+31
1.4750887e+30
1.4943877e+32
6.1745206e+31
1.4095969e+32
-1.1224065e+31
5.431909e+31
3.6861495e+30
-1.7096068e+31
7.6593012e+31
6.5945719e+31
3.6703688e+33
-6.7936048e+33
-1.8653225e+33
3.1461498e+33
1.824428e+33
2.0005782e+32
5.3089473e+32
-6.5097514e+32
-6.0390666e+32
5.0091464e+32
-1.0364112e+32
-7.3098521e+32
-2.6122276e+33
1.1000411e+33
4.5156537e+33
-1.4038742e+33
9.087758e+32
-2.1966756e+33
4.6721906e+33
-2.8853156e+32
7.8377927e+32
-1.6812821e+33
-1.2764916e+32
8.62673e+32
-1.3611409e+33
-5.0419403e+32
-1.8758102e+32
-8.6687481e+31
-4.2271753e+32
-8.1731106e+31
9.6647241e+32
1.3397223e+32
-2.5553498e+32
-2.3002465e+32
4.7628157e+32
-5.59996e+33
-1.2395265e+33
2.027591e+32
-1.7774577e+32
-5.1475877e+32
2.5594746e+33
3.5897283e+32
-1.004184e+33
-6.793625e+32
1.5360745e+33
-1.368839e+33
1.0693363e+32
8.5321166e+32
-1.1158129e+33
-5.2659988e+32
5.599978e+31
-2.7761811e+32
1.6890138e+33
-3.2538073e+33
1.054781e+33
1.1423656e+32
1.0333861e+33
-1.3468138e+33
8.9517042e+31
9.637146e+32
7.8884809e+32
1.2656857e+33
-1.6707347e+33
6.8890419e+33
1.6568899e+33
3.9630755e+33
1.1504476e+33
9.6374334e+32
-5.7519685e+32
5.4228991e+32
9.2810263e+31
2.2151972e+33
7.3591703e+31
-2.4454174e+31
7.1709143e+31
-4.3682808e+31
-1.0940498e+32
-1.2162619e+33
1.1756725e+32
2.9829382e+31
-1.1559779e+32
-2.8889836e+31
7.2298885e+31
-6.7955496e+32
9.9802022e+32
-5.5151018e+32
1.961605e+33
-6.7902688e+31
-1.0743374e+32
1.0544106e+32
-1.8228284e+32
-1.8398778e+32
2.0688914e+32
1.8775988e+33
1.3324682e+33
8.2026444e+32
-4.6063189e+31
-8.58496e+31
3.6685746e+31
-7.786097e+32
6.7392123e+32
2.0827538e+33
-4.6538761e+32
-5.2637543e+32
3.0928777e+31
-2.7407892e+31
1.3563927e+32
3.0936224e+32
-1.3742042e+32
1.3317021e+32
7.4741333e+32
-1.3330677e+32
1.2502966e+32
2.0639814e+32
7.4444522e+31
1.3425873e+32
1.4240567e+32
1.2552502e+31
1.9394526e+32
9.1510252e+30
6.7470049e+31
2.4846961e+32
9.3649204e+33
9.080207e+31
-4.6125642e+32
4.9011269e+33
6.525803e+32
-2.000825e+31
1.328529e+32
-1.0205886e+31
2.3679563e+31
-9.0180109e+31
8.9704697e+30
2.3726222e+32
-1.0803404e+33
1.5762857e+33
3.7211741e+31
-1.1685337e+30
2.7654167e+31
2.3211365e+32
8.8541391e+31
7.1676862e+30
1.6596303e+32
-1.3617189e+32
-2.0381363e+31
1.5882423e+32
-1.3545822e+32
-1.387606e+31
1.6793716e+32
-6.8581791e+30
1.9003114e+32
3.4006343e+32
-1.9527468e+32
-3.2845001e+29
-7.9529157e+33
-2.5873252e+32
-4.471726e+32
4.8805878e+32
4.9411772e+32
-4.2879201e+32
1.9834284e+32
-1.7185013e+33
-2.8741682e+31
1.6768497e+33
-1.3290526e+32
3.5243834e+31
-1.9060281e+31
1.1633465e+32
-2.7173153e+30
-4.8728603e+31
-1.0017743e+34
-3.8382676e+33
-8.6111771e+32
3.0814117e+32
5.2671971e+32
-6.315895e+32
3.885367e+33
2.6186256e+33
4.258196e+33
3.627047e+33
1.9249312e+33
-1.123579e+32
-2.374603e+33
-1.6561354e+32
1.3593785e+32
-3.4260666e+32
-4.5894107e+31
7.8137488e+32
2.2037351e+33
-1.4904255e+33
1.2343314e+32
1.3587806e+33
-2.210203e+33
1.457699e+32
2.9190838e+32
-9.0451711e+31
-1.7441405e+33
5.1342684e+33
-1.8427576e+32
-6.6912507e+31
-5.0584335e+32
4.8325248e+33
-6.7433754e+31
-5.8928598e+32
2.9698012e+33
5.0074942e+33
1.5821558e+33
-2.6349653e+32
-1.6429337e+33
2.8456619e+32
-3.6446273e+31
-1.9450344e+32
6.5339642e+32
8.3453964e+32
6.765762e+31
5.3544973e+32
1.2165679e+33
-4.7985766e+32
-5.5203638e+32
-1.7232285e+33
1.9755634e+31
1.8027934e+33
1.3268298e+32
4.487906e+33
-1.6764584e+33
-1.3011804e+31
1.6438693e+33
-3.8581185e+33
2.8345364e+33
-5.9804668e+32
-6.2360541e+32
1.6655411e+33
-1.0533246e+33
5.5144511e+33
4.8365578e+33
-1.8042799e+34
1.0079365e+33
7.2508764e+33
3.9958571e+32
-7.4628175e+32
9.2380316e+31
7.8881885e+31
1.2167533e+31
-3.5441678e+33
2.3652591e+33
2.4627105e+33
-1.5250753e+33
-7.6247599e+31
-4.7852651e+31
-1.3520523e+31
-4.6624223e+33
-1.6229367e+33
8.6703773e+32
8.5173013e+33
2.591385e+31
4.4486861e+31
7.4963407e+33
2.3658599e+32
-2.5382873e+33
1.29504e+34
1.5946003e+33
2.2097532e+32
1.4298763e+33
3.0002569e+33
3.5560857e+32
-2.892162e+33
-7.4219199e+31
1.7235824e+33
1.910595e+33
-6.6796043e+32
-8.5382219e+33
-1.7504053e+33
2.4144026e+33
6.9499728e+32
2.1214891e+33
1.9758048e+33
-1.0784313e+33
1.7578173e+33
-1.3269914e+33
2.1816825e+33
-5.7511431e+32
1.9195718e+33
7.0026572e+33
2.7833643e+32
-7.6343083e+32
-1.1741851e+32
8.2585642e+31
-1.5436426e+32
2.7081406e+31
-9.6952836e+30
-1.2999519e+34
-1.9533223e+32
-3.7403756e+30
-4.9235299e+32
1.2446964e+32
5.3136257e+31
7.2239166e+33
-2.4350584e+31
-8.5132374e+31
-2.5164884e+33
3.9617195e+31
1.1916604e+34
2.0405143e+32
2.5841737e+30
-4.1163086e+33
2.5367585e+33
1.2229233e+33
2.9276944e+31
-1.1215993e+32
-6.3153818e+31
-8.4142086e+32
-5.7114063e+31
-1.1396609e+34
-5.8536042e+33
1.2073802e+33
5.430054e+33
3.6996549e+33
9.3830584e+33
-2.9940372e+32
6.971327e+32
1.4050757e+32
8.2152007e+32
2.9551107e+32
-4.8472099e+32
1.2405412e+32
1.6833792e+33
7.9867517e+32
-2.978866e+33
8.6796252e+33
5.5045071e+33
2.4378387e+33
1.1301691e+33
3.2159218e+32
-1.6735332e+32
-1.4552141e+32
8.0395701e+33
-4.3928092e+32
-5.8735461e+32
-4.3633128e+32
3.676598e+32
1.2974177e+32
1.4284404e+33
-7.9989497e+33
-9.728563e+32
-4.4294463e+32
9.3160933e+31
3.0536445e+32
-2.5899674e+32
1.1112704e+33
4.561901e+32
-1.4859151e+33
-5.795241e+32
-3.7256178e+31
4.2322602e+32
-5.6317393e+32
-6.354193e+31
-1.4432071e+33
-5.5684475e+31
-1.888525e+33
-7.4491431e+31
1.3230229e+33
4.1227457e+32
-4.3671407e+32
1.3253294e+32
4.7813654e+32
-4.5250574e+32
1.0291308e+32
-1.3920872e+33
1.2845191e+32
1.2216639e+32
2.1290996e+31
1.1646427e+32
-2.3149572e+31
3.8524336e+30
1.1746253e+32
3.1904413e+31
-2.6302024e+31
3.53577e+31
-2.524185e+31
7.8736051e+31
6.0231869e+30
1.3196687e+32
1.3960024e+32
1.9713991e+30
1.8835721e+30
-8.5384598e+30
-7.8093927e+32
-7.9964865e+33
-2.6502656e+33
1.0183937e+33
3.9898488e+33
3.7239494e+31
1.9601775e+32
1.1162109e+33
4.7513926e+31
2.2805907e+33
8.7656191e+32
1.9978382e+33
6.080136e+32
2.3013303e+33
9.9890408e+31
-1.8609207e+33
-7.575217e+32
1.9806665e+32
2.1850461e+33
-9.7185565e+32
-1.1818844e+33
3.5675001e+32
1.0137584e+31
-1.6725089e+33
1.8294249e+33
-3.1498617e+32
5.2571364e+32
-1.2078423e+33
-1.58054e+32
8.9100006e+32
-1.1515125e+33
-5.2634786e+32
-1.3203221e+32
-2.8582559e+31
-7.7683591e+32
1.6300771e+33
5.6725748e+32
-5.5145797e+31
2.5918867e+31
-9.1269307e+32
-2.7744549e+33
1.0898554e+32
9.3595018e+33
-1.0449032e+33
3.6825586e+31
-1.9632439e+33
6.7308191e+33
-3.3730195e+32
7.6164458e+32
-1.1076027e+33
2.9011527e+31
5.350283e+32
-7.6229209e+32
-3.0086843e+32
3.2496394e+30
1.4940797e+32
-2.179686e+32
3.6985503e+32
1.5200421e+32
-7.4203887e+31
-2.0880377e+33
5.6058969e+32
2.7708856e+33
4.3979081e+32
3.0037758e+31
1.0552138e+33
-2.255484e+33
1.2921927e+33
3.4413492e+33
-1.6361763e+34
-1.5697732e+33
1.2685998e+33
3.7071701e+32
4.3299511e+31
-3.8708913e+32
-3.9980088e+32
-3.699997e+32
-3.8280873e+31
1.3076812e+32
-1.1189771e+32
9.7454821e+31
7.5793186e+31
-1.0122852e+32
-2.1903768e+31
6.5058888e+31
1.1428353e+33
-9.1157041e+32
3.9563668e+32
5.1739694e+32
-1.4261634e+31
-2.5786151e+32
-4.4223776e+32
8.0081281e+31
7.4851523e+32
1.2506382e+33
-5.8575414e+32
-1.4659602e+32
9.8771706e+32
-6.337595e+32
-4.7808786e+32
-5.2985157e+32
6.065269e+33
7.1389785e+31
6.379054e+33
1.3817676e+33
4.195008e+33
6.2816444e+32
6.6114686e+31
-4.0892069e+31
5.0271463e+31
9.3109998e+31
1.778168e+32
6.5249918e+31
-3.2186757e+29
-1.387306e+31
-9.8506322e+31
-4.4623175e+31
8.7596923e+31
2.2750712e+31
-1.0122157e+32
-2.3996336e+31
-4.6883376e+31
-6.8498188e+31
-4.7468206e+32
1.4399476e+32
-5.0705438e+32
5.8179475e+32
1.6527918e+33
2.1116711e+33
-3.1291336e+31
-1.791378e+32
3.4710619e+31
-5.3210073e+31
3.4336641e+31
1.7017901e+32
1.3168021e+33
2.1486178e+33
-9.2422434e+32
2.2688033e+31
-5.5268166e+31
-7.8952856e+31
-7.7176149e+30
1.1305154e+32
2.0773167e+33
-4.478743e+32
1.3786082e+31
-1.672196e+31
8.5287058e+31
-9.8654966e+31
9.6840326e+31
-1.1867897e+32
3.2349865e+32
1.561379e+32
5.5091508e+31
4.6969776e+33
2.3737835e+32
1.201127e+31
8.3992346e+31
7.6191215e+32
-2.6479374e+31
-1.4358537e+32
-2.5913943e+30
6.959922e+31
-3.064941e+31
-9.4786224e+32
-3.7766666e+31
1.0288229e+31
9.3247918e+31
1.7168788e+33
3.5592376e+31
1.3179089e+32
-2.6792608e+32
4.6200048e+32
-1.8733296e+30
-2.0652551e+32
-5.6932918e+31
1.2211282e+30
5.0554774e+31
1.2775639e+31
-3.2710385e+30
3.6960525e+31
3.5090996e+32
-4.562361e+32
3.1961361e+32
-4.5894443e+32
-7.9453318e+33
-1.8527337e+33
-5.4797619e+32
2.647661e+32
5.7089776e+32
-3.6651186e+32
1.6945964e+33
7.5129991e+31
-1.9843463e+33
-2.5623431e+32
2.3681948e+31
2.4672578e+31
-2.8840935e+32
7.1789286e+31
-1.672175e+33
9.7097042e+31
-2.0109528e+33
2.0359796e+31
2.2832579e+32
-1.5928181e+33
-1.117511e+31
1.5957195e+33
-1.7375018e+32
9.3182762e+31
1.8562131e+31
1.6678482e+32
1.1609646e+31
-4.597557e+30
-8.264389e+33
-2.9896496e+33
-1.0106226e+33
-4.535019e+32
1.7434371e+32
-4.4065316e+32
3.3391519e+33
1.0725147e+33
2.785587e+33
1.2809949e+33
2.1720289e+33
5.410779e+32
-2.2346341e+33
-1.2422776e+33
-9.7311848e+31
4.2117836e+32
-1.4759662e+33
-1.7982786e+31
3.5529422e+33
-2.22489e+33
2.5681893e+32
2.8700759e+33
-2.4716582e+33
-9.3566887e+30
-1.219314e+33
-2.3925385e+32
-1.0493527e+33
6.3258548e+33
3.9810995e+32
-2.6034969e+33
-3.5141629e+32
3.9561164e+33
3.3074249e+32
-2.416971e+33
8.5003523e+33
4.9362743e+33
2.3616977e+33
-9.0470648e+31
-1.9103713e+33
-2.545036e+32
2.9586189e+31
-4.1740829e+32
-2.9531614e+32
3.7953499e+33
6.0447562e+31
-8.7513739e+32
-1.424404e+32
2.0219299e+33
6.1009838e+32
-2.1691155e+33
3.1999074e+31
2.496538e+33
-3.4951279e+32
3.0558384e+32
-1.9079649e+33
7.8715e+31
6.6446548e+32
8.6343026e+30
-2.1698893e+33
8.296599e+33
4.9055503e+32
-6.4117094e+32
2.563963e+32
7.7270012e+33
2.3128855e+32
-1.7485079e+33
5.6420417e+33
8.076532e+33
1.211556e+32
-2.3434256e+31
-1.3983895e+32
2.5259683e+31
-1.9587481e+31
6.1006057e+32
9.8937427e+32
8.3385146e+32
-2.0786041e+33
-1.5627654e+31
5.4981586e+31
1.2043525e+32
2.9024648e+31
1.4013573e+33
8.2645338e+32
-7.5588441e+32
-3.0772868e+33
-1.5016834e+32
5.439156e+27
1.873419e+32
5.473425e+32
2.6928759e+33
9.8237201e+31
7.7714807e+33
-1.47017e+32
-1.0361445e+31
4.4624197e+31
-1.346065e+32
1.6944042e+32
-6.5159023e+32
-5.6132837e+31
9.5657638e+31
-2.3670587e+31
5.5432215e+33
1.7126064e+32
-1.9101585e+34
1.9249099e+31
7.4305741e+33
2.4494205e+32
-9.1009764e+32
1.2849431e+32
1.3842663e+32
8.0264125e+31
-6.1271111e+31
-2.6647037e+31
-1.3975417e+33
-5.5733428e+31
-6.9700857e+31
-2.8737594e+31
1.7199391e+31
4.8172904e+31
8.4351454e+33
5.1749678e+31
4.2071716e+31
5.6851838e+32
1.3285889e+32
-5.8686503e+32
-1.3176124e+30
4.8674354e+31
1.2764238e+34
9.3830142e+32
2.8112146e+33
-9.1479465e+32
4.8195006e+31
5.4528673e+32
-3.4697606e+33
4.3539101e+32
-8.3361868e+33
-4.2935327e+33
3.200507e+33
2.2914332e+33
2.6257742e+33
2.2691006e+33
-8.6458326e+32
4.465189e+32
1.264577e+33
-1.211495e+33
2.7793888e+33
7.899831e+32
2.7620181e+32
-1.7204899e+33
4.6247642e+32
2.0143896e+33
5.6070437e+32
9.9710466e+32
-3.5040752e+33
5.468377e+33
-4.6890508e+32
1.6245872e+33
-6.1323343e+32
2.9175786e+32
5.3893928e+31
-1.9208093e+33
6.2309594e+31
5.8722457e+31
1.1801914e+32
4.7289771e+31
3.0149557e+31
-4.9125386e+31
1.1538364e+34
1.759921e+32
6.8187514e+31
-1.8230497e+32
-1.0912449e+32
2.8770193e+32
-1.3657628e+32
-5.3336443e+31
-3.6294436e+32
-7.0837951e+33
-1.7871869e+33
2.0795574e+33
1.7190432e+33
-3.831197e+32
-8.1608823e+32
3.7225023e+33
9.1813921e+32
-8.4247168e+32
-2.8945789e+32
-8.6218383e+32
7.5018689e+32
-2.9646352e+33
1.2229191e+34
-1.9141719e+33
1.2725199e+32
4.7484465e+33
5.6062264e+33
1.8406324e+32
1.4008641e+33
1.4151277e+32
-5.8332754e+32
8.4691615e+32
9.0415299e+32
1.0362969e+33
-9.1992418e+32
5.5153815e+32
-3.0060767e+33
1.2017906e+34
7.4203739e+33
-1.3653383e+32
-1.8426489e+31
-1.0000529e+32
-9.4693164e+31
-6.9605046e+31
7.2897575e+33
-8.8635843e+33
-2.558376e+32
-4.2238012e+32
-5.8639906e+32
2.8414926e+32
5.6424432e+31
3.5605342e+32
1.2361077e+33
-4.3133309e+32
-3.1502176e+31
1.5224572e+33
-7.1423371e+30
-4.0732853e+32
-4.1746869e+31
-4.8679979e+32
-4.0594368e+31
2.6775589e+32
-8.4993607e+33
-1.0494417e+33
-3.2718439e+32
3.2770293e+32
4.3939127e+32
-1.2820603e+32
9.2132449e+32
4.5838843e+32
-1.2158587e+33
-5.9449622e+32
-1.2302899e+31
4.2704354e+32
-5.4921106e+32
-1.4859683e+31
-9.9641624e+32
-4.2192047e+31
-1.3523715e+33
-2.4177195e+31
9.0031585e+32
4.2251504e+32
-1.0445464e+33
-3.864874e+32
7.0946577e+31
4.1060429e+32
-3.6909765e+32
3.2975193e+31
-1.292777e+33
8.7588336e+31
-1.5115198e+33
1.3005227e+32
1.0415771e+32
2.8822001e+31
-2.8077316e+31
1.3039011e+32
2.8333677e+31
-2.3238134e+31
1.0074691e+32
-1.0643381e+32
1.2607998e+32
1.219101e+32
2.8474412e+30
1.0947077e+32
-9.4584974e+30
1.2693755e+32
-1.4694367e+31
-1.5341949e+31
3.038771e+30
-6.1187045e+33
5.1383584e+32
-1.0314287e+32
1.6661378e+32
-2.4555065e+32
8.9604992e+32
5.2372627e+32
2.12549e+32
8.8018074e+32
6.2114461e+32
-5.6175601e+31
2.6981839e+32
-6.6028695e+31
8.80919e+32
8.4464768e+32
1.5795088e+33
1.6094093e+33
-3.590696e+30
6.8768447e+32
-1.164405e+33
-8.7965624e+30
3.329093e+33
-1.6603375e+33
-1.1441921e+33
-3.3213566e+32
-8.414375e+32
5.6521008e+32
8.6828812e+32
1.368802e+33
4.1421032e+32
-1.3898561e+33
4.5154213e+32
-8.3512685e+32
-8.5386276e+32
7.122069e+33
1.7660645e+32
-6.6472054e+32
6.1700501e+32
2.2904489e+33
2.2812331e+32
1.1788503e+33
5.6941748e+31
-5.6152849e+33
-1.3594027e+33
-1.9129211e+33
5.7845756e+33
-1.4089222e+33
-1.0041634e+33
-1.6979749e+33
-7.5707576e+32
-2.0930508e+33
1.0636936e+33
-1.860758e+32
-1.2207848e+33
-1.4464474e+33
-2.4897778e+32
-3.9120821e+32
3.3426123e+33
-2.2560103e+32
5.2029903e+32
-7.3831486e+32
-1.5305318e+31
7.6215966e+32
-7.9391621e+32
-3.5091152e+32
2.5035109e+31
-1.2895009e+32
-7.4295743e+32
2.313316e+33
-1.1199082e+32
2.9789011e+32
-9.8590605e+31
-6.5333502e+31
-8.2823143e+31
-2.056264e+31
9.0501336e+33
1.0687283e+32
3.3715474e+31
-1.0270135e+32
6.6275994e+33
-4.3306595e+30
7.7136934e+31
-1.1311796e+32
4.742035e+31
6.364136e+31
-8.6937628e+31
-2.0868475e+30
2.4302804e+31
-1.7414347e+32
-1.0481917e+33
1.64694e+33
5.0584086e+32
2.7134566e+30
-1.3070111e+31
1.1347128e+32
1.1253168e+32
-6.3725396e+32
-3.0534682e+33
1.2925863e+33
6.4376218e+33
9.5018501e+31
6.4008876e+32
3.5680836e+31
3.3316723e+31
7.5753654e+32
-1.1204955e+33
3.3694629e+32
3.2357758e+32
-1.7547343e+34
5.208068e+31
-9.5154526e+31
8.5760934e+32
2.037499e+31
-3.3933928e+32
-3.1018362e+32
-3.3920282e+31
1.2109291e+32
-1.0315716e+32
6.7504306e+31
-9.0366968e+31
-1.9241134e+31
-1.661146e+32
-2.3523626e+31
6.6969483e+32
-4.3375105e+30
1.543202e+33
-4.0873263e+32
-1.4444037e+33
6.8073559e+32
2.7316151e+31
-2.6227162e+32
-8.1799623e+32
7.459727e+31
7.562491e+31
-4.2226152e+31
5.0301725e+31
9.5428833e+32
-3.4159004e+32
-3.0869632e+32
4.3364993e+31
6.1358622e+33
7.9969354e+31
7.0426168e+33
6.591551e+32
3.6733803e+32
5.4860499e+32
5.2832459e+31
-3.342015e+31
3.9095975e+31
1.4896697e+32
-4.1255947e+31
-8.3393718e+31
1.9680577e+32
8.53929e+31
-1.7207352e+30
1.40716e+33
3.0595232e+32
-7.9760959e+31
5.0394202e+31
3.1746646e+32
1.9937517e+33
-6.1951966e+31
4.3878179e+31
1.3762886e+32
2.6708284e+33
-4.7863344e+32
-6.1966665e+32
-2.2712534e+32
-5.797973e+31
1.0427322e+32
6.4432066e+31
4.27887e+30
-6.6883858e+30
-1.0331451e+32
-2.589125e+31
8.9678204e+31
-2.023764e+31
-9.6795065e+30
-6.0098007e+31
-7.1638446e+30
-6.5121843e+30
-1.6081764e+30
1.360778e+32
-5.516785e+31
3.5242562e+30
-4.2487719e+32
-4.5835016e+32
2.2708262e+32
3.8003439e+32
-4.1610438e+32
-1.8676412e+33
-1.8571059e+33
-1.9181174e+33
-1.9241602e+33
-7.3915969e+31
-1.5726882e+33
-3.0709686e+30
1.5443602e+33
2.5111284e+31
-9.4373323e+31
-1.6601254e+31
-2.0200427e+32
7.7157911e+30
-2.9324854e+31
-7.6184688e+33
-2.0308047e+33
-5.7360013e+32
7.3261294e+31
5.2855896e+32
-2.5112641e+32
1.5516345e+33
3.9564113e+32
-1.8111892e+33
-6.7569601e+32
-8.3664352e+30
5.1096725e+32
-9.2171013e+32
-7.4903362e+30
-1.7113751e+33
3.3172676e+31
-1.9450623e+33
6.5822023e+30
1.6533253e+33
4.5986277e+31
-1.5246192e+33
-2.0503355e+32
5.4023321e+31
7.9451658e+30
-2.5384861e+32
6.0646919e+31
-1.7022509e+33
6.6113112e+31
-1.5772123e+33
3.4490306e+31
2.0217712e+31
-1.4874868e+32
-4.0835918e+30
1.3801828e+32
-1.6430136e+31
1.0045809e+31
2.1318497e+31
1.4726794e+31
1.5280468e+31
4.152189e+30
-7.500638e+33
-3.4278727e+33
-8.1678663e+32
-2.2103567e+31
-2.5608304e+31
-5.3673773e+32
1.4172911e+33
3.9192363e+33
1.3574237e+33
3.0815412e+33
9.1859169e+32
9.6486225e+32
-1.5228458e+33
-1.1119544e+33
-2.5927531e+32
8.4294898e+32
-6.9726074e+32
-1.5071866e+32
4.701222e+32
-1.2478628e+33
-1.4575257e+32
9.349426e+32
-1.7997506e+33
-1.6618053e+32
-8.8203826e+32
5.4104643e+32
-1.9242841e+33
6.8690056e+33
9.7083761e+32
-1.1985152e+33
9.4178912e+31
3.2397702e+32
-6.3539603e+32
2.1057636e+33
-2.5528591e+32
-7.3177449e+32
1.9452432e+33
6.2493381e+32
-1.6113714e+33
-1.0373486e+33
-1.8768489e+31
7.2216571e+32
-1.4205421e+33
2.7141087e+33
-8.8471565e+31
5.3607882e+32
-3.1593213e+33
-3.5560249e+32
6.1803716e+33
-2.2155856e+33
-3.9025077e+31
2.9382795e+33
5.4273208e+32
1.6716298e+33
-1.8650761e+33
1.0564135e+31
-1.8054554e+33
5.9088177e+31
-2.2107628e+33
1.0514273e+34
3.4907744e+32
-3.8693404e+33
-5.7238922e+32
6.2433132e+33
-1.0156011e+33
-3.8880578e+33
1.9221466e+34
7.0473727e+33
1.7459002e+32
-1.315148e+31
-1.6082928e+32
-8.6284697e+30
3.7606224e+31
-1.471003e+33
-5.915204e+32
3.9899094e+32
7.4808126e+33
-3.5632059e+31
-2.086471e+31
2.3391999e+32
5.7615087e+31
-6.7842181e+32
1.1637662e+32
8.9865183e+32
-1.4750159e+33
-1.9396482e+32
3.329443e+31
2.1201943e+32
9.3017131e+32
7.3522524e+32
-9.8168732e+32
-7.3458653e+32
-1.5741388e+32
5.4272739e+31
9.3328993e+31
4.9585286e+31
6.2540848e+31
8.1868018e+33
7.5730568e+30
-9.0914494e+31
3.5999466e+31
7.8225393e+33
2.5782731e+31
3.3997363e+32
5.3771881e+33
8.2528164e+33
9.4615351e+31
-1.953795e+31
-1.2110763e+32
2.5208687e+31
-4.3586096e+30
4.3084558e+31
6.866757e+32
2.288851e+32
1.5793164e+33
1.5139095e+33
1.1434415e+33
-7.0711551e+33
-8.1232397e+30
4.5612186e+31
1.1801459e+32
4.2361696e+31
9.6423947e+31
1.9825525e+31
-3.259567e+33
-1.1248276e+32
1.5742321e+32
4.4049532e+32
3.5337972e+32
2.1930518e+31
4.8790881e+33
-3.6851737e+31
7.8440343e+33
-1.1300602e+32
4.5176524e+31
-1.7095848e+32
2.397783e+32
-3.3918579e+31
1.0010193e+32
-8.2546809e+31
2.0174077e+32
-8.8774497e+30
2.7186747e+32
-1.4143326e+33
-9.3446221e+31
-4.9894621e+31
-5.3005738e+31
2.0791782e+31
-4.4533052e+31
-4.0194647e+31
-5.6258761e+32
-1.9859148e+31
9.2321937e+31
2.4276231e+31
-2.0677908e+32
-2.3153991e+32
3.72084e+31
3.226926e+32
9.2233529e+32
-5.5956743e+33
-9.8909252e+32
1.0097653e+33
-2.6118436e+33
2.0218632e+33
5.8617857e+32
-4.4684099e+32
-4.4471804e+32
-1.9070008e+33
6.749256e+33
3.2036625e+32
1.2222249e+33
-1.633936e+33
1.9359392e+33
3.2746562e+30
1.0145213e+33
7.1685079e+32
2.231111e+33
8.0606589e+32
-1.7221862e+32
1.8819413e+33
-2.3815801e+32
5.0175789e+32
-1.0918888e+33
-9.0827408e+32
1.9898969e+33
1.465602e+33
-1.014822e+33
2.2322837e+33
-4.1070081e+32
-2.0991132e+32
5.1989178e+32
5.6583344e+31
1.2822993e+33
-4.1756866e+31
6.4981689e+31
3.0492947e+32
-6.6971042e+32
1.0123563e+32
-9.1028076e+31
-7.5582706e+31
-5.0010375e+31
7.6430796e+32
-7.6044102e+33
6.7556106e+32
2.7245771e+33
1.5135285e+33
3.0702083e+31
1.1159283e+32
1.7098946e+33
-7.8208274e+32
1.8887845e+33
-2.1145955e+33
4.4517891e+32
2.1337221e+33
-1.6695805e+33
-9.2755502e+31
7.7397606e+32
-1.509351e+33
1.2834059e+32
-2.8308803e+33
2.70529e+33
2.9137775e+32
-1.2259874e+33
-8.8128772e+32
-8.423559e+32
1.2860425e+32
-1.4860174e+33
1.713425e+34
-1.966557e+33
-2.8799508e+32
7.1969402e+33
-9.8795079e+32
-4.6359287e+31
-1.3892974e+32
-1.0709135e+32
-3.9095292e+32
-1.4279046e+32
-3.1194758e+32
-2.309018e+32
-2.806445e+32
-1.055499e+31
4.7970123e+31
1.1871416e+34
7.180722e+33
-1.8501291e+32
-2.828178e+31
-4.4961106e+31
-1.0010483e+32
8.6397579e+31
1.4942996e+32
-5.9332972e+32
3.0198744e+32
-4.7991161e+32
-9.1320093e+33
-4.4597686e+31
-4.3435718e+32
-5.9320789e+32
2.1201061e+32
3.7422189e+31
-3.2375607e+32
1.1356866e+33
-1.6290269e+33
-3.6616656e+31
1.0441928e+33
-1.538723e+33
-3.6453687e+32
-5.1087904e+31
-3.8748335e+32
-3.1852055e+31
-4.7197439e+32
-3.0750415e+31
3.1816755e+32
1.1522741e+33
-3.2384649e+32
5.7065795e+31
1.6643745e+33
4.5580394e+31
-3.2157667e+32
1.3475874e+32
-3.3942586e+32
8.4982502e+31
5.6465054e+32
-8.8299687e+33
3.5584725e+32
-3.4461568e+32
4.6797043e+32
6.418134e+32
-2.3843755e+31
9.8262884e+32
5.3911681e+32
-1.1158587e+33
-7.8134501e+32
4.8273311e+31
4.1482193e+32
-7.9943882e+32
3.4611006e+31
-8.8294701e+32
2.3544049e+31
-1.0984068e+33
3.1874369e+31
8.0066622e+32
3.7079761e+32
-8.5582283e+32
-3.9324303e+32
6.5298957e+31
3.4740359e+32
-3.9317393e+32
3.7660638e+31
-8.3124228e+32
2.9041257e+31
-9.3036947e+32
5.9260133e+31
1.0144014e+32
2.3906324e+31
-9.7369474e+31
-1.8257352e+31
6.1226506e+31
1.4358152e+31
-6.6781448e+30
3.9797644e+31
-1.1947087e+32
8.5061224e+31
-1.1814506e+32
1.2455522e+32
9.4266986e+31
1.988401e+31
-1.9151576e+31
1.9278812e+31
-1.4236435e+31
-9.5652652e+31
1.3276611e+33
-9.0224359e+33
-6.5965854e+32
1.6851138e+32
4.0677523e+32
-6.9106701e+32
-3.6890842e+32
6.8071965e+32
3.5262742e+32
1.292991e+33
7.0266262e+33
4.4155875e+32
1.0782156e+33
2.960999e+31
-7.0650695e+32
-9.4601469e+32
-6.8707779e+32
1.0751635e+33
-1.4957851e+33
1.301215e+32
1.2298944e+33
-1.6488577e+33
-6.7445832e+32
1.6079326e+32
6.4633339e+32
-1.2380701e+33
1.3947336e+32
1.7898743e+33
-5.7241877e+31
-7.7335177e+31
1.7188489e+33
-6.1024897e+32
2.712061e+33
-6.8058974e+32
1.0411614e+33
7.409115e+32
-6.8739597e+32
1.4186942e+33
4.3915235e+32
6.4064029e+32
4.2917792e+32
-1.0645797e+33
-2.5734238e+32
7.8204033e+32
-2.3456063e+33
1.5307876e+33
8.341875e+32
9.3375183e+32
5.3905253e+32
-3.8107452e+31
3.3537849e+32
-6.5846323e+32
1.4845775e+30
1.3398994e+33
-1.0984679e+33
-5.4462751e+32
-6.70466e+31