/*--------------------------------*- C++ -*----------------------------------*\
  =========                 |
  \\      /  F ield         | OpenFOAM: The Open Source CFD Toolbox
   \\    /   O peration     | Website:  https://openfoam.org
    \\  /    A nd           | Version:  7
     \\/     M anipulation  |
\*---------------------------------------------------------------------------*/
FoamFile
{
    version     2.0;
    format      ascii;
    class       volScalarField;
    location    "6000";
    object      pMean;
}
// * * * * * * * * * * * * * * * * * * * * * * * * * * * * * * * * * * * * * //

dimensions      [0 2 -2 0 0 0 0];

internalField   nonuniform List<scalar> 
33730
(
-1.1155504e+70
-1.1824934e+70
-1.0334404e+70
-1.1449226e+70
-1.1363368e+70
-1.1569871e+70
-1.0791149e+70
-1.0172186e+70
-1.1128583e+70
-1.1117306e+70
-1.2033056e+70
-1.1698106e+70
-1.1999905e+70
-1.0456562e+70
-1.0149372e+70
-1.0709682e+70
-1.0179369e+70
-1.1407607e+70
-1.3583419e+70
-1.0363494e+70
-1.0439071e+70
-1.0385021e+70
-1.058575e+70
-1.0692342e+70
-1.1340093e+70
-9.1674556e+69
-1.0792739e+70
-1.1145407e+70
-1.0315729e+70
-1.0716865e+70
-1.1290237e+70
-1.169081e+70
-1.0896274e+70
-1.1825048e+70
-1.2035962e+70
-1.1557227e+70
-1.281525e+70
-1.1199568e+70
-1.0988771e+70
-1.1178309e+70
-1.1231783e+70
-1.2201942e+70
-1.1854132e+70
-1.2388159e+70
-1.0367612e+70
-1.0072485e+70
-9.9330087e+69
-1.0970419e+70
-1.1459794e+70
-1.2091317e+70
-1.030644e+70
-1.1366045e+70
-7.8869084e+69
-1.0001368e+70
-8.8111659e+69
-1.0756216e+70
-8.9821402e+69
-9.7889654e+69
-1.1830282e+70
-2.745193e+70
-1.0418226e+70
-1.0405827e+70
-1.0367752e+70
-1.0480109e+70
-1.0502895e+70
-1.0499696e+70
-1.0423929e+70
-1.0650292e+70
-1.0789636e+70
-1.1625815e+70
-9.9743703e+69
-1.0955541e+70
-1.086038e+70
-1.064271e+70
-8.5263907e+69
-1.2514453e+70
-1.1560082e+70
-1.1824715e+70
-1.087187e+70
-1.1083173e+70
-1.2039367e+70
-1.0912455e+70
-9.5580625e+69
-1.1150485e+70
-1.0141451e+70
-1.1654903e+70
-1.2226484e+70
-1.1059149e+70
-1.6614205e+70
-1.448731e+70
-1.2348313e+70
-1.9834151e+70
-1.3663741e+70
-1.118991e+70
-1.840428e+70
-1.0037519e+70
-1.1165709e+70
-1.1220709e+70
-1.2064064e+70
-1.1701676e+70
-1.0652872e+70
-1.2318154e+70
-1.1662e+70
-1.2838686e+70
-1.255008e+70
-1.151506e+70
-1.0550665e+70
-1.0347616e+70
-9.7047782e+69
-1.1475363e+70
-1.027014e+70
-9.2657531e+69
-1.1637355e+70
-9.9797186e+69
-1.0515856e+70
-1.1172739e+70
-1.0724789e+70
-1.0075108e+70
-1.1402331e+70
-1.6734484e+70
-1.0367552e+70
-1.7973847e+70
-8.5200713e+69
-2.4974464e+70
-9.182477e+69
-1.9107086e+70
-8.4328248e+69
-1.1547758e+70
-1.077547e+70
-9.9088228e+69
-1.1766354e+70
-9.4770604e+69
-9.6103893e+69
-7.0065981e+70
-1.0429776e+70
-1.0473894e+70
-1.0569896e+70
-1.0538599e+70
-1.0398482e+70
-1.0313786e+70
-1.0342226e+70
-1.0522075e+70
-1.0557446e+70
-1.0478805e+70
-1.0430523e+70
-1.0678991e+70
-1.0776786e+70
-1.1922782e+70
-1.1247646e+70
-1.0209604e+70
-1.0908273e+70
-1.1109861e+70
-1.1685115e+70
-1.1507249e+70
-1.0597048e+70
-1.0127629e+70
-1.1999935e+70
-1.1025763e+70
-1.081611e+70
-9.5156254e+69
-1.1383793e+70
-9.1702456e+69
-1.7221715e+70
-1.2624883e+70
-1.1189215e+70
-1.1821523e+70
-3.3244304e+70
-1.1054647e+70
-1.2085282e+70
-1.3215243e+70
-1.1513766e+70
-1.0591317e+70
-2.6770343e+70
-9.7010954e+69
-2.1380223e+70
-1.156227e+70
-1.2302833e+70
-1.1020028e+70
-1.5356719e+70
-1.2599558e+70
-1.1057116e+70
-2.6043695e+70
-1.8920828e+70
-1.3114575e+70
-2.6290139e+70
-9.9089667e+69
-1.7921507e+70
-1.1257208e+70
-1.1170257e+70
-1.1222255e+70
-1.2057452e+70
-1.1692083e+70
-2.093587e+70
-1.0709316e+70
-1.0995311e+70
-1.0769572e+70
-1.1115119e+70
-1.0717071e+70
-1.2353559e+70
-1.1557911e+70
-1.2322054e+70
-1.2722266e+70
-1.1525231e+70
-1.2047636e+70
-1.1765787e+70
-1.2311683e+70
-1.2431459e+70
-1.1615322e+70
-1.222426e+70
-1.1524918e+70
-1.2042669e+70
-1.1979374e+70
-1.1437407e+70
-7.9462972e+69
-8.9714635e+69
-1.0635544e+70
-1.5096248e+70
-1.029442e+70
-1.854054e+70
-1.1006536e+70
-3.195942e+70
-1.1508296e+70
-1.7342559e+70
-1.6176647e+70
-1.0279387e+70
-9.2380014e+69
-1.0878355e+70
-1.1520154e+70
-1.0470909e+70
-9.358016e+69
-1.9695776e+70
-1.0213869e+70
-1.6094636e+70
-3.1390726e+70
-2.567848e+70
-1.2846809e+70
-1.9037178e+70
-1.6282661e+70
-3.0106243e+70
-1.1430571e+70
-1.6521191e+70
-1.1444409e+70
-9.7860745e+69
-9.0444459e+69
-1.0139921e+70
-1.0612913e+70
-1.1274186e+70
-1.0126611e+70
-4.3634668e+70
-1.0073163e+70
-1.0630298e+70
-1.0550063e+70
-1.076273e+70
-1.0621516e+70
-1.0502189e+70
-1.0413902e+70
-1.0606981e+70
-1.0595573e+70
-1.0354346e+70
-1.0339514e+70
-1.0380093e+70
-1.0551809e+70
-1.05709e+70
-1.0478053e+70
-1.0431219e+70
-1.0681583e+70
-1.0776637e+70
-1.152788e+70
-8.1672333e+69
-1.0383155e+70
-9.5703823e+69
-9.2428872e+69
-1.1247703e+70
-1.1485158e+70
-1.237015e+70
-1.1749063e+70
-1.6914143e+70
-1.0014611e+70
-1.0901319e+70
-1.1016467e+70
-1.149083e+70
-1.1359178e+70
-1.1465431e+70
-1.1255916e+70
-1.0673906e+70
-9.192515e+69
-2.2711574e+70
-1.0999899e+70
-1.0760761e+70
-9.5321978e+69
-1.6845121e+70
-1.239268e+70
-2.3380492e+70
-2.9312379e+70
-1.369588e+70
-1.4143882e+70
-1.0922154e+70
-1.174207e+70
-3.0250806e+70
-1.1052909e+70
-1.960921e+70
-1.3166116e+70
-9.3776121e+69
-1.3083416e+70
-9.3525443e+69
-1.3982915e+70
-2.6732959e+70
-1.2437893e+70
-2.0165023e+70
-1.1552709e+70
-1.2311187e+70
-1.1018031e+70
-1.8277021e+70
-1.9033588e+70
-1.9599212e+70
-1.3113459e+70
-2.5836074e+70
-5.593569e+70
-1.8379058e+70
-1.1338789e+70
-2.3981789e+70
-1.8860997e+70
-1.7745967e+70
-1.0304651e+70
-1.0767054e+70
-1.0851851e+70
-1.1160357e+70
-1.1136891e+70
-1.0821463e+70
-1.1048172e+70
-1.0784437e+70
-1.1117187e+70
-1.0801981e+70
-1.1893433e+70
-1.1532021e+70
-1.2471769e+70
-1.2170357e+70
-1.1496959e+70
-1.3873531e+70
-1.2673447e+70
-1.1980396e+70
-1.3400152e+70
-1.1622044e+70
-1.2491869e+70
-1.2211915e+70
-1.2671525e+70
-1.2119997e+70
-1.1670371e+70
-1.8343275e+70
-1.3545464e+70
-1.5228672e+70
-1.4626436e+70
-1.1506326e+70
-1.1401859e+70
-1.2118613e+70
-9.6159827e+69
-1.2030205e+70
-1.1645068e+70
-1.0238154e+70
-1.1411451e+70
-1.5390006e+70
-3.0111471e+70
-1.7372536e+70
-3.2035909e+70
-1.0262053e+70
-1.8255094e+70
-2.2728779e+70
-3.0677548e+70
-1.4620578e+70
-1.6357783e+70
-1.4481972e+70
-2.3980354e+70
-1.0752875e+70
-9.6394238e+69
-1.1894919e+70
-8.7167462e+69
-9.5988959e+69
-1.0326277e+70
-9.4733625e+69
-9.8693975e+69
-9.0688904e+69
-1.3396093e+70
-1.029656e+70
-2.8160184e+70
-1.1862032e+70
-3.6716504e+70
-2.8116317e+70
-2.2892218e+70
-1.4904925e+70
-1.1631324e+70
-9.1988366e+69
-1.1180326e+70
-1.0439918e+70
-9.3564846e+69
-1.1572677e+70
-8.8547187e+69
-1.5081101e+70
-1.4060045e+70
-2.787293e+70
-1.8799182e+70
-1.0149167e+70
-1.0065996e+70
-1.0032952e+70
-1.0198255e+70
-1.0246198e+70
-1.0668559e+70
-1.0674598e+70
-1.1008019e+70
-1.08747e+70
-1.0614256e+70
-1.0550383e+70
-1.0746986e+70
-1.0675667e+70
-1.0481875e+70
-1.043076e+70
-1.0590965e+70
-1.0596459e+70
-1.037326e+70
-1.0340954e+70
-1.0382099e+70
-1.0553408e+70
-1.0572854e+70
-1.2342621e+70
-1.0147302e+70
-8.5442172e+69
-1.141677e+70
-1.1487339e+70
-8.2293936e+69
-9.6001212e+69
-1.1887609e+70
-1.1978246e+70
-1.0032121e+70
-1.0549476e+70
-1.2807276e+70
-1.0395475e+70
-8.6425444e+69
-1.3638869e+70
-1.122294e+70
-1.1381131e+70
-1.2422751e+70
-1.1630972e+70
-2.8250739e+70
-1.3501299e+70
-1.0870596e+70
-1.0990309e+70
-1.22966e+70
-1.1401485e+70
-8.8378042e+69
-1.1817684e+70
-1.1317387e+70
-8.8708846e+69
-1.4495665e+70
-2.4763517e+70
-1.9988246e+70
-1.0998854e+70
-1.0757179e+70
-1.8541894e+70
-1.5195067e+70
-1.3910989e+70
-1.29857e+70
-2.383429e+70
-2.2923912e+70
-1.7392895e+70
-1.6306622e+70
-1.5074428e+70
-1.0907578e+70
-1.1743808e+70
-2.0037804e+70
-1.3081183e+70
-1.4353269e+70
-1.3228316e+70
-1.3645838e+70
-3.9390369e+70
-1.4138892e+70
-1.2709824e+70
-1.3648256e+70
-2.1923903e+70
-1.9569576e+70
-5.9674365e+70
-2.2619375e+70
-1.8996817e+70
-2.0377982e+70
-1.9352134e+70
-1.3878256e+70
-1.030645e+70
-1.0474367e+70
-1.0183489e+70
-1.0486281e+70
-1.0188694e+70
-1.0738253e+70
-1.0847025e+70
-1.1129559e+70
-1.1138981e+70
-1.0866847e+70
-1.0847802e+70
-1.1176202e+70
-1.1176361e+70
-1.0833781e+70
-1.1006278e+70
-1.0777966e+70
-1.1091444e+70
-1.0781905e+70
-1.1637173e+70
-1.1174615e+70
-1.1519516e+70
-1.1839216e+70
-1.1358355e+70
-9.5701437e+69
-9.8704307e+69
-8.4342021e+69
-1.0282111e+70
-1.1449724e+70
-1.2187612e+70
-1.1997037e+70
-1.2362287e+70
-1.2237711e+70
-1.1567351e+70
-1.7726023e+70
-1.7703149e+70
-1.5310235e+70
-1.6862887e+70
-1.158515e+70
-1.3600708e+70
-1.2371795e+70
-1.0838164e+70
-1.2710657e+70
-1.1649987e+70
-1.4037664e+70
-1.1626848e+70
-4.2657953e+70
-2.0079301e+70
-4.0648762e+70
-1.6912871e+70
-1.1499828e+70
-1.312185e+70
-1.6421679e+70
-1.2117303e+70
-1.9008731e+70
-1.2034694e+70
-1.375586e+70
-1.3362388e+70
-2.2126758e+70
-1.1410621e+70
-1.4751547e+70
-3.0062151e+70
-1.306967e+70
-2.5445118e+70
-1.0368131e+70
-2.1308929e+70
-1.2266317e+70
-2.2823239e+70
-1.4951632e+70
-1.8263493e+70
-8.4137425e+69
-1.1251877e+70
-1.1109998e+70
-9.6441769e+69
-8.6470307e+69
-1.0250006e+70
-6.3424429e+69
-8.8030038e+69
-1.3204515e+70
-7.7296222e+69
-1.8128017e+70
-1.3500841e+70
-1.0377001e+70
-2.9723131e+70
-1.8873533e+70
-1.200036e+70
-9.3561187e+69
-9.244865e+69
-8.4629958e+69
-7.6059402e+69
-1.1145136e+70
-1.1486614e+70
-1.0357669e+70
-1.1199909e+70
-3.0982162e+70
-2.7799043e+70
-3.0543406e+70
-2.4804807e+70
-2.3269371e+70
-1.8034854e+70
-9.9133355e+69
-1.0229699e+70
-1.0122324e+70
-1.0153515e+70
-1.0301083e+70
-1.0339986e+70
-1.0061692e+70
-1.0013003e+70
-1.0116272e+70
-1.02478e+70
-1.0718412e+70
-1.0767915e+70
-1.1058563e+70
-1.1033228e+70
-1.0734502e+70
-1.0653856e+70
-1.095505e+70
-1.0861607e+70
-1.0596964e+70
-1.0559547e+70
-1.074039e+70
-1.0663101e+70
-1.0501485e+70
-1.0432527e+70
-1.0589915e+70
-1.0596687e+70
-1.0374452e+70
-1.2507042e+70
-8.0670902e+69
-1.1572504e+70
-1.1611158e+70
-9.7460865e+69
-1.0493788e+70
-9.6106663e+69
-1.2235837e+70
-1.2904267e+70
-1.2566147e+70
-1.0246666e+70
-8.2598316e+69
-1.1220902e+70
-1.1226224e+70
-6.927657e+69
-1.0412885e+70
-1.073692e+70
-1.1481925e+70
-1.1502375e+70
-5.2849623e+70
-1.4165542e+70
-8.0666189e+69
-3.3401077e+70
-1.0774815e+70
-2.7856511e+70
-1.8135694e+70
-1.3637127e+70
-1.1163375e+70
-1.1349957e+70
-1.234593e+70
-1.1480667e+70
-1.8920012e+70
-1.203292e+70
-1.0869593e+70
-1.099019e+70
-1.1903085e+70
-1.2498926e+70
-1.1399349e+70
-1.4124446e+70
-1.1066505e+70
-1.1302196e+70
-1.1309163e+70
-1.6889096e+70
-1.0993571e+70
-2.2657018e+70
-1.8440806e+70
-2.7628872e+70
-1.4554643e+70
-1.3038149e+70
-1.5081294e+70
-2.495245e+70
-1.7600044e+70
-1.5161862e+70
-1.0501723e+70
-1.6321868e+70
-1.4475319e+70
-1.4183153e+70
-1.7762769e+70
-4.0563687e+70
-1.6280187e+70
-1.6110266e+70
-1.381689e+70
-1.0324978e+70
-1.0178881e+70
-1.0477733e+70
-1.0498168e+70
-1.0185711e+70
-1.0109397e+70
-1.0112777e+70
-1.0130851e+70
-1.0124119e+70
-1.0525569e+70
-1.0256404e+70
-1.0522837e+70
-1.0261493e+70
-1.0685255e+70
-1.0774219e+70
-1.0919602e+70
-1.107123e+70
-1.0839451e+70
-1.0838445e+70
-1.1114663e+70
-1.1149889e+70
-1.0860942e+70
-1.0846879e+70
-1.1168418e+70
-1.1171473e+70
-1.0830168e+70
-1.1004719e+70
-1.077784e+70
-1.1090701e+70
-1.0781034e+70
-1.1222415e+70
-1.0945693e+70
-1.1537896e+70
-1.112137e+70
-1.0898515e+70
-9.3102944e+69
-1.1109474e+70
-9.3992182e+69
-9.4017514e+69
-1.1002973e+70
-1.1278362e+70
-1.0510229e+70
-1.1877247e+70
-1.0913587e+70
-1.1286511e+70
-8.7075837e+69
-9.273314e+69
-5.2701515e+69
-9.1678509e+69
-1.1414726e+70
-1.2414451e+70
-1.2107102e+70
-1.1678085e+70
-1.2243439e+70
-1.2817764e+70
-1.0586623e+70
-1.154409e+70
-2.9760673e+70
-2.7089271e+70
-2.7390723e+70
-1.3773138e+70
-1.1584939e+70
-1.3674562e+70
-1.5254271e+70
-1.2369423e+70
-2.2653885e+70
-1.2727726e+70
-1.3832867e+70
-1.141872e+70
-2.632853e+70
-1.1626317e+70
-3.6297676e+70
-1.6204925e+70
-3.7283138e+70
-1.2545064e+70
-1.3260063e+70
-1.6055379e+70
-2.5685904e+70
-1.514972e+70
-1.3904755e+70
-1.6025601e+70
-3.5596359e+70
-1.8910087e+70
-1.0239051e+70
-1.8326737e+70
-1.5915833e+70
-1.1761336e+70
-8.8139183e+69
-7.8400458e+69
-1.0746226e+70
-1.0075234e+70
-8.1138021e+69
-6.7423522e+69
-1.0163213e+70
-9.6748802e+69
-3.8465224e+70
-2.6806814e+70
-2.3166437e+70
-2.4500455e+70
-1.8325893e+70
-1.2697477e+70
-1.0539881e+70
-1.1687041e+70
-1.0651792e+70
-8.5319888e+69
-7.9410378e+69
-8.5667145e+69
-9.1377208e+69
-1.0229734e+70
-7.4307313e+69
-9.1669642e+69
-1.8530642e+70
-1.8561967e+70
-1.4718501e+70
-2.5181437e+70
-2.9145272e+70
-2.827584e+70
-2.6730392e+70
-2.1595219e+70
-9.9463505e+69
-9.9214073e+69
-9.8183829e+69
-9.9071897e+69
-9.8058276e+69
-1.0241391e+70
-1.0198242e+70
-1.0236326e+70
-1.0388677e+70
-1.0419726e+70
-1.0115825e+70
-1.0146553e+70
-1.0311922e+70
-1.0364589e+70
-1.0082821e+70
-1.0039076e+70
-1.0189555e+70
-1.0272497e+70
-1.0674856e+70
-1.0810238e+70
-1.1087066e+70
-1.111879e+70
-1.0805005e+70
-1.0705985e+70
-1.0974973e+70
-1.0967742e+70
-1.068764e+70
-1.0664671e+70
-1.0955985e+70
-1.0847695e+70
-1.0608024e+70
-1.056018e+70
-1.0740795e+70
-1.0662773e+70
-1.0502953e+70
-1.183422e+70
-1.0206549e+70
-9.621797e+69
-1.1474543e+70
-1.1581567e+70
-1.2909854e+70
-1.2660616e+70
-6.9287833e+69
-1.1027723e+70
-8.2493694e+69
-1.1460356e+70
-1.143714e+70
-9.4973759e+69
-1.2697758e+70
-1.2512089e+70
-1.2349606e+70
-1.0909331e+70
-1.1751428e+70
-1.2264966e+70
-8.2451861e+69
-2.758424e+70
-1.0096293e+70
-2.5034746e+70
-1.1180225e+70
-1.1182745e+70
-2.1121141e+70
-1.9574014e+70
-1.3497597e+70
-1.0142035e+70
-1.1546037e+70
-1.1442917e+70
-5.128065e+70
-1.2511779e+70
-3.1510579e+70
-9.8427521e+69
-2.9203668e+70
-1.1112002e+70
-2.8035027e+70
-2.3753476e+70
-1.7003011e+70
-1.3285332e+70
-1.116028e+70
-1.1349426e+70
-1.2344235e+70
-1.1472508e+70
-1.7210839e+70
-1.290012e+70
-1.2516657e+70
-1.2871495e+70
-1.2873879e+70
-1.1925977e+70
-1.1280067e+70
-1.7056049e+70
-2.4685981e+70
-8.513301e+69
-1.4621157e+70
-2.1718403e+70
-1.667263e+70
-1.7722678e+70
-1.3841982e+70
-1.5673747e+70
-1.6661803e+70
-1.0342358e+70
-1.016353e+70
-1.0439515e+70
-1.0483199e+70
-1.0177376e+70
-1.0100939e+70
-1.0097751e+70
-1.0109934e+70
-1.0107678e+70
-1.0252673e+70
-1.0029853e+70
-1.0514063e+70
-1.0536962e+70
-1.02609e+70
-1.0029131e+70
-1.0529718e+70
-1.0264685e+70
-1.0530553e+70
-1.0271986e+70
-1.045686e+70
-1.0808327e+70
-1.0735315e+70
-1.0767775e+70
-1.0774753e+70
-1.0727499e+70
-1.0888228e+70
-1.1033365e+70
-1.0799904e+70
-1.0828424e+70
-1.1102457e+70
-1.1142438e+70
-1.0852867e+70
-1.0847132e+70
-1.1169149e+70
-1.117138e+70
-1.0830139e+70
-1.1881977e+70
-1.0875022e+70
-1.1497129e+70
-1.1230788e+70
-1.0660365e+70
-9.9993697e+69
-8.7723727e+69
-8.9763697e+69
-8.8248744e+69
-1.070149e+70
-1.0970556e+70
-1.1749347e+70
-1.0772601e+70
-1.0263448e+70
-1.066337e+70
-7.3815892e+69
-1.6388611e+70
-6.949865e+69
-7.19972e+69
-1.0957917e+70
-1.1153707e+70
-1.0871217e+70
-1.0812232e+70
-1.1836987e+70
-1.2371392e+70
-1.1069483e+70
-1.1268578e+70
-2.1798454e+70
-2.0053894e+70
-5.9462278e+70
-1.5152181e+70
-1.1414641e+70
-1.3383828e+70
-1.2502223e+70
-1.2107117e+70
-2.8024168e+70
-1.2238734e+70
-1.3053037e+70
-1.2197327e+70
-1.5008489e+70
-1.1545255e+70
-2.319985e+70
-2.0980613e+70
-2.3546219e+70
-9.6500228e+69
-1.3698533e+70
-1.7179585e+70
-2.6018999e+70
-2.2314837e+70
-1.3985522e+70
-1.6853126e+70
-5.4227947e+70
-2.2416281e+70
-1.6023738e+70
-1.1123826e+70
-1.9542304e+70
-1.6119496e+70
-9.688072e+69
-3.5492936e+70
-1.0421801e+70
-1.1899163e+70
-8.219295e+69
-8.041287e+69
-8.5550743e+69
-8.7680851e+69
-7.1651951e+69
-7.7588775e+69
-1.1934077e+70
-1.62406e+70
-3.1373782e+70
-2.2242783e+70
-4.11528e+70
-4.4384257e+70
-4.118114e+70
-2.6438714e+70
-2.037318e+70
-2.5277003e+70
-1.051459e+70
-1.1704694e+70
-1.1204163e+70
-8.7370457e+69
-9.2506948e+69
-1.1186275e+70
-1.0793527e+70
-8.5522616e+69
-7.833634e+69
-8.8481006e+69
-2.1166757e+70
-4.9036971e+70
-6.029961e+69
-2.2077179e+70
-1.6583291e+70
-1.8251201e+70
-1.3589493e+70
-2.3680473e+70
-9.9604987e+69
-9.8478649e+69
-9.8355019e+69
-9.9490745e+69
-9.9812731e+69
-9.9422717e+69
-9.7820429e+69
-9.928188e+69
-9.7604593e+69
-1.0191692e+70
-1.0226394e+70
-1.0236277e+70
-1.0418049e+70
-1.0425271e+70
-1.0180982e+70
-1.0217853e+70
-1.0403497e+70
-1.0429547e+70
-1.0134424e+70
-1.0161999e+70
-1.0333939e+70
-1.0383253e+70
-1.0084191e+70
-1.0040693e+70
-1.0194464e+70
-1.0274221e+70
-1.0668214e+70
-1.0819784e+70
-1.0995178e+70
-1.1069614e+70
-1.0841207e+70
-1.0790103e+70
-1.1048217e+70
-1.104962e+70
-1.0743376e+70
-1.0717142e+70
-1.0968762e+70
-1.0960031e+70
-1.0695433e+70
-1.0665195e+70
-1.0956851e+70
-1.0847674e+70
-1.0608724e+70
-1.1579134e+70
-1.1638412e+70
-1.309562e+70
-9.7543796e+69
-1.0835358e+70
-1.140062e+70
-1.243284e+70
-1.1918156e+70
-1.1249505e+70
-1.625138e+70
-8.0414005e+69
-1.1321095e+70
-1.1342294e+70
-1.2128052e+70
-1.2379942e+70
-1.2268e+70
-1.2582062e+70
-9.5654044e+69
-1.2096457e+70
-1.7098004e+70
-1.1436853e+70
-1.1432099e+70
-5.6014919e+70
-1.6132463e+70
-1.3194132e+70
-1.4243328e+70
-2.8686157e+70
-1.2715939e+70
-1.6471951e+70
-1.1804563e+70
-1.2224004e+70
-2.0013105e+70
-1.1386552e+70
-2.3440949e+70
-1.0169658e+70
-2.2778693e+70
-1.1178608e+70
-1.1181613e+70
-2.157639e+70
-1.9122049e+70
-3.0932545e+70
-1.0810041e+70
-1.1294165e+70
-1.1554546e+70
-1.1443293e+70
-2.8529351e+70
-2.2045869e+70
-1.2470911e+70
-1.1153332e+70
-1.6103034e+70
-2.8219523e+70
-1.6262634e+70
-1.3258499e+70
-1.358853e+70
-1.6175166e+70
-1.2979949e+70
-1.1155396e+70
-2.1682241e+70
-1.2108796e+70
-4.7432808e+69
-6.358332e+69
-1.60773e+70
-1.6880633e+70
-2.5322343e+69
-1.0327449e+70
-1.0153205e+70
-1.0420494e+70
-1.0437144e+70
-1.0157807e+70
-1.0108161e+70
-1.0109874e+70
-1.0119136e+70
-1.0122809e+70
-1.022714e+70
-1.0017494e+70
-1.0469802e+70
-1.0505454e+70
-1.024603e+70
-1.002474e+70
-9.9697834e+69
-9.9674911e+69
-1.0261908e+70
-1.0043926e+70
-1.0520525e+70
-1.0539697e+70
-1.0266954e+70
-1.0046155e+70
-1.0530214e+70
-1.0265193e+70
-1.0531226e+70
-1.0272669e+70
-1.0617456e+70
-1.0624777e+70
-1.0655181e+70
-1.0597622e+70
-1.0690795e+70
-1.0740098e+70
-1.06824e+70
-1.0692788e+70
-1.0705854e+70
-1.0724085e+70
-1.0872651e+70
-1.1030692e+70
-1.0798825e+70
-1.0828482e+70
-1.1102767e+70
-1.1143371e+70
-1.0853049e+70
-1.1809406e+70
-1.1244803e+70
-1.2158722e+70
-1.1851427e+70
-1.1075952e+70
-8.3459202e+69
-8.8762471e+69
-7.2131975e+69
-7.915503e+69
-1.0851478e+70
-1.1385504e+70
-1.0120845e+70
-1.0981503e+70
-1.0822422e+70
-1.0607312e+70
-1.2401865e+70
-9.3076098e+69
-9.8061963e+69
-7.9978947e+69
-1.0664395e+70
-1.0447192e+70
-1.1007251e+70
-1.4030416e+70
-1.0763696e+70
-1.1022431e+70
-9.169864e+69
-1.0602247e+70
-1.4328328e+70
-4.3656786e+70
-3.17415e+70
-1.8243229e+70
-1.0955433e+70
-1.1146418e+70
-1.0835439e+70
-1.2122284e+70
-2.0304806e+70
-1.1839564e+70
-1.304555e+70
-1.5088173e+70
-1.6247449e+70
-1.1268287e+70
-2.0233654e+70
-2.0096007e+70
-6.2400808e+70
-1.474672e+70
-1.348093e+70
-1.4448172e+70
-1.9518349e+70
-2.6431099e+70
-1.3081722e+70
-1.4368207e+70
-1.2614879e+70
-1.4716492e+70
-1.7393151e+70
-1.5391483e+70
-2.3655558e+70
-1.7071516e+70
-1.4694286e+70
-5.7062581e+70
-1.1849205e+70
-9.8449613e+69
-9.2404663e+69
-6.8388878e+69
-1.0544877e+70
-1.1840243e+70
-8.3999136e+69
-7.1522081e+69
-8.8585083e+69
-1.1037243e+70
-5.4888791e+69
-6.7074598e+69
-7.1578373e+69
-8.752488e+69
-3.0000394e+70
-2.0810857e+70
-1.7900009e+70
-4.4594709e+70
-3.2744519e+70
-2.20302e+70
-3.7707232e+70
-4.3987938e+70
-1.043113e+70
-1.130912e+70
-1.0656498e+70
-1.1520588e+70
-1.0305443e+70
-1.0544285e+70
-1.3265727e+70
-7.8300757e+69
-1.0920757e+70
-9.7286371e+69
-1.53144e+70
-1.2837576e+70
-1.5708969e+70
-1.8340658e+70
-1.9412357e+70
-4.582629e+70
-4.1278537e+69
-1.9852559e+70
-9.9002757e+69
-1.0063567e+70
-1.002365e+70
-9.89242e+69
-9.8205588e+69
-9.8006043e+69
-9.9664354e+69
-1.0002935e+70
-9.9561083e+69
-9.7877903e+69
-9.9415946e+69
-9.7599956e+69
-1.0201828e+70
-1.0216503e+70
-1.017643e+70
-1.0431253e+70
-1.0383697e+70
-1.0210091e+70
-1.0244275e+70
-1.0423403e+70
-1.048713e+70
-1.0203501e+70
-1.0238777e+70
-1.041901e+70
-1.0446093e+70
-1.0135689e+70
-1.0163279e+70
-1.0335459e+70
-1.0384633e+70
-1.0685126e+70
-1.0709166e+70
-1.0930268e+70
-1.0932958e+70
-1.0772993e+70
-1.0736427e+70
-1.0969587e+70
-1.1045233e+70
-1.0770581e+70
-1.0776079e+70
-1.1051639e+70
-1.1042305e+70
-1.0745373e+70
-1.0718079e+70
-1.0969884e+70
-1.0960385e+70
-1.0696395e+70
-1.1341648e+70
-8.3163422e+69
-1.0898549e+70
-7.7959436e+69
-9.7870014e+69
-1.2008139e+70
-1.1677711e+70
-1.0936668e+70
-1.1227273e+70
-1.1935722e+70
-1.8753818e+70
-1.0458313e+70
-1.1199751e+70
-1.7040143e+70
-1.1762144e+70
-1.1106873e+70
-1.1980343e+70
-1.1703837e+70
-1.1078704e+70
-2.7029049e+70
-1.4501288e+70
-1.1352324e+70
-1.1348645e+70
-1.2368019e+70
-1.2197037e+70
-1.1934005e+70
-1.2945742e+70
-1.2272164e+70
-1.5340549e+70
-9.9192893e+70
-4.3630491e+70
-1.5499781e+70
-1.1436741e+70
-1.1434679e+70
-5.515243e+70
-2.1976282e+70
-1.3323711e+70
-1.2553157e+70
-2.4361053e+70
-1.4290223e+70
-2.8070638e+70
-1.4124297e+70
-1.3657923e+70
-1.1819825e+70
-1.222614e+70
-1.9120534e+70
-2.122809e+70
-1.2222448e+70
-1.0184439e+70
-2.6367327e+70
-2.5311669e+70
-1.259435e+70
-1.1403252e+70
-2.0305377e+70
-1.0509338e+70
-1.2663497e+70
-2.4164455e+70
-8.5223763e+69
-1.6251353e+70
-1.4029147e+70
-1.932511e+70
-2.0571372e+70
-2.14928e+70
-2.0391774e+70
-1.0399297e+70
-1.0428509e+70
-1.0131118e+70
-1.0359347e+70
-1.016047e+70
-1.0133766e+70
-1.0133135e+70
-1.0140764e+70
-1.0139945e+70
-1.0213937e+70
-1.002305e+70
-1.0460403e+70
-1.0468975e+70
-1.0222251e+70
-1.0025665e+70
-9.9820018e+69
-9.9840986e+69
-1.0239957e+70
-1.0022689e+70
-9.8759563e+69
-1.0477575e+70
-1.0509741e+70
-1.0034935e+70
-1.0257123e+70
-9.8750848e+69
-1.0262543e+70
-1.0045214e+70
-1.0521232e+70
-1.054035e+70
-1.0267498e+70
-1.0053793e+70
-1.074107e+70
-1.069647e+70
-1.0850048e+70
-1.0782381e+70
-1.0729163e+70
-1.0558774e+70
-1.0665686e+70
-1.0566054e+70
-1.0608251e+70
-1.0709162e+70
-1.0670083e+70
-1.066793e+70
-1.0691921e+70
-1.072397e+70
-1.0871918e+70
-1.1031462e+70
-1.0799292e+70
-1.1738828e+70
-1.1052735e+70
-1.1775286e+70
-1.2397877e+70
-1.13023e+70
-7.1601502e+69
-9.919573e+69
-1.0605356e+70
-7.5348831e+69
-1.130382e+70
-1.2273854e+70
-1.0468205e+70
-1.1601842e+70
-9.8705359e+69
-1.1012624e+70
-1.2875228e+70
-9.6012491e+69
-5.851895e+69
-6.7886317e+69
-1.0760238e+70
-1.049872e+70
-1.1376736e+70
-8.9261764e+69
-1.0836907e+70
-1.0137608e+70
-1.1068721e+70
-1.0495814e+70
-2.6610085e+70
-1.9313045e+70
-2.2248711e+70
-2.1368037e+70
-1.0662484e+70
-1.1222652e+70
-9.803196e+69
-1.1017484e+70
-3.5206091e+70
-1.0771068e+70
-1.1137068e+70
-1.2015362e+70
-2.2409688e+70
-1.0598324e+70
-1.4540865e+70
-3.4525086e+70
-3.2555906e+70
-1.8402441e+70
-1.0849234e+70
-1.3463561e+70
-1.6338156e+70
-1.9616315e+70
-1.310369e+70
-1.2226673e+70
-2.3668867e+70
-1.4843621e+70
-1.4573499e+70
-1.0955896e+70
-1.7733776e+70
-1.4678848e+70
-2.1835699e+70
-1.2131445e+70
-1.5924485e+70
-1.2677824e+70
-1.1627847e+70
-1.0108461e+70
-1.0039461e+70
-7.1116291e+69
-1.0453423e+70
-1.1979362e+70
-1.0385731e+70
-1.2681771e+70
-1.3117191e+70
-1.1347618e+70
-2.3155699e+69
-5.1138636e+69
-1.2038763e+70
-1.2215283e+70
-1.4803104e+70
-1.916973e+70
-2.0665583e+70
-2.2468882e+70
-3.1705267e+70
-2.0211135e+70
-1.4918127e+70
-3.2465699e+70
-1.0215038e+70
-1.1528577e+70
-8.6170452e+69
-9.9756531e+69
-1.1154672e+70
-9.3611728e+69
-1.4702094e+70
-2.0298006e+70
-8.9755355e+69
-1.453183e+70
-1.7122846e+70
-4.1735124e+70
-1.9396303e+70
-1.4366938e+70
-1.1106346e+70
-1.1541936e+70
-1.4141145e+70
-1.559928e+70
-1.0047062e+70
-9.9553272e+69
-9.9165213e+69
-1.0047495e+70
-9.8188753e+69
-1.0012123e+70
-1.001875e+70
-9.8410967e+69
-9.8525145e+69
-9.8208061e+69
-9.9935339e+69
-1.0027412e+70
-9.9569836e+69
-9.7884712e+69
-9.9427292e+69
-9.760343e+69
-1.0234657e+70
-1.0117208e+70
-1.0258337e+70
-1.0393493e+70
-1.0513191e+70
-1.0264698e+70
-1.0221893e+70
-1.0437439e+70
-1.041739e+70
-1.0243136e+70
-1.025845e+70
-1.0442007e+70
-1.0474325e+70
-1.0204775e+70
-1.0240284e+70
-1.042052e+70
-1.0447493e+70
-1.0554527e+70
-1.0695347e+70
-1.0823537e+70
-1.0915975e+70
-1.0668543e+70
-1.0758994e+70
-1.0930348e+70
-1.0920649e+70
-1.0648285e+70
-1.0749293e+70
-1.0983787e+70
-1.1044363e+70
-1.0764801e+70
-1.0775802e+70
-1.1052755e+70
-1.104346e+70
-1.0746014e+70
-1.1852679e+70
-9.289267e+69
-8.4369197e+69
-9.6312484e+69
-9.0386677e+69
-1.1479386e+70
-1.2165005e+70
-1.1336487e+70
-1.0973741e+70
-5.2702407e+69
-1.3347818e+70
-1.1010198e+69
-1.0369664e+70
-9.1152748e+69
-1.1955917e+70
-1.2076226e+70
-1.1591782e+70
-1.0950055e+70
-1.1049164e+70
-2.445991e+70
-2.4699697e+70
-1.2488592e+70
-1.7912983e+70
-1.0976253e+70
-5.0602577e+70
-1.2986638e+70
-1.2459833e+70
-1.105804e+70
-1.1979765e+70
-1.1820289e+70
-1.1007103e+70
-2.0632e+70
-1.2084506e+70
-1.1358799e+70
-1.1351789e+70
-1.4451052e+70
-1.3497502e+70
-1.2210244e+70
-2.2581064e+70
-1.3774408e+70
-1.3018544e+70
-1.2281913e+70
-3.2167809e+70
-1.0564891e+71
-3.918046e+70
-1.5605433e+70
-1.1723389e+70
-1.4054915e+70
-1.2533781e+70
-2.1779838e+70
-2.3365986e+70
-1.7353293e+70
-1.4197748e+70
-1.9605301e+70
-1.3766746e+70
-1.2368795e+70
-2.5633549e+70
-1.3540796e+70
-1.2633745e+70
-7.1218746e+69
-8.5075656e+69
-6.1431929e+69
-8.8960556e+69
-1.7219628e+70
-1.0407612e+70
-1.0145063e+70
-1.0394785e+70
-1.0432844e+70
-1.0175179e+70
-1.0178561e+70
-1.0170772e+70
-1.0174913e+70
-1.0178624e+70
-1.0432726e+70
-1.0172429e+70
-1.0028585e+70
-1.0363491e+70
-1.0213093e+70
-1.0038127e+70
-9.9998395e+69
-9.9963437e+69
-1.0219066e+70
-1.0026157e+70
-9.8832884e+69
-1.0457567e+70
-1.0469e+70
-1.0025111e+70
-1.0230225e+70
-9.8825004e+69
-1.0240847e+70
-1.0009821e+70
-9.861505e+69
-1.0478443e+70
-1.051044e+70
-1.0029211e+70
-9.8570044e+69
-1.0258053e+70
-1.0045404e+70
-1.0054465e+70
-1.0606578e+70
-1.0714033e+70
-1.0773179e+70
-1.0881737e+70
-1.0734804e+70
-1.0622993e+70
-1.0837676e+70
-1.0705457e+70
-1.0610431e+70
-1.055658e+70
-1.0634134e+70
-1.053395e+70
-1.0600987e+70
-1.0706244e+70
-1.066917e+70
-1.0665655e+70
-1.0690839e+70
-1.1888719e+70
-1.1195784e+70
-1.1566902e+70
-1.1382191e+70
-1.1040291e+70
-8.901612e+69
-9.0001895e+69
-9.8006029e+69
-1.0020389e+70
-1.090773e+70
-1.1435469e+70
-1.3007034e+70
-1.1958158e+70
-1.2891585e+70
-1.120017e+70
-4.840102e+69
-1.0324162e+70
-1.3447393e+70
-9.1695928e+69
-1.1274894e+70
-1.2142755e+70
-1.0981784e+70
-1.0091721e+70
-1.1509928e+70
-1.028812e+70
-9.8856749e+69
-1.093732e+70
-4.0954835e+70
-2.1051109e+70
-6.8683889e+70
-2.9897911e+70
-1.0753431e+70
-1.2710165e+70
-8.4366709e+69
-1.1376997e+70
-2.8508299e+70
-1.0833455e+70
-1.1650519e+70
-8.5012023e+69
-2.513851e+70
-1.0488522e+70
-2.1393864e+70
-1.8157306e+70
-2.0017004e+70
-2.1630926e+70
-1.1303063e+70
-1.1917432e+70
-1.7341465e+70
-3.1241614e+70
-1.1162786e+70
-1.171832e+70
-2.1395623e+70
-2.31244e+70
-1.3687705e+70
-1.4858061e+70
-1.4948529e+70
-1.2027971e+70
-8.3357849e+69
-1.7374939e+70
-3.6842963e+69
-6.2170411e+69
-2.6055734e+70
-2.0262356e+70
-1.2711837e+70
-7.7947231e+69
-1.0411123e+70
-1.2346441e+70
-1.2594039e+70
-1.2255661e+70
-1.1446798e+70
-9.4475053e+69
-9.7476314e+69
-1.5092854e+70
-1.8842435e+70
-1.2074873e+70
-3.6988722e+70
-4.1372219e+70
-2.5619087e+70
-2.423078e+70
-1.4418047e+70
-1.6155573e+70
-1.9878348e+70
-2.0609875e+70
-1.0268294e+70
-1.19377e+70
-9.8832592e+69
-8.7536578e+69
-8.4626524e+69
-9.5536621e+69
-2.076793e+70
-1.6805842e+70
-1.6182756e+70
-8.83335e+69
-2.3290553e+70
-3.7804603e+70
-1.2819893e+70
-1.9230079e+70
-1.4711419e+70
-4.3351848e+70
-1.8346718e+70
-1.4451247e+70
-9.0629997e+69
-9.4275169e+69
-9.4071982e+69
-9.6288964e+69
-9.6312555e+69
-9.9230929e+69
-1.0043851e+70
-9.9322292e+69
-9.9411389e+69
-9.9914277e+69
-1.011156e+70
-9.95783e+69
-9.8955191e+69
-1.0100672e+70
-9.8493737e+69
-1.0060392e+70
-1.0043591e+70
-9.8539665e+69
-9.8542251e+69
-9.8220927e+69
-9.9948379e+69
-1.0028967e+70
-1.0287789e+70
-1.0226656e+70
-1.0186199e+70
-1.0475205e+70
-1.043674e+70
-1.0183387e+70
-1.0188838e+70
-1.0376926e+70
-1.0459345e+70
-1.0254835e+70
-1.0258263e+70
-1.0425131e+70
-1.0431109e+70
-1.02456e+70
-1.0259182e+70
-1.0443599e+70
-1.0474012e+70
-1.0825561e+70
-1.0837879e+70
-1.0988332e+70
-1.0797047e+70
-1.0655077e+70
-1.0709433e+70
-1.0884731e+70
-1.0853803e+70
-1.0727404e+70
-1.0748128e+70
-1.0909557e+70
-1.0914673e+70
-1.0656848e+70
-1.0750287e+70
-1.0986003e+70
-1.1045089e+70
-1.0764717e+70
-1.2161335e+70
-7.7336094e+69
-1.0127328e+70
-8.7519272e+69
-8.864596e+69
-1.2219871e+70
-1.2267942e+70
-1.1560242e+70
-1.1557147e+70
-7.6661633e+69
-9.0950691e+69
-9.4095271e+69
-1.1079121e+70
-7.2252691e+69
-1.1714206e+70
-1.1606823e+70
-1.2020838e+70
-1.1114694e+70
-1.0881491e+70
-4.5816264e+70
-1.6146836e+70
-7.9700167e+69
-1.0818172e+71
-1.3141429e+70
-2.371324e+70
-1.0315075e+70
-1.2187073e+70
-1.2102934e+70
-1.1588504e+70
-1.0906135e+70
-1.0997899e+70
-2.112256e+70
-1.7345025e+70
-1.754587e+70
-1.2132893e+70
-1.5863095e+70
-1.1720461e+70
-4.9072267e+70
-2.642998e+70
-1.321701e+70
-1.3845356e+70
-1.105751e+70
-1.1988577e+70
-1.1841754e+70
-1.1004563e+70
-1.6112886e+70
-3.0221511e+70
-1.3615466e+70
-2.1561296e+70
-1.7157425e+70
-1.334842e+70
-1.3054475e+70
-3.0324859e+70
-9.3768793e+69
-1.5051068e+70
-1.4331718e+70
-2.2866218e+70
-1.9964103e+70
-1.7569442e+70
-1.2685057e+70
-1.2513798e+70
-9.7244858e+69
-1.0672161e+70
-5.5467274e+69
-5.6711846e+69
-1.038754e+70
-1.015047e+70
-1.0417278e+70
-1.0416445e+70
-1.0135646e+70
-1.0187592e+70
-1.0184799e+70
-1.0186319e+70
-1.0182784e+70
-1.0190853e+70
-1.004515e+70
-1.0390006e+70
-1.042567e+70
-1.0224625e+70
-1.0045078e+70
-1.0004227e+70
-1.0002085e+70
-1.0443855e+70
-1.017086e+70
-1.0018742e+70
-9.8954585e+69
-1.0383018e+70
-1.0035584e+70
-1.0219256e+70
-9.897242e+69
-1.0219404e+70
-1.003829e+70
-9.8619604e+69
-1.0457432e+70
-1.0468946e+70
-1.0034202e+70
-9.8635982e+69
-1.0231044e+70
-1.0008466e+70
-9.870586e+69
-1.0029064e+70
-9.8639377e+69
-1.0692877e+70
-1.0716021e+70
-1.0781479e+70
-1.0734325e+70
-1.0726004e+70
-1.0644282e+70
-1.0711929e+70
-1.0822583e+70
-1.065504e+70
-1.0634772e+70
-1.0841739e+70
-1.070402e+70
-1.061485e+70
-1.0556961e+70
-1.0631807e+70
-1.0531427e+70
-1.0600393e+70