/*--------------------------------*- C++ -*----------------------------------*\
  =========                 |
  \\      /  F ield         | OpenFOAM: The Open Source CFD Toolbox
   \\    /   O peration     | Website:  https://openfoam.org
    \\  /    A nd           | Version:  7
     \\/     M anipulation  |
\*---------------------------------------------------------------------------*/
FoamFile
{
    version     2.0;
    format      ascii;
    class       volVectorField;
    location    "6000";
    object      UMean;
}
// * * * * * * * * * * * * * * * * * * * * * * * * * * * * * * * * * * * * * //

dimensions      [0 1 -1 0 0 0 0];

internalField   nonuniform List<vector> 
33730
(
(-7.3321378e+33 5.1041051e+32 -4.5068894e+32)
(-8.1968383e+33 1.178528e+33 1.0135416e+33)
(-1.0138622e+34 6.49637e+32 -3.2967171e+30)
(-7.2795286e+33 1.8982615e+33 -7.7137673e+30)
(-8.1790709e+33 -6.2814668e+31 -1.0103883e+33)
(-9.8354764e+33 -9.3096116e+32 3.2037979e+32)
(-8.1052616e+33 -1.4961555e+33 -2.5488951e+33)
(-3.7445544e+33 -2.0344654e+31 -2.4025207e+33)
(-7.6248124e+33 3.7686771e+32 -3.6325869e+32)
(-8.0935113e+33 1.0956777e+33 -5.5176331e+32)
(-7.5778199e+33 4.7281853e+32 -1.6535762e+33)
(-7.3949958e+33 9.3729745e+32 -1.4805788e+33)
(-6.2303985e+33 5.7133505e+32 1.4713709e+33)
(-1.0333633e+34 6.2571902e+32 9.6760961e+32)
(-1.1256835e+34 9.2770376e+32 -8.3421478e+32)
(-1.1000419e+34 3.5166237e+32 -1.8720984e+32)
(-1.0002425e+34 1.2414036e+33 5.7196223e+31)
(-7.1115134e+33 1.0291246e+33 8.8618901e+32)
(-1.5620362e+34 1.3221646e+33 7.8215791e+32)
(-1.0619017e+34 1.0109322e+33 1.0756485e+32)
(-7.3914347e+33 3.6418173e+32 -6.2209331e+32)
(-7.7888186e+33 3.509871e+32 -2.8840622e+32)
(-7.2912443e+33 1.9138624e+32 -5.3624979e+32)
(-7.7820934e+33 4.3259841e+32 -8.9017888e+32)
(-8.977699e+33 1.7202284e+33 -8.6410032e+31)
(-1.265811e+34 9.6158654e+32 -1.524013e+33)
(-7.7429808e+33 1.5799932e+33 -9.6503023e+31)
(-1.2487316e+34 2.3392497e+33 -3.0966174e+33)
(-8.0340128e+33 1.7738505e+33 -2.1523622e+33)
(-8.6425124e+33 5.2212573e+32 -1.5257514e+33)
(-5.288748e+33 2.6138163e+33 -1.4666525e+33)
(-3.1757783e+33 7.3914707e+32 -1.3888507e+33)
(-5.1613244e+33 7.7238274e+32 -1.5553575e+32)
(-5.3893508e+33 -1.2868075e+33 -1.2265076e+33)
(-2.4997194e+33 -3.3396267e+33 2.2754532e+33)
(-3.862864e+33 -1.4467875e+33 -4.005578e+33)
(-8.5169972e+33 -3.6457571e+32 -3.4883709e+33)
(2.7500759e+33 -1.2539458e+33 -9.6769901e+32)
(-8.1393808e+33 1.0565727e+33 -2.8612164e+33)
(-8.2410316e+33 1.041804e+33 -4.8432632e+32)
(-9.0539568e+33 9.24312e+32 -5.7678693e+32)
(-8.0284624e+33 7.3039984e+32 -1.7266321e+33)
(-8.2557376e+33 1.6234713e+33 -1.2436116e+33)
(-8.1096765e+33 9.4685413e+31 2.0461515e+33)
(-9.871986e+33 3.8623146e+32 6.3356243e+32)
(-1.2713974e+34 5.6738904e+32 2.1295386e+33)
(-1.1927929e+34 1.5287947e+33 1.0519775e+33)
(-1.1607758e+34 5.2720459e+32 1.9714296e+33)
(-5.6694798e+33 -9.4741835e+31 1.5904026e+33)
(-1.1475214e+34 1.749446e+33 2.3960231e+32)
(-1.0620948e+34 7.6908108e+32 9.0216388e+32)
(-2.8353107e+33 -2.8616423e+33 -3.5606256e+33)
(-1.1963433e+34 -1.0331847e+33 -1.2679091e+33)
(-9.1533209e+33 3.4137149e+32 -1.097884e+33)
(-1.0133006e+34 -1.7127247e+32 -1.0355254e+33)
(-6.6775091e+33 1.6858733e+33 3.8309824e+32)
(-1.5370997e+34 9.7901167e+31 -1.6009022e+33)
(-1.0157149e+34 1.6575845e+33 1.2315203e+33)
(-7.9579183e+33 5.6587291e+32 5.54176e+32)
(-1.8131786e+34 -1.5146834e+33 -1.3835808e+32)
(-1.1134714e+34 1.0144243e+33 8.6741243e+31)
(-8.3270013e+33 1.0420445e+33 4.8560379e+31)
(-6.379709e+33 6.0092229e+32 -2.0896181e+32)
(-6.6728296e+33 4.5779005e+32 -4.702442e+32)
(-8.2952709e+33 1.2156463e+33 -2.9030972e+32)
(-7.7410727e+33 8.2609302e+32 -4.7646717e+32)
(-7.8796968e+33 7.5924797e+32 -3.6920279e+32)
(-8.0484731e+33 6.6880783e+32 -4.2329639e+32)
(-8.5459118e+33 7.8657181e+32 -5.384542e+32)
(-8.0210418e+33 1.034873e+33 -8.6228062e+32)
(-1.528828e+34 1.1725627e+33 -6.0268319e+32)
(-7.5905287e+33 1.655387e+33 2.1053739e+31)
(-7.7355572e+33 1.1734881e+33 1.6089884e+32)
(-1.1877565e+34 1.0502547e+33 -3.1004098e+33)
(-7.5868674e+33 5.3564975e+32 -2.2702967e+33)
(-1.24784e+34 1.2327224e+33 -2.573613e+33)
(-6.3134452e+33 1.9265525e+33 -1.0964669e+33)
(-7.5700691e+33 2.343101e+33 -1.1806732e+33)
(-1.4974372e+33 5.3092292e+32 -1.0001223e+33)
(-7.1739003e+33 8.7856988e+32 -3.2881543e+32)
(-9.1506897e+33 4.7656616e+33 -2.9177979e+33)
(-5.761386e+33 3.5408117e+33 -3.2559201e+33)
(-3.8785654e+33 2.3967031e+33 -1.2754041e+33)
(-3.8048766e+33 1.1653421e+33 -3.145502e+33)
(-9.4076694e+33 2.6249086e+33 7.0455025e+32)
(-7.6488652e+33 7.6602501e+32 -1.1467707e+33)
(-6.8047096e+33 6.3698417e+32 -1.4745165e+33)
(-7.4596255e+33 5.1136148e+32 -3.124298e+32)
(-3.1684862e+33 -1.0496561e+33 1.5446441e+33)
(-4.2322516e+33 -7.8707745e+33 6.8749212e+33)
(-2.6581481e+33 -4.6714473e+32 -1.0105587e+33)
(-5.6084268e+33 3.8276342e+32 -4.2160092e+33)
(-1.0230694e+34 -4.3594773e+32 -4.8903505e+33)
(-9.0953842e+33 -2.1387709e+32 -1.9405142e+33)
(1.7278035e+33 6.2885149e+32 1.89179e+33)
(-1.1062345e+34 7.5198832e+32 -3.9782647e+33)
(-8.3656868e+33 9.7830726e+32 -3.4271706e+32)
(-8.3741142e+33 1.0021393e+33 -4.1847626e+32)
(-7.1687688e+33 7.1895269e+32 -1.3175658e+33)
(-6.4368913e+33 1.6005182e+33 -7.3171937e+32)
(-1.1080869e+34 2.7710683e+32 8.3678246e+32)
(-7.7142936e+33 -2.630943e+32 1.3073209e+33)
(-8.8119159e+33 3.3087155e+32 -3.3334487e+31)
(-7.9588002e+33 2.6251815e+32 1.0938404e+33)
(-1.0127755e+34 8.1461227e+32 1.373322e+33)
(-9.0657597e+33 1.0366472e+33 5.8578658e+31)
(-1.4364657e+34 -3.8960701e+32 2.9916385e+33)
(-1.672125e+34 -5.7741952e+32 4.4553749e+33)
(-1.2742454e+34 -3.5210948e+30 3.4678238e+33)
(-1.5747018e+34 -9.9050227e+31 3.6359013e+33)
(-9.8291169e+33 6.4426983e+32 7.5504574e+32)
(-8.5568341e+33 -2.9539888e+33 2.6138969e+33)
(-3.4161025e+33 5.8902353e+32 1.0273514e+33)
(-1.0689109e+34 2.4408904e+33 7.1551075e+32)
(-9.4627448e+33 2.6853136e+31 7.1505675e+32)
(-1.1847375e+34 -2.0543557e+32 1.9986175e+33)
(-1.032581e+34 7.3839107e+32 1.1150612e+33)
(-1.0494847e+34 -3.4170237e+32 1.2836006e+33)
(-5.8428252e+33 -5.2512036e+32 3.4406762e+32)
(-9.5935078e+33 -1.0287046e+33 5.4010968e+29)
(-1.0838307e+34 5.5665671e+32 5.8822617e+32)
(-4.8927655e+33 -4.4301788e+33 -5.1001925e+33)
(-6.8890919e+33 -4.1274606e+31 -9.862019e+32)
(-5.5275518e+33 4.0279155e+33 -1.3887697e+33)
(-9.0599577e+33 1.6312785e+33 -4.0411124e+32)
(-2.3541044e+33 1.2410243e+33 -1.6361636e+33)
(-4.0842656e+33 -2.2377697e+33 -3.9873145e+33)
(-1.8615796e+34 -2.3971698e+32 2.3114228e+32)
(-2.5774282e+33 2.7459458e+33 3.5451219e+32)
(-1.6222221e+34 7.6586992e+32 8.893194e+32)
(-5.8208122e+33 -1.9047852e+32 -6.1613971e+32)
(-1.0943737e+34 -2.927037e+32 -3.3740345e+32)
(-1.1725478e+34 -4.9187866e+32 2.9895546e+32)
(-2.753656e+34 -3.0834459e+33 7.6853396e+32)
(-1.1121146e+34 7.6736075e+32 -4.2901547e+32)
(-7.6450352e+33 7.3457917e+32 -7.9083602e+31)
(-7.8732422e+33 1.0175364e+33 -3.1106936e+32)
(-7.9402886e+33 1.0925322e+33 -2.0241563e+32)
(-7.5367431e+33 8.1499633e+32 3.8716146e+31)
(-7.5148893e+33 9.3121334e+32 -1.2391124e+32)
(-7.6985566e+33 6.6712459e+32 -2.7925357e+32)
(-7.4727629e+33 4.8002387e+32 -3.6481711e+32)
(-7.0356688e+33 8.7838335e+32 -2.2269199e+32)
(-7.7887903e+33 7.6218435e+32 -2.3572423e+32)
(-7.8486582e+33 6.6393117e+32 -2.794834e+32)
(-7.9825766e+33 5.2376491e+32 -3.0886454e+32)
(-7.9255848e+33 8.2106531e+32 -2.8923037e+32)
(-8.6056681e+33 1.3149959e+33 -1.5578374e+33)
(-1.4232698e+34 1.4603353e+33 -2.8758524e+33)
(-1.2141121e+34 -8.1704782e+31 -3.3295434e+33)
(-8.4324591e+33 1.5144528e+33 1.8120575e+32)
(-8.7326139e+33 1.6653371e+33 -9.5620584e+31)
(-7.4372282e+33 2.2476787e+33 -1.3796981e+33)
(-6.0397253e+33 2.1542577e+33 -1.0675773e+33)
(-1.3233613e+34 8.5741133e+32 -2.4730085e+33)
(-1.5337328e+34 -2.7451102e+32 -3.3448116e+33)
(-9.2961727e+33 -2.3686503e+32 -1.7527776e+33)
(-6.7765594e+33 8.1896289e+32 -2.1635213e+32)
(-7.0965233e+33 8.4003956e+32 -1.3094485e+32)
(-1.173073e+34 -8.7872238e+32 -3.4840499e+33)
(-8.682475e+33 1.1242254e+33 -4.2111049e+33)
(4.3947525e+33 2.670925e+33 -2.3748405e+33)
(-1.06383e+34 8.7180547e+32 -2.3380804e+33)
(-9.9142784e+33 2.9249185e+33 -3.7853812e+33)
(-6.5368787e+33 1.0973522e+33 -1.1484883e+33)
(-7.132317e+33 1.130281e+33 -1.0399654e+33)
(-9.9857942e+33 -2.9473074e+33 1.9274773e+33)
(-7.2281373e+33 1.0900153e+33 -2.7046674e+31)
(1.748171e+33 3.3046289e+33 -3.0684104e+33)
(-8.3205392e+33 4.1132916e+33 -4.2077664e+33)
(-7.2016541e+33 1.4925524e+33 -6.131876e+33)
(-2.3578724e+33 -9.2365058e+30 -4.3043065e+33)
(2.6112759e+33 2.4259376e+33 -5.9292004e+32)
(-1.2345862e+34 1.3677667e+33 -6.3657428e+33)
(-5.0242141e+33 5.7988542e+33 6.280194e+32)
(-5.2826273e+33 1.2541922e+33 -1.2159927e+33)
(-4.0690768e+33 9.2053448e+32 -1.1071761e+33)
(-7.8877855e+33 9.3277762e+32 -2.0285115e+32)
(-3.5852985e+33 -1.8829125e+33 1.2417205e+33)
(-4.7296266e+33 -5.9939885e+33 8.2970105e+33)
(-3.7274263e+33 -2.1629594e+32 -1.172509e+33)
(-9.1831778e+33 2.2401248e+33 -6.5030229e+33)
(-8.8619391e+33 -2.7016488e+33 -4.1862545e+33)
(-1.0832299e+34 -9.15354e+32 -3.7631651e+33)
(-6.599012e+33 9.7928987e+32 -4.1270764e+33)
(-6.384803e+33 2.9481201e+32 -1.8075816e+33)
(9.579042e+32 2.5912296e+32 2.0792148e+33)
(-8.511308e+33 1.1904192e+32 -3.623858e+33)
(-8.1502071e+33 9.0237578e+32 -3.2082226e+32)
(-7.8416268e+33 9.0399102e+32 -3.9778657e+32)
(-7.5305625e+33 4.7750186e+32 -1.0997819e+33)
(-8.6691465e+33 9.0076937e+32 -6.4614297e+32)
(1.7454025e+33 -7.4629004e+32 -2.622377e+33)
(-1.0583688e+34 1.2919297e+32 7.4859494e+32)
(-8.7851171e+33 6.445289e+32 7.0920128e+32)
(-7.7504826e+33 3.7261584e+32 3.2197597e+32)
(-8.0943194e+33 5.4406522e+32 4.2978613e+32)
(-8.1277032e+33 4.3402431e+32 3.7038888e+32)
(-6.7624105e+33 -1.7880066e+32 8.9319636e+32)
(-8.8275654e+33 -1.1129287e+32 2.3667456e+31)
(-6.8800428e+33 -1.8090547e+32 1.197615e+33)
(-6.7779545e+33 -2.7161444e+32 5.7456768e+32)
(-9.2797062e+33 3.891337e+32 1.2636469e+32)
(-1.5593183e+34 -4.3543551e+32 2.7411733e+33)
(-1.4932942e+34 -7.7725392e+32 3.2012691e+33)
(-1.3529896e+34 -5.4368538e+32 2.8871625e+33)
(-1.3064125e+34 4.019849e+32 2.5271142e+33)
(-8.810431e+33 6.3094313e+31 -7.7258566e+31)
(-7.9680644e+33 6.523419e+32 4.2420183e+32)
(-1.4726938e+34 9.5613392e+32 3.4894216e+33)
(-1.0728937e+34 6.8122831e+32 4.4301816e+32)
(-1.3143479e+34 8.7020066e+32 2.8866291e+33)
(-9.8146337e+33 7.7474636e+32 -4.3555837e+31)
(-5.8126115e+33 4.3768626e+32 3.2152899e+33)
(-1.0352614e+34 -5.5002504e+32 5.6125378e+33)
(-1.0326114e+34 -1.5949431e+33 4.006579e+33)
(-1.3460997e+34 -6.221979e+32 1.4688265e+33)
(-9.7531176e+33 6.4997842e+32 4.4621048e+32)
(-3.8197673e+33 -5.2325931e+33 3.3908102e+33)
(-8.5260025e+33 2.0331621e+33 8.2703729e+32)
(-3.5291826e+33 9.6252544e+32 -7.1858842e+32)
(-5.6554606e+33 4.5056347e+32 -1.3312834e+32)
(-5.4458832e+33 -1.2626479e+33 1.6803238e+33)
(-9.0415136e+33 1.1100622e+33 6.2810378e+32)
(-1.3413162e+34 -1.7234558e+33 6.3294543e+32)
(2.858616e+32 6.9678782e+31 -1.4226668e+33)
(-1.308589e+34 -1.8966509e+33 1.7222975e+33)
(-5.6049941e+33 3.2245638e+32 -2.1677815e+32)
(-7.2898818e+33 -2.9865306e+33 -5.5957752e+32)
(-6.697535e+33 -1.5513394e+33 -1.692568e+33)
(-1.2915482e+34 -5.113324e+32 -2.8831338e+33)
(-1.0705837e+34 5.9240078e+32 6.1432282e+32)
(-5.6981205e+33 -5.2653099e+33 -8.3089791e+33)
(-8.1202156e+33 -3.2385238e+33 -2.7060972e+33)
(-5.8829305e+33 3.756724e+33 -1.3324888e+33)
(-3.4268187e+33 -6.3326832e+33 -7.5894607e+33)
(-3.9734247e+33 2.2474389e+32 -1.7061345e+33)
(-1.2461823e+34 -2.92727e+33 -1.1888239e+33)
(-9.9364582e+33 -3.4966224e+33 -7.0210689e+33)
(-1.5065395e+34 1.6286768e+33 -4.3965676e+32)
(-4.8032927e+33 3.2252543e+32 -1.6067065e+33)
(-6.2679142e+33 9.916686e+32 -1.6245385e+32)
(-1.1791324e+34 -8.6517674e+32 6.2588072e+31)
(-7.8336449e+33 -5.4489486e+32 -3.658883e+33)
(-1.140183e+34 -9.797056e+32 -2.3787052e+33)
(-1.3014205e+34 -7.2962555e+32 -8.9275483e+32)
(-1.2056483e+34 1.9487322e+32 -4.7011138e+32)
(-4.0403732e+33 -1.2360592e+33 6.7470146e+32)
(-3.1974369e+34 -3.0884376e+33 5.8500842e+32)
(-1.1379993e+34 4.5072874e+32 6.275704e+32)
(-1.0968546e+34 7.844085e+32 -7.3843054e+32)
(-7.9605682e+33 7.1861023e+32 -4.7036838e+32)
(-8.304721e+33 1.0503806e+33 -6.9559009e+32)
(-8.0193454e+33 9.4056489e+32 -6.0244951e+32)
(-8.0718683e+33 7.8084466e+32 -1.5198457e+32)
(-6.9237488e+33 7.5353368e+32 -2.1291606e+32)
(-7.2184393e+33 9.8723807e+32 -2.5617862e+32)
(-6.7319705e+33 9.948433e+32 -2.203918e+32)
(-6.8357192e+33 8.8296437e+32 -1.527951e+32)
(-7.550888e+33 8.456727e+32 -1.712138e+32)
(-7.6444523e+33 6.7329315e+32 -2.3061782e+32)
(-8.4121975e+33 8.8511122e+32 -2.2386472e+32)
(-7.8211805e+33 1.1431833e+33 -2.0424049e+32)
(-7.9713411e+33 7.0846492e+32 -2.2565648e+32)
(-8.0282656e+33 6.4256253e+32 -2.4603554e+32)
(-8.300517e+33 6.5264115e+32 -2.7311842e+32)
(-7.9746056e+33 7.4908208e+32 -2.8075493e+32)
(-8.5390018e+33 1.6132908e+33 -1.1722643e+33)
(-1.4100147e+34 1.5428464e+33 -3.2589971e+33)
(-9.5110799e+33 1.014859e+33 -2.524732e+33)
(-1.5612489e+34 6.1476601e+32 -3.7112998e+33)
(-1.212564e+34 1.1625522e+33 -5.6013499e+33)
(-9.3010692e+33 1.5445023e+33 -2.8840137e+32)
(-9.9536764e+33 1.1500466e+33 -5.0715073e+32)
(-1.0256586e+34 1.1444418e+33 -9.3573857e+32)
(-8.8408253e+33 1.7325228e+33 -1.1871212e+33)
(-1.075727e+34 -1.3265926e+33 -2.0729636e+33)
(-6.850573e+33 -3.8205317e+33 -8.4835163e+32)
(-7.8436033e+33 1.4948588e+33 -1.636499e+32)
(-8.0141626e+33 2.1014338e+33 -1.4828939e+32)
(-7.0993709e+33 2.9278382e+33 -8.9466273e+32)
(-1.146784e+34 1.336492e+33 -3.7334756e+33)
(-6.257215e+33 2.4145989e+33 -7.5986359e+32)
(-9.1351696e+33 1.1364776e+33 -3.6021178e+33)
(-8.4390611e+33 6.2488581e+32 2.1841957e+32)
(-1.0135414e+34 -3.9756809e+32 -1.6882957e+33)
(-1.1236224e+34 -3.4677356e+33 -2.1113415e+33)
(-7.200937e+33 1.1160596e+33 -1.5859077e+32)
(-7.2271384e+33 1.0976283e+33 -1.1028371e+32)
(-6.831025e+33 -1.0424052e+33 -7.4698899e+33)
(-5.5577456e+33 -9.0008615e+32 -1.4821188e+33)
(-5.1642152e+33 3.9689591e+32 -6.7791388e+33)
(1.710149e+33 8.4867246e+32 -5.7963005e+32)
(-1.518357e+34 -6.0776751e+31 -1.5730767e+33)
(-1.1173864e+34 1.010085e+33 -3.8310351e+33)
(-7.5300497e+33 1.9944289e+33 -5.926445e+33)
(-4.7669659e+33 9.7188357e+32 -1.2147542e+33)
(-6.2114195e+33 1.0681584e+33 -9.9213304e+32)
(-1.2964365e+34 -8.627508e+32 2.0550508e+32)
(-7.7751935e+33 1.2638398e+33 -1.3263565e+32)
(8.9953424e+32 1.2864887e+33 -5.0957321e+33)
(-5.5485635e+32 2.8600719e+32 -5.2283399e+33)
(-9.8407569e+33 4.607759e+33 -3.0283604e+33)
(-6.273384e+33 1.7993653e+33 -6.2467949e+33)
(-4.7688135e+33 2.055687e+33 -5.4021643e+33)
(1.452416e+33 -1.7849784e+33 -7.1869229e+33)
(1.1850078e+33 3.3956239e+33 7.0995316e+32)
(-7.2648823e+33 1.4545262e+33 -5.9524122e+33)
(-6.4304943e+33 7.1930236e+33 1.3024398e+33)
(-5.2298954e+33 1.1782405e+33 -1.1368942e+33)
(-3.6315358e+33 7.2016759e+32 -1.2111624e+33)
(-7.2503042e+33 1.1763274e+33 -3.3363572e+32)
(-9.2441742e+33 2.4980469e+33 -3.8346667e+33)
(-1.1706663e+34 -4.4082361e+33 -2.4809214e+33)
(-1.0219863e+33 -3.4685591e+33 -3.2169e+33)
(-1.0495414e+34 -9.6066674e+32 -3.7646172e+33)
(-8.7737916e+33 1.3269344e+33 -2.1212334e+33)
(1.2680763e+33 2.4564705e+33 -2.2344292e+33)
(-1.1085411e+34 4.8715797e+32 -3.9720228e+33)
(-7.246849e+33 -7.4086032e+31 -3.3730381e+33)
(1.6980609e+33 -1.4334771e+33 -3.6166996e+33)
(-9.8792435e+32 -8.490675e+32 -2.7866036e+33)
(8.1481226e+31 -1.8403566e+33 -4.2393409e+33)
(-1.0103302e+34 1.8417559e+32 -4.4842347e+32)
(-9.8811409e+33 2.9831816e+32 7.6945065e+32)
(-7.504997e+33 1.0753501e+32 3.0196875e+32)
(-8.0541953e+33 3.886247e+31 6.5214836e+32)
(-8.3712004e+33 4.0337777e+32 7.0468027e+32)
(-7.5282867e+33 2.6750732e+32 3.4576164e+32)
(-9.3198959e+33 7.4970237e+32 2.953539e+32)
(-8.2206763e+33 3.3626545e+32 2.928381e+32)
(-8.0413968e+33 2.7853172e+32 1.4487127e+32)
(-8.1845816e+33 4.5461177e+32 3.3197134e+32)
(-7.5741504e+33 -9.8709263e+32 5.4755211e+32)
(-8.080294e+33 2.5265079e+32 -1.8318257e+32)
(-6.1763871e+33 8.5667145e+32 6.6815403e+32)
(-5.252465e+33 9.3437244e+32 7.0688255e+32)
(-8.0113731e+33 2.8020567e+32 5.1016427e+31)
(-1.1437132e+34 -2.9414413e+32 1.4670108e+33)
(-1.4642335e+34 -1.0762917e+33 2.4495893e+33)
(-1.1394907e+34 -2.813056e+33 2.2485934e+33)
(-1.4583706e+34 -2.3183833e+33 2.396374e+33)
(-9.0514042e+33 8.887219e+31 1.4703151e+32)
(-7.6551285e+33 2.8705686e+32 8.8719273e+32)
(-9.4616664e+33 -2.8460911e+32 4.0406263e+33)
(-7.5189294e+33 4.6111433e+32 5.6995886e+32)
(-1.2064777e+34 8.5700415e+32 2.107085e+33)
(-9.3591932e+33 2.2203218e+32 1.3942486e+32)
(-9.681596e+33 -3.4015483e+32 3.0858449e+33)
(-9.6197999e+33 -7.1545504e+31 4.8749875e+33)
(-7.6074466e+33 -2.4423924e+33 2.8420117e+33)
(-1.0920279e+34 1.8150182e+33 4.4172549e+33)
(-8.5425107e+33 1.3481527e+32 2.7773215e+31)
(-9.6579205e+33 5.9351375e+32 5.1706806e+33)
(-5.9376827e+33 9.403248e+32 8.0156766e+32)
(-7.2458918e+33 2.9434572e+33 4.6726715e+33)
(-9.3760949e+33 1.1044871e+33 7.2012436e+32)
(-1.0986474e+34 1.2111257e+33 4.3396539e+33)
(-1.3672223e+34 7.9972041e+32 1.1516935e+33)
(-9.1026252e+33 1.1302608e+33 5.0320117e+31)
(-2.8176692e+33 -3.392935e+32 4.1351938e+33)
(-8.8567548e+33 3.1151311e+32 7.3814103e+33)
(-1.4865297e+34 -2.0612604e+33 4.1144714e+33)
(-1.9756592e+34 2.0577269e+33 9.755805e+32)
(-9.7540708e+33 8.1558504e+32 4.598329e+32)
(-4.6774361e+33 -4.230838e+33 -2.4911556e+32)
(-8.252629e+33 3.5029589e+33 -2.1308665e+33)
(-5.7571361e+33 1.7287593e+32 -7.488848e+32)
(-9.2075848e+33 -2.6382407e+32 -2.745279e+33)
(-6.1878936e+33 -2.4485756e+33 1.9812349e+33)
(-1.053978e+34 -2.8239699e+33 6.2318852e+32)
(-1.6469798e+34 4.3828925e+33 -2.671691e+33)
(-8.8981201e+33 -8.9275308e+32 7.5706051e+32)
(-1.0048632e+33 1.0716561e+33 -7.2558888e+33)
(-7.1293003e+33 4.6211775e+32 2.4540611e+32)
(-8.7980671e+33 1.5533333e+32 -5.3195451e+32)
(-8.7007275e+33 -8.4680756e+32 -1.8531307e+33)
(-9.3934066e+33 -9.0589952e+32 -1.8628606e+33)
(-1.0343721e+34 -1.6489174e+33 -1.5086709e+33)
(-1.6152276e+33 -3.6605641e+33 -1.0162876e+32)
(-1.763272e+33 -1.4526218e+32 -3.0428223e+33)
(-1.3527935e+34 -1.0636041e+33 -2.3141418e+33)
(-1.080284e+34 8.7973424e+32 4.3081066e+32)
(-1.1898087e+34 -1.1455347e+33 -2.5095934e+33)
(-4.5615276e+33 -3.1781474e+33 -7.6085608e+33)
(-1.6264132e+34 -4.3209936e+33 -8.4097456e+32)
(-1.0176473e+34 -2.6956516e+33 -5.5300202e+33)
(-1.3199761e+34 3.8798551e+33 -2.4779799e+33)
(-3.9778115e+33 1.9382918e+33 -2.5144789e+33)
(-6.0403113e+33 1.2066246e+33 -5.7338329e+32)
(-1.1013136e+34 1.2385028e+32 -1.4388504e+33)
(-8.2363366e+33 2.3880906e+33 -1.1427689e+33)
(-5.9511422e+33 2.2161391e+33 -3.5793738e+33)
(-9.6465884e+33 -4.0751001e+32 -1.7512012e+33)
(-8.7881662e+33 -1.6829389e+33 -3.7791426e+32)
(-5.0153214e+32 -3.0818767e+33 -5.8464031e+33)
(-5.2841076e+33 -3.1779118e+33 -2.5595104e+33)
(-1.5913944e+33 -9.6024753e+32 -2.1533122e+33)
(-1.2359122e+34 -3.0528346e+33 -1.5010682e+33)
(-3.8399548e+33 -3.7298356e+33 1.3005175e+33)
(-1.1214653e+34 3.0847347e+32 4.3500694e+32)
(-8.090606e+33 2.1644694e+32 4.0559831e+31)
(-8.5919742e+33 3.8638311e+32 3.2407023e+32)
(-7.5242565e+33 4.4242401e+32 -1.1684054e+32)
(-7.535749e+33 3.8368766e+32 -2.2633721e+32)
(-1.1058104e+34 4.4990653e+32 -7.4279849e+32)
(-8.24181e+33 4.9431751e+32 -5.7252826e+32)
(-9.1141459e+33 8.2555052e+32 -8.0592642e+32)
(-8.811043e+33 9.2429736e+32 -7.5386151e+32)
(-8.118774e+33 5.3591854e+32 -4.971605e+32)
(-7.6810506e+33 8.6116417e+32 -2.9850318e+32)
(-7.8671315e+33 1.3405404e+33 -2.8699755e+32)
(-7.7469947e+33 1.1288184e+33 -3.362156e+32)
(-7.4257105e+33 6.4537617e+32 -3.0843688e+32)
(-8.0261984e+33 8.9906516e+32 -2.5936842e+32)
(-8.1038488e+33 1.1976403e+33 -1.9338679e+32)
(-7.4931876e+33 1.0690893e+33 -1.9608779e+32)
(-7.5435729e+33 9.0987372e+32 -2.1686013e+32)
(-7.967156e+33 9.0089434e+32 -1.4810898e+32)
(-7.9132296e+33 7.4018688e+32 -1.8997158e+32)
(-8.2819047e+33 9.5093575e+32 -2.036279e+32)
(-8.1443067e+33 1.2303294e+33 -1.9591286e+32)
(-6.6970039e+33 7.3046826e+32 -1.6718898e+33)
(-1.1955163e+34 1.3754429e+33 -4.5786943e+33)
(-1.5752759e+34 1.2144185e+33 -2.5027133e+33)
(-9.8083507e+33 8.3493173e+32 -4.6702358e+32)
(-9.6227571e+33 6.3642969e+32 -5.0431691e+32)
(-1.135447e+34 1.2373765e+33 -9.9943274e+32)
(-9.3574256e+33 8.2470646e+32 -4.7548074e+33)
(-9.834876e+33 1.4852568e+33 -1.2751751e+33)
(-9.4931572e+33 9.408992e+32 -6.8755607e+32)
(-6.2491151e+33 1.3373349e+33 -3.9110977e+33)
(-7.3102575e+33 1.3991976e+33 -2.4430459e+33)
(-6.1455016e+33 -9.5325578e+32 -2.6662875e+33)
(-1.2169451e+34 1.0131654e+33 -3.0833246e+33)
(-8.7737126e+33 8.9337742e+32 -4.7856545e+33)
(-1.4440986e+34 3.6756025e+32 -4.242365e+33)
(-9.2936236e+33 1.4191995e+33 -2.1322625e+32)
(-9.8824618e+33 8.6897576e+32 -7.3542053e+31)
(-9.2965703e+33 8.1489136e+32 -2.5750152e+32)
(-9.4797038e+33 2.1950793e+33 -6.0552521e+32)
(-1.9530012e+34 -3.5780722e+33 -4.2229728e+33)
(-5.6848965e+33 -4.2801524e+33 6.1651175e+32)
(-8.2062913e+33 1.6063767e+33 -1.0219921e+32)
(-8.4934019e+33 2.0687385e+33 -1.9926224e+32)
(-8.8895056e+33 2.7366216e+33 -4.1964385e+33)
(-6.9093691e+33 2.4950086e+33 -7.3227089e+32)
(-1.0482788e+34 2.7471532e+33 -2.0489596e+33)
(-7.3566415e+33 2.781665e+33 -4.3860078e+33)
(-5.6018975e+33 2.2366068e+33 -7.1720025e+32)
(-8.7708662e+33 -4.4764993e+31 -2.2798404e+33)
(-1.0521457e+34 3.9562947e+32 2.7895935e+33)
(-1.1215255e+34 2.755425e+33 -1.4591548e+33)
(-1.1996282e+34 -3.9370251e+33 -2.3095718e+33)
(-7.4839416e+33 9.6424299e+32 -1.9146234e+32)
(-7.3161224e+33 1.0492797e+33 -1.944058e+32)
(-1.4650964e+33 -7.6534163e+32 -9.7011736e+33)
(-1.3647666e+33 -2.322039e+33 -7.7334422e+33)
(-6.6926849e+33 -2.8456256e+33 -2.2095005e+33)
(-3.9269194e+33 3.2735729e+32 -6.9802088e+33)
(1.061364e+33 5.7283648e+32 2.8807874e+31)
(-1.7172463e+34 -8.8350066e+32 -1.20347e+33)
(-7.7164253e+33 1.2041243e+31 6.2744691e+32)
(-1.1239763e+34 -3.2714843e+32 -6.0514773e+33)
(-7.6182533e+33 2.0470448e+33 -5.7663344e+33)
(-5.4159072e+33 1.129606e+33 -1.1003012e+33)
(-6.4502837e+33 1.1898234e+33 -8.7374978e+32)
(4.6542967e+32 2.0000604e+33 -3.1730499e+33)
(-1.893528e+33 -3.3139666e+33 -2.6983071e+33)
(-1.2743416e+34 1.1457986e+33 -6.9472371e+33)
(-6.7051074e+33 1.9611975e+33 -6.0054846e+33)
(-1.4750068e+34 2.2445016e+33 -7.291325e+33)
(-2.005116e+33 1.122538e+33 -2.1859381e+33)
(9.1204091e+32 -4.1357661e+33 -8.2680473e+33)
(-4.7216139e+33 1.2680022e+33 -5.5021361e+33)
(-1.3359784e+34 -5.3895853e+33 -3.6356131e+33)
(-1.3995619e+33 1.8215678e+32 -2.5136084e+33)
(-4.3005703e+33 -3.4223408e+33 -4.5478108e+33)
(-1.4855367e+33 -1.9313954e+33 -1.1147376e+34)
(1.2679819e+33 -1.4470786e+33 1.1038639e+33)
(-9.1610785e+33 -6.4599602e+31 -5.2394768e+33)
(-3.4026574e+33 -9.4408561e+32 -2.7327695e+33)
(1.2500712e+33 -3.2789012e+33 -1.6584105e+33)
(-7.7457955e+33 -2.194931e+32 -3.6884442e+33)
(-9.3946564e+33 1.4081513e+32 -4.3709246e+32)
(-7.2446556e+33 5.1025734e+31 4.1443872e+31)
(-8.190974e+33 -6.6752979e+30 -3.0968613e+32)
(-7.0258052e+33 -4.2169762e+31 -1.2476907e+31)
(-8.2103401e+33 1.3636105e+32 -2.89607e+32)
(-1.0367382e+34 1.483736e+32 5.2334915e+32)
(-7.1435923e+33 3.3741332e+31 3.5973396e+32)
(-7.7807831e+33 1.2262447e+32 7.0036511e+32)
(-8.0574974e+33 -2.7590716e+30 8.6305194e+32)
(-7.3088522e+33 -6.8365604e+31 4.3374905e+32)
(-7.8372541e+33 -1.6186898e+30 3.2331322e+32)
(-8.1330293e+33 -1.3741256e+32 3.0926366e+32)
(-8.4923564e+33 3.9744154e+32 2.2715579e+32)
(-8.2235143e+33 2.9207621e+32 2.9486853e+32)
(-9.3898441e+33 9.2144391e+32 1.2743012e+32)
(-9.2337089e+33 4.7507747e+32 2.0897198e+32)
(-9.358581e+33 3.6519369e+32 1.1413968e+32)
(-8.9402688e+33 6.6766892e+32 1.6657484e+32)
(-7.7319179e+33 -1.0089488e+33 2.6621871e+31)
(-8.0151971e+33 -7.1103625e+32 -4.504391e+32)
(-6.5861873e+33 -9.4253727e+32 4.8689298e+32)
(-7.4486282e+33 -9.8746048e+32 8.1067181e+32)
(-8.436457e+33 2.233519e+30 -5.23186e+31)
(-1.4471916e+34 -2.0565691e+33 2.2536952e+33)
(-1.1430701e+34 -2.0769749e+33 2.8392274e+33)
(-1.5597943e+34 -2.2075231e+33 6.9796704e+32)
(-1.1824317e+34 -3.1439579e+33 2.257335e+33)
(-8.4658558e+33 1.5933656e+32 2.1865153e+32)
(-6.7640729e+33 9.8052043e+32 7.7546594e+32)
(-1.3480221e+34 1.2737833e+32 2.7698367e+33)
(-8.1445689e+33 8.1575575e+32 7.7787881e+32)
(-5.5933759e+33 -2.2738749e+32 2.6585829e+33)
(-8.71352e+33 7.0868392e+31 3.4329443e+32)
(-7.5177752e+33 -1.2767493e+33 -5.630146e+31)
(-1.1117955e+34 -1.1980721e+33 2.1165334e+33)
(-7.532329e+33 -2.7042111e+33 3.6115648e+33)
(-1.4792938e+34 -3.7639741e+33 2.1667012e+33)
(-9.206036e+33 2.3096164e+32 1.3571035e+32)
(-1.0819494e+34 8.2250163e+32 5.7406642e+33)
(-7.382363e+33 1.0378128e+32 6.4932103e+32)
(-7.6212252e+33 -2.5107243e+33 3.1216635e+33)
(-7.0876899e+33 5.2207742e+32 7.171326e+32)
(-1.0568375e+34 1.194868e+33 4.1526906e+33)
(-7.3741666e+33 9.3923524e+32 1.7110531e+33)
(-1.0075215e+34 3.3237339e+32 8.7425931e+31)
(-1.5563068e+34 -3.1366869e+33 5.3788919e+33)
(-1.3208012e+34 9.3323528e+31 6.03357e+33)
(-7.9749909e+33 -2.2823842e+33 3.8568778e+33)
(-1.2529837e+34 1.942359e+32 4.1962467e+33)
(-8.8641418e+33 3.2128016e+32 9.2007651e+31)
(-6.805588e+33 1.0476701e+33 4.8731411e+33)
(-9.0601171e+32 1.5568083e+33 4.0274247e+33)
(-6.0999028e+33 9.8771309e+32 7.8136462e+32)
(-9.2522715e+33 5.2554646e+32 8.1335944e+32)
(-8.9487269e+33 9.4348992e+32 6.5269859e+32)
(-9.0528271e+33 1.5150308e+33 4.6843518e+33)
(-6.9719495e+33 3.0466397e+33 3.7766319e+33)
(-4.3511572e+33 3.6438736e+32 -1.1113869e+33)
(-9.2054316e+33 1.1294273e+33 7.7970909e+31)
(-3.6078257e+33 8.0842081e+32 3.7932708e+33)
(-1.1720491e+34 2.0969899e+33 6.9677462e+33)
(-1.4730649e+34 -6.9520417e+31 3.9249513e+33)
(-2.1867654e+34 1.3128343e+33 9.6386039e+31)
(-9.9156431e+33 7.9678569e+32 3.7052731e+32)
(-9.2178044e+33 4.4700864e+33 -1.4063799e+33)
(-8.6958065e+33 -4.6087229e+32 -4.045528e+33)
(-1.315892e+34 -3.2210219e+33 -1.5033468e+33)
(-1.806967e+34 4.8017124e+33 -2.0626812e+33)
(-1.0262817e+34 7.3748083e+32 -2.5463209e+33)
(-5.979342e+32 2.639491e+32 -5.4027492e+33)
(-6.3094294e+33 6.5609223e+32 -2.0039971e+32)
(-9.4370705e+33 1.0984405e+33 9.818456e+31)
(-1.1801877e+34 -3.0988493e+32 2.322569e+33)
(-1.4946709e+34 1.1576205e+33 -2.0263714e+32)
(-1.1196758e+34 2.9806001e+32 -3.8145831e+32)
(3.8029262e+32 2.0649312e+32 -8.8192566e+32)
(6.1021979e+33 -2.7034099e+33 -4.2143366e+33)
(-1.2116101e+34 -2.0193648e+33 -3.4621199e+33)
(-2.9507765e+33 -2.1345851e+33 -2.4506449e+33)
(-7.7074704e+31 3.6504881e+33 4.1275031e+33)
(-1.6472369e+33 7.7310201e+32 -2.3678589e+33)
(-1.0959293e+34 5.8973756e+32 1.5540309e+32)
(-1.81347e+34 -3.7202944e+33 -1.0444948e+33)
(-1.3731282e+34 4.2438577e+33 -2.3084836e+33)
(-6.327873e+33 4.0621589e+32 -6.1020989e+32)
(-1.3996039e+34 3.2322743e+32 -1.5005024e+33)
(-1.2314544e+34 -4.8144406e+32 -1.4414266e+33)
(-1.116264e+34 -2.5225162e+32 -2.1245499e+32)
(-1.480379e+34 8.6790453e+32 -7.7522137e+32)
(-5.5938328e+33 -5.781775e+32 -2.2682209e+33)
(-1.0813264e+34 3.9732094e+33 -2.7300081e+33)
(-3.7098777e+33 2.0760798e+33 -4.6017327e+33)
(-4.3834017e+33 -2.4595752e+33 -2.3676474e+33)
(-1.208571e+34 -3.8725714e+33 2.9624398e+32)
(3.6318622e+31 -3.8835319e+33 -3.0376863e+33)
(-1.3337693e+34 -5.4687963e+33 1.2114954e+33)
(-1.1084723e+34 -4.1186702e+33 -2.3121762e+33)
(-1.4622721e+34 -2.5091856e+33 -2.130765e+33)
(-4.2866223e+33 -6.1762604e+33 1.5172757e+33)
(-1.2508915e+34 2.3594673e+32 9.5767905e+32)
(-1.1116129e+34 1.5044527e+32 3.1646984e+32)
(-8.0937988e+33 1.8639101e+32 -3.8092857e+31)
(-8.1043539e+33 5.1634266e+31 -7.4790804e+31)
(-7.8254612e+33 3.200091e+32 -2.9815337e+32)
(-7.8950637e+33 1.8158935e+32 -3.3909471e+32)
(-7.6643808e+33 3.3683513e+32 -1.4088527e+32)
(-8.7446419e+33 4.9287026e+32 -9.6115924e+31)
(-7.7441623e+33 6.6062478e+32 -2.8012136e+32)
(-7.6479416e+33 6.5912914e+32 -2.6345471e+32)
(-1.0371727e+34 1.8493529e+32 -8.9676572e+32)
(-7.8109143e+33 -3.6329436e+31 -6.6919602e+32)
(-9.0589351e+33 2.2693714e+32 -7.215352e+32)
(-9.2423051e+33 4.6034268e+32 -7.2165711e+32)
(-8.1044362e+33 1.0355572e+32 -5.8498421e+32)
(-8.3646984e+33 4.4545734e+32 -3.1631392e+32)
(-8.9417032e+33 7.0206341e+32 -2.6893918e+32)
(-8.4173842e+33 1.0993462e+33 -2.9837896e+32)
(-8.0493793e+33 7.1437286e+32 -3.070456e+32)
(-8.6252781e+33 9.7909291e+32 -2.7476917e+32)
(-9.0854539e+33 1.4774727e+33 -2.3908776e+32)
(-8.9949078e+33 1.3459591e+33 -2.2787606e+32)
(-8.6815581e+33 9.7370647e+32 -2.8924967e+32)
(-8.2885334e+33 8.9894736e+32 -2.2754694e+32)
(-8.4462404e+33 1.2427192e+33 -1.8071789e+32)
(-7.999937e+33 1.0849605e+33 -1.9503372e+32)
(-8.142366e+33 8.757058e+32 -1.9478032e+32)
(-4.5860078e+33 -4.7065645e+32 -1.0106815e+33)
(-1.3818006e+34 1.9407969e+33 -3.3723295e+33)
(-9.3119042e+33 4.270253e+32 -1.3071784e+32)
(-7.4783972e+33 -3.6288801e+32 -4.1722185e+32)
(-1.9183922e+34 1.9833392e+33 -4.7944733e+33)
(-1.1777041e+34 2.2239088e+33 -5.0620018e+33)
(-1.3612066e+34 2.1405523e+33 -2.4795795e+33)
(-9.3683928e+33 1.438229e+33 -1.0780638e+33)
(-7.1805324e+33 7.2972064e+32 -1.6447349e+33)
(-1.1743814e+34 -8.649798e+32 -3.2656519e+33)
(-1.3290804e+34 -8.7320592e+32 -3.26192e+33)
(-1.0338629e+34 -1.1113275e+33 -5.4102243e+33)
(-9.6280641e+33 3.4995259e+32 -8.3909284e+31)
(-8.9421676e+33 1.820142e+32 -1.3848941e+32)
(-1.6736872e+33 1.9755107e+32 -7.740742e+32)
(-3.9962843e+33 1.7758919e+33 -3.9091506e+33)
(-1.3346186e+34 2.5193569e+33 -4.7185167e+33)
(-7.8013631e+33 2.9035474e+32 -9.3185912e+32)
(-8.6954567e+33 -1.7586806e+32 -2.5422596e+32)
(-7.5432345e+33 2.7316492e+33 -4.9439479e+33)
(-5.6018785e+33 3.4983039e+33 -1.098031e+33)
(-1.1775328e+34 -5.0816325e+32 -2.3384914e+33)
(-1.3469173e+34 -1.0724873e+33 -4.4886461e+33)
(-1.2946248e+34 2.4244784e+33 -3.123339e+33)
(-4.6057713e+33 6.3091599e+32 -1.1837835e+32)
(-2.1379294e+34 -7.2526969e+32 -5.5515136e+33)
(-1.5641072e+34 6.3980825e+32 -2.7928111e+33)
(-9.7621669e+33 1.8022857e+33 -1.7420872e+32)
(-1.0365467e+34 1.1031903e+33 -1.4914209e+32)
(-8.6505339e+33 1.062115e+33 -3.7746142e+32)
(-8.930841e+33 2.0796271e+33 -5.7898397e+32)
(-2.0763696e+34 -2.2989188e+33 -1.3640566e+33)