/*--------------------------------*- C++ -*----------------------------------*\
  =========                 |
  \\      /  F ield         | OpenFOAM: The Open Source CFD Toolbox
   \\    /   O peration     | Website:  https://openfoam.org
    \\  /    A nd           | Version:  7
     \\/     M anipulation  |
\*---------------------------------------------------------------------------*/
FoamFile
{
    version     2.0;
    format      ascii;
    class       volScalarField;
    location    "10000";
    object      k;
}
// * * * * * * * * * * * * * * * * * * * * * * * * * * * * * * * * * * * * * //

dimensions      [0 2 -2 0 0 0 0];

internalField   nonuniform List<scalar> 
33943
(
1.5225936
1.5208952
1.5222634
1.5215422
1.5270396
1.520494
1.5224316
1.5234542
1.5217432
1.5215271
1.5233821
1.523153
1.5205824
1.5208248
1.5207611
1.5205385
1.5208218
1.5215686
1.5224788
1.5227018
1.5271772
1.5204639
1.5205422
1.5270363
1.5286634
1.5282818
1.5279899
1.5283656
1.5199965
1.5192608
1.5199163
1.520816
1.5211749
1.5223827
1.5219244
1.5225375
1.5228596
1.522187
1.5224416
1.5222837
1.5220645
1.5244875
1.5242667
1.5212075
1.5211799
1.521835
1.5218629
1.5211201
1.5210084
1.5216968
1.5215586
1.5206426
1.5204228
1.5206425
1.5204503
1.5206455
1.5206312
1.5203724
1.5203628
1.5273877
1.522057
1.5227358
1.5219037
1.5225588
1.520141
1.51994
1.520073
1.519865
1.5205199
1.5201697
1.5204539
1.5200936
1.521432
1.5212856
1.5215644
1.5215339
1.5233803
1.5272282
1.5235973
1.5289906
1.5286494
1.5283324
1.5286378
1.5203232
1.5203139
1.5203962
1.5203636
1.5282965
1.5274114
1.5272642
1.5279699
1.5301704
1.5299828
1.5300809
1.5304046
1.5192662
1.5193418
1.5208264
1.5209182
1.5186768
1.5186327
1.5203029
1.5203355
1.5191069
1.5204953
1.5208855
1.5194402
1.5207776
1.5207925
1.5209722
1.5209776
1.5208917
1.5212713
1.5213276
1.5210308
1.5224617
1.5219825
1.5226041
1.5224933
1.5225122
1.5227119
1.5228304
1.522885
1.5225079
1.5227615
1.521935
1.5221507
1.5229009
1.5222369
1.5222769
1.5252005
1.5214545
1.5215775
1.5224825
1.5223798
1.5213376
1.5221738
1.5213784
1.522238
1.5210055
1.5209958
1.5212403
1.5212332
1.5209861
1.5209788
1.5212134
1.5211993
1.5209585
1.5209504
1.521148
1.5211359
1.5209102
1.5208805
1.520978
1.5210459
1.520896
1.5209058
1.5204544
1.5204612
1.520832
1.5208923
1.5204786
1.5204822
1.5209279
1.5209378
1.5204439
1.520444
1.5204246
1.5209115
1.5209241
1.5204347
1.5274447
1.523469
1.52269
1.5225321
1.5294308
1.5289595
1.5286655
1.5290955
1.5236431
1.5210543
1.5210379
1.521213
1.5212344
1.521222
1.521568
1.5215435
1.5211977
1.5210081
1.5208406
1.5209749
1.5211344
1.521312
1.5214426
1.5211196
1.5209778
1.5201928
1.5200949
1.5201367
1.5201576
1.5200377
1.5200782
1.5200305
1.5199834
1.5201272
1.5200584
1.5200688
1.5201177
1.519998
1.5200073
1.5203489
1.520296
1.5202631
1.5203765
1.5202021
1.5202645
1.5202386
1.5202339
1.5202299
1.5203081
1.5203003
1.5202215
1.5201909
1.5201749
1.5201988
1.5201651
1.5210415
1.5210537
1.5208932
1.5209648
1.5211222
1.5217984
1.5211302
1.5210956
1.521107
1.5218457
1.5246459
1.5278737
1.5275523
1.5283045
1.5285976
1.5219584
1.5220825
1.5304938
1.5307468
1.5305709
1.5303141
1.5204745
1.5204752
1.5204538
1.5204667
1.5204949
1.520502
1.5204755
1.5204854
1.5281244
1.5265085
1.5266953
1.5282538
1.5302888
1.5301376
1.5303623
1.5305678
1.5178797
1.5185683
1.5220209
1.5186888
1.5187936
1.5203762
1.5201553
1.518781
1.5187791
1.5203949
1.5204133
1.5205842
1.5208366
1.5209738
1.5211328
1.5208904
1.5208671
1.5211577
1.5211053
1.5189762
1.5189231
1.5205371
1.520563
1.5192912
1.5206779
1.5210256
1.5196622
1.5208037
1.5207986
1.5209289
1.5209425
1.5209312
1.5208101
1.5208186
1.5209413
1.520976
1.5209598
1.5209663
1.5209646
1.5209875
1.5209668
1.5209875
1.5209652
1.5208873
1.5209079
1.5209888
1.5210187
1.5211896
1.5211585
1.5213054
1.5214404
1.5211817
1.5214951
1.5210767
1.5213461
1.5210146
1.5210475
1.5209834
1.5210048
1.5225295
1.5225188
1.5226592
1.5220467
1.5223082
1.5227923
1.5228566
1.5225256
1.5227344
1.5228946
1.522461
1.5225836
1.5226251
1.5224117
1.5227717
1.52278
1.5227567
1.5228103
1.5217353
1.521937
1.5223182
1.5225737
1.5227071
1.5220197
1.5227571
1.5220567
1.522899
1.522911
1.5228986
1.5229176
1.5228214
1.5221039
1.5228426
1.5221238
1.5228645
1.5221207
1.5222767
1.5234526
1.5211655
1.5215079
1.5211495
1.5214858
1.5212267
1.5216106
1.5212854
1.5216637
1.5210967
1.5210724
1.5213884
1.5213633
1.521115
1.5214168
1.5211075
1.5214075
1.5209408
1.5209318
1.5210141
1.5210111
1.5209281
1.5209255
1.5210063
1.5210028
1.520994
1.520921
1.5209201
1.5209929
1.5209178
1.5209171
1.520983
1.5209874
1.520908
1.520909
1.5209592
1.5209599
1.5209072
1.5209064
1.5209463
1.5209519
1.5208864
1.5208935
1.5208947
1.5208984
1.520897
1.5209372
1.5208255
1.5208469
1.5215008
1.52148
1.5205627
1.5205655
1.5214987
1.5215037
1.5205757
1.5205719
1.5205656
1.5212474
1.5213588
1.5205692
1.5214665
1.5214462
1.520582
1.520584
1.5215339
1.521571
1.5205776
1.5205831
1.5205841
1.5215951
1.5215806
1.5205825
1.5215564
1.52154
1.5205534
1.5205559
1.5215652
1.5215664
1.520565
1.5205688
1.5242174
1.5283457
1.5289561
1.5286001
1.5280297
1.5247675
1.5218582
1.5218182
1.5213492
1.5213786
1.5213542
1.5214879
1.5212222
1.5216055
1.5211482
1.5213697
1.5211276
1.5213931
1.5307216
1.5306187
1.5308667
1.5310064
1.5215999
1.5219664
1.5220758
1.5214712
1.520808
1.5208108
1.520856
1.5208524
1.520803
1.5207976
1.5208445
1.5208386
1.5209139
1.5208449
1.5208387
1.5209065
1.5208523
1.5208567
1.5209292
1.5209244
1.5209279
1.5209223
1.5209842
1.5209901
1.5211322
1.5209806
1.520987
1.521125
1.5211104
1.5209591
1.5209677
1.5210995
1.5209709
1.5209043
1.5209121
1.5209626
1.5206727
1.5207471
1.5208019
1.5207368
1.5206687
1.5207403
1.5207109
1.520629
1.5208119
1.5207665
1.5207731
1.5208053
1.5208763
1.5208069
1.5208141
1.520869
1.5207789
1.5208472
1.5209652
1.5209032
1.5209178
1.5209274
1.521055
1.5210447
1.5209285
1.5208767
1.5208684
1.5209201
1.5208455
1.5208057
1.5207365
1.5207841
1.5205724
1.5205389
1.5206104
1.5205723
1.5205557
1.5205805
1.5205278
1.5205515
1.5205525
1.5205278
1.5205904
1.5205633
1.5205778
1.52054
1.520602
1.5205623
1.5204957
1.5204907
1.5205212
1.5205151
1.5205014
1.5204951
1.5205356
1.5205292
1.5204176
1.5204459
1.5203512
1.5203718
1.520401
1.5204254
1.5203476
1.520324
1.5206126
1.5206195
1.5205679
1.5205734
1.5205578
1.5205271
1.5205586
1.5205914
1.5205597
1.5205998
1.5205668
1.5205809
1.5206129
1.5205383
1.5205672
1.5204957
1.5204888
1.5205326
1.5205234
1.520543
1.5205322
1.5204947
1.5205091
1.5204661
1.5204768
1.5205611
1.5205383
1.5204945
1.5205111
1.5205344
1.5205526
1.5204835
1.5204981
1.5205215
1.5205063
1.5204836
1.5204931
1.5205782
1.5205358
1.5206012
1.5205566
1.5205933
1.5205633
1.52052
1.5205437
1.5205732
1.5205367
1.5206081
1.5205663
1.5205648
1.520586
1.5205156
1.5205338
1.5205541
1.5205569
1.5204928
1.5204949
1.5205051
1.5205069
1.5204643
1.5204653
1.5204824
1.5205001
1.5204441
1.5204575
1.520529
1.5205509
1.5204703
1.520488
1.5205651
1.5205911
1.5205084
1.5205305
1.5206092
1.5205603
1.5206146
1.5205647
1.5205922
1.5205964
1.5205334
1.5205365
1.52058
1.5205331
1.5206092
1.520559
1.5209212
1.5209165
1.5209278
1.5209268
1.5208291
1.5208097
1.5208738
1.5208704
1.5209672
1.5209644
1.5212489
1.5212286
1.5209748
1.5209709
1.5209508
1.5209475
1.5209565
1.5209551
1.5212728
1.5212634
1.5231449
1.526289
1.5263579
1.5280461
1.5280138
1.5213533
1.5213328
1.5214462
1.5215078
1.5306244
1.5308553
1.5307245
1.5304444
1.5206118
1.5206178
1.5206164
1.5206197
1.5205907
1.5205883
1.5206012
1.5206039
1.5205876
1.5205922
1.5206091
1.5206104
1.5205913
1.5205948
1.5206032
1.5206052
1.5281283
1.5263669
1.5265311
1.5281931
1.5303556
1.5302171
1.5305173
1.530686
1.5179956
1.5180027
1.5179198
1.5184668
1.5224343
1.5221477
1.5190628
1.5189546
1.5190959
1.5206042
1.5203752
1.5190879
1.5190804
1.5206256
1.5206477
1.5193158
1.5205512
1.5206716
1.5208441
1.5206464
1.5208406
1.5208575
1.5209967
1.5210215
1.5209708
1.5200382
1.5209819
1.52077
1.5211076
1.5211187
1.5210905
1.5211548
1.5211703
1.5209023
1.5209054
1.5210706
1.5210656
1.5208891
1.5208801
1.5210286
1.5210574
1.5211579
1.5211857
1.5211621
1.5211849
1.5211466
1.5210955
1.5210952
1.5211649
1.5189626
1.5189202
1.5207183
1.5209051
1.5208994
1.5207341
1.5209047
1.5209127
1.5192846
1.5208255
1.5209673
1.5209901
1.5211332
1.5212002
1.521373
1.5195814
1.520959
1.5209738
1.5209589
1.5209681
1.5209797
1.5209859
1.5209946
1.520985
1.5209763
1.5209764
1.5209362
1.5209356
1.5209815
1.5209379
1.5209923
1.5209438
1.5209732
1.520973
1.5209795
1.5209797
1.5210025
1.5209912
1.5210198
1.5209998
1.5209768
1.5209756
1.520986
1.5209835
1.5210211
1.5209965
1.5209751
1.5209508
1.5209842
1.5209809
1.520943
1.5209394
1.5210128
1.5210389
1.5211899
1.5214315
1.5211333
1.5211586
1.5211814
1.5211714
1.5213216
1.5215197
1.5213663
1.5215841
1.5211082
1.521156
1.52104
1.5209947
1.5216106
1.5211553
1.5214047
1.5212967
1.5210204
1.5210218
1.5210278
1.5210241
1.5210425
1.521054
1.5210413
1.5210595
1.5210137
1.5210205
1.5209518
1.5209561
1.5210317
1.5210523
1.5209623
1.5209748
1.5226546
1.5225296
1.5225888
1.5225437
1.5227049
1.522852
1.5228325
1.5228715
1.5225683
1.5224932
1.5226134
1.522462
1.5226253
1.5224354
1.5227333
1.522716
1.5227627
1.5227913
1.5227725
1.5228056
1.5228937
1.5228847
1.5229054
1.52292
1.5229021
1.522919
1.5226272
1.522629
1.5226472
1.5226677
1.5224392
1.5223799
1.5223292
1.5224502
1.5227731
1.522781
1.5227889
1.5227743
1.5228166
1.5228119
1.5228189
1.5228291
1.5217434
1.5220771
1.5222947
1.5219214
1.5220321
1.5224349
1.5225228
1.5220923
1.5224565
1.5222947
1.5224535
1.5222559
1.52268
1.5226287
1.5226831
1.522618
1.5227749
1.5227942
1.5227666
1.5227907
1.5221119
1.5225729
1.5226025
1.5221367
1.5228164
1.52282
1.5228356
1.5228331
1.5226076
1.5226488
1.5221669
1.5221358
1.5229017
1.5228974
1.5228926
1.522901
1.52292
1.5229178
1.522915
1.5229198
1.5229009
1.5228898
1.5228769
1.5228901
1.5221852
1.5226703
1.5226929
1.5222214
1.5229195
1.522914
1.5229014
1.5229086
1.5227256
1.5227035
1.522238
1.5222463
1.5229434
1.5229363
1.5229242
1.5229319
1.5222095
1.5227083
1.5227225
1.5222282
1.5217386
1.5218483
1.5225922
1.5224521
1.52118
1.5210642
1.5210615
1.5211759
1.5210547
1.5210497
1.5211549
1.5211642
1.5211004
1.5210956
1.5212604
1.5212478
1.5211309
1.5211302
1.5213371
1.521319
1.5210241
1.5210197
1.5210989
1.5210955
1.5210054
1.5209818
1.5210853
1.5210731
1.5210338
1.5210346
1.5211167
1.5211148
1.5210327
1.5211095
1.5210286
1.5211042
1.5209248
1.5209357
1.5209353
1.5209339
1.5209121
1.520917
1.5209307
1.5209292
1.5209088
1.5209108
1.5209272
1.5209272
1.5209058
1.5209072
1.520926
1.5209244
1.5209047
1.5209043
1.5209193
1.520919
1.520904
1.520905
1.5209187
1.5209172
1.5209048
1.5209042
1.5209147
1.5209145
1.5209084
1.5209071
1.5209137
1.5209113
1.5209117
1.5209086
1.5208978
1.5208976
1.5209151
1.5209146
1.5208977
1.5208967
1.5209187
1.5209158
1.5208934
1.5208933
1.5209245
1.5209222
1.5208915
1.5208878
1.5209302
1.5209209
1.5208569
1.5208569
1.520958
1.5209436
1.5208561
1.5208535
1.5209811
1.520825
1.5210361
1.5208274
1.5211143
1.5211984
1.5208202
1.5208032
1.5215656
1.5215458
1.5215758
1.521565
1.5213058
1.521412
1.5215235
1.5215119
1.521604
1.5216357
1.5216628
1.5216404
1.5216327
1.5216189
1.5216356
1.5216434
1.5228445
1.5229786
1.5261931
1.527911
1.5279659
1.5262474
1.5228736
1.5232179
1.521076
1.5210832
1.521276
1.5212676
1.5210486
1.521064
1.5212353
1.5212538
1.5210673
1.5209908
1.5210533
1.5209781
1.5210856
1.521
1.5210061
1.5210787
1.5210413
1.5211036
1.5209643
1.5210372
1.5209487
1.5209621
1.5210655
1.5210513
1.5209441
1.5209566
1.5208914
1.5208794
1.5210386
1.5211075
1.521207
1.521147
1.5208352
1.5208397
1.5209019
1.5208973
1.5208876
1.520896
1.520979
1.52099
1.5208302
1.520883
1.5208897
1.5208255
1.521004
1.5209031
1.5209983
1.5209081
1.531223
1.5309167
1.5310902
1.5307991
1.5307274
1.5307064
1.5310115
1.5311271
1.5212416
1.521209
1.5211449
1.5212973
1.5211335
1.5211505
1.5213558
1.5213372
1.5212991
1.5212376
1.5215014
1.5214477
1.5210502
1.5210656
1.5211525
1.5211372
1.5207941
1.5207931
1.5207758
1.520777
1.5207991
1.5207957
1.5207778
1.5207804
1.5208093
1.5208266
1.5208049
1.520822
1.520803
1.5208197
1.5208018
1.5208183
1.5207907
1.5207907
1.5207741
1.5207741
1.5207863
1.5207878
1.5207711
1.5207699
1.5207995
1.5208151
1.5207993
1.5208147
1.5207951
1.5208107
1.5207967
1.5208117
1.5208341
1.5208525
1.5208337
1.5208522
1.5208209
1.5208205
1.5208297
1.5208302
1.5208165
1.5208176
1.5208256
1.5208264
1.5208297
1.5208306
1.5208481
1.5208482
1.5208254
1.5208353
1.520834
1.520824
1.5208334
1.5208434
1.5208281
1.5208384
1.5208477
1.5208671
1.5208623
1.5208423
1.5208391
1.520859
1.5208379
1.5208575
1.5208692
1.5208825
1.5208642
1.5208782
1.5208609
1.5208747
1.5208593
1.520873
1.5208751
1.5208993
1.5208734
1.5208972
1.520883
1.5209067
1.5208785
1.5209027
1.5209227
1.5209769
1.5209191
1.5209733
1.5208984
1.5209171
1.5208962
1.520915
1.5209057
1.5209243
1.5209016
1.5209208
1.5209156
1.5209694
1.5209134
1.5209666
1.5209064
1.5209583
1.5209056
1.5209571
1.5208857
1.5208845
1.5209026
1.5209009
1.5208902
1.5209077
1.5208897
1.520907
1.5209015
1.5209525
1.5208995
1.5209496
1.5208684
1.5208908
1.520868
1.5208903
1.5208504
1.5208629
1.5208506
1.5208627
1.5208547
1.5208676
1.5208544
1.5208672
1.5208639
1.5208636
1.5208861
1.520885
1.5207621
1.5207704
1.5207594
1.5207686
1.5207872
1.5207896
1.5207893
1.5207916
1.5207979
1.5208061
1.5208
1.5208078
1.5207717
1.5207758
1.5207824
1.5207851
1.5207412
1.5207465
1.5207417
1.520752
1.5207681
1.5207762
1.5207703
1.5207784
1.5207527
1.5207548
1.5207358
1.5207372
1.5207189
1.5207126
1.5206798
1.5207002
1.520788
1.5208015
1.5207892
1.5208027
1.5207741
1.5207757
1.5207585
1.5207571
1.5207773
1.5207783
1.5207613
1.5207605
1.5207854
1.5207988
1.5207873
1.5208003
1.5208216
1.5208368
1.520823
1.520838
1.5208065
1.5208134
1.520808
1.5208146
1.5208087
1.5208162
1.5208101
1.5208175
1.5208191
1.5208339
1.5208203
1.5208344
1.5207986
1.5207966
1.5207966
1.5207911
1.5208322
1.520832
1.5208377
1.5208368
1.5208389
1.5208731
1.5208373
1.5208707
1.5207989
1.520828
1.5207887
1.5208146
1.5208671
1.5208654
1.5208794
1.5208772
1.5208709
1.5208845
1.5208714
1.5208846
1.5208842
1.5209286
1.5208841
1.520928
1.5208792
1.5208763
1.5209222
1.5209184
1.5208524
1.5208704
1.5208534
1.520871
1.5208403
1.5208415
1.5208504
1.5208514
1.5208376
1.520838
1.520847
1.5208468
1.5208492
1.5208488
1.5208664
1.5208652
1.5208207
1.5208217
1.5208296
1.52083
1.5208123
1.5208138
1.5208163
1.5208175
1.5207945
1.5207851
1.5207834
1.5207901
1.5207904
1.5207957
1.5207944
1.5207958
1.5209042
1.5209322
1.5208786
1.5209611
1.5208954
1.520837
1.5208604
1.5209225
1.5210477
1.5209829
1.5210294
1.5209661
1.5209857
1.5209168
1.5210023
1.5209319
1.5211733
1.5210743
1.5210804
1.5211786
1.5212101
1.5211928
1.5210949
1.5211128
1.5210108
1.5210967
1.5210054
1.5211028
1.5211362
1.5210447
1.5211179
1.5210268
1.5209988
1.521054
1.5209732
1.5210805
1.5209899
1.5209156
1.5209421
1.5210188
1.5210937
1.5211682
1.5210751
1.5211862
1.5210958
1.5210095
1.5211149
1.5210278
1.5210265
1.5209595
1.5209639
1.5210315
1.5209092
1.5209846
1.5209809
1.5209118
1.5210484
1.5210665
1.5209818
1.5209987
1.5209314
1.5210204
1.5209466
1.5210037
1.5214455
1.5214486
1.5212761
1.5212804
1.5212977
1.5211535
1.5211583
1.521293
1.5214625
1.5214714
1.5213079
1.5212947
1.5213119
1.521326
1.5211726
1.521189
1.5211645
1.5212904
1.5211475
1.5213053
1.5211577
1.5210406
1.5210627
1.521179
1.5212821
1.5214294
1.5212685
1.5214391
1.5212833
1.5211505
1.521298
1.5211672
1.521465
1.5214718
1.521287
1.5212984
1.5214218
1.5214305
1.5216204
1.521622
1.5214658
1.5216152
1.5216436
1.5216441
1.5214359
1.5214383
1.5214519
1.5214598
1.5216576
1.5216583
1.5216488
1.5216352
1.5210945
1.5210269
1.5210286
1.5210976
1.521117
1.5211055
1.5210355
1.5210462
1.5209751
1.5210508
1.5209751
1.5210516
1.5210693
1.5209908
1.5210601
1.5209823
1.5212174
1.5211137
1.5211208
1.5212237
1.5210488
1.5211391
1.5210428
1.5211458
1.5211889
1.5210905
1.5211673
1.5210699
1.5211428
1.5212345
1.5211378
1.5212404
1.5211624
1.5210707
1.5210744
1.5211673
1.5211648
1.5212516
1.5211508
1.5212646
1.521176
1.521081
1.5211891
1.5210939
1.521067
1.5209963
1.5210007
1.5210721
1.5210938
1.5210224
1.5211141
1.5210411
1.5209461
1.5210209
1.5209436
1.5210241
1.5210645
1.5210465
1.5209681
1.5209846
1.5214964
1.5215007
1.5213212
1.5213271
1.5213465
1.521195
1.521201
1.5213405
1.5213374
1.521497
1.5213331
1.5215006
1.5213507
1.5212133
1.5212183
1.5213559
1.5213654
1.5215239
1.5213541
1.5215311
1.5213726
1.5212298
1.5213836
1.5212429
1.5206
1.520635
1.5205993
1.5206359
1.5206506
1.5206137
1.5206196
1.5206579
1.5205997
1.5205724
1.5206013
1.5205748
1.5205848
1.5205874
1.520614
1.5206194
1.5207053
1.5207408
1.5206982
1.5207495
1.5207059
1.5206942
1.5206596
1.5206678
1.5206684
1.5206613
1.5206215
1.5206259
1.5206507
1.5206563
1.5206978
1.5207046
1.5206863
1.5207301
1.5206849
1.5207321
1.5207492
1.5207027
1.5207113
1.5207593
1.520685
1.5206355
1.5206862
1.5206363
1.5206512
1.5206585
1.5207026
1.5207111
1.5206205
1.5206498
1.5206164
1.5206553
1.5206262
1.5206227
1.5205944
1.5205964
1.5205727
1.5205975
1.520596
1.5205749
1.5205911
1.5205927
1.5206165
1.5206201
1.5208739
1.5209268
1.5208717
1.5209291
1.5208883
1.5208271
1.520829
1.5208906
1.5209083
1.5209494
1.5208943
1.5209646
1.5209113
1.520849
1.5208617
1.5209254
1.5208584
1.5208081
1.5208466
1.520798
1.5207991
1.5207791
1.5207383
1.520755
1.520759
1.5207418
1.5206928
1.5207055
1.5207421
1.5207506
1.5208022
1.5208117
1.5208753
1.5208506
1.5208067
1.5208279
1.520842
1.5208195
1.5207701
1.520789
1.5208934
1.5209325
1.5208801
1.5209475
1.5208362
1.5208949
1.5209081
1.5208482
1.5207902
1.5208392
1.5207881
1.5208413
1.5208614
1.5208097
1.5208203
1.520874
1.5207933
1.5207307
1.5207959
1.5207327
1.5207503
1.5207599
1.5208153
1.5208255
1.5207822
1.5207296
1.5207304
1.5207839
1.5207875
1.5207334
1.5207349
1.5207891
1.5207293
1.5206709
1.5206713
1.5207302
1.520733
1.5206737
1.5206748
1.5207339
1.5206702
1.5206282
1.5206286
1.5206708
1.5206732
1.5206305
1.5206311
1.5206738
1.5206284
1.5205926
1.5205956
1.5206298
1.5206316
1.5205976
1.5205955
1.5206312
1.5206434
1.5206025
1.5206021
1.5206431
1.5206676
1.5206591
1.5206175
1.5206247
1.520603
1.5205687
1.5205698
1.5206031
1.5206242
1.5206176
1.520582
1.5205857
1.5207519
1.5207003
1.5207006
1.5207528
1.5207811
1.5207705
1.5207181
1.5207276
1.5207004
1.5206437
1.5206436
1.5207005
1.5207273
1.5207178
1.5206598
1.5206682
1.5208719
1.520816
1.5208173
1.5208729
1.5209061
1.5208937
1.5208373
1.5208482
1.5208231
1.5207525
1.5207533
1.5208245
1.5208541
1.5208441
1.5207719
1.5207819
1.520995
1.5209948
1.5209369
1.5209366
1.5209558
1.5209557
1.5208893
1.5208892
1.5210028
1.5209432
1.5209499
1.5210102
1.5208951
1.5209001
1.5209629
1.5209684
1.5209035
1.5208478
1.5208484
1.5209038
1.52091
1.5208537
1.5208567
1.5209141
1.5208548
1.5207834
1.5207843
1.5208563
1.520862
1.5207887
1.5207904
1.5208634
1.520964
1.5209046
1.5209655
1.520906
1.5209249
1.5209241
1.5208576
1.5208585
1.521004
1.5209429
1.520988
1.5209285
1.5208798
1.5209475
1.5209615
1.5208926
1.5208847
1.5208846
1.5208835
1.52088
1.5208883
1.520888
1.5208885
1.5208878
1.5208229
1.5208264
1.5208243
1.5208072
1.5208514
1.5208513
1.5208514
1.5208491
1.5209147
1.5209152
1.5209137
1.5209124
1.5210481
1.5210449
1.5210362
1.5210246
1.5209228
1.5209211
1.5209181
1.5209167
1.5209035
1.520903
1.5209007
1.5209026
1.5209076
1.5209071
1.520907
1.5209058
1.5210617
1.5210639
1.5210579
1.5210535
1.5222787
1.5224353
1.5261282
1.5262291
1.5280168
1.5279307
1.5211216
1.521117
1.5211063
1.5210982
1.5211956
1.5211831
1.5212713
1.5212506
1.5305847
1.5309309
1.5308132
1.5304697
1.5280177
1.5262132
1.5263862
1.5281255
1.5180539
1.5180414
1.5178413
1.5193257
1.5192787
1.5182744
1.5195533
1.5198795
1.5191273
1.5189514
1.5190819
1.5207769
1.5209367
1.5209551
1.5205485
1.5207579
1.5206351
1.5190817
1.519074
1.5208031
1.5209932
1.5209796
1.5208262
1.5210021
1.5210075
1.5191638
1.5193598
1.5195341
1.5191666
1.5207037
1.5208856
1.52103
1.5210547
1.5209854
1.5209609
1.52103
1.5210681
1.5191871
1.5196862
1.5199603
1.5203847
1.5208213
1.5209427
1.5209835
1.5210548
1.5208139
1.5207282
1.5207691
1.5209112
1.5210791
1.5211202
1.521097
1.5211215
1.5211161
1.5211263
1.5211856
1.5211708
1.5210982
1.5210903
1.5211442
1.5211564
1.5211765
1.5211897
1.5211404
1.5211478
1.5212022
1.5212183
1.521152
1.5211603
1.5211062
1.5211004
1.5210643
1.5210945
1.5212141
1.5211655
1.5211616
1.5212197
1.5212459
1.5212407
1.5211688
1.5211732
1.5211687
1.5211686
1.5212218
1.5212197
1.5212442
1.5212475
1.5211737
1.5211706
1.521158
1.5211542
1.5212021
1.5212106
1.5211239
1.5210961
1.5211161
1.5211698
1.5211839
1.5211145
1.5211086
1.521045
1.5212349
1.5211617
1.5212217
1.5211474
1.5208955
1.5209012
1.5208678
1.520974
1.5209655
1.5209076
1.5209012
1.5208751
1.5209664
1.5209741
1.5209824
1.5209651
1.5209454
1.521021
1.5210402
1.5213433
1.5211968
1.5212263
1.5212132
1.5213972
1.5209581
1.5209585
1.5209882
1.5209865
1.5209884
1.5209864
1.5209684
1.5209742
1.5210142
1.5210007
1.52102
1.5210022
1.5209587
1.5209586
1.520984
1.5209839
1.5209825
1.5209826
1.5209693
1.5209647
1.5209965
1.5209891
1.5209876
1.5209963
1.5209954
1.5209936
1.5209986
1.5209997
1.5209853
1.5209868
1.5209878
1.5209871
1.5209783
1.5209813
1.5209814
1.5209782
1.5209778
1.5209802
1.5209815
1.5209787
1.5209242
1.5209586
1.5209584
1.520925
1.5209246
1.5209584
1.5209586
1.5209246
1.5209844
1.5209863
1.5209832
1.5209811
1.5209274
1.5209637
1.520963
1.5209272
1.5209893
1.5209924
1.5209998
1.5209976
1.5209304
1.5209677
1.5209754
1.5209352
1.5209823
1.520983
1.5209828
1.520982
1.5209812
1.5209824
1.5209829
1.5209822
1.5210281
1.5210342
1.5210223
1.5210228
1.5210026
1.5210047
1.5210058
1.5210018
1.5209895
1.5209902
1.5209909
1.5209894
1.520987
1.5209875
1.5209874
1.5209863
1.5210363
1.5210372
1.5210224
1.5210179
1.5210029
1.5210059
1.5210008
1.5209961
1.5209776
1.5210171
1.5209919
1.5209552
1.5209712
1.5209828
1.5209443
1.5209347
1.5209882
1.5209909
1.5209888
1.5209855
1.520984
1.5209869
1.5209854
1.520982
1.5209342
1.5209708
1.5209639
1.5209291
1.5209616
1.5209628
1.5209272
1.520926
1.5210148
1.5210122
1.5210358
1.5210311
1.5210319
1.5210266
1.5210405
1.5210313
1.5210493
1.521063
1.5210451
1.5210604
1.5212002
1.5211843
1.5211592
1.5211855
1.5211411
1.5211711
1.5214591
1.5213571
1.5213276
1.5215143
1.5213163
1.5215415
1.5211129
1.5211265
1.5211201
1.5211302
1.5211429
1.5211568
1.5211677
1.5211628
1.521258
1.5212853
1.5213076
1.5213008
1.5215123
1.5216003
1.5216494
1.5214848
1.521094
1.5211044
1.5211144
1.5211064
1.5211596
1.5211349
1.521157
1.5211264
1.5210913
1.5210203
1.5210594
1.5211304
1.5209777
1.5210489
1.5210689
1.5209957
1.5214722
1.5216787
1.5214726
1.5217167
1.5212014
1.5212964
1.5212299
1.521123
1.5216983
1.5214597
1.5213771
1.5215564
1.5212988
1.5212436
1.521304
1.5212327
1.5210206
1.521024
1.521025
1.5210228
1.5210268
1.5210299
1.5210311
1.5210294
1.5210372
1.5210415
1.5210424
1.5210394
1.5210559
1.521062
1.5210617
1.5210508
1.5210129
1.5210182
1.521021
1.5210167
1.52102
1.5210248
1.5210279
1.5210237
1.5209391
1.5209848
1.5209903
1.5209442
1.5209981
1.5209926
1.5209464
1.5209496
1.5210296
1.5210347
1.5210371
1.5210329
1.5210421
1.5210474
1.5210606
1.5210569
1.5209509
1.521001
1.5210064
1.5209562
1.521029
1.5210129
1.5209619
1.5209713
1.522743
1.5227631
1.5224909
1.5225863
1.522555
1.5227358
1.5227003
1.5225537
1.522492
1.5226055
1.5225861
1.5225009
1.5227603
1.5227804
1.5227595
1.522743
1.5228958
1.5229062
1.5228741
1.522867
1.5228937
1.5229106
1.5229001
1.5229021
1.5226238
1.5226391
1.5224628
1.5224306
1.5226322
1.5226599
1.5223581
1.522449
1.5227743
1.5227785
1.5228026
1.5228131
1.522786
1.5227753
1.5228235
1.5228145
1.5229095
1.5229035
1.522924
1.5229212
1.5228946
1.5229006
1.5229153
1.5229188
1.5226327
1.5226737
1.5223184
1.5224572
1.5227911
1.5227753
1.5228169
1.5228295
1.5218992
1.5220551
1.5222624
1.5220761
1.5222011
1.5224089
1.5224705
1.52225
1.5224619
1.5222879
1.5224483
1.5222288
1.5226832
1.5226319
1.5226787
1.5226112
1.5227758
1.5227942
1.5227567
1.5227804
1.5222828
1.5225232
1.5225516
1.5223063
1.5228064
1.5228189
1.522834
1.52282
1.5225711
1.5225819
1.5223322
1.5223237
1.5228898
1.5228987
1.5229121
1.5229169
1.522898
1.5228865
1.5228585
1.522871
1.522361
1.5226068
1.5226221
1.5223888
1.5229156
1.52291
1.5228805
1.5228878
1.5226439
1.5226393
1.5224094
1.5224073
1.5229039
1.5229104
1.5224018
1.522657
1.5226717
1.522416
1.5213842
1.5213855
1.5218897
1.5219703
1.5214053
1.5213974
1.5220841
1.5221045
1.5210492
1.5210448
1.5210559
1.5210545
1.5210494
1.5210504
1.5210514
1.521048
1.5210489
1.5210474
1.5210409
1.5210396
1.5210483
1.521047
1.5210355
1.5210304
1.5210366
1.5210305
1.5211186
1.5211171
1.521046
1.5210414
1.5211088
1.5211017
1.5209954
1.5209587
1.5212003
1.5211924
1.5211727
1.5210194
1.5210318
1.521165
1.5210489
1.5210513
1.5209936
1.5209927
1.5210412
1.5210482
1.5209919
1.5209888
1.5210142
1.5210297
1.5209835
1.520981
1.5209654
1.5209912
1.5209731
1.5209673
1.5210564
1.5210489
1.5210059
1.5210054
1.5210584
1.5210599
1.521005
1.521003
1.5210597
1.5210608
1.5210015
1.5210008
1.5210519
1.5210561
1.5209993
1.5209966
1.5209239
1.5209347
1.5209108
1.5209155
1.5209074
1.5209085
1.5209042
1.5209057
1.5209035
1.520903
1.520903
1.5209041
1.5209038
1.5209026
1.5209081
1.5209066
1.520913
1.52091
1.5209165
1.5209167
1.5209206
1.520918
1.5209267
1.520925
1.5209348
1.5209269
1.5209629
1.5209487
1.5209902
1.5210471
1.521132
1.5212201
1.5220417
1.5215232
1.5220182
1.5215045
1.5220581
1.5215335
1.522058
1.5215221
1.5216844
1.5212736
1.5218414
1.5213748
1.5219924
1.5214836
1.5219608
1.5214729
1.522093
1.5215633
1.5221292
1.5215934
1.5221549
1.5216205
1.5221425
1.5215977
1.522141
1.5215878
1.5221258
1.5215749
1.5221619
1.521593
1.5221578
1.5215999
1.5220587
1.5222542
1.5222681
1.522096
1.5220115
1.522106
1.5221896
1.5222632
1.5260286
1.5277697
1.5278676
1.5261511
1.5259063
1.5277359
1.5278233
1.5260324
1.5221448
1.5222017
1.5220356
1.5222913
1.522461
1.5223211
1.5222498
1.5220897
1.5209744
1.5209716
1.5209962
1.5209933
1.5209777
1.5210005
1.5209774
1.5209998
1.5209971
1.521068
1.5209962
1.5210662
1.5209929
1.5210623
1.5209898
1.521058
1.5209556
1.5209439
1.5209759
1.5209655
1.5209657
1.5209869
1.5209642
1.5209851
1.5209728
1.5209618
1.5210404
1.5210297
1.5210522
1.5209837
1.5209817
1.5210493
1.5209409
1.520968
1.52094
1.5209667
1.5209262
1.5209257
1.5209409
1.5209401
1.5209314
1.5209197
1.520958
1.520947
1.5209175
1.5209058
1.5209314
1.5209205
1.5209514
1.52098
1.5209517
1.5209799
1.5209334
1.520932
1.5209486
1.5209469
1.5209358
1.5209515
1.5209364
1.5209519
1.5209487
1.5209468
1.5209767
1.5209741
1.5209674
1.5209598
1.520943
1.5209612
1.5209638
1.520989
1.520961
1.5209898
1.5209109
1.5209078
1.5208866
1.5208915
1.5209171
1.5209454
1.5209146
1.5209429
1.5209086
1.5209075
1.5209231
1.5209218
1.5209159
1.520931
1.5209159
1.520931
1.5209359
1.5209651
1.5209359
1.5209648
1.5209282
1.5209266
1.5209567
1.5209541
1.5208765
1.5209
1.5208755
1.5208989
1.5208842
1.5209076
1.5208837
1.5209075
1.5208721
1.5208713
1.5208502
1.5208484
1.5208636
1.5208622
1.5208382
1.5208405
1.52095
1.5209707
1.5209476
1.520968
1.5209893
1.5210131
1.5209916
1.5210153
1.5210148
1.5210555
1.5210163
1.521055
1.5209734
1.5210101
1.5209704
1.5210059
1.5208398
1.5208399
1.5208143
1.5208144
1.5208421
1.5208422
1.5208163
1.5208169
1.5208579
1.5208796
1.5208584
1.5208802
1.5208562
1.5208777
1.5208562
1.5208775
1.5208759
1.5208653
1.5208865
1.5208765
1.520883
1.5208942
1.520883
1.5208941
1.5208927
1.5208816
1.5209147
1.520904
1.5209007
1.5209232
1.5209006
1.5209228
1.5208351
1.5208355
1.5208103
1.5208099
1.5208452
1.5208655
1.5208361
1.5208563
1.5208513
1.5208721
1.5208516
1.5208722
1.5208293
1.5208218
1.5208047
1.5207983
1.5209091
1.5209327
1.52091
1.5209333
1.5208884
1.5209002
1.5208881
1.5208998
1.520907
1.5209303
1.5209064
1.520929
1.5208901
1.5209023
1.5208908
1.5209031
1.5313147
1.5309402
1.5312324
1.5307945
1.5307077
1.5306665
1.5310695
1.5311843
1.5210371
1.5210303
1.5210813
1.5210737
1.5210572
1.5210904
1.5210546
1.5210856
1.5210107
1.5210383
1.5210058
1.5210326
1.5210914
1.5211392
1.5210838
1.5211299
1.5210093
1.521004
1.5210367
1.5210311
1.521021
1.5210186
1.5210498
1.5210471
1.5210467
1.5210434
1.5211254
1.5211216
1.521033
1.521111
1.5210267
1.5211038
1.52114
1.5211809
1.5211274
1.5211677
1.5210786
1.5211151
1.5210697
1.5211062
1.5211821
1.5212698
1.5211653
1.5212532
1.5211121
1.5211992
1.5211017
1.5211884
1.5209585
1.5209557
1.5209782
1.5209749
1.5209672
1.5209666
1.5209871
1.5209882
1.5209878
1.5210232
1.5209863
1.5210213
1.5209776
1.5209737
1.5210121
1.5210074
1.5208918
1.5208919
1.5208772
1.5208773
1.5208743
1.5208746
1.5208886
1.5208885
1.520886
1.5208892
1.5209083
1.5209078
1.5208924
1.5208919
1.5208809
1.5208813
1.5208958
1.5208956
1.5208928
1.5209042
1.5208952
1.5208944
1.5208808
1.5208817
1.520885
1.5208837
1.5208767
1.5208755
1.5208713
1.5208832
1.5208706
1.5208835
1.5208661
1.5208734
1.5208739
1.5208666
1.5208673
1.5208793
1.5208671
1.5208793
1.5208626
1.5208696
1.5208698
1.5208627
1.520865
1.5208764
1.5208644
1.5208766
1.52086
1.5208669
1.5208675
1.5208607
1.5208873
1.5208875
1.5208729
1.5208732
1.5208739
1.5208742
1.5208886
1.5208886
1.5208863
1.5208851
1.520887
1.5208872
1.5208716
1.5208719
1.5208756
1.5208765
1.5208916
1.5208919
1.5208897
1.5208849
1.5208748
1.5208751
1.5208632
1.5208628
1.5208653
1.5208657
1.5208582
1.5208587
1.5208642
1.5208758
1.5208635
1.5208761
1.5208587
1.520866
1.5208666
1.5208594
1.5208613
1.5208735
1.5208608
1.5208739
1.5208556
1.5208632
1.5208638
1.5208562
1.5208655
1.5208774
1.5208641
1.5208784
1.5208584
1.5208665
1.520868
1.52086
1.5208559
1.5208579
1.5208556
1.5208584
1.5208584
1.5208576
1.5208578
1.5208585
1.5208581
1.5208588
1.5208556
1.5208562
1.5208586
1.5208581
1.5208587
1.5208578
1.5208564
1.5208608
1.5208559
1.5208613
1.5208613
1.5208562
1.520857
1.5208619
1.5208564
1.5208588
1.5208556
1.5208596
1.5208585
1.5208591
1.5208555
1.520856
1.5208582
1.5208529
1.5208536
1.5208588
1.5208627
1.520861
1.5208553
1.5208571
1.520853