/*--------------------------------*- C++ -*----------------------------------*\
  =========                 |
  \\      /  F ield         | OpenFOAM: The Open Source CFD Toolbox
   \\    /   O peration     | Website:  https://openfoam.org
    \\  /    A nd           | Version:  7
     \\/     M anipulation  |
\*---------------------------------------------------------------------------*/
FoamFile
{
    version     2.0;
    format      ascii;
    class       volScalarField;
    location    "10000";
    object      nut;
}
// * * * * * * * * * * * * * * * * * * * * * * * * * * * * * * * * * * * * * //

dimensions      [0 2 -1 0 0 0 0];

internalField   nonuniform List<scalar> 
33943
(
2.5046408e-57
1.0104848e-57
1.678718e-58
7.4351818e-59
5.3224327e-58
1.2611999e-56
5.2090496e-57
3.6207428e-57
1.0903184e-57
1.0642525e-57
1.6954474e-58
1.7026785e-58
5.4385972e-58
1.8409367e-58
1.8822125e-58
5.6592905e-58
4.3811194e-59
6.0349197e-59
7.1503308e-59
6.917675e-59
1.8073708e-58
9.4691634e-59
9.396801e-59
7.541802e-58
2.7476059e-58
3.207144e-58
2.8687812e-58
2.8088817e-58
9.3264625e-57
2.0030468e-58
1.9362929e-58
4.8038273e-57
4.4612254e-57
6.4420217e-58
1.4798443e-58
3.3956247e-58
3.3837636e-58
2.296556e-57
2.2194792e-57
1.126659e-57
1.048197e-57
1.8991595e-58
1.7641147e-58
6.1917272e-58
6.2100676e-58
2.0064872e-58
1.8256065e-58
6.1292667e-58
5.7990186e-58
1.7416021e-58
1.770791e-58
2.2669413e-58
1.0191289e-58
2.1992295e-58
9.8647874e-59
2.4812225e-58
2.2876743e-58
1.0679419e-58
1.0354538e-58
1.7502313e-58
4.3083755e-59
5.2230046e-59
4.2788926e-59
5.6317719e-59
5.62926e-59
4.755351e-59
5.4206949e-59
4.5049351e-59
6.930494e-59
6.9944405e-59
7.3491092e-59
6.9862443e-59
8.7716259e-59
8.569281e-59
9.0043512e-59
9.6044872e-59
7.6385953e-59
1.7692524e-58
7.2373768e-59
1.3380454e-58
1.3497448e-58
2.8056572e-58
1.6893338e-58
8.0431324e-59
7.7308057e-59
7.4014041e-59
7.9169852e-59
3.1214971e-58
1.8293719e-58
2.7329147e-58
3.1476311e-58
2.1687169e-58
1.9965903e-58
8.5015463e-59
2.2535934e-58
1.468781e-58
1.3680366e-58
3.7371497e-57
3.5083018e-57
1.0234847e-58
1.2023754e-58
7.9518524e-58
6.0367511e-58
1.2854191e-58
7.9850891e-58
4.8679893e-58
8.3083365e-59
3.2137287e-58
3.1539711e-58
2.1455028e-57
2.1600004e-57
3.0531164e-58
2.9305193e-58
2.0227913e-57
2.1973657e-57
1.4389794e-58
8.9410507e-59
1.6100814e-58
1.5899853e-58
2.1452103e-58
2.2370022e-58
1.7621841e-58
2.2108892e-58
2.3781102e-58
2.3271092e-58
9.4281436e-58
9.3648881e-58
2.3802948e-58
9.7462024e-58
8.3943194e-58
2.1387806e-58
5.9094823e-58
5.9732314e-58
2.1284289e-58
2.3143723e-58
5.5309194e-58
1.6206383e-58
6.00305e-58
1.7250359e-58
2.3281924e-58
2.577714e-58
1.060104e-58
1.0923291e-58
2.6096067e-58
2.6275497e-58
1.0659487e-58
1.0961192e-58
2.5674271e-58
2.639606e-58
1.0666496e-58
1.092046e-58
2.5985211e-58
2.4375215e-58
1.048849e-58
1.0447807e-58
9.4297052e-59
9.1563553e-59
5.5074978e-59
5.8385171e-59
8.6581233e-59
9.419107e-59
5.5678664e-59
5.9769629e-59
1.015841e-58
1.0604885e-58
6.2492688e-59
6.4553296e-59
5.7582942e-59
9.7405338e-59
9.1972527e-59
5.6829349e-59
1.6232654e-58
6.1249886e-59
4.4859622e-59
4.4263968e-59
1.2396419e-58
1.5305282e-58
1.5635312e-58
1.1851664e-58
5.567791e-59
4.3660795e-59
4.2717246e-59
5.3891205e-59
4.9577939e-59
6.519079e-59
6.3426936e-59
6.944816e-59
6.8067101e-59
5.5396927e-59
4.5034806e-59
4.241596e-59
4.9295562e-59
7.0846921e-59
6.9302755e-59
6.8750802e-59
7.2515385e-59
3.789254e-59
4.156028e-59
4.1713911e-59
3.7576235e-59
3.5703151e-59
3.589044e-59
3.4875228e-59
3.2510967e-59
4.1679898e-59
4.3903724e-59
4.5431492e-59
3.985252e-59
3.7667819e-59
3.8563178e-59
6.1281366e-59
6.6561127e-59
6.8455787e-59
5.5476095e-59
5.3067718e-59
4.9781958e-59
5.2929019e-59
5.1270838e-59
7.4802537e-59
6.2055937e-59
6.4073678e-59
7.3979288e-59
5.4639352e-59
5.7613796e-59
5.4373024e-59
5.5507289e-59
8.0749842e-59
7.8731476e-59
7.8405485e-59
7.819896e-59
7.9652073e-59
8.4815633e-59
8.0576885e-59
7.9321803e-59
8.2724871e-59
9.4622433e-59
8.4697627e-59
1.487475e-58
2.2600477e-58
3.0594739e-58
1.4868731e-58
9.5197439e-59
8.9608534e-59
4.2767712e-58
1.8857297e-58
2.1406866e-58
2.0670411e-58
5.1801914e-59
5.1166188e-59
4.717867e-59
4.5826742e-59
4.5056371e-59
4.7014436e-59
4.5376899e-59
4.6561198e-59
2.0012326e-58
2.2680315e-58
3.7569164e-58
2.5471772e-58
8.2549501e-59
1.8499611e-58
2.0373267e-58
3.4605454e-59
6.7079388e-59
7.0213295e-59
1.0486034e-58
8.0587498e-59
9.076918e-59
6.3818753e-58
8.1129681e-58
8.999808e-59
6.3624837e-59
4.3401399e-58
7.7606629e-58
2.8552503e-58
2.826726e-58
1.9525305e-57
1.9098886e-57
2.7962277e-58
2.7080647e-58
2.0031458e-57
1.8262216e-57
9.5488829e-59
1.086175e-58
1.4000733e-58
1.4221792e-58
9.8450783e-59
1.3789831e-58
1.5108683e-58
8.8789342e-59
1.6552821e-58
1.6836374e-58
2.3303008e-58
2.2128467e-58
2.2636852e-58
1.7397009e-58
1.7399587e-58
2.3419756e-58
2.1549838e-58
9.5340513e-58
8.4787693e-58
2.2585798e-58
2.2403115e-58
2.220789e-58
8.9014918e-58
8.9559597e-58
1.6020739e-58
1.6483992e-58
2.1728063e-58
2.2621697e-58
2.2605623e-58
1.7699234e-58
1.7704944e-58
2.2968814e-58
2.3089845e-58
2.1878259e-58
9.6552572e-58
8.4685938e-58
2.3103449e-58
2.2639957e-58
9.6168597e-58
9.7199717e-58
7.0214969e-58
1.7764534e-58
1.7746052e-58
8.5168581e-59
1.8288327e-58
5.8983483e-58
1.8653633e-58
1.0069804e-58
9.8092375e-59
1.0309539e-58
1.2482524e-58
1.3078543e-58
9.6773699e-59
9.4432657e-59
9.602698e-59
1.2932226e-58
1.2832711e-58
9.3350656e-59
2.0219998e-58
2.0514757e-58
8.9465134e-59
9.1890821e-59
9.278599e-59
2.1230781e-58
8.8730892e-59
2.0548446e-58
1.2791549e-58
1.3493131e-58
9.7188616e-59
9.9541405e-59
9.5339732e-59
2.1502081e-58
9.5862356e-59
2.1100631e-58
9.3784359e-59
2.2411301e-58
5.6982403e-58
2.3433383e-58
2.5056737e-58
1.109232e-58
2.3072892e-58
1.1045389e-58
2.4359805e-58
1.1453001e-58
2.2088838e-58
1.0818689e-58
2.4049895e-58
2.2764552e-58
1.0006386e-58
9.7261363e-59
2.4532812e-58
1.0474384e-58
2.5495164e-58
1.0813388e-58
8.4333902e-59
9.5117371e-59
5.6507914e-59
6.0783441e-59
9.9809607e-59
9.7350586e-59
5.5316562e-59
5.739927e-59
5.9670855e-59
1.0327779e-58
1.058636e-58
6.2194082e-59
1.0533802e-58
1.0096402e-58
6.0589426e-59
5.8457619e-59
9.9227155e-59
1.0325985e-58
6.4190714e-59
6.0390783e-59
1.0580755e-58
1.0543438e-58
6.1977654e-59
5.9944573e-59
1.0302977e-58
1.0959161e-58
6.5183948e-59
6.2183853e-59
1.0599424e-58
9.2387378e-59
6.0315029e-59
6.0936008e-59
6.1867867e-59
6.2121338e-59
1.9572452e-59
1.9982127e-59
7.5113262e-59
5.5499691e-59
1.9465443e-59
2.0987282e-59
1.9259685e-59
5.902114e-59
5.462638e-59
1.8751835e-59
5.4036193e-59
6.6749992e-59
1.9952438e-59
1.9171862e-59
6.7194311e-59
6.4171782e-59
2.1421506e-59
2.2201751e-59
2.1478312e-59
7.3485741e-59
5.794403e-59
2.0733169e-59
6.8008788e-59
7.1192363e-59
2.1006372e-59
2.1314721e-59
5.5608938e-59
6.9986523e-59
1.988849e-59
1.9070162e-59
4.8084305e-59
1.2034374e-58
1.1168908e-58
1.7038011e-58
1.6462403e-58
6.7529278e-59
7.314882e-59
6.6062401e-59
7.0377213e-59
7.2155289e-59
4.2572649e-59
5.4332159e-59
4.372456e-59
4.9714822e-59
4.2178381e-59
5.4706193e-59
4.3611108e-59
5.0167505e-59
3.9602139e-58
2.5459944e-58
3.2184507e-58
4.4837374e-58
6.3382149e-59
6.7043831e-59
6.3904743e-59
6.5670019e-59
3.4902174e-59
3.489264e-59
3.4570019e-59
3.5300316e-59
3.3842625e-59
3.3738329e-59
3.9594441e-59
3.9074366e-59
4.3815667e-59
4.7435928e-59
4.6659943e-59
4.3032351e-59
4.1735446e-59
4.0255666e-59
3.7546921e-59
3.9057754e-59
5.5210573e-59
5.7362964e-59
5.5553693e-59
5.3154928e-59
5.9756118e-59
7.2521437e-59
6.880863e-59
6.1331716e-59
6.5747572e-59
7.7358521e-59
7.9817226e-59
6.2810274e-59
5.9652115e-59
5.9414995e-59
6.0928825e-59
5.9046791e-59
4.6368142e-59
4.5527182e-59
4.0200121e-59
4.1243998e-59
4.0950727e-59
3.9720351e-59
3.6947037e-59
3.6525385e-59
3.6413763e-59
3.4843197e-59
3.5356195e-59
3.5702623e-59
3.8289655e-59
4.1942074e-59
4.1233924e-59
3.9877584e-59
7.3397154e-59
7.3760275e-59
5.9497086e-59
6.1556123e-59
7.2746881e-59
7.1926997e-59
5.7735981e-59
6.091315e-59
5.5126942e-59
5.7000558e-59
5.7643363e-59
5.6208296e-59
5.4415442e-59
5.6969053e-59
5.7052911e-59
5.5135715e-59
3.9516164e-59
3.1763748e-59
4.208237e-59
3.3939977e-59
3.7382012e-59
3.8962743e-59
3.3720933e-59
3.5314563e-59
3.7040239e-59
3.3279528e-59
3.9285029e-59
3.5458135e-59
4.0004097e-59
3.2689981e-59
4.157208e-59
3.4115396e-59
2.8822922e-59
2.7068596e-59
3.0595913e-59
2.8558996e-59
2.857392e-59
2.6699449e-59
3.076979e-59
2.8635482e-59
2.1442884e-59
2.2884572e-59
2.4523726e-59
2.5967563e-59
2.1165534e-59
2.2464381e-59
2.5060034e-59
2.3906255e-59
4.5932827e-59
4.7457282e-59
3.6765234e-59
3.8158574e-59
3.9408554e-59
3.5744172e-59
3.7058762e-59
4.3212834e-59
3.8891099e-59
4.4610531e-59
4.0373966e-59
4.2345476e-59
4.3051633e-59
3.4876259e-59
3.5389931e-59
3.0368108e-59
2.8599559e-59
3.3758469e-59
3.1197413e-59
3.570404e-59
3.2597605e-59
4.3196562e-59
4.4535613e-59
2.9079922e-59
3.0653071e-59
4.1566128e-59
3.9208176e-59
3.3357187e-59
3.5742538e-59
4.0467664e-59
4.1675551e-59
3.5056854e-59
3.6592933e-59
4.2389225e-59
3.9152929e-59
2.739677e-59
2.9686559e-59
4.0312549e-59
3.4332895e-59
4.1667964e-59
3.575199e-59
3.9885374e-59
3.7244084e-59
2.9091977e-59
3.1238723e-59
3.9106332e-59
3.2852185e-59
4.1463679e-59
3.511874e-59
3.8942532e-59
4.0351234e-59
3.0786838e-59
3.2061053e-59
4.6223832e-59
4.6913007e-59
3.975003e-59
4.071679e-59
4.6674037e-59
4.7929884e-59
3.1662339e-59
3.2998018e-59
4.4920645e-59
4.4726288e-59
3.029463e-59
3.0527373e-59
4.3467598e-59
4.3452489e-59
3.7191532e-59
3.7555061e-59
4.1772608e-59
4.2398514e-59
3.2950833e-59
3.3352957e-59
4.5326377e-59
3.8229422e-59
4.658822e-59
3.9597979e-59
4.3322445e-59
4.4730303e-59
3.4099816e-59
3.5327249e-59
4.3107596e-59
3.6920108e-59
4.3746256e-59
3.7619594e-59
4.9530764e-59
4.8721526e-59
4.953948e-59
4.9549444e-59
4.9594446e-59
4.7600712e-59
4.9730403e-59
4.9395702e-59
4.6578503e-59
4.7536835e-59
7.5313208e-59
7.0601548e-59
4.7689316e-59
4.7807071e-59
4.8811144e-59
4.9481001e-59
5.0441666e-59
4.9583873e-59
7.7507387e-59
7.9535323e-59
9.3431822e-59
5.6480239e-59
7.0618839e-59
1.7646045e-58
2.0534266e-58
7.9253066e-59
7.5193776e-59
7.7247531e-59
7.2513274e-59
1.4267016e-58
1.349493e-58
2.5093827e-59
6.651154e-59
2.2983013e-59
2.3875145e-59
2.3410643e-59
2.293217e-59
2.2662266e-59
2.1452672e-59
2.1534507e-59
2.0855283e-59
2.0153167e-59
1.9701368e-59
2.1000901e-59
2.0770156e-59
2.0511961e-59
2.1384097e-59
2.1869586e-59
2.0974816e-59
1.3812511e-58
4.3189205e-59
3.7254655e-58
9.5289713e-59
1.3162571e-58
2.9418413e-58
2.7480124e-58
4.8727038e-59
6.9570691e-59
6.909272e-59
9.1025098e-59
9.4644296e-59
7.9753638e-59
7.6340501e-59
5.3408283e-58
8.5919319e-59
9.8257787e-59
1.3274026e-58
1.396022e-58
1.1126533e-58
8.1722809e-59
1.4029169e-58
1.3826253e-58
2.7376449e-58
1.6398271e-58
2.1435798e-58
2.2660341e-58
1.6913561e-58
1.7004619e-58
1.6748106e-58
2.2099656e-58
2.2446556e-58
2.1014803e-58
1.8442722e-57
8.1302649e-58
2.1309639e-58
8.3737344e-58
2.0432144e-58
2.1498675e-58
8.830749e-58
7.7496958e-58
1.6217872e-58
1.6878341e-58
2.2819111e-58
2.2560114e-58
1.7377288e-58
1.7040782e-58
2.2474419e-58
2.2324355e-58
2.1854021e-58
8.752462e-58
2.1497133e-58
8.7294359e-58
2.1825136e-58
2.0752207e-58
7.5792968e-58
8.7814493e-58
1.3705821e-58
1.140871e-58
5.8011812e-58
1.9012722e-58
1.8068075e-58
6.0419103e-58
1.8969075e-58
1.812227e-58
1.085691e-58
4.7469496e-58
1.7971812e-58
1.78366e-58
6.6954005e-58
1.9147107e-58
1.9023309e-58
1.2077132e-58
9.652338e-59
9.7627751e-59
9.8464798e-59
9.8169402e-59
1.2759997e-58
1.2811202e-58
9.3065676e-59
9.5760347e-59
8.5282828e-59
8.8403668e-59
2.1591117e-58
2.2237706e-58
8.8391038e-59
1.9643932e-58
8.2378495e-59
2.0565587e-58
1.2942465e-58
1.2368933e-58
9.4305685e-59
9.5880476e-59
1.2092062e-58
1.2660575e-58
8.9771619e-59
9.4170305e-59
1.2646798e-58
1.2632892e-58
9.5670288e-59
9.3448666e-59
7.9905022e-59
8.4063623e-59
2.2234923e-58
2.0544283e-58
8.6779682e-59
8.1667811e-59
1.9547351e-58
2.0382753e-58
9.7821617e-59
9.6083266e-59
1.0211759e-58
1.00534e-58
9.5568012e-59
1.2720125e-58
1.3304162e-58
9.797894e-59
9.5400253e-59
1.2988946e-58
1.2933738e-58
9.2773987e-59
8.8630761e-59
9.1051525e-59
1.9745587e-58
2.1125545e-58
8.3669681e-59
2.0998095e-58
1.8997814e-58
8.8304788e-59
1.2220233e-58
9.2796121e-59
9.5913625e-59
1.2866913e-58
1.2636309e-58
1.2629074e-58
9.4645368e-59
9.2968513e-59
8.4743517e-59
8.9235794e-59
2.1745176e-58
2.1076282e-58
8.8877428e-59
8.4761463e-59
2.1272757e-58
1.9856089e-58
7.7877515e-59
7.7005411e-59
2.2641021e-58
9.1374653e-59
8.9070054e-59
8.0323888e-59
3.0763776e-58
9.5872169e-59
1.1857071e-58
1.1630804e-58
9.7292454e-59
1.0126083e-58
8.796073e-59
8.6278828e-59
1.0951466e-58
1.1661864e-58
9.9945627e-59
9.2127497e-59
8.7696808e-59
8.6100894e-59
1.1922127e-58
1.1489213e-58
1.0004442e-58
9.7442511e-59
8.7873322e-59
8.9964414e-59
9.7540896e-59
4.7289103e-59
1.006019e-58
4.7287952e-59
9.5783481e-59
9.442029e-59
4.6445239e-59
4.7150761e-59
9.5695375e-59
9.816921e-59
4.8403958e-59
4.7717864e-59
4.6910583e-59
9.5595412e-59
9.5652345e-59
4.6032281e-59
3.0360183e-59
2.7776467e-59
2.9689133e-59
3.5221122e-59
3.4129186e-59
2.9037205e-59
2.9362974e-59
3.5648069e-59
3.1427952e-59
3.0572962e-59
2.4316363e-59
2.5800131e-59
3.2239791e-59
3.251348e-59
2.353999e-59
2.6782106e-59
3.223762e-59
3.2733095e-59
2.5667033e-59
2.4254588e-59
3.3508591e-59
2.8451646e-59
2.9344315e-59
3.5222882e-59
2.3815051e-59
3.2627219e-59
3.2126236e-59
2.2288497e-59
2.6989349e-59
2.8232444e-59
3.5198963e-59
3.3443244e-59
9.8496383e-59
9.6588295e-59
4.7706735e-59
4.8352235e-59
1.0181834e-58
9.9776092e-59
4.825658e-59
4.7852899e-59
3.2706561e-59
3.2375502e-59
2.5273101e-59
2.4388355e-59
3.3726855e-59
2.7781571e-59
2.918688e-59
3.6750584e-59
3.3425859e-59
3.4075363e-59
2.5480543e-59
2.39363e-59
2.906987e-59
2.8063992e-59
3.6554996e-59
3.7456413e-59
3.2841905e-59
3.2644811e-59
2.5710047e-59
2.413241e-59
3.1890201e-59
2.6937251e-59
2.8275524e-59
3.428378e-59
2.2411526e-58
2.4984352e-58
1.2122704e-58
1.2112759e-58
6.1542734e-59
9.9145235e-59
9.6390983e-59
6.019473e-59
8.9745437e-59
8.5752098e-59
5.7716475e-59
5.5406536e-59
9.3069624e-59
9.0216306e-59
5.6422567e-59
5.9405088e-59
7.757854e-59
8.5510915e-59
5.4026382e-59
5.8383327e-59
9.6231716e-59
9.488642e-59
5.7045287e-59
5.6574719e-59
8.7292504e-59
8.3034317e-59
5.2454152e-59
5.1935742e-59
9.485695e-59
9.8575374e-59
5.9113857e-59
6.1689847e-59
9.9972771e-59
5.8027461e-59
9.5470818e-59
5.9954108e-59
7.9551891e-59
5.6174489e-59
1.9328324e-59
2.1897025e-59
6.5220407e-59
5.0684485e-59
1.8504453e-59
2.1012096e-59
8.0850834e-59
4.2828571e-59
1.554485e-59
2.1681427e-59
6.2128401e-59
6.6923504e-59
1.9957672e-59
2.0704514e-59
7.3615907e-59
6.84151e-59
2.1816743e-59
2.2877617e-59
6.4587748e-59
7.2340321e-59
2.1935578e-59
2.1773528e-59
6.9733756e-59
4.6802953e-59
1.6886313e-59
2.1668384e-59
6.4975669e-59
6.7738813e-59
2.0332436e-59
2.0920105e-59
6.4984044e-59
7.5776063e-59
2.1496557e-59
2.1767497e-59
5.412939e-59
7.3422714e-59
2.1348113e-59
1.935036e-59
5.9998826e-59
6.8540309e-59
2.0990186e-59
2.0699343e-59
5.1385951e-59
7.3280054e-59
2.0770773e-59
1.9015503e-59
5.5376836e-59
7.5943547e-59
2.1947721e-59
2.0362288e-59
5.5577276e-59
6.2207592e-59
2.0344706e-59
2.0402836e-59
6.1052043e-59
2.0729091e-59
6.726534e-59
2.2061364e-59
6.5544653e-59
4.9704493e-59
2.0153057e-59
1.8697081e-59
3.1960062e-59
3.1629939e-59
3.397944e-59
3.0354801e-59
2.8253648e-59
2.8257149e-59
2.9836475e-59
3.2044791e-59
3.38345e-59
3.4405976e-59
3.5620451e-59
3.2635009e-59
3.4245477e-59
3.4959081e-59
3.0295049e-59
3.3712369e-59
4.7396308e-59
5.6145537e-59
1.6389324e-58
2.0017764e-58
2.0479949e-58
3.8504276e-58
7.3271524e-59
7.4129505e-59
7.1998011e-59
6.7945677e-59
5.5591365e-59
5.978317e-59
6.7012144e-59
6.821758e-59
5.2351511e-59
5.4700872e-59
5.4459165e-59
5.7096624e-59
5.3299701e-59
5.5065879e-59
5.6548791e-59
5.8413812e-59
5.8423208e-59
5.668944e-59
3.1929387e-59
3.2992322e-59
3.366366e-59
3.4574956e-59
4.2493975e-59
4.4305498e-59
3.9145372e-59
3.7711763e-59
3.7036945e-59
3.7920514e-59
3.4911878e-59
3.2994856e-59
4.0567889e-59
3.8069408e-59
3.5463918e-59
3.8293267e-59
3.4962279e-59
3.4775197e-59
3.5394394e-59
3.6256635e-59
4.4127741e-59
4.4400935e-59
3.8413892e-59
3.9995683e-59
3.6312983e-59
3.8934425e-59
3.742277e-59
3.5038568e-59
3.9605762e-59
4.2434072e-59
4.0091931e-59
4.1526771e-59
1.5008646e-58
1.2475676e-58
1.7211762e-58
1.7336074e-58
5.2314925e-59
3.9013558e-59
6.04661e-59
2.8715245e-59
5.3573592e-59
5.1160729e-59
5.4912102e-59
4.9234547e-59
6.9777185e-59
7.3077292e-59
6.1073853e-59
5.9721249e-59
6.3249849e-59
6.9317607e-59
5.5224758e-59
5.995339e-59
5.3741419e-59
5.6276005e-59
5.3532907e-59
5.1902167e-59
2.352297e-59
2.4254853e-59
2.7159576e-59
2.7030257e-59
2.2072568e-59
2.3815535e-59
2.6832057e-59
2.5624389e-59
2.8540028e-59
2.6855526e-59
3.0815099e-59
2.8554766e-59
3.0798929e-59
2.8976143e-59
3.1698258e-59
2.9361695e-59
2.5101523e-59
2.602639e-59
2.8571049e-59
2.8384176e-59
2.3805788e-59
2.5845177e-59
2.8482842e-59
2.5962678e-59
3.220999e-59
3.0841676e-59
3.4780658e-59
3.2298237e-59
3.170293e-59
2.9854816e-59
3.4430728e-59
3.1913746e-59
4.5716005e-59
3.6953707e-59
4.7384723e-59
3.8355229e-59
4.2741753e-59
4.4386094e-59
4.031003e-59
3.868768e-59
4.1101173e-59
4.3021435e-59
3.7575477e-59
3.9310444e-59
4.4294027e-59
4.5905657e-59
3.6387936e-59
3.7698742e-59
4.069066e-59
3.6482226e-59
3.7084605e-59
4.1078807e-59
3.7688762e-59
3.3935897e-59
3.9837175e-59
3.5760555e-59
4.0139609e-59
3.2794489e-59
3.4717429e-59
4.2490295e-59
4.3440072e-59
3.5187945e-59
4.3683856e-59
3.5477799e-59
4.0546029e-59
3.4436948e-59
4.2617993e-59
3.618022e-59
4.3572004e-59
3.6911713e-59
4.3773387e-59
3.7335963e-59
4.1583614e-59
3.2653243e-59
4.1831147e-59
3.2953664e-59
3.8251067e-59
3.0425017e-59
4.0502495e-59
3.1940144e-59
4.159965e-59
2.8904108e-59
4.3965177e-59
3.0022411e-59
4.3605064e-59
3.7301e-59
4.3665212e-59
3.7609979e-59
4.0303004e-59
3.506168e-59
4.2319753e-59
3.6400495e-59
4.484056e-59
2.9512443e-59
4.5027899e-59
3.0803751e-59
4.6150724e-59
2.9956449e-59
4.6487949e-59
3.0645617e-59
4.5747126e-59
4.5939014e-59
3.9706445e-59
3.9837249e-59
4.7309691e-59
3.9435258e-59
4.732816e-59
3.9765891e-59
4.63309e-59
3.0408494e-59
4.6781282e-59
3.1589191e-59
4.3785924e-59
3.4252879e-59
4.4728697e-59
3.4934474e-59
4.4881574e-59
3.8602578e-59
4.585316e-59
3.9558918e-59
4.5960947e-59
3.8918623e-59
4.7164143e-59
4.0050386e-59
4.3031995e-59
4.3955468e-59
3.4068215e-59
3.4828208e-59
4.3236712e-59
4.0921695e-59
3.8741314e-59
3.700813e-59
4.2359417e-59
3.781848e-59
4.483996e-59
4.0233063e-59
4.3863026e-59
3.5240923e-59
4.6548077e-59
3.7626864e-59
4.5537404e-59
3.6898615e-59
4.2993076e-59
3.5211989e-59
3.376863e-59
3.144221e-59
3.2639731e-59
3.0312862e-59
3.2871813e-59
3.0306845e-59
3.5612176e-59
3.2656463e-59
2.5007094e-59
2.697515e-59
2.8408278e-59
3.0534071e-59
2.5178482e-59
2.4318868e-59
2.7529847e-59
2.8681028e-59
3.1327309e-59
2.8275105e-59
3.2890233e-59
2.9813707e-59
2.3341027e-59
2.5127656e-59
2.8703713e-59
2.6842647e-59
2.4046693e-59
2.5030075e-59
2.8375915e-59
2.7885728e-59
3.0362457e-59
2.8789344e-59
3.2689575e-59
3.0760283e-59
4.2727872e-59
3.454317e-59
4.4405856e-59
3.5983577e-59
4.0143939e-59
3.6447813e-59
4.2095959e-59
3.8359887e-59
3.9934409e-59
3.5598986e-59
4.1324914e-59
3.7164398e-59
4.3195821e-59
3.5190872e-59
4.5094277e-59
3.692393e-59
4.4752197e-59
4.2099576e-59
3.8750584e-59
3.7024777e-59
4.5285178e-59
4.6850845e-59
3.8116403e-59
4.0000455e-59
4.3458589e-59
2.9551198e-59
4.6174517e-59
3.117881e-59
4.587255e-59
3.1056567e-59
4.3721699e-59
3.0640563e-59
4.4296445e-59
4.517806e-59
3.8411216e-59
3.9424852e-59
4.4763981e-59
3.7498581e-59
4.5270821e-59
3.8527134e-59
4.2853922e-59
2.9417258e-59
4.4664105e-59
3.0641138e-59
4.5554382e-59
4.656885e-59
3.0538086e-59
3.1517327e-59
4.1247735e-59
3.2279819e-59
4.2904091e-59
3.3644202e-59
4.3499878e-59
4.4561065e-59
3.663423e-59
3.8034048e-59
4.3221518e-59
4.463395e-59
3.6967796e-59
3.8476673e-59
4.169973e-59
4.3154769e-59
3.2951981e-59
3.4395871e-59
4.2199096e-59
4.4462739e-59
3.2921423e-59
3.4820652e-59
4.4639071e-59
4.6800635e-59
3.7634335e-59
3.976848e-59
4.2730391e-59
4.5495412e-59
3.8455028e-59
3.6669762e-59
4.3116325e-59
4.0898283e-59
3.3785983e-59
3.2483803e-59
2.1458727e-59
2.3931933e-59
2.0687131e-59
2.4695699e-59
2.0726008e-59
1.6780154e-59
1.7242132e-59
2.1613813e-59
2.6254484e-59
2.2894453e-59
2.6129657e-59
2.2508909e-59
2.2705868e-59
1.8335457e-59
2.3038349e-59
1.8596687e-59
3.4466927e-59
2.8369606e-59
2.9043794e-59
3.4654489e-59
3.6501825e-59
3.6191907e-59
3.0107112e-59
3.0568682e-59
2.2264857e-59
2.7777582e-59
2.1884713e-59
2.8515267e-59
3.0215257e-59
2.3830615e-59
2.9830527e-59
2.3439193e-59
2.8772141e-59
3.3224465e-59
2.7520164e-59
3.4561238e-59
2.7061489e-59
2.1307091e-59
2.1969304e-59
2.8235836e-59
3.0912142e-59
3.6259758e-59
3.000703e-59
3.6730705e-59
2.9793613e-59
2.3455625e-59
3.0437033e-59
2.3683665e-59
2.4582959e-59
2.1262404e-59
2.165638e-59
2.5096982e-59
1.7494711e-59
2.195626e-59
2.156655e-59
1.7724379e-59
2.6104918e-59
2.6436673e-59
2.269076e-59
2.3062792e-59
1.8733046e-59
2.3429825e-59
1.9041996e-59
2.3114954e-59
5.3405789e-59
5.4275186e-59
4.1785537e-59
4.2652442e-59
4.2029252e-59
3.0933652e-59
3.1485268e-59
4.1280093e-59
5.5762752e-59
5.6170382e-59
4.4331931e-59
4.3795034e-59
4.4051426e-59
4.444802e-59
3.2959072e-59
3.3372631e-59
4.2057463e-59
5.1683564e-59
4.0445751e-59
5.2972676e-59
4.0016151e-59
3.0081297e-59
3.1035461e-59
4.1385539e-59
4.5436034e-59
5.6633689e-59
4.4188264e-59
5.7517426e-59
4.4413906e-59
3.3129968e-59
4.6038017e-59
3.3759557e-59
7.9285883e-59
8.0440642e-59
5.5067972e-59
5.657842e-59
6.2753047e-59
6.3601248e-59
9.0104762e-59
8.9933018e-59
4.9638843e-59
5.4274762e-59
8.2880084e-59
8.3316e-59
5.7244917e-59
5.8493395e-59
6.1860308e-59
6.1654078e-59
8.7566245e-59
8.7337225e-59
5.2954419e-59
5.0931156e-59
2.9955499e-59
2.6040604e-59
2.6685816e-59
3.0471171e-59
3.091247e-59
3.0972918e-59
2.6849925e-59
2.7116752e-59
2.1424039e-59
2.6138494e-59
2.1147576e-59
2.6838913e-59
2.7208711e-59
2.1989484e-59
2.7013446e-59
2.1852033e-59
3.7401592e-59
3.1002883e-59
3.1761124e-59
3.7567189e-59
2.4317746e-59
3.0298456e-59
2.3985157e-59
3.1072712e-59
3.1677813e-59
2.4856957e-59
3.1386678e-59
2.4655992e-59
3.5232704e-59
4.0767526e-59
3.4113127e-59
4.1866981e-59
3.3583302e-59
2.6522961e-59
2.6929329e-59
3.4468811e-59
3.6236828e-59
4.239851e-59
3.5404913e-59
4.2602777e-59
3.5063176e-59
2.7716531e-59
3.556852e-59
2.7760524e-59
2.6925231e-59
2.3414139e-59
2.3759871e-59
2.7406776e-59
2.7400262e-59
2.3774886e-59
2.7499908e-59
2.3914512e-59
1.950612e-59
2.3755998e-59
1.9295757e-59
2.4106244e-59
2.4512214e-59
2.4462277e-59
1.9848135e-59
1.9892875e-59
5.7224769e-59
5.8043012e-59
4.5108846e-59
4.5988914e-59
4.5241031e-59
3.3546838e-59
3.4076299e-59
4.447014e-59
5.0743446e-59
6.1998861e-59
4.9370656e-59
6.2723431e-59
4.8631686e-59
3.6785123e-59
3.7371176e-59
4.9498972e-59
5.2300153e-59
6.4384613e-59
5.1405531e-59
6.4397218e-59
5.134724e-59
3.8605803e-59
5.266142e-59
3.8965128e-59
1.2155632e-59
1.2797095e-59
1.1816119e-59
1.2755495e-59
1.3442138e-59
1.2330613e-59
1.3201322e-59
1.4021977e-59
1.3546894e-59
1.0171148e-59
1.3854955e-59
1.0284431e-59
1.0811948e-59
1.0862508e-59
1.4039918e-59
1.5285823e-59
1.1671419e-59
1.2401238e-59
1.1373985e-59
1.2495863e-59
1.1689131e-59
1.1523804e-59
1.0740483e-59
1.0870016e-59
1.1305105e-59
1.1150761e-59
9.8543034e-60
9.9475658e-60
1.0426731e-59
1.0806418e-59
1.1808503e-59
1.2569355e-59
1.1367894e-59
1.2101495e-59
1.110521e-59
1.2189014e-59
1.2705374e-59
1.1697341e-59
1.2329458e-59
1.3106339e-59
1.1613938e-59
1.0248039e-59
1.189664e-59
1.0310818e-59
1.0753959e-59
1.1266649e-59
1.215013e-59
1.3085019e-59
1.2353589e-59
1.2942092e-59
1.1866299e-59
1.3390495e-59
1.2339508e-59
1.2317781e-59
1.1505983e-59
1.1491321e-59
1.0015334e-59
1.3339594e-59
1.3311567e-59
1.003516e-59
1.0394168e-59
1.0548532e-59
1.3779209e-59
1.4276349e-59
1.6932887e-59
1.8924579e-59
1.6720002e-59
1.9084076e-59
1.6886875e-59
1.383394e-59
1.4047951e-59
1.7091747e-59
1.8143106e-59
2.0098645e-59
1.7832641e-59
2.0360305e-59
1.803959e-59
1.4759943e-59
1.5042316e-59
1.8312438e-59
1.5934114e-59
1.4198782e-59
1.5865946e-59
1.4088944e-59
1.4870348e-59
1.4522901e-59
1.2916133e-59
1.3290402e-59
1.3215705e-59
1.2815908e-59
1.0567538e-59
1.0846695e-59
1.1446592e-59
1.1614772e-59
1.400184e-59
1.4144074e-59
1.8671165e-59
1.8155782e-59
1.6045687e-59
1.6431304e-59
1.6493395e-59
1.6075933e-59
1.3141181e-59
1.3506254e-59
1.7622427e-59
1.9729103e-59
1.7415739e-59
1.9886725e-59
1.4400469e-59
1.7614115e-59
1.7782237e-59
1.4555207e-59
1.3849227e-59
1.5370662e-59
1.3656953e-59
1.5547522e-59
1.6241975e-59
1.4474903e-59
1.4718413e-59
1.6484508e-59
1.3673608e-59
1.1194323e-59
1.3974194e-59
1.136229e-59
1.1844337e-59
1.2156629e-59
1.4532549e-59
1.4873674e-59
1.4471575e-59
1.3157272e-59
1.380037e-59
1.4693666e-59
1.4613517e-59
1.322845e-59
1.3836629e-59
1.4863284e-59
1.353509e-59
1.189496e-59
1.2248711e-59
1.4415425e-59
1.3685011e-59
1.1979723e-59
1.2428363e-59
1.4556966e-59
1.4689032e-59
1.3499073e-59
1.3748829e-59
1.5144381e-59
1.462616e-59
1.3444503e-59
1.3919873e-59
1.5223734e-59
1.5423155e-59
1.1484161e-59
1.1688845e-59
1.5812333e-59
1.549108e-59
1.1567015e-59
1.167054e-59
1.5958887e-59
1.3722639e-59
1.2609614e-59
1.3218376e-59
1.4259429e-59
1.4093393e-59
1.3934014e-59
1.2804904e-59
1.3126423e-59
1.4236125e-59
1.0788496e-59
1.1029387e-59
1.5251619e-59
1.481258e-59
1.4564117e-59
1.0950191e-59
1.094379e-59
1.3283459e-59
1.2078207e-59
1.2557805e-59
1.364774e-59
1.3500344e-59
1.3482656e-59
1.242343e-59
1.2508808e-59
1.2464767e-59
1.0926343e-59
1.1267486e-59
1.3227442e-59
1.292926e-59
1.2799387e-59
1.120516e-59
1.137736e-59
1.7081814e-59
1.5189342e-59
1.5447714e-59
1.7147623e-59
1.7281016e-59
1.7471105e-59
1.556835e-59
1.5431358e-59
1.5167959e-59
1.2304399e-59
1.2412051e-59
1.5396523e-59
1.5345842e-59
1.5442486e-59
1.2577015e-59
1.2577324e-59
2.3028212e-59
2.3323279e-59
2.042108e-59
2.0613368e-59
2.0517864e-59
2.06979e-59
1.6774003e-59
1.6962652e-59
2.3587083e-59
2.0907422e-59
2.0995638e-59
2.36024e-59
1.7287149e-59
1.7356748e-59
2.1108548e-59
2.1142806e-59
1.8693102e-59
1.6651709e-59
1.6858417e-59
1.8811558e-59
1.9078842e-59
1.7009644e-59
1.70472e-59
1.9085619e-59
1.6635574e-59
1.3509209e-59
1.3732588e-59
1.684658e-59
1.7064773e-59
1.379907e-59
1.3910607e-59
1.7189628e-59
2.0874873e-59
1.8528561e-59
2.1073308e-59
1.862931e-59
1.8824193e-59
1.8713101e-59
1.5356868e-59
1.547432e-59
2.1373126e-59
1.9015168e-59
2.1419911e-59
1.9019801e-59
1.5767809e-59
1.9219741e-59
1.9144813e-59
1.5721589e-59
2.2758187e-59
2.2637847e-59
2.2442752e-59
2.1657278e-59
2.2873888e-59
2.26898e-59
2.2687265e-59
2.0744241e-59
2.2205438e-59
2.2879965e-59
2.1566138e-59
2.0487294e-59
2.2520383e-59
2.1453884e-59
2.2532848e-59
2.2132212e-59
2.3510957e-59
2.0542075e-59
2.1964061e-59
2.1755975e-59
4.8039527e-59
4.5289735e-59
4.5024167e-59
4.3961754e-59
2.0497888e-59
2.1489318e-59
2.0576335e-59
2.036203e-59
2.113221e-59
2.3729257e-59
2.2939835e-59
2.2560036e-59
2.4207933e-59
2.4083202e-59
2.305674e-59
2.1134571e-59
4.7285722e-59
4.7458373e-59
4.7831951e-59
4.7195421e-59
8.0860397e-59
8.472753e-59
3.8364968e-59
2.8526471e-59
1.3676793e-58
4.3368285e-59
5.0190374e-59
4.7909202e-59
4.5601966e-59
4.5581761e-59
4.5536079e-59
4.646387e-59
4.1784571e-59
4.4371913e-59
1.5394264e-58
4.3511936e-60
3.2527989e-59
9.9558387e-59
3.1635584e-58
5.2901457e-59
7.1459094e-58
1.9966367e-58
9.8541231e-59
1.0609898e-58
6.6934638e-59
9.3526377e-59
9.0260306e-59
7.1717344e-59
1.0463421e-58
8.8500341e-59
1.4462175e-58
8.075719e-59
1.4361925e-58
6.2068151e-58
1.9324316e-58
1.8459539e-58
6.8999237e-58
1.846886e-58
1.8771355e-58
1.281594e-58
9.9019648e-59
5.2397945e-58
1.9655624e-58
1.9046589e-58
5.5109554e-58
1.8243232e-58
1.9130331e-58
1.7045501e-58
1.7034687e-58
2.235349e-58
2.1714239e-58
9.3823022e-59
9.3075731e-59
9.5234886e-59
9.3663495e-59
1.1965561e-58
1.1978635e-58
8.8154437e-59
8.6968012e-59
2.1599596e-58
2.082912e-58
8.598522e-58
7.4910254e-58
7.7914523e-59
1.9470277e-58
8.237117e-59
2.0949904e-58
1.2084207e-58
1.154904e-58
8.6379031e-59
8.8535426e-59
8.2417474e-59
7.8541776e-59
1.9952068e-58
2.0255413e-58
1.2037334e-58
1.2058296e-58
8.710444e-59
8.8765838e-59
1.2428885e-58
1.1865082e-58
8.8656912e-59
9.1112162e-59
8.1192781e-59
8.4405234e-59
1.9814049e-58
2.0825479e-58
8.2936428e-59
7.8113239e-59
2.1220697e-58
2.0318834e-58
9.4614828e-59
9.3118135e-59
9.6278184e-59
9.7434003e-59
8.8132253e-59
1.2164964e-58
1.1667916e-58
9.0682455e-59
8.2822415e-59
7.8475335e-59
1.9293383e-58
1.9677408e-58
1.2196163e-58
1.2220179e-58
9.0885578e-59
8.9983302e-59
8.149105e-59
8.4725271e-59
2.0373234e-58
2.0030649e-58
1.2063502e-58
1.2567504e-58
9.4205617e-59
9.1776607e-59
1.2319234e-58
1.2194549e-58
9.0889411e-59
9.3154345e-59
8.4664945e-59
7.8202079e-59
2.0821854e-58
2.001941e-58
8.3350233e-59
1.9205436e-58
8.6973252e-59
2.0378836e-58
7.8572425e-59
8.0161114e-59
2.1703579e-58
9.5521285e-59
9.7132703e-59
7.8973703e-59
8.047643e-59
2.0544992e-58
9.4044781e-59
9.5022392e-59
7.7631791e-59
7.791101e-59
2.57333e-58
9.2828969e-59
8.9333807e-59
8.2786015e-59
8.2273445e-59
2.2075587e-58
9.9380496e-59
9.6063774e-59
1.1579675e-58
1.2424688e-58
1.0235341e-58
9.606418e-59
8.4376285e-59
8.3127851e-59
1.2911774e-58
1.2767238e-58
1.0111511e-58
9.8788784e-59
8.1321222e-59
8.3847177e-59
1.2748066e-58
1.2650325e-58
9.9040443e-59
1.0195949e-58
8.3139026e-59
8.5263096e-59
1.2060119e-58
1.2689596e-58
9.8399392e-59
1.0423558e-58
8.5004411e-59
8.3569107e-59
9.4815971e-59
4.5556781e-59
9.5290333e-59
4.4998146e-59
4.677372e-59
9.5091061e-59
9.6264562e-59
4.6938452e-59
2.6818777e-59
3.0329522e-59
3.0770746e-59
2.5602706e-59
2.6542805e-59
3.1791032e-59
3.1111148e-59
2.4634864e-59
3.4796949e-59
2.9320069e-59
3.1604497e-59
3.6252079e-59
3.7433207e-59
3.0749673e-59
3.1208119e-59
3.5126528e-59
3.3199236e-59
3.2464088e-59
2.6793199e-59
2.6808841e-59
4.7744338e-59
3.3433414e-59
3.1514061e-59
3.6383915e-59
2.6740593e-59
3.1518521e-59
3.0428262e-59
2.5253448e-59
3.7418962e-59
3.084051e-59
3.0636043e-59
3.5522621e-59
4.5743517e-59
9.2707474e-59
9.3604404e-59