/*--------------------------------*- C++ -*----------------------------------*\
  =========                 |
  \\      /  F ield         | OpenFOAM: The Open Source CFD Toolbox
   \\    /   O peration     | Website:  https://openfoam.org
    \\  /    A nd           | Version:  7
     \\/     M anipulation  |
\*---------------------------------------------------------------------------*/
FoamFile
{
    version     2.0;
    format      ascii;
    class       volScalarField;
    location    "10000";
    object      p;
}
// * * * * * * * * * * * * * * * * * * * * * * * * * * * * * * * * * * * * * //

dimensions      [0 2 -2 0 0 0 0];

internalField   nonuniform List<scalar> 
33943
(
-6.7345841e+117
-6.4983114e+117
-6.3782849e+117
-6.1532236e+117
-6.6731596e+117
-6.8138515e+117
-6.5535202e+117
-6.8060523e+117
-6.5675992e+117
-6.5327365e+117
-6.4380576e+117
-6.4082085e+117
-6.4117322e+117
-6.3227994e+117
-6.3071846e+117
-6.3946495e+117
-5.7170663e+117
-5.9359381e+117
-6.177118e+117
-6.2009745e+117
-6.2401463e+117
-6.1699237e+117
-6.1849208e+117
-6.7206399e+117
-6.5187851e+117
-6.743451e+117
-6.7095913e+117
-6.4917941e+117
-6.8870041e+117
-6.632886e+117
-6.5991281e+117
-6.626505e+117
-6.5906611e+117
-6.4549183e+117
-6.4226002e+117
-6.4718587e+117
-6.4542898e+117
-6.4577604e+117
-6.4400059e+117
-6.6231081e+117
-6.5963034e+117
-6.4886082e+117
-6.464041e+117
-6.4770196e+117
-6.4622018e+117
-6.3680104e+117
-6.3815532e+117
-6.4464188e+117
-6.4281341e+117
-6.3533818e+117
-6.3370834e+117
-6.3521816e+117
-6.2897726e+117
-6.3608636e+117
-6.2979572e+117
-6.3443859e+117
-6.3358361e+117
-6.2819255e+117
-6.2740665e+117
-5.7997878e+117
-5.7429675e+117
-5.9721138e+117
-5.7304526e+117
-5.9539248e+117
-5.8366661e+117
-5.7393225e+117
-5.8272825e+117
-5.7311893e+117
-6.0585168e+117
-5.9353459e+117
-6.0453656e+117
-5.9244308e+117
-6.2119257e+117
-6.1975114e+117
-6.23682e+117
-6.2248455e+117
-6.2210873e+117
-6.2732256e+117
-6.2401876e+117
-6.0913019e+117
-6.0737339e+117
-6.2855347e+117
-6.3098074e+117
-6.1966155e+117
-6.1899799e+117
-6.2121138e+117
-6.2040006e+117
-6.5435406e+117
-6.5671019e+117
-6.8015284e+117
-6.7762888e+117
-6.5080584e+117
-6.7328653e+117
-6.7013398e+117
-6.4819011e+117
-6.6868239e+117
-6.6636888e+117
-6.685056e+117
-6.6588418e+117
-6.467731e+117
-6.4796798e+117
-6.514736e+117
-6.5016617e+117
-6.4539977e+117
-6.4872489e+117
-6.4708957e+117
-6.4383129e+117
-6.5351442e+117
-6.5210153e+117
-6.5085411e+117
-6.5234144e+117
-6.5056146e+117
-6.4885293e+117
-6.4746811e+117
-6.49271e+117
-6.3493166e+117
-6.3121339e+117
-6.3963958e+117
-6.4040963e+117
-6.4184449e+117
-6.4102945e+117
-6.3883186e+117
-6.4021895e+117
-6.4181174e+117
-6.409737e+117
-6.3979237e+117
-6.3892916e+117
-6.4015478e+117
-6.3811991e+117
-6.3723193e+117
-6.5084617e+117
-6.5134355e+117
-6.5241391e+117
-6.4260056e+117
-6.4150088e+117
-6.4888488e+117
-6.3919097e+117
-6.5017293e+117
-6.4034945e+117
-6.423847e+117
-6.4180609e+117
-6.3570969e+117
-6.3513604e+117
-6.4112059e+117
-6.4032232e+117
-6.3446759e+117
-6.3373735e+117
-6.3956018e+117
-6.386935e+117
-6.3304232e+117
-6.3218502e+117
-6.3785502e+117
-6.36905e+117
-6.3051196e+117
-6.3136298e+117
-6.3195321e+117
-6.3150522e+117
-6.2778283e+117
-6.2737589e+117
-6.3281814e+117
-6.3238186e+117
-6.2864987e+117
-6.2820618e+117
-6.3113873e+117
-6.3076265e+117
-6.2702075e+117
-6.2662155e+117
-6.2625495e+117
-6.303675e+117
-6.2995507e+117
-6.2590085e+117
-5.8234577e+117
-5.9884071e+117
-5.7664055e+117
-5.7551801e+117
-5.673842e+117
-5.8831718e+117
-5.8689724e+117
-5.661967e+117
-6.0027272e+117
-5.7658991e+117
-5.759064e+117
-5.8620212e+117
-5.8689401e+117
-5.9746149e+117
-6.1038621e+117
-6.0938136e+117
-5.966684e+117
-5.845323e+117
-5.7470554e+117
-5.752657e+117
-5.8538547e+117
-6.0696983e+117
-6.0824626e+117
-5.9565711e+117
-5.9453362e+117
-5.8874406e+117
-5.834207e+117
-5.8398322e+117
-5.8812949e+117
-5.7926296e+117
-5.7980864e+117
-5.7562574e+117
-5.7507244e+117
-5.8766096e+117
-5.8257192e+117
-5.829701e+117
-5.8725584e+117
-5.7846768e+117
-5.7884534e+117
-6.1258914e+117
-6.0564472e+117
-6.0493252e+117
-6.1334503e+117
-5.9298352e+117
-5.9939911e+117
-5.9361289e+117
-5.9873919e+117
-6.0432066e+117
-6.1190671e+117
-6.11342e+117
-6.0381113e+117
-5.9771888e+117
-5.9246606e+117
-5.981775e+117
-5.9205212e+117
-6.234183e+117
-6.2433045e+117
-6.2188062e+117
-6.2262789e+117
-6.2620772e+117
-6.2445157e+117
-6.2675647e+117
-6.2499659e+117
-6.2564711e+117
-6.2533884e+117
-6.2562932e+117
-6.1246018e+117
-6.3457479e+117
-6.326213e+117
-6.1071021e+117
-6.2628001e+117
-6.273897e+117
-6.0794696e+117
-6.0637853e+117
-6.2700152e+117
-6.2893484e+117
-6.2166755e+117
-6.2124729e+117
-6.2091765e+117
-6.2063395e+117
-6.2323307e+117
-6.2276642e+117
-6.2236593e+117
-6.2200232e+117
-6.5447822e+117
-6.5658398e+117
-6.7917909e+117
-6.7751751e+117
-6.5071326e+117
-6.7328443e+117
-6.7026208e+117
-6.4819802e+117
-6.3701225e+117
-6.3461827e+117
-6.0819787e+117
-6.5214515e+117
-6.5131664e+117
-6.5513685e+117
-6.560068e+117
-6.5036283e+117
-6.4918035e+117
-6.5278349e+117
-6.5406861e+117
-6.5833137e+117
-6.5738817e+117
-6.5722949e+117
-6.5621751e+117
-6.5622792e+117
-6.5488528e+117
-6.5503739e+117
-6.5368526e+117
-6.3507927e+117
-6.3613706e+117
-6.3998243e+117
-6.3888019e+117
-6.3392016e+117
-6.3767955e+117
-6.3635671e+117
-6.3261534e+117
-6.4588378e+117
-6.4531908e+117
-6.4698945e+117
-6.4758564e+117
-6.4634679e+117
-6.4471011e+117
-6.4399456e+117
-6.4560883e+117
-6.4579014e+117
-6.4476694e+117
-6.4397714e+117
-6.4655274e+117
-6.4784012e+117
-6.472292e+117
-6.4606037e+117
-6.4545104e+117
-6.4335673e+117
-6.4269665e+117
-6.4492876e+117
-6.442119e+117
-6.43468e+117
-6.4197686e+117
-6.411575e+117
-6.4261944e+117
-6.4350514e+117
-6.4262051e+117
-6.4155599e+117
-6.4062462e+117
-6.4506493e+117
-6.443014e+117
-6.4321797e+117
-6.4238645e+117
-6.2405826e+117
-6.3541529e+117
-6.3464759e+117
-6.2030285e+117
-6.1887277e+117
-6.225932e+117
-6.3388661e+117
-6.3737462e+117
-6.3658444e+117
-6.3579492e+117
-6.3907767e+117
-6.3868791e+117
-6.3871543e+117
-6.3913203e+117
-6.3831543e+117
-6.3784474e+117
-6.3828197e+117
-6.3786832e+117
-6.3579867e+117
-6.3537022e+117
-6.3808878e+117
-6.3766666e+117
-6.3726189e+117
-6.3494776e+117
-6.3680288e+117
-6.344836e+117
-6.3745389e+117
-6.3704549e+117
-6.3747752e+117
-6.3705442e+117
-6.3642072e+117
-6.3411495e+117
-6.360073e+117
-6.3372313e+117
-6.3560325e+117
-6.3330814e+117
-6.5325862e+117
-6.4346246e+117
-6.4567623e+117
-6.3874831e+117
-6.4505394e+117
-6.381514e+117
-6.4620399e+117
-6.3932112e+117
-6.4667883e+117
-6.3987023e+117
-6.434416e+117
-6.4287159e+117
-6.3655217e+117
-6.360827e+117
-6.4452854e+117
-6.3762778e+117
-6.4398328e+117
-6.3707668e+117
-6.388861e+117
-6.387104e+117
-6.3455509e+117
-6.3434056e+117
-6.3847715e+117
-6.3810605e+117
-6.3405096e+117
-6.337339e+117
-6.3343946e+117
-6.3778487e+117
-6.3745161e+117
-6.3309194e+117
-6.3712372e+117
-6.3667822e+117
-6.3237514e+117
-6.3274192e+117
-6.3628657e+117
-6.3589934e+117
-6.3159549e+117
-6.3203321e+117
-6.354944e+117
-6.3502589e+117
-6.3068952e+117
-6.3114856e+117
-6.3460205e+117
-6.3418623e+117
-6.2986266e+117
-6.3030452e+117
-6.3374472e+117
-6.3325212e+117
-6.2902525e+117
-6.2944829e+117
-6.2866326e+117
-6.2886921e+117
-6.2687977e+117
-6.2666089e+117
-6.2851256e+117
-6.2823989e+117
-6.2626968e+117
-6.2648725e+117
-6.2775883e+117
-6.2974793e+117
-6.2950344e+117
-6.2751283e+117
-6.2904467e+117
-6.2931583e+117
-6.273003e+117
-6.2705951e+117
-6.2807719e+117
-6.2787185e+117
-6.2611699e+117
-6.2590551e+117
-6.2571911e+117
-6.2771669e+117
-6.2746832e+117
-6.2550411e+117
-6.2716419e+117
-6.2734434e+117
-6.253651e+117
-6.2517212e+117
-6.2677919e+117
-6.2701136e+117
-6.2501015e+117
-6.2483264e+117
-5.7770123e+117
-5.6971797e+117
-5.6854779e+117
-5.8983669e+117
-5.9142039e+117
-6.0162818e+117
-6.1180352e+117
-6.1110722e+117
-5.9813949e+117
-5.9871423e+117
-5.7849909e+117
-5.885783e+117
-5.7802742e+117
-5.8911159e+117
-5.7749419e+117
-5.8752098e+117
-5.7716106e+117
-5.8798871e+117
-5.6719877e+117
-5.8722295e+117
-5.8573679e+117
-5.6592918e+117
-6.0001252e+117
-6.1252349e+117
-6.134887e+117
-5.992676e+117
-5.7828831e+117
-5.7860873e+117
-5.8302177e+117
-5.8277384e+117
-5.7804714e+117
-5.7774941e+117
-5.8261384e+117
-5.8228727e+117
-5.9218081e+117
-5.8708394e+117
-5.8673478e+117
-5.9180399e+117
-5.8725198e+117
-5.8749166e+117
-5.9266757e+117
-5.9240176e+117
-5.9794088e+117
-5.976562e+117
-6.0372838e+117
-6.0403331e+117
-6.1854226e+117
-6.1015104e+117
-6.105111e+117
-6.1808126e+117
-6.1760378e+117
-6.0922204e+117
-6.0975518e+117
-6.1700343e+117
-6.033915e+117
-5.9695103e+117
-5.9736727e+117
-6.0290177e+117
-5.8444762e+117
-5.849333e+117
-5.89765e+117
-5.8922494e+117
-5.8026003e+117
-5.8071673e+117
-5.7651643e+117
-5.7607102e+117
-5.8178418e+117
-5.76878e+117
-5.7735175e+117
-5.811489e+117
-5.9120962e+117
-5.8545203e+117
-5.8615764e+117
-5.9040146e+117
-6.0624742e+117
-6.0696267e+117
-6.1467634e+117
-6.1397873e+117
-6.0772054e+117
-6.0859804e+117
-6.1634904e+117
-6.1545269e+117
-6.022906e+117
-5.9634737e+117
-5.9550538e+117
-6.0143244e+117
-6.0067698e+117
-5.9477253e+117
-5.9414521e+117
-5.9997473e+117
-5.8848947e+117
-5.9093632e+117
-5.8817153e+117
-5.9060716e+117
-5.835046e+117
-5.8327192e+117
-5.8565604e+117
-5.8540583e+117
-5.8407483e+117
-5.862317e+117
-5.8376517e+117
-5.8592411e+117
-5.8788785e+117
-5.9032165e+117
-5.8763073e+117
-5.9005185e+117
-5.79403e+117
-5.8144408e+117
-5.7918486e+117
-5.8122284e+117
-5.799549e+117
-5.8200956e+117
-5.7965673e+117
-5.8169861e+117
-5.7800791e+117
-5.7770332e+117
-5.7606731e+117
-5.7574637e+117
-5.7744952e+117
-5.7723407e+117
-5.7528289e+117
-5.7547911e+117
-5.8741915e+117
-5.8717062e+117
-5.8982253e+117
-5.8956765e+117
-5.8265168e+117
-5.8477134e+117
-5.8459637e+117
-5.8307411e+117
-5.8520122e+117
-5.8283321e+117
-5.8496e+117
-5.8697409e+117
-5.8679929e+117
-5.893778e+117
-5.8921336e+117
-5.7860858e+117
-5.8062019e+117
-5.7899696e+117
-5.8103181e+117
-5.7878973e+117
-5.8079838e+117
-6.1249628e+117
-6.1215624e+117
-6.1735185e+117
-6.1700601e+117
-6.050271e+117
-6.0539804e+117
-6.0918097e+117
-6.0881217e+117
-6.04699e+117
-6.0438763e+117
-6.0848234e+117
-6.0814298e+117
-6.1283197e+117
-6.132337e+117
-6.1816818e+117
-6.1772393e+117
-5.9278477e+117
-5.9545959e+117
-5.9250476e+117
-5.951617e+117
-5.9855044e+117
-5.9890351e+117
-6.0212076e+117
-6.0175425e+117
-5.9340405e+117
-5.9608818e+117
-5.9306968e+117
-5.9575009e+117
-5.9824648e+117
-5.979464e+117
-6.014397e+117
-6.0113702e+117
-6.041096e+117
-6.0379217e+117
-6.0785061e+117
-6.0752337e+117
-6.1183913e+117
-6.1148194e+117
-6.1668302e+117
-6.1628827e+117
-6.1121266e+117
-6.1097514e+117
-6.1598647e+117
-6.1574227e+117
-6.0355109e+117
-6.0334194e+117
-6.0726075e+117
-6.0702747e+117
-5.9720026e+117
-5.9702431e+117
-6.0034267e+117
-6.0015635e+117
-5.9225657e+117
-5.949038e+117
-5.9199777e+117
-5.9464207e+117
-5.9768014e+117
-5.9739987e+117
-6.0086507e+117
-6.0056142e+117
-5.9181262e+117
-5.944536e+117
-5.9164836e+117
-5.9428072e+117
-6.256419e+117
-6.2518305e+117
-6.2658275e+117
-6.2608154e+117
-6.2394898e+117
-6.2358508e+117
-6.2479464e+117
-6.2431713e+117
-6.2846197e+117
-6.2819926e+117
-6.2727651e+117
-6.2697425e+117
-6.2894433e+117
-6.2871361e+117
-6.2723991e+117
-6.2692312e+117
-6.279208e+117
-6.2754665e+117
-6.2825618e+117
-6.2771391e+117
-6.2814885e+117
-6.1176932e+117
-6.3347876e+117
-6.314834e+117
-6.0985467e+117
-6.2927172e+117
-6.2873266e+117
-6.2984477e+117
-6.30484e+117
-6.0783202e+117
-6.0630279e+117
-6.2681144e+117
-6.2872873e+117
-6.2277892e+117
-6.2256496e+117
-6.2218782e+117
-6.2236944e+117
-6.2184876e+117
-6.2203845e+117
-6.2170908e+117
-6.2157939e+117
-6.2437047e+117
-6.2411366e+117
-6.2389556e+117
-6.236848e+117
-6.2350765e+117
-6.2328552e+117
-6.2310971e+117
-6.2292824e+117
-6.5453406e+117
-6.5665865e+117
-6.7952893e+117
-6.7818145e+117
-6.5072106e+117
-6.7330285e+117
-6.7029614e+117
-6.482233e+117
-6.3895577e+117
-6.4060297e+117
-6.1247139e+117
-6.1056415e+117
-6.0692032e+117
-6.080976e+117
-6.5674937e+117
-6.396947e+117
-6.3886411e+117
-6.4296099e+117
-6.4379371e+117
-6.3807397e+117
-6.3710437e+117
-6.4101149e+117
-6.4203593e+117
-6.5912761e+117
-6.5001474e+117
-6.5187032e+117
-6.5148609e+117
-6.496546e+117
-6.4921432e+117
-6.4864893e+117
-6.5102383e+117
-6.5044884e+117
-6.5181432e+117
-6.5805523e+117
-6.5042392e+117
-6.5221299e+117
-6.4999458e+117
-6.5075099e+117
-6.5133346e+117
-6.4949566e+117
-6.488973e+117
-6.4814131e+117
-6.476565e+117
-6.4939085e+117
-6.4992107e+117
-6.4708996e+117
-6.4645884e+117
-6.4817977e+117
-6.4882049e+117
-6.5021043e+117
-6.4835939e+117
-6.4966782e+117
-6.4781507e+117
-6.490866e+117
-6.4844082e+117
-6.4663582e+117
-6.4724604e+117
-6.2367394e+117
-6.2458473e+117
-6.2830407e+117
-6.4038893e+117
-6.3984823e+117
-6.2738295e+117
-6.3931914e+117
-6.3866622e+117
-6.2264062e+117
-6.2630716e+117
-6.3810134e+117
-6.3747113e+117
-6.2526284e+117
-6.3684605e+117
-6.361133e+117
-6.2152346e+117
-6.4207199e+117
-6.4262431e+117
-6.4149085e+117
-6.4083558e+117
-6.428038e+117
-6.4242586e+117
-6.4264504e+117
-6.4304863e+117
-6.4283787e+117
-6.425031e+117
-6.4073037e+117
-6.4039451e+117
-6.4214663e+117
-6.4005889e+117
-6.4172554e+117
-6.3960487e+117
-6.43155e+117
-6.4346852e+117
-6.4372596e+117
-6.4339182e+117
-6.446366e+117
-6.4438355e+117
-6.4490619e+117
-6.4464889e+117
-6.4409595e+117
-6.4377079e+117
-6.4437435e+117
-6.4403548e+117
-6.4402601e+117
-6.437748e+117
-6.4184787e+117
-6.4165913e+117
-6.4349619e+117
-6.4314555e+117
-6.4141626e+117
-6.4104622e+117
-6.4020707e+117
-6.3954674e+117
-6.3887963e+117
-6.3813009e+117
-6.407982e+117
-6.4067286e+117
-6.4030537e+117
-6.4040126e+117
-6.3998718e+117
-6.3946616e+117
-6.3990122e+117
-6.395332e+117
-6.3980728e+117
-6.3939667e+117
-6.3719067e+117
-6.3759739e+117
-6.384951e+117
-6.3673053e+117
-6.3623516e+117
-6.3896802e+117
-6.4209524e+117
-6.422992e+117
-6.4194222e+117
-6.4176781e+117
-6.4141087e+117
-6.4102196e+117
-6.415771e+117
-6.4116563e+117
-6.413732e+117
-6.4100542e+117
-6.3921777e+117
-6.3885069e+117
-6.4062008e+117
-6.4018258e+117
-6.3845576e+117
-6.3800805e+117
-6.295485e+117
-6.3026885e+117
-6.1283462e+117
-6.245945e+117
-6.2392762e+117
-6.2883e+117
-6.1154016e+117
-6.2325257e+117
-6.3310182e+117
-6.3349593e+117
-6.3399564e+117
-6.3439451e+117
-6.3648121e+117
-6.3688261e+117
-6.323646e+117
-6.327332e+117
-6.3362098e+117
-6.3324246e+117
-6.3609221e+117
-6.3568078e+117
-6.3158731e+117
-6.3200922e+117
-6.3286787e+117
-6.3246027e+117
-6.352909e+117
-6.3487957e+117
-6.3727249e+117
-6.3721442e+117
-6.3702129e+117
-6.3698045e+117
-6.3747466e+117
-6.3763974e+117
-6.3760974e+117
-6.3741641e+117
-6.3683157e+117
-6.3666186e+117
-6.3659581e+117
-6.3679136e+117
-6.3638525e+117
-6.3645111e+117
-6.3619808e+117
-6.3614946e+117
-6.3203312e+117
-6.3479397e+117
-6.3459385e+117
-6.3181234e+117
-6.3161263e+117
-6.3439037e+117
-6.3415279e+117
-6.313654e+117
-6.3695091e+117
-6.3715199e+117
-6.3613316e+117
-6.3634013e+117
-6.3651907e+117
-6.3674797e+117
-6.3570546e+117
-6.3592846e+117
-6.3632986e+117
-6.3612627e+117
-6.3551462e+117
-6.3530574e+117
-6.311634e+117
-6.3395872e+117
-6.3375666e+117
-6.3096828e+117
-6.3509449e+117
-6.3591135e+117
-6.3568203e+117
-6.3487024e+117
-6.3355545e+117
-6.3331782e+117
-6.3053999e+117
-6.3078432e+117
-6.3584105e+117
-6.3600706e+117
-6.3595976e+117
-6.3576893e+117
-6.3538658e+117
-6.3563679e+117
-6.3556865e+117
-6.3533848e+117
-6.3530173e+117
-6.3549683e+117
-6.3468242e+117
-6.3448495e+117
-6.3034546e+117
-6.3313048e+117
-6.3294521e+117
-6.3015628e+117
-6.348826e+117
-6.3510483e+117
-6.3429154e+117
-6.3407509e+117
-6.3253581e+117
-6.327617e+117
-6.2999206e+117
-6.2976629e+117
-6.3449684e+117
-6.3469805e+117
-6.3388509e+117
-6.3368381e+117
-6.2958545e+117
-6.323401e+117
-6.3215094e+117
-6.2941816e+117
-6.4704957e+117
-6.4751353e+117
-6.4064605e+117
-6.402748e+117
-6.3746326e+117
-6.4202351e+117
-6.4173251e+117
-6.3715355e+117
-6.4143242e+117
-6.4112445e+117
-6.3659845e+117
-6.3686836e+117
-6.4257594e+117
-6.4226337e+117
-6.380304e+117
-6.3772877e+117
-6.4300303e+117
-6.4280437e+117
-6.3858416e+117
-6.3833013e+117
-6.3983797e+117
-6.3959859e+117
-6.3529906e+117
-6.3505598e+117
-6.393459e+117
-6.390865e+117
-6.3484516e+117
-6.3467594e+117
-6.4090915e+117
-6.4066837e+117
-6.3636399e+117
-6.3608065e+117
-6.4039163e+117
-6.3579551e+117
-6.4008636e+117
-6.3552487e+117
-6.3574211e+117
-6.3576321e+117
-6.3364846e+117
-6.3357087e+117
-6.3546392e+117
-6.3552802e+117
-6.3341412e+117
-6.333202e+117
-6.3522127e+117
-6.3523027e+117
-6.3313706e+117
-6.3307144e+117
-6.348656e+117
-6.3504755e+117
-6.3291188e+117
-6.327567e+117
-6.345516e+117
-6.3471174e+117
-6.3262292e+117
-6.3244188e+117
-6.341915e+117
-6.3437487e+117
-6.3225708e+117
-6.3207716e+117
-6.3384249e+117
-6.3394591e+117
-6.3187766e+117
-6.317502e+117
-6.3344605e+117
-6.336581e+117
-6.3156911e+117
-6.3138255e+117
-6.3304676e+117
-6.3328253e+117
-6.3122455e+117
-6.3098037e+117
-6.3256045e+117
-6.3285982e+117
-6.3076244e+117
-6.3050202e+117
-6.3214523e+117
-6.3239372e+117
-6.303231e+117
-6.3007366e+117
-6.3164215e+117
-6.3196516e+117
-6.2985891e+117
-6.2959419e+117
-6.3122068e+117
-6.3150184e+117
-6.2944248e+117
-6.2917392e+117
-6.3075843e+117
-6.3101681e+117
-6.2895351e+117
-6.2873304e+117
-6.3058892e+117
-6.2856636e+117
-6.3041318e+117
-6.2836542e+117
-6.3021622e+117
-6.2993151e+117
-6.2816332e+117
-6.2793133e+117
-6.2459874e+117
-6.2480037e+117
-6.2442737e+117
-6.2419791e+117
-6.2565245e+117
-6.2540551e+117
-6.2497041e+117
-6.2520184e+117
-6.2404101e+117
-6.2384045e+117
-6.2366079e+117
-6.2345625e+117
-6.2314861e+117
-6.2332915e+117
-6.2283244e+117
-6.230044e+117
-5.789687e+117
-5.8964358e+117
-5.6961955e+117
-5.6843937e+117
-5.8888494e+117
-5.9059988e+117
-6.0061082e+117
-6.141782e+117
-6.1126671e+117
-6.116608e+117
-6.197897e+117
-6.1931297e+117
-6.107e+117
-6.109248e+117
-6.1870926e+117
-6.1893271e+117
-6.0445213e+117
-5.983362e+117
-6.0421673e+117
-5.9811738e+117
-6.0511392e+117
-5.9863463e+117
-5.989523e+117
-6.047671e+117
-5.8008249e+117
-5.846927e+117
-5.7984769e+117
-5.8440774e+117
-5.8855874e+117
-5.8875979e+117
-5.9396987e+117
-5.9376298e+117
-5.8400856e+117
-5.8421052e+117
-5.7967248e+117
-5.7946079e+117
-5.8900744e+117
-5.8935238e+117
-5.9475532e+117
-5.9431682e+117
-5.7911022e+117
-5.7930781e+117
-5.8379765e+117
-5.83562e+117
-5.8771697e+117
-5.8788903e+117
-5.9284712e+117
-5.930349e+117
-5.789765e+117
-5.8325193e+117
-5.834014e+117
-5.7881134e+117
-5.9359694e+117
-5.8807483e+117
-5.9328524e+117
-5.8834164e+117
-5.2649608e+117
-5.2677672e+117
-5.4613163e+117
-5.4694913e+117
-5.6726283e+117
-5.872431e+117
-5.8587012e+117
-5.6605116e+117
-6.0612781e+117
-6.002583e+117
-5.9977231e+117
-6.06644e+117
-6.1196747e+117
-6.1237676e+117
-6.2070294e+117
-6.2021619e+117
-6.1344474e+117
-6.1287757e+117
-6.2188023e+117
-6.2125261e+117
-5.990821e+117
-5.9933513e+117
-6.0565044e+117
-6.0530674e+117
-5.8102734e+117
-5.8102404e+117
-5.7891391e+117
-5.7895876e+117
-5.8128261e+117
-5.8113146e+117
-5.7908323e+117
-5.7924776e+117
-5.8333385e+117
-5.8554976e+117
-5.8318867e+117
-5.8540262e+117
-5.8309664e+117
-5.8532601e+117
-5.8311389e+117
-5.8534802e+117
-5.8102883e+117
-5.8090842e+117
-5.7870936e+117
-5.7886837e+117
-5.8076011e+117
-5.8055965e+117
-5.7840993e+117
-5.7856726e+117
-5.8312389e+117
-5.8535944e+117
-5.8302917e+117
-5.8525559e+117
-5.8287549e+117
-5.8509917e+117
-5.826567e+117
-5.8485705e+117
-5.9231513e+117
-5.9492245e+117
-5.9217354e+117
-5.9475341e+117
-5.8757652e+117
-5.8746513e+117
-5.8978622e+117
-5.8991256e+117
-5.8729873e+117
-5.8703338e+117
-5.8960952e+117
-5.8932596e+117
-5.919852e+117
-5.9170205e+117
-5.9456372e+117
-5.9428767e+117
-5.8757619e+117
-5.8995146e+117
-5.899413e+117
-5.8758483e+117
-5.8777641e+117
-5.9012805e+117
-5.8764784e+117
-5.9002098e+117
-5.9257309e+117
-5.9524382e+117
-5.9513891e+117
-5.9247264e+117
-5.9239376e+117
-5.9504602e+117
-5.9236649e+117
-5.949948e+117
-5.9788766e+117
-6.0072421e+117
-5.9778341e+117
-6.0062067e+117
-5.9768252e+117
-6.0051587e+117
-5.9760934e+117
-6.0041906e+117
-6.0342492e+117
-6.0674833e+117
-6.033237e+117
-6.0663524e+117
-6.0364824e+117
-6.0698963e+117
-6.0353684e+117
-6.0687105e+117
-6.1852984e+117
-6.2367627e+117
-6.1839576e+117
-6.2349072e+117
-6.1011367e+117
-6.1404187e+117
-6.0997848e+117
-6.1385414e+117
-6.1036794e+117
-6.1430942e+117
-6.1025028e+117
-6.1419914e+117
-6.1820734e+117
-6.2326944e+117
-6.1799704e+117
-6.2302889e+117
-6.1776357e+117
-6.2275969e+117
-6.1745926e+117
-6.224147e+117
-6.0930887e+117
-6.0900515e+117
-6.1312998e+117
-6.1280253e+117
-6.0981278e+117
-6.1365216e+117
-6.0955507e+117
-6.1338488e+117
-6.1718255e+117
-6.2213325e+117
-6.1686228e+117
-6.2182502e+117
-6.0319482e+117
-6.0648718e+117
-6.0297464e+117
-6.0624119e+117
-5.9713245e+117
-5.9990001e+117
-5.968528e+117
-5.9961112e+117
-5.9751006e+117
-6.0030241e+117
-5.9732886e+117
-6.0010707e+117
-6.0274739e+117
-6.0245931e+117
-6.0600615e+117
-6.0571587e+117
-5.8455192e+117
-5.8431379e+117
-5.8672964e+117
-5.8647618e+117
-5.8516244e+117
-5.8736796e+117
-5.8480958e+117
-5.8699842e+117
-5.8966845e+117
-5.9219697e+117
-5.892758e+117
-5.9177542e+117
-5.8899276e+117
-5.9147287e+117
-5.8873483e+117
-5.9120113e+117
-5.8042345e+117
-5.8247286e+117
-5.8019634e+117
-5.8224842e+117
-5.8098047e+117
-5.8305938e+117
-5.8066872e+117
-5.8272134e+117
-5.790345e+117
-5.7872048e+117
-5.7710681e+117
-5.7678951e+117
-5.7847696e+117
-5.7824501e+117
-5.762966e+117
-5.7653495e+117
-5.8233677e+117
-5.8449892e+117
-5.8192151e+117
-5.8404866e+117
-5.7957164e+117
-5.7928998e+117
-5.7734974e+117
-5.7757473e+117
-5.8026036e+117
-5.7987491e+117
-5.7782044e+117
-5.7815609e+117
-5.8155794e+117
-5.836858e+117
-5.8124287e+117
-5.8334804e+117
-5.9134065e+117
-5.9392965e+117
-5.9086884e+117
-5.934483e+117
-5.8583834e+117
-5.8810999e+117
-5.8547961e+117
-5.8771747e+117
-5.866579e+117
-5.8894843e+117
-5.8619847e+117
-5.8848311e+117
-5.9046742e+117
-5.9303297e+117
-5.9005048e+117
-5.9259868e+117
-6.060777e+117
-6.0572056e+117
-6.098896e+117
-6.0951781e+117
-6.0690601e+117
-6.0644661e+117
-6.1068645e+117
-6.1024828e+117
-6.147287e+117
-6.1967599e+117
-6.1428206e+117
-6.192142e+117
-6.1393325e+117
-6.1886085e+117
-6.1357732e+117
-6.1851684e+117
-6.0776291e+117
-6.0731198e+117
-6.1156527e+117
-6.1109685e+117
-6.0866018e+117
-6.124438e+117
-6.0818984e+117
-6.1198817e+117
-6.1649833e+117
-6.2146857e+117
-6.1602441e+117
-6.209715e+117
-6.1559939e+117
-6.1514191e+117
-6.2053512e+117
-6.2008337e+117
-6.0211819e+117
-6.0537259e+117
-6.0165458e+117
-6.0490227e+117
-5.9649825e+117
-5.9602218e+117
-5.9925989e+117
-5.9879456e+117
-5.9560039e+117
-5.9515577e+117
-5.9836942e+117
-5.979122e+117
-6.0122298e+117
-6.0076863e+117
-6.0447337e+117
-6.0402307e+117
-6.0036393e+117
-5.9991117e+117
-6.036135e+117
-6.0315113e+117
-5.947491e+117
-5.9431434e+117
-5.9750481e+117
-5.9706319e+117
-5.9369132e+117
-5.9398881e+117
-5.9671896e+117
-5.9639096e+117
-5.995496e+117
-5.9921041e+117
-6.0278365e+117
-6.0243746e+117
-5.8928559e+117
-5.8827895e+117
-5.8943708e+117
-5.8812252e+117
-5.9062306e+117
-5.9187398e+117
-5.9170255e+117
-5.9046245e+117
-5.8782909e+117
-5.8898166e+117
-5.879742e+117
-5.8913461e+117
-5.9031319e+117
-5.9155168e+117
-5.9016021e+117
-5.914013e+117
-5.8345373e+117
-5.8446462e+117
-5.8433318e+117
-5.8331661e+117
-5.83098e+117
-5.8319994e+117
-5.8421591e+117
-5.8410651e+117
-5.8645378e+117
-5.8550454e+117
-5.8659124e+117
-5.8537167e+117
-5.8514128e+117
-5.8622031e+117
-5.8525364e+117
-5.8633296e+117
-5.848732e+117
-5.8400134e+117
-5.850198e+117
-5.8385267e+117
-5.8606519e+117
-5.8716018e+117
-5.8700079e+117
-5.8591302e+117
-5.8458294e+117
-5.8370619e+117
-5.8472658e+117
-5.8356869e+117
-5.8576871e+117
-5.8685615e+117
-5.8562649e+117
-5.8671474e+117
-5.8770126e+117
-5.888525e+117
-5.8870874e+117
-5.8756048e+117
-5.9127408e+117
-5.8988543e+117
-5.9003204e+117
-5.9112361e+117
-5.8743856e+117
-5.8732233e+117
-5.8858652e+117
-5.8846318e+117
-5.9099573e+117
-5.8963532e+117
-5.9086797e+117
-5.8976072e+117
-5.7951284e+117
-5.7937301e+117
-5.8046054e+117
-5.8032091e+117
-5.8130441e+117
-5.8243583e+117
-5.8229593e+117
-5.8144486e+117
-5.7927108e+117
-5.7917541e+117
-5.801162e+117
-5.8021362e+117
-5.8119072e+117
-5.8109337e+117
-5.8218173e+117
-5.8208466e+117
-5.8084083e+117
-5.8003592e+117
-5.8098675e+117
-5.7988532e+117
-5.8197759e+117
-5.82979e+117
-5.8282782e+117
-5.8183157e+117
-5.8058212e+117
-5.7975899e+117
-5.8070682e+117
-5.7963472e+117
-5.8169016e+117
-5.826836e+117
-5.8156257e+117
-5.8255006e+117
-5.7798843e+117
-5.7785303e+117
-5.7905709e+117
-5.789108e+117
-5.7878254e+117
-5.7865361e+117
-5.7771641e+117
-5.7758215e+117
-5.7642894e+117
-5.761502e+117
-5.7746182e+117
-5.773338e+117
-5.7853331e+117
-5.7839862e+117
-5.782957e+117
-5.7819896e+117
-5.7722527e+117
-5.7712549e+117
-5.7568217e+117
-5.7589395e+117
-5.8721953e+117
-5.8835783e+117
-5.8823586e+117
-5.8709282e+117
-5.8687456e+117
-5.8697938e+117
-5.881198e+117
-5.8800858e+117
-5.9061066e+117
-5.8952178e+117
-5.9075033e+117
-5.8939105e+117
-5.8916808e+117
-5.9039115e+117
-5.8927769e+117
-5.9049691e+117
-5.826054e+117
-5.8359847e+117
-5.834987e+117
-5.8250278e+117
-5.8558318e+117
-5.8461993e+117
-5.8568808e+117
-5.8451939e+117
-5.8434779e+117
-5.8541542e+117
-5.8442863e+117
-5.8549033e+117
-5.8389931e+117
-5.8300825e+117
-5.8401425e+117
-5.8289359e+117
-5.850429e+117
-5.8612001e+117
-5.8599103e+117
-5.8492109e+117
-5.8368538e+117
-5.8278418e+117
-5.8378796e+117
-5.8268782e+117
-5.8481181e+117
-5.8588108e+117
-5.8470953e+117
-5.8577927e+117
-5.8678011e+117
-5.8791432e+117
-5.8780744e+117
-5.8667286e+117
-5.8657918e+117
-5.8771702e+117
-5.8650451e+117
-5.8764027e+117
-5.9020064e+117
-5.8907797e+117
-5.9030375e+117
-5.8897256e+117
-5.8881161e+117
-5.888862e+117
-5.9011582e+117
-5.9004321e+117
-5.7873194e+117
-5.7862801e+117
-5.7966567e+117
-5.795624e+117
-5.8053033e+117
-5.8160592e+117
-5.8150301e+117
-5.8063239e+117
-5.7992881e+117
-5.7908352e+117
-5.8003083e+117
-5.7898117e+117
-5.8100913e+117
-5.8199927e+117
-5.818849e+117
-5.8090288e+117
-5.7975857e+117
-5.7890741e+117
-5.7984004e+117
-5.7882853e+117
-5.8080272e+117
-5.8177952e+117
-5.8071725e+117
-5.8168739e+117
-6.1466668e+117
-6.1237819e+117
-6.1484839e+117
-6.1219294e+117
-6.1203346e+117
-6.1450343e+117
-6.1435093e+117
-6.118771e+117
-6.1739454e+117
-6.2039695e+117
-6.171967e+117
-6.2018484e+117
-6.200159e+117
-6.1984779e+117
-6.1703165e+117
-6.1687754e+117
-6.0639617e+117
-6.0470432e+117
-6.0655261e+117
-6.0454196e+117
-6.0487455e+117
-6.0507218e+117
-6.0692059e+117
-6.067248e+117
-6.0857985e+117
-6.0878589e+117
-6.1095034e+117
-6.1073653e+117
-6.1055492e+117
-6.1038193e+117
-6.084036e+117
-6.0824359e+117
-6.0606453e+117
-6.0439387e+117
-6.0624187e+117
-6.0421859e+117
-6.0407162e+117
-6.0591417e+117
-6.0577461e+117
-6.0393378e+117
-6.080965e+117
-6.1023995e+117
-6.0791127e+117
-6.1005204e+117
-6.0989738e+117
-6.0974022e+117
-6.0775959e+117
-6.0761123e+117
-6.1500174e+117
-6.1270028e+117
-6.1519855e+117
-6.1252148e+117
-6.1289159e+117
-6.1311192e+117
-6.1562504e+117
-6.1540217e+117
-6.2124768e+117
-6.1797518e+117
-6.1821465e+117
-6.2099653e+117
-6.2077753e+117
-6.2057485e+117
-6.177622e+117
-6.1756418e+117
-5.9364827e+117
-5.9250964e+117
-5.9379787e+117
-5.9235901e+117
-5.9509979e+117
-5.9650591e+117
-5.963456e+117
-5.9494456e+117
-5.9337423e+117
-5.9222715e+117
-5.935132e+117
-5.9209554e+117
-5.9480652e+117
-5.962045e+117
-5.960658e+117
-5.9466771e+117
-5.9805358e+117
-5.9959392e+117
-5.9821014e+117
-5.9975533e+117
-5.983746e+117
-5.9856244e+117
-6.0010789e+117
-5.9992083e+117
-6.0147703e+117
-6.0166978e+117
-6.0339269e+117
-6.0319704e+117
-6.0302733e+117
-6.0286313e+117
-6.0130876e+117
-6.0114774e+117
-5.92942e+117
-5.9311662e+117
-5.9441347e+117
-5.9423588e+117
-5.9554097e+117
-5.9572392e+117
-5.9714105e+117
-5.9695345e+117
-5.9392694e+117
-5.9278852e+117
-5.9408098e+117
-5.9263782e+117
-5.9679174e+117
-5.9538305e+117
-5.9523111e+117
-5.966388e+117
-5.9929736e+117
-5.9791712e+117
-5.9945542e+117
-5.9775654e+117
-5.9761369e+117
-5.9915301e+117
-5.990059e+117
-5.9747232e+117
-6.0100721e+117
-6.0271924e+117
-6.0084366e+117
-6.0254846e+117
-6.0240462e+117
-6.0226369e+117
-6.0070016e+117
-6.0055588e+117
-6.0380267e+117
-6.0563845e+117
-6.0548396e+117
-6.0364249e+117
-6.0349271e+117
-6.0532794e+117
-6.051834e+117
-6.033591e+117
-6.0747703e+117
-6.0960306e+117
-6.0941485e+117
-6.0730372e+117
-6.0715307e+117
-6.0926064e+117
-6.0910753e+117
-6.0700283e+117
-6.1172703e+117
-6.141921e+117
-6.1399181e+117
-6.1153097e+117
-6.1136801e+117
-6.1381964e+117
-6.1365076e+117
-6.1121252e+117
-6.1672783e+117
-6.1970274e+117
-6.1949088e+117
-6.1651884e+117
-6.1633715e+117
-6.1929959e+117
-6.1912723e+117
-6.1616881e+117
-6.1108875e+117
-6.1352133e+117
-6.1338872e+117
-6.1094438e+117
-6.1071947e+117
-6.108275e+117
-6.1326531e+117
-6.1314801e+117
-6.1602683e+117
-6.1897674e+117
-6.187993e+117
-6.1587195e+117
-6.1564387e+117
-6.1575438e+117
-6.1867706e+117
-6.1856651e+117
-6.0324451e+117
-6.0505821e+117
-6.0493558e+117
-6.031224e+117
-6.0290951e+117
-6.0301416e+117
-6.0482121e+117
-6.0470607e+117
-6.068783e+117
-6.089823e+117
-6.0883396e+117
-6.0673929e+117
-6.0651894e+117
-6.0662857e+117
-6.0872366e+117
-6.0862016e+117
-5.9686071e+117
-5.9837499e+117
-5.9826954e+117
-5.967538e+117
-5.9658224e+117
-5.9666628e+117
-5.9817972e+117
-5.9808879e+117
-5.9990525e+117
-6.015939e+117
-6.014778e+117
-5.9979311e+117
-5.9960867e+117
-5.9970059e+117
-6.0137658e+117
-6.012802e+117
-5.9197402e+117
-5.918317e+117
-5.9325083e+117
-5.9310697e+117
-5.9454224e+117
-5.9439346e+117
-5.9593944e+117
-5.9578643e+117
-5.9171606e+117
-5.9299038e+117
-5.928826e+117
-5.9161088e+117
-5.9566329e+117
-5.9555782e+117
-5.9427437e+117
-5.9416896e+117
-5.9734511e+117
-5.9887703e+117
-5.987245e+117
-5.971903e+117
-5.9706184e+117
-5.9859204e+117
-5.9847227e+117
-5.9695261e+117
-6.004276e+117
-6.0213605e+117
-6.0197382e+117
-6.0026828e+117
-6.0013144e+117
-6.0183067e+117
-6.0170157e+117
-6.0000823e+117
-5.9152324e+117
-5.9279468e+117
-5.9142242e+117
-5.9269576e+117
-5.9397744e+117
-5.9408026e+117
-5.9546782e+117