/*--------------------------------*- C++ -*----------------------------------*\
  =========                 |
  \\      /  F ield         | OpenFOAM: The Open Source CFD Toolbox
   \\    /   O peration     | Website:  https://openfoam.org
    \\  /    A nd           | Version:  7
     \\/     M anipulation  |
\*---------------------------------------------------------------------------*/
FoamFile
{
    version     2.0;
    format      ascii;
    class       surfaceScalarField;
    location    "10000";
    object      phi;
}
// * * * * * * * * * * * * * * * * * * * * * * * * * * * * * * * * * * * * * //

dimensions      [0 3 -1 0 0 0 0];

internalField   nonuniform List<scalar> 
101024
(
-6.1922605e+54
1.4175059e+55
-2.9236574e+55
-3.0236802e+55
-3.1790756e+55
-3.2449939e+55
-3.9351835e+54
4.77854e+53
2.6489041e+54
-5.8686621e+54
-7.2499615e+54
-7.6461096e+54
-6.1653205e+54
-2.7265673e+55
1.6644969e+54
2.1243333e+54
2.1796094e+54
-3.4856538e+55
1.6502868e+54
-9.6732184e+53
-8.6715194e+53
4.2333131e+54
-1.5227378e+56
1.1260953e+54
-6.6833358e+54
9.980052e+54
1.2228647e+55
-6.0891365e+54
2.2249804e+55
-2.7586895e+55
-2.8565321e+55
-2.5262326e+55
-2.6622659e+55
3.9443055e+54
-5.7665219e+54
-6.0845159e+54
-4.5867305e+54
-4.9618326e+54
5.7221188e+53
-2.9787724e+55
-3.0544064e+55
-3.2567194e+55
-3.3343437e+55
-2.0339717e+54
-4.0187591e+54
9.831825e+53
2.332564e+54
-5.7575762e+54
-6.0428534e+54
-7.5761377e+54
-7.1230181e+54
-3.8386935e+54
6.3726897e+53
-5.8818821e+54
-5.8438517e+54
-7.4580018e+54
-7.2366976e+54
-1.0353138e+54
-2.7648768e+55
1.3704741e+54
-2.7484352e+55
-8.5419845e+53
-2.0764736e+53
4.3712945e+53
3.6544298e+53
-1.2354007e+54
-1.6544157e+54
-1.1732996e+54
-1.5462664e+54
-6.234918e+52
-6.1291457e+54
2.1167269e+53
8.3428135e+53
-6.2015384e+54
3.9598609e+53
-1.2024994e+54
-1.1995549e+54
-1.6141423e+54
-1.5823419e+54
2.6668913e+55
9.7998432e+53
1.6481184e+54
-1.7212645e+54
1.6153564e+54
-1.7873759e+54
1.2595788e+54
1.8959272e+54
-1.4657465e+54
1.8882051e+54
-1.5627943e+54
1.1600747e+54
2.1150606e+54
1.9637576e+54
-3.5205889e+55
-9.7540116e+53
-1.0108412e+54
2.1298107e+54
2.0355827e+54
-3.5457587e+55
-9.2082414e+53
-1.0201843e+54
1.2496171e+54
8.7890964e+54
8.9359511e+54
-1.5629443e+56
-5.5400247e+54
2.324258e+54
-5.5237906e+54
-7.1511083e+54
-7.2953183e+54
8.2519892e+54
8.6086945e+54
1.5694119e+53
4.61195e+53
4.5111761e+53
-7.6934534e+54
-1.8804782e+53
-1.8292375e+53
4.7579698e+53
4.4814822e+53
-7.6051122e+54
2.0232947e+53
-1.7464753e+53
-1.8586695e+53
-1.4833651e+56
-6.2142902e+54
-8.2991761e+54
7.2725519e+54
8.2989376e+54
2.6980826e+55
-6.7611509e+53
-3.4376502e+55
5.1988189e+53
8.6856772e+53
-7.9378497e+52
2.7476478e+53
2.81354e+54
-2.6604472e+55
5.0268593e+54
-3.3062357e+55
1.688173e+54
-3.0449884e+55
-3.117141e+55
-2.8277437e+55
-2.9174276e+55
-1.757153e+54
3.2619302e+54
2.703143e+54
-6.7508837e+54
-6.5307274e+54
-6.1388092e+54
-6.4022823e+54
3.3299436e+54
-6.7321795e+54
-6.2736869e+54
-6.1927962e+54
-6.5272805e+54
-2.9621522e+54
4.0052287e+54
-5.8857738e+54
-6.2259124e+54
-5.1499755e+54
-4.7986252e+54
-5.9827779e+54
-5.9923906e+54
-4.887472e+54
-4.8106486e+54
-1.1919387e+54
1.3568266e+54
1.5155131e+53
-6.3828026e+54
-8.9286881e+51
-5.3520239e+54
-1.6639665e+53
6.1140957e+53
3.5771925e+53
-1.4656941e+54
-1.4150138e+54
-1.1411834e+54
-1.1905311e+54
6.2640373e+53
-1.4593129e+54
-1.1764823e+54
-4.0337641e+53
6.3347322e+53
-9.9213281e+53
-1.0587171e+54
-8.2646818e+53
-8.909669e+53
-1.0222994e+54
-8.4491383e+53
-8.616351e+53
-1.5936182e+54
-4.358561e+54
1.9525428e+54
-6.1879172e+54
-5.9194058e+54
-7.2888957e+54
-7.7406985e+54
-4.4702259e+54
1.7684738e+54
-5.9213644e+54
-7.4426417e+54
-5.9958214e+54
-7.7435449e+54
-6.3604385e+53
-2.7936223e+55
4.3561432e+53
-2.8143282e+55
-2.362696e+53
-8.6465937e+53
5.235463e+53
3.4219646e+53
-1.1616248e+54
-1.2030274e+54
-1.5350832e+54
-1.6226519e+54
-8.5713825e+53
-3.9132313e+53
4.672406e+53
-1.1808461e+54
-1.1568109e+54
-1.6170363e+54
-1.5432064e+54
1.0005589e+53
-2.4846697e+53
-6.1550521e+54
-6.0712839e+54
2.1924446e+53
-3.8177692e+53
-8.144031e+53
4.3569262e+53
-1.1547682e+54
-1.2013501e+54
-1.5421468e+54
-1.6144497e+54
-8.0942371e+53
4.2300158e+53
-1.1803482e+54
-1.1643951e+54
-1.5313353e+54
-1.597683e+54
-2.1974578e+53
-6.1860645e+54
-6.090436e+54
-1.8471506e+53
2.9547205e+52
-4.9075219e+52
1.4903108e+53
-2.4876341e+53
-2.476559e+53
-3.476405e+53
-3.3612651e+53
4.7019654e+51
-2.538251e+52
-1.3426521e+54
-1.8492985e+53
1.541851e+53
5.6504995e+52
-2.4140705e+53
-2.536182e+53
-3.2759417e+53
-3.4689243e+53
-1.3088716e+54
3.0525867e+52
-5.4033006e+52
-1.7333705e+53
1.4013569e+53
-2.4040606e+53
-2.5027554e+53
-3.2909917e+53
-3.4455786e+53
-1.8407984e+53
1.449574e+53
-3.4551081e+53
-2.4733203e+53
-2.4228434e+53
-3.3048933e+53
-2.6749476e+52
-1.3249165e+54
-1.3216049e+54
1.6798977e+54
8.6326582e+54
-8.2531851e+54
-8.4496128e+54
-6.7014751e+54
7.2654434e+54
7.5443996e+54
-7.1094563e+54
8.749685e+54
2.7227317e+55
-5.7454384e+53
6.7836902e+53
-1.7462382e+54
-1.965067e+54
1.4874856e+54
1.6118216e+54
-8.8399833e+53
9.8419129e+53
-1.536524e+54
1.8622684e+54
1.8533456e+54
-1.6553412e+54
2.6989502e+55
1.5697647e+54
-1.7810348e+54
-1.8186757e+54
1.6224461e+54
1.8198102e+54
1.907599e+54
-1.6082769e+54
-1.571892e+54
-5.7787333e+54
-9.4367986e+52
7.5436637e+54
1.483766e+53
3.1315304e+53
-4.0977886e+53
-3.9106163e+53
3.1687248e+53
-5.3522263e+52
1.1113591e+53
3.0499452e+53
3.0216841e+53
-4.0547463e+53
-4.2536872e+53
-5.7341372e+54
7.5785852e+54
3.1461562e+53
-4.0445736e+53
-4.0752539e+53
2.9926502e+53
2.8704606e+53
2.981369e+53
-6.0301392e+54
-1.1610039e+53
1.6980969e+53
4.335396e+53
-2.8756406e+53
-3.0839497e+53
4.2966893e+53
-1.1963939e+53
1.6896543e+53
-3.7862757e+53
3.6475794e+53
-3.5215064e+53
3.6447492e+53
-6.041274e+54
-3.0229311e+53
4.3487485e+53
4.2741825e+53
-2.9905347e+53
3.5180195e+53
-3.6851833e+53
3.6591023e+53
-3.6802059e+53
-1.9137102e+53
2.2716733e+53
4.4093906e+53
4.4402903e+53
-7.6918129e+54
-2.0584267e+53
-1.8457265e+53
4.2637035e+53
4.5925988e+53
-7.5968405e+54
-1.9153552e+53
-1.8757217e+53
-1.7120476e+53
4.5020442e+53
4.5224235e+53
-7.5335643e+54
-2.0110447e+53
1.8387386e+53
-1.7255312e+53
4.6603873e+53
4.2325027e+53
-7.6260474e+54
-1.9986994e+53
-1.8264474e+53
7.1976505e+53
2.107927e+54
2.279559e+54
-3.5722619e+55
-9.3711395e+53
-8.8119875e+53
9.2743028e+54
-1.5319816e+56
-5.3450568e+54
-6.816912e+54
6.2973567e+54
7.1394266e+54
-6.3100824e+54
2.0909979e+54
2.2161108e+54
-3.5581837e+55
4.456797e+53
-9.8647982e+53
-9.247153e+53
-4.1275018e+53
2.5029582e+55
-3.0476222e+55
-3.0947505e+53
-9.8224162e+53
2.5204541e+55
-3.140766e+55
1.44801e+52
6.1126684e+53
1.4521728e+54
-5.1510737e+53
3.8814754e+53
-2.1229265e+52
3.0710935e+52
9.6498404e+52
9.9524588e+52
-1.6423222e+54
-3.6589749e+52
-3.955517e+52
1.0370216e+53
9.7608692e+52
-1.6305722e+54
-3.6280089e+52
-3.5969675e+52
-2.5736804e+52
9.8710157e+52
1.0323502e+53
-1.6209716e+54
3.2358023e+52
-3.3893973e+52
-3.7218808e+52
1.0414198e+53
9.98766e+52
-1.6547297e+54
-3.6606959e+52
-3.6226229e+52
-1.1464879e+54
2.4150487e+55
-2.9460475e+55
7.6206364e+53
2.7847717e+55
-3.1731561e+55
-1.2598515e+54
1.5387259e+54
-9.4478715e+53
6.5203823e+53
2.3225059e+55
-4.1078169e+53
-2.2526412e+55
-6.9026952e+53
1.2709701e+54
-1.0007117e+53
-1.6925398e+54
1.4871783e+54
-2.9656516e+55
2.2560456e+53
-2.6626852e+55
8.6317464e+53
-1.4245397e+54
3.0669125e+54
-6.780232e+54
-7.02704e+54
-6.6192759e+54
-6.3771755e+54
3.0471741e+54
-6.9324466e+54
-6.7603038e+54
-6.3917565e+54
-6.4805268e+54
-2.3661213e+54
-6.1574825e+54
-6.4700342e+54
-5.0634628e+54
-5.4037468e+54
-6.2331875e+54
-6.2136458e+54
-5.0947963e+54
-5.1778934e+54
3.0548777e+51
1.2031706e+54
-7.6500087e+52
-2.556091e+54
-5.3245134e+54
1.1960214e+54
-2.5332855e+54
1.4735129e+53
-5.3377616e+54
-1.0371414e+53
1.3512305e+54
2.6572195e+53
-6.4560247e+54
-2.1107961e+53
1.348933e+54
-6.440675e+54
1.2057852e+54
-5.4903565e+52
-2.562184e+54
-5.3973706e+54
-1.9769801e+53
1.3620503e+54
-6.4433295e+54
-1.2105451e+54
1.347014e+54
-6.3754079e+54
-2.4869799e+54
-5.3146748e+54
-2.3130464e+53
5.7489851e+53
4.2885557e+53
-1.429667e+54
-1.4860499e+54
-1.222828e+54
-1.1684463e+54
5.8318705e+53
-4.0027853e+53
-1.1999874e+54
-1.4714902e+54
-1.4353479e+54
-1.1843646e+54
4.3376379e+53
-6.551946e+53
-1.0530731e+54
-8.8550924e+53
-8.8947656e+53
-1.0500554e+54
6.3584447e+53
-1.020997e+54
-1.0899379e+54
-8.6359454e+53
-9.2773104e+53
-3.4993204e+53
6.0926518e+53
-1.4295567e+54
-1.4776045e+54
-1.1619731e+54
-1.2112024e+54
5.9728106e+53
-1.1822187e+54
-1.4630656e+54
-1.4228106e+54
-1.1667747e+54
5.7063723e+53
-1.0312119e+54
-1.0361927e+54
-8.6338553e+53
-8.7356217e+53
-1.0142909e+54
-1.0800044e+54
-8.4925557e+53
-9.0669678e+53
-1.1516271e+54
5.8330752e+53
5.6442008e+53
1.3237458e+53
-6.4016619e+54
-9.1434896e+50
-1.1879562e+51
5.6996477e+52
-6.8257664e+54
-1.8761336e+52
3.1109258e+53
1.3010988e+52
-1.1877276e+54
3.0518741e+53
4.7198173e+51
-1.179262e+54
-6.1378231e+51
3.0080716e+53
3.2137081e+52
-1.1628017e+54
-1.8590978e+52
3.0564197e+53
-1.1726265e+54
3.0557072e+53
-1.1812761e+54
3.037973e+53
-1.167188e+54
-4.1038714e+52
8.0114639e+52
7.748895e+52
-2.2763698e+53
-2.3628898e+53
-1.7676453e+53
-1.6719926e+53
8.3638116e+52
-6.0291198e+52
-1.7408761e+53
-2.3178625e+53
-2.3750507e+53
-1.7408061e+53
-6.351278e+52
1.0395244e+53
-1.5157227e+53
-1.6280043e+53
-1.5377344e+53
-1.6446114e+53
-8.5898938e+52
-1.6041011e+53
-1.5763575e+53
-1.6061264e+53
-1.5725218e+53
8.6174782e+52
-2.2873225e+53
-2.3590437e+53
-1.6733081e+53
-1.7635902e+53
-7.7233109e+52
-1.5366899e+53
-1.4989252e+53
-1.6313862e+53
-1.605681e+53
-1.5900558e+53
-1.561963e+53
-2.8091375e+55
1.6592548e+53
-9.7486022e+53
-3.4235902e+53
6.3520431e+53
-1.2175818e+54
-1.6506855e+54
-1.2068614e+54
-1.5966978e+54
-9.4129908e+53
6.2351806e+53
2.3132048e+53
-1.2427093e+54
-1.6536312e+54
-1.2035626e+54
-1.567114e+54
-3.9175206e+52
-6.1932474e+54
9.3226691e+52
-2.0631806e+53
-6.332304e+54
-9.2232872e+53
3.4103233e+53
5.7784348e+53
-1.1978832e+54
-1.1733737e+54
-1.6379321e+54
-1.5665263e+54
2.1440164e+53
-6.2522003e+54
-9.3927996e+53
6.0847699e+53
-1.1824838e+54
-1.5910394e+54
-1.2264715e+54
-1.6663507e+54
-6.3951823e+54
-2.849402e+52
-1.9777133e+53
1.8224227e+53
5.4229169e+52
-2.419553e+53
-2.5216862e+53
-3.2930111e+53
-3.4840511e+53
-1.8377874e+53
-5.8692211e+52
1.65048e+53
-2.4148677e+53
-2.3991532e+53
-3.4179069e+53
-3.3090498e+53
-1.6486589e+52
-1.3074134e+54
4.1250058e+52
-4.2786148e+52
-1.3278884e+54
-5.9719174e+52
-1.8722202e+53
1.7105088e+53
-3.3053928e+53
-2.3747521e+53
-2.4882918e+53
-3.4680388e+53
-1.7738763e+53
-6.3300226e+52
1.5716096e+53
-2.3823909e+53
-2.354303e+53
-3.2238838e+53
-3.3694533e+53
-3.9975753e+52
-1.3410299e+54
-4.2845839e+52
-1.2944735e+54
-4.2464387e+52
-1.8410718e+53
1.6419917e+53
-2.3704865e+53
-2.4928576e+53
-3.4436054e+53
-3.2500045e+53
-1.7661806e+53
-6.9213519e+52
1.4987292e+53
-2.4230805e+53
-2.3851975e+53
-3.276147e+53
-3.394136e+53
-1.9949869e+52
-1.3082108e+54
-4.5898011e+52
-1.3210904e+54
-6.8236916e+52
-1.823355e+53
1.6135563e+53
-2.382559e+53
-2.4858667e+53
-3.4452601e+53
-3.289763e+53
-1.8120808e+53
1.5509374e+53
-2.4347408e+53
-2.4125231e+53
-3.2578673e+53
-3.3949942e+53
3.998568e+52
-1.2956326e+54
-1.3266709e+54
-1.057929e+52
-4.2836428e+52
9.8441644e+51
5.1441131e+52
-5.1075574e+52
-4.9351873e+52
-7.6395391e+52
-7.9809891e+52
-4.3854522e+52
-9.3915117e+51
5.075294e+52
-5.0798702e+52
-4.9219671e+52
-7.6106557e+52
-7.9616921e+52
-5.0299766e+51
4.2923125e+51
-2.8559707e+53
-4.3496862e+51
-2.8078455e+53
-4.5790439e+51
-4.4100673e+52
5.1696435e+52
1.0741855e+52
-7.5727376e+52
-4.9595697e+52
-5.0464773e+52
-7.9377563e+52
-4.4085773e+52
5.2631883e+52
-4.9542541e+52
-5.0579865e+52
-7.9683011e+52
-7.7093613e+52
-2.1169478e+50
-2.7793781e+53
5.1649556e+51
-2.8366253e+53
-4.8963281e+51
-4.1233125e+52
4.8119933e+52
-4.8345479e+52
-5.0212077e+52
-7.4516768e+52
-7.871338e+52
-4.1392875e+52
-1.1558456e+52
4.9621107e+52
-7.8252824e+52
-4.9354674e+52
-4.8390224e+52
-7.5843442e+52
-9.8058006e+50
-2.7720281e+53
-5.8287866e+51
-2.8157777e+53
4.2196731e+52
-6.2368675e+51
-2.8359707e+53
-1.1285948e+52
5.046363e+52
-5.1100846e+52
-4.9414775e+52
-7.5932064e+52
-7.9423481e+52
-4.1821933e+52
-4.8100979e+52
-4.9278215e+52
-7.7986756e+52
-7.4741945e+52
-2.7711908e+53
-8.2762149e+54
-5.9909101e+54
-6.0704053e+54
7.7763464e+54
7.4515726e+54
8.6176424e+54
-2.7314222e+55
4.2858976e+53
2.0117795e+54
1.9442364e+54
-1.5571209e+54
-1.6190251e+54
-3.038212e+53
2.7335736e+55
1.8556515e+53
-1.774117e+54
1.6168193e+54
-1.8544542e+54
1.5988183e+54
-1.8493438e+54
1.5664787e+54
-1.7949956e+54
1.6126659e+54
2.3049132e+55
-5.6903362e+53
3.8050335e+53
1.5938954e+53
-2.9176131e+53
1.1381378e+53
1.6303883e+52
-2.3505994e+55
4.0749836e+53
1.0747333e+53
3.1464571e+53
-1.5771226e+54
1.9225137e+54
1.8685366e+54
-1.5963918e+54
-4.9816918e+52
5.7796627e+54
8.5664964e+52
-4.1380788e+53
-3.9455223e+53
3.1110636e+53
3.1344335e+53
5.6933125e+54
-6.9756446e+52
-4.4528373e+53
-4.4072917e+53
2.7689147e+53
2.6225841e+53
7.5704036e+52
7.4802916e+54
-1.2728472e+53
2.9938325e+53
-4.131885e+53
-4.139369e+53
2.7983071e+53
7.5292549e+54
1.2610394e+53
-4.1143679e+53
-3.9147767e+53
3.0482485e+53
3.0992104e+53
5.9613522e+54
-9.7820048e+52
1.5181734e+53
-3.5712766e+53
-3.8103012e+53
3.5840171e+53
3.5713984e+53
-1.0665262e+53
1.483685e+53
4.1882892e+53
-3.0854027e+53
-2.8561162e+53
4.2366477e+53
-5.9494666e+54
-1.7465008e+53
4.4191181e+53
-3.070144e+53
-2.9746303e+53
4.0732821e+53
-1.5760543e+53
3.547567e+53
-3.7876553e+53
-3.7437554e+53
3.3365418e+53
-5.7083371e+54
9.9416566e+52
7.5200862e+54
-4.0350393e+53
-4.0544402e+53
3.1872038e+53
2.972041e+53
4.5112931e+52
2.8445953e+53
3.0366024e+53
-4.1668625e+53
-4.1463694e+53
5.8292708e+54
3.0946947e+53
-4.2054127e+53
-4.0211336e+53
3.0688013e+53
7.6271138e+54
3.0569359e+53
-4.193521e+53
-3.9120288e+53
3.0159713e+53
1.6553446e+53
-6.0225651e+54
-3.0429824e+53
-3.0031813e+53
4.4252037e+53
4.1190686e+53
-6.0369036e+54
-3.1392893e+53
-2.9039141e+53
4.2821211e+53
4.1968295e+53
-1.2711547e+53
3.536779e+53
-3.6339773e+53
-3.878709e+53
3.4903479e+53
3.6650338e+53
-3.7356907e+53
-3.7134427e+53
3.4588916e+53
-1.2649552e+54
-2.0201367e+52
1.6062068e+54
2.9826346e+52
-8.149901e+52
6.4560313e+52
-8.5828794e+52
6.5044862e+52
2.3104242e+52
1.2808215e+54
-1.6506528e+54
-2.1543121e+52
-8.562916e+52
-8.5168045e+52
6.6555872e+52
6.273422e+52
-1.6201397e+54
3.0711382e+52
-8.3099495e+52
6.3650144e+52
-8.7710444e+52
6.3676063e+52
-2.0975577e+52
1.6363877e+54
-8.396544e+52
6.6610553e+52
-8.3621046e+52
6.3057293e+52
1.8493738e+52
-1.295516e+54
-1.8744846e+52
-8.8913117e+52
6.6036867e+52
-8.8994106e+52
6.1980206e+52
-1.2759585e+54
2.8391051e+52
-8.6726824e+52
6.2782369e+52
-9.1224782e+52
6.3259479e+52
-1.7474582e+52
2.3069754e+52
5.7975063e+52
5.8005227e+52
-9.4240413e+52
-9.8553372e+52
6.0862057e+52
5.6875329e+52
-9.6572621e+52
-9.7170291e+52
-1.2658415e+54
-1.8806224e+52
1.6219243e+54
-8.3043994e+52
-8.633405e+52
6.2535341e+52
6.320772e+52
1.6243809e+52
1.2562021e+54
-1.6078132e+54
-8.5207064e+52
6.482659e+52
6.1656597e+52
-1.6275318e+54
-8.4883181e+52
6.0816315e+52
-8.8372735e+52
6.1305855e+52
1.5953563e+54
-8.3708708e+52
-8.2485773e+52
6.5073679e+52
6.1403339e+52
1.6858714e+52
-8.8175317e+52
6.4303006e+52
-8.8358496e+52
5.9936398e+52
-9.165233e+52
6.0865371e+52
-1.3010627e+54
2.0566937e+52
-2.4729883e+52
-5.4664627e+52
-5.41546e+52
9.8053271e+52
9.4802621e+52
-2.6407927e+52
1.2861391e+54
-1.6221565e+54
3.2985896e+52
-6.7794415e+52
-6.3465407e+52
8.6269115e+52
8.6867038e+52
-1.6490595e+54
-2.5858658e+52
-6.6922866e+52
-6.6030259e+52
8.7509174e+52
8.4497712e+52
3.1007542e+52
-5.4936386e+52
-5.1270034e+52
9.4425638e+52
9.6176881e+52
2.4333213e+52
1.2793185e+54
-2.4257905e+52
-7.951109e+52
7.0100894e+52
-7.8974134e+52
6.6751667e+52
-1.2648132e+54
-2.1754377e+52
3.1342212e+52
-7.6848986e+52
-7.2734942e+52
7.321241e+52
7.4198992e+52
3.3092591e+52
-7.5992501e+52
6.8404537e+52
-8.0490275e+52
6.8561981e+52
-2.347168e+52
-7.5713719e+52
-7.5331974e+52
7.5420891e+52
7.2076656e+52
1.2922689e+54
-1.6178346e+52
-1.637784e+54
-6.538807e+52
-6.8700582e+52
8.3418001e+52
8.4213961e+52
-1.6806798e+52
-5.3404466e+52
-5.6299462e+52
9.2609635e+52
9.3993359e+52
-1.2845804e+54
-5.3924387e+52
-5.3066328e+52
9.8135899e+52
9.414434e+52
-1.6138614e+54
-6.6515909e+52
-6.5276894e+52
8.734944e+52
8.3749881e+52
1.5389209e+52
-1.2541425e+54
-7.5325215e+52
-7.4385596e+52
7.4665515e+52
7.0864812e+52
1.2713848e+54
-1.6447405e+52
-7.7733164e+52
6.6258491e+52
-8.1068206e+52
6.6754433e+52
-7.4474078e+52
-7.7503772e+52
7.1096412e+52
7.2310227e+52
-7.9166313e+52
6.8641662e+52
-7.8016806e+52
6.4959977e+52
3.535624e+52
-4.0011738e+52
9.4018995e+52
1.0020487e+53
-1.6392711e+54
-3.7991788e+52
-3.9238185e+52
4.0711295e+52
1.0047457e+53
9.693687e+52
-1.6210077e+54
-3.4981856e+52
-3.956011e+52
2.9258153e+52
9.6395137e+52
1.0240154e+53
-1.6108292e+54
-3.6128673e+52
-3.5906904e+52
9.9990498e+52
9.8113251e+52
-1.6474374e+54
-3.5975049e+52
-3.9687858e+52
3.6390591e+52
-4.2148666e+52
1.0164421e+53
9.5843033e+52
-1.645182e+54
-3.7011187e+52
-3.8528651e+52
1.7836635e+53
4.8450957e+53
4.4501662e+53
-7.7445038e+54
-1.8035954e+53
-1.884689e+53
1.0133699e+53
1.0416805e+53
-1.6124952e+54
3.39605e+52
-3.2287629e+52
-3.8258352e+52
3.5854075e+52
9.2739351e+52
9.999821e+52
-1.6062983e+54
-3.7615171e+52
-3.8310135e+52
9.9629472e+52
1.0152183e+53
-1.6551487e+54
-3.5503578e+52
-4.0468115e+52
1.9216134e+53
4.7110956e+53
4.7421731e+53
-7.8586095e+54
-1.7655111e+53
-2.0033941e+53
2.074743e+54
-3.5432348e+55
-9.6653553e+53
2.3337258e+55
3.0580264e+53
-2.9714956e+55
5.5138893e+53
8.0695062e+53
-2.5920598e+53
-2.2958113e+55
9.289078e+53
-2.9733423e+55
4.6155629e+53
1.3181324e+53
4.8436406e+53
4.5671556e+53
-7.824685e+54
-1.8486566e+53
-1.8996283e+53
4.765255e+53
4.6135244e+53
-7.6663643e+54
1.0366838e+53
-1.8996113e+53
-1.7136829e+53
-3.8659015e+53
2.1988471e+55
-2.2504341e+55
3.1239235e+53
-3.9217326e+53
2.4158008e+55
-2.2837117e+55
-4.7232897e+53
3.0947103e+53
2.7939747e+53
-2.3404999e+53
3.9372745e+53
-4.4591732e+51
4.5284037e+51
2.1365988e+52
2.2512666e+52
-3.3844338e+53
-9.3663233e+51
-9.9305003e+51
-5.1176515e+51
2.2264591e+52
2.1260758e+52
-3.4429462e+53
-9.7900192e+51
-9.914954e+51
-3.6754261e+51
2.2202834e+52
2.2976109e+52
-3.4711457e+53
-9.9686693e+51
-9.4149027e+51
2.2996379e+52
2.1435884e+52
-3.3904553e+53
-9.3700385e+51
-9.2396877e+51
-4.6396034e+51
2.2611336e+52
2.2863981e+52
-3.3933204e+53
5.3056426e+51
-8.9843304e+51
-9.6566406e+51
-4.9382602e+51
2.3431515e+52
2.2093762e+52
-3.4686065e+53
-9.6909876e+51
-9.5561771e+51
-3.5551836e+51
2.2003938e+52
2.2691901e+52
-3.4853716e+53
-9.635162e+51
-1.0110513e+52
2.1826125e+52
2.3756303e+52
-3.4260335e+53
-9.5430347e+51
-9.4735252e+51
-1.8799107e+54
2.7090828e+55
-2.5625942e+55
4.8681577e+53
2.4635866e+55
-2.5115818e+55
-4.5519826e+52
1.9190398e+54
1.2392667e+54
1.6499077e+54
1.7335036e+54
-6.3243577e+52
-1.5910713e+54
-7.3877127e+52
1.2656591e+54
2.1268936e+52
-1.1366799e+53
1.3798428e+54
-2.0891074e+54
5.3450466e+53
-2.071619e+54
1.1192821e+54
-1.4394506e+54
-2.9580032e+53
-2.2936131e+53
1.3290377e+54
-2.9981588e+55
-2.650926e+53
-2.9765281e+53
-2.966384e+55
2.2431202e+54
2.293459e+54
1.1929727e+54
-7.7638107e+53
-8.1883353e+53
-2.292929e+51
1.1953315e+54
-2.5996864e+54
-5.441227e+54
1.2132628e+54
-9.5167953e+52
-2.6255207e+54
-5.5219091e+54
5.7618688e+52
-1.9609328e+53
1.3558338e+54
-6.6233734e+54
1.3468055e+54
1.3073348e+53
-6.6017643e+54
-1.2835101e+53
1.2147903e+54
-2.6463058e+54
-5.4677499e+54
1.2016664e+54
-2.5434492e+54
-5.3995224e+54
2.3489635e+53
1.3358174e+54
-6.4950828e+54
1.361556e+54
-6.5884903e+54
-1.5560394e+53
5.380254e+53
2.4571604e+53
-1.461319e+54
-1.2058589e+54
-1.2547231e+54
-1.5169132e+54
5.3460549e+53
-3.6072284e+53
-1.5084236e+54
-1.4739983e+54
-1.2386253e+54
-1.2226408e+54
-3.1467578e+53
-1.1130549e+54
4.1387426e+53
-8.9306593e+53
-1.0511577e+54
-9.4383765e+53
-5.5915129e+53
-1.0817241e+54
-1.0813007e+54
-9.1000651e+53
-9.1642953e+53
-3.628309e+53
5.5252343e+53
-1.4614973e+54
-1.5107956e+54
-1.2497426e+54
-1.2000114e+54
5.5365978e+53
-1.4897374e+54
-1.4537462e+54
-1.205196e+54
-1.2167841e+54
-5.1167637e+53
-1.0462488e+54
-8.8567218e+53
-1.1073505e+54
-9.4199928e+53
-1.0615239e+54
-1.0656635e+54
-9.0398638e+53
-8.9104832e+53
9.0595732e+52
1.1505406e+54
-1.1278042e+53
-6.7486708e+54
1.1630812e+54
1.512637e+53
-6.7908732e+54
-1.7308549e+53
5.7209098e+53
5.8019132e+53
1.9238562e+53
-6.4627056e+54
6.738916e+51
-8.5591169e+51
-1.6206982e+53
5.7856565e+53
5.6000502e+53
-6.4290574e+54
5.1615835e+50
-1.1177778e+52
1.1534309e+54
-5.4586154e+52
-6.8740857e+54
-1.6214161e+53
5.7015147e+53
5.802653e+53
-6.4387973e+54
3.1688238e+51
-4.6132908e+51
-1.1578574e+54
5.7948335e+53
5.6365492e+53
-6.3853731e+54
-1.5530638e+50
-4.9249275e+51
-6.7677737e+54
-3.2307095e+51
3.0330499e+53
3.269611e+52
-1.1903462e+54
3.07617e+53
-1.9226876e+52
-1.1974789e+54
1.9586908e+52
-3.968083e+52
3.0623632e+53
-1.2013529e+54
3.0173059e+53
5.0011326e+52
-1.197296e+54
-3.0376648e+53
-4.3116351e+52
3.0443342e+53
-1.1972183e+54
-2.4012392e+52
-1.1919054e+54
3.0375216e+53
-1.9668347e+52
-1.1834384e+54
3.0201247e+53
-4.2787575e+52
-1.1829533e+54
8.1555869e+52
7.3259634e+52
-8.5541038e+52
-2.3735352e+53
-2.3154235e+53
-1.7581642e+53
-1.7562236e+53
-9.2042995e+52
-7.6506691e+52
1.0241171e+53
-1.5731965e+53
-1.6848904e+53
-1.5600366e+53
-1.6650742e+53
-1.1014338e+53
-1.5783587e+53
-1.5648059e+53
-1.6049459e+53
-1.5784801e+53
8.0086254e+52
-2.4051192e+53
-2.3240649e+53
-1.7283087e+53
-1.8320562e+53
-4.7482642e+52
7.1573077e+52
8.5289627e+52
-2.3141519e+53
-2.4082053e+53
-1.7312743e+53
-1.8328269e+53
7.9987914e+52
-2.3965103e+53
-2.3459869e+53
-1.7838772e+53
-1.7844819e+53
-5.971425e+52
9.9561455e+52
-1.57843e+53
-1.6726533e+53
-1.5736098e+53
-1.671567e+53
-1.6024511e+53
-1.6202513e+53
-1.5868212e+53
-1.5904517e+53
1.6309588e+51
3.0548481e+53
-1.186189e+54
3.0932695e+53
-1.4774319e+52
-1.1902603e+54
-2.0012543e+52
3.0412601e+53
-1.1833888e+54
-3.9771873e+52
3.0580611e+53
-1.1879218e+54
-3.0554386e+53
-4.1670665e+52
3.0208676e+53
-1.176863e+54
-1.8158338e+52
-1.185742e+54
3.0629006e+53
-1.1788842e+54
2.9897487e+53
-1.168993e+54
-7.7022703e+52
7.8210504e+52
8.6791887e+52
-1.6972537e+53
-2.2992242e+53
-2.3789093e+53
-1.7956572e+53
7.8206088e+52
-1.7382994e+53
-2.3055057e+53
-2.3647461e+53
-1.7410248e+53
-1.0084878e+53
1.1340108e+53
-1.5509928e+53
-1.6524769e+53
-1.6370946e+53
-1.5231498e+53
-1.603773e+53
-1.5899815e+53
-1.583027e+53
-1.5948052e+53
-5.4180451e+52
7.9982456e+52
-2.3028505e+53
-1.7027983e+53
-1.8140688e+53
-2.3953571e+53
8.357138e+52
-2.3869148e+53
-2.333364e+53
-1.7648496e+53
-1.7664518e+53
-7.6961166e+52
-1.5486159e+53
-1.6680468e+53
-1.5265932e+53
-1.639303e+53
-1.5990174e+53
-1.6105705e+53
-1.5747555e+53
-1.5837822e+53
-7.9253371e+53
-8.7308561e+52
8.3720415e+52
5.7176116e+53
5.6935226e+53
-6.4914514e+54
-1.2801951e+53
-1.2717748e+53
-4.3685079e+51
3.1792742e+53
1.4727937e+52
-1.5084625e+54
-2.3737001e+51
3.2036229e+53
-1.5112717e+54
3.3734196e+52
-5.3976322e+54
-1.1279723e+52
8.0211115e+53
-5.4693735e+54
5.5976557e+53
-6.4803141e+54
-1.3501321e+53
3.1137555e+53
-1.4995239e+54
-3.6587759e+52
1.2370521e+53
1.2618377e+53
4.0995914e+52
-3.3875912e+53
-3.3081859e+53
-2.500611e+53
-2.4756951e+53
3.2889099e+52
3.5148509e+52
-3.250962e+52
1.2455416e+53
1.2670531e+53
-3.3404524e+53
-3.4062709e+53
-2.5037939e+53
-2.5032053e+53
3.4362942e+52
3.3408e+52
1.2272072e+53
1.2515083e+53
-3.3686936e+53
-3.3131652e+53
-2.4751499e+53
-2.4881041e+53
3.3909834e+52
3.2148875e+52
8.0310564e+50
6.8971894e+52
3.3797852e+51
-1.7708638e+53
6.9581662e+52
-1.5509143e+51
-1.7733259e+53
7.9786462e+51
-1.1484209e+52
4.8827674e+52
-4.620543e+52
-3.0683855e+52
-4.4989721e+52
-3.0625706e+52
4.8197379e+52
1.4323499e+52
-4.6800576e+52
-4.455566e+52
-2.9869298e+52
-3.1543912e+52
-6.9110307e+52
-1.1125389e+52
4.8430982e+52
-4.5020952e+52
-4.690215e+52
-3.1648672e+52
-3.0194998e+52
2.0409278e+51
6.9658726e+52
-8.7281577e+50
-1.7805867e+53
-1.7942e+53
4.9498374e+52
-1.1265464e+52
-3.1061977e+52
-4.6785762e+52
-4.516619e+52
-3.0765895e+52
-7.4531438e+51
1.0401923e+52
1.4371313e+52
-3.7553668e+52
-2.1708904e+52
-2.1323343e+52
-3.6609875e+52
1.0866999e+52
-1.270991e+52
-3.8136669e+52
-2.2008901e+52
-2.0456026e+52
-3.517709e+52
-9.4416816e+51
1.5416846e+52
-3.0497136e+52
-2.8865235e+52
-2.1627822e+52
-2.0159042e+52
-1.3182669e+52
-2.9593629e+52
-2.9571745e+52
-2.0981216e+52
-2.0878788e+52
-1.0992578e+52
-1.2118616e+52
-2.912092e+52
-3.0646288e+52
-2.0350865e+52
-2.1932396e+52
-1.1913488e+52
-3.6687052e+52
-2.1397854e+52
-2.2218289e+52
-3.768038e+52
-9.4156616e+51
-1.1851704e+52
-2.1282865e+52
-2.9967714e+52
-2.970781e+52
-2.1006947e+52
-9.7485574e+51
-2.3016364e+52
-2.0869394e+52
-3.50394e+52
-3.9154571e+52
1.505758e+51
6.8331503e+52
-1.7672137e+53
6.89648e+52
-1.7693087e+53
-7.2580237e+51
4.8609096e+52
-4.633186e+52
-4.4282019e+52
-2.974658e+52
-3.1255191e+52
4.9071212e+52
-4.4783757e+52
-4.6104916e+52
-3.0693279e+52
-3.051649e+52
-8.8441266e+51
-8.2081537e+51
-3.0156834e+52
-2.8660317e+52
-1.9831996e+52
-2.1209899e+52
-6.3609406e+51
-3.5895456e+52
-2.0936859e+52
-2.0995756e+52
-3.6176117e+52
-9.7800861e+51
-1.2753002e+52
-2.9329367e+52
-2.9472871e+52
-2.0485387e+52
-2.0454503e+52
-1.4008308e+52
-2.0098464e+52
-2.1572134e+52
-3.7202061e+52
-3.4206869e+52
-1.2224169e+52
-3.0246167e+52
-2.8826828e+52
-2.0129849e+52
-2.1540745e+52
-3.7869975e+52
-2.1863989e+52
-2.2306577e+52
-3.8489907e+52
-9.4627776e+53
5.8345299e+53
-1.2116651e+54
-1.2278784e+54
-1.653114e+54
-1.5808055e+54
-6.1961084e+54
-1.9885884e+53
-5.695197e+52
4.8834823e+52
1.7751194e+53
-3.3725469e+53
-2.4431788e+53
-2.5343259e+53
-3.5311123e+53
-3.4757447e+52
2.8705887e+52
-1.3591283e+54
-2.0267115e+53
-5.8307792e+52
1.7723715e+53
-2.4920544e+53
-2.4646571e+53
-3.3469427e+53
-3.4970565e+53
-4.1792687e+52
-1.335618e+54
-2.0080727e+53
2.1246856e+52
1.768331e+53
-2.5137021e+53
-2.4871603e+53
-3.5161315e+53
-3.3944673e+53
3.955441e+51
-1.3531625e+54
-2.0502448e+53
1.8568146e+53
3.8446209e+52
-2.4890295e+53
-2.5980587e+53
-3.3704956e+53
-3.5566034e+53
-1.3308972e+54
2.406674e+52
-6.2488456e+52
-1.9965602e+53
6.6333105e+52
1.7926859e+53
-2.4216224e+53
-2.5051997e+53
-3.374065e+53
-3.5125172e+53
-1.9560776e+53
1.750259e+53
-2.4517742e+53
-2.4022324e+53
-3.4555176e+53
-3.3009871e+53
-4.6880388e+52
5.3293192e+52
-1.3594914e+54
-1.3227477e+54
-2.0751381e+53
-3.7164205e+52
1.8685509e+53
-2.4243443e+53
-2.5336845e+53
-3.3386432e+53
-3.5330128e+53
-2.0966066e+52
-1.3482703e+54
-1.9986946e+53
1.7766077e+53
-2.4583343e+53
-3.4841313e+53
-2.4390343e+53
-3.3694402e+53
-1.3596757e+54
-3.9713224e+51
-4.7061783e+52
5.8399503e+52
9.176814e+51
-5.2584413e+52
-4.9560838e+52
-7.595698e+52
-8.0396135e+52
-4.6165419e+52
-1.0049848e+52
5.7133344e+52
-5.1126019e+52
-4.9248769e+52
-7.9370945e+52
-7.7312132e+52
-3.0198666e+51
-2.7950739e+53
7.50143e+51
-8.8343017e+51
-2.84588e+53
-1.215106e+52
-4.2683527e+52
5.2886407e+52
-5.089092e+52
-4.420418e+52
-7.4769626e+52
-7.9723589e+52
-4.3417348e+52
-1.0978991e+52
5.3306058e+52
-4.8665939e+52
-4.899991e+52
-7.8228925e+52
-7.5081214e+52
-7.7513272e+51
-2.8391293e+53
-7.5494851e+51
-2.7868111e+53
4.4771545e+52
-3.4765393e+51
-2.7975425e+53
-7.0196367e+51
5.5420666e+52
-5.0339146e+52
-4.7955958e+52
-7.4936813e+52
-7.8851737e+52
-4.4722842e+52
-1.2788927e+52
5.4864788e+52
-4.9388497e+52
-4.930121e+52
-7.8487632e+52
-7.6024497e+52
-9.7616613e+51
-2.8371976e+53
-1.357064e+52
-4.2344107e+52
5.2217351e+52
-5.0052266e+52
-4.4511391e+52
-7.4057059e+52
-7.8709929e+52
-4.2514184e+52
-1.1829435e+52
5.2379117e+52
-4.7836605e+52
-4.8186665e+52
-7.6988262e+52
-7.4024816e+52
8.5926555e+51
-7.1026679e+51
-2.7365318e+53
-2.8046022e+53
-5.8278018e+51
-4.3377221e+52
5.2651337e+52
-5.0415421e+52
-4.8527235e+52
-7.470341e+52
-7.8678197e+52
-4.3890215e+52
-1.2187778e+52
5.2936245e+52
-4.7799212e+52
-4.9572118e+52
-7.8782608e+52
-7.5817787e+52
2.1232314e+51
-7.8246826e+51
-2.8207467e+53
-2.764202e+53
-1.2842966e+52
-4.2666024e+52
5.3578715e+52
-4.9699576e+52
-4.8113872e+52
-7.5616691e+52
-7.9135371e+52
-4.2660569e+52
-1.3609649e+52
5.2392185e+52
-4.6801669e+52
-4.8661479e+52
-7.7709354e+52
-7.4312169e+52
7.7248438e+51
-7.3982705e+51
-2.765828e+53
-2.8197457e+53
-7.3659313e+51
-4.3492892e+52
5.1924034e+52
-4.9801582e+52
-4.8955751e+52
-7.5249674e+52
-7.8923765e+52
-4.3128889e+52
-1.3325274e+52
5.1685028e+52
-4.8345863e+52
-4.855073e+52
-7.8474587e+52
-7.5812315e+52
3.032805e+51
-8.1789712e+51
-2.8251824e+53
-2.7872139e+53
-1.3050444e+52
-4.414836e+52
5.5416356e+52
-4.8522111e+52
-7.6043605e+52
-5.1044843e+52
-7.9406368e+52
-4.4695671e+52
5.3429724e+52
-4.9748655e+52
-4.8388342e+52
-7.877482e+52
-7.5383095e+52
7.3436615e+51
-2.7626596e+53
-2.8208153e+53
6.3295217e+50
-6.4713243e+51
-1.188561e+51
1.8078574e+52
-6.2127198e+52
-6.801834e+51
9.95018e+50
1.8839122e+52
-6.1751207e+52
-1.5506448e+50
7.8992197e+50
-6.1828125e+52
-1.0941521e+51
-6.2650215e+52
-2.922175e+51
-7.6381625e+51
2.1379961e+52
-6.2806881e+52
-6.3699839e+51
-1.4830836e+51
1.6882635e+52
-6.1171395e+52
1.6595261e+51
-8.5251848e+50
-6.1457399e+52
-6.2933403e+52
7.7356032e+51
-7.9949567e+49
-6.1613756e+52
8.4208571e+50
-7.8303352e+50
2.0567107e+52
8.3363767e+50
-6.2477798e+52
-6.4390074e+51
-1.1198957e+51
1.7565201e+52
-6.1254072e+52
-7.2788969e+50
-6.2304632e+52
2.1731605e+51
-6.2420121e+51
1.6567126e+52
-6.1045771e+52
-7.0278017e+51
1.9466009e+52
-6.1964786e+52
-1.25921e+51
-6.2747967e+52
-6.1711144e+52
-9.2951645e+50
-6.6907468e+51
1.8672681e+52
-6.0880956e+52
-6.2657397e+51
-1.2664716e+51
1.7270201e+52
-6.0879546e+52
-9.8758742e+49
-6.0595272e+52
-9.2965365e+50
-6.1635538e+52
6.1591256e+51
-1.3875435e+51
-6.1689444e+52
-2.194923e+51
1.8382408e+52
-6.0649487e+52
-5.5975781e+51
-4.4618392e+50
1.521138e+52
-5.9752726e+52
-8.5405622e+50
-6.0713726e+52
9.9216494e+50
-7.0015359e+51
-2.1595188e+51
1.9124275e+52
-6.2056176e+52
-7.3827288e+51
2.0517894e+52
-6.2003926e+52
-4.6313792e+50
-6.1502858e+52
-1.5245191e+51
-6.2387502e+52
2.4368067e+51