/*--------------------------------*- C++ -*----------------------------------*\
  =========                 |
  \\      /  F ield         | OpenFOAM: The Open Source CFD Toolbox
   \\    /   O peration     | Website:  https://openfoam.org
    \\  /    A nd           | Version:  7
     \\/     M anipulation  |
\*---------------------------------------------------------------------------*/
FoamFile
{
    version     2.0;
    format      ascii;
    class       volScalarField;
    location    "6000";
    object      nut;
}
// * * * * * * * * * * * * * * * * * * * * * * * * * * * * * * * * * * * * * //

dimensions      [0 2 -1 0 0 0 0];

internalField   nonuniform List<scalar> 
33899
(
1.4292496e-36
1.1763744e-36
3.9347978e-37
1.269067e-36
1.2746198e-36
1.9828906e-36
2.1788066e-36
1.9349353e-36
2.0664411e-36
3.9518515e-37
4.0092706e-37
3.1396476e-37
2.1649877e-37
2.1067514e-37
2.2962932e-37
2.2980018e-37
2.3845569e-37
7.1659613e-37
8.8204699e-37
2.4578745e-37
1.327381e-36
1.3393476e-36
2.6271236e-36
2.6026898e-36
1.9024143e-36
1.9544777e-36
1.3030904e-36
3.5423383e-36
1.3116595e-36
2.6262433e-36
2.3092569e-36
6.9838459e-37
3.9351882e-37
4.0071118e-37
2.1864774e-37
2.0496911e-37
2.3181683e-37
2.3568759e-37
2.3017829e-37
2.3250185e-37
2.13547e-37
2.3702808e-37
2.4095675e-37
2.4098006e-37
6.731004e-37
8.8956084e-37
3.1798294e-37
3.035493e-37
3.7172876e-37
4.0477776e-37
3.9907291e-37
4.494524e-37
3.3183197e-37
1.1076612e-37
1.1838262e-37
1.0975637e-37
1.2226258e-37
1.3156245e-37
1.6687546e-37
1.663705e-37
1.6459874e-37
1.7406168e-37
1.1624683e-37
1.8189796e-37
1.8300598e-37
1.5057713e-37
1.6039873e-37
1.5203424e-37
1.4922075e-37
1.0522013e-37
1.0974262e-37
1.282229e-37
1.3614279e-37
1.7348649e-37
1.8251059e-37
1.1901377e-37
1.7428455e-37
1.9263017e-37
1.3266631e-37
1.683544e-36
1.3142267e-36
1.3332023e-36
2.006426e-36
2.2431364e-36
1.9247114e-36
2.0214553e-36
7.4601342e-37
1.7408049e-36
2.5852028e-36
1.7632236e-36
2.8774935e-36
2.3572479e-36
2.1619715e-36
6.5037727e-36
9.0775455e-37
2.2196869e-36
7.2068128e-36
1.4285387e-36
1.5172923e-36
7.5393263e-37
6.7439406e-37
6.7548325e-37
2.4287292e-37
2.473669e-37
9.1539389e-37
2.5366869e-37
2.7442748e-37
2.4121696e-37
2.152393e-37
2.3724186e-37
2.4499777e-37
3.9110882e-37
1.2940482e-37
1.1532607e-37
1.0547375e-37
1.088848e-37
1.1149379e-37
1.6757906e-37
1.5289704e-37
1.6693433e-37
1.6805108e-37
1.6888341e-37
1.6459189e-37
1.535234e-37
1.59975e-37
1.0579859e-37
1.2743366e-37
1.1925021e-37
1.2516547e-37
1.0505294e-37
1.8084401e-37
1.7898584e-37
1.1548182e-37
1.1534987e-37
1.097397e-37
1.2342947e-37
1.3636368e-37
1.4884278e-37
1.6213858e-37
1.6062454e-37
1.6438997e-37
1.594351e-37
1.6547958e-37
1.5733235e-37
1.5525785e-37
1.2245735e-37
1.1006516e-37
1.065632e-37
1.2851843e-37
1.2096585e-37
1.6942356e-37
1.572501e-37
1.7117669e-37
1.8545152e-37
3.5605418e-37
3.7282941e-37
4.1616227e-37
3.3790391e-37
3.3428763e-37
3.530848e-37
3.7746047e-37
2.7830761e-37
2.8220938e-37
3.2118129e-37
2.8139341e-37
2.7283155e-37
3.0995063e-37
3.1371646e-37
2.4837036e-37
2.7984107e-37
2.8130544e-37
2.9742804e-37
2.9936923e-37
2.8220472e-37
3.1151733e-37
2.7831676e-37
2.527744e-37
2.8867331e-37
2.6072317e-37
2.6431427e-37
2.6142897e-37
3.0235772e-37
5.4281154e-38
9.1262831e-38
9.0530152e-38
5.9890478e-38
9.1919803e-38
9.0224476e-38
9.1117574e-38
8.888759e-38
7.5779498e-38
9.5472537e-38
8.6944955e-38
8.2382727e-38
1.0615051e-37
9.8998772e-38
9.8650113e-38
8.9818791e-38
1.045145e-37
1.0016738e-37
9.321565e-38
1.2727496e-37
1.8458252e-37
1.8724236e-37
2.1096468e-37
2.1063006e-37
1.9844208e-37
1.8546553e-37
1.953911e-37
2.1762944e-37
2.2518718e-37
2.2324877e-37
2.0311502e-37
2.0229254e-37
2.0304985e-37
2.1831488e-37
2.0917903e-37
2.0633526e-37
5.9282298e-38
5.8413461e-38
7.2502299e-38
7.6948148e-38
7.9991743e-38
8.6146332e-38
1.9290547e-37
1.7283152e-37
1.7620628e-37
1.7346838e-37
1.9358391e-37
1.7563616e-37
2.0137261e-37
1.8839247e-37
1.8498721e-37
1.7259535e-37
1.8767733e-37
1.8967604e-37
1.727267e-37
1.7446346e-37
1.7075681e-37
1.720322e-37
8.5215414e-38
7.493769e-38
8.1982218e-38
7.5474711e-38
7.9121105e-38
7.8833863e-38
7.9358855e-38
7.9169937e-38
7.7640232e-38
1.1118052e-37
9.6206201e-38
8.9433202e-38
8.7599823e-38
9.6832827e-38
1.0118252e-37
1.0808396e-37
1.6055087e-37
1.7512247e-37
8.792792e-38
5.480156e-38
5.8062975e-38
8.561043e-38
8.8462168e-38
9.3979932e-38
8.9474799e-38
9.4396194e-38
1.1987094e-37
1.1654816e-37
1.6557356e-36
2.2744224e-36
2.1889174e-36
1.8046973e-36
1.9687264e-36
1.3671697e-36
1.7626387e-36
2.3488317e-36
2.1025389e-36
9.1492716e-37
2.1085306e-36
2.1940684e-36
2.0196897e-36
1.9627134e-36
7.2308798e-37
7.0859933e-37
3.7229438e-36
2.5126886e-36
2.0641206e-36
2.2365483e-36
2.6118555e-36
2.2094099e-36
6.1615155e-37
1.1497269e-36
1.1166337e-36
7.3933198e-37
2.5952157e-36
1.6101651e-36
2.0769332e-36
2.6114185e-36
1.7471619e-36
2.1963874e-36
1.6556637e-36
1.5439078e-36
2.9357327e-36
2.8852217e-36
2.8375579e-36
2.3877012e-36
5.3031924e-36
1.07746e-36
2.3799776e-36
2.7681575e-37
7.4495571e-37
2.5063453e-37
6.4716513e-37
1.0123078e-36
2.6002967e-37
2.5912828e-37
1.6892048e-37
1.20773e-37
1.941974e-37
2.0283781e-37
1.3460942e-37
1.2337631e-37
1.2804108e-37
1.6900289e-37
1.5603171e-37
1.8603545e-37
1.047146e-37
1.357332e-37
1.4715575e-37
1.0813422e-37
1.4009379e-37
1.4435457e-37
1.040556e-37
1.0918901e-37
1.0391752e-37
1.24973e-37
1.3452827e-37
1.0683703e-37
1.588822e-37
1.4508879e-37
1.7850196e-37
1.6709685e-37
1.5712546e-37
1.5840697e-37
1.2211781e-37
1.1917575e-37
1.0080243e-37
1.0643533e-37
2.7990183e-37
2.7865866e-37
2.7091309e-37
6.0209388e-38
8.3553183e-38
1.1656675e-37
1.0378582e-37
9.2078792e-38
5.5774915e-38
9.4558108e-38
8.5057626e-38
9.3469786e-38
1.043422e-37
8.3268048e-38
8.7103259e-38
8.6147073e-38
8.4414613e-38
7.9865087e-38
7.5290087e-38
7.7697941e-38
8.1294765e-38
8.9413707e-38
8.8146677e-38
2.0962977e-37
1.9919525e-37
2.3085871e-37
2.5028941e-37
2.071214e-37
1.9599134e-37
2.0283317e-37
2.3462016e-37
2.5229478e-37
2.4278865e-37
2.1430136e-37
2.2847263e-37
2.1128882e-37
2.1156173e-37
2.313133e-37
2.1855771e-37
2.1512002e-37
2.0461803e-37
2.0213656e-37
1.9767094e-37
1.7127145e-37
1.8205509e-37
1.7923202e-37
1.6807778e-37
2.1595809e-37
1.7022817e-37
1.7928918e-37
2.1981535e-37
2.0785266e-37
1.9143162e-37
1.8959377e-37
1.9638474e-37
8.3806776e-38
8.3701925e-38
7.7850799e-38
8.0725699e-38
6.101323e-38
9.0452142e-38
8.7348187e-38
8.7070487e-38
1.2477646e-37
6.122266e-38
7.5186605e-38
7.2099167e-38
9.1404832e-38
1.0391526e-37
7.7310639e-38
9.8459659e-38
8.0256265e-38
7.9939497e-38
7.3714496e-38
8.4290674e-38
8.5570651e-38
7.8714896e-38
5.5651876e-38
5.806639e-38
8.2640333e-38
7.8008804e-38
8.5510327e-38
8.6788877e-38
7.8328282e-38
8.3357448e-38
8.2020417e-38
9.3523753e-38
8.4665917e-38
8.3017365e-38
9.1168306e-38
8.4345408e-38
8.4579614e-38
1.0877942e-37
1.0615503e-37
1.0728701e-37
8.0912912e-38
1.0948464e-37
1.8123065e-37
1.6149662e-37
1.7987014e-37
1.9867431e-37
1.9519535e-37
1.728868e-37
1.8575233e-37
2.1387479e-37
2.1734192e-37
2.0625241e-37
1.8859323e-37
1.989139e-37
1.9108465e-37
1.9764252e-37
2.0414745e-37
1.9140021e-37
2.019036e-37
1.8073719e-37
1.8642943e-37
2.0308515e-37
2.0750582e-37
1.7877338e-37
1.9176047e-37
2.1742319e-37
1.7662986e-37
1.8440691e-37
2.0074759e-37
1.8740913e-37
1.8240212e-37
1.8266598e-37
1.9865335e-37
1.8676689e-37
5.9644938e-38
5.9879814e-38
7.3542117e-38
7.5080408e-38
8.816524e-38
8.9673512e-38
7.9105585e-38
8.6758222e-38
8.1871774e-38
9.0103779e-38
7.9528227e-38
8.3072058e-38
9.9303816e-38
9.2488824e-38
7.7447586e-38
1.0537682e-37
9.7304638e-38
9.9781586e-38
7.8977489e-38
1.0507303e-37
9.1590045e-38
8.6907787e-38
1.5812761e-37
1.7660137e-37
2.6320327e-37
2.5161044e-37
2.6615079e-37
2.7439704e-37
2.5429174e-37
2.5516873e-37
2.5171719e-37
2.6160852e-37
2.9873346e-37
2.9138327e-37
2.6459544e-37
2.5566675e-37
2.6313726e-37
2.4223094e-37
2.6726189e-37
2.4930473e-37
2.6952725e-37
2.4581264e-37
2.8004334e-37
2.9938706e-37
2.573589e-37
2.4160817e-37
2.729132e-37
2.8821563e-37
2.508677e-37
6.9476555e-37
6.8537911e-37
7.4107454e-37
6.6861345e-37
7.9850579e-37
8.1947209e-37
8.7541561e-37
7.5325383e-37
6.7496728e-37
6.7246096e-37
7.1400998e-37
6.9946311e-37
7.6494201e-37
8.3360632e-37
8.046613e-37
7.3865438e-37
6.8870779e-37
6.4229389e-37
6.6138783e-37
8.1299428e-37
6.113027e-38
3.671661e-38
5.5996665e-38
3.7969112e-38
4.7012647e-38
5.2528059e-38
3.5658947e-38
3.7703721e-38
9.0689039e-38
6.3827138e-38
3.1386475e-37
2.3178794e-37
3.9717584e-37
3.5749037e-37
2.8666609e-37
3.5311981e-37
3.6619098e-37
3.6413984e-37
1.639181e-37
5.7003585e-38
7.0263819e-38
1.334121e-37
6.4885002e-38
5.7316061e-38
1.5518589e-37
1.5714562e-37
4.6571666e-37
4.9234543e-37
4.0476479e-37
3.8155127e-37
5.475894e-37
5.0374233e-37
4.2656055e-37
4.1331861e-37
5.6343856e-37
5.3719907e-37
5.1936879e-37
5.4103591e-37
4.9477718e-37
5.3675429e-37
4.9600001e-37
5.1093412e-37
7.6146721e-38
4.0980039e-38
3.783356e-38
5.936995e-38
9.0419809e-38
3.8512997e-38
3.5074647e-38
5.7468634e-38
5.6516781e-38
5.5923511e-38
6.3841038e-38
7.0699767e-38
4.9915682e-37
4.2885694e-37
3.6008835e-37
3.4806274e-37
4.3912672e-37
4.3553365e-37
3.7489145e-37
3.7693799e-37
4.9286374e-37
4.7612967e-37
4.9509195e-37
4.8566501e-37
4.5360702e-37
4.855283e-37
4.7047892e-37
4.675049e-37
3.7711197e-37
2.0724483e-37
2.4442884e-37
2.8522525e-37
2.4413754e-37
2.5635989e-37
3.1504425e-37
3.0796758e-37
7.3784471e-38
6.565358e-38
1.1488202e-37
1.2775047e-37
6.906716e-38
5.897632e-38
1.3446032e-37
1.4418132e-37
9.8382792e-38
1.1499568e-37
1.0845907e-37
6.8433896e-38
5.2823319e-38
5.5541832e-38
3.8033936e-38
3.9992686e-38
6.3377513e-38
5.6033496e-38
8.328198e-38
3.8575359e-38
3.7121982e-38
6.0530597e-38
2.6246451e-37
2.9313778e-37
1.5238481e-37
5.747482e-38
7.3404195e-38
1.6253468e-37
6.4689331e-38
1.6207367e-36
1.7907671e-36
2.326947e-36
2.3208895e-36
2.0506821e-36
1.3791554e-36
1.6872251e-36
2.2955141e-36
2.2695095e-36
1.516586e-36
1.9583683e-36
9.1284606e-37
3.7716143e-36
8.8112319e-37
3.0504113e-36
9.5608697e-37
8.8723465e-37
4.8797362e-36
1.9358116e-36
2.0066737e-36
7.1505185e-37
7.2594669e-37
1.0658796e-35
2.7777181e-36
5.1991986e-36
2.6560176e-36
2.4680284e-36
2.3164248e-36
6.1460591e-37
9.051746e-37
1.1087519e-36
8.3565993e-37
7.6034663e-37
5.9594252e-37
1.129821e-36
1.1420779e-36
7.3301283e-37
9.0971554e-37
3.9584317e-36
1.603836e-36
2.763516e-36
3.2370662e-36
1.7136645e-36
2.2217036e-36
1.7249885e-36
1.8751162e-36
6.4260357e-37
4.5037605e-37
6.4254298e-37
1.0266505e-36
5.2537793e-37
1.8281609e-36
1.6858248e-36
2.3817037e-36
5.9255189e-37
3.6906198e-36
2.6569679e-36
9.5482779e-36
1.1893112e-36
6.5898789e-36
2.3626677e-36
1.513561e-36
4.5145918e-37
2.1065785e-36
1.1634451e-36
2.259202e-36
1.8282168e-36
1.1141026e-36
1.1465831e-36
1.0551255e-36
1.9954393e-36
1.9507119e-36
4.1364958e-37
3.9803984e-37
3.7587475e-37
3.6726079e-37
2.7870788e-37
2.4595481e-37
7.2209953e-37
4.7615873e-37
3.926396e-37
4.3619939e-37
5.2878985e-37
6.3026833e-37
1.8241163e-37
1.3102181e-37
1.4093858e-37
1.6881372e-37
1.8721702e-37
1.4003259e-37
1.2660233e-37
1.4422266e-37
1.002559e-37
1.0195355e-37
1.5621346e-37
7.7319006e-38
8.5178288e-38
8.7496476e-38
5.6746034e-38
6.2006557e-38
8.9468401e-38
6.3224622e-38
6.2604102e-38
7.6003066e-38
7.280654e-38
5.6919912e-38
5.8521212e-38
8.0898333e-38
7.6457452e-38
6.2119954e-38
6.2439815e-38
7.2869531e-38
7.3490938e-38
9.2308399e-38
8.7395592e-38
1.7730324e-37
9.4874223e-38
9.081768e-38
7.600166e-38
7.5700069e-38
7.5064741e-38
8.7394338e-38
9.0955866e-38
8.0014683e-38
9.5554338e-38
1.0840243e-37
8.476391e-38
9.1849297e-38
8.02882e-38
8.1488165e-38
8.0458033e-38
8.1181032e-38
2.0035211e-37
2.0971212e-37
7.6617956e-38
9.9301402e-38
8.2822381e-38
8.4866742e-38
8.2329282e-38
8.9622892e-38
8.0885465e-38
9.0298243e-38
7.7373819e-38
7.7937261e-38
7.8511621e-38
7.8279526e-38
7.9951007e-38
7.6888215e-38
7.8196361e-38
8.251661e-38
8.4745607e-38
8.4556378e-38
7.7342116e-38
7.2491518e-38
7.8122532e-38
7.9092569e-38
9.1120453e-38
1.0548831e-37
7.6329663e-38
1.1088599e-37
9.7832581e-38
8.9317995e-38
7.513758e-38
7.4134808e-38
8.0132038e-38
8.1749859e-38
1.8919194e-37
1.8273151e-37
1.9342667e-37
1.8461656e-37
1.8078585e-37
2.0586128e-37
2.4653993e-37
2.3500591e-37
1.9410074e-37
2.4818876e-37
2.0514714e-37
2.2742275e-37
2.3121784e-37
2.1182311e-37
2.3006535e-37
1.9688432e-37
1.9724716e-37
1.9356612e-37
1.8475013e-37
2.114582e-37
2.0261781e-37
9.0515781e-38
8.1129635e-38
7.9863876e-38
1.1460704e-37
7.9286014e-38
9.1778028e-38
9.4349906e-38
1.0348887e-37
7.9914854e-38
8.6381158e-38
8.1210376e-38
8.0742122e-38
8.3540583e-38
8.1981073e-38
8.8627507e-38
8.6657631e-38
6.5622911e-37
6.6597878e-37
6.4474982e-37
9.6893329e-38
3.4499094e-38
3.3178533e-38
6.4723658e-38
5.998044e-38
5.5340357e-38
1.3164939e-37
1.2703465e-37
6.1629671e-38
3.415372e-38
3.6701833e-38
6.4253481e-38
5.741643e-38
5.2942186e-38
1.5585688e-37
1.74062e-37
4.044355e-37
3.2756798e-37
4.3581624e-37
5.0564987e-37
4.010976e-37
2.859882e-37
3.413293e-37
4.5682611e-37
4.7915325e-38
5.395625e-38
4.8617088e-37
6.3603335e-37
7.310731e-37
4.8242771e-37
5.9734644e-37
6.0204869e-37
4.0084431e-37
4.1859335e-37
6.1109011e-37
6.2701947e-37
5.5767659e-37
5.6528008e-37
5.0697461e-37
5.4381e-37
5.275837e-37
5.0953142e-37
3.6959056e-37
5.276107e-37
3.6869401e-37
5.3249273e-37
4.6032572e-37
4.8554668e-37
4.8490206e-37
4.5263081e-37
5.4066709e-37
4.3086705e-37
3.7935455e-37
4.0388455e-37
5.2343575e-37
5.2981359e-37
5.0783339e-37
5.0615376e-37
3.5052369e-37
2.9429836e-37
3.6001871e-37
3.0669216e-37
3.6017083e-38
3.8511059e-38
8.6395088e-38
6.3103171e-38
1.3842259e-37
5.1315979e-38
5.8082086e-38
1.5403476e-37
9.7670636e-38
3.6566411e-38
3.3824963e-38
6.1350895e-38
5.6792838e-38
5.7220396e-38
1.1959004e-37
5.8409477e-38
6.2362222e-38
1.422196e-37
3.0473659e-37
2.4823502e-37
2.7369219e-37
4.5548818e-37
7.1151437e-38
6.4367277e-38
6.7573143e-38
3.7256379e-38
3.605263e-38
6.3399805e-38
1.0106211e-37
3.5393057e-38
3.3072549e-38
6.580164e-38
5.2462622e-38
5.5266374e-38
2.7315247e-37
2.6307354e-37
2.5102661e-37
3.6945137e-37
2.8597786e-37
2.8879234e-37
3.0979727e-37
4.1054894e-37
1.2976514e-37
5.3380514e-38
6.243882e-38
1.6127111e-37
1.3401669e-37
6.2012525e-38
6.8845479e-38
1.542253e-37
4.7492209e-37
3.7437064e-37
3.4063834e-37
3.7369287e-37
5.1457805e-37
4.0953189e-37
3.6297877e-37
3.9631216e-37
5.1278267e-37
4.8524917e-37
4.819189e-37
5.0816533e-37
4.7959737e-37
4.7713936e-37
4.873364e-37
4.7864013e-37
6.4556305e-37
4.5994487e-37
3.8444708e-37
4.3757841e-37
4.9693209e-37
3.9120436e-37
3.618919e-37
4.0171337e-37
4.8432591e-37
4.8599002e-37
5.2087105e-37
5.0335338e-37
5.036675e-37
5.216605e-37
5.6216579e-37
5.2512087e-37
8.1251833e-38
3.6977357e-38
3.5702184e-38
6.2985465e-38
9.3258221e-38
3.8004065e-38
3.4170159e-38
6.1136099e-38
5.6498095e-38
5.3954137e-38
3.571749e-37
2.7022048e-37
2.8555342e-37
4.9694252e-37
2.5575145e-37
2.7250379e-37
2.6820907e-37
3.7285677e-37
1.4892305e-37
6.14547e-38
6.3509267e-38
1.6827169e-37
1.3545659e-37
5.6801619e-38
6.2218709e-38
1.9201005e-37
7.714597e-38
6.7227615e-38
9.7619146e-38
1.152392e-37
1.0702848e-37
1.1964686e-37
6.4038831e-37
6.2888782e-37
6.6058276e-37
6.7791011e-37
6.2800003e-37
6.4485854e-37
6.2672576e-37
6.323425e-37
7.6520571e-37
7.8171651e-37
6.694068e-37
6.5772532e-37
6.5515676e-37
6.1201929e-37
6.5304727e-37
6.4476554e-37
6.6161043e-37
6.1620074e-37
7.6234625e-37
7.9406533e-37
7.7683135e-37
7.3745215e-37
7.6144125e-37
7.8640331e-37
7.5810619e-37
1.1003085e-37
1.2304132e-37
1.1734248e-37
1.0672742e-37
1.1168814e-37
1.2560143e-37
1.2452448e-37
1.1332355e-37
1.154508e-37
1.2758266e-37
1.2880556e-37
1.1473813e-37
1.1712094e-37
1.2261357e-37
1.0715099e-37
1.0632006e-37
1.2494125e-37
1.3714875e-37
1.4076095e-37
1.2908823e-37
1.1721183e-37
1.2907928e-37
1.3070062e-37
1.2092468e-37
1.2937165e-37
1.3091782e-37
1.1595936e-37
1.1755064e-37
1.2409754e-37
1.3590946e-37
1.3429003e-37
1.2386302e-37
1.1864934e-37
1.1975706e-37
1.052973e-37
1.0798216e-37
1.120669e-37
1.2156297e-37
1.2649098e-37
1.1504471e-37
1.1178396e-37
1.2417042e-37
1.2438048e-37
1.1192822e-37
1.201152e-37
1.2119091e-37
1.0474458e-37
1.0701796e-37
1.258363e-37
1.2716339e-37
1.1352233e-37
1.1459641e-37
1.1894377e-37
1.2997643e-37
1.3328725e-37
1.2319229e-37
1.2656703e-37
1.3809694e-37
1.4275324e-37
1.3144445e-37
1.2229322e-37
1.3399846e-37
1.317845e-37
1.2147304e-37
1.180236e-37
1.1984246e-37
1.0422161e-37
1.0590464e-37
1.1548724e-37
1.1467203e-37
1.0249471e-37
1.0568684e-37
1.0988701e-37
1.1800646e-37
1.2296693e-37
1.1233469e-37
1.1716221e-37
1.2705765e-37
1.2949811e-37
1.2044254e-37
2.4076138e-38
6.6093156e-38
2.7821909e-38
5.0710963e-38
3.1759149e-38
3.3859151e-38
5.51451e-38
4.6822776e-38
2.9269286e-38
3.2229124e-38
7.0112835e-38
6.9196029e-38
7.8739406e-38
8.4398621e-38
8.8194089e-38
7.182187e-38
6.6892337e-38
8.2105772e-38
8.8392747e-38
8.6776531e-38
7.9244626e-38
8.3469906e-38
8.9656113e-38
8.3489446e-38
7.7967274e-38
8.2873276e-38
7.1110535e-38
7.8186835e-38
9.0281885e-38
8.617192e-38
8.2912917e-38
1.1636764e-37
1.163785e-37
9.7354354e-38
9.9917058e-38
1.1788704e-37
1.0156929e-37
8.9366329e-38
9.0375061e-38
9.189149e-38
8.555254e-38
8.4198275e-38
1.1197045e-37
1.1103833e-37
1.5373932e-37
7.3328937e-38
1.8075393e-38
4.8055258e-38
1.6907394e-38
4.1117725e-38
3.7421487e-38
1.8924271e-38
3.8261124e-38
1.8439445e-38
6.4502386e-38
1.2012051e-37
1.1257045e-37
5.960917e-38
1.9716829e-38
3.4328681e-38
3.8314699e-38
2.0059724e-38
1.8004752e-38
3.259433e-38
3.5177949e-38
1.8163083e-38
5.9547939e-38
1.1234575e-37
1.0925312e-37
5.506027e-38
5.4834961e-38
1.11155e-37
1.1808913e-37
5.802404e-38
9.3856893e-38
9.0809229e-38
8.1592769e-38
8.5084847e-38
9.4365932e-38
9.2465133e-38
8.362815e-38
8.623991e-38
8.7680341e-38
9.9457073e-38
1.0113689e-37
9.0351095e-38
8.61352e-38
9.7642853e-38
9.8449695e-38
8.7875302e-38
9.5424611e-38
9.8361073e-38
8.6918987e-38
8.629261e-38
9.6261243e-38
1.1174521e-37
9.8060472e-38
8.7340422e-38
9.760821e-38
1.1140588e-37
1.0107737e-37
9.0133911e-38
9.0539113e-38
1.0320824e-37
1.0132561e-37
9.0124818e-38
9.9004614e-38
1.1240225e-37
1.048065e-37
9.4439721e-38
1.0570242e-37
1.0750538e-37
9.4545083e-38
9.4772755e-38
1.0104197e-37
1.1295955e-37
1.1078283e-37
9.9343545e-38
1.0323987e-37
1.1597007e-37
1.1029627e-37
9.9869437e-38
1.0044244e-37
1.1085596e-37
1.1000337e-37
9.847354e-38
9.3550747e-38
1.0425142e-37
1.0622736e-37
9.5216737e-38
1.0328567e-37
1.0314673e-37
9.0961401e-38
9.2746879e-38
9.8659011e-38
1.1069752e-37
1.1230076e-37
1.0044022e-37
3.0861903e-38
6.9991177e-38
4.8512306e-38
3.2560966e-38
3.0713659e-38
5.8022561e-38
4.8384913e-38
3.1679436e-38
3.6615708e-38
3.4718146e-38
4.6683493e-38
6.2103395e-38
5.9888479e-38
7.3785193e-38
9.2307821e-38
8.5555378e-38
7.7266127e-38
8.1926034e-38
8.8666347e-38
8.7110143e-38
7.8859319e-38
8.1410708e-38
8.4220938e-38
9.3353911e-38
9.518769e-38
8.6331332e-38
8.1239512e-38
9.0325277e-38
9.3265327e-38
8.3366487e-38
8.9287905e-38
8.7271319e-38
7.8802386e-38
8.1326083e-38
8.2834827e-38
9.0287272e-38
9.0501531e-38
8.1494871e-38
8.4527481e-38
9.3870408e-38
9.4931427e-38
8.5159139e-38
8.1551649e-38
9.4579541e-38
9.5819254e-38
8.6004476e-38
8.7963602e-38
9.7849672e-38
1.0128394e-37
9.1662323e-38
9.4840699e-38
1.0539384e-37
1.0872118e-37
9.786293e-38
9.9717141e-38
1.0976923e-37
1.0868715e-37
9.755863e-38
1.002451e-37
1.0051078e-37
8.89702e-38
9.0673527e-38
9.8559383e-38
9.7372197e-38
8.6117921e-38
8.8420553e-38
8.982902e-38
9.9592761e-38
1.0170236e-37
9.2454949e-38
9.736443e-38
1.0769338e-37
1.0997596e-37
9.9596369e-38
9.2823638e-38
1.0334375e-37
1.0390689e-37
9.3436228e-38
8.7148291e-38
8.9242388e-38
7.2353119e-38
7.9410774e-38
7.637814e-38
6.3369435e-38
6.1279946e-38
7.2193021e-38
7.6096543e-38
6.2000027e-38
6.9542182e-38
7.85224e-38
7.9614815e-38
7.7823007e-38
7.1181378e-38
7.50891e-38
6.1981777e-38
6.0881205e-38
6.943784e-38
7.247077e-38
8.36209e-38
7.0247793e-38
6.2874814e-38
7.4504382e-38
8.1732956e-38
8.3052055e-38
7.3672253e-38
7.5954135e-38
8.0956625e-38
7.5522725e-38
7.2010245e-38
7.5704188e-38
4.3633688e-38
2.2050723e-38
3.6204544e-38
2.224397e-38
1.9978205e-38
1.98953e-38
3.4751404e-38
3.6070781e-38
4.9862949e-38
9.8281641e-38
8.8614539e-38
4.837467e-38
1.0341071e-37
5.0976885e-38
5.8587398e-38
1.1323378e-37
2.0938207e-38
3.6908871e-38
3.6481412e-38
2.0292002e-38
1.8358941e-38
3.4250712e-38
3.5885901e-38
1.9057998e-38
5.7976041e-38
1.1827538e-37
1.1750521e-37
5.108245e-38
1.0930707e-37
4.8802418e-38
1.1284166e-37
5.0287618e-38
1.6829022e-37
1.6845921e-37
1.4141948e-37
1.4303213e-37
1.2569087e-37
1.0683837e-37
9.9565648e-38
1.1387126e-37
1.57681e-37
1.4378374e-37
1.2508403e-37
1.4679747e-37
5.2590884e-38
6.4637128e-38
3.1822543e-38
3.4992004e-38
6.6413212e-38
4.8013335e-38
5.6428457e-38
5.0289377e-38
2.935783e-38
3.181259e-38
3.3706789e-38
3.4215512e-38
6.5391687e-38
7.309039e-38
8.1009714e-38
7.4508351e-38
8.2386599e-38
8.7454241e-38
8.0278596e-38
7.8563722e-38
1.2909352e-37
6.4263694e-38
5.7275275e-38
1.2452581e-37
3.9769388e-38
1.8436319e-38
3.9016585e-38
1.9018782e-38
4.2912413e-38
2.1489284e-38
4.4352957e-38
2.1766602e-38
1.2019394e-37
5.1833799e-38
5.390245e-38
1.1817456e-37
2.1846614e-38
2.2341626e-38
4.0772528e-38
4.696162e-38
1.0638426e-37
1.5496662e-36
2.3119375e-36
2.1933443e-36
1.8337281e-36
2.1097201e-36
2.2280119e-36
1.5899753e-36
1.2482581e-36
2.1157414e-36
9.8327154e-37
3.8764004e-36
1.9546277e-36
1.689589e-36
1.0257098e-36
3.3849214e-36
4.6149041e-37
1.0085165e-36
9.2153858e-37
4.3714927e-37
1.6336341e-36
1.6358046e-36
3.4556766e-36
8.009091e-37
4.4611522e-36
7.6055088e-37
5.2689022e-36
3.9736848e-36
3.3673282e-36
1.8752273e-36
7.4889065e-37
3.4184923e-36
2.9903788e-36
2.4293894e-36
2.6824076e-36
6.0942856e-37
8.8115905e-37
1.0360149e-36
7.8624219e-37
6.8468562e-37
6.0750397e-37
1.0134663e-36
9.6857989e-37
7.2769389e-37
7.327481e-37
8.8547878e-37
3.440959e-36
2.3785739e-36
3.1447628e-36
2.5050458e-36
2.5784448e-36
1.8391962e-36
1.741617e-36
6.4119322e-37
7.4037629e-37
4.5342357e-37
4.6276345e-37
7.3472906e-37
1.7075744e-36
1.3651087e-36
6.4321121e-37
4.0991654e-37
6.3313362e-37
1.0442995e-36
4.7554071e-37
1.6634534e-36
1.525789e-36
7.3678096e-36
1.6930873e-36
1.1013183e-36
2.4747779e-36
3.6817514e-36
1.5551018e-36
2.428818e-36
2.5749343e-36
4.3848919e-37
3.9639351e-37
3.7602549e-37
4.1186593e-37
4.1414951e-37
5.2113145e-37
5.7665311e-37
5.5030589e-37
5.5355845e-37
8.0506907e-37
7.5543705e-37
8.2786705e-37
8.8059977e-37
8.8042981e-37
8.9533337e-37
7.5226297e-37
6.0880183e-37
1.4738937e-36
1.2920971e-36
5.0047667e-37
4.5497262e-36
6.0767208e-37
5.6212817e-36
9.5154211e-37
1.0004014e-36
1.0179181e-36
1.039987e-36
1.1878434e-36
1.2917803e-36
1.1512654e-36
1.2461645e-36
5.6959291e-37
5.3125937e-37
5.4500268e-37
5.8312106e-37
5.3629952e-37
6.2884135e-37
6.1764531e-37
5.4614088e-37
4.9062942e-37
5.4799539e-37
2.0768049e-36
1.4720542e-36
1.3010211e-36
1.2072748e-36
1.1568218e-36
1.1357949e-36
9.9693525e-37
1.0460442e-36
1.0725266e-36
1.0876073e-36
1.9104863e-36
1.5293122e-36
6.0641155e-37
5.1602209e-37
1.4479796e-37
3.4351854e-37
4.0436834e-37
3.8842517e-37
3.5400048e-37
2.768328e-37
4.6831725e-37
5.4005612e-37
4.2949694e-37
3.7316687e-37
6.9486725e-37
2.3942384e-37
6.6411579e-37
1.4617875e-37
1.4909257e-37
5.3106965e-37
1.7810542e-37
8.4932913e-38
9.0242732e-38
6.0447031e-38
7.8864294e-38
6.3955587e-38
6.4583549e-38
7.2309915e-38
7.2727808e-38
9.1317756e-38
9.7647894e-38
8.4172886e-38
9.0698275e-38
8.0229689e-38
8.4360343e-38
7.9851485e-38
8.9794191e-38
8.1679979e-38
9.254349e-38
8.3153882e-38
8.9685604e-38
7.8298315e-38
7.7881006e-38
7.3231769e-38
7.7128896e-38
8.1272473e-38
7.7748506e-38
8.1116158e-38
8.5204333e-38
9.6104851e-38
1.149184e-37
6.3189223e-38
7.0441114e-38
5.581083e-38
6.2905259e-38
6.7738874e-38
6.5705432e-38
3.2014623e-38
6.0917597e-38
5.6624333e-38
3.4194069e-38
3.1503383e-38
3.2697818e-38
9.4557024e-38
6.0958198e-38
7.5716548e-38
3.5547956e-38
3.3850214e-38
5.5976889e-38
8.9401693e-38
3.4325404e-38
3.2245222e-38
5.6455529e-38
3.4341694e-38
3.5090144e-38
6.6614879e-38
6.2712785e-38
1.0129248e-37
3.3166021e-38
3.1643817e-38
6.5429954e-38
5.8170378e-38
6.0530708e-38
3.408101e-38
3.4707751e-38
8.7906276e-38
6.6201332e-38
1.0104538e-37
3.5548023e-38
3.2639656e-38
6.2552808e-38
6.1368816e-38
5.7610526e-38
7.9814325e-38
6.7548041e-38
1.0664826e-37
1.2228733e-37
4.4727063e-37
3.240203e-37
3.9426716e-37
3.8327192e-37
1.5193391e-37
5.2096447e-38
6.4321017e-38
1.5703378e-37
6.4650134e-38
5.5416548e-38
1.5484754e-37
1.356206e-37
4.2955327e-37
2.9411408e-37
3.6268588e-37
3.8675843e-37
4.1297936e-37
4.4625619e-37
4.9862854e-37
7.1372387e-38
5.9786317e-38
1.3249705e-37
1.4028564e-37
6.5397593e-38
5.3758413e-38
1.4247856e-37
1.4406851e-37
2.5314161e-37
2.5644606e-37
3.3382794e-37
3.0801682e-37
3.4437006e-37
2.3948496e-37
2.9526863e-37
3.8601641e-37
3.5380504e-37
3.0284265e-37
3.1480505e-37
3.2169121e-37
1.3843659e-37
4.9587363e-38
6.3391006e-38
1.5866043e-37
7.3899064e-38
6.3015239e-38
1.2878597e-37
1.4502581e-37
3.272861e-37
2.63766e-37
3.1741279e-37
3.7853734e-37
4.4211648e-37
4.706432e-37
4.7658486e-37
4.6335363e-37
3.6612369e-37
3.8986258e-37
6.5272858e-37
5.763678e-37
5.3434555e-37
4.3056124e-37
4.4286065e-37
5.1854511e-37
4.2015064e-37
7.4214866e-37
6.5634844e-37
4.2125771e-37
4.7557423e-37
5.4385526e-37
5.5083556e-37
6.3753134e-37
5.5952124e-37
1.6127007e-37
5.6848482e-38
6.0656605e-38
1.8787641e-37
6.2297983e-38
5.6809899e-38
1.4437478e-37
1.9780712e-37
2.9860516e-37
2.7526666e-37
3.4154483e-37
3.7199014e-37
4.0757012e-37
3.3541264e-37
4.0313817e-37
5.0218497e-37
1.1307195e-37
1.1535423e-37
1.0131099e-37
1.0174589e-37
1.2000178e-37
1.2095535e-37
1.071477e-37
1.0876237e-37
1.1615255e-37
1.1771268e-37
2.7814887e-38
5.1035996e-38
4.2730377e-38
3.1135138e-38
1.7094912e-38
1.7567713e-38
3.5858496e-38
3.0174063e-38
1.6295563e-38
3.2649662e-38
1.5513703e-38
2.8661784e-38
5.9498445e-38
1.0980695e-37
1.1744358e-37
5.9050854e-38
1.0487e-37
5.3662052e-38
1.192377e-37
6.0294949e-38
2.3559644e-38
6.1380996e-38
4.929835e-38
2.6859272e-38
1.5732827e-38
3.2373185e-38
1.6641877e-38
3.678597e-38
1.6069178e-38
3.9998969e-38
3.4564453e-38
1.4565941e-38
9.3362093e-38
1.3429676e-37
1.3294405e-37
7.4879273e-38
1.131322e-37
6.5137818e-38
1.0418042e-37
6.5600047e-38
7.5757098e-38
7.4818967e-38
9.1500324e-38
9.7418676e-38
1.1749014e-37
9.472632e-38
8.0308136e-38
1.0173814e-37
1.0525695e-37
1.1609544e-37
9.8867551e-38
9.4688634e-38
1.016525e-37
1.0058281e-37
9.1977322e-38
9.3468099e-38
9.5213948e-38
1.0025273e-37
8.3824819e-38
8.6665584e-38
8.7613841e-38
6.8614306e-38
6.9846871e-38
8.9461074e-38
6.9361052e-38
6.5004965e-38
8.1053585e-38
8.6969684e-38
9.0683885e-38
9.0334524e-38
8.2818013e-38
8.4774803e-38
3.1678896e-38
3.1921782e-38
9.2419973e-38
1.0967687e-37
1.0467979e-37
9.1927918e-38
9.2821246e-38
1.0762712e-37
1.0313585e-37
9.1455717e-38
1.0226244e-37
1.0468634e-37
9.2805651e-38
9.2324865e-38
9.4812082e-38
1.0860943e-37
1.0480921e-37
9.3075776e-38
9.4650725e-38
9.5356245e-38
8.5136963e-38
8.5787145e-38
9.5137159e-38
8.9720852e-38
8.1772417e-38
8.672683e-38
8.3752814e-38
9.5640849e-38
9.9013149e-38
8.8052957e-38
8.7926428e-38
1.0026675e-37
9.7674616e-38
8.7417951e-38
1.0711413e-37
1.1195678e-37
9.775324e-38
9.5749506e-38
8.8406156e-38
1.0194908e-37
1.0505932e-37
9.3262411e-38
9.0818624e-38
1.0283219e-37
1.0788284e-37
9.6095917e-38
1.0295382e-37
1.1614585e-37
1.1047954e-37
9.8745412e-38
9.3351544e-38
1.0632674e-37
1.0824741e-37
9.6561385e-38
8.7583571e-38
9.8685836e-38
1.0217043e-37
9.1461033e-38
1.0160267e-37
1.04783e-37
9.2010107e-38
9.2046967e-38
9.9246652e-38
1.1072923e-37
1.076383e-37
9.7298006e-38
7.9263568e-38
9.2409303e-38
9.3714825e-38
8.3454676e-38
7.8541351e-38
8.6383352e-38
8.8587961e-38
7.9353074e-38
8.3937847e-38
9.3254077e-38
9.5493971e-38
8.4779609e-38
9.0647903e-38
8.8621566e-38
7.8975855e-38
8.160585e-38
9.1650946e-38
1.0230642e-37
1.0508439e-37
9.4829717e-38
8.2497022e-38
9.2566322e-38
9.6085224e-38
8.7969679e-38
9.8439655e-38
9.6726453e-38
8.5108782e-38
8.9413141e-38
9.36988e-38
1.0290527e-37
1.0549938e-37
9.5486342e-38
9.9353589e-38
9.4383439e-38
8.36694e-38
8.8429595e-38
9.295368e-38
9.1366536e-38
8.2624359e-38
8.4825638e-38
8.9024752e-38
9.7369547e-38
9.9240844e-38
8.970453e-38
8.7569837e-38
9.8775091e-38
1.0234187e-37
8.9519541e-38
1.0381383e-37
1.0226939e-37
8.9347997e-38
9.2066589e-38
9.3960918e-38
1.04333e-37
1.0476763e-37
9.4833723e-38
1.0002281e-37
1.1116336e-37
1.1202983e-37
1.0089074e-37
9.5412603e-38
1.0652392e-37
1.0740407e-37
9.5877159e-38
8.2206595e-38
8.7190513e-38
7.2375079e-38
7.5978165e-38
8.1789967e-38
6.679017e-38
5.9674111e-38
7.2373936e-38
8.9749788e-38
8.3691464e-38
7.641851e-38
8.0335322e-38
6.3432467e-38
6.4240473e-38
7.4957711e-38
7.7302313e-38
4.5482732e-38
6.4787278e-38
3.0178548e-38
3.2155961e-38
1.1351272e-37
1.0963976e-37
5.6033936e-38
5.0700098e-38
3.0074047e-38
1.5510471e-38
2.8674208e-38
1.6070313e-38
3.2053972e-38
1.8072185e-38
3.2149615e-38
1.7782271e-38
5.0426741e-38
1.1919364e-37
1.0535405e-37
5.109176e-38
2.942608e-38
5.6063446e-38
4.6535204e-38
3.0989408e-38
3.3344257e-38
3.5800745e-38
1.1062972e-37
5.3913097e-38
9.7919809e-38
5.3529288e-38
1.7764655e-38
1.7020224e-38
2.935624e-38
3.4091671e-38
3.9589458e-38
1.8659332e-38
3.2202646e-38
1.9293008e-38
5.4694048e-38
1.0912043e-37
1.2746576e-37
6.3562413e-38
7.1362249e-38
6.4251267e-38
7.760616e-38
8.7490792e-38
7.1806138e-38
6.0710936e-38
6.2279231e-38
7.7324432e-38
8.7319102e-38
8.3020019e-38
7.5893995e-38
8.0217131e-38
9.393923e-38
8.7779373e-38
8.0566399e-38
8.6618098e-38
6.1400939e-38
7.4238608e-38
4.5923208e-38
6.0563891e-38
2.776829e-38
6.4675571e-38
4.4509616e-38
3.15459e-38
3.2353004e-38
5.0374035e-38
4.2559714e-38
3.3659411e-38
3.0451581e-38
3.2425898e-38
6.6589892e-38
6.2673285e-38
7.2320454e-38
7.8840143e-38
7.0792199e-38
6.2703809e-38
5.822666e-38
6.9331974e-38
7.9348742e-38
7.7669847e-38
7.0206643e-38
7.3999472e-38
8.7640312e-38
7.831448e-38
7.4206109e-38
8.0518156e-38
6.4974686e-38
6.7917635e-38
8.0244505e-38
7.9869045e-38
8.4832763e-38
7.7068277e-38
6.9484894e-38
8.1649546e-38
8.8449956e-38
8.8228817e-38
7.6763589e-38