/*--------------------------------*- C++ -*----------------------------------*\
  =========                 |
  \\      /  F ield         | OpenFOAM: The Open Source CFD Toolbox
   \\    /   O peration     | Website:  https://openfoam.org
    \\  /    A nd           | Version:  7
     \\/     M anipulation  |
\*---------------------------------------------------------------------------*/
FoamFile
{
    version     2.0;
    format      ascii;
    class       surfaceScalarField;
    location    "6000";
    object      phi;
}
// * * * * * * * * * * * * * * * * * * * * * * * * * * * * * * * * * * * * * //

dimensions      [0 3 -1 0 0 0 0];

internalField   nonuniform List<scalar> 
100832
(
-1.0056796e+32
2.8434485e+31
-2.1928618e+33
-9.288128e+31
2.8962849e+31
-2.2096722e+33
-1.7321793e+32
-1.2196874e+32
6.7825929e+31
-2.1721758e+33
8.8247786e+31
-1.0503138e+32
-1.1395132e+32
3.9472896e+31
-2.1935456e+33
-1.3039963e+32
4.1697472e+31
-2.1846235e+33
7.0138804e+31
-7.0089653e+31
1.0721703e+32
-2.0515212e+33
9.1300055e+31
-2.0279132e+33
-8.7834004e+31
7.164239e+31
-8.4493602e+31
6.9751973e+31
-2.2455364e+33
1.5459371e+32
-2.1190898e+32
-1.1748978e+32
6.5742919e+31
8.9127165e+31
-9.7107589e+31
-2.1234177e+33
-1.2400814e+32
6.984124e+31
9.2143906e+31
-9.4923747e+31
-2.1275853e+33
-4.4176801e+32
-3.0836309e+31
-2.6789936e+31
1.6409395e+31
-2.5894958e+31
1.869228e+31
3.4660216e+32
3.8263738e+31
-5.0924303e+31
-4.5124157e+32
2.0277501e+31
1.7583246e+31
-2.3238488e+31
-1.9290996e+31
2.7618303e+31
-3.7201966e+31
-2.4997188e+31
-2.6374196e+31
1.5580543e+31
1.803461e+31
-1.6991367e+33
1.2638374e+32
-1.7435849e+32
7.3613428e+31
9.6785247e+31
-1.3029971e+32
-1.1653317e+32
-3.562758e+32
-2.4732571e+31
-2.8172887e+31
1.7629839e+31
1.9574483e+31
-4.6146174e+32
2.1634512e+31
1.7952408e+31
-2.0293915e+31
-2.5876713e+31
1.6748074e+32
-1.9139732e+33
-2.3948384e+32
-2.9063081e+32
1.6801811e+33
-1.9665246e+33
-2.784737e+32
7.2930364e+31
-1.3507236e+32
-1.0506725e+32
1.6752067e+32
-1.8201049e+32
1.3255282e+31
-2.1307487e+33
4.407531e+31
-2.1688906e+33
8.9380124e+31
-1.1510382e+32
1.0658377e+32
-2.0342083e+33
1.0814711e+32
-2.038035e+33
-1.0158396e+32
8.2377356e+31
-2.2126647e+33
-1.1349027e+32
8.3080106e+31
-2.2075235e+33
1.7793568e+31
-1.8310678e+31
1.3698367e+32
-1.6478655e+33
5.1202161e+31
-5.807879e+31
7.9047358e+31
-2.0539399e+33
1.0874266e+32
-1.5893805e+33
6.4316328e+31
-9.3807977e+31
7.3774509e+31
-2.1841416e+33
1.66749e+33
1.7424659e+33
-4.4378678e+32
-2.4901527e+32
1.8981389e+32
-2.0222193e+33
-1.0194757e+32
-7.9214121e+31
-2.0613326e+33
-1.1574359e+32
7.053458e+31
9.4861524e+31
-8.5195049e+31
3.3855151e+32
4.3450845e+31
-5.8051455e+31
-1.7194906e+31
-2.2061414e+31
1.6476136e+31
2.1634848e+31
-4.4029533e+32
3.3201855e+31
-4.4504712e+31
-2.6095498e+31
-2.3453835e+31
1.4782651e+31
1.8355528e+31
-3.4681731e+32
3.7842294e+31
-2.6684035e+31
1.8088674e+31
-2.3953364e+31
1.8969309e+31
5.3260684e+31
1.8373788e+31
-2.410479e+31
-4.5142464e+32
-1.8152477e+31
2.15734e+31
1.6216487e+32
-1.6665407e+33
-2.1259372e+32
7.2742242e+31
9.9721972e+31
-1.1259383e+32
-1.291483e+32
3.4966953e+32
4.1919078e+31
-4.5578036e+32
2.1267943e+31
1.6858979e+31
-2.4544373e+31
-2.0138229e+31
3.008236e+31
4.469202e+32
-2.5236296e+31
-2.7582472e+31
1.5140331e+31
1.8028955e+31
-3.4785889e+32
4.4613617e+32
-2.3450706e+31
-2.7273988e+31
1.7824731e+31
1.9646993e+31
-4.4843844e+32
2.1655365e+31
1.8352315e+31
-2.4650876e+31
-1.8706212e+31
-1.6556941e+33
7.2914726e+31
9.8306388e+31
-1.0303926e+32
-1.3497589e+32
1.9224003e+32
-1.8659817e+33
-2.7332417e+32
-2.9449415e+32
-1.9286311e+33
-2.8182144e+32
2.2300293e+31
-2.7563274e+31
-2.6150659e+31
1.7561761e+31
-2.3715957e+31
-2.6722931e+31
1.7761355e+31
1.9360175e+31
7.4598685e+31
2.3491916e+29
-9.6005124e+31
-1.5825663e+30
-5.8266133e+30
3.6635415e+30
4.0061555e+30
-5.8789273e+30
3.6235747e+29
-1.7769315e+30
3.5290472e+30
-5.6525113e+30
-5.293333e+30
4.0542663e+30
7.6178693e+31
-1.9863222e+29
-9.8595702e+31
-5.8538061e+30
4.1176336e+30
4.3921618e+30
-5.7003663e+30
-5.1888469e+30
-5.7038285e+30
3.9103509e+30
4.0231574e+30
-1.0072239e+32
-5.9814248e+30
-5.9962121e+30
3.7498444e+30
4.2910706e+30
4.6485911e+31
-3.586345e+32
-6.0594233e+31
1.7734406e+31
-2.5135877e+31
-2.1418246e+31
2.3934449e+31
-4.7191723e+30
-7.4848389e+31
9.7839653e+31
5.6386102e+30
-5.6375712e+30
-6.1567295e+30
4.0092893e+30
4.1518181e+30
-7.4552038e+31
9.6674468e+31
-7.0975008e+30
-5.2459923e+30
-5.4398088e+30
4.0643932e+30
4.4605573e+30
7.8334309e+30
-1.1194507e+31
-9.4143485e+31
4.1095345e+30
-5.1674047e+30
-4.2481229e+30
5.0200373e+30
1.0699925e+31
-9.5253828e+31
-4.4619952e+30
-5.618336e+30
3.83335e+30
4.49494e+30
-2.1314422e+30
7.6286774e+31
2.3547666e+30
-5.8558969e+30
-6.0396647e+30
4.1483688e+30
4.0795657e+30
7.5191731e+31
-3.4307672e+30
-5.777926e+30
-5.843859e+30
3.8246348e+30
4.2050187e+30
1.4650014e+30
-2.5983817e+30
-5.8594671e+30
-5.8726896e+30
3.9927635e+30
3.6399245e+30
1.1347479e+30
3.8923495e+30
-5.9647385e+30
-5.8750558e+30
4.0033809e+30
-3.6421394e+32
5.5351525e+31
1.7010753e+31
2.3039394e+31
-2.1087091e+31
-2.829119e+31
5.5965213e+31
-4.0245576e+32
-7.7894279e+31
-6.454934e+31
-4.3883777e+32
7.5620085e+31
-6.1564181e+31
-1.6838174e+30
7.8671602e+31
-1.0197501e+32
-5.6643756e+30
-5.9925992e+30
4.5288145e+30
4.6295117e+30
7.8287907e+31
-1.0169618e+32
-6.246619e+30
-6.0866041e+30
4.1740634e+30
4.065499e+30
5.9629191e+29
-5.932823e+30
3.8162186e+30
3.9758897e+30
-6.1254688e+30
-5.7280693e+30
-5.8211005e+30
4.2287543e+30
4.1336945e+30
-4.2367937e+30
-7.8986112e+31
4.2985546e+30
-6.0357951e+30
-5.7623919e+30
4.2460942e+30
-7.8508185e+31
-5.9693353e+30
-5.9980329e+30
3.9361829e+30
4.1974189e+30
-7.924779e+30
9.9188274e+30
-9.9204824e+31
-4.8724949e+30
-5.7757781e+30
4.3058225e+30
4.2732101e+30
-9.9322901e+31
-5.0515983e+30
-5.7101567e+30
4.0766518e+30
4.3982571e+30
1.8782856e+32
-2.4076913e+32
3.3382717e+32
3.7026557e+32
-1.1558651e+32
4.1544861e+32
4.1920913e+32
-1.0984775e+32
3.4154285e+32
-3.6469989e+32
1.6756432e+31
2.2823597e+31
-2.2533008e+31
-2.6384949e+31
5.2943964e+31
-6.1647491e+31
-9.6035995e+31
3.463377e+30
-5.9226664e+30
-5.08182e+30
4.261475e+30
-1.5651331e+32
-1.7194043e+32
-2.2505611e+32
5.3492709e+32
5.6776836e+32
1.8943996e+33
1.8416009e+33
1.8764875e+33
1.942114e+33
-1.868279e+32
-4.194315e+30
-2.1252665e+33
-1.0249698e+31
-2.0982588e+33
1.6338631e+32
-1.8718766e+32
8.8524848e+31
-1.9735258e+33
1.1405847e+32
-2.0108725e+33
1.4259354e+32
-5.0637138e+31
-1.5979289e+32
8.5568624e+31
-2.1484808e+33
9.0379012e+31
-2.1705119e+33
-1.5148361e+32
-1.9715324e+33
-8.9112149e+31
-1.1433571e+32
8.2923682e+31
4.6614285e+31
-7.731919e+31
8.6991524e+31
-1.5824464e+33
7.7169313e+31
-9.9530388e+31
7.2012902e+31
-2.00078e+33
9.0238169e+31
-1.6055966e+33
8.0597531e+31
-2.0171646e+33
-1.108545e+32
7.1872368e+31
-2.1499923e+33
-1.2597742e+32
6.6739555e+31
-2.1385652e+33
6.4594839e+30
-5.3658083e+30
1.3128204e+32
-9.8660566e+31
1.8481963e+31
-3.636146e+31
5.410329e+31
-1.6050419e+33
-6.6577206e+31
3.0134345e+31
-1.9862038e+33
1.0723839e+32
-1.0141177e+32
2.080744e+31
-2.0867703e+33
-1.1095945e+32
5.1953282e+31
1.5854604e+33
1.6557862e+33
6.059761e+32
1.8182869e+33
-2.6706703e+32
1.74817e+33
1.6224409e+33
1.7048314e+33
-4.3406528e+32
-2.7658833e+32
1.6116891e+33
2.1549056e+32
-1.8071843e+33
-2.9693561e+32
-2.9835803e+32
1.9635164e+32
-2.3171892e+32
7.2058072e+31
-1.244764e+32
-1.0656521e+32
1.0184811e+32
-1.6043272e+33
7.1648972e+31
1.00513e+32
-9.7499628e+31
-1.3222332e+32
-1.8757957e+33
-2.8236486e+32
4.8999425e+31
-6.5576158e+31
-4.1373885e+32
1.7344683e+31
-1.942152e+31
-1.4107978e+31
2.2114797e+31
6.3301213e+31
-4.2327829e+32
-1.5260469e+31
-2.1581043e+31
1.7418648e+31
2.1876877e+31
3.4087815e+32
4.7419961e+31
-4.4055821e+32
1.7867792e+31
-2.2308865e+31
-1.7683915e+31
2.1942773e+31
3.5449504e+31
-2.6140674e+31
-2.3695751e+31
-3.3758774e+32
1.7991588e+31
-2.6423947e+31
-2.1739438e+31
1.9516267e+31
-4.3459537e+32
-2.268021e+31
-1.6396257e+31
1.8208281e+31
2.2049292e+31
-9.6919347e+31
1.6346e+30
-5.4603056e+30
-5.6841775e+30
4.1422709e+30
-8.7931386e+30
7.3745506e+31
1.0872296e+31
-9.3445104e+31
-3.9368358e+30
-4.9416641e+30
4.5691976e+30
4.7348399e+30
7.154877e+31
-1.2000701e+31
-9.0506991e+31
-3.8623927e+30
-4.7274929e+30
4.0140801e+30
4.6801777e+30
5.4238833e+30
9.3301775e+31
-8.2522789e+30
-5.0344811e+30
-5.2837492e+30
3.7222422e+30
4.1475085e+30
9.6236019e+31
7.0533231e+30
4.04454e+30
-5.4586702e+30
-5.1380288e+30
4.0670507e+30
5.3953215e+31
-3.503615e+32
-6.9702078e+31
2.4832088e+31
1.7871622e+31
-2.4188823e+31
-1.9957567e+31
2.863755e+30
7.2615876e+31
-4.797477e+30
3.7717477e+30
-5.6536306e+30
-5.6675005e+30
4.0735071e+30
7.4343868e+31
4.0552672e+30
-5.5448648e+30
-5.5943423e+30
4.257734e+30
4.1282763e+30
2.2355611e+30
-3.9238137e+30
-5.7632288e+30
-5.6790865e+30
3.5804833e+30
3.8742178e+30
2.624371e+30
3.9043976e+30
-5.7683554e+30
-5.6678873e+30
3.8205805e+30
7.6934815e+31
2.1050173e+30
-9.9315014e+31
4.397812e+30
-5.7333378e+30
4.6623526e+30
-5.6804153e+30
1.4370538e+30
3.9624238e+30
-5.5801536e+30
-5.6041866e+30
4.2087009e+30
7.5810333e+31
-9.8006704e+31
3.5795449e+30
-5.709514e+30
-5.9458418e+30
4.2424983e+30
4.1813363e+30
2.6214343e+30
-5.5672494e+30
-5.7831034e+30
4.0398939e+30
3.9863741e+30
-7.600056e+31
4.7441618e+30
4.105794e+30
-5.656209e+30
4.4546741e+30
-5.5357651e+30
8.6857147e+30
-9.6262785e+31
3.8224099e+30
-5.4420565e+30
-4.5434933e+30
4.5071589e+30
-3.5713022e+32
6.5429543e+31
1.731016e+31
2.3922771e+31
-2.7477929e+31
-1.9803747e+31
7.5942574e+31
1.1415663e+31
-9.6016118e+31
4.519211e+30
-5.3367054e+30
-4.3850848e+30
4.3936997e+30
7.2917302e+30
-5.4439893e+30
-5.6441724e+30
4.0916303e+30
3.9582321e+30
-6.3291745e+31
8.5654352e+31
-4.2943279e+32
-6.2653857e+31
-3.8987991e+32
-8.7528116e+31
-6.53935e+31
5.3076103e+31
-3.6264361e+32
1.6949933e+31
2.3552909e+31
-2.6336127e+31
-2.2035274e+31
-4.7334683e+30
-7.7124593e+31
9.9973324e+31
6.119009e+30
-5.6119224e+30
-5.8124932e+30
4.2826224e+30
4.1754676e+30
-7.5337957e+31
9.7768412e+31
-5.6567713e+30
-5.6732226e+30
4.0276803e+30
4.2891002e+30
8.180597e+30
-9.5006952e+31
4.0456472e+30
-5.3953304e+30
-4.6351618e+30
4.3445378e+30
9.9535548e+30
-9.7373723e+31
4.3732676e+30
-5.550812e+30
-4.708961e+30
4.2244539e+30
-2.1306737e+30
7.7135328e+31
3.3465609e+30
-5.730298e+30
-6.0718769e+30
4.0966288e+30
4.0913607e+30
7.5827903e+31
-5.9683092e+30
-6.0265855e+30
3.7429137e+30
4.0588894e+30
1.6538668e+30
9.6565308e+31
-5.977189e+30
-6.0390382e+30
3.5155912e+30
3.8711321e+30
2.0837306e+30
9.876642e+31
3.9018537e+30
-6.0351731e+30
-5.7704327e+30
3.8717513e+30
-2.6052233e+30
7.6818191e+31
-9.8446088e+31
-5.5803764e+30
-5.8881143e+30
4.435732e+30
4.3844059e+30
7.7192513e+31
-9.9747234e+31
-6.0432898e+30
-6.0771022e+30
3.9763274e+30
4.1661354e+30
1.5744156e+30
9.9457489e+31
3.8398361e+30
-5.854618e+30
-5.9443889e+30
4.0282411e+30
9.8230645e+31
4.2664824e+30
-5.670082e+30
-5.5315609e+30
4.1457331e+30
-3.5239289e+32
1.7819877e+31
2.3779936e+31
-2.7294595e+31
-1.9562509e+31
-5.1651858e+30
-7.6080754e+31
-5.3866288e+30
-5.6699026e+30
4.2301702e+30
4.1840785e+30
-7.7119371e+31
-5.7501313e+30
-5.7255061e+30
3.9876833e+30
4.1662304e+30
8.4314102e+30
-9.8189373e+31
4.0625943e+30
-5.4404789e+30
-4.8300059e+30
4.1491651e+30
-9.5946251e+31
4.2015564e+30
-5.3820317e+30
-4.5493051e+30
4.1259716e+30
-5.8693705e+31
-4.1415031e+32
-6.0482402e+31
-4.0624445e+32
-6.4414396e+31
2.1349139e+32
-2.7466528e+32
3.6243671e+32
3.2267835e+32
-1.1530704e+32
3.561134e+32
3.3088486e+32
-1.116608e+32
5.3863776e+29
3.4121755e+30
-5.9840151e+30
-5.9349587e+30
3.780283e+30
7.6237248e+31
4.7166724e+29
-5.6593608e+30
-5.7945342e+30
3.9970165e+30
3.9023606e+30
8.6611907e+29
-5.5278412e+30
-5.7364687e+30
-6.2766193e+29
7.599563e+31
-5.4485818e+30
-5.4597534e+30
4.1392003e+30
4.3332882e+30
7.6467738e+31
-5.9013191e+30
-5.7179275e+30
3.9416389e+30
3.7884332e+30
8.149935e+29
-5.6777941e+30
-5.7150067e+30
3.8702496e+30
4.0858104e+30
-5.455641e+30
-5.3137824e+30
3.9828099e+30
1.8194756e+31
-3.9168229e+29
-2.3073508e+31
3.1524959e+29
-8.7142729e+29
-2.6020236e+29
2.2645575e+31
2.0750045e+29
-7.3457587e+29
-1.8603248e+31
2.3280129e+31
-4.0819394e+29
-5.2273204e+29
-4.8718828e+29
-2.3730341e+31
-6.5632927e+29
-1.7876139e+31
-7.5217758e+28
3.5394945e+28
-8.5731703e+29
-2.9214052e+29
2.1216693e+29
-8.0310067e+29
1.8269553e+31
-3.8636474e+29
-1.8853066e+29
-2.2322165e+29
-5.3489805e+29
1.8770757e+31
-3.9330924e+29
-2.3949344e+31
-7.6909858e+29
-3.5626528e+29
2.3494847e+31
-6.5838334e+29
-1.8614346e+31
2.3226397e+31
-3.9213826e+29
-1.8401572e+29
-4.4469475e+29
-2.360591e+31
-6.5741659e+29
2.6866949e+29
1.8307961e+31
-2.8434564e+29
-2.5472978e+29
1.8410665e+31
-7.373391e+29
-2.3645229e+29
-7.8533757e+29
-5.7120622e+29
4.6184517e+29
1.8740395e+31
-2.3915889e+31
-6.5275212e+29
1.839419e+31
-2.3417722e+31
-9.5552804e+29
-3.344145e+29
2.2895761e+31
-8.0944333e+29
-8.9772288e+29
-7.3586685e+31
1.1670392e+31
-1.5315778e+31
4.001778e+30
-4.8729923e+30
5.6085636e+30
-3.9143481e+30
1.4817898e+31
-8.2515952e+31
-1.9466551e+31
-1.1557945e+31
7.5279006e+31
2.1048677e+31
-9.1940722e+31
-1.0987295e+31
1.5439719e+31
-3.8968911e+30
-5.4718615e+30
4.1053973e+30
5.453661e+30
-1.8475867e+29
1.8631314e+31
-2.2859667e+31
1.6382565e+29
-1.3882838e+30
1.8608208e+31
-4.4420793e+29
-2.2876866e+31
-1.6286208e+30
-1.9867755e+29
-2.6617755e+28
2.4038237e+31
-1.1954446e+30
2.3830644e+31
-2.2926047e+29
-1.0169285e+30
-2.0259225e+29
1.8442912e+31
-2.284759e+31
-1.0829284e+30
1.8159091e+31
-2.2271621e+31
-5.6414029e+29
-9.6572945e+29
-3.0847392e+28
2.3274272e+31
-7.7853702e+28
-9.4208624e+29
2.37611e+31
-9.1509526e+29
-1.6962874e+31
8.2951343e+29
-1.5028507e+30
-5.2587392e+29
1.7065397e+30
-2.4556747e+30
-2.0451491e+31
-9.2965057e+29
1.749536e+31
2.0531887e+30
-2.1291584e+31
-7.9854562e+29
1.0149962e+30
-5.1767457e+29
-1.6781677e+30
1.7660393e+31
2.1469466e+30
-2.1606274e+31
-9.8489041e+29
1.7601244e+31
-2.1735367e+31
-1.1091907e+30
6.788656e+29
-1.1061403e+30
9.067444e+29
-9.3221168e+29
3.5742591e+29
1.9073558e+31
-4.0527453e+29
-1.0509616e+30
1.9222128e+31
3.2984376e+29
-1.1959728e+30
-4.6894852e+29
4.0255629e+29
2.4307164e+31
-8.7027461e+29
2.3977411e+31
-5.4019369e+29
-7.5304113e+29
3.1349157e+29
1.8982486e+31
-9.8295876e+29
1.8630597e+31
2.8652326e+29
-1.1732149e+30
-3.0196025e+29
2.3416247e+31
3.1177778e+29
-9.7083138e+29
2.4028448e+31
-7.4034643e+29
-4.7500525e+29
1.852884e+31
4.3829011e+29
-9.353436e+29
1.891702e+31
-5.4059655e+29
-6.9567017e+29
2.7689158e+29
-4.1338013e+29
-6.8406735e+29
2.7465191e+29
-9.0250302e+29
-1.8947939e+31
4.5733928e+29
-4.8417803e+29
-7.3878137e+29
-4.8932524e+29
1.9116927e+31
-8.257716e+29
-6.0064923e+29
-7.3425886e+29
-7.8507643e+29
1.2219827e+31
-7.8116227e+31
3.8487446e+30
-5.5303625e+30
-4.5616876e+30
5.2672844e+30
-7.6787065e+31
1.3846889e+31
4.0330466e+30
-5.8650813e+30
-4.2779544e+30
5.1045737e+30
-1.4311283e+31
-9.126787e+31
1.8945478e+31
-1.1240468e+31
-8.8086104e+31
-1.1583914e+31
6.1300187e+31
-7.694458e+31
6.7856462e+31
7.8679969e+31
-3.6070857e+31
7.617185e+31
7.8961951e+31
7.1562243e+31
-3.6048401e+31
3.5691984e+29
1.9259651e+31
-2.3952513e+31
-9.0134411e+29
1.9167431e+31
5.7210143e+29
-2.4131489e+31
-1.2437228e+30
-4.9235557e+29
7.1402781e+29
2.4237973e+31
-7.6339679e+29
2.4215307e+31
-4.2123097e+29
4.835159e+29
1.9193466e+31
-2.4170837e+31
-1.1806605e+30
1.8918169e+31
-2.3725625e+31
-1.2009046e+30
5.797021e+29
2.4208765e+31
-7.0690818e+29
2.3759382e+31
-7.3620501e+29
1.8743661e+31
-6.3217667e+29
-8.8557279e+29
-4.3948126e+29
-9.0253823e+29
-1.9012979e+31
-5.9561204e+29
-7.7088675e+29
-7.5176797e+29
-8.1008975e+29
5.1980283e+29
1.9072648e+31
-6.6178421e+29
1.9039318e+31
-8.5440892e+29
-4.553617e+29
-8.1512287e+29
-6.9290248e+29
-1.8622547e+31
1.130841e+29
-1.086958e+30
3.3095884e+29
1.8879682e+31
-1.155723e+29
-2.3694504e+31
-1.4363544e+30
-2.2940678e+31
-1.6525498e+30
2.7249076e+29
-1.1651181e+30
-8.2635069e+28
1.881941e+31
-2.3354559e+31
-1.4671209e+30
1.8714271e+31
-2.3337613e+31
-1.2934981e+30
-2.3492298e+29
-1.0695073e+30
-1.1164399e+30
-1.6884879e+30
1.7938501e+31
2.3771492e+30
-2.2188364e+31
-1.3112909e+30
1.8467179e+31
-1.9257116e+30
-2.2811282e+31
-1.1944482e+30
8.2040685e+29
-8.1897303e+29
-9.2293322e+29
1.377415e+30
-1.2859731e+30
-1.4765914e+30
1.8151002e+31
-2.2464841e+31
-1.1868772e+30
1.812716e+31
-2.2018451e+31
-1.1485087e+30
5.6870929e+29
-7.957646e+29
-1.0555631e+30
1.8729916e+32
1.6186829e+32
-2.3667736e+32
3.0417587e+32
3.3809847e+32
3.3867122e+32
3.7643827e+32
1.5676726e+32
3.4601501e+32
3.1183156e+32
9.3108034e+31
8.5154448e+31
-3.6620637e+31
6.9926144e+31
7.9749534e+31
1.1062438e+31
-7.5581141e+31
-4.4581489e+30
-5.3089433e+30
3.6886018e+30
5.1645316e+30
-7.6658126e+31
3.8627855e+30
-5.8118723e+30
-4.4029024e+30
4.9002316e+30
-1.3650902e+31
-1.1144317e+31
-1.1517059e+31
-1.7721317e+31
6.6847675e+29
-1.3020694e+30
1.6173535e+30
-2.1470102e+31
-1.4140846e+30
1.8224516e+31
1.8437955e+30
-2.2247574e+31
-1.2852018e+30
-1.207937e+30
-2.2640536e+31
-1.417467e+30
-2.0745405e+32
5.3259987e+32
-2.2572604e+32
-1.5911808e+32
5.7044824e+32
1.8655474e+33
1.8164437e+33
1.8548491e+33
1.9208575e+33
-8.4644421e+31
1.4963716e+33
9.1181519e+31
1.5087534e+33
-1.2206724e+32
8.0214147e+31
8.5973143e+31
-1.055778e+32
1.0146991e+32
1.9618153e+33
1.1386274e+32
1.9456074e+33
1.8390808e+32
1.270079e+32
-1.6626129e+32
1.3567406e+32
-1.5563867e+32
6.938311e+31
1.9760906e+33
-1.824348e+32
8.9971334e+31
1.9791345e+33
-1.2193985e+32
4.3672292e+31
1.8982559e+32
5.7590717e+31
-1.9319464e+33
6.5596892e+31
-1.9527865e+33
-1.7036412e+32
-4.0020835e+31
6.9149203e+31
-2.1438236e+33
-3.5903224e+31
-1.7852171e+32
6.493801e+31
-2.119136e+33
-1.6173216e+32
-1.9463159e+33
-8.5861872e+31
-1.0711278e+32
8.7846435e+31
1.0854094e+32
-1.6756595e+32
-1.9301229e+33
-8.1820732e+31
-1.093929e+32
8.0891508e+31
1.1164093e+32
1.2444838e+32
-1.3761183e+32
8.8110648e+31
-1.5626359e+33
1.2351993e+32
-1.5968016e+32
1.2150713e+32
-1.973304e+33
9.99429e+31
-1.5464086e+33
8.5840827e+31
-1.9823448e+33
1.4437791e+32
-1.3315875e+32
-1.6054229e+32
9.0995574e+31
-2.0901533e+33
7.8796851e+31
-2.0992231e+33
-1.5251604e+32
-1.9840077e+33
-1.3083191e+32
5.3771985e+31
7.7712816e+31
-1.077852e+32
-4.142842e+31
-4.318637e+32
-7.5788468e+30
3.3254483e+32
-5.2153307e+31
-4.2204342e+32
-1.4112203e+31
7.2917595e+29
-5.2804163e+31
6.3529332e+30
-8.8264495e+30
8.2051395e+31
-1.0782841e+32
6.2276613e+31
-8.001513e+31
2.4273914e+31
-1.5169688e+33
9.0199188e+31
-1.0416883e+32
1.4932308e+31
-1.935003e+33
9.038211e+31
-1.1053036e+32
3.3461488e+31
-1.5325454e+33
3.6039742e+31
-1.9577099e+33
-1.2829738e+32
-2.0640293e+33
6.3330025e+31
-2.0464814e+33
-1.4320973e+32
5.5018721e+31
4.8917308e+30
-3.7388948e+30
-9.5142091e+31
5.8117819e+30
-6.0162236e+30
6.2844737e+31
-1.0719748e+32
-5.0419983e+31
-2.6532963e+31
-1.531059e+33
-1.9438503e+33
-7.2930822e+31
2.7301602e+31
-9.8240807e+31
3.3553465e+31
-4.1226667e+32
-8.4986638e+30
-2.4421266e+31
2.2642212e+31
-2.2693052e+31
-1.9006937e+32
3.3827082e+32
4.0488989e+32
4.1548534e+32
4.047314e+32
3.8708795e+32
1.5510288e+33
1.628301e+33
6.0896181e+32
1.7939993e+33
1.7158996e+33
-2.9606944e+32
3.475722e+32
-2.4184038e+32
3.9447118e+32
3.8094304e+32
4.1360171e+32
4.2522125e+32
1.5745634e+33
1.6599858e+33
-4.3084777e+32
-2.6743131e+32
1.5559167e+33
-1.8203058e+33
-2.830789e+32
7.3822746e+31
1.0395846e+32
-1.2538191e+32
-9.0030311e+31
-4.0717531e+32
-1.2662948e+31
-1.9586239e+31
1.8658137e+31
2.3107794e+31
3.7089547e+32
4.1311117e+32
2.4118673e+32
-2.9534628e+32
-1.0871109e+32
3.0577436e+32
3.4929504e+32
-3.3327764e+32
6.1533866e+31
-7.7035249e+31
-2.1104673e+31
1.8462384e+31
2.6327499e+31
-1.6586952e+31
7.0178538e+31
-9.4419534e+31
-6.2617557e+31
3.4013789e+32
9.6767656e+31
-6.0181029e+31
7.7741746e+31
1.8150972e+31
2.539909e+31
-2.4474531e+31
-1.6575686e+31
6.1134171e+31
-3.5041991e+32
1.7626443e+31
2.4723222e+31
-2.4474802e+31
-1.9756576e+31
-3.4230728e+32
1.8279364e+31
2.4680156e+31
-2.5642005e+31
-1.7660497e+31
-6.5927815e+31
-4.015936e+32
-5.9813586e+31
-3.8827474e+32
-6.3528646e+31
3.4619643e+32
3.1612349e+32
-1.0804578e+32
-6.9222944e+31
5.9362189e+30
-1.0278025e+31
4.0988064e+30
-5.3634539e+30
-4.8739472e+30
4.5853182e+30
9.6913986e+30
-1.3689229e+31
-8.559004e+31
3.8442033e+30
-4.540121e+30
-3.4002894e+30
5.0396168e+30
7.0754807e+31
1.2138351e+31
-8.8457909e+31
-3.4246513e+30
-4.6829683e+30
4.2791664e+30
4.9766269e+30
7.4036909e+30
3.9191824e+30
-5.5655372e+30
-4.9847136e+30
4.1315477e+30
-9.5046505e+30
7.4000701e+31
1.2316465e+31
-9.1863673e+31
-4.002057e+30
-5.1563215e+30
4.2831158e+30
4.6659693e+30
7.3503798e+31
-9.202536e+31
-4.0883059e+30
-5.0425679e+30
3.9804599e+30
4.7246369e+30
5.4699515e+30
-5.6444229e+30
-5.9165386e+30
3.5376519e+30
3.978933e+30
7.762558e+30
3.9601124e+30
-5.8818237e+30
-5.4490178e+30
3.9823779e+30
-7.4145146e+31
4.8739828e+30
9.690121e+31
4.2597668e+30
-5.4969211e+30
-5.2776205e+30
4.5150925e+30
8.4985578e+30
-9.2020092e+31
3.9580093e+30
-5.1360577e+30
-4.151305e+30
4.7133494e+30
7.5272412e+31
1.0335609e+31
-9.4440319e+31
-4.2294107e+30
-5.1141342e+30
4.4714053e+30
4.5190918e+30
9.8062049e+31
7.0556463e+30
4.0252535e+30
-5.7162589e+30
-5.3520091e+30
4.0144993e+30
2.5197187e+30
-5.7047615e+30
-5.8484456e+30
4.5492593e+30
-5.5923537e+30
-5.7917517e+30
4.1495722e+30
4.0356604e+30
-7.5272242e+31
2.6333765e+30
-5.3871744e+30
-5.7432234e+30
4.3418273e+30
3.6693619e+30
-9.7038806e+31
3.8928442e+30
-5.955089e+30
-5.8184241e+30
4.1031857e+30
7.4249041e+31
-9.5699703e+31
-5.2517799e+30
-5.418367e+30
4.8369609e+30
4.4162955e+30
4.2362762e+30
-5.4359878e+30
-5.2876803e+30
4.0848524e+30
8.9862278e+30
7.4579076e+31
-9.4666146e+31
3.7786344e+30
-5.1479212e+30
-4.2620762e+30
4.3876073e+30
7.3524727e+31
-9.257797e+31
-4.0053372e+30
-4.9143707e+30
4.1934057e+30
4.3688174e+30
5.9748791e+30
-5.3209376e+30
-5.6071032e+30
3.698447e+30
4.0589108e+30
3.9927632e+30
-5.4912399e+30
-4.9764947e+30
4.0718863e+30
1.8644311e+29
1.8261826e+31
-2.3133739e+31
-1.514864e+29
-6.2334888e+29
-2.3489092e+31
-7.655309e+29
1.267363e+28
-4.7475713e+29
-1.3127911e+31
-7.3274203e+31
1.6401627e+31
4.3235974e+30
-5.1412651e+30
-3.4824582e+30
5.6876017e+30
-1.7389314e+30
1.6949683e+31
2.3558891e+30
-2.0865809e+31
-6.3766715e+29
1.7290473e+31
-2.2632279e+30
-2.1145883e+31
-5.6195565e+29
8.038088e+29
-1.0993708e+30
2.2480372e+31
-3.2513916e+29
2.1876195e+31
1.2603174e+30
-6.4818122e+29
-7.1349292e+31
-1.6573351e+31
4.2147981e+30
-4.4363878e+30
-3.440747e+30
5.8217055e+30
-1.8195153e+30
1.6334212e+31
-2.0067884e+31
-5.7243183e+29
1.629865e+31
-2.5565287e+30
-1.9694937e+31
-5.941914e+29
9.9368096e+29
2.141457e+31
-1.6424295e+30
-4.5309247e+29
2.1474549e+31
-5.6584872e+29
-4.0101827e+29
1.7610284e+31
3.5044872e+29
-1.1196467e+30
1.7557138e+31
-7.922512e+29
-1.035085e+30
1.6926836e+29
2.2592648e+31
-4.4834842e+29
-1.0341876e+30
8.271022e+28
2.288149e+31
-1.0371397e+30
-1.8129923e+31
-3.5632828e+28
2.3304072e+31
-1.0112647e+30
3.2165268e+29
-1.0794246e+30
1.7786565e+31
5.340923e+29
-1.2608368e+30
2.2873823e+31
5.5965699e+28
-1.1118071e+30
1.6006494e+31
-7.9280956e+31
-2.0976445e+31
-1.1287199e+31
2.2742477e+31
-8.9050519e+31
-1.0917229e+31
-1.8239378e+31
-1.8904279e+29
2.3010838e+31
-3.7640593e+27
-8.0690734e+29
-1.8321421e+29
-4.8787684e+28
-1.0683595e+30
1.8384104e+31
-3.0704335e+29
-1.0462851e+30
-3.6712503e+29
2.339655e+31
-7.6085676e+29
2.9197275e+29
1.8404503e+31
-2.8224609e+29
-1.0852718e+30
1.8647416e+31
-9.5275698e+29
-4.2136838e+29
2.3664477e+31
-7.0508247e+29
2.3320171e+31
-4.1369267e+29
-7.9506743e+29
3.678813e+29
1.8479293e+31
-4.7339337e+29
-7.4046013e+29
1.8250261e+31
1.8404874e+29
-7.3467642e+29
-1.685549e+29
3.8452454e+28
-8.0318437e+29
-3.2045014e+29
-7.5155875e+29
-1.8641944e+31
-4.1860263e+29
-7.7072632e+29
-4.6263949e+29
-7.5657596e+29
1.8510762e+31
-5.543606e+29
-7.6675596e+29
-3.97801e+29
-8.0497402e+29
-1.8843619e+31
-4.3401096e+29
2.3787301e+31
-5.2555247e+29
-3.5831881e+29
-2.3546477e+31
-9.5440771e+29
-1.9073185e+31
2.4178154e+31
-4.5214895e+29
-4.2447858e+29
-4.1381534e+29
-2.3804844e+31
-8.9326061e+29
-1.878342e+31
-2.981534e+29
-8.1861173e+29
-5.2989433e+29
-6.0073877e+29
1.8969151e+31
-4.7343304e+29
-4.5164452e+29
-2.760159e+29
-6.6966954e+29
1.9192872e+29
1.8592154e+31
-2.3102958e+31
-2.4206823e+29
-1.1485704e+30
1.8801519e+31
-2.3699105e+31
-1.2701418e+30
-2.8206053e+29
2.3757676e+31
-8.8374621e+29
2.3436255e+31
-2.4474699e+29
-7.0007857e+29
2.9492361e+29
1.8553175e+31
-3.0664075e+29
-6.7245085e+29
1.8684468e+31
-8.8840455e+29
-2.2399905e+29
-8.1674614e+29
-1.4293217e+29
-6.7525565e+29
-1.8330278e+31
-9.8992471e+28
-9.554456e+29
8.2235844e+28
-2.2321159e+31
-1.213472e+30
-1.8342751e+31
-1.4202886e+29
-9.6438318e+29
-2.2579553e+31
1.4359729e+29
-1.3603222e+30
1.3532549e+31
-7.6359595e+31
-4.1260233e+30
-5.1722302e+30
4.0131336e+30
5.5611713e+30
-1.7100059e+31
7.1737469e+29
-8.5574574e+29
1.7160051e+30
-2.0997782e+31
-9.0444876e+29
1.7495269e+31
2.1378919e+30
-2.1633688e+31
-8.2695896e+29
1.0247766e+30
-8.8452739e+29
-7.4868495e+31
1.6046001e+31
4.198501e+30
-5.5013367e+30
-3.8393697e+30
5.4039071e+30
1.5572387e+31
-8.5152803e+31
-1.1514627e+31
-8.8954732e+31
2.1039004e+31
-1.1184126e+31
-1.7960943e+31
8.5605087e+29
2.328208e+31
-6.3319789e+29
1.7609235e+30
-2.2037109e+31
-8.8357151e+29
1.7269738e+31
2.464681e+30
-2.1392166e+31
-9.664116e+29
2.2171651e+31
1.4303046e+30
-1.0824679e+30
-2.9870276e+29
1.7970749e+31
5.6344639e+29
-1.5078299e+30
1.8586526e+31
-1.1037237e+30
-5.82151e+27
-1.1571552e+30
9.5963871e+28
-1.2757619e+30
-6.8817749e+31
8.490913e+31
6.8712412e+31
7.6983246e+31
-3.6111687e+31
-8.5178674e+31
6.4965869e+31
7.6071459e+31
-3.5722994e+31
1.2440014e+31
-7.4504736e+31
3.88425e+30
-5.1095061e+30
-4.1642734e+30
5.4432371e+30
-7.586678e+31
1.5098621e+31
4.0629014e+30
-5.6902483e+30
-4.1985583e+30
5.2132732e+30
1.4962693e+31
-8.2809349e+31
-1.1955196e+31
2.033877e+31
-9.1481814e+31
-1.1796315e+31
-3.0852556e+29
1.8182453e+31
-2.2478076e+31
5.1142039e+29
-1.5191923e+30
1.8849443e+31
-3.3242933e+29
-2.3564799e+31
-1.0732339e+30
-1.7865759e+28
6.5009922e+28
2.4082125e+31
-9.9720344e+29
2.3359524e+31
9.7991693e+28
-1.117461e+30
-2.4727126e+29
1.8278938e+31
-2.2529336e+31
-1.4915288e+30
1.854965e+31
-2.287641e+31
-1.0302875e+30
-2.5361086e+28
2.3642296e+31
-9.4364023e+29
2.3709112e+31
-1.1014245e+30
-1.7488759e+31
7.7450688e+29
-6.8620397e+29
1.6224859e+30
-2.1012221e+31
-1.0296731e+30
1.7394871e+31
2.03991e+30
-2.1488038e+31
-9.5941738e+29
1.0198864e+30
-1.0353054e+30
-1.8161796e+31
6.9501898e+29
-7.0486738e+29
1.4988583e+30
-2.2194591e+31
-9.7696351e+29
1.7558402e+31
2.0386568e+30
-2.1771759e+31
-1.035401e+30
1.1749527e+30
-1.1751533e+30
1.6545304e+29
1.8710835e+31
-1.482599e+29
-1.0988015e+30
1.9070119e+31
3.2118542e+29
-1.2156031e+30
-2.9536808e+29
3.6132609e+29
2.4036439e+31
-9.3564818e+29
2.3581287e+31
-2.9564162e+29
-7.788171e+29
2.694841e+29
1.8905271e+31
-1.1127654e+30
1.8819116e+31
-1.1759893e+30
-2.4950148e+29
2.3544075e+31
-9.7728989e+29
2.3904757e+31
-8.2877212e+29
3.6788035e+29
1.8777009e+31
-4.357481e+29
-7.815724e+29
1.8547929e+31
-9.816518e+29
-1.6962153e+29
2.3056138e+31
-9.6592796e+29
-3.0357773e+29
2.355159e+31
-7.6949193e+29
-1.8842024e+31
-3.3061262e+29
2.3616333e+31
-8.4541887e+29
-3.4284086e+29
-9.3366448e+29
1.8644009e+31
-4.4205578e+29
-7.3393832e+29
-3.4615381e+29
2.3258792e+31
-7.2749047e+29
1.6939177e+29
1.8683786e+31
-2.3124745e+31
-1.0222855e+30
1.8864602e+31
3.4535677e+29
-2.3666629e+31
-1.2620529e+30
-3.1518309e+29
4.725658e+29
2.3898063e+31
-7.5511048e+29
2.3606714e+31
-5.4192578e+29
2.182726e+29
1.8839727e+31
-2.353754e+31
-1.2183921e+30
1.8729064e+31
-2.3480406e+31
-1.2557473e+30
-3.3354339e+29
2.3520972e+31
-7.7767719e+29
2.3875202e+31
-7.3031571e+29
-1.8589628e+31
-3.1622474e+29
2.3237836e+31
-8.3830039e+29
-4.8129738e+29
-8.8403119e+29
1.8811004e+31
-5.9097422e+29
-7.705132e+29
-4.4534932e+29
2.3684763e+31
-7.1639319e+29
-1.8829919e+31
-3.5867812e+29
2.3714426e+31
-7.0469551e+29
-3.9558858e+29
-7.973226e+29
1.8718851e+31
-6.0099621e+29
2.3373999e+31
-5.9343994e+29
1.2598408e+31
-7.7360404e+31
4.0821342e+30
-5.3734172e+30
-4.5293283e+30
5.3117356e+30
-7.4817029e+31
4.1968714e+30
-5.4831396e+30
-3.9661481e+30
5.1857631e+30
1.3826984e+31
-8.6311411e+31
-1.1831795e+31
-8.8816216e+31
-1.1202887e+31
-4.3727577e+29
1.7844e+31
-2.1802134e+31
-1.555359e+30
1.836693e+31
-4.3488089e+29
-2.2848943e+31
-1.1902849e+30
6.8515922e+28
-1.7319524e+28
-1.1207238e+30
-1.1060034e+30
-3.1853072e+29
1.813223e+31
-2.2406614e+31
-1.5920975e+30
1.8423679e+31
-2.290533e+31
-1.0509645e+30
5.1811511e+28
-1.0228625e+30
-1.2045867e+30
-1.7711626e+31
7.8486379e+29
-7.4102056e+29
1.4673989e+30
-2.1654573e+31
-9.262732e+29
1.7426222e+31
2.0164571e+30
-2.1808852e+31
-9.9643289e+29
1.1849122e+30
-1.2312747e+30
-1.7632691e+31
9.9516275e+29
-8.2494631e+29
1.7316422e+30
-2.1862352e+31
-8.6755501e+29
1.6921966e+31
-2.1055452e+31
-1.1398505e+30
-1.2618841e+30
-6.9936041e+31
7.0632989e+31
7.741588e+31
-3.455402e+31
6.7581262e+31
7.8043525e+31
-3.8472392e+31
2.0664162e+32
1.678851e+32
-2.6020784e+32
3.2956022e+32
2.954371e+32
3.2857791e+32
3.6782779e+32
1.6231114e+32
3.2631777e+32
3.0209009e+32
3.3614818e+32
3.5973735e+32
-1.8131529e+31
-8.9295007e+28
-8.8073071e+29
-2.6129435e+29
-9.4959727e+29
1.8450565e+31
-3.6706232e+29
-7.2816498e+29
-2.6591564e+29
-6.7521504e+29
3.0900276e+29
1.8336936e+31
-3.7257449e+29
-6.7393232e+29
1.8504345e+31
-7.4060514e+29
-2.841221e+29
2.3184471e+31
-6.6490296e+29
2.2844503e+31
-2.8056543e+29
-6.087618e+29
2.0892062e+29
-2.5464747e+29
-6.2144655e+29
-7.1430577e+29
3.503697e+29
1.8444316e+31
-5.5401921e+29
1.8620012e+31
5.2619024e+29
-5.4115927e+29
3.1838313e+29
2.297731e+31
-5.0467573e+29
4.2307876e+29
2.3368713e+31
-5.201077e+29
4.2108095e+29
1.8581995e+31
-6.9344077e+29
1.8301023e+31
-7.3260699e+29
2.8255932e+29
2.3276566e+31
-6.1241187e+29
2.2809419e+31
-7.1796813e+29
-3.2332454e+29
-7.6066125e+29
1.8250391e+31
-4.080558e+29
-6.0410065e+29
-2.2028041e+29
-6.7726799e+29
-1.8320339e+31
-1.8008288e+29
-6.2286901e+29