/*--------------------------------*- C++ -*----------------------------------*\
  =========                 |
  \\      /  F ield         | OpenFOAM: The Open Source CFD Toolbox
   \\    /   O peration     | Website:  https://openfoam.org
    \\  /    A nd           | Version:  7
     \\/     M anipulation  |
\*---------------------------------------------------------------------------*/
FoamFile
{
    version     2.0;
    format      ascii;
    class       surfaceScalarField;
    location    "0";
    object      phi;
}
// * * * * * * * * * * * * * * * * * * * * * * * * * * * * * * * * * * * * * //

dimensions      [0 3 -1 0 0 0 0];

internalField   nonuniform List<scalar> 
99977
(
-5.9284626e-06
0.00086039021
5.0887753e-05
-5.1135731e-05
-5.0652805e-05
5.1484969e-05
-1.4561073e-07
-2.7387459e-06
0.00081932812
3.6176841e-05
5.1158255e-05
-5.0317935e-05
-3.5436747e-05
-5.0498513e-05
5.0210558e-05
3.584254e-05
-3.5710858e-05
3.4214541e-10
3.2494331e-10
7.9784339e-07
-1.5458796e-07
-2.3172954e-06
0.00087559356
5.2325492e-05
5.3141828e-05
-5.2365561e-05
-5.1548516e-05
-1.9505975e-05
0.00082841665
-5.0805684e-05
4.9601548e-05
5.1355034e-05
-4.9731275e-05
-1.8343642e-06
-4.4002641e-06
0.00086317753
5.144063e-05
-5.0946557e-05
-5.1301988e-05
5.151679e-05
-0.00020027622
-2.2193758e-07
-7.4263241e-07
0.00025181881
3.1004758e-07
3.087555e-06
-3.4311069e-06
-2.0408946e-07
0.00019977257
-4.8299432e-08
0.00025175232
8.1799384e-08
-1.5028476e-07
-2.0323758e-06
0.00082057698
-5.0526366e-05
5.1066601e-05
3.6104468e-05
-3.5632791e-05
-5.0516561e-05
5.0368438e-05
3.5864179e-05
-3.5793022e-05
2.2443026e-06
-0.00018670647
0.00020857028
-4.9582789e-08
1.2117854e-05
-0.00019548317
1.691095e-06
0.00024666157
5.3333705e-07
2.2289005e-06
-1.6547976e-06
-1.4707638e-07
4.4117381e-07
-1.2152073e-05
0.00019329322
2.9857397e-06
-3.0577158e-06
-3.7126173e-07
-1.9482505e-06
1.2921285e-06
0.00024383095
3.2949532e-07
-0.00018599053
0.00020772031
1.24155e-05
-2.5187391e-07
-1.1609112e-05
2.2405996e-07
-1.6339976e-10
6.965556e-11
8.8058352e-07
8.922816e-11
-6.3727732e-10
8.7967851e-07
-4.0560584e-11
-6.4788232e-10
7.9837818e-07
-1.134609e-07
-1.9139657e-06
0.00087582616
5.312316e-05
5.2320959e-05
-5.1606209e-05
-5.2409161e-05
-1.3248165e-06
-1.8191609e-06
0.00093541336
-1.2328797e-07
-2.2325394e-06
0.00087681992
5.2236169e-05
5.3071592e-05
-5.2572548e-05
-5.1755567e-05
8.6548391e-07
-0.00020397734
0.00025682184
3.0648634e-07
-0.00020746317
2.0482315e-08
0.000261003
4.4689928e-07
8.3638412e-07
2.6225227e-08
-5.8748453e-08
7.891798e-08
-5.4778225e-06
0.00084304671
4.9507026e-05
4.7866673e-05
-5.1992746e-05
-5.0583992e-05
-1.6326044e-05
-1.8016385e-05
0.00085719719
5.0992544e-05
-5.1420137e-05
-5.0406446e-05
5.1995199e-05
0.00019872371
2.7390109e-06
-3.1008717e-06
-1.975426e-07
9.3817881e-07
-1.5600637e-06
0.00024895651
-9.4958119e-09
-0.00019967368
0.00025110947
1.1475148e-07
-6.5282994e-08
-1.7082969e-06
-4.4986334e-06
0.00086661763
5.1652239e-05
-5.1073607e-05
-5.1360314e-05
5.1516476e-05
-0.00020083386
-7.1930339e-07
-2.5833883e-07
0.00025289589
3.5652629e-07
-2.4168344e-06
0.0002002197
-5.454619e-08
-2.505573e-06
-2.2830911e-07
0.0002522241
8.5420266e-08
-0.00018713656
1.27644e-06
-1.316223e-06
0.00018746694
1.9171524e-08
1.4247261e-06
-1.6282491e-06
-2.8559927e-08
0.00018496797
-6.884939e-09
0.00018524102
4.2950288e-09
-4.3670391e-08
-1.2871492e-06
0.00082136087
5.0451058e-05
-5.0554994e-05
-3.5833196e-05
3.5876861e-05
3.6055054e-05
5.1013036e-05
-5.06895e-05
-3.5770395e-05
0.00019579183
2.215636e-06
-1.6392645e-06
-2.3252284e-07
-2.2522415e-06
1.6940721e-06
0.00024695317
4.6391716e-07
-0.00018698925
0.0002088225
-1.1647784e-07
1.2135244e-05
3.3829528e-07
-1.2174344e-05
0.00019362589
2.7526341e-06
-2.7072088e-06
-3.5664113e-07
-2.1512942e-06
1.6189035e-06
0.00024419046
3.3660973e-07
-0.00018627333
0.00020792464
1.2313967e-05
-2.5282864e-07
-1.182268e-05
2.2919984e-07
-1.8357825e-07
-0.00016823562
0.0001682944
7.3319274e-08
2.8629124e-09
-0.00019409894
0.00021892388
-6.3102318e-08
-2.293912e-07
-0.00017976851
-8.4338861e-08
0.00018013951
6.3420516e-08
-1.8394174e-07
9.6329418e-08
-8.8186704e-09
-6.8998641e-08
4.613595e-08
4.690063e-07
2.042016e-07
0.00017713527
3.4358525e-07
-6.1564463e-07
-4.0690588e-08
6.2283825e-07
-6.6317304e-07
0.00017746737
3.730579e-08
-0.00016704103
0.00016708363
3.5006915e-07
-2.2066631e-08
2.7861945e-07
1.3678269e-08
-7.9869856e-09
-1.8861057e-09
9.8564998e-06
-3.1277826e-10
-1.0061149e-09
9.6922145e-07
-5.9761571e-13
-7.282478e-10
8.8117635e-07
-1.7725133e-08
-1.9432441e-08
9.7947991e-06
-5.6450321e-11
-1.3062396e-09
8.8027307e-07
1.929981e-10
-4.4272104e-10
7.9901103e-07
-1.9769515e-06
-5.0593554e-05
0.00081975856
5.0234595e-05
3.5861275e-05
-3.5731029e-05
5.110694e-05
3.6156757e-05
-3.5502762e-05
-5.0398141e-05
-4.1628901e-07
-1.3571989e-08
0.00093581337
-2.2100252e-08
-2.0087348e-06
-5.1784982e-05
5.2231807e-05
0.00087681911
5.3054982e-05
-5.258706e-05
-8.3378289e-07
-0.00020747058
0.00026100552
4.4265941e-07
-0.00020399755
-1.6576849e-06
0.0002568431
2.9934025e-07
-8.7627972e-07
1.6953679e-06
4.9093521e-08
-8.7206928e-08
-2.4342066e-06
0.00092717273
-1.1306285e-06
-6.0436416e-06
0.00093864661
-2.2113755e-08
-1.5147404e-06
0.00087765215
5.3043462e-05
-5.2704985e-05
5.2186016e-05
-5.1862942e-05
8.6752683e-07
-0.0002042642
0.00025706744
2.5943954e-07
-0.00020772576
1.9538137e-08
0.00026124558
3.9973727e-07
8.2979938e-07
2.1672113e-08
-1.4686843e-07
-7.3561508e-09
-6.5038647e-08
-0.00018996816
0.00019022112
3.396881e-08
-0.00019436055
2.0853721e-08
0.00019467417
4.7325862e-08
-9.0459361e-08
2.2113172e-08
7.274031e-09
1.8990727e-08
-4.4715179e-06
0.00081862377
-5.1495437e-05
-5.1897407e-05
4.678799e-05
4.7935414e-05
-4.9130079e-06
0.00084998442
5.1254886e-05
5.0351249e-05
-5.3523367e-05
-5.2168079e-05
-1.3701752e-06
-0.00019940793
0.00024907444
-3.4965714e-07
-0.00019949423
-1.7357204e-06
0.00024831935
-5.9311991e-07
2.1905029e-06
-2.1467399e-06
-4.514028e-07
-3.306491e-07
-4.2402231e-06
-6.3391359e-06
0.00086074538
5.1105348e-05
-5.014988e-05
-5.0282311e-05
5.1858674e-05
-0.00019792537
6.4461467e-07
-1.340986e-06
0.00024939267
2.2150715e-07
1.8545211e-06
-1.9196955e-06
-3.2395429e-07
0.00020016951
-1.1750221e-07
0.00025233365
2.173282e-07
0.00018486759
1.694057e-06
-1.6783125e-06
-2.5271283e-08
1.359569e-06
-1.3085978e-06
0.00018479822
8.6153917e-09
-0.00018633524
0.00018649251
7.7326266e-10
-1.940635e-08
-4.1442824e-07
-2.0833637e-06
5.1687522e-05
0.00086767345
-5.1265627e-05
-5.1735908e-05
5.1468983e-05
-0.00020185125
-1.0375546e-06
4.45467e-07
0.00025376885
3.2675076e-07
-2.1464223e-06
0.00020062075
-3.0900912e-08
-2.2884203e-06
-1.7378734e-07
0.00025265114
6.7590985e-08
-0.00018743495
7.9659619e-07
-8.2206646e-07
0.00018779675
1.9936572e-08
-7.406024e-07
0.00018531955
-8.1779205e-09
-9.065879e-07
-3.0438592e-08
0.00018553631
2.0544798e-09
-1.5521961e-05
9.6062753e-08
-1.0067291e-07
1.553474e-05
9.5940552e-09
1.277663e-07
-1.3754174e-07
-1.3994838e-08
1.5347593e-05
-3.4657726e-09
1.5365069e-05
1.8216924e-09
4.4579278e-08
-6.4784779e-07
0.0008216711
5.0504891e-05
5.0975092e-05
-5.0773918e-05
-3.5843746e-05
3.5996877e-05
3.5887418e-05
-3.587149e-05
-5.0581159e-05
-0.00019383898
-2.2458648e-06
1.8460645e-06
0.0002443518
3.3862905e-07
2.6387467e-06
-2.4833303e-06
-3.5877009e-07
0.00018642623
2.3469162e-07
-1.1930703e-05
0.00020806942
-2.4724806e-07
1.2234781e-05
2.2483783e-06
-0.00018716478
0.00020897276
1.2154356e-05
-1.5585667e-07
-0.00019597347
1.6940055e-06
0.00024711876
4.2290032e-07
2.2240921e-06
-1.6514615e-06
-2.8183869e-07
-1.2180287e-05
2.9170985e-07
0.0001800176
-2.0813584e-07
1.1931319e-07
-2.1649774e-08
1.7443003e-07
-7.7475171e-08
0.00018033059
5.4137711e-08
-0.00016848037
0.00016847259
7.0661711e-08
-4.6439111e-09
-0.00019437436
0.00021917946
-1.2812343e-07
-2.280166e-07
-9.101663e-08
3.5249545e-08
3.4265574e-07
2.0952771e-07
0.00017737448
9.8003617e-08
-3.2103094e-07
-4.0962888e-08
4.3672258e-07
-4.4209322e-07
0.00017767864
3.7464024e-08
-0.00016727088
0.00016724255
2.3279174e-07
-2.078712e-08
1.2175187e-07
1.786552e-08
-0.00015657926
0.00015659678
-1.2364988e-08
4.1235457e-09
-4.6046613e-09
-1.4168681e-05
1.4175554e-05
7.1394244e-10
3.4087201e-09
-0.00015628037
0.00015630293
1.2339055e-07
-2.3880086e-08
-1.5141267e-05
2.4655774e-09
1.5167861e-05
3.0399615e-08
-3.3211641e-09
-2.7223599e-09
-4.9562084e-09
1.0320709e-08
6.2245833e-08
1.5122662e-09
2.2678704e-08
2.1963072e-07
-3.6070113e-08
1.4805892e-05
4.1660154e-08
-6.1696338e-08
-2.0071406e-08
3.9925481e-08
-4.1418792e-08
1.4826546e-05
1.6884075e-08
-1.3987048e-05
1.3992039e-05
2.3348943e-08
-1.0454234e-08
2.9170053e-08
6.3026208e-09
-2.1591898e-08
-2.1274398e-09
1.0849317e-05
-4.0555883e-08
-1.5975139e-09
1.1997809e-05
-9.2986916e-09
1.6964898e-09
9.8635471e-06
-1.1548497e-08
-2.2439212e-08
1.0803352e-05
-1.1894343e-11
-1.4719443e-09
9.6987834e-07
2.0498968e-10
-4.8620543e-10
8.8187404e-07
5.8829847e-08
-2.611758e-08
1.1924693e-05
-1.8803283e-09
-9.8900514e-09
9.8030057e-06
2.1689579e-10
-1.0907856e-09
8.8097057e-07
2.4050144e-10
-2.9826165e-10
7.9931925e-07
-5.046857e-07
-5.173794e-05
5.135509e-05
0.00086425471
5.1446334e-05
-5.1285464e-05
0.00019343279
2.9720235e-06
-2.8963153e-06
-3.7837665e-07
-1.6754427e-06
5.0388063e-05
0.0008206139
3.5878649e-05
-3.5799445e-05
-5.054278e-05
-3.5674696e-05
3.6085836e-05
5.1039868e-05
-5.0577468e-05
-1.999958e-06
1.4287462e-06
0.00024391047
3.281657e-07
-0.00018603704
0.000207736
-2.4702486e-07
1.2409071e-05
2.3419341e-07
-1.1651707e-05
-2.2230508e-06
-0.00019553643
0.00024668667
5.2211309e-07
-0.00018673054
0.00020858843
1.2136956e-05
-6.1424788e-08
-2.2560495e-06
-1.2133342e-05
4.0793193e-07
-1.5860731e-07
-1.0225077e-06
0.00092855765
1.2123653e-07
-6.3011887e-06
0.00093885376
0.00020425627
-8.6260746e-07
1.6773568e-06
-1.2913133e-08
8.3816627e-07
-1.6627293e-06
2.5403872e-07
0.00025705863
3.4582912e-08
-1.5074582e-06
-5.1911445e-05
0.00087763561
5.2231299e-05
5.3053712e-05
-5.2739101e-05
-0.00020772793
0.00026124404
3.9666195e-07
-1.5026326e-07
1.0372408e-07
-0.00019435844
0.00019467158
4.6610581e-08
-0.00018996387
1.1684932e-07
0.00019021631
3.3755422e-08
4.9014923e-08
-6.0969086e-08
1.892035e-08
6.6327962e-09
-2.8194936e-06
-8.756091e-06
0.00092846387
-2.8938276e-07
-2.5946542e-06
0.00093960139
3.95772e-08
-7.6029386e-07
5.3008392e-05
0.00087803903
5.2176782e-05
-5.1993969e-05
-5.2812327e-05
-0.00020788599
-8.6520685e-07
1.7630862e-08
0.0002614428
3.3440917e-07
8.3271568e-07
1.8827757e-08
-1.968127e-07
-0.00020444262
0.00025726304
1.9451716e-07
-5.6833277e-08
-6.2459723e-08
-0.00019022313
0.00019044284
2.4537275e-08
-0.00019461566
1.7572107e-08
0.0001948977
3.7602378e-08
-1.0274365e-07
1.9174404e-08
-4.8709746e-09
7.0195896e-09
5.8956914e-10
-1.5925337e-05
1.5945301e-05
1.6417751e-08
-1.6299928e-05
1.7415964e-09
1.6323513e-05
2.2297561e-08
-9.026518e-10
1.8499934e-09
3.479203e-09
9.4376783e-09
-4.6063294e-06
0.00081418757
4.6500304e-05
4.720164e-05
-5.1421862e-05
-5.2030527e-05
-3.1676844e-06
0.0008454407
5.0170807e-05
-5.3372576e-05
-5.3146265e-05
5.0822224e-05
-1.5275268e-06
0.00019920264
-6.1227487e-07
0.00019836803
-1.7797769e-06
-6.4235459e-07
1.2894394e-06
-1.4688388e-06
0.00024620362
-8.6837062e-07
0.00024748712
-7.9553835e-07
-5.9410646e-06
-4.8054289e-06
0.00085104639
5.0576782e-05
-4.9295108e-05
-4.9169796e-05
5.1232548e-05
-1.1489544e-06
-0.00019693235
0.00024799514
-3.2317349e-10
-0.00019555655
-1.3885611e-06
0.00024624082
-9.3605425e-08
1.3630225e-06
-1.3552362e-06
-7.6849525e-07
-5.8275505e-07
-1.2737918e-06
-0.00018380603
0.00018342133
-1.9808747e-11
-0.00018314001
-1.2181982e-06
0.00018249516
-4.1810247e-09
1.6554779e-06
-1.5194466e-06
-2.8235234e-08
-2.5779833e-08
-8.2191179e-07
-2.3616115e-06
0.00086147313
5.10015e-05
-5.10182e-05
-5.1246911e-05
5.1635396e-05
-0.00019933776
-4.9326843e-08
-4.4106862e-07
0.00025061708
3.1612023e-07
1.724697e-06
-1.8558542e-06
3.5998759e-08
0.00020143291
5.4680965e-08
0.00025348502
2.0270413e-07
-0.00018454084
8.7329091e-07
-8.6367878e-07
0.00018474905
3.3140909e-09
9.7426205e-07
-1.013242e-06
-2.7814564e-08
0.00018646351
-2.0876782e-08
0.00018673219
-2.210136e-10
1.5223388e-05
1.3764527e-07
-1.3397828e-07
-1.2562802e-08
1.0489776e-07
-1.0416311e-07
1.5226911e-05
3.5434378e-09
-1.5425462e-05
1.5428947e-05
1.3489762e-09
-9.2434345e-09
-0.00020219273
-1.2928092e-06
8.8063133e-07
2.6359755e-07
0.0002540289
1.7878993e-08
-8.7406216e-07
-5.1838332e-05
0.00086792515
-5.1387247e-05
5.1728359e-05
5.1454125e-05
-1.9130959e-06
0.00020087093
-5.5547278e-08
-1.8127558e-06
-2.6017068e-07
0.00025284951
4.3758207e-08
-0.00018781689
5.4201549e-07
-5.4213336e-07
0.00018812323
2.0392545e-08
-3.9519645e-07
0.00018558737
-7.8847943e-09
-5.5978183e-07
-2.9440823e-08
0.00018575386
1.0887779e-09
-1.5526003e-05
5.3752898e-08
-5.7213788e-08
1.5539341e-05
8.9714223e-09
-6.8528304e-08
1.5367298e-05
-4.1310821e-09
-7.6577265e-08
-1.4811314e-08
1.5380358e-05
8.5965115e-10
-1.412884e-05
8.6935806e-08
-9.1054964e-08
1.4142445e-05
1.1587159e-07
-1.2454704e-07
1.3966066e-05
1.3980618e-05
4.4154869e-08
-2.7362105e-07
0.00082177936
5.0943e-05
5.0538391e-05
-5.0580811e-05
-3.5887942e-05
3.5891512e-05
3.5966624e-05
-3.5893263e-05
-5.085565e-05
-2.3540468e-06
-0.00019389388
1.9887309e-06
0.00024442502
3.3951553e-07
-0.00019608696
-2.246977e-06
1.6883422e-06
0.00024722513
3.9592767e-07
2.2264235e-06
-1.6547152e-06
-3.1345037e-07
0.00018727501
2.6235643e-07
-1.2182096e-05
0.00020904216
-1.8205481e-07
1.2164707e-05
-0.00018654177
0.00020813687
1.2186255e-05
-2.4827763e-07
-2.5613114e-06
-1.2020969e-05
2.3811884e-07
-2.3268021e-06
-3.5738976e-07
-0.00017750927
3.6149072e-07
-3.0119321e-07
0.00017774927
3.8322634e-08
-2.1031719e-08
-1.2805319e-07
-4.0330088e-08
0.00016739217
2.0005036e-08
4.3758468e-08
0.00019455793
2.1305143e-07
2.9699358e-07
0.00016735411
1.7157676e-07
-1.9724761e-08
0.00021933438
-2.2266406e-07
-1.6516424e-07
-1.8072163e-07
-0.00016861899
0.00016857931
7.2099697e-08
-8.2161323e-09
-0.00018016603
-8.4177617e-08
0.00018044319
4.9216741e-08
-2.0506026e-07
1.1561394e-07
-2.7936882e-08
-8.956533e-08
2.9756881e-08
1.5162355e-05
-5.9491471e-09
-2.4672012e-10
-9.7869809e-09
3.5244204e-09
3.2633485e-09
1.5184045e-05
2.5678556e-08
-0.00015681211
0.00015677531
-1.4945391e-08
-6.0596695e-09
-1.4189553e-05
1.4190625e-05
1.9056256e-10
-1.6259599e-09
-0.00015651154
0.00015646738
6.8306989e-08
-1.9669178e-08
6.9924919e-10
3.5621908e-08
-1.5438511e-09
1.6801514e-08
1.0631307e-07
1.6512955e-08
1.4822039e-05
2.0085573e-08
-3.7726355e-08
-1.9618869e-08
2.4490311e-08
-2.3419277e-08
1.4840335e-05
1.7235847e-08
-1.400558e-05
1.4004936e-05
1.3548942e-08
-1.0176864e-08
1.611603e-08
8.5192491e-09
-0.00012603662
1.9072306e-08
1.4784577e-09
0.00012612622
-1.3244804e-05
-1.9641528e-09
1.3596946e-09
1.3248665e-05
-4.1420206e-09
-1.2843272e-05
7.15227e-10
1.2849454e-05
-1.3143403e-05
9.4145694e-09
-1.0206842e-08
1.3146021e-05
-1.37504e-05
2.0744181e-09
1.3774238e-05
-2.7362671e-09
-2.5899047e-09
1.346481e-05
3.7794759e-08
-5.5783932e-08
3.5988673e-08
-3.7557076e-08
1.34833e-05
-1.2696985e-05
1.9713367e-08
1.2702931e-05
1.0857092e-05
1.2001651e-05
-5.433846e-09
-1.3023311e-09
9.8714769e-06
1.0810895e-05
2.240107e-10
-1.1920727e-09
9.7064586e-07
3.6799957e-10
-3.3773592e-10
8.8221175e-07
1.1924314e-05
3.9176534e-09
-9.0777957e-09
9.8108181e-06
2.5797555e-10
-7.1689038e-10
8.8130826e-07
-3.054988e-10
-6.6647609e-10
7.996802e-07
-1.9670043e-05
0.0008604024
5.2049831e-05
5.1515427e-05
-4.426437e-05
-5.1576718e-05
0.00020112264
2.1444656e-06
-1.3496532e-06
-3.3136017e-07
-8.7400214e-07
-9.9659718e-08
3.1692947e-07
0.00025313436
-4.685718e-06
-5.1579751e-05
5.1656164e-05
0.00086702198
5.1490044e-05
-5.1202336e-05
-0.00020043328
0.00025238091
5.3350961e-08
-1.0454452e-07
0.00017719638
3.1356692e-07
-5.4962945e-07
-3.9670752e-08
-2.183127e-06
-0.00019364312
1.6763131e-06
3.4500395e-07
0.00024419306
-1.2033979e-06
-5.0548564e-05
0.00082134395
5.0473838e-05
-3.582676e-05
3.5890024e-05
-3.5781985e-05
3.6019378e-05
5.1012696e-05
-5.0730738e-05
-0.00018626927
0.00020791497
-2.4213678e-07
1.2291574e-05
-2.7073067e-06
2.3989315e-07
-1.1865539e-05
-2.6295604e-06
-3.5307694e-07
0.00018698067
-2.2355525e-06
-1.2160403e-05
3.2875481e-07
2.2281604e-06
0.00020880921
1.2154811e-05
-1.2597256e-07
-0.0001957934
0.00024694432
4.5441402e-07
-2.4228239e-07
5.9224469e-07
-5.7839445e-07
0.00017747202
3.8526057e-08
-0.00016704423
0.00016707587
3.3269949e-07
-1.9360391e-08
-0.00019410449
0.00021894268
-2.1599543e-07
-7.6528697e-08
2.6712828e-07
2.0610674e-08
2.2633491e-07
4.318469e-07
2.0897469e-07
-0.0001797648
0.00018013184
6.274082e-08
-0.00016823039
0.00016828386
9.0027636e-08
3.7974028e-09
1.5851483e-07
-5.4562045e-08
4.5779525e-08
-1.0638879e-08
1.025157e-07
-9.4494811e-06
0.00092878334
1.7620212e-08
-2.5519676e-06
0.00093959102
0.000190217
6.6966061e-08
-8.7391997e-08
6.8110521e-09
-9.5230962e-08
1.0670253e-07
2.4318668e-08
0.00019043522
0.00020438991
-8.6207813e-07
1.6799517e-06
-6.0582802e-08
2.6051588e-08
-7.2848761e-07
0.00087801564
-5.1991437e-05
5.2175816e-05
-5.2820338e-05
5.2997947e-05
8.3971751e-07
-1.6627366e-06
0.00025725323
1.9099767e-07
-0.00020786078
0.00026143948
3.3246258e-07
-1.9897549e-07
-0.00019461299
0.0001948949
3.7054512e-08
-5.5728559e-09
2.6854144e-09
-1.6299678e-05
1.6323231e-05
2.2105701e-08
-1.5924856e-05
2.5966871e-10
1.594485e-05
1.6071664e-08
-2.5608278e-09
5.7542456e-09
8.9038727e-09
3.2867662e-09
-4.351788e-06
-6.2692353e-06
0.00091831141
-6.7442043e-07
-2.8895163e-06
0.00092861063
1.7341163e-08
-9.5694408e-07
0.00093979837
-8.6255071e-07
-0.00020800581
1.4347507e-08
3.0808771e-07
0.0002615543
4.0304254e-08
-2.7527335e-07
-5.2893296e-05
0.00087816045
5.2977052e-05
5.2147144e-05
-5.2072947e-05
-0.00020453916
0.00025737394
1.677761e-07
-8.3706388e-07
-8.7726612e-08
1.5561984e-08
-2.2796766e-07
-0.00019479777
6.7576198e-08
1.4378326e-08
0.00019501905
3.1227966e-08
-1.003852e-07
1.5730502e-08
-1.2212948e-08
-0.00019040132
0.00019056127
1.840929e-08
7.5324969e-11
8.8650442e-10
-1.5946662e-05
1.5961974e-05
1.1713762e-08
-1.6321309e-05
1.4694937e-09
1.6340244e-05
1.7603836e-08
-2.2502339e-09
1.6060774e-09
-2.4907057e-09
3.3993347e-09
5.9164617e-10
-1.4476251e-05
1.449433e-05
-1.4849944e-05
1.5878892e-09
1.487126e-05
-7.8463591e-10
1.686206e-09
-4.310507e-06
0.00081428918
4.6481544e-05
-5.2188473e-05
-5.1564173e-05
4.7041071e-05
-3.0967558e-06
0.00084216146
5.0537475e-05
5.0055227e-05
-5.3388622e-05
-5.3003996e-05
1.1354724e-06
-0.00019817726
-1.3558503e-06
0.00024585109
-9.5334102e-07
-0.00019820691
0.0002459975
-9.2253049e-07
-1.3834869e-06
-7.2096367e-07
-1.6292063e-06
-7.4265001e-07
-7.4763536e-06
-2.7869998e-06
0.00084645267
5.0464488e-05
-4.8434773e-05
-4.8457173e-05
5.0872487e-05
-0.00019394352
9.0671948e-07
-1.0257394e-06
0.00024439381
-1.6070798e-07
9.8103258e-07
-1.163762e-06
-9.2988358e-07
0.0001948743
-9.0783152e-07
0.00024537357
-1.5916382e-07
-1.446529e-06
0.00018266239
-4.3710397e-08
0.00018228782
-1.3562903e-06
-4.9102047e-08
1.1492947e-06
-1.1004755e-06
0.00018139637
-2.5982236e-08
0.00018181644
-1.8530632e-08
-1.0318922e-06
-2.2650573e-06
0.00085155781
5.0392301e-05
-5.0398856e-05
-5.0476327e-05
5.0905761e-05
-0.00019682881
4.8189123e-07
-7.5315688e-07
0.00024738909
2.8747745e-07
1.2568331e-06
-1.2586753e-06
1.1854448e-07
0.00019813721
8.8975361e-08
0.00024915637
2.5396931e-07
-8.5533994e-07
-0.0001828735
0.00018287635
-1.1791419e-08
-0.00018170088
-8.2250866e-07
0.00018158971
-1.5632935e-08
1.0147338e-06
-9.5427103e-07
-3.4925367e-08
-3.3507243e-08
-1.0208221e-07
-1.5036047e-05
1.5033721e-05
-4.2801428e-10
-1.4909541e-05
-9.6820725e-08
1.4901758e-05
-2.482483e-09
1.3061812e-07
-1.2071432e-07
-1.3920387e-08
-1.2730952e-08
1.5222709e-08
-1.0225999e-06
0.0008616628
5.1038259e-05
5.1592471e-05
-5.1511745e-05
-5.1175899e-05
-0.00019967182
-3.9199528e-07
5.2446954e-08
0.00025084381
1.6869959e-07
1.2108547e-06
-1.1302229e-06
-1.5384507e-07
0.00020171751
-8.1305026e-08
0.00025375292
8.8562146e-08
-0.00018484307
5.663826e-07
-5.6230016e-07
0.00018514642
8.2615756e-09
6.3851269e-07
-6.6751213e-07
-2.9261539e-08
0.0001868853
-1.981503e-08
0.00018711039
1.6722538e-09
-1.5211787e-05
6.2148531e-08
-6.0736529e-08
1.5211741e-05
8.9558344e-10
7.9987389e-08
-7.9893612e-08
-1.3703814e-08
1.5421281e-05
-1.0072563e-08
1.542585e-05
-3.8233023e-10
1.384792e-05
1.2474134e-07
-1.2165642e-07
9.4966901e-08
-9.3186428e-08
1.3849683e-05
-1.4036392e-05
1.4041633e-05
-0.0001880216
3.7998388e-07
-3.1322159e-07
2.2621652e-08
0.00018819571
1.7662904e-06
0.00020224803
-1.5449798e-06
-2.785823e-07
6.1314431e-08
-3.6373075e-07
0.00086799477
-5.1824051e-05
5.17633e-05
5.145183e-05
-5.1431986e-05
0.000200961
-5.9154314e-08
-1.4248526e-06
1.0667967e-06
0.00025407651
2.5803739e-07
0.00025293943
3.9617438e-08
-1.5371423e-07
0.00018573027
-6.4502896e-09
-2.8420257e-07
-2.8093335e-08
0.0001858508
1.8241468e-09
-1.5529905e-05
3.1591235e-08
-3.4232544e-08
1.5543142e-05
9.3581499e-09
-3.9163009e-08
1.5377545e-05
-3.932072e-09
-4.5669254e-08
-1.4238126e-08
1.5385958e-05
4.448984e-10
-1.4134686e-05
4.8565167e-08
-5.1584652e-08
1.4146659e-05
-6.2017919e-08
1.3982696e-05
-6.9114841e-08
1.3994564e-05
2.4438828e-08
-2.12751e-08
0.00082177303
5.0557576e-05
3.5889612e-05
-3.589379e-05
-5.0568237e-05
-3.592899e-05
-5.0897956e-05
5.0908667e-05
3.5936404e-05
-2.2435798e-06
-0.00019613685
1.6848957e-06
0.00024726248
3.7644438e-07
-0.0001939271
-2.4046223e-06
2.0724634e-06
0.00024445398
3.4377268e-07
2.5046934e-06
-2.2347016e-06
-3.5259234e-07
0.00018658107
2.412333e-07
-1.2069108e-05
0.00020816429
-2.4602372e-07
1.2149354e-05
-0.0001873203
0.00020907322
1.2171175e-05
-2.0121924e-07
-2.2313758e-06
-1.2181378e-05
2.4105594e-07
-1.6628534e-06
-3.354621e-07
2.8339875e-07
-0.00017755587
-2.2052155e-07
0.00017779245
3.979046e-08
-0.00018025244
1.8550633e-07
-8.9338783e-08
0.00018050751
4.4704674e-08
-2.0122627e-07
1.1157565e-07
-3.283906e-08
0.000168699
-8.5351798e-08
2.6774143e-08
0.00019464592
2.6795582e-07
2.17e-07
0.00016863824
7.565565e-08
-1.1359461e-08
0.00021940869
-1.8979325e-07
-2.2249261e-07
-0.00016748074
0.00016740378
1.3120718e-07
-2.0080445e-08
9.5957596e-08
-5.4380317e-09
2.0396619e-08
-2.9174375e-08
-3.9087082e-08
-1.4830317e-05
1.6729073e-08
-1.3252966e-08
1.4846673e-05
1.7875769e-08
1.0123526e-08
-2.1957431e-08
-1.9083079e-08
1.4015411e-05
9.0415238e-09
9.5620859e-09
0.00015663548
1.8582509e-08
6.9693548e-08
0.00015694628
3.8464501e-09
3.1731922e-08
0.00015656207
-1.8622714e-08
4.0368103e-08
1.4012328e-05
8.4261825e-09
-1.0058848e-08
0.00015687272
-1.0164034e-08
-1.0040332e-08
-4.0223174e-09
-1.4201282e-05
1.4199631e-05
2.6847174e-10
-4.65691e-09
-1.5174754e-05
2.7613342e-09
1.5193384e-05
2.2922189e-08
-5.7524904e-09
-3.4602284e-10
-1.3256688e-08
-1.4188604e-09
1.3799274e-08
1.3769552e-05
-5.2848798e-09
-9.5815574e-11
3.1901952e-09
2.8436934e-09
1.3788942e-05
-0.00012622589
0.00012627037
1.1522784e-08
-2.366382e-09
-1.3264825e-05
1.3263957e-05
-2.3883255e-09
-3.022257e-09
-1.2862065e-05
1.2863256e-05
6.5414366e-11
-1.3161228e-05
1.3159647e-05
4.4050761e-09
-9.4996652e-09
1.2470821e-08
-4.2418015e-09
1.444389e-09
1.6931231e-08
-1.2703647e-09
1.008961e-08
8.1568218e-09
1.3478188e-05
1.8014645e-08
-3.2523111e-08
2.1979983e-08
-2.1115702e-08
1.3494529e-05
-1.2713805e-05
1.2713324e-05
1.2143428e-08
1.5860325e-08
1.0865806e-05
1.2016151e-05
-5.6443748e-09
1.9729854e-09
9.8751256e-06
1.0819483e-05
3.8259312e-10
-7.9728469e-10
9.7101532e-07
-3.5587431e-10
-7.1983157e-10
8.8261239e-07
1.1939292e-05
2.6436805e-09
-3.992039e-09
9.814354e-06
-3.2038483e-10
-1.1027472e-09
8.8170778e-07
-3.0954465e-10
-6.669978e-10
7.9979821e-07
-2.2484878e-06
-3.9432451e-05
5.1166728e-05
0.00085448493
5.1604109e-05
-4.6904436e-05
-6.7940306e-06
0.00086138081
-5.0898507e-05
5.0962663e-05
5.1773204e-05
-5.0605399e-05
-1.0625701e-06
-0.00020011831
0.00025272503
4.0579096e-07
-0.00019892669
-1.773494e-06
0.00025037883
7.7388238e-07
7.7768404e-07
-6.6076254e-06
-4.7229163e-07
-1.4454847e-07
0.00018747818
5.8268207e-07
-7.1803186e-07
-3.1822499e-08
7.0844493e-07
-7.2214438e-07
0.00018778829
2.032671e-08
0.00020194432
2.0578558e-06
-2.2733942e-06
-1.7427273e-07
-1.0948931e-06
5.3926396e-07
3.2193398e-07
0.00025383408
-1.911856e-06
-5.1795943e-05
5.1704641e-05
0.00086764542
-5.1278511e-05
5.147237e-05
-0.00020064289
0.00025264483
6.9456821e-08
-3.6066062e-08
-0.00018537661
0.0001855565
3.3632963e-09
-6.7679524e-09
1.4806797e-05
3.9469675e-08
-5.7786271e-08
-1.8724849e-08
4.0907777e-07
-0.00017736486
-4.0029982e-07
3.8834833e-08
0.00017766212
0.00019381943
2.6127719e-06
-2.4377107e-06
-3.499109e-07
-5.7247445e-07
0.00082161756
-5.0561695e-05
5.0519725e-05
3.5894951e-05
-3.5859396e-05
5.0958759e-05
3.5987182e-05
-3.5827533e-05
-5.0787197e-05
-2.2677081e-06
1.8837152e-06
0.00024433064
3.4666743e-07
0.00018640812
2.4180384e-07
-1.1949196e-05
0.00020807278
-2.3942336e-07
1.2196767e-05
0.00018715275
-2.241441e-06
-1.2167705e-05
2.8336863e-07
2.2322363e-06
0.00020893459
1.2168464e-05
-1.6343806e-07
-0.00019594154
0.00024710789
4.1586488e-07
-2.8934307e-07
-0.00016725836
0.00016722804
2.1635183e-07
-1.939196e-08
-0.00019436455
0.00021916669
-2.1882451e-07
-1.3737295e-07
-6.7523275e-08
1.041235e-07
2.0604108e-08
2.1900986e-07
3.3292856e-07
-2.7399393e-07
-3.9466002e-08
0.00016847017
1.8627859e-07
-7.8852437e-08
3.4747141e-08
-1.9773008e-07
0.00016846193
8.4525127e-08
-4.8713444e-09
-0.00018001064
0.0001803203
5.3489838e-08
-2.229862e-08
3.740895e-08
-3.5930466e-08
1.4825488e-05
1.7999587e-08
-0.00015626974
0.00015629387
1.1014231e-07
-1.7884501e-08
-1.3986301e-05
1.3991049e-05
2.201121e-08
-9.3379867e-09
-0.00015657748
0.00015659093
-1.7409966e-09
1.451001e-09
1.9834781e-08
1.9577103e-07
2.9766875e-08
9.460691e-09
2.1039791e-08
4.6065054e-08
6.6272498e-09
-1.5140839e-05
1.5167212e-05
2.9380817e-08
-1.4168432e-05
1.4174479e-05
2.1387346e-09
1.5791337e-09
1.0261144e-09
2.2270117e-09
2.129988e-08
-5.1102583e-09
-5.668522e-07
-6.4704517e-06
0.00091880301
-1.7316829e-07
-2.8614265e-06
0.00092859108
2.9240981e-08
-9.0871201e-07
0.00093975914
1.5946172e-05
-7.7577021e-10
2.858428e-09
3.1545876e-09
-1.8776133e-09
-8.7734928e-10
1.1469517e-08
1.5961424e-05
0.00019039552
7.0937067e-08
-9.1965642e-08
1.1932409e-10
2.312312e-08
-2.5710967e-07
0.00087814202
5.2147165e-05
-5.2070273e-05
-5.2899052e-05
5.2969989e-05
0.00020453071
-8.6061304e-07
1.6820235e-06
-9.0352595e-08
8.4230007e-07
-1.6673083e-06
0.00025736562
1.6579418e-07
0.00020800344
-2.2924073e-07
0.00026155121
3.06856e-07
-9.3324804e-08
1.0623527e-07
0.00019055485
1.8729637e-08
-0.000194795
0.00019501715
3.1337195e-08
-1.2419947e-08
-1.6321027e-05
1.6339964e-05
1.7464652e-08
-2.5905642e-09
2.4015311e-09
-1.4849711e-05
1.4870996e-05
-1.4475775e-05
2.954456e-10
1.4493893e-05
-2.348885e-09
5.2748409e-09
-5.3449757e-06
-2.8508511e-06
0.00091408086
-1.0317088e-06
-2.716131e-06
0.00091813708
-1.4960864e-08
-1.1270867e-06
0.00092881041
5.5694489e-08
-3.5611153e-07
0.0009398846
7.2324694e-08
-0.00019489153
9.3639779e-09
0.0001950898
2.8084158e-08
0.00020805805
8.4109786e-07
1.185267e-08
-2.4992809e-07
2.5780838e-08
-1.0527359e-08
0.00087815973
5.2943326e-05
5.2115659e-05
-5.2113094e-05
-5.2935852e-05
-8.5859439e-07
9.919979e-09
0.00026159568
2.8812387e-07
-0.00020458885
0.00025741431
1.4794361e-07
-1.0958099e-07
-0.00019049406
0.00019062982
1.4836953e-08
9.564343e-08
-4.6718598e-09
1.1773771e-08
-1.6596294e-08
-1.6334541e-05
-5.5752185e-10
1.2433024e-09
1.635046e-05
1.4932217e-08
-2.0982793e-09
1.3156496e-09
-5.7353553e-09
-1.5959786e-05
1.5972027e-05
9.3378154e-09
2.5932553e-10
8.2300088e-10
-1.4495656e-05
1.4509492e-05
-1.4869405e-05
1.3398577e-09
1.4886499e-05
-2.0855734e-09
1.4645899e-09
-3.7242118e-06
0.00081524884
4.6542829e-05
4.7018353e-05
-5.1721406e-05
-5.2263399e-05
-2.9874087e-06
0.00084196076
5.0047149e-05
5.0440123e-05
-5.3066436e-05
-5.3501128e-05
-0.0001984677
1.0359951e-06
-1.2280356e-06
0.00024614176
-1.0006774e-06
1.244573e-06
-1.4395823e-06
-7.8825233e-07
0.00019829908
-7.810484e-07
0.00024599996
-9.7984497e-07
-8.1251623e-06
-2.4319787e-06
0.00084519914
5.0433508e-05
-4.8359191e-05
-4.8102321e-05
5.0759415e-05
-7.7806273e-07
-0.00019374192
0.00024420028
-1.6899198e-07
-0.00019364586
-9.4733726e-07
0.00024405315
-1.8287971e-07
9.3117359e-07
-1.1195627e-06
-9.9513537e-07
-9.8111401e-07
1.0659286e-06
-0.00018221495
-1.0204111e-06
0.00018125386
-3.8067212e-08
-0.00018214545
0.00018122221
-3.3935121e-08
-1.2931988e-06
-5.9638626e-08
-1.2177748e-06
-6.2821873e-08
-1.2102011e-06
-1.9144725e-06
0.00084682851
5.0175916e-05
-5.013846e-05
-5.003282e-05
5.0478198e-05
-0.00019583546
5.726473e-07
-7.0419415e-07
0.00024612503
3.0623158e-07
-7.6163132e-07
0.00019628997
1.5159866e-07
-8.5849392e-07
1.9793401e-07
0.00024669254
2.8914437e-07
-0.00018047569
7.7199893e-07
-7.4309231e-07
0.00018031518
-2.9461438e-08
9.3843629e-07
-8.9915256e-07
-4.8702661e-08
0.00018093801
-4.529402e-08
0.00018075347
-2.5181699e-08
-1.1596486e-07
1.4840284e-05
-2.0961588e-08
1.4811613e-05
-1.0993718e-07
-2.3641543e-08
9.2858651e-08
-8.9550932e-08
1.4794355e-05
-1.2689245e-08
1.482659e-05
-8.859474e-09
5.3648232e-08
-1.0785282e-06
0.00085166977
5.086675e-05
5.0438542e-05
-5.0798064e-05
-5.0617956e-05
-0.00019709172
1.0824448e-07
-3.2488977e-07
0.00024759707
1.0327483e-07
7.6226088e-07
-7.6015769e-07
-1.0379249e-07
0.00019840136
-8.9412808e-08
0.00024937892
8.8683294e-08
-0.00018171323
5.5829967e-07
-5.4008144e-07
0.00018198475
-2.7496335e-09
6.7533294e-07
-6.4885685e-07
-3.1732594e-08
0.00018300148
-2.8526084e-08
0.00018325312
-1.8728746e-09
-6.3767146e-08
-1.5014935e-05
1.5011567e-05
-6.1064171e-09
-1.4879369e-05
-6.1726334e-08
1.4868654e-05
-8.0514101e-09
7.8882233e-08
-7.5281061e-08
-1.7063922e-08
-1.6264027e-08
-9.2769857e-08
-1.3673269e-05
1.3672409e-05
-1.3556984e-05
-8.676804e-08
1.3548495e-05
1.1740943e-07
-1.0986179e-07
9.2693185e-08
-4.2234238e-07
0.00086169908
5.1580546e-05
5.1076262e-05
-5.1163186e-05
-5.1564615e-05
-5.6675803e-07
-0.00019970659