/*--------------------------------*- C++ -*----------------------------------*\
  =========                 |
  \\      /  F ield         | OpenFOAM: The Open Source CFD Toolbox
   \\    /   O peration     | Website:  https://openfoam.org
    \\  /    A nd           | Version:  7
     \\/     M anipulation  |
\*---------------------------------------------------------------------------*/
FoamFile
{
    version     2.0;
    format      ascii;
    class       volScalarField;
    location    "9000";
    object      k;
}
// * * * * * * * * * * * * * * * * * * * * * * * * * * * * * * * * * * * * * //

dimensions      [0 2 -2 0 0 0 0];

internalField   nonuniform List<scalar> 
34158
(
1.5206512
1.5197354
1.5192629
1.5189943
1.5201618
1.5215924
1.5204884
1.519694
1.5223838
1.5222081
1.5191902
1.5195445
1.5192377
1.5189963
1.5201621
1.520068
1.5225455
1.5214422
1.5203774
1.5196731
1.5172024
1.5168216
1.5225724
1.5225952
1.5216941
1.5225124
1.5223661
1.5216676
1.5214819
1.5215703
1.5215205
1.5214533
1.5214223
1.5214932
1.5169033
1.5167451
1.5174966
1.5178624
1.5182129
1.5192159
1.518736
1.5195147
1.5192166
1.5189943
1.5178454
1.5179724
1.5201252
1.5199313
1.519984
1.5226257
1.5225327
1.5212937
1.5202679
1.5196612
1.5229295
1.5234287
1.5171285
1.5163559
1.5171057
1.5167978
1.521728
1.5195228
1.5227889
1.5218949
1.5218344
1.5227593
1.5213356
1.5214248
1.5215479
1.5214585
1.5215719
1.5216733
1.5216344
1.5215484
1.5215825
1.5215842
1.5215475
1.5214402
1.521434
1.5213816
1.5215159
1.5215454
1.5209203
1.5209188
1.5209139
1.5209057
1.5208023
1.5207945
1.5208061
1.5207724
1.520799
1.5208202
1.5207681
1.5209232
1.5209172
1.5209055
1.5208812
1.5208742
1.5208842
1.5208776
1.5208557
1.5207733
1.5207559
1.5207469
1.5207496
1.5238753
1.5238099
1.5169871
1.5162766
1.5170097
1.5167695
1.5176691
1.5181694
1.5174677
1.5177869
1.5165786
1.5163312
1.5181015
1.5181817
1.5192294
1.5186393
1.5185807
1.5194941
1.5191946
1.5189951
1.5179054
1.5168658
1.5168148
1.5180298
1.5168055
1.5169317
1.520075
1.5198774
1.5197213
1.5199204
1.5226689
1.5226423
1.5225198
1.5211517
1.5201625
1.5196616
1.5243624
1.5231027
1.5232219
1.5235898
1.5156878
1.5170812
1.5155749
1.5163338
1.5155584
1.5156749
1.5156956
1.5219418
1.5202322
1.5195106
1.5183032
1.5183442
1.5185053
1.5189289
1.5187625
1.5215161
1.5213994
1.5214615
1.5215778
1.5217427
1.5216485
1.5216753
1.5216438
1.5215422
1.5215379
1.520524
1.5205566
1.5206737
1.5206614
1.5203936
1.5203633
1.5205431
1.520544
1.5206283
1.520615
1.5206175
1.5206046
1.5207704
1.5207652
1.5207595
1.5207502
1.520864
1.5208727
1.5208742
1.5208489
1.5207095
1.5207155
1.5207079
1.5206882
1.5207399
1.5207274
1.5207332
1.520897
1.520881
1.5208694
1.520887
1.5157306
1.5212593
1.5212642
1.5210436
1.5210281
1.5210582
1.5210529
1.5210374
1.5210573
1.521047
1.5210178
1.5212376
1.5210051
1.5209821
1.5210265
1.5210155
1.515765
1.5202737
1.5202804
1.5202144
1.5202445
1.5202421
1.5202265
1.5201842
1.5201896
1.5200173
1.5200581
1.5200486
1.5200314
1.52008
1.5201146
1.5200849
1.5200693
1.5199722
1.5199812
1.5200231
1.5199977
1.5199341
1.5199239
1.5199773
1.519967
1.5198698
1.519902
1.5199074
1.5199794
1.5199525
1.519934
1.5199444
1.5199823
1.5199545
1.519947
1.5199744
1.5200205
1.519967
1.519978
1.5199072
1.5198634
1.5199165
1.5199331
1.519862
1.5198557
1.5199082
1.5202807
1.5202889
1.5202486
1.5202153
1.5200846
1.5201138
1.5200696
1.5200637
1.5202383
1.5202827
1.5202583
1.5201988
1.5200464
1.5200649
1.5200903
1.5200534
1.520243
1.5202549
1.5202242
1.5201923
1.5202392
1.5202412
1.5202112
1.5201815
1.5200726
1.5200412
1.520026
1.5200325
1.5200473
1.5200565
1.5200875
1.520059
1.5199481
1.5198671
1.5198271
1.5198826
1.5199854
1.5199369
1.5199097
1.5199314
1.519949
1.5198688
1.5198622
1.5199118
1.5199889
1.5199511
1.519942
1.5199621
1.5191543
1.5196877
1.5198074
1.5247061
1.5238057
1.5237477
1.5235278
1.5153947
1.5170425
1.5155102
1.5163111
1.5174971
1.5177309
1.5168677
1.5176512
1.5174563
1.5181162
1.5174445
1.5177156
1.5165633
1.5153689
1.515687
1.5163597
1.5152499
1.5154048
1.5179871
1.518059
1.5181531
1.5192412
1.518504
1.5184484
1.5184419
1.5194799
1.5191863
1.5190158
1.5180357
1.5165784
1.5165049
1.5167932
1.516825
1.5181523
1.516645
1.5165312
1.5167717
1.5169116
1.5198296
1.5196623
1.5195344
1.5198736
1.5227244
1.5226533
1.522501
1.5210172
1.5200663
1.5196806
1.5245815
1.5244702
1.5201774
1.5233423
1.515489
1.515602
1.5154775
1.5155577
1.5156454
1.5154785
1.5140273
1.5144126
1.5155265
1.5154173
1.5155449
1.5155537
1.5154508
1.5156519
1.5156214
1.5156315
1.5141723
1.5139746
1.515659
1.5156482
1.5138258
1.5181085
1.5184754
1.5192735
1.5191908
1.5193086
1.5192617
1.519357
1.519361
1.5181288
1.5179681
1.5184238
1.5187297
1.5182433
1.5184254
1.5182628
1.5179448
1.5180042
1.5179882
1.5180007
1.5180149
1.5179545
1.5179761
1.517999
1.5180132
1.5181181
1.5184797
1.5181972
1.5185252
1.5184821
1.5181388
1.5181821
1.5185196
1.5208178
1.5207613
1.5207998
1.5208545
1.5211405
1.5212056
1.5208978
1.5208914
1.5209333
1.5209373
1.5139977
1.5212869
1.5212889
1.5139571
1.5210125
1.5209977
1.5210328
1.521031
1.521008
1.5210453
1.5210341
1.5210406
1.519454
1.5194023
1.5195274
1.5195472
1.5196121
1.5196933
1.5197812
1.5196987
1.5198802
1.519873
1.5198205
1.519812
1.5196687
1.5196268
1.5196421
1.519664
1.5193182
1.5192234
1.5193221
1.5193785
1.5193618
1.5193042
1.5194174
1.5194423
1.5195275
1.5195118
1.5195641
1.5195553
1.5194974
1.5194212
1.5194284
1.5194836
1.5195054
1.5194185
1.5193731
1.5194356
1.5195804
1.5195397
1.5195024
1.5195206
1.5195061
1.5195138
1.5195523
1.5195264
1.5194619
1.5193853
1.5193844
1.5194395
1.5199232
1.5199342
1.5198711
1.5198342
1.5199326
1.5199435
1.5198841
1.5198449
1.5196587
1.5196853
1.5197108
1.5196623
1.5196935
1.5196633
1.5196468
1.5196598
1.5197723
1.5197302
1.51973
1.519741
1.5199503
1.5200172
1.5200219
1.5199305
1.5200277
1.5200425
1.519981
1.5199382
1.5197896
1.5197658
1.5197469
1.5197502
1.5196402
1.519594
1.5196005
1.5195791
1.5195523
1.5194772
1.5194537
1.5195109
1.5196094
1.5196459
1.5195972
1.5195898
1.5194483
1.5194784
1.5195493
1.5196962
1.5196573
1.5197275
1.5197048
1.5196014
1.5196217
1.5196611
1.5196191
1.5194709
1.5194935
1.5200482
1.520063
1.5199942
1.5199587
1.5197624
1.5198046
1.5197817
1.5197654
1.5198379
1.5197902
1.5198073
1.5198371
1.520002
1.5200485
1.5200583
1.5199864
1.5156325
1.5156653
1.5157941
1.5158366
1.520768
1.5207744
1.5207997
1.5207825
1.5204343
1.5204886
1.5204882
1.5204317
1.5204612
1.5205054
1.5204993
1.5204476
1.5205147
1.5205222
1.5204796
1.5204579
1.5204961
1.5205103
1.520472
1.5204382
1.5158625
1.5207815
1.5207797
1.5204366
1.5204914
1.5204843
1.5204236
1.5204397
1.5204918
1.5204783
1.5204204
1.5158269
1.5156762
1.5156388
1.5190012
1.5189899
1.5184013
1.5183904
1.5189204
1.5188741
1.5183343
1.5182702
1.5179677
1.5177819
1.5178623
1.5180414
1.5180962
1.5179178
1.5179325
1.5181088
1.5178123
1.5177948
1.5176992
1.5177191
1.5177376
1.51765
1.5175437
1.5176391
1.5175569
1.5176422
1.5176196
1.5175512
1.5175767
1.5178096
1.5178049
1.5177057
1.5177141
1.517825
1.517825
1.5177311
1.5177246
1.5175859
1.5176534
1.5176418
1.5175715
1.5175521
1.5176232
1.5176353
1.5175682
1.5190338
1.5190335
1.5184242
1.5184324
1.5181255
1.5179459
1.5179502
1.5181329
1.5184056
1.519031
1.5190073
1.5184162
1.5181133
1.5181111
1.5179298
1.5179311
1.5190467
1.5190333
1.5184327
1.5184472
1.5190233
1.5189999
1.5183998
1.5184136
1.5179026
1.5180879
1.5180989
1.5179107
1.5181325
1.5181199
1.5179343
1.5179453
1.5175517
1.5176163
1.5176199
1.5175558
1.5176915
1.5177819
1.5177866
1.5176946
1.5175856
1.5176485
1.5176617
1.5177225
1.5178121
1.517823
1.5177335
1.5174549
1.5195702
1.5194261
1.5193482
1.5194786
1.5188344
1.5191398
1.5191901
1.5188716
1.5197856
1.5206953
1.5196942
1.5199509
1.5253295
1.5245821
1.5203224
1.5235854
1.5155194
1.5151071
1.5153906
1.5155396
1.5178993
1.5175571
1.5174958
1.5177017
1.5169328
1.5171761
1.5167889
1.5168164
1.5176352
1.5173741
1.5174039
1.5180615
1.5174384
1.517665
1.5166329
1.5152973
1.5150082
1.5153378
1.5156059
1.5164654
1.5151062
1.5153794
1.5152178
1.5149229
1.5179277
1.5180228
1.5181324
1.5192549
1.5183038
1.5182936
1.5183237
1.519472
1.5191953
1.5190628
1.5182452
1.5165141
1.5162672
1.5163519
1.5165661
1.5156529
1.5155235
1.5183374
1.5166531
1.5164141
1.5163228
1.5165304
1.5156503
1.5155072
1.5196153
1.5194785
1.519359
1.5198395
1.5227692
1.5226617
1.5224795
1.5208966
1.5245226
1.5248332
1.519674
1.520259
1.5153087
1.5153848
1.5153929
1.5154524
1.5156223
1.5156356
1.5156411
1.5156257
1.5156367
1.5156468
1.5156515
1.5156518
1.5155509
1.5155376
1.5153747
1.515378
1.5155934
1.515566
1.5139811
1.5138802
1.5139085
1.513943
1.5139144
1.5143314
1.5140877
1.514415
1.5144544
1.5141671
1.5154283
1.5154141
1.5155452
1.5155439
1.5153031
1.5153265
1.515424
1.5154288
1.5155391
1.5155387
1.5155591
1.5155626
1.515539
1.5155371
1.5155605
1.5153173
1.5154284
1.5153461
1.5154235
1.5156144
1.515624
1.5156305
1.5156222
1.5156181
1.5156193
1.5156244
1.5156319
1.5156383
1.5141259
1.5141921
1.5139994
1.5139372
1.5138733
1.5138847
1.5138973
1.5139078
1.5156407
1.5156419
1.5156094
1.5156094
1.5139336
1.5156087
1.5156417
1.5156402
1.5156113
1.516097
1.513912
1.5180492
1.5178675
1.5179248
1.51809
1.5163632
1.5164326
1.5163753
1.5163839
1.5164111
1.5177661
1.5177371
1.5177287
1.5177555
1.5176051
1.5176246
1.5176244
1.517647
1.5176406
1.5160901
1.5179825
1.5179536
1.5180455
1.5180539
1.5180455
1.518055
1.5182251
1.5185003
1.5182407
1.5184073
1.5181574
1.5183337
1.5159731
1.5177027
1.5177041
1.5176869
1.5176799
1.5176333
1.5176453
1.5177379
1.5177327
1.5177204
1.5177149
1.5177234
1.5177252
1.5177123
1.5176994
1.5176502
1.5176615
1.5176825
1.5176651
1.5176898
1.5176679
1.5176671
1.5176836
1.5176666
1.5176455
1.5176311
1.5176482
1.5176501
1.517651
1.5176735
1.5176682
1.5176157
1.5176414
1.5176665
1.517636
1.5176362
1.5176617
1.5177707
1.5177375
1.51773
1.5177584
1.5180481
1.5178406
1.5179
1.5180877
1.5177262
1.5177337
1.5177802
1.5177667
1.51792
1.5178506
1.5180494
1.5180959
1.5181545
1.5179062
1.5179137
1.5181393
1.5178206
1.5178152
1.5178036
1.517796
1.5177789
1.5177473
1.5177429
1.5177675
1.5178973
1.5178401
1.5180727
1.518104
1.5204091
1.52008
1.5199766
1.5199982
1.5201004
1.5201192
1.5201166
1.5200827
1.5200716
1.5204431
1.5140716
1.5140283
1.5205167
1.5205023
1.5201606
1.5202164
1.5202143
1.5201459
1.5201559
1.5202071
1.5202079
1.5201436
1.513979
1.514079
1.5141249
1.5142477
1.5206296
1.5206366
1.5206791
1.5206614
1.5139608
1.5139137
1.5203177
1.5203206
1.5202667
1.5202484
1.5202668
1.5203215
1.5203164
1.5202478
1.5202867
1.5203452
1.520352
1.5202856
1.5203567
1.5203052
1.5202701
1.5203519
1.5169371
1.5171217
1.5171249
1.5169234
1.5174324
1.5181303
1.5181575
1.5174564
1.5182281
1.5182168
1.5175009
1.5175218
1.5169528
1.5171631
1.5171865
1.5169752
1.5165129
1.5166018
1.5165588
1.5164643
1.5166982
1.5168049
1.5167792
1.5166624
1.5168249
1.516803
1.5166817
1.5167038
1.5164764
1.5165755
1.5165983
1.5165023
1.5164504
1.5165511
1.5165153
1.5164131
1.5166615
1.5167867
1.5167652
1.516631
1.5167508
1.5167365
1.5165978
1.5166131
1.5163719
1.5164787
1.5164941
1.5163894
1.5182195
1.5182232
1.5174827
1.5174852
1.518245
1.5182553
1.5175147
1.5175111
1.5171568
1.5171621
1.5169414
1.5169291
1.5169026
1.5171296
1.5171384
1.5169151
1.5169509
1.5171718
1.5171884
1.5169565
1.5175247
1.518301
1.5183209
1.5175619
1.5183342
1.5183331
1.5175808
1.5175907
1.5169754
1.517212
1.517227
1.5169928
1.5166454
1.5167846
1.5166449
1.5167858
1.5164137
1.5165237
1.516521
1.5164116
1.5168019
1.5166576
1.5166754
1.51682
1.516548
1.5165317
1.5164199
1.5170748
1.5169065
1.5169523
1.5167638
1.5168676
1.5168564
1.5167099
1.5167243
1.5165967
1.5165807
1.5183631
1.5183702
1.5176182
1.5176229
1.5172641
1.5170271
1.5172578
1.5170359
1.5170688
1.5172768
1.5174167
1.5172227
1.5176126
1.5183452
1.518437
1.5177471
1.5155671
1.5155442
1.5155487
1.5155697
1.5156093
1.5156061
1.5156089
1.5156118
1.5156456
1.5156245
1.5157603
1.5157921
1.5156916
1.5156897
1.5158517
1.5158563
1.5202601
1.5202638
1.5203024
1.5202934
1.5203276
1.5203213
1.5203246
1.5203048
1.5196567
1.5196761
1.5197219
1.5197235
1.5197481
1.5197469
1.5197523
1.5197336
1.5157163
1.5157144
1.5159017
1.5159175
1.520305
1.5202982
1.5203175
1.5203034
1.5197272
1.51973
1.5197514
1.5197479
1.5158875
1.5156792
1.5156287
1.5156272
1.515631
1.5156326
1.5155868
1.5155496
1.5155522
1.5155909
1.5159974
1.5161685
1.5160641
1.5159468
1.5159776
1.5161547
1.5160465
1.5159311
1.5162906
1.515917
1.5158982
1.5162322
1.5162848
1.5159063
1.515882
1.5162102
1.5159866
1.5158828
1.5160652
1.5158564
1.5159061
1.5158015
1.5159731
1.5157885
1.51583
1.5158299
1.5162132
1.5161718
1.5157126
1.5161005
1.5160944
1.5157564
1.5160793
1.5160306
1.5163497
1.5163577
1.5163498
1.5163059
1.5165575
1.5165691
1.5164337
1.5164187
1.5166644
1.516655
1.5161586
1.5161519
1.5164595
1.5164378
1.5165411
1.5162283
1.5161951
1.516475
1.5164695
1.5165059
1.5167533
1.5166932
1.5165015
1.5165134
1.5167635
1.5167269
1.5162194
1.5162353
1.5165508
1.5165037
1.5167213
1.5167358
1.5169239
1.5168937
1.5166845
1.5167242
1.5169089
1.5168543
1.5170203
1.5168814
1.5168414
1.5169719
1.5170402
1.5168986
1.5168856
1.5170169
1.5166456
1.5166316
1.516817
1.5168131
1.5167062
1.516519
1.5165542
1.5167184
1.5168117
1.5166694
1.5166993
1.5168255
1.516928
1.5167863
1.516801
1.5169298
1.5169146
1.516898
1.5170043
1.5170099
1.5170044
1.5170141
1.5171184
1.5171002
1.5170925
1.5169912
1.5169548
1.5170527
1.5171398
1.5170645
1.5170341
1.5171085
1.5171682
1.5170926
1.5170845
1.517156
1.5167156
1.5167638
1.5169439
1.5168806
1.5166933
1.5167385
1.5169189
1.5168551
1.5170254
1.5168895
1.5168399
1.5169659
1.5170545
1.516918
1.5168721
1.5170036
1.5167186
1.5167538
1.5169367
1.5168817
1.5169619
1.5167764
1.5167248
1.5168927
1.5170777
1.5169377
1.5168808
1.5170097
1.5170437
1.5169078
1.516868
1.5169949
1.5171964
1.5171225
1.5170691
1.5171413
1.5171509
1.5170522
1.5169935
1.5170887
1.5169798
1.5170152
1.5171143
1.5170739
1.5171598
1.5170863
1.5170562
1.5171286
1.5171412
1.5170634
1.5170257
1.5171004
1.5170945
1.5169952
1.5169488
1.5170446
1.5169936
1.5170294
1.5171308
1.5170921
1.5171799
1.5171068
1.5170794
1.517153
1.5160494
1.5162292
1.5161335
1.5160148
1.5160644
1.5162419
1.5161088
1.5159998
1.5163356
1.5159728
1.515934
1.5162523
1.516334
1.5159704
1.5159507
1.5162642
1.5165881
1.5162739
1.5162346
1.5165143
1.5165092
1.5165551
1.5168026
1.5167307
1.5165143
1.5165433
1.5167841
1.5167276
1.5162463
1.5162743
1.5165806
1.5165186
1.5163205
1.5159587
1.5159237
1.5162432
1.5160723
1.5162388
1.5161043
1.5159939
1.5160546
1.5162425
1.5161138
1.5159958
1.5159341
1.5163438
1.5159779
1.5162596
1.5162362
1.5162775
1.5165853
1.5165062
1.5165678
1.5162625
1.5162272
1.5164959
1.5164897
1.5165306
1.5167695
1.5167026
1.5165023
1.5165508
1.5167904
1.5167186
1.5161558
1.516102
1.5160389
1.5162839
1.5160909
1.5160102
1.5162778
1.5161289
1.5159327
1.5163594
1.515988
1.5162621
1.5163622
1.5159859
1.5159462
1.5162814
1.5160727
1.5162462
1.5161535
1.5160293
1.5160739
1.5160039
1.5162556
1.5161182
1.516332
1.5159671
1.5159252
1.5162495
1.5159505
1.5159642
1.5163312
1.5162703
1.5164865
1.5165187
1.5167703
1.5167049
1.5165584
1.516255
1.5162209
1.516489
1.5165492
1.5162529
1.5162379
1.5164999
1.5164942
1.5165112
1.5167506
1.5167048
1.5162471
1.5162818
1.5165882
1.5165199
1.5162332
1.5162828
1.5165838
1.5164993
1.5164952
1.5165454
1.5167859
1.5167126
1.5165133
1.5165472
1.5167912
1.5167364
1.517192
1.517118
1.5170656
1.517139
1.517142
1.5170389
1.5169834
1.5170805
1.5169846
1.5170021
1.5171055
1.5170788
1.5171539
1.5170801
1.5170639
1.5171337
1.5170602
1.5169143
1.5168644
1.5169944
1.516934
1.516746
1.5167015
1.5168682
1.5167033
1.5167257
1.516908
1.5168671
1.5170267
1.5168869
1.516864
1.5169931
1.5172056
1.5171291
1.5170885
1.5171645
1.5171549
1.5170485
1.5170035
1.5171026
1.5170383
1.5170567
1.5171624
1.5171369
1.5170712
1.5169291
1.5168814
1.5170128
1.516712
1.5167622
1.5169476
1.5168821
1.5167363
1.5167671
1.5169554
1.5169106
1.5170791
1.5169363
1.5169098
1.5170437
1.5175524
1.5176083
1.5176423
1.5179551
1.5178794
1.5171788
1.5174753
1.5175341
1.5172309
1.5176994
1.5179606
1.5179963
1.5193293
1.5178088
1.5194826
1.5185233
1.5191091
1.5192
1.5185825
1.5189003
1.5198116
1.5224432
1.520784
1.5254304
1.5250891
1.5203295
1.5195491
1.5152657
1.5149312
1.5153132
1.5154242
1.5176578
1.517876
1.5167703
1.5175481
1.5175059
1.5176783
1.5170127
1.5161552
1.5164331
1.5165453
1.5162886
1.5172127
1.5166397
1.5167741
1.5166888
1.5165521
1.5166902
1.5167249
1.516769
1.5176225
1.5172702
1.5173179
1.5173519
1.518012
1.5174539
1.5176364
1.5167859
1.5147397
1.5150112
1.5152531
1.5149873
1.5142889
1.5139739
1.5166477
1.5148606
1.5146774
1.5149183
1.5151026
1.5141194
1.5139372
1.517879
1.5179918
1.5181105
1.5192757
1.5181284
1.518161
1.5182166
1.519471
1.5163495
1.516306
1.5160707
1.5160332
1.5155289
1.5155356
1.5156609
1.515658
1.5156204
1.5156122
1.5156166
1.5156244
1.5154228
1.5155504
1.5155457
1.5154281
1.5163273
1.51643
1.5160426
1.5161349
1.5156621
1.5156722
1.515566
1.5155378
1.5156206
1.5156316
1.5156352
1.5156231
1.5155615
1.5154014
1.5153949
1.5155516
1.5194193
1.5192846
1.5191976
1.5227984
1.5226574
1.5224587
1.5245022
1.5248248
1.5192259
1.5196937
1.5151899
1.5153621
1.5156403
1.51564
1.5156326
1.5156323
1.5156444
1.5156431
1.5156438
1.515645
1.5156477
1.5156473
1.5156488
1.5156491
1.5156434
1.5156347
1.5156346
1.5156433
1.515647
1.5156529
1.5156551
1.5156488
1.5156589
1.5156593
1.5156608
1.5156603
1.5156621
1.5156631
1.5156621
1.515661
1.5156633
1.5156625
1.5156621
1.5156635
1.5155981
1.5155747
1.5155702
1.5155925
1.5155886
1.5155968
1.5155709
1.5155647
1.5154565
1.5154699
1.5154797
1.5153247
1.5153222
1.5154644
1.5156172
1.515621
1.5156163
1.5156132
1.5156017
1.5155961
1.5155805
1.5155851
1.513879
1.5138905
1.5139125
1.5139014
1.5138141
1.5138276
1.5138269
1.513814
1.5138439
1.5138253
1.5138422
1.5138595
1.5138577
1.513836
1.51388
1.5138603
1.5138428
1.5138435
1.5138221
1.5138223
1.5140499
1.514098
1.5143899
1.5143733
1.5139402
1.5139739
1.5140097
1.5139813
1.514182
1.5142328
1.5144672
1.5144611
1.5144882
1.5142229
1.5142713
1.5144975
1.5139661
1.5140507
1.5140147
1.5140104
1.5152923
1.5154302
1.5154296
1.5153145
1.5154304
1.5153035
1.5152881
1.5154343
1.5155376
1.5155393
1.5155599
1.5155601
1.5155396
1.5155625
1.5155608
1.5155398
1.5152279
1.5152918
1.5152947
1.5152407
1.5152335
1.5152557
1.5152991
1.5152929
1.5154131
1.5154158
1.5154358
1.5154433
1.5154197
1.5154193
1.515444
1.5154474
1.5155422
1.5155496
1.5155477
1.5155411
1.5155406
1.5155386
1.5155443
1.5155478
1.515562
1.5155656
1.5155774
1.5155724
1.5155673
1.5155658
1.5155766
1.5155787
1.5155334
1.5155405
1.5155342
1.5155389
1.5155357
1.5155375
1.5155439
1.5155415
1.5155613
1.5155593
1.5155703
1.5155734
1.5152582
1.5152475
1.5152971
1.5152994
1.5154034
1.5154052
1.5154281
1.5154302
1.5152503
1.5152972
1.5153072
1.5152701
1.5154093
1.5154082
1.5154312
1.5154358
1.515609
1.5156117
1.5156174
1.5156152
1.5156224
1.5156249
1.5156306
1.5156283
1.5156271
1.5156298
1.5156356
1.5156335
1.5156134
1.5156168
1.5156224
1.5156198
1.515624
1.5156274
1.5156265
1.5156235
1.5156246
1.5156279
1.5156261
1.5156235
1.5156329
1.515632
1.5156343
1.5156351
1.5156412
1.5156395
1.51564
1.5156418
1.5156462
1.5156496
1.5156455
1.5156506
1.5160658
1.5156711
1.5141799
1.5141791
1.513984
1.5140062
1.5142948
1.5141128
1.5139505
1.513964
1.5139363
1.5139184
1.5138847
1.5138903
1.5138799
1.5138743
1.5138209
1.5138319
1.5138282
1.5138172
1.5138391
1.513849
1.5138405
1.5138293
1.5138445
1.5138276
1.5138242
1.5138412
1.5138458
1.5138367
1.5162382
1.5161899
1.5156523
1.5160992
1.5160144
1.5155934
1.5139544
1.5140452
1.5140394
1.5139537
1.5160457
1.5160466
1.5156369
1.5155879
1.5159908
1.5161037
1.5139535
1.5139068
1.5139045
1.5139444
1.5166385
1.5167471
1.5167174
1.5166016
1.5161329
1.5160956
1.5159947
1.5160435
1.5161206
1.5160707
1.5159624
1.5160239
1.515884
1.5158954
1.5159566
1.5159395
1.5158604
1.5158983
1.51596
1.5159213
1.5159086
1.5159107
1.5159715
1.5159637
1.5167742
1.5168021
1.5167708
1.5167431
1.5167965
1.5167925
1.5168023
1.5167762
1.5167677
1.5160885
1.5161017
1.5178247
1.5177659
1.5177726
1.5177726
1.5177627
1.5177909
1.51781
1.5178105
1.5177889
1.5177978
1.5178159
1.517821
1.5178022
1.5179178
1.5179263
1.5178963
1.517939
1.517945
1.5179027
1.5180197
1.5180758
1.518222
1.5182444
1.5180978
1.5182314
1.5159749
1.5158533
1.5159559
1.5158338
1.5172595
1.5172602
1.5170801
1.5170797
1.517
1.5169547
1.517246
1.5172423
1.5170501
1.5170457
1.5172417
1.5172455
1.5170567
1.5170471
1.516961
1.5169735
1.5169275
1.5169136
1.5169207
1.5169662
1.5169574
1.5169085
1.5168807
1.5169001
1.5168855
1.5168647
1.5168793
1.5168924
1.5168711
1.5168581
1.5168444
1.516822
1.5168282
1.5168507
1.5168382
1.5168167
1.5168688
1.5168891
1.5168618
1.516839
1.516791
1.5168463
1.5168197
1.5167473
1.5168186
1.5168488
1.5168272
1.5167966
1.5167743
1.5167973
1.5167099
1.5166745
1.5173958
1.517293
1.5170502
1.517084
1.5172747
1.5172786
1.5170638
1.5170489
1.5169179
1.5169691
1.5169489
1.516893
1.5168822
1.5169427
1.5169373
1.5168488
1.5141116
1.5197189
1.519726
1.5190222
1.519036
1.5197831
1.5197915
1.5190923
1.5190937
1.5140782
1.5140524
1.5140136
1.5139686
1.5139662
1.5140468
1.5140462
1.519877
1.5198711
1.519879
1.5198582
1.5191514
1.5191406
1.5191419
1.5191362
1.5139389
1.5139332
1.5139352
1.5139409
1.5140446
1.5140474
1.5141421
1.5141415
1.5140069
1.5140143
1.514106
1.5141267
1.5141381
1.5142485
1.5142606
1.5143832
1.5199956
1.5199928
1.520027
1.5200078
1.5200686
1.520058
1.5200609
1.5200545
1.5139581
1.5139966
1.5139933
1.5139587
1.5139105
1.5139116
1.5139088
1.51391
1.5192459
1.5192463
1.5192682
1.5192586
1.5193066
1.5193522
1.5193106
1.5193033
1.5152333
1.5153857
1.5156815
1.5155245
1.5154038
1.5150215
1.5148541
1.5152225
1.5148194
1.5148101
1.515211
1.5151848
1.5151863
1.5151812
1.5154894
1.5154707
1.5144485
1.5150552
1.5146266
1.5148461
1.5146806
1.5148493
1.5145243
1.5146052
1.5145712
1.5145228
1.5146631
1.514475
1.5148582
1.5144221
1.5144083
1.5148122
1.5144814
1.5146545
1.5145363
1.5144225
1.5144894
1.5146517
1.5145359
1.514429
1.5148577
1.5143966
1.5143667
1.5147758
1.5148744
1.5143996
1.5143664
1.5147925
1.5151487
1.5151859
1.5155055
1.5154406
1.5152183
1.5148159
1.5147769
1.5151496
1.5147953
1.5148331
1.5152429
1.5151753
1.5151748
1.5152095
1.5155224
1.51547
1.5161024
1.5160318
1.5159134
1.5159961
1.516066
1.5159656
1.5158367
1.5159472
1.515775
1.5157805
1.5158988
1.5158827
1.5159401
1.5158581
1.5158468
1.5159247
1.5159978
1.515849
1.5157133
1.5158668
1.5158731
1.5156634
1.5155193
1.5157307
1.5154621
1.5154625
1.5156892
1.5156714
1.5158215
1.5156574
1.5156518
1.5158052
1.51546
1.5154901
1.5157206
1.5156793
1.5154266
1.5154752
1.5157072
1.5156432
1.5158384
1.5156725
1.51562
1.5157812
1.5158511
1.5156845
1.5156594
1.5158206
1.5159466
1.5158633
1.5158238
1.5159056
1.5159112
1.5157972
1.5157494
1.515864
1.5157915
1.5158096
1.5159264
1.5159042
1.5159615
1.5158811
1.5158691
1.5159495
1.5159239
1.5158382
1.5157885
1.5158768
1.515886
1.5157667
1.5157084
1.5158272
1.5156741
1.5156823
1.515806
1.5157887
1.5158495
1.5157616
1.5157532
1.5158381
1.51581
1.5156334
1.5155766
1.5157421
1.5156702
1.5154342
1.5153827
1.5156021
1.5153626
1.5153682
1.5155991
1.5155741
1.5157272
1.5155587
1.5155473
1.5157059
1.5153548
1.5153553
1.5155843
1.5155621
1.5152952
1.5153593
1.515594
1.5155091
1.5157197
1.5155518
1.5154768
1.5156406
1.5157108
1.5155418
1.5155331
1.5156906
1.5158349
1.5157476
1.5156871
1.5157761
1.515794
1.5156769
1.5156064
1.5157261
1.5156587
1.5156678
1.5157902
1.5157727
1.5158332
1.5157468
1.5157393
1.515825
1.5144032
1.5143187
1.5145717
1.5144203
1.5144074
1.514413
1.5145735
1.5143117
1.5143149
1.5147811
1.5146859
1.5142632
1.5142754
1.5143127
1.514779
1.5147099
1.5144053
1.5143589
1.5145755
1.5144746
1.5144434
1.5146264
1.5144728
1.5143593
1.5142977
1.5148133
1.5143472
1.5147195
1.5147863
1.514316
1.5142993
1.514724
1.5147253
1.5147348
1.5151404
1.5150997
1.5151805
1.5147648
1.5147183
1.5151035
1.5150992
1.5151464
1.5154674
1.515396
1.5150923
1.5150977
1.5154083
1.5153801
1.5150386
1.5150823
1.5154007
1.5153213
1.5151257
1.5147272
1.5146865
1.5150505
1.514719
1.5147284
1.51513
1.5150931
1.5150888
1.515088
1.5153973
1.5153732
1.5150962
1.5151268
1.5154525
1.5153894
1.5151714
1.5147484
1.5147254
1.5151052
1.5147383
1.5147327
1.5151508
1.5151156
1.5151052
1.5151053
1.5154186
1.5153914
1.5148036
1.5143159
1.5142929
1.5147212
1.514425
1.5145985
1.5144722
1.5143557
1.5144167
1.514602
1.5143758
1.5145113
1.5143235
1.514794
1.5143268
1.5147444
1.5144551
1.5143807
1.5145108
1.5146648
1.5143541
1.5144784
1.51446
1.514663
1.514833
1.51437
1.5143129
1.5147527
1.5143762
1.5148454
1.5143421
1.5147872
1.5150949
1.5151244
1.5154444
1.5153778
1.5151747
1.5147712
1.5147419
1.5151095
1.5147815
1.5147804
1.5151875
1.5151521
1.5151408
1.5151393
1.5154518
1.5154235
1.5157666
1.5155939
1.5155453
1.5157038
1.5156405
1.5154092
1.5153658
1.5155788
1.515719
1.5155529
1.5155455
1.5156994
1.5153696
1.5153747
1.5156028
1.5155774
1.5158825
1.5157941
1.5157367
1.5158235
1.5158412
1.5157216
1.5156642
1.5157785
1.5156618
1.5156671
1.51579
1.5157747
1.5158295
1.5157405
1.5157367
1.5158211
1.5153492
1.5153989
1.5156307
1.5155579
1.5157506
1.5155835
1.5155219
1.5156796
1.5157472
1.5155821
1.5155689
1.5157214
1.515398
1.515405
1.5156336
1.515604
1.5156833
1.5156956
1.5158195
1.5157967
1.5158202
1.5157016
1.5156396
1.5157561
1.5158601
1.5157729
1.5157158
1.5158051
1.5158347
1.5156351
1.515871
1.5160321
1.5154909
1.5155212
1.5157446
1.5156941
1.515995
1.5158193
1.5160134
1.5161598
1.5158528
1.515691
1.515656
1.5158091
1.5154403
1.5154654
1.5156839
1.5156388
1.5156976
1.515467
1.5154187
1.5156214
1.5158111
1.5156448
1.5155811
1.5157352
1.5157938
1.5156332
1.5156042
1.5157555
1.5157163
1.5157406
1.5158592
1.5158285
1.5158774
1.5157602
1.5156931
1.5158071
1.5145678
1.5145246
1.5147375
1.514437
1.5145682
1.5145214
1.5147157
1.514438
1.5144001
1.5144329
1.5149132
1.5148294
1.5149128
1.5144516
1.5148415
1.5144098
1.5148575
1.5152553
1.5151982
1.5148414
1.5151746
1.5151988
1.5155171
1.5154489
1.5152478
1.5148482
1.5148251
1.5151866
1.5151904
1.5152115
1.5155124
1.5154631
1.5152375
1.5152597
1.5155714
1.5155183
1.5149028
1.5153038
1.5152455
1.5148846
1.5150085
1.5154184
1.5155697
1.5152157
1.5155756
1.5153735
1.5156856
1.5158478
1.5144452
1.514877
1.5144795
1.5149605
1.5145613
1.5144704
1.514755
1.514598
1.5149447
1.5146359
1.514852
1.5147806
1.5145871
1.5150741
1.5152112
1.514785
1.515543
1.515498
1.5154914
1.5155387
1.5156036
1.5155982
1.5155924
1.5155984
1.5155595
1.5155577
1.5155631
1.5155652
1.5155046
1.5155037
1.5155193
1.5155214
1.5155687
1.5155856
1.5156295
1.51565
1.5156262
1.5156317
1.5157092
1.5157167
1.5156235
1.5156211
1.5156233
1.5156259
1.5156159
1.5156171
1.5156194
1.5156184
1.5156883
1.5157949
1.515802
1.5156895
1.515696
1.5158156
1.5156971
1.5158077
1.5156566
1.5155906
1.5162557
1.5161179
1.5162758
1.5161725
1.5156597
1.5156267
1.5157392
1.5163879
1.5162507
1.5156729
1.515742
1.5164084
1.5157067
1.516281
1.516489
1.5158431
1.515763
1.5163336
1.5164641
1.5163558
1.5158308
1.515779
1.515863
1.5165128
1.5157832
1.5163396
1.5164866
1.5158729
1.5158335
1.5163614
1.5156496
1.5156496
1.5156525
1.5156527
1.5156478
1.5156449
1.5156513
1.5156483
1.5157298
1.515729
1.5158626
1.5158738
1.5157359
1.5157307
1.5159002
1.5158975
1.5163755
1.5159513
1.5165508
1.5158696
1.5164092
1.5159317
1.5165386
1.5158818
1.5159674
1.5165683
1.5163904
1.5158891
1.5159701
1.5165763
1.5159234
1.5164554
1.5157045
1.5157003
1.5156121
1.5156154
1.5156207
1.5156174
1.5156311
1.5156272
1.515623
1.5156259
1.5155925
1.5155238
1.515589
1.515579
1.5155768
1.5155844
1.5155826
1.5155666
1.5155673
1.5155704
1.5155706
1.5156858
1.5155842
1.5155936
1.5156978
1.5156815
1.5155756
1.5155795
1.5156802
1.5155206
1.5154986
1.5155084
1.5155095
1.5154625
1.515393
1.5153837
1.5154503
1.5155216
1.5155341
1.5156302
1.5156492
1.5153871
1.5154928
1.5155854
1.5154786
1.5155691
1.5154677
1.5154438
1.5155538
1.5155352
1.5154183
1.5153926
1.5155155
1.5156048
1.5155785
1.5155614
1.5155891
1.5156337
1.5156114
1.5155963
1.5156209
1.5156507
1.5156649
1.5156652
1.5156532
1.5156393
1.5156363
1.5156215
1.5156244
1.5156578
1.5156433
1.5156292
1.5156449
1.5156829
1.5156706
1.5156579
1.5156715
1.5156313
1.5156147
1.5156012
1.5156187
1.5156086
1.5156058
1.5155907
1.5155936
1.5155654
1.5155769
1.5155798
1.5155692
1.5155796
1.5155891
1.5156073
1.5155996
1.5155726
1.5155439
1.5155277
1.5155572
1.5153411
1.5153664
1.5154946
1.5154756
1.5153067
1.5153204
1.5154586
1.515447
1.5155028
1.5155136
1.5155436
1.5155347
1.5155286
1.5154965
1.5154949
1.5155285
1.5155945
1.515574
1.5155732
1.5155943
1.5155551
1.515558
1.5155618
1.5155587
1.5155636
1.5155549
1.5155585
1.5155635
1.5155843
1.515575
1.515596
1.5156049
1.5156741
1.5156766
1.515664
1.5156634
1.515668
1.5156695
1.5156558
1.5156541
1.5156314
1.5156428
1.5156408
1.51563
1.5156415
1.515652
1.5156535
1.5156473
1.5156674
1.5156684
1.5156548
1.5156537
1.515652
1.515666
1.515664
1.5156508
1.5156295
1.5156399
1.5156384
1.5156285
1.5156309
1.5156421
1.5156409
1.5156309
1.5156292
1.5156187
1.5156137
1.5156159
1.5156191
1.5156222
1.5156209
1.5156163
1.5156231
1.5156229
1.5156181
1.5156185
1.5156185
1.5156157
1.5156161
1.5156195
1.5156171
1.5156142
1.5156137
1.515615
1.5156173
1.5156231
1.5156217
1.5156167
1.5156438
1.5156342
1.515631
1.5156451
1.5156373
1.5156294
1.5156471
1.5156549
1.5156371
1.515632
1.5156326
1.5156431
1.5156404
1.5156288
1.51563
1.5156381
1.5157278
1.5156315
1.5156349
1.515726
1.5157349
1.515636
1.5156367
1.5157306
1.5157016
1.5157119
1.5157122
1.515702
1.5156905
1.5156913
1.5156799
1.5156783
1.5156949
1.5156957
1.5156831
1.5156823
1.5157161
1.5157191
1.515708
1.5157064
1.5157302
1.5156381
1.5156384
1.5157296
1.5156492
1.515636
1.5156341
1.5156444
1.5156411
1.5156343
1.5156344
1.5156415
1.5156375
1.5157393
1.5156374
1.5157363
1.5157165
1.5157199
1.5157088
1.5157055
1.5157077
1.5157177
1.5157171
1.5157071
1.5156956
1.5156964
1.5156841
1.515683
1.5156957
1.5156994
1.5156892