/*--------------------------------*- C++ -*----------------------------------*\
  =========                 |
  \\      /  F ield         | OpenFOAM: The Open Source CFD Toolbox
   \\    /   O peration     | Website:  https://openfoam.org
    \\  /    A nd           | Version:  7
     \\/     M anipulation  |
\*---------------------------------------------------------------------------*/
FoamFile
{
    version     2.0;
    format      ascii;
    class       volScalarField;
    location    "9000";
    object      omega;
}
// * * * * * * * * * * * * * * * * * * * * * * * * * * * * * * * * * * * * * //

dimensions      [0 0 -1 0 0 0 0];

internalField   nonuniform List<scalar> 
34158
(
488.19841
468.97577
456.11391
447.0937
415.76808
421.73414
461.00512
450.26543
543.22312
552.14246
410.24414
412.99792
442.99685
438.00031
428.80188
404.0958
433.32102
408.79538
439.71671
434.40126
411.34913
411.7042
537.16913
544.25816
407.32334
473.90909
479.83761
409.91893
782.38345
910.51844
917.33681
779.86017
782.37232
907.99454
377.36254
377.46094
433.3792
435.76803
430.07192
400.76176
430.40675
402.76068
430.74458
428.04532
569.12314
577.19036
474.44291
421.63569
395.75687
482.16509
426.25381
398.8912
424.07598
422.22666
412.14664
412.96755
382.38849
384.18659
401.39074
401.90191
376.84317
536.69568
467.54099
408.70272
406.18716
472.69533
780.02584
903.14757
910.43053
775.22003
767.1091
897.83869
922.84225
786.04647
478.16345
674.72881
680.41126
542.47189
545.78714
541.14074
679.98984
479.10348
1186.466
1216.5894
1390.7333
1371.5265
1626.1067
1670.3101
1857.4265
1644.7777
1608.2343
1817.4707
1891.7045
1170.4973
1336.2585
1186.7376
1377.6468
1185.6027
1188.9155
1353.8374
1368.6343
1831.7841
1627.4356
1846.2907
1617.4948
378.54208
378.36062
367.33836
368.77478
390.92982
391.5449
399.7584
401.23128
425.62495
427.21973
565.06227
563.13223
472.16179
424.11213
394.27831
476.71727
423.69053
395.63304
421.42921
420.50799
539.71256
775.55801
743.76204
543.52349
804.37886
771.44171
550.3374
470.97987
413.5732
389.18995
561.99063
480.93036
418.10178
391.32203
413.05794
412.42141
384.60718
385.11522
402.31807
402.87583
395.75534
377.33279
400.7424
379.06669
2362.2499
2389.813
370.25408
376.06078
2178.5677
466.95061
406.6061
769.28741
892.1684
912.06624
784.92837
670.68747
544.27854
545.89787
672.28925
475.52694
473.9811
665.54592
679.36954
538.6817
548.0414
1385.4917
1207.0174
1186.4272
1366.7919
1851.4487
1659.4335
1615.946
1824.4961
1808.3313
1604.1525
1640.4287
1881.9733
1180.9463
1163.8158
1340.0546
1375.6966
1346.0325
1173.3038
1169.0054
1360.6575
1623.1037
1832.9727
1619.7212
1859.7053
1692.4168
1638.9616
1855.8231
1186.3384
1363.1689
1416.5252
1226.5759
463.60981
653.47962
650.09075
1054.8176
1052.3725
794.48881
797.35996
1031.9407
775.87895
793.94984
1053.9411
650.69123
1041.3244
1054.237
776.26937
784.63015
465.06679
1597.1745
1596.5282
1822.3726
1796.0036
1663.2833
1698.2525
1896.8225
1919.3598
2345.1509
2571.6056
2557.6955
2289.0843
2184.1282
2418.6604
2454.0616
2189.3753
2849.6629
2840.5652
3036.8216
3074.1497
2962.9683
3000.3362
3169.5696
3177.4497
3603.4931
3492.505
3494.5656
3622.1057
3663.685
2908.7955
2917.7511
3128.4766
3146.6393
2884.5851
2821.4866
3007.6414
3137.9375
3594.3772
3460.2983
3587.8157
3761.7951
3738.2644
3607.8464
3575.643
3740.1837
1568.5634
1564.2234
1763.4656
1800.177
2149.2619
2390.7285
2460.5723
2175.7484
1807.2986
1597.9911
1615.5671
1844.3302
2227.8694
2217.8739
2461.4757
2501.4726
1599.655
1583.8034
1760.8993
1814.7153
1601.6167
1613.7084
1808.4685
1816.059
2444.0947
2214.613
2193.0101
2465.7358
2181.2244
2140.5237
2360.9194
2435.1197
3621.4155
3520.537
3563.5146
3739.568
3047.8848
2871.4658
2870.9202
3109.9869
3534.8809
3422.8569
3468.127
3642.6016
2961.6236
2766.6159
2820.9201
3044.3242
368.34863
378.03055
378.33006
369.01279
369.42666
392.29056
392.28955
370.42567
372.60644
373.52606
374.02396
425.85586
425.46956
426.05512
393.44912
427.28144
395.01001
418.87055
419.94859
538.00253
742.22713
746.32028
537.52717
748.79195
734.48625
540.33393
469.6697
416.86515
388.75376
550.84668
474.49279
415.87363
389.64047
411.98452
411.79699
499.62131
771.89945
752.3931
735.6339
767.02833
500.41387
763.36731
778.93193
788.57356
757.90405
550.1012
464.8113
404.41456
383.70898
565.98436
475.98096
408.70358
385.41198
402.62525
402.18631
400.13074
379.51556
400.85811
379.96453
445.66554
387.44836
453.89033
391.49128
2156.0817
2171.9487
2366.6025
2361.0169
2146.9623
5270.3509
5285.3395
4778.2587
4689.051
2153.5807
5332.7184
5300.9518
2352.0223
2351.393
448.263
446.72471
369.14004
374.63145
2205.1608
4134.3285
4120.9306
4161.0164
4076.3081
3946.7638
3914.4776
2129.3575
2131.0534
664.9741
674.18177
539.75609
546.17728
469.71904
1150.6757
1179.0461
1180.6592
1349.21
1360.5361
1603.9343
1608.2795
1795.841
1825.4482
1616.4959
1672.1415
1810.6007
1890.8065
1226.1124
1192.094
1359.8356
1415.4951
791.65315
1046.2474
1044.0052
791.8947
640.41158
635.09046
1021.5212
1040.5436
775.76007
788.49889
460.23371
634.826
654.66911
459.08748
1025.1748
1032.6827
776.96598
782.36485
1074.3157
787.9663
1040.577
810.0781
2571.2452
2348.4978
2276.08
2533.0972
1932.6507
1680.1211
1651.0115
1898.454
1579.8549
1579.4697
1799.6465
1810.2819
2404.6498
2172.002
2160.0007
2408.0047
3704.7397
3613.878
3536.1568
3677.6641
3164.921
2991.1789
2920.1646
3125.5642
2769.2165
2800.7717
2978.1902
2976.466
3522.9588
3397.9599
3365.7026
3522.9607
3537.1585
3428.6685
3542.0095
3703.3783
2985.9209
2789.7597
2856.7769
3102.087
2926.5268
2905.3803
3131.3866
3172.5449
3738.2322
3604.6534
3607.456
3776.7424
1597.1685
1583.0202
1807.986
1854.8524
1549.0508
1548.8018
1769.9072
1785.6188
2150.5907
2141.9404
2388.7405
2442.3355
2459.8005
2196.0448
2230.7744
2512.7095
2475.1639
2234.032
2200.7261
2482.6039
1823.6882
1587.4568
1578.3918
1820.3336
1569.1987
1555.3127
1767.0242
1808.9839
2405.2129
2146.8354
2175.3714
2458.7007
3098.1623
2906.2109
3123.8995
2888.7988
3683.031
3553.5521
3558.6287
3727.9636
2828.4797
3041.6216
3118.9617
2860.6491
3558.2671
3501.2804
3649.505
3068.1287
3017.7484
3304.1564
3219.4527
2958.0008
2902.7733
3119.1159
3205.3634
3657.3678
3590.8389
1610.5302
1593.1889
1815.5174
1862.2755
2248.8341
2467.1572
2208.427
2536.7134
2565.452
2336.7682
2376.0348
2647.1018
1921.4077
1687.2147
1720.3473
1971.4362
628.56043
625.28341
630.10199
627.56035
919.8126
908.37689
891.52827
932.13161
1424.2654
1122.3738
1120.5077
1425.2083
1365.692
1073.5956
1084.9569
1374.0746
1068.5606
1058.3608
1338.2624
1352.3833
1093.3712
1077.4707
1367.9357
1380.5324
631.14441
910.43831
919.02974
1363.1224
1071.1645
1084.3828
1373.0011
1351.5417
1054.1315
1073.4575
1364.1084
648.05808
626.55352
643.25985
2454.6333
2454.6853
4112.8043
4109.3718
2621.5045
2739.6569
4338.1903
4590.3749
5979.885
7391.7587
7058.0911
5664.5522
5397.9007
6775.9431
6758.1511
5383.9476
8074.3472
8112.9609
9367.8409
9289.8362
8394.0911
8759.669
10041.421
9642.6228
10743.853
10357.495
10483.425
11494.858
11325.646
8164.9717
8288.2328
9601.2988
9403.5712
8111.5048
8060.6195
9287.7714
9417.7883
11376.776
10375.201
10557.446
11600.241
11825.325
10762.222
10482.4
11466.734
2394.464
2394.6002
4060.4139
3997.1989
5360.8257
6731.6361
6712.9365
5290.9152
4105.12
2445.9244
2509.25
4153.0644
5453.4788
5445.4324
6875.4543
6832.2674
2480.3902
2417.4261
3951.4027
4045.8796
2455.917
2519.9435
4222.5655
4050.7773
6988.7349
5572.4762
5345.1313
6742.5357
5310.5588
5207.6709
6539.2813
6644.578
11646.184
10652.898
10521.058
11591.683
9563.1416
8325.6388
8094.3908
9366.4733
11167.765
10132.699
10149.344
9026.5626
7817.8004
7904.8281
9082.1021
368.11832
354.34959
354.04705
362.53286
362.88046
387.1568
378.09251
378.29096
387.64525
368.55475
369.42697
391.45249
392.11489
374.2578
374.4936
375.77516
374.86394
379.236
398.42148
408.25381
383.24048
394.27152
394.89977
418.91129
418.51549
537.0256
535.27204
470.31971
417.8637
387.87732
469.41251
420.47277
389.48
410.71156
411.09461
499.34838
756.33604
754.8295
734.67847
739.28263
499.49852
748.3518
725.03541
739.35582
758.17866
542.41378
463.43597
408.39581
383.49424
553.52221
468.75013
406.81713
384.00499
401.37796
401.42341
458.30652
703.14752
657.01486
660.41953
715.9011
1798.8637
1804.959
458.53962
708.77165
656.86005
660.35496
720.49547
1805.3481
1816.6999
537.72458
453.94486
395.66739
378.67957
555.96994
463.47204
400.17254
380.18122
449.33146
392.55209
446.85687
393.82119
493.22722
428.43224
507.61892
439.81696
5128.0914
5005.0125
4854.5942
5046.0067
10208.554
9972.6187
9897.122
9994.7641
5092.6945
4944.6617
5033.1996
5097.4069
10086.16
10147.007
2147.1786
5237.9479
5374.069
4832.1814
4685.4887
2149.8242
5208.5118
5354.1357
4805.7014
4648.0357
4899.413
5079.4486
5047.3845
4949.0867
10048.233
8881.2491
8997.7566
10095.584
9923.3908
8806.025
8992.3865
10049.236
7958.4352
9035.2123
9163.7317
9110.6242
8117.5158
7988.5587
9173.8343
5083.259
5044.2584
4968.8695
4941.8072
10148.206
9008.4529
10167.665
9919.1901
10068.621
2146.9814
5284.4123
5310.0411
2134.1697
5241.6148
5307.957
4726.3074
4742.3758
517.51585
475.40696
479.76372
522.02166
445.21619
475.25096
475.31561
516.48664
516.86835
368.43054
444.07746
4172.5052
4034.7096
4083.5507
4270.0383
13365.338
12554.042
12360.912
12090.102
11730.91
3945.3162
3889.0749
4057.8046
4156.6845
3994.5219
4064.9368
3900.9197
3977.5963
4186.1856
457.43072
1013.0599
768.99071
1027.8022
1033.5368
776.58104
781.2253
1039.1988
1064.5878
788.0901
804.34732
625.9757
641.15082
456.32988
1531.6772
1527.532
1747.9709
1778.7899
2130.2119
2397.171
1565.6935
1567.4203
1776.7947
1816.5898
1572.348
1590.5221
1803.8175
1815.9196
2167.6931
2156.1814
2377.6805
2427.8353
2359.5404
2127.3103
2171.5063
2438.7597
2928.2844
2747.8197
2805.5063
3023.4746
2825.6106
2742.4385
2931.8753
3057.4753
3430.3123
3593.1068
3484.1503
3346.3925
3476.2626
3649.6181
2971.4407
2788.0523
2873.7056
3088.4974
2995.1018
2895.2106
3082.084
3205.5358
3503.947
3388.2914
3489.0559
3652.2686
3618.6344
3510.6897
3623.9003
3765.0778
1704.7153
1680.4746
1905.6137
1980.8044
1600.6696
1599.8689
1815.485
1857.6844
2399.0432
2171.6361
2216.8052
2481.4593
2494.3779
2274.5013
2358.0523
2604.0836
916.5398
1127.4007
1421.7915
1426.3302
1124.5061
1089.9775
1081.7205
1363.374
1374.8358
898.16623
618.29021
613.43387
876.10666
908.82147
1337.7842
1059.0519
1066.1071
1351.675
1367.9256
1077.1358
1085.534
1375.435
616.36213
631.16433
615.15645
629.8601
874.79725
881.12974
895.79684
951.83308
621.64572
616.6583
1070.5697
1060.655
1350.8617
1364.9469
1341.1449
1047.9658
1061.6043
1353.8986
1439.2668
1123.2703
1151.67
1458.4316
1077.4274
1367.3032
1386.4407
1089.2133
7183.5024
5885.9744
5624.4437
6924.6304
4569.7805
2715.0082
2593.6186
4360.5905
2411.4243
2418.4053
4100.5171
4042.1432
6615.6832
5324.7652
5223.5211
6460.2698
11680.046
10698.997
10446.456
11439.33
9618.4136
8422.607
8170.3431
9360.4856
7658.8412
7862.3288
9049.785
8799.4768
11142.428
10130.399
9836.7525
10810.089
10974.165
10009.298
10338.47
11370.996
8975.0232
7819.3155
7950.5099
9212.5391
8192.5299
8293.0112
9626.5217
9475.7834
11859.197
10793.512
10608.741
11637.924
2500.7426
2427.6566
4119.6559
4205.6031
2359.6488
2367.7332
4087.5563
3994.5319
5244.6745
5324.7951
6590.5004
6602.9696
6862.3923
5421.5676
5464.5646
6827.7458
6953.5208
5609.4195
5384.3139
6732.4188
4303.3728
2507.6197
2433.9779
4113.901
2417.4697
2373.5151
3998.4824
4050.7826
6642.1978
5263.9935
5289.3334
6621.1374
9475.5612
8244.757
9318.7632
8046.2829
11556.208
10562.286
10466.851
11522.574
7988.7514
9269.9455
9227.3043
7944.5809
10392.236
10426.833
11491.744
8710.5105
8457.5313
10019.345
9757.8529
8187.7265
8249.7804
9563.1535
9496.4559
10680.99
10733.907
2508.7023
2490.4092
4195.0761
4171.9629
5449.151
6871.5129
5488.3545
6819.8139
7111.9653
5741.7539
5901.4946
7320.7162
4418.6818
2695.2129
2796.4979
4558.3141
725.69128
725.75548
810.9345
809.04641
727.12583
718.72915
799.15583
811.18321
974.6505
993.02563
951.11525
942.40751
991.02139
950.68897
926.43284
964.72074
1207.1699
1206.4822
1160.2464
1178.6565
1147.7255
1158.5114
1174.3665
1197.3127
1915.0821
1888.3326
1803.421
1808.0596
1769.0353
1781.9719
1823.7627
1852.7008
961.38183
968.6572
946.60692
949.13609
1171.3881
1184.5234
1161.6352
1183.7458
1839.0617
1835.5518
1819.9383
1843.7669
970.47405
987.26369
724.50443
725.87319
810.18118
806.45336
735.0658
745.55484
835.7518
820.38882
4821.1488
6810.4841
7101.0754
5024.22
5023.4523
6939.4082
6742.116
4773.0478
10898.443
11365.616
11450.052
11160.361
10890.309
11359.021
11139.71
10985.697
7494.3346
5445.4048
7452.3488
5395.7504
8048.7764
5838.0386
7946.044
5735.5596
11878.662
11818.264
11431.364
11525.192
12609.031
12156.333
12433.543
12659.96
14018.562
13785.143
13995.371
14458.266
16039.287
15665.373
15638.261
16198.9
15001.633
15291.464
15372.884
15198.78
13000.625
13100.783
13492.346
13470.59
12836.518
12476.973
12433.963
13015.583
14632.95
14522.999
14584.136
14963.425
14627.834
14590.038
14697.669
14850.6
12582.794
12452.266
12812.541
13061.479
16184.512
16235.874
16007.08
16063.129
16410.685
16091.308
15898.794
16417.083
16695.471
17142.853
17589.45
17290.256
16744.31
17244.019
17084.639
16727.734
16536.243
16951.168
16715.596
16451.587
16854.536
17142.254
17641.183
17514.126
17450.192
18035.217
18649.887
18193.094
17448.513
17989.519
17503.313
17150.232
18012.736
18512.899
17930.996
17621.166
17590.793
17789.549
17254.015
17217.379
17273.614
17768.854
18271.647
17873.777
17768.355
18239.257
18739.821
18323.598
17687.104
18189.865
18011.794
17653.118
16887.993
15954.135
15850.009
16834.466
16905.312
16705.543
16534.899
16983.855
17382.488
17854.765
18224.309
17961.817
16665.875
17113.7
17883.657
17400.288
16615.278
16120.36
15988.216
16664.463
15555.345
15798.628
16432.556
16415.253
16225.014
16718.526
17564.707
17264.856
16897.233
17299.985
17845.606
17539.191
17284.318
17736.341
18791.992
18423.975
16789.39
17228.512
18251.689
17904.593
18471.459
18008.608
17587.121
18108.283
18159.571
18612.577
18973.6
18576.775
18425.022
19017.799
19470.481
19044.508
17993.53
18518.895
18972.979
18591.6
18167.481
17689.822
17168.656
17637.926
17596.938
18065.274
18343.53
17888.428
4672.8796
6374.1448
6430.0865
4541.1319
4737.1871
6589.4252
6614.3806
4638.471
10894.166
11298.637
11082.364
11023.216
10279.903
10510.623
10841.493
10863.106
12729.982
12453.221
12502.29
13058.833
14673.388
14335.32
14345.938
14995.172
14684.615
14264.441
14507.204
15112.409
12355.675
11950.215
12458.178
13000.899
11129.491
11410.065
11172.551
11204.78
4669.7295
6634.7698
6717.2095
4714.2688
4964.3857
6595.8086
7192.0591
5217.8437
11531.96
10533.451
10782.501
11334.854
12880.905
12142.475
12534.302
13491.57
13140.601
12741.237
12680.283
13297.754
14951.382
14924.515
15078.775
15376.597
15152.835
14211.701
14410.792
15481.371
6995.3528
4870.7644
5057.1977
6551.3229
4761.9297
4819.7982
6400.1961
6665.6152
10628.921
10212.677
10525.251
10461.601
10290.6
10693.252
11276.863
10979.764
4870.6051
6676.4659
6583.3098
4736.1959
5225.5662
5078.5562
7164.3032
7067.5421
11444.688
11858.561
11375.337
11203.454
10937.748
11008.433
10590.45
10756.562
15127.183
15331.383
15270.81
15439.548
13501.11
13165.425
12818.427
13468.34
12874.001
12316.674
12328.129
13010.749
14676.718
14698.392
14890.39
15119.232
12515.808
12015.403
12461.157
13054.833
12040.302
11921.822
12390.896
12734.644
14313.623
14139.246
14317.4
14674.683
14617.942
14188.669
14308.212
14812.931
17254.666
17741.078
18616.916
18199.463
16891.32
17527.759
18278.134
17830.505
18255.495
18285.022
17761.417
17903.634
18357.831
18802.271
18794.97
18477.971
16673.187
17421.382
17825.189
17439.714
16345.553
16737.098
16841.908
16803.573
16555.374
16482.171
16351.267
16607.231
17171.839
17638.989
17700.517
17374.314
17238.67
17729.968
18187.564
17800.827
16748.721
17335.622
17667.049
17325.407
17399.306
17305.482
16817.837
17041.125
16310.093
16791.282
17002.827
16752.089
15999.079
15816.555
15622.087
15992.312
16078.487
15756.21
15525.292
15923.188
16248.331
16694.238
16906.418
16555.293
367.9694
362.19874
353.77258
354.42364
362.89299
386.37266
377.65639
377.86621
386.81409
354.64045
354.05707
361.87433
368.12637
363.1263
368.5538
421.24953
390.92102
391.07748
421.84374
370.65428
373.82007
375.67107
374.97474
404.14773
383.47724
384.87827
405.48662
411.02071
416.43705
429.42756
422.73611
420.65237
388.49021
420.23132
389.13635
410.04578
409.71113
499.09447
754.71669
746.71947
721.49987
734.37608
498.51564
735.59882
710.73406
726.34473
751.12047
557.32388
464.40001
408.68209
382.74047
541.8395
464.37565
412.14627
384.02047
400.4044
400.43042
457.64993
656.05252
703.31368
707.6349
659.75544
1810.0782
1798.7295
457.62401
656.03503
658.27612
706.87283
700.15511
1805.8416
1788.9016
535.98093
453.07718
400.06755
378.41452
546.65947
458.31823
398.38855
378.8428
597.69665
594.06294
551.78393
550.28218
1433.4916
1105.407
1091.8837
1420.3611
4251.3184
4284.7763
4507.6602
4518.6563
4335.0305
4277.6639
4522.8447
4517.229
599.02827
594.31533
553.39262
550.4245
1427.9784
1095.1778
1102.9343
1435.0777
4334.4681
4253.3448
4450.299
4605.2888
4326.8421
4302.2965
4581.7634
4532.3599
514.58143
441.92259
387.88541
531.19167
449.1916
392.85842
503.92372
432.93588
495.36831
436.28317
466.58257
484.46953
10123.738
9649.9453
9992.4617
10403.558
9590.9737
10112.058
10166.821
9748.0479
10242.514
10160.4
9402.1634
9587.4549
10211.064
10473.099
9823.2487
9487.9065
14277.007
14093.004
14641.557
14807.828
14229.429
13908.982
14499.037
14678.474
14429.112
14573.398
14072.029
13784.158
14485.699
14075.493
13931.395
14603.426
10288.284
10324.764
9913.7033
9772.8524
9585.8185
10347.083
10399.156
9752.2497
9462.6122
10181.296
10088.527
10309.325
9925.0628
9623.5632
14817.434
14655.254
14034.682
14357.572
14710.707
14165.212
14290.22
14790.033
4999.3183
4853.2811
5022.0128
5139.2453
9922.2233
8807.1932
8962.6753
10047.635
10203.287
10088.187
8966.4296
9110.9482
9285.248
9200.5458
8229.4589
8105.642
8108.2743
7960.4978
9041.3303
9161.5636
4995.3653
4831.7601
5015.9998
5152.0562
9848.4793
8727.711
8935.3141
10036.624
10053.01
8910.3118
9056.4641
10154.563
9224.2457
9136.9246
8031.5551
8171.1103
8958.9111
8065.2545
7879.0024
9123.4933
10344.448
10370.812
9667.7827
9553.0331
9863.1404
9771.4054
10300.274
10316.781
10101.735
9603.89
9776.538
10189.984
10170.485
10282.157
9630.9422
9432.138
14585.57
14732.755
14194.104
13931.293
14153.874
12540.489
12747.175
14353.378
12650.3
14277.925
12757.775
14301.84
14654.408
14072.517
14159.841
14727.337
14546.525
14633.17
14142.978
13928.245
14145.806
12529.14
12700.906
14290.156
12522.656
14102.652
14210.487
12702.027
14458.467
13904.504
14075.277
14629.483
10802.11
11951.376
11872.793
10925.869
11736.414
12687.655
12796.062
11870.429
12658.189
11726.235
11891.321
12785.681
11755.702
12702.577
12852.545
11916.853
11959.807
10886.237
10996.258
12008.951
11888.668
12004.28
10953.033
10805.594
12794.283
11834.485
11932.476
12845.458
10275.337
9795.5261
9896.4952
10302.329
10063.279
9580.939
9821.9506
10238.063
10148.528
9425.2574
9664.0739
10313.44
10384.77
9636.5661
9742.317
10404.862
14707.326
14817.833
14362.539
14108.57
14330.709
14501.531
12920.673
12721.349
14702.204
14172.895
14258.259
14773.231
14153.213
13886.1
14485.765
14622.387
14497.308
14076.773
13941.229
14625.824
2137.9743
2162.8867
4908.3689
5077.2482
5074.1541
4951.7405
10097.033
10069.113
10019.38
8903.7585
9017.2374
10105.103
5067.1646
4916.726
4887.9677
4999.6028
9859.4447
8757.6246
8900.639
9978.4597
10167.894
9024.6215
9007.8132
10085.242
7927.8958
8990.3204
9090.8741
8059.0083
9262.9208
9209.633
2082.8375
2137.9699
632.62133
509.17649
511.54526
636.10015
472.61977
476.76148
516.68013
512.65713
506.70891
509.27564
630.54634
630.08464
443.12132
442.7508
472.48253
472.36771
511.82952
512.53426
12879.666
12417.279
13288.777
13734.291
18102.574
18402.073
18826.087
18563.268
17603.367
17973.041
18334.046
18022.578
18602.693
18852.668
18464.719
18371.401
18951.551
18205.277
17875.795
18633.445
17972.608
18291.886
17944.754
17754.347
12770.052
11944.555
12386.606
13307.04
12141.289
12375.008
11793.585
12716.95
13271.558
611.54169
607.09151
884.81862
1315.8115
1046.5213
1058.1263
1323.17
1361.3683
1070.8342
1079.715
1370.0352
1354.1226
1061.1975
1071.4062
1360.2973
881.499
885.85012
1375.6173
1085.6783
1093.6153
1388.0817
1439.1577
1131.4438
1152.0714
1452.2169
894.91018
949.05685
606.987
617.92347
610.89771
623.26463
2429.6055
2395.6737
4043.3999
4106.4693
5317.8928
6604.7687
2380.9466
2365.1731
3965.3702
4066.7401
2386.7857
2434.2475
4096.9911
4036.677
5250.1232
5281.5557
6492.3314
6533.7651
6368.6617
5129.2873
5286.0792
6601.5047
8790.2693
7666.1711
7793.2375
9006.4306
7920.8821
7583.0523
8754.6087
9197.3119
10118.321
11158.901
10842.472
9829.5379
10356.029
11412.392
9028.3811
7814.6298
7962.5203
9217.4704
8479.3191
8111.9492
9351.8339
9750.8991
10357.74
10096.608
11065.277
11412.253
11486.025
10460.718
10897.46
11937.272
2772.9919
2635.369
4321.4821
4610.7248
2468.6068
2449.5479
4122.7251
4146.5096
6560.2453
5308.159
5361.3678
6659.8397
6822.5095
5534.5082
5867.1268
7165.0788
930.17137
1204.2131
1198.4915
1869.3697
1842.4647
1166.0767
1151.9916
1754.2988
1758.4213
915.23328
986.6162
962.72021
939.38083
973.97831
896.29401
925.86105
1131.834
1139.103
1151.6736
1169.9112
1717.448
1729.6408
1769.392
1789.0866
715.35462
714.00559
794.24066
796.06007
723.83588
804.9659
734.00602
819.50993
949.81854
952.37214
908.35367
904.70207
967.83546
1024.4036
925.97095
971.77782
1136.18
1146.2757
1122.7253
1146.7308
1160.7945
1174.0956
1214.0109
1250.0914
719.40797
719.07107
801.39583
798.64802
711.37928
789.178
719.6682
799.2266
1766.625
1764.4621
1738.5065
1761.068
1922.7368
1963.6649
1795.075
1820.0906
14840.386
15068.146
14836.628
14798.985
13620.491
13644.183
13497.438
13578.482
12832.17
13258.828
13369.525
13101.861
14468.98
14872.207
14813.226
14570.295
12667.033
12197.868
12634.725
12308.903
5829.9922
8098.1013
5803.7668
8298.4675
7669.7415
5446.6315
7786.8468
5320.3383
11799.324
12243.618
11928.758
11608.23
4907.4574
6857.7741
7051.7068
4904.701
4998.3865
7127.3741
6779.8662
4737.4153
11061.112
11541.447
11104.661
11009.35
10490.817
10886.594
11313.241
11039.274
14247.486
14157.02
14102.46
14447.38
12610.939
12413.686
12306.382
12717.818
12258.665
11843.132
12084.564
12531.029
13891.527
13602.855
13688.752
13988.759
17158.846
17624.959
17952.489
17553.838
16797.003
17311.671
17539.906
17158.062
17483.778
17880.561
17387.899
17151.56
17873.358
18347.925
18029.504
17703.154
16389.611
16946.027
16944.854
16626.048
15853.007
16178.915
16033.64
15891.977
15849.387
16215.565
15991.917
15767.086
16799.671
17214.658
16853.934
16564.355
15239.483
15106.421
14964.564
15121.395
15843.96
15472.69
15238.295
15791.267
16039.095
16422.687
16975.791
16674.965
15853.631
16200.054
16192.015
15895.103
17219.511
17659.509
18289.719
17945.873
16689.235
17088.759
17701.97
17346.808
16843.487
16951.996
16583.294
16530.053
17235.65
17613.902
17411.635
17093.498
16765.621
17195.106
17867.658
17445.797
16257.355
16701.186
17403.783
17008.987
17749.739
17853.122
17403.245
17424.238
17946.352
18411.944
18338.391
17981.245
15699.073
16207.765
16777.436
16443.66
15059.31
15289.587
15706.355
15632.171
15816.877
15892.502
15790.798
15837.006
16751.145
17103.56
17026.562
16780.428
16183.097
16395.622
16255.287
16163.057
17272.462
16142.77
15934.886
17215.369
16811.532
17206.284
18499.499
18073.298
17097.754
17547.801
17288.524
16959.183
17951.184
18412.88
19541.705
19083.578
17453.642
17870.126
19088.651
18615.18
17876.766
18162.179
17677.201
17522.518
18200.262
18655.488
18361.515
17992.529
4885.4481
5330.6253
6986.4871
7633.1927
7129.8732
4732.3011
6899.2302
4882.9681
11406.335
11028.621
11252.911
11316.768
11641.915
11435.867
11051.958
11365.403
4660.7867
4583.7833
6694.6624
6686.3879
4722.9687
6789.6239
6822.2864
4637.5812
11400.767
11068.384
11526.776
11280.664
10567.402
10860.032
10970.661
10805.517
12086.232
12056.657
12435.281
12553.41
12499.159
12380.595
12541.049
12814.439
14227.237
13959.385
13910.739
14367.991
14090.234
14118.531
14314.219
14379.513
15249.589
14552.811
14621.305
15625.393
12839.356
12472.091
12776.825
13425.83
12658.336
12496.062
12880.257
13071.324
14565.644
14602.155
14786.443
14801.683
14894.215
14915.125
14785.483
15015.258
13373.735
13293.257
13152.034
13419.081
12306.25
12546.384
12784.551
12713.815
14199.427
14378.104
14470.007
14454.005
11817.312
12318.815
12169.384
11945.324
5243.831
7618.5945
7414.5251
4993.1636
4855.8782
6962.7622
4718.9069
6742.2632
11070.025
11038.569
11390.268
10959.992
4640.857
5008.6735
7115.0766
6429.6607
4772.4074
6837.2431
4556.2026
6465.5012
10736.416
10959.341
10731.823
10627.893
10688.929
10490.468
11202.595
10979.954
14350.188
14350.869
14402.093
14698.405
12623.417
12247.779
12088.393
12681.893
12310.832
11959.857
12316.08
12750.402
14282.363
13951.533
14121.391
14560.479
16474.011
17049.745
17473.561
17136.968
15906.343
16203.687
16398.324
16316.945
16927.296
17252.909
17084.602
16863.441
15852.593
15986.073
15895.236
15898.345
17345.69
17810.611
18731.395
18345.314
16928.739
17434.054
18165.036
17807.535
17878.299
18145.875
17716.992
17563.635
18355.314
18804.696
18482.657
18161.448
16191.075
15869.022
15669.736
16234.832
16520.855
16916.095
17486.847
17240.516
16626.926
16917.068
17193.261
16955.272
15993.066
15649.219
15581.039
16011.159
17955.692
17800.793
17371.467
17611.292
17167.92
17598.415
18312.995
17978.271
17753.022
18162.218
18957.301
18574.312
17247.932
16885.546
16620.983
17032.336
16932.814
16496.022
16256.318
16832.335
17338.3
17857.601
18032.523
17548.927
16982.642
17467.137
17984.734
17632.389
16727.531
16139.932
16131.559
16754.257
15988.026
16272.443
16836.023
16860.534
16753.765
17243.225
18139.888
17805.324
17143.227
17475.769
17938.219
17632.652
18614.048
18295.581
17881.362
18226.886
17303.338
17768.716
18832.067
18421.27
7310.2125
4743.6108
6525.4126
5199.9154
7096.2259
5032.3536
7226.048
4946.847
11293.73
11798.726
11360.637
11196.544
10659.222
10804.891
11331.253
11400.158
12169.768
12594.291
13381.513
12808.086
14914.281
14831.092
14789.121
15270.04
13166.193
12886.668
12656.8
13230.797
14976.669
14275.184
14532.003
15281.208
15392.725
15066.813
15020.922
15556.625
13238.037
13469.785
13830.88
13304.296
13280.405
13603.365
14337.58
13881.244
15884.362
15299.632
15357.016
15929.842
11922.712
11845.902
12076.066
11681.702
5406.8769
5534.4117
7569.1759
7784.3205
8186.5742
5749.9413
7747.8925
6010.5078
12066.35
11616.649
12310.463
12555.205
860.75876
858.45737
1128.6577
1119.4994
855.63549
850.36602
1106.8479
1112.1845
1386.5896
1222.7748
1238.3776
1412.8387
1450.6573
1267.2194
1260.1609
1440.374
1615.8026
1578.6904
1826.8871
1773.4069
1506.093
1572.983
1681.9274
1741.7984
1387.5348
1225.6998
1244.8854
1424.5325
1203.7025
1211.4004
1375.5204
1365.3808
1475.5679
1652.201
1655.9467
1475.332
1504.3009
1677.395
1612.0833
1808.4475
2672.1461
2698.8642
4158.311
4219.8757
3977.2279
4009.0858
2545.9816
2598.8342
2414.7531
3692.4319
3678.9785
2453.6677
2399.4133
3604.9766
2488.3111
3737.2456
3527.5287
2347.0643
2417.186
3576.204
3518.1853
3495.8287
2320.7144
2381.3592
2360.0436
3508.7488
2449.4692
3630.9732
3755.6464
2458.7217
2585.4964
3918.3614
1221.9402
1230.1594
1396.9602
1385.3129
1213.1417
1234.523
1368.0569
1409.8416
1503.9214
1509.7145
1713.9076
1710.8732
1465.6384
1575.4975
1662.4632
1771.3355
3870.2757
2455.6141
3799.9117
2507.7288
3667.3292
2397.0406
3665.821
2453.0297
2363.8161
3586.9443
3713.0829
2438.1751
2418.764
3693.4725
2506.7989
3812.563
1519.7177
1543.8747
1257.9237
1250.8898
1417.4686
1432.766
854.30976
861.30189
1116.4217
1114.8118
873.56094
879.77797
1140.874
10711.532
17871.691
18473.348
11322.456
11217.914
17917.577
16389.598
10149.085
35642.064
25385.471
25299.416
35627.329
35758.108
24621.78
23968.533
35189.682
19290.565
12486.095
19341.278
12300.22
19912.272
12941.58
19639.762
12930.356
25201.945
25429.529
36571.18
36346.173
25540.976
38306.881
38599.206
26162.477
43310.341
42814.534
47115.631
47645.428
51808.005
51266.023
55017.163
55524.482
49128.579
49863.923
53644.882
52705.666
40823.809
41105.228
45515.472
45028.278
44134.267
39885.857
39291.614
43649.614
48089.19
48357.593
52091.365
52105.938
48405.831
48452.505
52379.421
52146.969
39844.978
39620.014
43977.145
44110.383
55640.479
56054.464
59045.005
58421.902
55930.475
55659.032
58643.381
59132.584
63405.605
61336.514
62035.763
64301.458
63684.502
61718.875
60909.775
62818.381
56159.053
57276.05
60284.231
59022.288
61565.699
58588.894
59175.841
62228.568
65990.425
64161.97
64970.194
66974.747
64963.555
62987.045
61610.243
63568.722
65496.514
66981.745
68584.499
66988.539
64713.772
65688.659
67243.504
66198.068
67171.638
65520.235
66510.284
68230.462
70362.237
68964.369
69973.169
71295.99
70100.263
68846.789
67836.917
69139.083
57465.843
55078.113
58382.304
60629.66
56316.545
56723.617
59846.526
59634.89
64889.047
62696.925
62719.655
65198.961
63564.539
61372.772
63340.267
65197.325
56045.695
54932.57
58027.787
59304.493
57415.26
54725.506
55736.234
58797.445
61835.306
59928.282
61590.649
63831.611
63175.196
60911.934
62261.955
64590.207
68870.983
67418.972
70023.21
71735.308
65578.662
63851.903
66093.712
68048.215
66805.305
65535.578
67610.613
68681.006
71430.104
69751.499
70635.732
72148.894
72389.489
70857.091
71312.745
72839.659
68988.977
67173.656
67575.015
69489.588
66823.622
65721.768
67350.913
67938.756
70226.707
68963.504
69201.014
70271.658
10405.486
16406.89
15602.188
9498.4717
9968.3557
16464.756
16394.53
9842.2494
36191.878
24346.798
24181.01
35456.504
33843.093
22901.24
23357.561
35187.427
43938.018
40014.076
39464.41
43748.347
48099.062
47843.082
51364.154
52030.037
48060.086
47160.838
51179.826
52158.753
39296.456
38206.251
42667.304
43607.055
36586.663
25289.898
24282.292
35690.219
10173.35
17039.733
16518.92
9959.2691
11300.75
16858.573
18143.401
11991.87
24496.725
34635.949
22971.539
35900.284
40524.926
38893.118
43102.588
45069.185
44694.509
40411.467
39686.556
43994.236
48366.327
49065.674
53008.261
52426.441
49598.068
47325.275
51279.652
53671.864