/*--------------------------------*- C++ -*----------------------------------*\
  =========                 |
  \\      /  F ield         | OpenFOAM: The Open Source CFD Toolbox
   \\    /   O peration     | Website:  https://openfoam.org
    \\  /    A nd           | Version:  7
     \\/     M anipulation  |
\*---------------------------------------------------------------------------*/
FoamFile
{
    version     2.0;
    format      ascii;
    class       volScalarField;
    location    "9000";
    object      p;
}
// * * * * * * * * * * * * * * * * * * * * * * * * * * * * * * * * * * * * * //

dimensions      [0 2 -2 0 0 0 0];

internalField   nonuniform List<scalar> 
34158
(
-5.467388e+106
-5.468994e+106
-5.4695968e+106
-5.4754689e+106
-5.4354535e+106
-5.4317721e+106
-5.2923153e+106
-5.2954672e+106
-4.464983e+106
-4.4684566e+106
-5.4477304e+106
-5.4395916e+106
-5.2987104e+106
-5.3050675e+106
-5.4169127e+106
-5.2631206e+106
-5.4122866e+106
-5.2586884e+106
-5.1041191e+106
-5.1073808e+106
-4.7008451e+106
-4.6962042e+106
-4.4705582e+106
-4.4657393e+106
-4.0902183e+106
-4.2857652e+106
-4.2890563e+106
-4.0921076e+106
-4.4627168e+106
-4.5750808e+106
-4.5727165e+106
-4.45946e+106
-4.4601353e+106
-4.5720179e+106
-4.0939073e+106
-4.0920671e+106
-5.3271452e+106
-5.3140431e+106
-5.4321156e+106
-5.2762181e+106
-5.4228969e+106
-5.2685814e+106
-5.1125616e+106
-5.1193008e+106
-5.1596377e+106
-5.1542147e+106
-5.415344e+106
-5.2502173e+106
-5.0805265e+106
-5.410622e+106
-5.2452386e+106
-5.0762175e+106
-4.9097462e+106
-4.9119621e+106
-4.7046247e+106
-4.7072652e+106
-4.6801712e+106
-4.6767616e+106
-4.4967565e+106
-4.4932128e+106
-3.8604567e+106
-4.4743743e+106
-4.2905208e+106
-4.0899965e+106
-4.0910489e+106
-4.2862593e+106
-4.4736408e+106
-4.5846981e+106
-4.5813753e+106
-4.4668458e+106
-4.4640489e+106
-4.5786448e+106
-4.5773949e+106
-4.4641912e+106
-4.0380707e+106
-4.3492246e+106
-4.3453635e+106
-4.2118599e+106
-4.2069878e+106
-4.2084338e+106
-4.3466934e+106
-4.03926e+106
-4.4882946e+106
-4.493909e+106
-4.5595568e+106
-4.5549459e+106
-4.6075995e+106
-4.6116988e+106
-4.6561317e+106
-4.6039368e+106
-4.6058102e+106
-4.654243e+106
-4.6524201e+106
-4.4855968e+106
-4.5528566e+106
-4.4852994e+106
-4.5511719e+106
-4.4856826e+106
-4.4853973e+106
-4.5503809e+106
-4.5495413e+106
-4.6513276e+106
-4.6023108e+106
-4.6485631e+106
-4.600538e+106
-4.096532e+106
-4.0953837e+106
-4.1060921e+106
-4.1040987e+106
-4.2924008e+106
-4.2899099e+106
-5.2996551e+106
-5.2863306e+106
-5.1382591e+106
-5.1277755e+106
-5.167378e+106
-5.1776266e+106
-5.4309199e+106
-5.2651812e+106
-5.094844e+106
-5.4215792e+106
-5.2567113e+106
-5.0872261e+106
-4.9166513e+106
-4.9222197e+106
-4.9572375e+106
-5.1524869e+106
-5.1554056e+106
-4.9529236e+106
-5.1477107e+106
-5.1500393e+106
-5.415232e+106
-5.2486958e+106
-5.0701019e+106
-4.8889565e+106
-5.4105032e+106
-5.2436307e+106
-5.0651745e+106
-4.8855325e+106
-4.7089223e+106
-4.7102392e+106
-4.6862272e+106
-4.6834761e+106
-4.4995496e+106
-4.5016442e+106
-4.6728621e+106
-4.4832766e+106
-4.669869e+106
-4.4804804e+106
-5.1883412e+106
-5.1851828e+106
-3.8369963e+106
-3.8606061e+106
-4.7132015e+106
-4.2937477e+106
-4.0928344e+106
-4.4753345e+106
-4.5869715e+106
-4.5865178e+106
-4.475908e+106
-4.3597729e+106
-4.2198203e+106
-4.212157e+106
-4.3523061e+106
-4.0385467e+106
-4.0407103e+106
-4.3494042e+106
-4.3503081e+106
-4.209574e+106
-4.212715e+106
-4.5747783e+106
-4.5073634e+106
-4.5013641e+106
-4.5689545e+106
-4.6725134e+106
-4.6258344e+106
-4.6211727e+106
-4.6689331e+106
-4.6676486e+106
-4.6194091e+106
-4.6173468e+106
-4.6653612e+106
-4.4950447e+106
-4.497014e+106
-4.5659286e+106
-4.5636814e+106
-4.563023e+106
-4.4939111e+106
-4.491717e+106
-4.5606307e+106
-4.6158278e+106
-4.6640571e+106
-4.6141423e+106
-4.6626269e+106
-4.6145434e+106
-4.6145515e+106
-4.6623652e+106
-4.4929022e+106
-4.5615514e+106
-4.5623178e+106
-4.49562e+106
-4.0245773e+106
-4.1931141e+106
-4.1874933e+106
-4.4196301e+106
-4.4134472e+106
-4.322699e+106
-4.3149388e+106
-4.410669e+106
-4.3121073e+106
-4.3138644e+106
-4.4109295e+106
-4.1882139e+106
-4.4115905e+106
-4.4117998e+106
-4.3142878e+106
-4.3132282e+106
-4.0248306e+106
-4.5179142e+106
-4.5202529e+106
-4.5584035e+106
-4.5609428e+106
-4.5238702e+106
-4.5292716e+106
-4.5641752e+106
-4.5685281e+106
-4.5982588e+106
-4.6263632e+106
-4.6228283e+106
-4.5944347e+106
-4.5914165e+106
-4.6202198e+106
-4.6181544e+106
-4.5892754e+106
-4.6423775e+106
-4.6443348e+106
-4.6657393e+106
-4.6637384e+106
-4.6467192e+106
-4.6497759e+106
-4.670565e+106
-4.6678122e+106
-4.6867658e+106
-4.682703e+106
-4.6845951e+106
-4.7033288e+106
-4.701568e+106
-4.636822e+106
-4.6374458e+106
-4.6589659e+106
-4.6583126e+106
-4.6385684e+106
-4.640728e+106
-4.6621416e+106
-4.6599716e+106
-4.6999153e+106
-4.6809433e+106
-4.6788424e+106
-4.6975412e+106
-4.6964035e+106
-4.6777304e+106
-4.6773111e+106
-4.6958267e+106
-4.514384e+106
-4.5163254e+106
-4.5568672e+106
-4.5551855e+106
-4.5876545e+106
-4.6166184e+106
-4.6143828e+106
-4.5858698e+106
-4.5552349e+106
-4.5146305e+106
-4.5159298e+106
-4.5548332e+106
-4.5846575e+106
-4.5853588e+106
-4.6134876e+106
-4.6128293e+106
-4.5148383e+106
-4.5128809e+106
-4.5518974e+106
-4.5525008e+106
-4.5130267e+106
-4.5155113e+106
-4.5540617e+106
-4.5521764e+106
-4.6119135e+106
-4.583511e+106
-4.5817251e+106
-4.6097257e+106
-4.5812036e+106
-4.5810018e+106
-4.6088479e+106
-4.6085868e+106
-4.6952749e+106
-4.6765598e+106
-4.6746852e+106
-4.6932537e+106
-4.6572587e+106
-4.6356504e+106
-4.6335503e+106
-4.6551785e+106
-4.6920498e+106
-4.673217e+106
-4.672069e+106
-4.6908789e+106
-4.6540337e+106
-4.632414e+106
-4.6319355e+106
-4.6530961e+106
-3.8572453e+106
-4.0982524e+106
-4.0977015e+106
-4.1093951e+106
-4.1081009e+106
-4.2959203e+106
-4.2944941e+106
-4.1183806e+106
-4.2887216e+106
-4.1164361e+106
-4.2862467e+106
-5.1505943e+106
-5.1634297e+106
-5.289327e+106
-5.1150264e+106
-5.2759122e+106
-5.1041191e+106
-4.9377312e+106
-4.9293139e+106
-4.9635021e+106
-5.1649749e+106
-5.1587385e+106
-4.9711814e+106
-5.1699498e+106
-5.1753942e+106
-5.4308307e+106
-5.2638553e+106
-5.0853924e+106
-4.9014919e+106
-5.421481e+106
-5.2552476e+106
-5.0773217e+106
-4.8946774e+106
-4.712583e+106
-4.7161549e+106
-4.7429827e+106
-4.9515657e+106
-4.9546747e+106
-5.0594596e+106
-5.0563694e+106
-4.7404871e+106
-4.9504031e+106
-4.9476211e+106
-5.0516278e+106
-5.0544768e+106
-5.248603e+106
-5.0689872e+106
-4.8803239e+106
-4.6912594e+106
-5.2435311e+106
-5.0638436e+106
-4.876128e+106
-4.6888101e+106
-4.5029146e+106
-4.5037393e+106
-4.6785338e+106
-4.488228e+106
-4.6758051e+106
-4.4861526e+106
-4.6722555e+106
-4.4795661e+106
-4.6692904e+106
-4.476676e+106
-5.089115e+106
-5.0874321e+106
-5.199552e+106
-5.1925924e+106
-5.0947357e+106
-5.1866419e+106
-5.1848508e+106
-5.2328774e+106
-5.2346765e+106
-5.0919792e+106
-5.1833561e+106
-5.1811257e+106
-5.2122061e+106
-5.2056375e+106
-4.0377837e+106
-4.0384931e+106
-3.8382887e+106
-3.8621969e+106
-4.7139748e+106
-4.7509092e+106
-4.7361369e+106
-4.7493959e+106
-4.7344816e+106
-4.7331948e+106
-4.7317804e+106
-4.7141914e+106
-4.7144335e+106
-4.3612736e+106
-4.362433e+106
-4.2197557e+106
-4.2224475e+106
-4.0436295e+106
-4.5049371e+106
-4.505469e+106
-4.5061377e+106
-4.5728199e+106
-4.5728069e+106
-4.6247083e+106
-4.6245812e+106
-4.6733748e+106
-4.6725213e+106
-4.6259559e+106
-4.6266976e+106
-4.6731449e+106
-4.6732222e+106
-4.5092611e+106
-4.5068476e+106
-4.5743151e+106
-4.5754443e+106
-4.3332496e+106
-4.4311009e+106
-4.4245285e+106
-4.3247143e+106
-4.2002129e+106
-4.1926227e+106
-4.4199423e+106
-4.4184179e+106
-4.3204346e+106
-4.3206218e+106
-4.0255427e+106
-4.190555e+106
-4.1942735e+106
-4.0276516e+106
-4.4173176e+106
-4.4150451e+106
-4.3193157e+106
-4.3160803e+106
-4.4203895e+106
-4.3175039e+106
-4.4164534e+106
-4.3236871e+106
-4.6441494e+106
-4.6171714e+106
-4.6132663e+106
-4.6411007e+106
-4.5860832e+106
-4.5446498e+106
-4.5394592e+106
-4.5816402e+106
-4.5326483e+106
-4.5353872e+106
-4.5781397e+106
-4.5749003e+106
-4.6383457e+106
-4.6097629e+106
-4.6067853e+106
-4.6358263e+106
-4.7203955e+106
-4.7031504e+106
-4.7012289e+106
-4.7184295e+106
-4.6856091e+106
-4.6662118e+106
-4.6637834e+106
-4.6834659e+106
-4.6599334e+106
-4.6618407e+106
-4.6819067e+106
-4.6805073e+106
-4.7169787e+106
-4.6996713e+106
-4.6984788e+106
-4.715733e+106
-4.7146707e+106
-4.697434e+106
-4.6951047e+106
-4.712508e+106
-4.679312e+106
-4.6585134e+106
-4.6563351e+106
-4.6769731e+106
-4.6542052e+106
-4.6552575e+106
-4.6758608e+106
-4.6747008e+106
-4.7114835e+106
-4.6937341e+106
-4.6928994e+106
-4.7110347e+106
-4.5286288e+106
-4.5273635e+106
-4.5701832e+106
-4.5704695e+106
-4.5275401e+106
-4.5306134e+106
-4.572982e+106
-4.5705561e+106
-4.6027e+106
-4.6048386e+106
-4.6342896e+106
-4.6319798e+106
-4.6311316e+106
-4.6019956e+106
-4.6021168e+106
-4.6304919e+106
-4.6300056e+106
-4.6019939e+106
-4.5993765e+106
-4.6280304e+106
-4.5702239e+106
-4.5281076e+106
-4.5246906e+106
-4.5673028e+106
-4.5240665e+106
-4.5233109e+106
-4.5660489e+106
-4.5662026e+106
-4.6271887e+106
-4.5978839e+106
-4.5980602e+106
-4.6272123e+106
-4.6736942e+106
-4.6531285e+106
-4.6724996e+106
-4.6517771e+106
-4.7106651e+106
-4.6922237e+106
-4.6912305e+106
-4.709508e+106
-4.6513625e+106
-4.672357e+106
-4.6725602e+106
-4.6515633e+106
-4.691035e+106
-4.690886e+106
-4.7092023e+106
-4.651422e+106
-4.6515686e+106
-4.6716325e+106
-4.6716073e+106
-4.6514328e+106
-4.6518374e+106
-4.6725716e+106
-4.6716088e+106
-4.6896327e+106
-4.6906246e+106
-4.526317e+106
-4.5251912e+106
-4.5672425e+106
-4.5683954e+106
-4.5996223e+106
-4.6278826e+106
-4.5988363e+106
-4.627862e+106
-4.6284254e+106
-4.6009822e+106
-4.6005918e+106
-4.6281898e+106
-4.5704769e+106
-4.5286027e+106
-4.5305826e+106
-4.5702674e+106
-4.1952957e+106
-4.1884484e+106
-4.1915314e+106
-4.1851554e+106
-4.3298843e+106
-4.3213694e+106
-4.318077e+106
-4.3197136e+106
-4.4841253e+106
-4.4230056e+106
-4.4154263e+106
-4.478181e+106
-4.4743995e+106
-4.411373e+106
-4.4107088e+106
-4.4723528e+106
-4.4056192e+106
-4.4090742e+106
-4.4709775e+106
-4.4684799e+106
-4.4108123e+106
-4.4062562e+106
-4.4689954e+106
-4.4713793e+106
-4.185391e+106
-4.3200409e+106
-4.3187044e+106
-4.4715803e+106
-4.4111139e+106
-4.4066829e+106
-4.4685024e+106
-4.4683397e+106
-4.4062454e+106
-4.4097943e+106
-4.4708443e+106
-4.192247e+106
-4.1883266e+106
-4.1947101e+106
-4.555675e+106
-4.5581399e+106
-4.5993489e+106
-4.6022795e+106
-4.5624438e+106
-4.5684719e+106
-4.6064878e+106
-4.6114096e+106
-4.6408723e+106
-4.6632626e+106
-4.6598625e+106
-4.6367588e+106
-4.6330104e+106
-4.6565466e+106
-4.653562e+106
-4.6300741e+106
-4.6729629e+106
-4.6758609e+106
-4.6923744e+106
-4.6894301e+106
-4.6788283e+106
-4.6816008e+106
-4.6973175e+106
-4.6949966e+106
-4.7102766e+106
-4.7050597e+106
-4.7078096e+106
-4.7227302e+106
-4.7201059e+106
-4.666255e+106
-4.6669583e+106
-4.6834763e+106
-4.6826945e+106
-4.668237e+106
-4.6704981e+106
-4.6869167e+106
-4.684465e+106
-4.717718e+106
-4.7024565e+106
-4.7001704e+106
-4.7153121e+106
-4.7138885e+106
-4.6989199e+106
-4.6980339e+106
-4.7125157e+106
-4.5517183e+106
-4.5536244e+106
-4.5970824e+106
-4.5953092e+106
-4.62759e+106
-4.6511078e+106
-4.6487586e+106
-4.625543e+106
-4.5951613e+106
-4.5521771e+106
-4.5532913e+106
-4.5947292e+106
-4.6240215e+106
-4.6246778e+106
-4.6475407e+106
-4.6468956e+106
-4.5500831e+106
-4.5484253e+106
-4.5895552e+106
-4.5897617e+106
-4.5490931e+106
-4.5519051e+106
-4.5929531e+106
-4.5906094e+106
-4.6458856e+106
-4.6224959e+106
-4.6203717e+106
-4.643764e+106
-4.6183697e+106
-4.6189303e+106
-4.6421468e+106
-4.6410758e+106
-4.7113321e+106
-4.6971512e+106
-4.6957903e+106
-4.7098979e+106
-4.6819434e+106
-4.6651777e+106
-4.6634724e+106
-4.6803261e+106
-4.7086027e+106
-4.694238e+106
-4.6926096e+106
-4.678681e+106
-4.6617108e+106
-4.6603145e+106
-4.6768953e+106
-3.8598842e+106
-3.8321928e+106
-3.8340668e+106
-3.964623e+106
-3.9630634e+106
-4.0729056e+106
-4.0994646e+106
-4.0984892e+106
-4.0721426e+106
-4.1122134e+106
-4.1112235e+106
-4.2974964e+106
-4.2970614e+106
-4.1226122e+106
-4.2930155e+106
-4.1211838e+106
-4.2914558e+106
-4.2915715e+106
-4.1206999e+106
-4.1187207e+106
-4.2887961e+106
-5.1408617e+106
-5.1279859e+106
-4.9478045e+106
-4.9579906e+106
-4.9808363e+106
-4.9907223e+106
-5.2881267e+106
-5.1061491e+106
-4.9187416e+106
-5.2746834e+106
-5.0950875e+106
-4.9095072e+106
-4.727827e+106
-4.7212313e+106
-4.7468962e+106
-4.9569564e+106
-4.9594732e+106
-5.0670807e+106
-5.0622922e+106
-4.7523025e+106
-4.9662812e+106
-5.0759402e+106
-5.0712469e+106
-4.9622543e+106
-5.2637694e+106
-5.0843668e+106
-4.8937897e+106
-4.6996889e+106
-5.2551527e+106
-5.0761065e+106
-4.886491e+106
-4.6947012e+106
-4.5049797e+106
-4.5071923e+106
-4.5200742e+106
-4.8515511e+106
-4.7361162e+106
-4.7346812e+106
-4.8490192e+106
-4.9972738e+106
-5.0001778e+106
-4.5188884e+106
-4.8484405e+106
-4.7342209e+106
-4.7338802e+106
-4.846141e+106
-4.9953163e+106
-4.9933187e+106
-5.0689247e+106
-4.8792493e+106
-4.6844453e+106
-4.4918433e+106
-5.0637658e+106
-4.8746797e+106
-4.6813249e+106
-4.4902996e+106
-4.6775944e+106
-4.4845501e+106
-4.675002e+106
-4.4826954e+106
-4.6722178e+106
-4.4796282e+106
-4.6692424e+106
-4.4764325e+106
-5.0888073e+106
-5.0894602e+106
-5.1352124e+106
-5.1341224e+106
-5.1761126e+106
-5.1763493e+106
-5.1778459e+106
-5.1769225e+106
-5.0888993e+106
-5.134017e+106
-5.1333234e+106
-5.0887612e+106
-5.1758337e+106
-5.1751259e+106
-5.1042788e+106
-5.1998163e+106
-5.1957975e+106
-5.2439604e+106
-5.2481115e+106
-5.0983038e+106
-5.1921425e+106
-5.1887478e+106
-5.2368411e+106
-5.2405147e+106
-5.1426311e+106
-5.0967395e+106
-5.0950468e+106
-5.1406696e+106
-5.185329e+106
-5.2090805e+106
-5.2081602e+106
-5.1842368e+106
-5.1835819e+106
-5.20753e+106
-5.2067928e+106
-5.1830039e+106
-5.2572643e+106
-5.231303e+106
-5.230596e+106
-5.2329771e+106
-5.2579777e+106
-5.2591171e+106
-5.2319801e+106
-5.0937979e+106
-5.0914063e+106
-5.1370177e+106
-5.1393534e+106
-5.1823026e+106
-5.206075e+106
-5.1811128e+106
-5.1799189e+106
-5.1787449e+106
-5.1153078e+106
-5.2135295e+106
-5.2106367e+106
-5.1098156e+106
-5.2031245e+106
-5.2072612e+106
-5.2514759e+106
-5.2558893e+106
-4.2071923e+106
-4.2240241e+106
-4.229104e+106
-4.2129132e+106
-4.0401974e+106
-4.2295103e+106
-4.2241422e+106
-4.2073956e+106
-4.2136698e+106
-3.8410391e+106
-4.0427337e+106
-4.736686e+106
-4.7368892e+106
-4.752016e+106
-4.7515756e+106
-4.7627506e+106
-4.7507077e+106
-4.7500422e+106
-4.7491949e+106
-4.7473015e+106
-4.7535019e+106
-4.737909e+106
-4.7370609e+106
-4.7523268e+106
-4.7390116e+106
-4.7383704e+106
-4.7386436e+106
-4.7545443e+106
-4.754092e+106
-4.0338582e+106
-4.4288834e+106
-4.3317286e+106
-4.4293234e+106
-4.4279419e+106
-4.3312756e+106
-4.3283606e+106
-4.4293631e+106
-4.4325679e+106
-4.3296826e+106
-4.3349924e+106
-4.2004433e+106
-4.2029284e+106
-4.030322e+106
-4.5388851e+106
-4.5364364e+106
-4.5794007e+106
-4.5806968e+106
-4.612402e+106
-4.6410666e+106
-4.5388076e+106
-4.5376896e+106
-4.5801068e+106
-4.5810248e+106
-4.5378177e+106
-4.5403381e+106
-4.5812996e+106
-4.5803388e+106
-4.611816e+106
-4.6121677e+106
-4.6410746e+106
-4.6403922e+106
-4.6404177e+106
-4.6113494e+106
-4.6127345e+106
-4.6414787e+106
-4.6858708e+106
-4.6650363e+106
-4.6643874e+106
-4.6851514e+106
-4.6654455e+106
-4.6644878e+106
-4.6852231e+106
-4.6858689e+106
-4.7038282e+106
-4.7219652e+106
-4.7216498e+106
-4.7035908e+106
-4.7039267e+106
-4.7216647e+106
-4.6865763e+106
-4.6663028e+106
-4.6665187e+106
-4.6861895e+106
-4.6672353e+106
-4.6671349e+106
-4.6866833e+106
-4.6865146e+106
-4.7036466e+106
-4.7041593e+106
-4.7215275e+106
-4.7207206e+106
-4.7207376e+106
-4.7037672e+106
-4.7037663e+106
-4.7207462e+106
-4.5454926e+106
-4.5433213e+106
-4.5851545e+106
-4.5865714e+106
-4.5406018e+106
-4.5403474e+106
-4.5821967e+106
-4.5833107e+106
-4.6424503e+106
-4.6134067e+106
-4.6148029e+106
-4.6429963e+106
-4.6439178e+106
-4.6157715e+106
-4.6173753e+106
-4.6445872e+106
-4.3386001e+106
-4.4333499e+106
-4.4967628e+106
-4.4909512e+106
-4.4256893e+106
-4.4206887e+106
-4.42146e+106
-4.4867837e+106
-4.4845421e+106
-4.3295476e+106
-4.1977297e+106
-4.1899429e+106
-4.3253255e+106
-4.3256293e+106
-4.4824849e+106
-4.4183478e+106
-4.4137126e+106
-4.4788897e+106
-4.4787061e+106
-4.4136227e+106
-4.4177148e+106
-4.4807081e+106
-4.1924428e+106
-4.196882e+106
-4.1882173e+106
-4.1926342e+106
-4.3246296e+106
-4.3216998e+106
-4.3238011e+106
-4.3307637e+106
-4.2017674e+106
-4.193988e+106
-4.4119731e+106
-4.4174463e+106
-4.4804907e+106
-4.4765255e+106
-4.4750678e+106
-4.4105173e+106
-4.4131037e+106
-4.4762389e+106
-4.480877e+106
-4.4168722e+106
-4.423397e+106
-4.4846074e+106
-4.4142481e+106
-4.477555e+106
-4.4781062e+106
-4.4137375e+106
-4.6818102e+106
-4.6612345e+106
-4.6576252e+106
-4.6793757e+106
-4.6309111e+106
-4.5844307e+106
-4.5785513e+106
-4.6259374e+106
-4.5710952e+106
-4.57383e+106
-4.6216073e+106
-4.618401e+106
-4.6769624e+106
-4.6537808e+106
-4.650657e+106
-4.6742529e+106
-4.7383265e+106
-4.7256239e+106
-4.7247084e+106
-4.7375422e+106
-4.7122474e+106
-4.6980514e+106
-4.696674e+106
-4.7110659e+106
-4.6931807e+106
-4.6950649e+106
-4.7098992e+106
-4.7082343e+106
-4.7367056e+106
-4.7235888e+106
-4.7218575e+106
-4.7347101e+106
-4.7325098e+106
-4.7198129e+106
-4.7178142e+106
-4.7307915e+106
-4.7064577e+106
-4.6913015e+106
-4.6890344e+106
-4.7039202e+106
-4.6851494e+106
-4.6871145e+106
-4.7017924e+106
-4.7001492e+106
-4.7297913e+106
-4.7159189e+106
-4.7146052e+106
-4.7287981e+106
-4.5677775e+106
-4.5659963e+106
-4.6134192e+106
-4.6139075e+106
-4.5657663e+106
-4.5685892e+106
-4.6159348e+106
-4.6136794e+106
-4.6462692e+106
-4.6483031e+106
-4.6722547e+106
-4.6700743e+106
-4.6686715e+106
-4.6453407e+106
-4.6447432e+106
-4.6670006e+106
-4.6657458e+106
-4.6439452e+106
-4.6419721e+106
-4.6647023e+106
-4.6131366e+106
-4.56698e+106
-4.5631605e+106
-4.6100376e+106
-4.5627721e+106
-4.561586e+106
-4.6086106e+106
-4.6091053e+106
-4.664458e+106
-4.6406537e+106
-4.640714e+106
-4.6643301e+106
-4.6989879e+106
-4.6833878e+106
-4.6988548e+106
-4.6832106e+106
-4.728353e+106
-4.7137268e+106
-4.7136517e+106
-4.7281036e+106
-4.683356e+106
-4.6991283e+106
-4.6989366e+106
-4.6833939e+106
-4.7134795e+106
-4.7138306e+106
-4.7281845e+106
-4.6827181e+106
-4.6821745e+106
-4.6976083e+106
-4.6968963e+106
-4.6825204e+106
-4.6831843e+106
-4.6981287e+106
-4.6972571e+106
-4.7116363e+106
-4.7125213e+106
-4.565346e+106
-4.5640357e+106
-4.6102159e+106
-4.6115522e+106
-4.6423388e+106
-4.6646973e+106
-4.6414448e+106
-4.6645525e+106
-4.664927e+106
-4.6434105e+106
-4.6433859e+106
-4.6649463e+106
-4.6135482e+106
-4.5683186e+106
-4.5708137e+106
-4.6140269e+106
-4.3365559e+106
-4.3438871e+106
-4.3396166e+106
-4.3315352e+106
-4.3347411e+106
-4.3337187e+106
-4.3284065e+106
-4.3297832e+106
-4.3239687e+106
-4.3323447e+106
-4.3334458e+106
-4.3249898e+106
-4.3224738e+106
-4.3207305e+106
-4.3215906e+106
-4.3233935e+106
-4.4401524e+106
-4.4323958e+106
-4.4282305e+106
-4.4271255e+106
-4.425641e+106
-4.4223613e+106
-4.4233238e+106
-4.4278453e+106
-4.5117764e+106
-4.5050953e+106
-4.5007998e+106
-4.4989332e+106
-4.497297e+106
-4.494819e+106
-4.4956656e+106
-4.4985089e+106
-4.3231375e+106
-4.3221837e+106
-4.3240627e+106
-4.323162e+106
-4.4285192e+106
-4.4240757e+106
-4.4236072e+106
-4.4268157e+106
-4.4983008e+106
-4.4948558e+106
-4.4944358e+106
-4.4970234e+106
-4.3269955e+106
-4.3259585e+106
-4.3352288e+106
-4.3343571e+106
-4.3294787e+106
-4.3303328e+106
-4.3379197e+106
-4.345812e+106
-4.342009e+106
-4.3330759e+106
-4.5725449e+106
-4.6006031e+106
-4.5995521e+106
-4.57276e+106
-4.5758111e+106
-4.6043608e+106
-4.6017317e+106
-4.5733162e+106
-4.6435088e+106
-4.6239042e+106
-4.6225136e+106
-4.6417301e+106
-4.6476511e+106
-4.6278074e+106
-4.6254453e+106
-4.645005e+106
-4.6071774e+106
-4.5803212e+106
-4.6104669e+106
-4.577633e+106
-4.6135977e+106
-4.5889717e+106
-4.6169218e+106
-4.5839055e+106
-4.6336403e+106
-4.63062e+106
-4.6528207e+106
-4.6497846e+106
-4.6390426e+106
-4.6573116e+106
-4.655023e+106
-4.6364627e+106
-4.6650963e+106
-4.6670522e+106
-4.6758894e+106
-4.6741584e+106
-4.6818157e+106
-4.6831492e+106
-4.6903428e+106
-4.6891686e+106
-4.6780718e+106
-4.6802519e+106
-4.6878306e+106
-4.6858426e+106
-4.660367e+106
-4.6630942e+106
-4.6724913e+106
-4.6699944e+106
-4.668134e+106
-4.6582949e+106
-4.6559838e+106
-4.665846e+106
-4.6741358e+106
-4.6762334e+106
-4.6842454e+106
-4.6821704e+106
-4.6706836e+106
-4.6724918e+106
-4.6805929e+106
-4.6787594e+106
-4.6525236e+106
-4.6543301e+106
-4.6642714e+106
-4.6623682e+106
-4.6858874e+106
-4.6876529e+106
-4.6947947e+106
-4.692933e+106
-4.6893159e+106
-4.6912259e+106
-4.6983578e+106
-4.6964384e+106
-4.7115098e+106
-4.7047556e+106
-4.7029497e+106
-4.7097039e+106
-4.7080557e+106
-4.7012295e+106
-4.6993803e+106
-4.7061655e+106
-4.6927675e+106
-4.6945026e+106
-4.7013299e+106
-4.6997298e+106
-4.7032443e+106
-4.6967232e+106
-4.6957891e+106
-4.7024224e+106
-4.7153771e+106
-4.7091411e+106
-4.7085581e+106
-4.7149172e+106
-4.7141011e+106
-4.7075433e+106
-4.7061325e+106
-4.7127755e+106
-4.7189772e+106
-4.7201376e+106
-4.7264706e+106
-4.7254055e+106
-4.7125844e+106
-4.7143879e+106
-4.7211096e+106
-4.719344e+106
-4.7242608e+106
-4.7177046e+106
-4.7160221e+106
-4.7226213e+106
-4.7366869e+106
-4.730334e+106
-4.7288418e+106
-4.7352585e+106
-4.7338527e+106
-4.7273397e+106
-4.7256837e+106
-4.7322052e+106
-4.6791313e+106
-4.6794418e+106
-4.6866336e+106
-4.6862153e+106
-4.6796631e+106
-4.6800165e+106
-4.6872761e+106
-4.6868614e+106
-4.7004982e+106
-4.6936912e+106
-4.6933392e+106
-4.700018e+106
-4.6996495e+106
-4.6929919e+106
-4.6926405e+106
-4.6991927e+106
-4.680543e+106
-4.6816383e+106
-4.6886193e+106
-4.6875984e+106
-4.6915767e+106
-4.6845175e+106
-4.6829163e+106
-4.6898903e+106
-4.7047322e+106
-4.6978944e+106
-4.6962997e+106
-4.7030609e+106
-4.7017577e+106
-4.6949278e+106
-4.6940206e+106
-4.7007986e+106
-4.7309123e+106
-4.7243132e+106
-4.7228758e+106
-4.7295087e+106
-4.7179449e+106
-4.7110996e+106
-4.7095458e+106
-4.7163967e+106
-4.7073502e+106
-4.708275e+106
-4.7152347e+106
-4.714215e+106
-4.7283932e+106
-4.7216795e+106
-4.7206639e+106
-4.7272761e+106
-4.7264814e+106
-4.7199284e+106
-4.7191453e+106
-4.7255659e+106
-4.7136276e+106
-4.7068352e+106
-4.7063141e+106
-4.7129099e+106
-4.705271e+106
-4.7057812e+106
-4.7123046e+106
-4.7115527e+106
-4.7247361e+106
-4.7183494e+106
-4.7174742e+106
-4.7236727e+106
-4.5676891e+106
-4.5953834e+106
-4.5950457e+106
-4.5684843e+106
-4.5717531e+106
-4.5981358e+106
-4.5961998e+106
-4.5692245e+106
-4.6405165e+106
-4.6209256e+106
-4.6193342e+106
-4.6386887e+106
-4.6375963e+106
-4.6182235e+106
-4.6178331e+106
-4.6362684e+106
-4.6610579e+106
-4.651172e+106
-4.6496042e+106
-4.6593747e+106
-4.6676603e+106
-4.6692674e+106
-4.6774569e+106
-4.6757535e+106
-4.6650113e+106
-4.666324e+106
-4.6745143e+106
-4.6732462e+106
-4.646964e+106
-4.648252e+106
-4.6580924e+106
-4.6566697e+106
-4.6360503e+106
-4.6176992e+106
-4.6179737e+106
-4.6358129e+106
-4.5686626e+106
-4.5951149e+106
-4.5955357e+106
-4.5693706e+106
-4.570043e+106
-4.5965181e+106
-4.5966758e+106
-4.5716421e+106
-4.617868e+106
-4.6363031e+106
-4.6179754e+106
-4.636123e+106
-4.6465569e+106
-4.6465459e+106
-4.6561253e+106
-4.6560721e+106
-4.6560694e+106
-4.646397e+106
-4.6462621e+106
-4.6558279e+106
-4.6640558e+106
-4.6642869e+106
-4.6727036e+106
-4.6722998e+106
-4.6641272e+106
-4.6641435e+106
-4.672284e+106
-4.6720006e+106
-4.589892e+106
-4.5655659e+106
-4.5679624e+106
-4.5897143e+106
-4.5648359e+106
-4.5645153e+106
-4.5899353e+106
-4.5894045e+106
-4.6107976e+106
-4.6308489e+106
-4.611383e+106
-4.6299321e+106
-4.6295959e+106
-4.6106853e+106
-4.6105623e+106
-4.6290405e+106
-4.5659643e+106
-4.5911632e+106
-4.590142e+106
-4.5655126e+106
-4.5707961e+106
-4.5674708e+106
-4.5954698e+106
-4.5929385e+106
-4.6355609e+106
-4.6165583e+106
-4.6147341e+106
-4.6341523e+106
-4.6121677e+106
-4.6132628e+106
-4.6330233e+106
-4.6315045e+106
-4.6631516e+106
-4.6638513e+106
-4.6717874e+106
-4.6711448e+106
-4.6558081e+106
-4.6460531e+106
-4.6450208e+106
-4.6548609e+106
-4.6539465e+106
-4.6438384e+106
-4.6425077e+106
-4.6525898e+106
-4.661081e+106
-4.662306e+106
-4.6705426e+106
-4.669369e+106
-4.6395706e+106
-4.6400985e+106
-4.6500057e+106
-4.649324e+106
-4.6407643e+106
-4.6416319e+106
-4.6517452e+106
-4.6506315e+106
-4.6590167e+106
-4.6600883e+106
-4.6684838e+106
-4.667252e+106
-4.6575796e+106
-4.6582124e+106
-4.6664376e+106
-4.6656233e+106
-4.7227432e+106
-4.7166614e+106
-4.7161173e+106
-4.7220442e+106
-4.710981e+106
-4.7048678e+106
-4.7045164e+106
-4.7104684e+106
-4.7033612e+106
-4.704085e+106
-4.7101055e+106
-4.7093619e+106
-4.7216256e+106
-4.7156642e+106
-4.7149483e+106
-4.7208322e+106
-4.6989752e+106
-4.69239e+106
-4.6920143e+106
-4.6985667e+106
-4.6859789e+106
-4.6787886e+106
-4.6783073e+106
-4.6854802e+106
-4.6767903e+106
-4.6777406e+106
-4.6850687e+106
-4.6841476e+106
-4.6981848e+106
-4.6915347e+106
-4.6907464e+106
-4.697379e+106
-4.7200352e+106
-4.7141308e+106
-4.7135226e+106
-4.7194632e+106
-4.7086154e+106
-4.7025477e+106
-4.7016151e+106
-4.7077947e+106
-4.699693e+106
-4.7007006e+106
-4.7072035e+106
-4.7064261e+106
-4.6965734e+106
-4.6898351e+106
-4.6886606e+106
-4.695429e+106
-4.6746596e+106
-4.6758315e+106
-4.6832813e+106
-4.6820101e+106
-4.6727846e+106
-4.6736524e+106
-4.6809932e+106
-4.6799014e+106
-4.6944386e+106
-4.687528e+106
-4.6863957e+106
-4.6932648e+106
-3.8639254e+106
-3.9690434e+106
-3.8370457e+106
-3.8351442e+106
-3.9664684e+106
-4.0777934e+106
-4.1052193e+106
-4.1021135e+106
-4.0750461e+106
-3.8449182e+106
-3.847169e+106
-3.9760606e+106
-4.1142218e+106
-3.9740835e+106
-4.1130979e+106
-4.29519e+106
-4.299249e+106
-4.2979598e+106
-4.2944876e+106
-4.1256964e+106
-4.2956905e+106
-4.1249501e+106
-4.2948951e+106
-4.1253966e+106
-4.2967594e+106
-4.295209e+106
-4.1243273e+106
-4.2930292e+106
-4.1209063e+106
-4.1189389e+106
-4.2899469e+106
-5.1322493e+106
-4.9404029e+106
-5.1193543e+106
-4.9294507e+106
-4.7357399e+106
-4.7444546e+106
-4.7595077e+106
-4.9704325e+106
-4.9766809e+106
-5.086035e+106
-5.0803759e+106
-4.7678649e+106
-4.9846202e+106
-5.0948543e+106
-5.0906213e+106
-4.9808068e+106
-5.2880454e+106
-5.1052546e+106
-4.9119289e+106
-4.7134223e+106
-5.274603e+106
-5.0940977e+106
-4.9022018e+106
-4.7058235e+106
-4.5159126e+106
-4.5108037e+106
-4.5224225e+106
-4.7378063e+106
-4.8546947e+106
-4.8530575e+106
-4.7368941e+106
-5.003231e+106
-5.0066674e+106
-4.5265254e+106
-4.7424e+106
-4.7393542e+106
-4.8565952e+106
-4.8599521e+106
-5.0151142e+106
-5.0104855e+106
-5.084304e+106
-4.892744e+106
-4.694068e+106
-4.4975387e+106
-5.0760311e+106
-4.8853625e+106
-4.6885991e+106
-4.4945e+106
-4.6192861e+106
-4.6206172e+106
-4.4916406e+106
-4.493792e+106
-4.8991863e+106
-4.788103e+106
-4.7860006e+106
-4.8959525e+106
-5.0036287e+106
-5.0054015e+106
-5.0507481e+106
-5.0483361e+106
-5.0084765e+106
-5.0063107e+106
-5.0517569e+106
-5.053536e+106
-4.6204055e+106
-4.619152e+106
-4.4946229e+106
-4.4917063e+106
-4.8951339e+106
-4.7854846e+106
-4.7855153e+106
-4.8930936e+106
-5.0016083e+106
-5.0021258e+106
-5.0465894e+106
-5.0459607e+106
-5.0016939e+106
-5.0011596e+106
-5.0460246e+106
-5.0462099e+106
-4.8791753e+106
-4.6836344e+106
-4.4885389e+106
-4.8745835e+106
-4.6802505e+106
-4.4867413e+106
-4.6775408e+106
-4.4845205e+106
-4.6749566e+106
-4.4829541e+106
-4.4796553e+106
-4.4764309e+106
-5.0877213e+106
-5.1097178e+106
-5.1097675e+106
-5.0879397e+106
-5.1109647e+106
-5.0889233e+106
-5.0880025e+106
-5.1100306e+106
-5.1315342e+106
-5.132362e+106
-5.1556383e+106
-5.1546934e+106
-5.1310275e+106
-5.1310265e+106
-5.1540263e+106
-5.1541776e+106
-5.1848954e+106
-5.1851225e+106
-5.1731564e+106
-5.1731399e+106
-5.1853166e+106
-5.1855147e+106
-5.1735349e+106
-5.1733195e+106
-5.1750163e+106
-5.1745088e+106
-5.186481e+106
-5.1869346e+106
-5.1740845e+106
-5.1857454e+106
-5.1860989e+106
-5.1737748e+106
-5.0881315e+106
-5.0882203e+106
-5.109721e+106
-5.1098598e+106
-5.1540559e+106
-5.1310399e+106
-5.1307964e+106
-5.1534908e+106
-5.1531121e+106
-5.1305793e+106
-5.0882625e+106
-5.0882306e+106
-5.1094754e+106
-5.1097306e+106
-5.1727195e+106
-5.1730238e+106
-5.1846617e+106
-5.1843982e+106
-5.1723521e+106
-5.1840484e+106
-5.1835579e+106
-5.1720374e+106
-5.1083483e+106
-5.1552071e+106
-5.1513129e+106
-5.1044758e+106
-5.1999097e+106
-5.2236993e+106
-5.2215355e+106
-5.197637e+106
-5.1934933e+106
-5.1954462e+106
-5.21928e+106
-5.2171648e+106
-5.2410726e+106
-5.2430658e+106
-5.2671977e+106
-5.269103e+106
-5.271217e+106
-5.2736484e+106
-5.2475198e+106
-5.2452228e+106
-5.1008971e+106
-5.1475445e+106
-5.1444661e+106
-5.0984377e+106
-5.1919613e+106
-5.2157423e+106
-5.2137388e+106
-5.1897919e+106
-5.1879278e+106
-5.2118299e+106
-5.2101276e+106
-5.1864088e+106
-5.2340005e+106
-5.2356488e+106
-5.2617337e+106
-5.2600581e+106
-5.2396162e+106
-5.2635724e+106
-5.2657504e+106
-5.2375315e+106
-5.1404161e+106
-5.139236e+106
-5.1621713e+106
-5.1633957e+106
-5.1177842e+106
-5.118911e+106
-5.0968534e+106
-5.09573e+106
-5.0949503e+106
-5.116952e+106
-5.1163861e+106
-5.0944795e+106
-5.1383082e+106
-5.1377014e+106
-5.1608044e+106
-5.1614416e+106
-5.1825968e+106
-5.1819254e+106
-5.1937337e+106
-5.1943544e+106
-5.2073249e+106
-5.2213991e+106
-5.2208236e+106
-5.2067364e+106
-5.2203879e+106
-5.2062928e+106
-5.2200561e+106
-5.2059702e+106
-5.1814061e+106
-5.1932926e+106
-5.1928793e+106
-5.1810039e+106
-5.1808003e+106
-5.1805172e+106
-5.1924038e+106
-5.1926547e+106
-5.2057062e+106
-5.2198472e+106
-5.2194538e+106
-5.2054019e+106
-5.2190865e+106
-5.205074e+106
-5.2047449e+106
-5.2186467e+106
-5.1802457e+106
-5.1921523e+106
-5.1918187e+106
-5.1799727e+106
-5.2696041e+106
-5.2559484e+106
-5.2564102e+106
-5.2690375e+106
-5.2439295e+106
-5.2316272e+106
-5.2312348e+106
-5.2435364e+106
-5.2308156e+106
-5.2431107e+106
-5.2426277e+106
-5.2304089e+106
-5.2455781e+106
-5.2332278e+106
-5.2326692e+106
-5.2450362e+106
-5.2570436e+106
-5.2702472e+106
-5.2698767e+106
-5.256678e+106
-5.2581262e+106
-5.2575411e+106
-5.2707412e+106
-5.2713846e+106
-5.2321844e+106
-5.244556e+106
-5.244148e+106
-5.231854e+106
-5.093883e+106
-5.115723e+106
-5.1144182e+106
-5.092468e+106
-5.0910181e+106
-5.1130659e+106
-5.1118198e+106
-5.0898653e+106
-5.1344169e+106