/*--------------------------------*- C++ -*----------------------------------*\
  =========                 |
  \\      /  F ield         | OpenFOAM: The Open Source CFD Toolbox
   \\    /   O peration     | Website:  https://openfoam.org
    \\  /    A nd           | Version:  7
     \\/     M anipulation  |
\*---------------------------------------------------------------------------*/
FoamFile
{
    version     2.0;
    format      ascii;
    class       volScalarField;
    location    "9000";
    object      pMean;
}
// * * * * * * * * * * * * * * * * * * * * * * * * * * * * * * * * * * * * * //

dimensions      [0 2 -2 0 0 0 0];

internalField   nonuniform List<scalar> 
34158
(
-1.3488796e+103
-1.3499887e+103
-1.3556289e+103
-1.3578442e+103
-1.3407402e+103
-1.3374064e+103
-1.3074344e+103
-1.3126743e+103
-1.1312535e+103
-1.1241531e+103
-1.3484664e+103
-1.345605e+103
-1.3179262e+103
-1.3228312e+103
-1.3412549e+103
-1.3038378e+103
-1.3366518e+103
-1.2993701e+103
-1.2740404e+103
-1.2784159e+103
-1.2089542e+103
-1.2101407e+103
-1.1421706e+103
-1.1371399e+103
-1.086672e+103
-1.1032196e+103
-1.0999802e+103
-1.0852214e+103
-1.1392143e+103
-1.1559651e+103
-1.1517818e+103
-1.1350508e+103
-1.1304423e+103
-1.1462593e+103
-1.0703832e+103
-1.0710195e+103
-1.3285281e+103
-1.3261488e+103
-1.3490718e+103
-1.3122085e+103
-1.3460002e+103
-1.3084274e+103
-1.2836975e+103
-1.2891003e+103
-1.2998429e+103
-1.2925629e+103
-1.3411202e+103
-1.3038213e+103
-1.2718468e+103
-1.3360931e+103
-1.2994937e+103
-1.2682882e+103
-1.242753e+103
-1.2459328e+103
-1.2089437e+103
-1.2092604e+103
-1.2025098e+103
-1.203701e+103
-1.1715685e+103
-1.1723303e+103
-1.036421e+103
-1.1462109e+103
-1.1128604e+103
-1.089107e+103
-1.0921084e+103
-1.1069649e+103
-1.1481345e+103
-1.1662003e+103
-1.1653684e+103
-1.1455984e+103
-1.1440405e+103
-1.1629552e+103
-1.160352e+103
-1.1427964e+103
-1.0594702e+103
-1.127317e+103
-1.1237378e+103
-1.1095751e+103
-1.1049954e+103
-1.1037955e+103
-1.1206333e+103
-1.0575852e+103
-1.1431625e+103
-1.1453663e+103
-1.1498189e+103
-1.1483347e+103
-1.1499206e+103
-1.1514725e+103
-1.1562871e+103
-1.145171e+103
-1.1479458e+103
-1.1538318e+103
-1.1508665e+103
-1.1411502e+103
-1.1465492e+103
-1.1391449e+103
-1.1438172e+103
-1.1350836e+103
-1.1373273e+103
-1.1416102e+103
-1.1396999e+103
-1.1484293e+103
-1.1424095e+103
-1.1460359e+103
-1.1404832e+103
-1.0695137e+103
-1.0697944e+103
-1.0667303e+103
-1.0676999e+103
-1.1177804e+103
-1.1185803e+103
-1.3169756e+103
-1.3149247e+103
-1.2961538e+103
-1.2926567e+103
-1.3048827e+103
-1.3089018e+103
-1.3494559e+103
-1.3118863e+103
-1.2803311e+103
-1.3462671e+103
-1.3084066e+103
-1.2765405e+103
-1.2508128e+103
-1.2545315e+103
-1.2607406e+103
-1.3085606e+103
-1.3114789e+103
-1.2557048e+103
-1.2986274e+103
-1.3034725e+103
-1.3411258e+103
-1.3035004e+103
-1.2711673e+103
-1.2405633e+103
-1.3360949e+103
-1.2988548e+103
-1.2678212e+103
-1.2378433e+103
-1.2108793e+103
-1.2129045e+103
-1.2035138e+103
-1.2030026e+103
-1.1719172e+103
-1.1723536e+103
-1.2033884e+103
-1.1613978e+103
-1.2046351e+103
-1.162798e+103
-1.3276999e+103
-1.3238657e+103
-1.0351888e+103
-1.0385244e+103
-1.1819965e+103
-1.1154198e+103
-1.0935642e+103
-1.151009e+103
-1.1704159e+103
-1.1684784e+103
-1.150119e+103
-1.1364135e+103
-1.1185508e+103
-1.1140059e+103
-1.1335105e+103
-1.0619251e+103
-1.064514e+103
-1.1312444e+103
-1.1294555e+103
-1.1110186e+103
-1.1112957e+103
-1.1587911e+103
-1.1520269e+103
-1.1509621e+103
-1.1576984e+103
-1.1707877e+103
-1.1634106e+103
-1.161973e+103
-1.1699333e+103
-1.1688205e+103
-1.1618203e+103
-1.1600574e+103
-1.1668681e+103
-1.1497375e+103
-1.1506166e+103
-1.1580605e+103
-1.1565428e+103
-1.1554596e+103
-1.1494763e+103
-1.1484969e+103
-1.1547898e+103
-1.1582277e+103
-1.1655143e+103
-1.1574399e+103
-1.1645796e+103
-1.1538727e+103
-1.1558673e+103
-1.1623611e+103
-1.148091e+103
-1.154007e+103
-1.1519268e+103
-1.1476898e+103
-1.0570603e+103
-1.1071793e+103
-1.1023101e+103
-1.1435756e+103
-1.142338e+103
-1.1450822e+103
-1.1401161e+103
-1.1400304e+103
-1.1376663e+103
-1.1376119e+103
-1.137725e+103
-1.1006981e+103
-1.1358879e+103
-1.1338351e+103
-1.1361478e+103
-1.1331464e+103
-1.0553073e+103
-1.1470795e+103
-1.1485152e+103
-1.146131e+103
-1.147581e+103
-1.149694e+103
-1.1502901e+103
-1.148719e+103
-1.148481e+103
-1.1460853e+103
-1.1476232e+103
-1.1474457e+103
-1.1463274e+103
-1.1452594e+103
-1.1465567e+103
-1.1453925e+103
-1.1443501e+103
-1.1503911e+103
-1.1515525e+103
-1.1550001e+103
-1.1538754e+103
-1.1526466e+103
-1.1532158e+103
-1.1568254e+103
-1.1561611e+103
-1.1606816e+103
-1.1583562e+103
-1.1594181e+103
-1.162488e+103
-1.1614969e+103
-1.1456433e+103
-1.146458e+103
-1.149742e+103
-1.1488168e+103
-1.1481571e+103
-1.1491416e+103
-1.1524208e+103
-1.151186e+103
-1.1600058e+103
-1.1568996e+103
-1.1557151e+103
-1.1585755e+103
-1.1572141e+103
-1.1543479e+103
-1.1534005e+103
-1.1562247e+103
-1.1459369e+103
-1.1465143e+103
-1.1455345e+103
-1.1453256e+103
-1.1433175e+103
-1.1444427e+103
-1.1435503e+103
-1.142867e+103
-1.1446982e+103
-1.1451725e+103
-1.1435233e+103
-1.1423948e+103
-1.1401496e+103
-1.1418157e+103
-1.1423084e+103
-1.1410151e+103
-1.1392049e+103
-1.1405772e+103
-1.1399091e+103
-1.1381094e+103
-1.1418817e+103
-1.1426198e+103
-1.1412485e+103
-1.1411565e+103
-1.1396712e+103
-1.138668e+103
-1.1384462e+103
-1.1391151e+103
-1.1360504e+103
-1.1371776e+103
-1.1379242e+103
-1.1367403e+103
-1.1546935e+103
-1.1519218e+103
-1.1507446e+103
-1.1532809e+103
-1.1475265e+103
-1.1442065e+103
-1.1434766e+103
-1.1464048e+103
-1.1515166e+103
-1.1491644e+103
-1.147824e+103
-1.1502232e+103
-1.1449348e+103
-1.1420083e+103
-1.1410371e+103
-1.1437825e+103
-1.0634668e+103
-1.0705226e+103
-1.0696717e+103
-1.0655224e+103
-1.0662006e+103
-1.1178751e+103
-1.1179407e+103
-1.0715487e+103
-1.1094007e+103
-1.072837e+103
-1.110846e+103
-1.2974878e+103
-1.2983397e+103
-1.3165653e+103
-1.2857545e+103
-1.3146539e+103
-1.283281e+103
-1.2599808e+103
-1.2575958e+103
-1.2650305e+103
-1.3186835e+103
-1.3142862e+103
-1.2678429e+103
-1.3214347e+103
-1.3226141e+103
-1.3494837e+103
-1.3118126e+103
-1.2790496e+103
-1.2476083e+103
-1.3462789e+103
-1.3082435e+103
-1.2757015e+103
-1.2444291e+103
-1.2163702e+103
-1.218512e+103
-1.2185791e+103
-1.2615768e+103
-1.2646238e+103
-1.2887095e+103
-1.284883e+103
-1.2157424e+103
-1.2595441e+103
-1.2554718e+103
-1.2760698e+103
-1.2817424e+103
-1.3034996e+103
-1.2704954e+103
-1.2409908e+103
-1.2061738e+103
-1.2988458e+103
-1.2668682e+103
-1.2386364e+103
-1.2047015e+103
-1.1732512e+103
-1.174269e+103
-1.2048847e+103
-1.162862e+103
-1.2043582e+103
-1.1625487e+103
-1.2032886e+103
-1.1615842e+103
-1.2046871e+103
-1.1632345e+103
-1.2994398e+103
-1.294331e+103
-1.3358057e+103
-1.3315472e+103
-1.307784e+103
-1.3394998e+103
-1.3374861e+103
-1.343266e+103
-1.3456559e+103
-1.3040709e+103
-1.3352229e+103
-1.3323755e+103
-1.3408595e+103
-1.3387621e+103
-1.0608168e+103
-1.0621394e+103
-1.0363053e+103
-1.0398976e+103
-1.1832657e+103
-1.1880486e+103
-1.1844497e+103
-1.1873468e+103
-1.1839953e+103
-1.1830757e+103
-1.1824211e+103
-1.1845867e+103
-1.1858559e+103
-1.1386111e+103
-1.1374896e+103
-1.1180002e+103
-1.1194912e+103
-1.0660415e+103
-1.1536915e+103
-1.1530246e+103
-1.1536961e+103
-1.1614676e+103
-1.1611352e+103
-1.1665215e+103
-1.1660779e+103
-1.1751402e+103
-1.1745559e+103
-1.1652671e+103
-1.1639588e+103
-1.173357e+103
-1.1716984e+103
-1.1529301e+103
-1.153029e+103
-1.1605577e+103
-1.1591856e+103
-1.152854e+103
-1.1492267e+103
-1.149607e+103
-1.1491245e+103
-1.1138332e+103
-1.1097603e+103
-1.1483862e+103
-1.1471654e+103
-1.1469669e+103
-1.1476001e+103
-1.0585526e+103
-1.1079447e+103
-1.1088013e+103
-1.0598509e+103
-1.1468903e+103
-1.1464504e+103
-1.1467054e+103
-1.1439567e+103
-1.1447521e+103
-1.143352e+103
-1.1454791e+103
-1.1460213e+103
-1.1576272e+103
-1.1560822e+103
-1.1562603e+103
-1.1583397e+103
-1.1566104e+103
-1.156867e+103
-1.1568705e+103
-1.1570896e+103
-1.1545209e+103
-1.1555842e+103
-1.1561647e+103
-1.1551624e+103
-1.1581701e+103
-1.1562148e+103
-1.1555969e+103
-1.1576488e+103
-1.1779603e+103
-1.1742522e+103
-1.1740358e+103
-1.1775557e+103
-1.169152e+103
-1.1646267e+103
-1.1649143e+103
-1.1690299e+103
-1.1638121e+103
-1.1643213e+103
-1.1682843e+103
-1.1676733e+103
-1.1768379e+103
-1.1733608e+103
-1.172987e+103
-1.1764001e+103
-1.1754207e+103
-1.1721498e+103
-1.1713004e+103
-1.1743831e+103
-1.1667206e+103
-1.1630005e+103
-1.1624748e+103
-1.1661339e+103
-1.1607151e+103
-1.1615139e+103
-1.1651651e+103
-1.1644605e+103
-1.1735166e+103
-1.1702561e+103
-1.1696717e+103
-1.1731407e+103
-1.1540476e+103
-1.1549335e+103
-1.1553549e+103
-1.1539458e+103
-1.1552277e+103
-1.1553236e+103
-1.1555423e+103
-1.1558891e+103
-1.1550323e+103
-1.1549132e+103
-1.1572388e+103
-1.1569086e+103
-1.1560101e+103
-1.154372e+103
-1.1533425e+103
-1.154889e+103
-1.1531895e+103
-1.1523019e+103
-1.152379e+103
-1.1536542e+103
-1.153858e+103
-1.1540653e+103
-1.1539101e+103
-1.1541295e+103
-1.152771e+103
-1.1532778e+103
-1.1534572e+103
-1.1525647e+103
-1.153312e+103
-1.1518589e+103
-1.151177e+103
-1.1525893e+103
-1.1637203e+103
-1.1597027e+103
-1.1633183e+103
-1.1598212e+103
-1.1722571e+103
-1.1686419e+103
-1.1682922e+103
-1.1716468e+103
-1.1587646e+103
-1.1625901e+103
-1.1617512e+103
-1.1581104e+103
-1.1666984e+103
-1.1673641e+103
-1.1706581e+103
-1.1543957e+103
-1.1551193e+103
-1.15768e+103
-1.1585852e+103
-1.1564668e+103
-1.1571258e+103
-1.1605173e+103
-1.159767e+103
-1.1645309e+103
-1.165282e+103
-1.1531695e+103
-1.1528182e+103
-1.1523047e+103
-1.1521193e+103
-1.1497206e+103
-1.1518109e+103
-1.1503163e+103
-1.1510982e+103
-1.1491819e+103
-1.1481621e+103
-1.147289e+103
-1.1483261e+103
-1.1510942e+103
-1.1527922e+103
-1.1510663e+103
-1.1494582e+103
-1.1053952e+103
-1.100945e+103
-1.1061089e+103
-1.1008513e+103
-1.153842e+103
-1.148875e+103
-1.1466604e+103
-1.1463107e+103
-1.1498381e+103
-1.161246e+103
-1.1577581e+103
-1.149592e+103
-1.1484094e+103
-1.1560249e+103
-1.1566753e+103
-1.1471188e+103
-1.1526647e+103
-1.1557487e+103
-1.1465693e+103
-1.1455853e+103
-1.1531935e+103
-1.1517399e+103
-1.1443628e+103
-1.143158e+103
-1.0995235e+103
-1.1448851e+103
-1.1414497e+103
-1.1423863e+103
-1.1525756e+103
-1.1488859e+103
-1.1415653e+103
-1.1397907e+103
-1.1471332e+103
-1.1475547e+103
-1.1384252e+103
-1.1020398e+103
-1.0997127e+103
-1.1020757e+103
-1.1529593e+103
-1.1544212e+103
-1.1521392e+103
-1.1533757e+103
-1.15534e+103
-1.1560612e+103
-1.1546244e+103
-1.1548494e+103
-1.1507406e+103
-1.1509145e+103
-1.1501557e+103
-1.1502829e+103
-1.1493557e+103
-1.1492505e+103
-1.1482273e+103
-1.1483846e+103
-1.1521288e+103
-1.1531241e+103
-1.1565223e+103
-1.1554985e+103
-1.1542378e+103
-1.1550993e+103
-1.1586871e+103
-1.1576676e+103
-1.161583e+103
-1.1593026e+103
-1.1603994e+103
-1.1639972e+103
-1.1628343e+103
-1.1471181e+103
-1.1480395e+103
-1.1515578e+103
-1.1505576e+103
-1.1495038e+103
-1.1507729e+103
-1.1541746e+103
-1.1531063e+103
-1.1613174e+103
-1.1579323e+103
-1.1568787e+103
-1.1599689e+103
-1.1585779e+103
-1.1554167e+103
-1.1543414e+103
-1.1574432e+103
-1.1515803e+103
-1.1522275e+103
-1.1508943e+103
-1.1504539e+103
-1.147177e+103
-1.1471018e+103
-1.1459074e+103
-1.1463973e+103
-1.1493242e+103
-1.1508878e+103
-1.1495793e+103
-1.1481677e+103
-1.143914e+103
-1.1455293e+103
-1.1446964e+103
-1.1435875e+103
-1.1453539e+103
-1.1464095e+103
-1.1452758e+103
-1.1440546e+103
-1.147454e+103
-1.1481156e+103
-1.1468083e+103
-1.1462824e+103
-1.1423898e+103
-1.1426422e+103
-1.141832e+103
-1.1414043e+103
-1.1395941e+103
-1.1407567e+103
-1.140173e+103
-1.1391264e+103
-1.1559821e+103
-1.1528792e+103
-1.1514329e+103
-1.1545122e+103
-1.1491249e+103
-1.1460148e+103
-1.1447823e+103
-1.1478568e+103
-1.1530009e+103
-1.1499055e+103
-1.1484664e+103
-1.1464339e+103
-1.143446e+103
-1.142365e+103
-1.1452433e+103
-1.0641071e+103
-1.0747835e+103
-1.0751235e+103
-1.0775421e+103
-1.0772446e+103
-1.0860248e+103
-1.0716172e+103
-1.0704263e+103
-1.0845964e+103
-1.0661296e+103
-1.0656372e+103
-1.1185174e+103
-1.1178706e+103
-1.0702065e+103
-1.1097802e+103
-1.0713087e+103
-1.1101778e+103
-1.1136409e+103
-1.072686e+103
-1.074177e+103
-1.1154677e+103
-1.2871158e+103
-1.2869253e+103
-1.26178e+103
-1.2623429e+103
-1.2698478e+103
-1.2707842e+103
-1.31664e+103
-1.2835958e+103
-1.2519678e+103
-1.3147547e+103
-1.2819037e+103
-1.2498587e+103
-1.2215585e+103
-1.2205282e+103
-1.2210148e+103
-1.2667789e+103
-1.2686224e+103
-1.2941645e+103
-1.2912619e+103
-1.2221285e+103
-1.2711749e+103
-1.2974337e+103
-1.2962353e+103
-1.2702258e+103
-1.3118107e+103
-1.2787302e+103
-1.2475728e+103
-1.2110169e+103
-1.3082486e+103
-1.275062e+103
-1.2447308e+103
-1.2086902e+103
-1.1761867e+103
-1.1774627e+103
-1.1756683e+103
-1.2385038e+103
-1.2177141e+103
-1.2162803e+103
-1.2364762e+103
-1.2788376e+103
-1.28217e+103
-1.1741217e+103
-1.2350454e+103
-1.215291e+103
-1.2123806e+103
-1.2316944e+103
-1.2758778e+103
-1.2714238e+103
-1.2704839e+103
-1.2402789e+103
-1.206913e+103
-1.1634541e+103
-1.2668346e+103
-1.2377823e+103
-1.2059194e+103
-1.1635497e+103
-1.204732e+103
-1.1636061e+103
-1.2042843e+103
-1.1633559e+103
-1.2032894e+103
-1.1615513e+103
-1.2046917e+103
-1.1634702e+103
-1.3056115e+103
-1.307522e+103
-1.3176677e+103
-1.3150141e+103
-1.3326286e+103
-1.3342726e+103
-1.3374402e+103
-1.3360704e+103
-1.3030914e+103
-1.3123158e+103
-1.3090997e+103
-1.3009356e+103
-1.3307508e+103
-1.3291194e+103
-1.3142042e+103
-1.3476231e+103
-1.3462403e+103
-1.3524161e+103
-1.3540003e+103
-1.3110368e+103
-1.3437352e+103
-1.3417211e+103
-1.347787e+103
-1.3502542e+103
-1.3272508e+103
-1.3164719e+103
-1.314949e+103
-1.3254465e+103
-1.348043e+103
-1.3510374e+103
-1.3503121e+103
-1.3472533e+103
-1.3459945e+103
-1.3491379e+103
-1.3474785e+103
-1.3447461e+103
-1.3566105e+103
-1.3539769e+103
-1.3524754e+103
-1.356121e+103
-1.3579605e+103
-1.3587912e+103
-1.355368e+103
-1.313034e+103
-1.3104491e+103
-1.320692e+103
-1.3234736e+103
-1.3433514e+103
-1.3461931e+103
-1.3421884e+103
-1.3406249e+103
-1.3392002e+103
-1.3186648e+103
-1.3529161e+103
-1.3521293e+103
-1.3167517e+103
-1.3491892e+103
-1.3507818e+103
-1.3554059e+103
-1.357073e+103
-1.1106593e+103
-1.1149111e+103
-1.1156919e+103
-1.1114827e+103
-1.0635841e+103
-1.1178311e+103
-1.1157869e+103
-1.1118243e+103
-1.1146392e+103
-1.0364872e+103
-1.0646512e+103
-1.1852516e+103
-1.1856315e+103
-1.1893571e+103
-1.1888453e+103
-1.1891373e+103
-1.1846688e+103
-1.1838977e+103
-1.183214e+103
-1.1824649e+103
-1.1906821e+103
-1.1869533e+103
-1.1864685e+103
-1.1901317e+103
-1.1890586e+103
-1.1878445e+103
-1.1883419e+103
-1.1920289e+103
-1.1915789e+103
-1.0609914e+103
-1.1498763e+103
-1.15226e+103
-1.1505895e+103
-1.1506191e+103
-1.1527749e+103
-1.1512148e+103
-1.1505648e+103
-1.1498968e+103
-1.1509856e+103
-1.1532991e+103
-1.1131555e+103
-1.1145712e+103
-1.0602581e+103
-1.1573116e+103
-1.1586153e+103
-1.160429e+103
-1.1590505e+103
-1.1609269e+103
-1.1633423e+103
-1.1562518e+103
-1.1568002e+103
-1.1578303e+103
-1.1574013e+103
-1.1566188e+103
-1.1571558e+103
-1.1578402e+103
-1.1586364e+103
-1.160192e+103
-1.15943e+103
-1.1627833e+103
-1.1629585e+103
-1.1622792e+103
-1.1592542e+103
-1.1591747e+103
-1.1618628e+103
-1.1737593e+103
-1.1695208e+103
-1.169398e+103
-1.1734364e+103
-1.1683577e+103
-1.1687166e+103
-1.1729183e+103
-1.1723287e+103
-1.1790801e+103
-1.1826782e+103
-1.1819883e+103
-1.17837e+103
-1.1779223e+103
-1.181628e+103
-1.1714088e+103
-1.1677752e+103
-1.1673172e+103
-1.1710358e+103
-1.165636e+103
-1.1664635e+103
-1.170276e+103
-1.1696448e+103
-1.1766143e+103
-1.1770617e+103
-1.180936e+103
-1.1801403e+103
-1.1793117e+103
-1.1757887e+103
-1.1752431e+103
-1.1789164e+103
-1.1562872e+103
-1.1571669e+103
-1.1564692e+103
-1.1558659e+103
-1.156403e+103
-1.1566726e+103
-1.1567816e+103
-1.1573521e+103
-1.1610928e+103
-1.1580034e+103
-1.1584377e+103
-1.1609516e+103
-1.1600276e+103
-1.1572294e+103
-1.1567493e+103
-1.159004e+103
-1.1608656e+103
-1.1666562e+103
-1.1551285e+103
-1.1554361e+103
-1.164105e+103
-1.1642175e+103
-1.1629532e+103
-1.1545239e+103
-1.1536551e+103
-1.1568694e+103
-1.1109185e+103
-1.1063522e+103
-1.155312e+103
-1.1558465e+103
-1.1541382e+103
-1.1639534e+103
-1.1613971e+103
-1.153735e+103
-1.1531573e+103
-1.1610426e+103
-1.1629914e+103
-1.1523831e+103
-1.1041775e+103
-1.1062053e+103
-1.1050826e+103
-1.1070288e+103
-1.15526e+103
-1.1527206e+103
-1.152175e+103
-1.1545878e+103
-1.1093758e+103
-1.1053447e+103
-1.1604015e+103
-1.1630961e+103
-1.152478e+103
-1.152446e+103
-1.151719e+103
-1.1596137e+103
-1.1609799e+103
-1.1513351e+103
-1.1507679e+103
-1.1588435e+103
-1.1613888e+103
-1.1499636e+103
-1.1608118e+103
-1.1513721e+103
-1.1513134e+103
-1.1585092e+103
-1.1617945e+103
-1.1609507e+103
-1.1608875e+103
-1.1616998e+103
-1.1637714e+103
-1.1635702e+103
-1.1631773e+103
-1.1638333e+103
-1.1617737e+103
-1.1626596e+103
-1.1632973e+103
-1.1626898e+103
-1.1613432e+103
-1.1607179e+103
-1.1601747e+103
-1.1609168e+103
-1.1796983e+103
-1.1755077e+103
-1.1747681e+103
-1.1789623e+103
-1.171026e+103
-1.1673133e+103
-1.1665529e+103
-1.1703496e+103
-1.1654319e+103
-1.1660474e+103
-1.1698875e+103
-1.169382e+103
-1.1783408e+103
-1.1742619e+103
-1.1738356e+103
-1.1777353e+103
-1.1770175e+103
-1.1734126e+103
-1.1722443e+103
-1.1760971e+103
-1.1686831e+103
-1.1647256e+103
-1.1640672e+103
-1.1679616e+103
-1.1625256e+103
-1.1631729e+103
-1.1673201e+103
-1.1663803e+103
-1.1752045e+103
-1.1715807e+103
-1.1707112e+103
-1.1745588e+103
-1.16047e+103
-1.1610899e+103
-1.1616978e+103
-1.1610044e+103
-1.1613028e+103
-1.161546e+103
-1.1620731e+103
-1.1622941e+103
-1.1591904e+103
-1.1594758e+103
-1.1603711e+103
-1.1597492e+103
-1.1588107e+103
-1.1584766e+103
-1.1577007e+103
-1.1581272e+103
-1.1571715e+103
-1.1567907e+103
-1.1566368e+103
-1.1570591e+103
-1.1599481e+103
-1.1599181e+103
-1.1595786e+103
-1.1600273e+103
-1.1590254e+103
-1.1591934e+103
-1.1595532e+103
-1.159226e+103
-1.1563093e+103
-1.1560609e+103
-1.1553447e+103
-1.1556437e+103
-1.1656147e+103
-1.162202e+103
-1.1648e+103
-1.1613972e+103
-1.173833e+103
-1.1699676e+103
-1.1691806e+103
-1.1730435e+103
-1.1606033e+103
-1.1642343e+103
-1.1635444e+103
-1.1598568e+103
-1.1676662e+103
-1.1683766e+103
-1.1722116e+103
-1.1561107e+103
-1.1573475e+103
-1.1597969e+103
-1.1608116e+103
-1.1580339e+103
-1.158846e+103
-1.1627336e+103
-1.1615462e+103
-1.1655501e+103
-1.1667363e+103
-1.158751e+103
-1.1586789e+103
-1.1585735e+103
-1.1581849e+103
-1.1539354e+103
-1.1547317e+103
-1.1545684e+103
-1.1539683e+103
-1.1526348e+103
-1.1524983e+103
-1.1516332e+103
-1.1519709e+103
-1.1569331e+103
-1.1584407e+103
-1.1575421e+103
-1.1560824e+103
-1.1473592e+103
-1.1508969e+103
-1.1463686e+103
-1.1429731e+103
-1.1452426e+103
-1.1458594e+103
-1.1415682e+103
-1.14102e+103
-1.137798e+103
-1.1418263e+103
-1.146472e+103
-1.1417527e+103
-1.1362094e+103
-1.1361679e+103
-1.1398256e+103
-1.1397002e+103
-1.1670544e+103
-1.1642544e+103
-1.163131e+103
-1.1631916e+103
-1.1627289e+103
-1.159912e+103
-1.1587798e+103
-1.159561e+103
-1.1550046e+103
-1.1539125e+103
-1.1533223e+103
-1.1521756e+103
-1.1517055e+103
-1.1503402e+103
-1.1492804e+103
-1.148436e+103
-1.1356165e+103
-1.1331199e+103
-1.1388631e+103
-1.1359244e+103
-1.1594074e+103
-1.1564854e+103
-1.1548358e+103
-1.1548953e+103
-1.1475916e+103
-1.1464574e+103
-1.1451699e+103
-1.1444225e+103
-1.1354781e+103
-1.1326276e+103
-1.1453398e+103
-1.1439921e+103
-1.1391742e+103
-1.1407251e+103
-1.1447385e+103
-1.1473302e+103
-1.1416086e+103
-1.1387767e+103
-1.1586332e+103
-1.1589252e+103
-1.1580865e+103
-1.157483e+103
-1.1595161e+103
-1.1605558e+103
-1.1596382e+103
-1.1594751e+103
-1.1541017e+103
-1.1586887e+103
-1.1579384e+103
-1.1533679e+103
-1.1553412e+103
-1.1602267e+103
-1.1591651e+103
-1.1547713e+103
-1.1612544e+103
-1.1604177e+103
-1.1620714e+103
-1.1599515e+103
-1.1627136e+103
-1.1614843e+103
-1.162297e+103
-1.1609268e+103
-1.1616845e+103
-1.160935e+103
-1.1561221e+103
-1.155887e+103
-1.1618191e+103
-1.1560731e+103
-1.1559564e+103
-1.1619703e+103
-1.1534244e+103
-1.1537124e+103
-1.1537235e+103
-1.1534545e+103
-1.1547693e+103
-1.1550584e+103
-1.1560785e+103
-1.155757e+103
-1.1538776e+103
-1.1542716e+103
-1.1552568e+103
-1.1547374e+103
-1.1528491e+103
-1.1532129e+103
-1.1530777e+103
-1.1527089e+103
-1.1521535e+103
-1.1524116e+103
-1.152047e+103
-1.1518808e+103
-1.1528809e+103
-1.1532349e+103
-1.1541849e+103
-1.1537109e+103
-1.1517196e+103
-1.1522129e+103
-1.1530237e+103
-1.1524796e+103
-1.1508506e+103
-1.1515014e+103
-1.1512657e+103
-1.150708e+103
-1.1545442e+103
-1.1551027e+103
-1.156037e+103
-1.1554491e+103
-1.1557196e+103
-1.1561635e+103
-1.1571716e+103
-1.156667e+103
-1.160232e+103
-1.1591316e+103
-1.1586342e+103
-1.1596881e+103
-1.15899e+103
-1.1579277e+103
-1.1573885e+103
-1.1583657e+103
-1.1568606e+103
-1.1573964e+103
-1.1583925e+103
-1.1578312e+103
-1.1592248e+103
-1.15814e+103
-1.1578856e+103
-1.158884e+103
-1.1623831e+103
-1.161288e+103
-1.1609239e+103
-1.162005e+103
-1.1614723e+103
-1.1603401e+103
-1.1597927e+103
-1.1609052e+103
-1.1630249e+103
-1.1635725e+103
-1.1647979e+103
-1.1642217e+103
-1.1604227e+103
-1.1610739e+103
-1.1622914e+103
-1.1615958e+103
-1.1635319e+103
-1.1623406e+103
-1.1618208e+103
-1.1629898e+103
-1.1669782e+103
-1.1656552e+103
-1.1651102e+103
-1.1664099e+103
-1.1656887e+103
-1.1643738e+103
-1.1637325e+103
-1.1650214e+103
-1.1495862e+103
-1.1500299e+103
-1.151036e+103
-1.1504899e+103
-1.1507688e+103
-1.1512358e+103
-1.1522144e+103
-1.1517438e+103
-1.1552055e+103
-1.1542573e+103
-1.153782e+103
-1.1547282e+103
-1.1540193e+103
-1.1530377e+103
-1.1525353e+103
-1.1535181e+103
-1.1520004e+103
-1.152598e+103
-1.1534806e+103
-1.1528507e+103
-1.1546705e+103
-1.1537904e+103
-1.153279e+103
-1.1541686e+103
-1.1576743e+103
-1.1566827e+103
-1.1561347e+103
-1.1570294e+103
-1.1564369e+103
-1.1555651e+103
-1.1550312e+103
-1.1558933e+103
-1.1641458e+103
-1.1628856e+103
-1.162247e+103
-1.1634981e+103
-1.1607949e+103
-1.1596078e+103
-1.1590164e+103
-1.1601476e+103
-1.157753e+103
-1.1582639e+103
-1.1595003e+103
-1.1588979e+103
-1.1628387e+103
-1.161497e+103
-1.1609377e+103
-1.1622358e+103
-1.1613984e+103
-1.1601848e+103
-1.1596539e+103
-1.1608173e+103
-1.15822e+103
-1.1571078e+103
-1.1566688e+103
-1.1577107e+103
-1.1554564e+103
-1.1559333e+103
-1.1570106e+103
-1.1564313e+103
-1.160046e+103
-1.1588666e+103
-1.1583085e+103
-1.159404e+103
-1.1559942e+103
-1.1572039e+103
-1.1565036e+103
-1.1567442e+103
-1.1574573e+103
-1.1571049e+103
-1.1574596e+103
-1.1571732e+103
-1.1525965e+103
-1.1567341e+103
-1.1566845e+103
-1.1521553e+103
-1.1519321e+103
-1.1566033e+103
-1.1557883e+103
-1.1511235e+103
-1.1500946e+103
-1.150278e+103
-1.1499357e+103
-1.1497504e+103
-1.1506123e+103
-1.1510532e+103
-1.1519028e+103
-1.1513384e+103
-1.1493533e+103
-1.1499063e+103
-1.1506357e+103
-1.1500068e+103
-1.1488827e+103
-1.1493826e+103
-1.1491553e+103
-1.1486011e+103
-1.1501859e+103
-1.1553467e+103
-1.1550302e+103
-1.1496121e+103
-1.1562204e+103
-1.1559406e+103
-1.1559742e+103
-1.1562134e+103
-1.1550888e+103
-1.1555696e+103
-1.1545908e+103
-1.1544237e+103
-1.1537394e+103
-1.1491448e+103
-1.1544291e+103
-1.1484302e+103
-1.1460167e+103
-1.1468251e+103
-1.1466427e+103
-1.1458771e+103
-1.1479666e+103
-1.1483276e+103
-1.147685e+103
-1.1474997e+103
-1.1481547e+103
-1.1485557e+103
-1.1493881e+103
-1.1488926e+103
-1.1469208e+103
-1.1474159e+103
-1.1481989e+103
-1.1476925e+103
-1.1502118e+103
-1.1505727e+103
-1.1503222e+103
-1.1513903e+103
-1.1518119e+103
-1.1511613e+103
-1.1525546e+103
-1.1522208e+103
-1.1514309e+103
-1.1464939e+103
-1.1517071e+103
-1.1460302e+103
-1.1450913e+103
-1.1504109e+103
-1.1496563e+103
-1.1445598e+103
-1.1528038e+103
-1.1533306e+103
-1.1528369e+103
-1.1533055e+103
-1.1535739e+103
-1.1532251e+103
-1.1539525e+103
-1.1538925e+103
-1.1478441e+103
-1.1532502e+103
-1.1531434e+103
-1.1478808e+103
-1.1518079e+103
-1.1526348e+103
-1.1475592e+103
-1.1469799e+103
-1.1457559e+103
-1.1461407e+103
-1.1469973e+103
-1.146553e+103
-1.1450916e+103
-1.1453243e+103
-1.1450407e+103
-1.1447754e+103
-1.1442028e+103
-1.1445244e+103
-1.1440287e+103
-1.1437698e+103
-1.1446452e+103
-1.1451738e+103
-1.1460364e+103
-1.1453761e+103
-1.1416322e+103
-1.1421023e+103
-1.1417775e+103
-1.141291e+103
-1.1429387e+103
-1.1433733e+103
-1.1430363e+103
-1.1425257e+103
-1.1433346e+103
-1.1437828e+103
-1.1445997e+103
-1.1440707e+103
-1.1421603e+103
-1.142572e+103
-1.1433333e+103
-1.1428175e+103
-1.158421e+103
-1.1573826e+103
-1.1568032e+103
-1.1577685e+103
-1.1555837e+103
-1.1546974e+103
-1.154158e+103
-1.1549977e+103
-1.1528242e+103
-1.153408e+103
-1.1543089e+103
-1.1536925e+103
-1.1570918e+103
-1.1560778e+103
-1.1554912e+103
-1.1564581e+103
-1.1527022e+103
-1.1517242e+103
-1.1511778e+103
-1.1521409e+103
-1.1498974e+103
-1.1490114e+103
-1.1485147e+103
-1.1493866e+103
-1.1472083e+103
-1.1478052e+103
-1.1487659e+103
-1.1481423e+103
-1.1515551e+103
-1.1505423e+103
-1.1499728e+103
-1.1509375e+103
-1.1555039e+103
-1.1545855e+103
-1.1539738e+103
-1.1548704e+103
-1.1528089e+103
-1.1519709e+103
-1.1512789e+103
-1.1521214e+103
-1.149606e+103
-1.1503034e+103
-1.1512656e+103
-1.1505689e+103
-1.1500647e+103
-1.1491061e+103
-1.1485156e+103
-1.1494073e+103
-1.1458813e+103
-1.1463951e+103
-1.1473688e+103
-1.1467714e+103
-1.1445739e+103
-1.1450715e+103
-1.1459677e+103
-1.1453337e+103
-1.1485486e+103
-1.1476323e+103
-1.1470488e+103
-1.1478433e+103
-1.0641494e+103
-1.0782734e+103
-1.0749068e+103
-1.0750026e+103
-1.0781494e+103
-1.0880669e+103
-1.0732534e+103
-1.07249e+103
-1.0870232e+103
-1.0689463e+103
-1.0692699e+103
-1.0635176e+103
-1.0672522e+103
-1.0634875e+103
-1.0665523e+103
-1.1296367e+103
-1.1200727e+103
-1.1188729e+103
-1.1281172e+103
-1.0707063e+103
-1.1095988e+103
-1.0708533e+103
-1.1099838e+103
-1.0714761e+103
-1.11406e+103
-1.1147447e+103
-1.0726566e+103
-1.1141967e+103
-1.0728125e+103
-1.0743228e+103
-1.1160753e+103
-1.2844892e+103
-1.2539344e+103
-1.2846475e+103
-1.2531758e+103
-1.222449e+103
-1.2219429e+103
-1.2231576e+103
-1.2716849e+103
-1.273448e+103
-1.2999972e+103
-1.2983583e+103
-1.2228133e+103
-1.2739409e+103
-1.3004817e+103
-1.3005695e+103
-1.2738302e+103
-1.3166418e+103
-1.2834477e+103
-1.2514181e+103
-1.213693e+103
-1.3147567e+103
-1.2817533e+103
-1.2496498e+103
-1.2122584e+103
-1.1786897e+103
-1.1781911e+103
-1.1764636e+103
-1.2195258e+103
-1.2421389e+103
-1.2400455e+103
-1.2188103e+103
-1.2849741e+103
-1.286723e+103
-1.1767362e+103
-1.220102e+103
-1.2200181e+103
-1.2431205e+103
-1.2439056e+103
-1.289671e+103
-1.2884548e+103
-1.2787229e+103
-1.2472269e+103
-1.2114952e+103
-1.166513e+103
-1.2750527e+103
-1.2443629e+103
-1.2093281e+103
-1.1653745e+103
-1.1957092e+103
-1.1963438e+103
-1.1724725e+103
-1.1731553e+103
-1.2503022e+103
-1.2228246e+103
-1.2210227e+103
-1.2479967e+103
-1.2827814e+103
-1.284183e+103
-1.2981937e+103
-1.2960448e+103
-1.2871541e+103
-1.2856238e+103
-1.2999127e+103
-1.3013008e+103
-1.192835e+103
-1.1945804e+103
-1.1714209e+103
-1.1716541e+103
-1.2457183e+103
-1.2198302e+103
-1.217399e+103
-1.2429369e+103
-1.2791429e+103
-1.280812e+103
-1.2938113e+103
-1.2919092e+103
-1.2771346e+103
-1.2750424e+103
-1.2874579e+103
-1.2897807e+103
-1.2402231e+103
-1.2070086e+103
-1.1637827e+103
-1.2377107e+103
-1.2061693e+103
-1.1643578e+103
-1.2046943e+103
-1.1638248e+103
-1.2042744e+103
-1.1633515e+103
-1.1615516e+103
-1.1634798e+103
-1.310854e+103
-1.3160844e+103
-1.3147123e+103
-1.309815e+103
-1.3185186e+103
-1.313313e+103
-1.3121255e+103
-1.3173421e+103
-1.324426e+103
-1.3255542e+103
-1.3305272e+103
-1.3292156e+103
-1.3228542e+103
-1.3214985e+103
-1.3259736e+103
-1.3276299e+103
-1.3362157e+103
-1.337272e+103
-1.3355487e+103
-1.3347003e+103
-1.3382107e+103
-1.3387887e+103
-1.3370844e+103
-1.3365349e+103
-1.3402286e+103
-1.3398116e+103
-1.341657e+103
-1.3420491e+103
-1.3389251e+103
-1.3397294e+103
-1.3408299e+103
-1.338052e+103
-1.3084371e+103
-1.3073389e+103
-1.3121089e+103
-1.3133386e+103
-1.3243666e+103
-1.3198941e+103
-1.3185948e+103
-1.3228466e+103
-1.3210399e+103
-1.3169649e+103
-1.3060406e+103
-1.3048543e+103
-1.3092591e+103
-1.3107857e+103
-1.3330167e+103
-1.3335584e+103
-1.3351426e+103
-1.3345913e+103
-1.3320347e+103
-1.3336353e+103
-1.332474e+103
-1.3310938e+103
-1.3233849e+103
-1.3349289e+103
-1.3334499e+103
-1.3221641e+103
-1.3561776e+103
-1.3593585e+103
-1.3588199e+103
-1.3555646e+103
-1.3535481e+103
-1.3544829e+103
-1.3578746e+103
-1.3566873e+103
-1.3619005e+103
-1.3629404e+103
-1.36458e+103
-1.3657741e+103
-1.366816e+103
-1.3673123e+103
-1.3645819e+103
-1.3640648e+103
-1.3196806e+103
-1.3311691e+103
-1.329103e+103
-1.318274e+103
-1.3524893e+103
-1.3556325e+103
-1.3548574e+103
-1.3516878e+103
-1.3504128e+103
-1.3537127e+103
-1.3522062e+103
-1.3492872e+103
-1.3573395e+103
-1.3587032e+103
-1.3615701e+103
-1.3599665e+103
-1.3608328e+103
-1.3628423e+103
-1.3635853e+103
-1.3600706e+103
-1.3351969e+103
-1.3344224e+103
-1.3397449e+103
-1.3404892e+103
-1.3268575e+103
-1.3275812e+103
-1.3218252e+103
-1.3211598e+103
-1.3201461e+103
-1.3258857e+103
-1.3247583e+103
-1.319279e+103
-1.3332324e+103
-1.3322016e+103
-1.3373568e+103
-1.3386501e+103
-1.3508134e+103
-1.3506238e+103
-1.3527408e+103
-1.352876e+103
-1.3554794e+103
-1.3578821e+103
-1.3579505e+103
-1.3553688e+103
-1.3573012e+103
-1.3546488e+103
-1.3562785e+103
-1.3538497e+103
-1.3500226e+103
-1.3521849e+103
-1.3513712e+103
-1.349404e+103
-1.3487138e+103
-1.348434e+103
-1.3504852e+103
-1.3507261e+103
-1.3531829e+103
-1.3556887e+103
-1.3555417e+103
-1.3529427e+103
-1.3547718e+103
-1.3521604e+103
-1.3511905e+103
-1.3535678e+103
-1.3476965e+103
-1.3498101e+103
-1.3488272e+103
-1.3469778e+103
-1.3637064e+103
-1.3630079e+103
-1.3633259e+103
-1.3634759e+103
-1.36049e+103
-1.3588687e+103
-1.3586032e+103
-1.3603011e+103
-1.3577775e+103
-1.3595226e+103
-1.3583036e+103
-1.35678e+103
-1.3628494e+103
-1.3611843e+103
-1.3611105e+103
-1.3628854e+103
-1.3649678e+103
-1.3655943e+103
-1.3644976e+103
-1.3640958e+103
-1.3658167e+103
-1.3657351e+103
-1.3663339e+103
-1.3663415e+103
-1.360442e+103
-1.3622699e+103
-1.3612122e+103
-1.359585e+103
-1.3181911e+103
-1.3236796e+103
-1.3226623e+103
-1.3172096e+103
-1.315796e+103
-1.3213249e+103
-1.3199723e+103
-1.3147517e+103
-1.3284596e+103