/*--------------------------------*- C++ -*----------------------------------*\
  =========                 |
  \\      /  F ield         | OpenFOAM: The Open Source CFD Toolbox
   \\    /   O peration     | Website:  https://openfoam.org
    \\  /    A nd           | Version:  7
     \\/     M anipulation  |
\*---------------------------------------------------------------------------*/
FoamFile
{
    version     2.0;
    format      ascii;
    class       volVectorField;
    location    "9000";
    object      U;
}
// * * * * * * * * * * * * * * * * * * * * * * * * * * * * * * * * * * * * * //

dimensions      [0 1 -1 0 0 0 0];

internalField   nonuniform List<vector> 
34158
(
(-3.5048858e+52 2.0456742e+51 8.7133406e+50)
(-3.5512033e+52 -3.3703677e+50 -1.4694112e+50)
(-3.5225603e+52 1.3058795e+51 -7.8946927e+50)
(-3.4743738e+52 -1.646942e+51 -1.470303e+51)
(-3.5122496e+52 -1.2569661e+50 1.2217011e+51)
(-3.512957e+52 1.0560668e+51 1.7709507e+51)
(-3.5927672e+52 7.744339e+50 2.2223e+51)
(-3.6363447e+52 8.2333218e+50 1.0813665e+51)
(-2.976857e+52 -6.4173714e+50 -1.1577426e+51)
(-3.0423673e+52 1.089968e+51 -1.8119565e+51)
(-3.4028831e+52 -1.406505e+51 5.3741163e+50)
(-3.4781758e+52 5.3965518e+49 9.0021545e+50)
(-3.6623189e+52 2.7317735e+50 1.246133e+50)
(-3.669367e+52 -1.5593456e+50 -6.7000477e+50)
(-3.3707459e+52 1.6683601e+49 5.5107341e+50)
(-3.4677779e+52 3.3310163e+50 6.7733423e+50)
(-3.3757713e+52 3.7109327e+50 8.0480804e+50)
(-3.4748726e+52 3.5124627e+50 1.2405043e+51)
(-3.6342739e+52 2.1975239e+50 1.6853655e+51)
(-3.6726419e+52 5.3626508e+50 1.0519993e+51)
(-3.5443273e+52 -5.8786351e+50 1.3271497e+51)
(-3.5134142e+52 -7.6727231e+50 1.3459417e+51)
(-3.2284086e+52 -8.3613931e+50 -9.4571627e+50)
(-3.0215179e+52 8.8836523e+50 -7.9159256e+50)
(-2.5321776e+52 -1.1208525e+51 -7.1540613e+51)
(-3.6987319e+52 -4.2059697e+50 3.5431145e+51)
(-3.7332759e+52 -1.7686857e+51 3.4712509e+51)
(-2.5368335e+52 -2.6341705e+51 -7.179836e+51)
(-2.268018e+52 6.1038907e+50 2.5771549e+50)
(-2.6662247e+52 2.9213562e+51 2.1818907e+51)
(-2.674902e+52 1.7430627e+51 2.2736704e+51)
(-2.2415306e+52 1.44991e+51 4.6282671e+49)
(-2.2201621e+52 1.0147723e+51 -3.0377027e+49)
(-2.5844974e+52 3.3422673e+51 2.0471069e+51)
(-2.8594953e+52 4.0384767e+50 3.3597388e+51)
(-2.8223945e+52 -2.1985678e+51 3.287438e+51)
(-3.6060869e+52 -9.3392441e+50 -1.4087681e+51)
(-3.6256746e+52 -8.0990929e+50 -1.1288331e+51)
(-3.2543778e+52 -1.1149304e+51 4.4529518e+50)
(-3.436475e+52 -6.2829236e+50 -2.1447122e+50)
(-3.3115387e+52 -6.1063978e+50 5.1439597e+50)
(-3.4770836e+52 -2.5240457e+50 2.3134592e+50)
(-3.7146286e+52 1.0272182e+50 3.8406985e+50)
(-3.7159015e+52 -2.2151902e+50 -1.0787099e+50)
(-3.9060562e+52 1.0762701e+51 -1.1313488e+51)
(-3.8720967e+52 1.2522135e+51 -5.7007324e+50)
(-3.2515027e+52 1.8369568e+50 8.2152187e+50)
(-3.3102571e+52 3.5726986e+48 7.012736e+50)
(-3.4850522e+52 2.9562864e+50 7.5496544e+50)
(-3.2942935e+52 4.7736564e+50 1.0439066e+51)
(-3.3077931e+52 1.5580221e+50 1.0083834e+51)
(-3.4815887e+52 2.3912672e+49 1.1799419e+51)
(-3.6491073e+52 -3.4974445e+50 1.5418939e+51)
(-3.6855192e+52 1.617416e+50 1.2209847e+51)
(-3.5265032e+52 -7.8577769e+50 1.4189094e+51)
(-3.5496816e+52 -6.0847793e+50 1.3936172e+51)
(-3.4290478e+52 -3.3845013e+50 6.4031619e+50)
(-3.3895089e+52 -6.2288652e+50 8.1738646e+50)
(-3.4195758e+52 -1.0380545e+51 6.5162272e+50)
(-3.3958056e+52 -7.7973256e+50 7.3318984e+50)
(-4.0312359e+52 -2.0874583e+51 -5.9479496e+51)
(-3.2956856e+52 -6.1041579e+49 -9.4177863e+50)
(-3.686306e+52 -2.0521583e+50 3.6952717e+51)
(-2.5376437e+52 -2.5807213e+51 -7.0497261e+51)
(-2.5449198e+52 -1.1753994e+51 -6.8569806e+51)
(-3.6913405e+52 -1.239909e+51 3.6869072e+51)
(-2.4810284e+52 -4.3739269e+49 4.5777056e+49)
(-2.9113217e+52 1.7814765e+51 2.2047606e+51)
(-2.8523315e+52 4.8743791e+50 2.1688922e+51)
(-2.4068556e+52 5.5031784e+50 1.8558507e+50)
(-2.3647913e+52 3.7356736e+50 1.4040196e+50)
(-2.7728484e+52 2.2305545e+51 1.9201867e+51)
(-2.7686674e+52 1.0932344e+51 2.1622951e+51)
(-2.3303624e+52 1.1794915e+51 1.2577458e+50)
(-2.921037e+52 -3.7562867e+50 -2.3383658e+51)
(-2.7041772e+52 7.9206174e+49 4.6224587e+51)
(-2.7275656e+52 -4.3940126e+50 4.2837845e+51)
(-1.8885877e+52 -1.1313182e+51 -3.7467822e+51)
(-1.8717821e+52 -2.2810336e+51 -4.0510903e+51)
(-1.871683e+52 1.7873107e+50 -4.2129805e+51)
(-2.763429e+52 4.401962e+50 4.1409078e+51)
(-2.9355191e+52 -3.2219259e+51 -2.4282221e+51)
(-2.042484e+52 1.8521465e+51 -7.9407034e+50)
(-2.0320972e+52 1.2322731e+51 -8.3776788e+50)
(-2.4175378e+52 2.9194867e+51 1.2649712e+51)
(-2.4444996e+52 2.153993e+51 1.4540377e+51)
(-2.2026265e+52 3.2580009e+51 -2.4081269e+51)
(-2.2223874e+52 2.5549463e+51 -2.4085638e+51)
(-2.3743409e+52 3.0283439e+51 -1.962469e+50)
(-2.1432461e+52 3.4762477e+51 -2.4023739e+51)
(-2.1684614e+52 2.7323604e+51 -2.3668049e+51)
(-2.3294275e+52 3.7892072e+51 -3.2237148e+50)
(-2.3279652e+52 3.2204689e+51 7.4447319e+49)
(-2.0184127e+52 1.5385216e+51 -8.2494137e+50)
(-2.3666449e+52 2.9783852e+51 1.1567876e+51)
(-1.9924581e+52 2.2048473e+51 -8.4944967e+50)
(-2.3796851e+52 2.235727e+51 1.3633823e+51)
(-1.935249e+52 2.3166617e+51 -9.6948169e+50)
(-1.9521455e+52 1.6808248e+51 -8.4709943e+50)
(-2.3058921e+52 3.1912069e+51 1.2145825e+51)
(-2.3207739e+52 2.4814133e+51 1.373747e+51)
(-2.209341e+52 3.8518659e+51 -4.3572347e+50)
(-2.1145167e+52 2.9794933e+51 -2.2487143e+51)
(-2.2344366e+52 3.5446072e+51 7.9281242e+49)
(-2.0750159e+52 3.7621396e+51 -2.3169562e+51)
(-2.8726665e+52 1.32786e+50 3.4043449e+51)
(-2.8400097e+52 -2.5321033e+51 3.3412196e+51)
(-3.5817668e+52 -4.4213258e+50 3.5122323e+50)
(-3.4537039e+52 -6.7470619e+50 2.226311e+50)
(-3.3121467e+52 -1.7114449e+51 -3.4771569e+50)
(-3.2947166e+52 -3.380493e+50 -3.2932254e+50)
(-3.3681154e+52 -1.3425462e+51 -7.5901673e+50)
(-3.3861499e+52 -1.1985765e+51 -4.4043249e+50)
(-3.6769756e+52 -1.0801954e+51 -8.8960028e+50)
(-3.6888299e+52 -8.7985346e+50 -5.7553184e+50)
(-3.9534757e+52 3.5123877e+50 -1.6906668e+51)
(-3.9637914e+52 1.1089859e+50 -2.0716965e+51)
(-3.0940842e+52 -8.1402934e+50 7.595918e+50)
(-3.222538e+52 -8.9073398e+50 4.9630163e+50)
(-3.4864614e+52 -4.7845616e+50 -2.5145954e+49)
(-3.1554417e+52 -2.7750581e+50 7.8764207e+50)
(-3.2700249e+52 -4.3234854e+50 5.9678401e+50)
(-3.5040635e+52 -2.0992785e+50 3.5342066e+50)
(-3.6496348e+52 -4.0193834e+50 7.7621789e+50)
(-3.632939e+52 -5.2409159e+50 4.6505364e+50)
(-3.8562398e+52 5.3975482e+50 -4.1374904e+49)
(-3.145307e+52 2.2336874e+51 2.2907163e+51)
(-3.1953863e+52 1.4192087e+51 2.1280257e+51)
(-3.8107452e+52 3.7722953e+50 3.8902684e+50)
(-3.0431344e+52 2.7692576e+51 2.8932041e+51)
(-3.1244938e+52 2.0127465e+51 2.5461523e+51)
(-3.3053202e+52 3.9930367e+50 5.6076872e+50)
(-3.1010859e+52 4.8279178e+49 7.489648e+50)
(-3.3251105e+52 2.3556719e+48 6.3495319e+50)
(-3.4602139e+52 9.1167273e+49 7.0703278e+50)
(-3.3810314e+52 6.2055861e+50 7.2982413e+50)
(-3.0914868e+52 1.8496449e+50 1.0289569e+51)
(-3.3102846e+52 -4.0876523e+49 8.4824016e+50)
(-3.4423061e+52 -3.4723514e+50 1.0437573e+51)
(-3.5458714e+52 -7.8043163e+50 1.2072889e+51)
(-3.5775754e+52 -5.8465886e+50 9.750152e+50)
(-3.3840522e+52 -3.6002038e+50 7.3268306e+50)
(-3.379183e+52 -5.6075866e+50 7.4224941e+50)
(-3.404162e+52 -8.85363e+50 6.2450719e+50)
(-3.4265824e+52 -1.1642956e+51 5.4082499e+50)
(-3.2923288e+52 -3.1975842e+50 3.0366068e+50)
(-3.4037598e+52 -7.4226901e+50 2.8034569e+50)
(-3.2015369e+52 -3.7676647e+50 5.1328232e+50)
(-3.3448789e+52 -6.4090751e+50 4.5330207e+50)
(-3.2952063e+52 2.2135351e+51 -1.8966959e+51)
(-3.2208129e+52 2.5324472e+51 -1.7734973e+51)
(-3.7745944e+52 -2.0942173e+51 1.3788985e+51)
(-4.0085461e+52 -2.2439673e+51 -5.8502714e+51)
(-2.4644965e+52 2.1339982e+51 -2.4778612e+51)
(-3.6878604e+52 -2.1722478e+51 3.7463241e+51)
(-2.5515776e+52 -3.1024962e+51 -6.7807063e+51)
(-2.5784272e+52 -4.0517953e+50 -3.5368601e+50)
(-2.9947159e+52 1.4189649e+51 1.9452663e+51)
(-2.9980883e+52 -4.9158149e+48 2.1448123e+51)
(-2.5571344e+52 2.5606462e+50 -1.8372779e+50)
(-2.9246725e+52 -3.4620202e+50 4.2963039e+51)
(-1.9860681e+52 -1.5597115e+51 -4.0408539e+51)
(-1.9465775e+52 -2.5597401e+51 -4.2447609e+51)
(-2.9280584e+52 -8.115709e+50 4.0983422e+51)
(-2.8932062e+52 -3.0883111e+51 -2.293474e+51)
(-2.8700366e+52 -4.7844079e+50 -2.2827744e+51)
(-2.8242749e+52 3.2472036e+50 4.3218103e+51)
(-2.7718146e+52 -1.4492701e+50 4.4081259e+51)
(-1.9131007e+52 9.588231e+49 -3.865932e+51)
(-1.9274928e+52 -9.0003424e+50 -3.744514e+51)
(-2.5820745e+52 2.0148481e+51 1.1040994e+51)
(-2.1684999e+52 4.1432307e+50 -8.2675815e+50)
(-2.242292e+52 1.1941603e+51 -6.8183057e+50)
(-2.6764748e+52 1.313767e+51 1.5708064e+51)
(-2.5478402e+52 2.4099086e+51 -7.5500783e+50)
(-2.4253816e+52 1.8442944e+51 -2.5255934e+51)
(-2.402479e+52 2.2803062e+51 -2.4354825e+51)
(-2.5612195e+52 1.942873e+51 -4.2607573e+50)
(-2.5642712e+52 2.7036175e+51 -5.1909592e+50)
(-2.3755413e+52 1.765291e+51 -2.8595643e+51)
(-2.3737739e+52 2.6279104e+51 -2.7259778e+51)
(-2.5750922e+52 2.2979896e+51 -3.1531324e+50)
(-2.1922688e+52 1.3166493e+51 -8.9227438e+50)
(-2.1909763e+52 7.5386052e+50 -9.3298843e+50)
(-2.5690861e+52 2.0885533e+51 8.4911217e+50)
(-2.6013737e+52 1.3881582e+51 1.0884448e+51)
(-2.5656866e+52 2.374326e+51 1.2411416e+51)
(-2.1766016e+52 8.7898997e+50 -8.550792e+50)
(-2.1668483e+52 1.5153593e+51 -8.977143e+50)
(-2.5632871e+52 1.6414314e+51 1.1258511e+51)
(-2.4185984e+52 2.1689948e+51 -2.4234095e+51)
(-2.497895e+52 2.8156098e+51 -7.6720659e+50)
(-2.3245656e+52 2.7859107e+51 -2.7920721e+51)
(-2.5015205e+52 2.4894349e+51 -5.6448479e+50)
(-2.3361952e+52 3.0180039e+51 -2.3357774e+51)
(-2.3047741e+52 2.3420118e+51 -2.7560973e+51)
(-2.4674102e+52 3.2717916e+51 -5.4997872e+50)
(-2.1267146e+52 1.1902774e+51 -9.7015049e+50)
(-2.5045734e+52 2.4913984e+51 8.439462e+50)
(-2.5189242e+52 1.7477338e+51 1.3491778e+51)
(-2.0993379e+52 1.7421085e+51 -1.0081408e+51)
(-2.7076556e+52 -5.4337241e+50 6.0865788e+50)
(-2.3448717e+52 -3.8987009e+50 -1.527969e+50)
(-2.3149896e+52 -2.5348931e+51 -2.2822116e+50)
(-2.351003e+52 6.774024e+50 3.6079338e+51)
(-2.3903503e+52 5.4356463e+50 3.419657e+51)
(-1.4550513e+52 -7.8428764e+50 -1.7822917e+51)
(-1.4388495e+52 -1.2294117e+51 -1.9511934e+51)
(-2.3457909e+52 1.2367231e+51 3.3771946e+51)
(-1.4655761e+52 5.833114e+50 -1.9113007e+51)
(-1.4813146e+52 1.937626e+49 -1.9538513e+51)
(-2.3405914e+52 9.6591763e+50 3.3269811e+51)
(-2.3405281e+52 7.0583842e+50 -2.1205342e+50)
(-2.2815027e+52 1.1015047e+51 3.4324194e+51)
(-2.3246119e+52 7.5494822e+50 3.3712269e+51)
(-1.414856e+52 1.3246769e+50 -1.8372435e+51)
(-1.420563e+52 -5.4605295e+50 -2.0061327e+51)
(-2.7082987e+52 -3.3169015e+51 5.5141852e+50)
(-1.8207464e+52 2.4725211e+51 -1.7653917e+51)
(-1.825811e+52 1.6692192e+51 -1.8544897e+51)
(-2.1284874e+52 2.448626e+51 5.943774e+50)
(-2.1315015e+52 2.7947504e+51 5.3201233e+50)
(-1.8225236e+52 2.2133341e+51 -1.9032716e+51)
(-1.8107687e+52 1.4235568e+51 -2.0859458e+51)
(-2.144344e+52 2.3873604e+51 5.9837492e+50)
(-2.1531871e+52 2.7055035e+51 6.2330049e+50)
(-1.957432e+52 2.3633847e+51 -2.0774933e+51)
(-2.1150402e+52 2.8631222e+51 -8.4011551e+50)
(-2.1214878e+52 2.7922259e+51 -6.0196225e+50)
(-1.9311134e+52 3.0424493e+51 -2.2125969e+51)
(-1.9364022e+52 2.4464573e+51 -2.1225997e+51)
(-2.1006447e+52 3.1327818e+51 -7.810571e+50)
(-2.1061132e+52 2.9128716e+51 -5.0006141e+50)
(-1.9193171e+52 3.1318787e+51 -2.1395955e+51)
(-1.9802548e+52 3.350989e+51 -1.8798942e+51)
(-1.9984102e+52 2.840421e+51 -2.0225453e+51)
(-2.1126398e+52 3.364512e+51 -8.3734046e+50)
(-2.1175074e+52 3.0593075e+51 -4.4748933e+50)
(-2.0008746e+52 3.2624528e+51 -1.9772803e+51)
(-2.0156359e+52 2.6747268e+51 -2.0483294e+51)
(-2.1296264e+52 3.0577143e+51 -9.1399793e+50)
(-2.136774e+52 2.9070124e+51 -6.1329891e+50)
(-2.0311579e+52 3.2601838e+51 -1.9440653e+51)
(-2.0084572e+52 3.3783272e+51 -1.8423851e+51)
(-2.0285422e+52 3.0074059e+51 -1.8622733e+51)
(-2.1032007e+52 3.4410919e+51 -1.151218e+51)
(-2.108186e+52 3.1064484e+51 -8.1944236e+50)
(-1.8986659e+52 3.4936367e+51 -1.9715225e+51)
(-1.9396291e+52 3.0461133e+51 -1.9936228e+51)
(-2.0505636e+52 3.554222e+51 -6.2698233e+50)
(-2.042261e+52 3.1791257e+51 -2.6978365e+50)
(-1.9511891e+52 3.522362e+51 -1.9236129e+51)
(-1.9710806e+52 2.9432993e+51 -1.9834112e+51)
(-2.0942751e+52 3.4109887e+51 -6.1137831e+50)
(-2.100443e+52 3.1726524e+51 -1.0021265e+50)
(-2.0743703e+52 3.4155706e+51 -1.0893934e+51)
(-2.007486e+52 3.1220023e+51 -1.736581e+51)
(-1.9819556e+52 3.5161207e+51 -1.8000965e+51)
(-2.0767872e+52 3.1656718e+51 -8.0214795e+50)
(-2.0388742e+52 3.6517583e+51 -1.0269905e+51)
(-1.9660536e+52 3.1777883e+51 -1.7462867e+51)
(-1.9320967e+52 3.4900369e+51 -1.6747993e+51)
(-2.0381848e+52 3.2490036e+51 -6.0167541e+50)
(-1.7949573e+52 2.6250463e+51 -1.7090814e+51)
(-1.806737e+52 1.7191959e+51 -1.7155438e+51)
(-2.100422e+52 2.7788006e+51 4.5571629e+50)
(-2.1115975e+52 2.5807514e+51 6.1341596e+50)
(-1.9224019e+52 2.5631273e+51 -2.0508074e+51)
(-2.0707426e+52 3.1282416e+51 -7.8767201e+50)
(-2.081188e+52 3.0478582e+51 -5.5320225e+50)
(-1.9014444e+52 3.3403447e+51 -2.1819057e+51)
(-2.0653911e+52 2.9215419e+51 4.8295036e+50)
(-1.7706269e+52 2.002662e+51 -1.7367771e+51)
(-1.7498589e+52 2.7391132e+51 -1.7239818e+51)
(-2.0718459e+52 2.5542545e+51 7.9024968e+50)
(-1.850581e+52 3.3237757e+51 -2.0411787e+51)
(-1.8958021e+52 2.7132264e+51 -1.9427882e+51)
(-2.0450009e+52 3.3512337e+51 -7.4495303e+50)
(-2.032572e+52 3.0508375e+51 -4.0430906e+50)
(-1.6861331e+52 2.9173698e+51 -1.4755294e+51)
(-1.6902562e+52 2.1112716e+51 -1.575261e+51)
(-1.9892134e+52 3.0291555e+51 7.7297212e+50)
(-1.9949686e+52 2.7310428e+51 1.0083234e+51)
(-1.7089731e+52 2.7289339e+51 -1.5842353e+51)
(-1.7274377e+52 1.8444058e+51 -1.6415029e+51)
(-2.0459187e+52 2.9729592e+51 8.9405476e+50)
(-2.0257988e+52 2.683031e+51 8.1015339e+50)
(-1.9920038e+52 3.2469779e+51 -6.1208731e+50)
(-1.8484107e+52 2.6848999e+51 -1.8019911e+51)
(-1.8041973e+52 3.428743e+51 -2.0217814e+51)
(-1.9841198e+52 3.1360347e+51 -4.4167661e+50)
(-1.769562e+52 3.560725e+51 -1.8556519e+51)
(-1.7892946e+52 2.7973745e+51 -1.903137e+51)
(-1.9440357e+52 3.4897799e+51 -6.7498974e+50)
(-1.9509979e+52 3.2877109e+51 -2.5165661e+50)
(-2.0035201e+52 3.6020133e+51 -4.9972844e+50)
(-1.9305627e+52 3.243212e+51 -1.4354315e+51)
(-1.8877426e+52 3.6736462e+51 -1.7612134e+51)
(-1.991513e+52 3.3593559e+51 -5.1430828e+50)
(-2.0042667e+52 3.5255503e+51 -5.9815875e+50)
(-1.8999114e+52 3.0912752e+51 -1.7133552e+51)
(-1.8543673e+52 3.5985692e+51 -2.0378449e+51)
(-1.9940037e+52 3.2647615e+51 -4.8454642e+50)
(-1.9587205e+52 3.9135425e+51 -4.4195301e+50)
(-1.875144e+52 3.410631e+51 -1.5797843e+51)
(-1.8462496e+52 3.8094781e+51 -1.6930137e+51)
(-1.9519344e+52 3.5569029e+51 -4.4385375e+50)
(-1.9529054e+52 3.7437631e+51 -6.8498182e+50)
(-1.8436059e+52 3.1871546e+51 -1.9007634e+51)
(-1.8136997e+52 3.7187146e+51 -1.7879794e+51)
(-1.9547722e+52 3.4208955e+51 -2.8057504e+50)
(-4.1040856e+52 -1.7659026e+51 4.8999072e+51)
(-2.8773969e+52 -1.7415366e+50 3.5037956e+51)
(-2.8608647e+52 -2.8311287e+51 3.4355146e+51)
(-3.5498728e+52 -6.7568081e+50 2.7186947e+50)
(-3.4855958e+52 -9.8356605e+50 4.0084739e+50)
(-3.3141054e+52 -1.9229678e+51 -4.7416156e+50)
(-3.2980567e+52 -5.4876311e+50 -4.1519191e+50)
(-3.2158396e+52 -3.4378549e+50 5.0086612e+50)
(-3.3823409e+52 -1.1500257e+51 3.3220554e+50)
(-3.0436012e+52 -2.6228187e+50 3.0728568e+50)
(-3.2756854e+52 -2.6273091e+50 3.1318165e+50)
(-3.6824083e+52 -1.6079742e+51 -1.1340911e+51)
(-3.6801096e+52 -1.7942744e+51 -1.3749802e+51)
(-3.1185075e+52 -1.7334256e+51 3.711522e+50)
(-3.4513552e+52 -1.1934789e+51 -6.2176562e+50)
(-3.151959e+52 -1.4241927e+51 4.8816393e+50)
(-3.4604276e+52 -1.0782029e+51 -2.9517276e+50)
(-3.6055465e+52 -1.3088693e+51 -2.2068188e+50)
(-3.6194014e+52 -1.2586646e+51 5.9578622e+49)
(-3.8746677e+52 -2.7959724e+50 -4.3005465e+50)
(-3.2076947e+52 8.8328106e+50 1.9742189e+51)
(-3.2316595e+52 1.6470026e+51 1.7960374e+51)
(-3.8739461e+52 -2.728959e+50 -6.9883981e+50)
(-3.2570102e+52 1.1235962e+51 1.2378795e+51)
(-3.2138014e+52 2.406606e+50 1.8616871e+51)
(-3.1071521e+52 -4.6076838e+50 5.3792001e+50)
(-2.9439914e+52 -8.0480766e+50 6.2113156e+50)
(-3.2537807e+52 -7.3719672e+50 3.6131309e+50)
(-3.4029068e+52 -5.0723842e+50 9.8021765e+49)
(-3.1933062e+52 2.8608433e+49 5.3523854e+50)
(-2.9929538e+52 -3.0989509e+50 6.7525543e+50)
(-3.2822745e+52 -3.3128868e+50 4.1652555e+50)
(-3.3916821e+52 -4.5947826e+50 3.3696792e+50)
(-3.4813269e+52 -9.6602564e+50 5.1275037e+50)
(-3.4988365e+52 -1.1509049e+51 2.4938324e+50)
(-3.7848909e+52 -3.245049e+50 -4.6533778e+50)
(-3.1140167e+52 1.629678e+51 4.3184359e+51)
(-3.1700539e+52 8.9607105e+50 3.969323e+51)
(-3.2935366e+52 2.0166019e+51 -6.7681615e+50)
(-3.2593078e+52 9.5921803e+50 -4.9622705e+50)
(-3.7670364e+52 -4.093416e+50 -1.7697672e+50)
(-3.1288262e+52 1.1230983e+51 4.1697762e+51)
(-3.077649e+52 1.8404196e+51 4.6308456e+51)
(-3.2233121e+52 1.2968316e+51 -1.6703027e+50)
(-3.2568429e+52 2.3927122e+51 -3.9744403e+50)
(-3.1498586e+52 2.0384486e+50 5.4239504e+50)
(-3.0148248e+52 -3.9412267e+49 6.7141646e+50)
(-3.2571197e+52 -2.0079258e+50 5.0377892e+50)
(-3.4434819e+52 -4.3538796e+50 3.4627064e+50)
(-3.1896343e+52 3.0018895e+50 7.4864733e+50)
(-2.930183e+52 -6.9972368e+49 9.1498506e+50)
(-3.2225476e+52 -2.5483446e+50 5.5585252e+50)
(-3.3954907e+52 -6.535293e+50 5.9148894e+50)
(-3.4211584e+52 -9.8982878e+50 4.0119348e+50)
(-3.4404736e+52 -1.284062e+51 2.1049814e+50)
(-3.1802116e+52 -3.6006686e+50 2.4281982e+50)
(-3.3494383e+52 -8.0432676e+50 1.1452339e+50)
(-3.1913072e+52 -3.271847e+50 1.7927037e+50)
(-3.3392124e+52 -7.2337088e+50 2.4986534e+50)
(-2.9630579e+52 -3.3213014e+50 4.2676232e+50)
(-3.2451486e+52 -5.9838881e+50 6.2685218e+49)
(-2.7687551e+52 -4.2182828e+50 6.4291657e+50)
(-3.1358261e+52 -4.8617128e+50 8.6059721e+49)
(-3.2242265e+52 2.3831069e+51 1.4247668e+50)
(-3.135182e+52 2.3683729e+51 5.1920627e+50)
(-3.3204269e+52 1.6694048e+51 -2.0820446e+51)
(-3.3332414e+52 1.8945071e+51 -2.1679455e+51)
(-3.3002304e+52 1.9006987e+51 -1.0586803e+50)
(-2.6377044e+52 1.8078869e+51 -4.5051185e+50)
(-2.5919104e+52 2.0226077e+51 -2.7267776e+50)
(-2.5904653e+52 1.7658478e+51 -2.9262548e+51)
(-2.610851e+52 2.4806864e+51 -2.8859642e+51)
(-3.2221258e+52 2.0391e+51 3.7966627e+50)
(-2.567088e+52 2.1195793e+51 -1.6432556e+50)
(-2.5379631e+52 2.4337413e+51 -1.7911751e+50)
(-3.3583182e+52 9.9681228e+50 -2.3029702e+51)
(-3.3392855e+52 1.270018e+51 -2.2372666e+51)
(-2.9923918e+52 -3.4823854e+51 5.7631918e+51)
(-2.9977436e+52 -2.3217833e+50 5.7333458e+51)
(-3.7599192e+52 -2.3705819e+51 1.3831227e+51)
(-3.9805732e+52 -2.5728938e+51 -5.6414783e+51)
(-2.4861639e+52 2.4936534e+51 -2.5501784e+51)
(-2.310165e+52 2.338784e+51 -6.0452738e+50)
(-2.2341703e+52 2.1460808e+51 -1.5294309e+51)
(-2.2922631e+52 2.0430758e+51 -6.2062319e+50)
(-2.2049565e+52 2.3658433e+51 -1.9417306e+51)
(-2.2053779e+52 2.2105897e+51 -1.9321359e+51)
(-2.2003356e+52 2.4682255e+51 -1.9783663e+51)
(-2.5076806e+52 2.0671844e+51 -2.5699357e+51)
(-2.4999606e+52 2.4841216e+51 -2.701094e+51)
(-3.0259502e+52 -7.7145913e+50 3.7618242e+51)
(-3.0047023e+52 -1.0799544e+51 3.9913149e+51)
(-2.0398264e+52 -1.0214232e+51 -4.2368921e+51)
(-2.0508958e+52 -1.8357359e+51 -4.1294224e+51)
(-2.8343032e+52 -3.5207193e+51 -2.3107258e+51)
(-2.3934934e+52 7.5683569e+50 -8.7352013e+50)
(-2.3129648e+52 7.7989925e+50 -1.0276932e+51)
(-2.3146864e+52 1.5083757e+50 -1.1214664e+51)
(-2.7260726e+52 1.6969528e+51 9.884356e+50)
(-2.7352664e+52 8.9999239e+50 1.135065e+51)
(-2.4878863e+52 1.4980607e+51 -2.6704797e+51)
(-2.4679931e+52 2.1036726e+51 -2.68364e+51)
(-2.6051658e+52 2.0801057e+51 -9.178081e+50)
(-2.6258076e+52 1.7387784e+51 -6.370168e+50)
(-2.4647466e+52 1.588474e+51 -2.6362899e+51)
(-2.4474453e+52 2.1276036e+51 -2.6467718e+51)
(-2.6193419e+52 2.402462e+51 -5.7341828e+50)
(-2.6258133e+52 1.8128083e+51 -3.9112943e+50)
(-2.2709613e+52 9.0008454e+50 -1.072108e+51)
(-2.297535e+52 4.7026752e+50 -1.1392579e+51)
(-2.7088578e+52 1.7259462e+51 9.2684723e+50)
(-2.7085994e+52 8.531202e+50 1.1084583e+51)
(-1.6318612e+52 -1.6650646e+51 -2.0947747e+51)
(-2.5211922e+52 -7.6353515e+49 3.5237992e+51)
(-2.5651889e+52 -2.5896242e+50 3.3407811e+51)
(-1.6219921e+52 -2.1965083e+51 -2.2848634e+51)
(-2.3833414e+52 -1.0433684e+51 -7.4983638e+50)
(-2.3190586e+52 -2.8849598e+51 -7.5539628e+50)
(-2.5182755e+52 5.0128314e+50 3.2488734e+51)
(-2.5120566e+52 1.5318285e+50 3.2016661e+51)
(-1.6544405e+52 -2.7375547e+50 -2.2082039e+51)
(-1.6631655e+52 -8.8624046e+50 -2.2169798e+51)
(-2.6818713e+52 -3.6099783e+51 4.0711949e+50)
(-2.2984742e+52 3.2106247e+50 -4.6714492e+50)
(-2.3360047e+52 -1.3835417e+51 -3.4914548e+50)
(-2.6877926e+52 -9.9830627e+50 3.3798082e+50)
(-2.4779908e+52 4.3390696e+50 3.3347928e+51)
(-2.4984448e+52 2.0030255e+50 3.2290543e+51)
(-1.6231614e+52 -5.8810968e+50 -1.992297e+51)
(-1.6154258e+52 -1.1859613e+51 -2.1307942e+51)
(-2.4329924e+52 6.9340395e+50 3.349604e+51)
(-1.5662954e+52 8.7286815e+50 -2.1511156e+51)
(-2.4610347e+52 9.4903564e+50 3.2748782e+51)
(-1.5681055e+52 4.3525191e+50 -2.0182294e+51)
(-2.3780884e+52 2.478689e+51 -5.7388076e+50)
(-2.1804966e+52 1.9457257e+51 -2.2402295e+51)
(-2.1322812e+52 2.6068544e+51 -2.3456423e+51)
(-2.3442434e+52 2.2904382e+51 -5.3495749e+50)
(-2.3108076e+52 1.9961461e+51 5.1325016e+49)
(-1.9682505e+52 7.3229529e+50 -2.4344181e+51)
(-1.9961309e+52 1.6338263e+51 -2.1639296e+51)
(-2.3364389e+52 2.0212439e+51 3.5536919e+50)
(-2.0039658e+52 1.7154493e+51 -2.0919178e+51)
(-1.987358e+52 1.041872e+51 -2.224788e+51)
(-2.2915664e+52 2.2675496e+51 7.7390081e+49)
(-2.3137972e+52 1.8067812e+51 2.81281e+50)
(-2.2787435e+52 2.4830298e+51 -1.0471075e+51)
(-2.1024669e+52 1.9460313e+51 -2.4362088e+51)
(-2.1105832e+52 2.4638838e+51 -2.393639e+51)
(-2.2951899e+52 2.2052105e+51 -8.5085353e+50)
(-2.313875e+52 2.4097076e+51 -8.3164105e+50)
(-2.2370637e+52 2.1967616e+51 -1.8592321e+51)
(-2.2072678e+52 2.5640193e+51 -2.1418448e+51)
(-2.2989824e+52 2.1596773e+51 -1.0002394e+51)
(-2.3421912e+52 2.5264408e+51 -9.569049e+50)
(-2.2372976e+52 2.2996851e+51 -1.8712543e+51)
(-2.1952645e+52 2.6198447e+51 -2.2370157e+51)
(-2.3240336e+52 2.2534847e+51 -9.0858184e+50)
(-2.1675545e+52 2.5835146e+51 -2.3259713e+51)
(-2.1772991e+52 2.1764737e+51 -2.1617094e+51)
(-2.2947402e+52 2.6042138e+51 -1.0411803e+51)
(-2.3031616e+52 2.2812318e+51 -7.9328032e+50)
(-2.2780738e+52 2.5878323e+51 -1.3559076e+51)
(-2.1989602e+52 2.2514209e+51 -2.0943632e+51)
(-2.1924672e+52 2.574146e+51 -2.0710568e+51)
(-2.2871836e+52 2.2804239e+51 -1.0778574e+51)
(-2.3084911e+52 2.5936767e+51 -7.3859615e+50)
(-2.2076744e+52 2.3799385e+51 -1.6172792e+51)
(-2.1810136e+52 2.8378028e+51 -2.1538451e+51)
(-2.2831604e+52 2.3859045e+51 -7.9222869e+50)
(-2.3166854e+52 2.6313506e+51 -8.8131356e+50)
(-2.1926533e+52 2.2328399e+51 -2.3978182e+51)
(-2.1660271e+52 2.910324e+51 -2.4043604e+51)
(-2.3070332e+52 2.5402653e+51 -7.0966293e+50)
(-2.1498521e+52 2.9510211e+51 -2.3664258e+51)
(-2.1731308e+52 2.4894719e+51 -2.1323816e+51)
(-2.292473e+52 2.9248635e+51 -5.7017772e+50)
(-2.2860643e+52 2.5593825e+51 -6.7719594e+50)
(-2.2600598e+52 2.7561154e+51 -1.2848822e+51)
(-2.1832692e+52 2.4705843e+51 -1.9570198e+51)
(-2.1634524e+52 2.7693567e+51 -2.0546787e+51)
(-2.2568471e+52 2.4022867e+51 -1.0727588e+51)
(-1.9682084e+52 1.9948202e+51 -2.3148308e+51)
(-1.9820308e+52 1.3392819e+51 -2.2873355e+51)
(-2.2929922e+52 2.2819001e+51 -1.8147749e+49)
(-2.2914114e+52 1.8810984e+51 4.819689e+49)
(-2.0034065e+52 1.9203409e+51 -2.1958869e+51)
(-2.0118086e+52 1.0399926e+51 -2.1925612e+51)
(-2.3301069e+52 2.177346e+51 1.1594115e+50)
(-2.3090031e+52 1.9835191e+51 -5.8606815e+47)
(-2.1163116e+52 2.7293441e+51 -2.5662452e+51)
(-2.1520217e+52 1.8983578e+51 -2.4106717e+51)
(-2.303901e+52 2.3994592e+51 -1.1690919e+51)
(-2.3001577e+52 2.4394498e+51 -9.3190129e+50)
(-2.2789758e+52 2.7602448e+51 -1.0718162e+51)
(-2.112548e+52 2.1347928e+51 -2.4897913e+51)
(-2.097627e+52 2.657951e+51 -2.5508023e+51)
(-2.2842806e+52 2.4954234e+51 -7.9814815e+50)
(-2.3182712e+52 2.7542025e+51 -5.3518411e+50)
(-2.1290925e+52 2.2247353e+51 -2.1489701e+51)
(-2.0725806e+52 2.8050659e+51 -2.4042488e+51)
(-2.2689292e+52 2.4986752e+51 -5.4756801e+50)
(-2.2822673e+52 2.3239157e+51 1.2800261e+50)
(-1.9669799e+52 1.2063056e+51 -2.2612638e+51)
(-1.9704234e+52 2.0077072e+51 -2.0997487e+51)
(-2.2841886e+52 2.0681804e+51 2.3750576e+50)
(-1.9412207e+52 2.2043816e+51 -2.1489838e+51)
(-1.9593331e+52 1.4176652e+51 -2.155885e+51)
(-2.264753e+52 2.3605603e+51 1.2324509e+50)
(-2.2501096e+52 2.0511322e+51 9.7539355e+49)
(-2.2353589e+52 2.7516997e+51 -1.0463932e+51)
(-2.0754641e+52 2.1511032e+51 -2.418938e+51)
(-2.0522734e+52 2.8485673e+51 -2.5066006e+51)
(-2.2358781e+52 2.5917922e+51 -8.4358627e+50)
(-2.2793817e+52 2.820888e+51 -8.6668365e+50)
(-2.1745383e+52 2.5515959e+51 -1.8423581e+51)
(-2.26089e+52 2.5251305e+51 -8.258748e+50)
(-2.1242294e+52 2.9069631e+51 -2.2652912e+51)
(-2.2412207e+52 2.6330035e+51 -1.2780155e+51)
(-2.1802661e+52 2.4594441e+51 -1.8164419e+51)
(-2.1488712e+52 2.8812236e+51 -1.9594061e+51)
(-2.2354424e+52 2.4458235e+51 -1.0955233e+51)
(-2.1326035e+52 2.4714123e+51 -2.1809855e+51)
(-2.2384226e+52 2.9398084e+51 -1.0281373e+51)
(-2.2379323e+52 2.6973446e+51 -8.3097275e+50)
(-2.1009876e+52 3.0374053e+51 -2.3237235e+51)
(-2.1237738e+52 3.0449508e+51 -2.0250199e+51)
(-2.1434191e+52 2.5876825e+51 -2.0675423e+51)
(-2.2189748e+52 2.976038e+51 -1.3202001e+51)
(-2.0299108e+52 3.0769225e+51 -2.1127451e+51)
(-2.0833705e+52 2.8077985e+51 -1.6686501e+51)
(-2.17618e+52 2.7514572e+51 -4.3764609e+50)
(-2.2046095e+52 3.2417584e+51 -4.5665026e+50)
(-2.0754331e+52 3.3561561e+51 -2.3637433e+51)
(-2.1050365e+52 2.6951675e+51 -2.1676236e+51)
(-2.2312308e+52 3.1132002e+51 -5.5151625e+50)
(-2.2176797e+52 2.942646e+51 -6.545878e+50)
(-2.094356e+52 3.2531625e+51 -2.0511967e+51)
(-2.1298562e+52 2.7889599e+51 -1.8835406e+51)
(-1.9134521e+52 2.2134196e+51 -2.1823844e+51)
(-1.9293582e+52 1.3836577e+51 -2.1747726e+51)
(-2.229886e+52 2.368637e+51 -2.5200478e+49)
(-2.2547895e+52 2.1520817e+51 3.3735552e+50)
(-2.0261109e+52 3.0879564e+51 -2.489989e+51)
(-2.2079928e+52 2.8410827e+51 -1.1619566e+51)
(-2.0528166e+52 2.3019222e+51 -2.4840641e+51)
(-2.2156761e+52 2.8590389e+51 -7.5966635e+50)
(-2.2246094e+52 3.0497377e+51 -4.1701355e+50)
(-2.0648269e+52 2.3629118e+51 -2.0022609e+51)
(-1.9652568e+52 2.9053287e+51 -2.333881e+51)
(-2.1709581e+52 2.6528802e+51 -4.4337386e+50)
(-2.2147719e+52 2.4116147e+51 4.1608026e+50)
(-1.8835457e+52 1.5646274e+51 -2.257345e+51)
(-1.8436308e+52 2.1978491e+51 -2.3106536e+51)
(-2.1707331e+52 2.1200446e+51 3.0832001e+50)
(-2.4543975e+52 -5.8112129e+50 4.9568825e+51)
(-2.4139229e+52 -3.3288945e+51 5.131026e+51)
(-2.2757367e+52 -6.9060745e+50 1.7366868e+51)
(-2.2443834e+52 -3.2203538e+51 1.8035065e+51)
(-1.899399e+52 -1.1333194e+50 -3.5279739e+50)
(-1.8825889e+52 -1.4101426e+51 -3.6661663e+50)
(-1.9134181e+52 1.172494e+51 -9.7978688e+49)
(-1.9430767e+52 -4.4733986e+50 -1.1336485e+50)
(-2.0513986e+52 1.0373722e+51 1.0153955e+51)
(-1.4018035e+52 -2.6338981e+50 -2.4730016e+51)
(-1.4027993e+52 -1.5013724e+50 -2.4593639e+51)
(-2.0934331e+52 1.3443474e+51 1.1314873e+51)
(-2.076893e+52 1.5205046e+51 1.092294e+51)
(-1.4404539e+52 7.6002821e+50 -2.3725753e+51)
(-1.4634871e+52 6.9687867e+50 -2.3558975e+51)
(-2.0875865e+52 1.648405e+51 1.1829054e+51)
(-1.4353484e+52 3.7671093e+50 -2.2355066e+51)
(-1.4335091e+52 4.9907491e+50 -2.1601379e+51)
(-2.0561373e+52 1.4504627e+51 1.2922062e+51)
(-2.0753356e+52 1.6377995e+51 1.3608259e+51)
(-1.415982e+52 1.5084948e+51 -2.2862831e+51)
(-1.4045503e+52 1.6373168e+51 -2.3284541e+51)
(-2.0431149e+52 1.8731736e+51 1.3215709e+51)
(-2.0250429e+52 1.9129168e+51 1.3607886e+51)
(-2.2504303e+52 6.6508538e+50 1.9921707e+51)
(-1.9012211e+52 7.8130891e+50 4.6543332e+49)
(-1.9097078e+52 -1.029119e+51 1.614756e+50)
(-1.9858559e+52 1.5385517e+51 1.4846676e+51)
(-1.3561229e+52 5.4080468e+50 -2.1570919e+51)
(-1.3499003e+52 4.9628018e+50 -2.1937723e+51)
(-2.0060775e+52 1.7478892e+51 1.5912744e+51)
(-1.9678229e+52 1.9694871e+51 1.5900101e+51)
(-1.3390128e+52 1.705698e+51 -2.1409922e+51)
(-1.3622366e+52 1.5067569e+51 -2.1090426e+51)
(-1.981526e+52 1.9586052e+51 1.7763561e+51)
(-2.3179158e+52 -1.8111483e+51 1.8956535e+51)
(-2.4012244e+52 7.3295177e+50 5.3559425e+51)
(-2.4564831e+52 -1.8416393e+51 5.2878614e+51)
(-1.7562698e+52 2.3760024e+51 2.1831534e+50)
(-1.7597516e+52 2.0531279e+51 1.5299661e+50)
(-1.75022e+52 2.7878783e+51 -1.3289954e+50)
(-1.7614817e+52 2.7190662e+51 -1.5560567e+50)
(-1.7619696e+52 2.1107304e+51 1.0086476e+50)
(-1.7364759e+52 1.7342871e+51 2.291973e+49)
(-1.7710541e+52 2.6150171e+51 -7.6594677e+49)
(-1.7518883e+52 2.520989e+51 -1.1785024e+50)
(-1.723982e+52 2.709707e+51 -9.8782174e+50)
(-1.7465427e+52 2.7188503e+51 -1.1087057e+51)
(-1.7491899e+52 2.7668548e+51 -1.0901891e+51)
(-1.734592e+52 2.736431e+51 -8.935089e+50)
(-1.7295337e+52 2.8676754e+51 -8.8953885e+50)
(-1.7481119e+52 2.9043862e+51 -9.8268016e+50)
(-1.7365889e+52 2.969264e+51 -9.7245134e+50)
(-1.7251274e+52 2.9400984e+51 -8.0590432e+50)
(-1.7592381e+52 2.9051354e+51 -7.8249563e+50)
(-1.7669347e+52 2.8369578e+51 -9.2210133e+50)
(-1.784937e+52 2.7229601e+51 -8.7048428e+50)
(-1.7744484e+52 2.7952831e+51 -7.8922626e+50)
(-1.7744886e+52 2.7339969e+51 -8.7349295e+50)
(-1.7701117e+52 2.6533353e+51 -1.0231459e+51)
(-1.7874095e+52 2.527224e+51 -9.5606395e+50)
(-1.7883131e+52 2.6129978e+51 -9.0294293e+50)
(-1.7962148e+52 2.4866337e+51 -8.4274299e+50)
(-1.7853166e+52 2.6514344e+51 -7.4062586e+50)
(-1.7940406e+52 2.5811714e+51 -7.659284e+50)
(-1.7956063e+52 2.4528192e+51 -7.3359233e+50)
(-1.7850814e+52 2.5169678e+51 -7.4310903e+50)
(-1.6658856e+52 3.0225215e+51 -9.4092876e+50)
(-1.6904022e+52 3.0075527e+51 -9.8403857e+50)
(-1.7110272e+52 2.8730026e+51 -8.0926385e+50)
(-1.6852537e+52 2.886189e+51 -7.809826e+50)
(-1.7174374e+52 2.9805537e+51 -8.8140509e+50)
(-1.7399037e+52 2.9678013e+51 -9.1537037e+50)
(-1.7628132e+52 2.8753468e+51 -7.7044426e+50)
(-1.736537e+52 2.8750468e+51 -5.2190347e+50)
(-1.7754383e+52 2.5888247e+51 -7.3247015e+50)
(-1.7742466e+52 2.7084675e+51 -7.4428155e+50)