/*--------------------------------*- C++ -*----------------------------------*\
  =========                 |
  \\      /  F ield         | OpenFOAM: The Open Source CFD Toolbox
   \\    /   O peration     | Website:  https://openfoam.org
    \\  /    A nd           | Version:  7
     \\/     M anipulation  |
\*---------------------------------------------------------------------------*/
FoamFile
{
    version     2.0;
    format      ascii;
    class       volVectorField;
    location    "9000";
    object      UMean;
}
// * * * * * * * * * * * * * * * * * * * * * * * * * * * * * * * * * * * * * //

dimensions      [0 1 -1 0 0 0 0];

internalField   nonuniform List<vector> 
34158
(
(-2.7416032e+50 2.4324354e+49 -5.6447446e+48)
(-2.7641249e+50 1.870495e+49 -8.4084188e+48)
(-2.773605e+50 2.6208844e+49 -1.1241166e+49)
(-2.7750722e+50 1.5883605e+49 -1.3917086e+49)
(-2.5858465e+50 2.2150015e+49 -1.7870393e+48)
(-2.5495126e+50 2.2199315e+49 -6.7454359e+47)
(-2.7742685e+50 1.6967843e+49 7.6373434e+46)
(-2.7954671e+50 1.8935982e+49 -3.3570894e+48)
(-2.4717833e+50 1.1979579e+49 -1.2398133e+49)
(-2.5159001e+50 1.0076002e+49 -1.3791036e+49)
(-2.5971673e+50 1.8687737e+49 -4.6831079e+48)
(-2.5794982e+50 2.3174274e+49 -3.2138705e+48)
(-2.8046336e+50 1.8659451e+49 -6.0256192e+48)
(-2.8204166e+50 1.6809025e+49 -8.6470779e+48)
(-2.4112576e+50 2.4319243e+49 4.190106e+48)
(-2.6760125e+50 1.8571727e+49 -2.2311187e+48)
(-2.3844827e+50 2.2477361e+49 4.5047784e+48)
(-2.6503539e+50 1.6626032e+49 -5.7731012e+47)
(-2.8023801e+50 1.3525349e+49 1.953561e+48)
(-2.8235072e+50 1.5340141e+49 -2.5208413e+47)
(-2.7985715e+50 5.5853764e+48 8.2752046e+48)
(-2.7876919e+50 4.5064839e+48 8.5677111e+48)
(-2.5937528e+50 1.1074622e+49 -1.221775e+49)
(-2.5010104e+50 9.3916639e+48 -1.3002583e+49)
(-2.4540695e+50 7.9830182e+48 -2.8317572e+49)
(-2.8141831e+50 1.0280805e+49 -7.2880098e+48)
(-2.8301613e+50 5.0444338e+48 -7.6880369e+48)
(-2.4535059e+50 2.651995e+48 -2.8638166e+49)
(-2.1926278e+50 1.1074089e+49 -1.8607752e+49)
(-2.4898061e+50 1.2730314e+49 -1.3362349e+49)
(-2.4991447e+50 1.1429787e+49 -1.3591634e+49)
(-2.1886054e+50 9.1023594e+48 -1.9462418e+49)
(-2.1761457e+50 1.14979e+49 -1.9812695e+49)
(-2.4506606e+50 1.3606019e+49 -1.5202681e+49)
(-2.6649307e+50 5.4579051e+48 1.9921375e+49)
(-2.65864e+50 1.2145685e+48 1.976668e+49)
(-2.8511227e+50 1.2154647e+49 -1.1602462e+49)
(-2.8260989e+50 1.4492756e+49 -9.890122e+48)
(-2.432898e+50 2.089176e+49 3.7738018e+48)
(-2.6858827e+50 1.629416e+49 -4.6597395e+48)
(-2.4141656e+50 2.3631177e+49 4.3177031e+48)
(-2.6647664e+50 1.8142487e+49 -3.2250504e+48)
(-2.8326636e+50 1.5482584e+49 -2.0346489e+48)
(-2.8401067e+50 1.4087527e+49 -3.7078364e+48)
(-3.0143999e+50 1.5766162e+49 -9.7204556e+48)
(-2.986373e+50 1.5894544e+49 -7.6719074e+48)
(-2.2348171e+50 2.3051593e+49 5.5817215e+48)
(-2.4700979e+50 1.9983582e+49 2.8803605e+48)
(-2.7141371e+50 1.4900588e+49 8.2628428e+47)
(-2.1828144e+50 2.0302343e+49 5.8213208e+48)
(-2.4471485e+50 1.8244802e+49 3.4785186e+48)
(-2.6861963e+50 1.3050019e+49 2.1865891e+48)
(-2.8285075e+50 1.0731778e+49 5.4108637e+48)
(-2.8485907e+50 1.2213442e+49 4.0182984e+48)
(-2.7939539e+50 6.4171996e+48 9.0342729e+48)
(-2.8046039e+50 7.6496386e+48 8.8800404e+48)
(-2.7304678e+50 6.0714252e+48 6.1046362e+48)
(-2.7031443e+50 4.0970556e+48 6.6256409e+48)
(-2.7659112e+50 4.4709893e+48 8.5123132e+48)
(-2.7559582e+50 4.1552409e+48 8.894255e+48)
(-2.7266463e+50 4.2779491e+48 -2.7334693e+49)
(-2.6292318e+50 6.5995158e+48 -1.3340354e+49)
(-2.8633834e+50 1.1186367e+49 -6.9949988e+48)
(-2.4705845e+50 3.5161864e+48 -2.8836401e+49)
(-2.4747956e+50 8.4518417e+48 -2.8454912e+49)
(-2.8368318e+50 6.582595e+48 -7.8492374e+48)
(-2.2911646e+50 9.4769037e+48 -1.9315549e+49)
(-2.560174e+50 1.026168e+49 -1.1542375e+49)
(-2.5500678e+50 7.9317113e+48 -1.4359108e+49)
(-2.25666e+50 6.977791e+48 -2.031275e+49)
(-2.226353e+50 9.5583753e+48 -2.0015967e+49)
(-2.5193163e+50 1.0307329e+49 -1.5459326e+49)
(-2.5333398e+50 9.5664202e+48 -1.3589412e+49)
(-2.2209147e+50 7.6891469e+48 -1.9780839e+49)
(-2.3153212e+50 4.3092003e+48 -2.573211e+49)
(-2.4583793e+50 9.4255062e+48 -6.6061369e+48)
(-2.4675953e+50 7.996454e+48 -8.0359972e+48)
(-2.0961263e+50 6.0702851e+48 -1.1381228e+49)
(-2.0943552e+50 5.4114389e+48 -1.2264045e+49)
(-2.0987645e+50 7.1605309e+48 -1.3060666e+49)
(-2.4700839e+50 8.6988768e+48 -8.1573784e+48)
(-2.3130774e+50 6.7965786e+48 -2.5904307e+49)
(-2.1776874e+50 9.1689481e+48 -2.2183525e+49)
(-2.1667797e+50 9.0062039e+48 -2.2895653e+49)
(-2.3635006e+50 9.559753e+48 -1.3292826e+49)
(-2.3683876e+50 1.0363555e+49 -1.3511983e+49)
(-2.2607968e+50 9.9095856e+48 -1.6785374e+49)
(-2.2590286e+50 8.9758042e+48 -1.6184389e+49)
(-2.2918559e+50 1.0796905e+49 -1.3907847e+49)
(-2.2567565e+50 1.0306323e+49 -1.7391911e+49)
(-2.2562042e+50 8.562388e+48 -1.7137942e+49)
(-2.2945421e+50 8.7840699e+48 -1.3509672e+49)
(-2.2868575e+50 1.0663316e+49 -1.4272508e+49)
(-2.1686806e+50 8.229463e+48 -2.2857179e+49)
(-2.3578416e+50 8.4623124e+48 -1.4652253e+49)
(-2.1649331e+50 9.4264736e+48 -2.2612229e+49)
(-2.3539659e+50 1.0054643e+49 -1.5319205e+49)
(-2.1404058e+50 1.129472e+49 -2.3589969e+49)
(-2.1479628e+50 9.5493323e+48 -2.2714796e+49)
(-2.3428371e+50 9.5427617e+48 -1.4531165e+49)
(-2.3325659e+50 1.2180798e+49 -1.5630499e+49)
(-2.2708004e+50 9.9038479e+48 -1.3877506e+49)
(-2.2400585e+50 9.3814479e+48 -1.6721273e+49)
(-2.2661538e+50 1.303667e+49 -1.4285568e+49)
(-2.2303354e+50 1.2101466e+49 -1.7661194e+49)
(-2.6670023e+50 6.1078351e+48 1.9524488e+49)
(-2.6644924e+50 1.8010949e+48 1.9550966e+49)
(-2.6929104e+50 5.8779916e+48 1.3899888e+49)
(-2.6326598e+50 2.7159375e+48 1.3474932e+49)
(-2.646047e+50 3.40777e+48 9.2647099e+48)
(-2.6391901e+50 3.5634059e+48 9.42883e+48)
(-2.7052127e+50 1.1676848e+49 -6.3472569e+48)
(-2.6770258e+50 1.3693639e+49 -5.2441028e+48)
(-2.8678102e+50 1.0659493e+49 -5.8067817e+48)
(-2.8450448e+50 1.238766e+49 -4.5584254e+48)
(-3.0283034e+50 1.2217431e+49 -1.1081852e+49)
(-3.0375886e+50 1.1475515e+49 -1.2147288e+49)
(-2.231832e+50 1.9645602e+49 5.8620952e+48)
(-2.4652464e+50 1.7770129e+49 2.582234e+48)
(-2.720777e+50 1.3688729e+49 -1.0968427e+48)
(-2.2263777e+50 2.2050992e+49 5.7491128e+48)
(-2.4485889e+50 2.0051844e+49 2.9773135e+48)
(-2.6999217e+50 1.4919744e+49 -8.9940864e+45)
(-2.8400114e+50 1.2189677e+49 2.9424533e+48)
(-2.8357601e+50 1.1334453e+49 1.8993077e+48)
(-2.9984729e+50 1.281165e+49 4.4609023e+47)
(-2.5165973e+50 1.1588746e+49 -3.9863854e+48)
(-2.5415919e+50 1.4296016e+49 -5.8007017e+48)
(-2.979882e+50 1.185313e+49 1.6166404e+48)
(-2.4716054e+50 1.2863047e+49 -2.3906454e+48)
(-2.5026357e+50 1.5447709e+49 -4.2260163e+48)
(-2.3129307e+50 2.3250358e+49 5.0797262e+48)
(-2.2634657e+50 1.8036639e+49 4.9356841e+48)
(-2.5291849e+50 1.616261e+49 2.7335914e+48)
(-2.7444519e+50 1.1790412e+49 3.6728993e+48)
(-2.2828373e+50 2.1163004e+49 5.1853001e+48)
(-2.2580074e+50 1.5643307e+49 5.0181568e+48)
(-2.4965826e+50 1.4588286e+49 3.3127646e+48)
(-2.7101753e+50 1.0158915e+49 4.7709988e+48)
(-2.8044083e+50 8.2659441e+48 8.6884188e+48)
(-2.8207788e+50 9.5478481e+48 7.6069315e+48)
(-2.7200323e+50 7.7554638e+48 6.6911335e+48)
(-2.7067444e+50 6.5262407e+48 6.8409687e+48)
(-2.7659183e+50 5.6095916e+48 8.8558385e+48)
(-2.7739109e+50 5.9181069e+48 8.757892e+48)
(-2.5426537e+50 7.3298645e+48 4.0219511e+48)
(-2.7367115e+50 5.1023776e+48 6.5673019e+48)
(-2.485559e+50 6.029737e+48 4.6113544e+48)
(-2.6938071e+50 4.078067e+48 7.2573879e+48)
(-2.6362328e+50 1.2708378e+49 -1.5211394e+49)
(-2.6038651e+50 1.2572467e+49 -1.2942416e+49)
(-2.5794911e+50 3.8175852e+48 1.0434293e+49)
(-2.7339305e+50 4.5672906e+48 -2.7400655e+49)
(-2.269273e+50 6.4092682e+48 -1.2376766e+49)
(-2.8854026e+50 3.471872e+48 -7.8371712e+48)
(-2.4965777e+50 2.2167246e+48 -2.9113819e+49)
(-2.3274545e+50 7.9465534e+48 -2.0975618e+49)
(-2.5797914e+50 8.6979323e+48 -1.335557e+49)
(-2.5900735e+50 6.6140194e+48 -1.2054383e+49)
(-2.3178553e+50 5.9055432e+48 -2.0833747e+49)
(-2.5346174e+50 9.2462759e+48 -7.9678938e+48)
(-2.1490642e+50 6.1239481e+48 -1.4151681e+49)
(-2.1445284e+50 5.8373701e+48 -1.4584559e+49)
(-2.5313344e+50 7.8785395e+48 -8.9575326e+48)
(-2.3327829e+50 7.3862486e+48 -2.6174257e+49)
(-2.3385761e+50 4.6031529e+48 -2.6582215e+49)
(-2.4973407e+50 9.1119499e+48 -8.3793846e+48)
(-2.4775186e+50 7.4075727e+48 -7.7722899e+48)
(-2.1275756e+50 8.1669969e+48 -1.3271723e+49)
(-2.1258766e+50 7.5045904e+48 -1.2605994e+49)
(-2.3782268e+50 7.6610809e+48 -1.4305285e+49)
(-2.1911346e+50 7.0687477e+48 -2.4142592e+49)
(-2.223035e+50 6.7542459e+48 -2.2317518e+49)
(-2.3924107e+50 7.4529862e+48 -1.1823406e+49)
(-2.3253591e+50 6.8183825e+48 -1.2643639e+49)
(-2.2810657e+50 6.7105433e+48 -1.7373845e+49)
(-2.2843995e+50 6.7805154e+48 -1.5511531e+49)
(-2.3125925e+50 7.3357191e+48 -1.2856362e+49)
(-2.351739e+50 5.3051443e+48 -1.368745e+49)
(-2.301316e+50 5.4426389e+48 -1.8791191e+49)
(-2.3024682e+50 7.9675243e+48 -1.8175493e+49)
(-2.3373279e+50 7.7470475e+48 -1.4201347e+49)
(-2.2158185e+50 7.0742124e+48 -2.3974588e+49)
(-2.2124704e+50 5.9982915e+48 -2.4822181e+49)
(-2.4003027e+50 5.8623766e+48 -1.6930759e+49)
(-2.4036102e+50 7.9704082e+48 -1.600176e+49)
(-2.4193245e+50 7.5589219e+48 -1.3141375e+49)
(-2.2114138e+50 7.2778792e+48 -2.3617743e+49)
(-2.2114808e+50 8.2933657e+48 -2.3523149e+49)
(-2.3966551e+50 8.683274e+48 -1.5520193e+49)
(-2.30303e+50 6.8776627e+48 -1.7174974e+49)
(-2.3319843e+50 7.0123165e+48 -1.3871111e+49)
(-2.2902818e+50 8.3030915e+48 -1.8309526e+49)
(-2.3212674e+50 9.1187409e+48 -1.5229028e+49)
(-2.2883266e+50 9.2237796e+48 -1.6816601e+49)
(-2.2907518e+50 7.4392177e+48 -1.8681726e+49)
(-2.3277511e+50 7.5750698e+48 -1.4410009e+49)
(-2.1948246e+50 7.2648278e+48 -2.4169664e+49)
(-2.3947684e+50 7.3178042e+48 -1.6329057e+49)
(-2.4025228e+50 8.9583645e+48 -1.3144405e+49)
(-2.1876989e+50 8.3144724e+48 -2.4123418e+49)
(-2.1681476e+50 2.6716073e+48 1.0294461e+49)
(-2.0545826e+50 2.2550971e+48 -2.3717614e+49)
(-2.0496014e+50 1.0074446e+49 -2.3666616e+49)
(-2.3328339e+50 8.4972279e+48 -1.05362e+49)
(-2.3547555e+50 9.8596475e+48 -1.0567479e+49)
(-1.998373e+50 4.8837604e+48 -7.101389e+48)
(-2.0007806e+50 8.4384828e+48 -6.6263028e+48)
(-2.3428996e+50 7.6487603e+48 -1.162104e+49)
(-2.0162431e+50 5.3991638e+48 -7.3524223e+48)
(-2.0169588e+50 1.002484e+49 -7.5687568e+48)
(-2.3301136e+50 9.4073449e+48 -1.1940013e+49)
(-2.0520964e+50 3.3505919e+48 -2.3976832e+49)
(-2.3155133e+50 8.4238789e+48 -1.1697531e+49)
(-2.3247914e+50 1.0174661e+49 -1.2316882e+49)
(-2.0010417e+50 5.8144872e+48 -7.3410608e+48)
(-1.9939263e+50 9.788158e+48 -7.9905914e+48)
(-2.1662247e+50 7.4305349e+48 1.0354247e+49)
(-2.0846944e+50 9.2264009e+48 -2.4749165e+49)
(-2.0826869e+50 6.1685389e+48 -2.5317488e+49)
(-2.1814651e+50 9.2348695e+48 -1.6850569e+49)
(-2.1862193e+50 6.0565543e+48 -1.6454841e+49)
(-2.0694185e+50 9.4999757e+48 -2.5158025e+49)
(-2.0641312e+50 7.8662034e+48 -2.6098861e+49)
(-2.1712954e+50 1.0049945e+49 -1.6239377e+49)
(-2.1744218e+50 7.761654e+48 -1.5835249e+49)
(-2.0997688e+50 7.0598258e+48 -1.7180992e+49)
(-2.1373545e+50 7.0155464e+48 -1.3658845e+49)
(-2.1365419e+50 9.2513041e+48 -1.3639518e+49)
(-2.0953961e+50 8.7075816e+48 -1.7508553e+49)
(-2.1092028e+50 5.9367532e+48 -1.7864609e+49)
(-2.1470696e+50 5.8248995e+48 -1.435164e+49)
(-2.1459939e+50 8.6805861e+48 -1.4215618e+49)
(-2.1090028e+50 8.4826436e+48 -1.7754012e+49)
(-2.1018497e+50 8.2027339e+48 -1.4328238e+49)
(-2.1066527e+50 5.724085e+48 -1.4393967e+49)
(-2.104308e+50 5.9915806e+48 -1.3234935e+49)
(-2.1047881e+50 8.2573175e+48 -1.2825063e+49)
(-2.0931525e+50 8.343715e+48 -1.3648946e+49)
(-2.10185e+50 6.7605576e+48 -1.3443782e+49)
(-2.0996335e+50 6.8052192e+48 -1.2245991e+49)
(-2.0975213e+50 8.3287596e+48 -1.2033178e+49)
(-2.0516643e+50 7.6361984e+48 -1.1724388e+49)
(-2.059003e+50 7.7617232e+48 -1.264131e+49)
(-2.0583684e+50 5.8916861e+48 -1.2829523e+49)
(-2.0572653e+50 6.4275883e+48 -1.2216817e+49)
(-2.0572451e+50 7.9086907e+48 -1.2088068e+49)
(-2.0950059e+50 8.3943953e+48 -1.4549349e+49)
(-2.1092355e+50 6.1711076e+48 -1.503217e+49)
(-2.1031226e+50 6.4767686e+48 -1.3564965e+49)
(-2.093155e+50 8.3714302e+48 -1.3448712e+49)
(-2.0954173e+50 9.1714518e+48 -1.4844229e+49)
(-2.1037512e+50 6.7018044e+48 -1.4456816e+49)
(-2.0985788e+50 6.967821e+48 -1.306463e+49)
(-2.102413e+50 9.1595579e+48 -1.3259471e+49)
(-2.0543857e+50 7.1610851e+48 -1.211187e+49)
(-2.0533958e+50 6.8704827e+48 -1.2684068e+49)
(-2.053723e+50 8.57828e+48 -1.3165195e+49)
(-2.05658e+50 8.4087952e+48 -1.2118724e+49)
(-2.0563224e+50 6.99303e+48 -1.2215656e+49)
(-2.0554834e+50 6.4711961e+48 -1.3103856e+49)
(-2.0487871e+50 7.9157074e+48 -1.2950195e+49)
(-2.0493814e+50 8.0396006e+48 -1.2132946e+49)
(-2.0863412e+50 1.019241e+49 -2.4837395e+49)
(-2.08534e+50 6.7261496e+48 -2.4943848e+49)
(-2.1864074e+50 7.1458043e+48 -1.6764331e+49)
(-2.1853299e+50 1.0261481e+49 -1.7427939e+49)
(-2.1121419e+50 6.8796294e+48 -1.768477e+49)
(-2.1433995e+50 6.8582668e+48 -1.4623652e+49)
(-2.1431601e+50 9.7345861e+48 -1.4881912e+49)
(-2.1081905e+50 9.2429616e+48 -1.8396971e+49)
(-2.1896177e+50 6.2239256e+48 -1.6741056e+49)
(-2.0739107e+50 6.6043826e+48 -2.4942527e+49)
(-2.0724506e+50 9.3614715e+48 -2.5029854e+49)
(-2.1728575e+50 9.0326722e+48 -1.7266948e+49)
(-2.1001013e+50 8.7835373e+48 -1.7937865e+49)
(-2.1158986e+50 6.3513294e+48 -1.9742844e+49)
(-2.1558343e+50 6.1259034e+48 -1.4984982e+49)
(-2.1338106e+50 8.8997813e+48 -1.4716155e+49)
(-2.04223e+50 1.1674562e+49 -2.4392335e+49)
(-2.048434e+50 7.5312524e+48 -2.4347304e+49)
(-2.1562647e+50 6.77149e+48 -1.5872866e+49)
(-2.1368235e+50 1.1217547e+49 -1.6580438e+49)
(-2.0545682e+50 1.0925783e+49 -2.4643938e+49)
(-2.0591627e+50 8.0687363e+48 -2.4928802e+49)
(-2.171085e+50 7.7916165e+48 -1.5609877e+49)
(-2.1560279e+50 1.0801691e+49 -1.6683964e+49)
(-2.1298179e+50 7.5999696e+48 -1.3690467e+49)
(-2.0923663e+50 7.5592953e+48 -1.7088906e+49)
(-2.0813225e+50 9.7755507e+48 -1.7732229e+49)
(-2.1168805e+50 1.0047003e+49 -1.4543391e+49)
(-2.0688212e+50 1.0772156e+49 -1.7183454e+49)
(-2.0786066e+50 6.9401871e+48 -1.741585e+49)
(-2.1177647e+50 6.742181e+48 -1.4120725e+49)
(-2.1018596e+50 1.0698242e+49 -1.43192e+49)
(-2.0526043e+50 8.0157797e+48 -1.0592404e+49)
(-2.0403551e+50 7.5262654e+48 -1.20994e+49)
(-2.0314657e+50 8.7806488e+48 -1.2934882e+49)
(-2.0326354e+50 8.8887254e+48 -1.2038042e+49)
(-2.0888919e+50 7.6116686e+48 -1.2115634e+49)
(-2.0836601e+50 7.358766e+48 -1.362337e+49)
(-2.076764e+50 9.2982752e+48 -1.438714e+49)
(-2.0762095e+50 9.3308662e+48 -1.3289166e+49)
(-2.0436075e+50 7.8845768e+48 -1.1242608e+49)
(-2.0273147e+50 7.2324653e+48 -1.2813056e+49)
(-2.0166402e+50 9.7562054e+48 -1.3148126e+49)
(-2.0179218e+50 9.8889291e+48 -1.2431303e+49)
(-2.075732e+50 7.1978898e+48 -1.3232806e+49)
(-2.0762591e+50 6.7212567e+48 -1.4172171e+49)
(-2.0628173e+50 1.0026396e+49 -1.4383364e+49)
(-2.0604125e+50 1.0079247e+49 -1.3511824e+49)
(-2.8125294e+50 3.6745459e+48 2.5847692e+49)
(-2.672359e+50 6.4243952e+48 1.9547588e+49)
(-2.6745781e+50 2.4387983e+48 1.9564443e+49)
(-2.6618445e+50 6.2428028e+48 1.3204841e+49)
(-2.6384267e+50 2.650683e+48 1.3269686e+49)
(-2.6520051e+50 4.4297476e+48 9.1428541e+48)
(-2.6459144e+50 4.6554177e+48 9.2949092e+48)
(-2.4601909e+50 5.3456308e+48 3.1829229e+48)
(-2.7162401e+50 4.5953145e+48 1.0094856e+49)
(-2.3504821e+50 5.2094112e+48 3.3807972e+48)
(-2.6618219e+50 4.0283099e+48 1.0401007e+49)
(-2.8741096e+50 8.4350361e+48 -6.0403708e+48)
(-2.8734453e+50 6.6860211e+48 -6.5557117e+48)
(-2.479557e+50 1.2435357e+49 2.4407803e+48)
(-2.738485e+50 1.0290627e+49 -2.4590382e+48)
(-2.4518869e+50 1.5120963e+49 2.8742e+48)
(-2.7117939e+50 1.1672499e+49 -1.4735083e+48)
(-2.8617337e+50 9.0575784e+48 3.9355236e+47)
(-2.8561046e+50 1.0110579e+49 1.3242237e+48)
(-3.0095307e+50 9.3676702e+48 -1.8769129e+47)
(-2.5539077e+50 1.2716623e+49 -6.1701058e+48)
(-2.5679361e+50 9.8186668e+48 -5.6044162e+48)
(-3.0179254e+50 9.9407463e+48 -7.634779e+47)
(-2.5774619e+50 8.1515876e+48 -5.8520383e+48)
(-2.5628558e+50 1.0406974e+49 -6.9885062e+48)
(-2.3249037e+50 1.9699527e+49 5.5742156e+48)
(-2.2640575e+50 1.6157291e+49 5.0350871e+48)
(-2.51235e+50 1.4972159e+49 2.5418094e+48)
(-2.7307729e+50 1.1233131e+49 2.3249037e+48)
(-2.3251556e+50 2.2618469e+49 5.2756417e+48)
(-2.2122047e+50 1.8546212e+49 5.0147919e+48)
(-2.4919223e+50 1.6536128e+49 2.8084771e+48)
(-2.7096256e+50 1.1792014e+49 2.8953174e+48)
(-2.7923825e+50 9.1185235e+48 6.8791387e+48)
(-2.8023099e+50 8.9641441e+48 5.9756284e+48)
(-2.9486711e+50 1.0585068e+49 7.3636733e+48)
(-2.5233595e+50 8.8016034e+48 1.2032621e+49)
(-2.5300789e+50 1.1327742e+49 1.080412e+49)
(-2.6123847e+50 1.3001221e+49 1.1793143e+48)
(-2.5693476e+50 1.0799539e+49 3.7762547e+48)
(-2.9347588e+50 8.4045999e+48 8.1376675e+48)
(-2.4983687e+50 1.1261284e+49 1.1736938e+49)
(-2.5001203e+50 9.510332e+48 1.2442558e+49)
(-2.5362283e+50 1.1863842e+49 4.7245182e+48)
(-2.5806987e+50 1.3226664e+49 2.3870004e+48)
(-2.3270331e+50 1.8865342e+49 4.8681483e+48)
(-2.3161148e+50 1.3999338e+49 4.627169e+48)
(-2.5523201e+50 1.2674368e+49 3.673008e+48)
(-2.7508825e+50 9.2351872e+48 5.5595475e+48)
(-2.3045403e+50 1.6465316e+49 4.9015146e+48)
(-2.2909496e+50 1.2075339e+49 4.7258433e+48)
(-2.5058582e+50 1.150462e+49 4.2104715e+48)
(-2.7168658e+50 7.602221e+48 6.4262469e+48)
(-2.7741871e+50 6.7812947e+48 8.6485127e+48)
(-2.7862268e+50 7.1793796e+48 7.8844164e+48)
(-2.5118242e+50 8.7798205e+48 4.382806e+48)
(-2.7133468e+50 6.2404837e+48 6.8997848e+48)
(-2.4903826e+50 8.7330019e+48 4.6756431e+48)
(-2.7027808e+50 5.7456619e+48 7.0240046e+48)
(-2.2828333e+50 7.068933e+48 5.2068833e+48)
(-2.5528628e+50 6.4343336e+48 3.3345212e+48)
(-2.2358821e+50 5.1828411e+48 5.9612961e+48)
(-2.4795413e+50 5.5190669e+48 3.776914e+48)
(-2.6285823e+50 1.2557698e+49 -2.1688246e+48)
(-2.5799841e+50 1.1733041e+49 -1.1007045e+48)
(-2.6484431e+50 1.1011663e+49 -1.4357697e+49)
(-2.6545662e+50 1.0782049e+49 -1.5481072e+49)
(-2.6609029e+50 1.1463374e+49 -3.3910691e+48)
(-2.2254206e+50 1.0645559e+49 -1.2995325e+49)
(-2.2220754e+50 7.6651215e+48 -1.2196092e+49)
(-2.2201777e+50 8.9819711e+48 -1.9627578e+49)
(-2.2292112e+50 1.1994419e+49 -2.0455111e+49)
(-2.6104096e+50 1.0504252e+49 -6.648543e+47)
(-2.1932081e+50 1.0839588e+49 -1.0832139e+49)
(-2.1983277e+50 9.472003e+48 -1.0873923e+49)
(-2.6682542e+50 8.1441383e+48 -1.5843408e+49)
(-2.6605277e+50 8.3890759e+48 -1.4241327e+49)
(-2.483302e+50 3.9666919e+48 1.7809209e+49)
(-2.4832219e+50 6.0121452e+48 1.7747756e+49)
(-2.586655e+50 3.8383747e+48 9.8860389e+48)
(-2.7527233e+50 3.8787708e+48 -2.7617471e+49)
(-2.2739817e+50 6.52584e+48 -1.2249904e+49)
(-2.0523961e+50 5.0111984e+48 -9.3955278e+48)
(-2.044068e+50 4.7455943e+48 -1.0499224e+49)
(-2.0423648e+50 4.6690373e+48 -1.0382494e+49)
(-2.0392916e+50 4.5996474e+48 -1.1111234e+49)
(-2.0281351e+50 3.7672935e+48 -1.1367219e+49)
(-2.0280068e+50 4.4868103e+48 -1.1579445e+49)
(-2.2821411e+50 5.5618357e+48 -1.2134689e+49)
(-2.2719574e+50 6.9004808e+48 -1.33439e+49)
(-2.568602e+50 6.4778029e+48 -9.9134783e+48)
(-2.5531058e+50 5.4780206e+48 -9.0301111e+48)
(-2.1753069e+50 6.5803429e+48 -1.566437e+49)
(-2.1839478e+50 6.1694564e+48 -1.5459966e+49)
(-2.365291e+50 6.4900696e+48 -2.7155754e+49)
(-2.2868831e+50 6.820434e+48 -2.2546119e+49)
(-2.240192e+50 6.9400945e+48 -2.4756762e+49)
(-2.2499055e+50 5.9888794e+48 -2.4692685e+49)
(-2.4092398e+50 6.0522933e+48 -1.3864825e+49)
(-2.401385e+50 6.8822444e+48 -1.4479573e+49)
(-2.3103815e+50 5.8710618e+48 -1.60866e+49)
(-2.3002873e+50 6.8289942e+48 -1.7049387e+49)
(-2.3276488e+50 5.9167852e+48 -1.3552985e+49)
(-2.3234007e+50 7.2765173e+48 -1.4256078e+49)
(-2.3041702e+50 5.7030114e+48 -1.6146592e+49)
(-2.2987306e+50 6.6597362e+48 -1.5801375e+49)
(-2.3362818e+50 5.5528929e+48 -1.2638845e+49)
(-2.3262124e+50 6.6077943e+48 -1.2694318e+49)
(-2.2307119e+50 6.8171003e+48 -2.4714723e+49)
(-2.236898e+50 6.2413298e+48 -2.4875775e+49)
(-2.4025813e+50 5.6941779e+48 -1.3876275e+49)
(-2.3945276e+50 6.6025555e+48 -1.363465e+49)
(-2.0377313e+50 3.9975718e+48 -9.7317424e+48)
(-2.3623169e+50 7.4093747e+48 -1.1970857e+49)
(-2.3943221e+50 8.3912249e+48 -1.1528508e+49)
(-2.0473477e+50 7.1410614e+48 -9.0966817e+48)
(-2.0938492e+50 1.7743907e+48 -2.5521836e+49)
(-2.0873095e+50 9.685892e+48 -2.52855e+49)
(-2.3851695e+50 6.5955527e+48 -1.350491e+49)
(-2.3767891e+50 8.0383021e+48 -1.3371824e+49)
(-2.0576763e+50 4.4855049e+48 -9.5619424e+48)
(-2.0644374e+50 8.7960442e+48 -9.4244012e+48)
(-2.180661e+50 7.3790142e+48 9.660339e+48)
(-2.0796841e+50 3.4006361e+48 -2.4621003e+49)
(-2.0696216e+50 1.1485686e+49 -2.4238944e+49)
(-2.1856782e+50 2.3653061e+48 9.1404349e+48)
(-2.3759193e+50 7.3674278e+48 -1.2520905e+49)
(-2.3801774e+50 8.9826909e+48 -1.2704202e+49)
(-2.053392e+50 5.0525894e+48 -8.5406376e+48)
(-2.0500623e+50 9.2473048e+48 -8.7292172e+48)
(-2.3467127e+50 8.2269232e+48 -1.2030268e+49)
(-2.0362001e+50 6.3855546e+48 -7.6471582e+48)
(-2.3699283e+50 6.7214638e+48 -1.1787189e+49)
(-2.0176261e+50 1.0092245e+49 -8.0119361e+48)
(-2.1760993e+50 5.7543514e+48 -1.3187837e+49)
(-2.1348117e+50 5.4925604e+48 -1.9291769e+49)
(-2.1268169e+50 7.5155932e+48 -1.7331415e+49)
(-2.1643526e+50 7.3008426e+48 -1.3046223e+49)
(-2.1955756e+50 6.3921994e+48 -1.6862555e+49)
(-2.0889106e+50 5.7320317e+48 -2.6988341e+49)
(-2.0935898e+50 8.6636726e+48 -2.5568513e+49)
(-2.1997281e+50 9.2349857e+48 -1.6385938e+49)
(-2.1078238e+50 6.6800253e+48 -2.5079019e+49)
(-2.1001621e+50 4.7425149e+48 -2.6017519e+49)
(-2.1708009e+50 5.2516334e+48 -1.7585575e+49)
(-2.1745402e+50 6.6918802e+48 -1.7020845e+49)
(-2.1453255e+50 4.0311813e+48 -1.4314234e+49)
(-2.1030099e+50 4.5958809e+48 -1.8490687e+49)
(-2.1078131e+50 5.8692269e+48 -1.7808594e+49)
(-2.1451147e+50 5.8436083e+48 -1.4163874e+49)
(-2.0900226e+50 5.0825741e+48 -1.0373118e+49)
(-2.0773923e+50 4.8259363e+48 -1.1913428e+49)
(-2.0748543e+50 5.2782995e+48 -1.193701e+49)
(-2.078631e+50 5.0177966e+48 -1.1047387e+49)
(-2.1319506e+50 5.1365132e+48 -1.1914782e+49)
(-2.1227258e+50 5.0733836e+48 -1.4696391e+49)
(-2.1239607e+50 6.2733733e+48 -1.3510077e+49)
(-2.1236399e+50 6.0517529e+48 -1.2125954e+49)
(-2.1069098e+50 5.3144221e+48 -1.4153058e+49)
(-2.1044375e+50 3.762637e+48 -1.4221475e+49)
(-2.109921e+50 3.9252401e+48 -1.2410999e+49)
(-2.1094336e+50 5.3084402e+48 -1.2690587e+49)
(-2.066349e+50 3.9389271e+48 -1.1513303e+49)
(-2.0646959e+50 3.6655519e+48 -1.2030296e+49)
(-2.0652281e+50 4.7097725e+48 -1.232576e+49)
(-2.0644078e+50 4.7812468e+48 -1.1770102e+49)
(-2.1002564e+50 4.1068068e+48 -1.1355986e+49)
(-2.0806115e+50 3.672956e+48 -1.3940256e+49)
(-2.0812842e+50 6.0912494e+48 -1.356891e+49)
(-2.0911148e+50 5.6992142e+48 -1.2382538e+49)
(-2.134008e+50 3.9736829e+48 -1.3393963e+49)
(-2.140069e+50 3.9150851e+48 -1.4858496e+49)
(-2.1350231e+50 7.1110073e+48 -1.5477362e+49)
(-2.1303676e+50 6.6789963e+48 -1.3951874e+49)
(-2.1326463e+50 6.6477244e+48 -1.4969369e+49)
(-2.1268097e+50 4.2651893e+48 -1.4644311e+49)
(-2.1329046e+50 4.1628418e+48 -1.3366935e+49)
(-2.1261955e+50 6.328128e+48 -1.3646427e+49)
(-2.0874279e+50 4.3977054e+48 -1.1926757e+49)
(-2.0829106e+50 4.0713199e+48 -1.2954145e+49)
(-2.0795803e+50 5.8157371e+48 -1.315848e+49)
(-2.0802013e+50 5.6246785e+48 -1.2422884e+49)
(-2.1165262e+50 7.4195273e+48 -2.6599043e+49)
(-2.1169218e+50 4.9480864e+48 -2.6375152e+49)
(-2.21683e+50 4.6301504e+48 -1.784083e+49)
(-2.2098619e+50 7.1768341e+48 -1.857269e+49)
(-2.1257345e+50 8.5423551e+48 -2.6033198e+49)
(-2.1269803e+50 4.6378937e+48 -2.5882054e+49)
(-2.226118e+50 4.4342838e+48 -1.7380343e+49)
(-2.218206e+50 8.7322413e+48 -1.8440472e+49)
(-2.1464659e+50 7.5880605e+48 -1.8915413e+49)
(-2.1538378e+50 4.1370205e+48 -1.8118183e+49)
(-2.1807289e+50 4.0964813e+48 -1.5248917e+49)
(-2.1783301e+50 7.8757639e+48 -1.5554807e+49)
(-2.1777207e+50 4.4360656e+48 -1.488982e+49)
(-2.140828e+50 4.8139391e+48 -1.8671008e+49)
(-2.1393441e+50 6.9052378e+48 -1.8891155e+49)
(-2.1728621e+50 7.1976132e+48 -1.5313147e+49)
(-2.1829015e+50 5.9153762e+48 -1.3932121e+49)
(-2.1474243e+50 5.7135305e+48 -1.9539077e+49)
(-2.1329636e+50 7.4050229e+48 -1.8356612e+49)
(-2.1660194e+50 7.3981046e+48 -1.4673348e+49)
(-2.2220417e+50 6.409513e+48 -1.7031177e+49)
(-2.1161779e+50 6.170406e+48 -2.661377e+49)
(-2.1148449e+50 8.7513906e+48 -2.594587e+49)
(-2.210445e+50 8.7273843e+48 -1.7707431e+49)
(-2.1132715e+50 8.3196003e+48 -2.601191e+49)
(-2.1155982e+50 4.9857136e+48 -2.6113863e+49)
(-2.2169926e+50 4.2936473e+48 -1.7521401e+49)
(-2.2050077e+50 7.6888819e+48 -1.8391816e+49)
(-2.1754612e+50 3.7297165e+48 -1.4908292e+49)
(-2.1382166e+50 4.2144637e+48 -1.8566405e+49)
(-2.1345536e+50 7.1297473e+48 -1.8684784e+49)
(-2.165203e+50 7.0818798e+48 -1.5525692e+49)
(-2.1357786e+50 5.3497755e+48 -1.2629584e+49)
(-2.1271036e+50 5.2443248e+48 -1.5214072e+49)
(-2.1260362e+50 6.4149498e+48 -1.31145e+49)
(-2.1245018e+50 6.6072788e+48 -1.4681245e+49)
(-2.0817942e+50 5.1522421e+48 -1.1868744e+49)
(-2.0799747e+50 5.0304299e+48 -1.2711776e+49)
(-2.0726783e+50 5.7520611e+48 -1.3053758e+49)
(-2.0766452e+50 5.6144646e+48 -1.2061682e+49)
(-2.1261608e+50 3.8155011e+48 -1.474546e+49)
(-2.1264286e+50 4.0999797e+48 -1.341019e+49)
(-2.1208373e+50 6.7285673e+48 -1.4188194e+49)
(-2.125329e+50 6.620869e+48 -1.5281588e+49)
(-2.0727054e+50 6.3432125e+48 -1.3687428e+49)
(-2.0782505e+50 4.0351426e+48 -1.3045575e+49)
(-2.0768511e+50 4.6424361e+48 -1.2562456e+49)
(-2.10251e+50 7.1174839e+48 -1.4045348e+49)
(-2.0970865e+50 5.6149168e+48 -1.4632083e+49)
(-2.1027194e+50 7.0680329e+48 -1.2964431e+49)
(-2.1092763e+50 5.9220836e+48 -1.2635939e+49)
(-2.1268593e+50 8.6983874e+48 -1.5486248e+49)
(-2.1313788e+50 5.3262454e+48 -1.4918307e+49)
(-2.1344332e+50 5.4991886e+48 -1.3445037e+49)
(-2.122055e+50 8.2724292e+48 -1.3870822e+49)
(-2.0733017e+50 7.70645e+48 -1.3505271e+49)
(-2.0858791e+50 5.4992188e+48 -1.2974968e+49)
(-2.107106e+50 9.1593405e+48 -2.6347977e+49)
(-2.1110944e+50 5.8399408e+48 -2.6210984e+49)
(-2.2155879e+50 5.5760851e+48 -1.8185094e+49)
(-2.2139302e+50 9.3892013e+48 -1.8214189e+49)
(-2.1341312e+50 9.0472939e+48 -1.9308462e+49)
(-2.1728944e+50 5.5240661e+48 -1.5445689e+49)
(-2.1400849e+50 5.7308066e+48 -1.8804129e+49)
(-2.1695044e+50 9.4161924e+48 -1.5732273e+49)
(-2.155397e+50 5.8239379e+48 -1.3145236e+49)
(-2.1034386e+50 5.9158783e+48 -1.8527675e+49)
(-2.1027995e+50 7.516194e+48 -1.7845122e+49)
(-2.1379521e+50 7.500467e+48 -1.4233862e+49)
(-2.2049374e+50 5.5638875e+48 -1.5142283e+49)
(-2.0785225e+50 5.9127923e+48 -2.6346935e+49)
(-2.0705342e+50 8.184864e+48 -2.6996969e+49)
(-2.1699319e+50 8.0685457e+48 -1.7785312e+49)
(-2.0694906e+50 2.235249e+48 3.998039e+48)
(-2.074264e+50 7.9654326e+48 5.1710723e+48)
(-1.8747498e+50 4.185303e+47 8.5918721e+48)
(-1.8740881e+50 9.8541355e+48 8.8882462e+48)
(-1.9217449e+50 2.2026666e+48 -2.7542791e+49)
(-1.9461932e+50 1.1019764e+49 -2.6953757e+49)
(-1.9534215e+50 2.5635562e+48 -2.6772782e+49)
(-1.9508901e+50 1.2624422e+49 -2.6703446e+49)
(-2.1211345e+50 7.3822539e+48 -2.2290005e+49)
(-1.973924e+50 4.436492e+48 -1.5925421e+49)
(-1.986222e+50 1.0673354e+49 -1.424621e+49)
(-2.1404579e+50 1.1439077e+49 -2.087303e+49)
(-2.1531343e+50 5.5580119e+48 -2.1696723e+49)
(-2.0075283e+50 3.556229e+48 -1.4867972e+49)
(-2.0227187e+50 1.1430244e+49 -1.4589108e+49)
(-2.1534784e+50 1.0646295e+49 -2.1421592e+49)
(-2.021751e+50 1.167712e+49 -1.4431086e+49)
(-2.0216562e+50 4.019863e+48 -1.464798e+49)
(-2.1535179e+50 6.3092515e+48 -2.1550585e+49)
(-2.1573102e+50 1.1655279e+49 -2.1378212e+49)
(-2.0029153e+50 1.2019878e+49 -1.5297439e+49)
(-2.0109451e+50 5.0006276e+48 -1.4244695e+49)
(-2.1507082e+50 5.5354512e+48 -2.0874038e+49)
(-2.1336841e+50 1.0194713e+49 -2.1921681e+49)
(-1.8687918e+50 2.604443e+48 9.0971385e+48)
(-1.9364117e+50 3.710756e+48 -2.6815381e+49)
(-1.9364273e+50 1.3200664e+49 -2.6534173e+49)
(-2.1245853e+50 7.4097148e+48 -2.1370006e+49)
(-1.9876311e+50 5.3753074e+48 -1.4979699e+49)
(-1.9829948e+50 1.2261951e+49 -1.4290313e+49)
(-2.1274278e+50 1.2230007e+49 -2.087985e+49)
(-2.1234816e+50 6.2384957e+48 -2.0570576e+49)
(-1.9884707e+50 5.5308646e+48 -1.3959462e+49)
(-1.9824369e+50 1.3861675e+49 -1.4718636e+49)
(-2.1082231e+50 1.2175649e+49 -2.1263187e+49)
(-1.8726297e+50 1.1673121e+49 8.9754537e+48)
(-2.0644831e+50 3.9991833e+48 5.3069345e+48)
(-2.0611487e+50 9.6270499e+48 4.4268171e+48)
(-2.0312636e+50 7.3055394e+48 -2.8716366e+49)
(-2.0340017e+50 8.6245385e+48 -2.9135581e+49)
(-1.9825395e+50 7.1212699e+48 -2.2270506e+49)
(-1.9815658e+50 8.4439611e+48 -2.2830305e+49)
(-2.0176349e+50 7.464052e+48 -3.0350396e+49)
(-2.0045179e+50 9.4583485e+48 -3.0506116e+49)
(-1.9664534e+50 7.1851918e+48 -2.3508798e+49)
(-1.9560816e+50 8.9148018e+48 -2.2943052e+49)
(-1.8845533e+50 8.1570018e+48 -1.7300343e+49)
(-1.8385999e+50 7.6629171e+48 -1.1972899e+49)
(-1.8411194e+50 6.3750829e+48 -1.3625591e+49)
(-1.8898264e+50 6.7623518e+48 -1.8582095e+49)
(-1.9071348e+50 7.9787604e+48 -1.7997427e+49)
(-1.8580815e+50 7.5059821e+48 -1.3208775e+49)
(-1.8626928e+50 6.6184889e+48 -1.247554e+49)
(-1.9109026e+50 6.8972966e+48 -1.7287655e+49)
(-1.8220426e+50 6.3157706e+48 -1.0360872e+49)
(-1.8202152e+50 7.08525e+48 -1.0501857e+49)
(-1.778757e+50 6.7191631e+48 -8.6924841e+48)
(-1.7822734e+50 6.0751214e+48 -8.399763e+48)
(-1.8016728e+50 5.948137e+48 -1.1191538e+49)
(-1.8033379e+50 7.1634717e+48 -9.1312024e+48)
(-1.7643728e+50 6.8574018e+48 -7.1904482e+48)
(-1.7628173e+50 5.7576934e+48 -8.9785583e+48)
(-1.7265314e+50 5.6402469e+48 -7.6032822e+48)
(-1.7452001e+50 5.9507265e+48 -7.1941531e+48)
(-1.7410537e+50 6.4610382e+48 -7.4651726e+48)
(-1.7058752e+50 6.3204405e+48 -6.2130759e+48)
(-1.7099661e+50 5.9632678e+48 -6.1128139e+48)
(-1.8102374e+50 6.7346596e+48 -9.9456959e+48)
(-1.8049679e+50 7.1948556e+48 -1.1424053e+49)
(-1.7586589e+50 7.0626862e+48 -9.8488478e+48)
(-1.7682812e+50 6.620895e+48 -8.5936807e+48)
(-1.8107111e+50 6.4184186e+48 -1.1438517e+49)
(-1.82484e+50 7.111337e+48 -1.0190555e+49)
(-1.781421e+50 6.6711187e+48 -8.5855968e+48)
(-1.7610939e+50 6.1814853e+48 -1.0791387e+49)
(-1.7100627e+50 6.4771705e+48 -5.9714143e+48)
(-1.7448342e+50 6.443555e+48 -7.1957116e+48)
(-1.7295696e+50 6.1623182e+48 -8.5216051e+48)