/*--------------------------------*- C++ -*----------------------------------*\
  =========                 |
  \\      /  F ield         | OpenFOAM: The Open Source CFD Toolbox
   \\    /   O peration     | Website:  https://openfoam.org
    \\  /    A nd           | Version:  7
     \\/     M anipulation  |
\*---------------------------------------------------------------------------*/
FoamFile
{
    version     2.0;
    format      ascii;
    class       volScalarField;
    location    "10000";
    object      nut;
}
// * * * * * * * * * * * * * * * * * * * * * * * * * * * * * * * * * * * * * //

dimensions      [0 2 -1 0 0 0 0];

internalField   nonuniform List<scalar> 
33730
(
5.8528673e-57
1.227837e-58
1.2582186e-56
1.1142844e-57
2.5768264e-58
5.5142277e-58
3.0171186e-58
9.3928777e-58
1.5139727e-58
5.5614608e-59
8.6527738e-59
1.1996646e-58
1.58052e-58
1.2282125e-58
1.6855318e-58
1.8267766e-58
4.1854034e-57
4.5798731e-57
2.4628456e-58
2.5571016e-58
2.2194669e-57
5.7004209e-58
5.560837e-58
2.4791677e-58
6.6255382e-58
2.3110791e-58
2.0854787e-58
1.5263908e-58
1.5470129e-58
4.8173369e-58
5.7012509e-58
2.1048611e-58
2.5264586e-58
9.1036786e-59
5.6432494e-59
5.7458722e-59
8.9696075e-59
6.1378298e-59
8.9101645e-59
6.425724e-59
8.3444867e-59
2.4015794e-59
1.1021742e-58
1.1663235e-58
1.4002762e-58
2.8767424e-59
2.8634439e-59
1.8971118e-58
1.8267928e-58
1.0157565e-58
1.068767e-58
1.6351134e-58
1.7941752e-58
6.3711207e-59
5.3947794e-59
2.3246979e-58
2.9781329e-58
6.6596315e-59
2.7776129e-58
3.2697202e-58
7.4465857e-59
2.6744009e-58
2.9213413e-58
2.4476786e-57
2.2475446e-57
3.0127394e-58
2.9768127e-58
2.4522111e-57
2.3676002e-57
1.0623521e-58
1.2128407e-58
1.2365313e-58
1.8472913e-58
1.8019339e-58
2.2280375e-58
2.2417411e-58
9.7255853e-58
1.0550604e-57
1.6145381e-58
2.1428598e-58
2.2089044e-58
1.6436842e-58
2.0418273e-58
2.2572625e-58
1.3222534e-58
1.5344439e-58
9.7164144e-59
9.9576405e-59
8.0086927e-59
7.8271569e-59
8.591e-59
9.1488918e-59
7.0868511e-59
7.2985232e-59
1.8114616e-58
2.0502468e-58
1.2184564e-58
1.4559564e-58
2.2477368e-58
1.8553249e-58
2.3554616e-58
1.6871378e-58
3.8387573e-59
4.1168985e-59
2.96105e-59
3.0907815e-59
1.2929484e-58
1.1119321e-58
1.0898012e-58
1.2336396e-58
8.5625715e-59
5.9793774e-59
6.4068143e-59
7.8944359e-59
9.7285158e-59
6.9755211e-59
6.7933632e-59
2.5029028e-59
8.6447194e-59
2.8601331e-59
1.3633692e-58
1.1673071e-58
1.1561173e-58
1.2945955e-58
4.2359702e-59
4.2034108e-59
4.3640578e-59
2.8552262e-59
4.3726488e-59
5.0647897e-59
5.1052228e-59
4.6849781e-59
4.752745e-59
4.1100833e-59
4.0987989e-59
4.1913032e-59
4.2369919e-59
2.6424292e-59
5.0656791e-59
5.0266813e-59
4.7546683e-59
4.8222919e-59
2.963812e-59
2.9377721e-59
6.4777762e-59
6.3838522e-59
6.709504e-59
6.4951411e-59
6.6624537e-59
6.4716683e-59
6.6574739e-59
9.3468472e-59
1.0028016e-58
9.0679484e-59
9.7661705e-59
9.2504356e-59
7.4158489e-59
2.0814155e-59
2.1647063e-59
1.3642709e-59
1.3594438e-59
2.6437328e-59
2.680383e-59
1.4704501e-59
1.0446322e-58
1.0680267e-58
1.0649983e-58
9.7026214e-59
5.2179866e-59
5.3881142e-59
5.6557109e-59
5.7686942e-59
9.0609111e-59
9.7792496e-59
1.1132041e-58
1.1305767e-58
1.0801122e-58
9.8240057e-59
8.358534e-59
7.8624765e-59
1.0442777e-58
1.0892614e-58
8.6843414e-59
1.117382e-58
1.0927053e-58
8.5263239e-59
1.2483127e-58
1.2531065e-58
1.8151769e-58
1.7720156e-58
1.8271811e-58
1.2876035e-58
1.2894209e-58
1.8768883e-58
2.3933244e-58
2.3479267e-58
9.9199573e-58
9.612828e-58
2.246511e-58
2.2575414e-58
9.1780663e-58
9.8664191e-58
1.269118e-58
1.3274263e-58
1.8810957e-58
1.7873854e-58
1.2865156e-58
1.2844437e-58
1.7903224e-58
1.8833863e-58
2.2529816e-58
9.8668235e-58
9.5902943e-58
2.3375931e-58
2.2486194e-58
2.2900164e-58
9.4784067e-58
1.0072891e-57
1.9925852e-58
1.3280656e-58
1.3649939e-58
8.3101522e-59
8.3946207e-59
1.1191921e-58
1.1094399e-58
8.3018269e-59
8.6815365e-59
1.1149034e-58
1.0575063e-58
8.7538226e-59
8.6351472e-59
8.0658982e-59
2.1302725e-58
8.6042727e-59
2.2984298e-58
8.6521939e-59
8.5240658e-59
2.289331e-58
2.3593123e-58
7.0462988e-59
8.9428131e-59
9.003226e-59
7.0383655e-59
9.0885004e-59
8.9939628e-59
7.9065695e-59
7.5652776e-59
8.7266612e-59
9.0742601e-59
6.7908901e-59
7.1313314e-59
9.6923686e-59
9.5714166e-59
7.8696756e-59
7.8048651e-59
7.5678154e-59
7.1016996e-59
2.4566922e-59
2.435365e-59
7.8216378e-59
7.8909413e-59
2.5910884e-59
2.5137321e-59
6.8802619e-59
6.4503934e-59
2.248566e-59
2.2642633e-59
2.3481746e-59
7.2074437e-59
7.174154e-59
2.3742159e-59
7.501735e-59
8.0677715e-59
6.1294041e-59
6.3920639e-59
7.0528028e-59
8.7845693e-59
8.9714105e-59
7.0377084e-59
9.130864e-59
9.2930203e-59
7.6481807e-59
7.554547e-59
8.2030127e-59
9.4118519e-59
9.3669211e-59
7.9424845e-59
3.6516041e-59
2.2674375e-59
2.5564234e-59
3.0755055e-59
2.9088896e-59
2.5811706e-59
3.0351479e-59
2.8903872e-59
3.4252472e-59
3.4552731e-59
4.1632009e-59
4.2464909e-59
3.2058531e-59
3.0646006e-59
3.8556952e-59
8.6830005e-59
8.2732648e-59
8.1636099e-59
8.9804166e-59
9.4994444e-59
8.7786405e-59
8.8752237e-59
9.0894243e-59
6.5515811e-59
6.4524636e-59
6.6059152e-59
6.3958661e-59
5.9718854e-59
6.5314583e-59
6.2140642e-59
6.1685915e-59
4.2075796e-59
4.8231909e-59
4.6337542e-59
4.3759908e-59
4.0946886e-59
3.9637517e-59
4.3985775e-59
4.2922313e-59
4.3471935e-59
2.9081351e-59
4.4177e-59
5.1410375e-59
4.812025e-59
5.0307153e-59
4.8396669e-59
3.0658716e-59
4.6697833e-59
5.3670242e-59
5.1242356e-59
4.7707592e-59
4.4977398e-59
4.3563123e-59
4.0852992e-59
4.3802109e-59
3.0125877e-59
4.3737315e-59
4.2490121e-59
4.2558723e-59
2.8592828e-59
4.333348e-59
3.2275281e-59
3.062716e-59
5.0743851e-59
4.7690393e-59
5.0144317e-59
4.7483871e-59
7.68832e-59
8.3977944e-59
2.0420834e-59
2.200311e-59
1.4443015e-59
1.4377055e-59
2.5885231e-59
1.4215734e-59
2.3119263e-59
8.4053325e-59
7.8952613e-59
8.3128349e-59
8.8976407e-59
5.5360793e-59
5.7899147e-59
5.4285092e-59
5.9094085e-59
6.785949e-59
6.5695319e-59
6.5695567e-59
6.6801808e-59
9.2935438e-59
1.0426894e-58
9.278488e-59
1.0422568e-58
2.720312e-59
2.8802216e-59
3.4490378e-59
3.268911e-59
3.1135767e-59
2.6949764e-59
2.721024e-59
3.5602046e-59
3.0732088e-59
3.0641039e-59
3.4827074e-59
3.2625541e-59
3.5532216e-59
3.2996318e-59
3.9942774e-59
4.003132e-59
3.5604322e-59
3.386888e-59
3.7645218e-59
3.4835217e-59
4.620364e-59
4.5573707e-59
4.2175307e-59
4.1272074e-59
4.4322247e-59
4.0386467e-59
4.6289201e-59
4.1540008e-59
4.9096629e-59
4.029685e-59
4.8082915e-59
4.7231354e-59
3.8687622e-59
4.8609253e-59
3.9533008e-59
2.6982716e-59
2.748698e-59
3.1251296e-59
3.1469643e-59
3.0895187e-59
2.5819128e-59
2.7478724e-59
3.1348106e-59
3.0882529e-59
2.9238217e-59
3.5589172e-59
3.4024627e-59
3.5993316e-59
3.3390408e-59
3.4275214e-59
3.2736632e-59
3.6503155e-59
3.4033635e-59
3.1753151e-59
3.401395e-59
4.5808903e-59
4.15174e-59
4.7586715e-59
4.2743998e-59
4.3681126e-59
3.9462713e-59
4.464014e-59
4.0005316e-59
4.6304787e-59
3.7866313e-59
4.7109032e-59
3.8324528e-59
4.8755968e-59
3.9904908e-59
5.0411129e-59
4.1139741e-59
2.9639253e-59
3.2149823e-59
2.973251e-59
3.2989959e-59
3.1395083e-59
3.3969065e-59
3.8605178e-59
3.6431835e-59
4.6975417e-59
4.8100869e-59
4.0302262e-59
4.0718885e-59
4.4809134e-59
3.6303924e-59
4.5158226e-59
3.6446555e-59
4.8467828e-59
4.1701679e-59
4.3117826e-59
4.3352439e-59
3.4591862e-59
3.4623372e-59
4.776459e-59
4.0848017e-59
4.9863673e-59
4.2279663e-59
4.551684e-59
3.9014376e-59
4.6315085e-59
3.9269187e-59
4.5216779e-59
4.6770005e-59
3.6564315e-59
3.7597113e-59
4.6790239e-59
4.3094704e-59
4.8741468e-59
4.4393155e-59
5.2737463e-59
4.1127515e-59
5.3357979e-59
4.2009733e-59
4.4143133e-59
4.0623467e-59
4.4546058e-59
4.0794483e-59
4.9406752e-59
3.8683619e-59
4.9475289e-59
3.9561149e-59
4.3326851e-59
4.6877109e-59
4.7281856e-59
1.359535e-59
7.7841318e-60
1.2943752e-59
1.3126075e-59
7.9450296e-60
1.0345566e-59
9.8603338e-60
6.8833403e-60
6.7040582e-60
1.4629813e-59
1.4451262e-59
1.3495257e-59
1.2497083e-59
1.3499164e-59
1.5549549e-59
1.59334e-59
1.1859002e-59
1.0190278e-59
1.0550903e-59
6.8357874e-60
6.8473665e-60
1.0705476e-59
6.7263944e-60
6.8418345e-60
1.3664583e-59
1.3401557e-59
1.4431186e-59
1.2813874e-59
5.5557437e-59
5.4550328e-59
5.1809567e-59
5.1034915e-59
5.6105782e-59
5.723497e-59
5.0871033e-59
5.2855506e-59
2.1899409e-59
2.1937479e-59
2.2306291e-59
2.3290965e-59
2.3170954e-59
2.3006831e-59
2.4436137e-59
2.4073567e-59
4.5903363e-59
4.8142239e-59
5.1134243e-59
5.1858051e-59
5.4869882e-59
5.4687772e-59
5.7213287e-59
5.7387432e-59
2.1196364e-58
2.0702766e-58
1.0891034e-58
8.7486726e-59
8.6017605e-59
1.7269571e-58
1.367518e-58
1.2932471e-58
1.8879673e-58
1.4132208e-58
1.3880197e-58
9.9961254e-59
1.9695774e-58
1.3788441e-58
1.4004457e-58
2.0601914e-58
1.3988498e-58
1.3420994e-58
8.6149607e-59
8.4127228e-59
8.4363973e-59
8.6138688e-59
8.7575135e-59
1.1614884e-58
1.1280795e-58
8.8376671e-59
9.12451e-59
1.1466463e-58
1.0780026e-58
8.901264e-59
9.1764356e-59
7.9849996e-59
2.1757105e-58
8.4839362e-59
2.3180393e-58
8.3264212e-59
2.3032538e-58
8.1855665e-59
2.3093782e-58
1.1361186e-58
1.1018437e-58
8.6336691e-59
8.9005698e-59
1.119906e-58
1.0538307e-58
9.0179203e-59
8.8332171e-59
7.9180066e-59
8.3712288e-59
2.1985005e-58
2.0339415e-58
2.2134302e-58
2.2708332e-58
8.3703208e-59
8.2462761e-59
8.8302744e-59
8.4934066e-59
8.4995094e-59
8.5710181e-59
1.1182237e-58
8.7813098e-59
8.5204705e-59
1.0587139e-58
8.3126166e-59
7.9200747e-59
2.1639371e-58
2.2866991e-58
8.123664e-59
2.2679386e-58
2.2722576e-58
8.0057098e-59
1.1086302e-58
1.1319927e-58
8.7855571e-59
8.9495683e-59
1.1452742e-58
1.112137e-58
8.7565944e-59
9.0475977e-59
1.1513481e-58
1.0817544e-58
9.2320272e-59
9.0215834e-59
8.0318057e-59
8.4732461e-59
2.2679482e-58
2.1357961e-58
8.3587181e-59
2.2730843e-58
2.32654e-58
8.4574314e-59
5.8176436e-59
6.158747e-59
1.7505022e-58
7.8489713e-59
7.3677198e-59
8.7749857e-59
8.7782116e-59
8.3629862e-59
8.60229e-59
7.2606078e-59
6.9800154e-59
8.9828942e-59
8.2986529e-59
7.1332269e-59
8.2018818e-59
8.8651766e-59
7.1870604e-59
8.6081479e-59
8.4874021e-59
4.2611637e-59
4.4175184e-59
4.5845369e-59
8.8441862e-59
8.6998279e-59
4.5802458e-59
4.4975468e-59
8.891287e-59
4.6083232e-59
8.9121441e-59
8.6014133e-59
8.5099135e-59
4.4506641e-59
4.4537153e-59
2.9502271e-59
2.8201015e-59
1.8380162e-59
1.9614382e-59
3.1664984e-59
2.3918963e-59
2.4567939e-59
3.3637113e-59
1.9666175e-59
2.9024095e-59
2.8911796e-59
1.999164e-59
2.4095917e-59
2.4994528e-59
3.3801064e-59
3.3060228e-59
1.9599689e-59
2.9699004e-59
3.0687572e-59
2.0546502e-59
1.9791626e-59
2.8778657e-59
2.8271956e-59
1.9135448e-59
3.2932432e-59
2.394488e-59
2.4157133e-59
3.4269637e-59
2.3829846e-59
2.4363365e-59
3.4117911e-59
3.3596152e-59
7.3203261e-59
7.1691676e-59
2.3082774e-59
2.3631597e-59
7.290573e-59
7.5863369e-59
2.3869166e-59
2.2876505e-59
7.374503e-59
6.9771449e-59
2.3151631e-59
2.3759856e-59
7.1520333e-59
7.5274551e-59
2.4265174e-59
2.3243842e-59
7.1063598e-59
6.8656263e-59
2.2696313e-59
2.3355112e-59
7.4857633e-59
7.4267074e-59
2.3752492e-59
2.2958287e-59
8.0072947e-59
7.9620987e-59
2.631304e-59
2.4993442e-59
7.2147741e-59
2.4351535e-59
2.4778122e-59
7.7269071e-59
4.1012072e-59
3.9452523e-59
4.1259709e-59
4.17695e-59
3.7579013e-59
3.6034076e-59
3.9091491e-59
3.9710548e-59
1.9551028e-59
5.7945069e-59
6.1062173e-59
2.0165806e-59
6.776082e-59
6.5916014e-59
2.1046809e-59
2.0499278e-59
6.6250727e-59
7.1458964e-59
2.1791926e-59
2.2602044e-59
2.3598619e-59
7.5677401e-59
7.2584161e-59
2.3194867e-59
7.4865371e-59
7.0889974e-59
2.3649588e-59
2.442263e-59
7.7648651e-59
7.7797837e-59
2.5003988e-59
2.3804224e-59
7.3355231e-59
7.8413966e-59
2.4812721e-59
2.4465808e-59
8.0366033e-59
7.6883004e-59
2.5757841e-59
2.4586686e-59
6.1852995e-59
2.312523e-59
2.5678941e-59
2.8308391e-59
2.4108136e-59
8.5808018e-59
8.5957599e-59
5.9294161e-59
5.9364511e-59
7.1079917e-59
7.0647299e-59
1.0117684e-58
1.0301593e-58
1.7921179e-59
2.0593996e-59
2.3108503e-59
1.9934695e-59
5.913594e-59
5.1155325e-59
4.260945e-59
5.3762642e-59
4.2602287e-59
5.3548108e-59
4.2160186e-59
3.1778092e-59
3.2013625e-59
4.2390162e-59
4.8912321e-59
6.1310696e-59
4.8314176e-59
6.1533087e-59
1.8962585e-59
2.0167145e-59
2.2800172e-59
2.0995705e-59
2.6226441e-59
2.5427029e-59
2.3355308e-59
2.4852887e-59
1.6268636e-59
1.9250899e-59
2.159498e-59
1.8249625e-59
1.7577648e-59
1.664428e-59
1.9790249e-59
1.9593092e-59
1.8464325e-59
1.9958364e-59
1.9379109e-59
1.9820925e-59
2.0088232e-59
2.0988824e-59
2.3631204e-59
2.0827733e-59
4.6783563e-59
4.7916616e-59
4.3378391e-59
4.3636803e-59
4.2595552e-59
3.8378083e-59
4.2986402e-59
3.8609931e-59
4.686015e-59
3.6537273e-59
4.696668e-59
3.7877233e-59
5.1619978e-59
4.0756105e-59
5.1591923e-59
4.1294871e-59
4.8962411e-59
4.7391614e-59
3.7764964e-59
3.7346562e-59
4.5458558e-59
4.5668217e-59
4.2476626e-59
4.1853353e-59
4.3971582e-59
3.9939771e-59
4.3074942e-59
3.8572899e-59
5.0979833e-59
4.9706961e-59
4.0254665e-59
3.9597056e-59
4.3324038e-59
3.4615919e-59
4.2710049e-59
3.373764e-59
4.4873751e-59
4.4833329e-59
3.8735735e-59
3.805437e-59
4.6476966e-59
4.692479e-59
3.9966082e-59
3.9889512e-59
4.3798062e-59
4.3593672e-59
3.5332751e-59
3.4884689e-59
4.1145958e-59
3.2496846e-59
4.1536984e-59
3.2710206e-59
4.796053e-59
4.8848486e-59
4.0885236e-59
4.1117494e-59
4.4002346e-59
3.7170006e-59
4.5030342e-59
3.7563509e-59
4.4477615e-59
4.4996678e-59
3.5768862e-59
3.5917716e-59
3.9591595e-59
3.1810963e-59
4.1890884e-59
3.3439296e-59
4.2657422e-59
4.3441087e-59
3.8218904e-59
3.8665517e-59
4.01265e-59
3.5590014e-59
4.451101e-59
4.5177645e-59
3.6118399e-59
3.6470263e-59
3.3999458e-59
3.1702018e-59
3.5345643e-59
3.2039549e-59
2.5501683e-59
2.647462e-59
3.0454576e-59
2.9897563e-59
2.9120615e-59
2.8136064e-59
2.8783352e-59
3.5027341e-59
3.3129662e-59
3.2221458e-59
2.6057487e-59
2.7348504e-59
3.4296985e-59
3.0801584e-59
2.9563591e-59
3.4486343e-59
3.2868088e-59
3.6076764e-59
3.3594939e-59
3.5744054e-59
4.0606284e-59
3.6946835e-59
3.5141073e-59
3.7664476e-59
3.4934358e-59
4.6946492e-59
4.2638151e-59
4.6998943e-59
4.231304e-59
4.7362105e-59
3.9011589e-59
4.784918e-59
3.8934438e-59
4.385868e-59
4.0108574e-59
4.4970657e-59
4.0471353e-59
4.9800729e-59
4.1110728e-59
4.9594807e-59
4.075936e-59
3.1637762e-59
3.4130148e-59
3.8946474e-59
3.8429725e-59
4.501947e-59
3.6246905e-59
4.6367732e-59
3.702561e-59
4.6521845e-59
4.7009725e-59
4.1732132e-59
4.1785911e-59
4.2626621e-59
3.8244094e-59
4.4282835e-59
3.9285472e-59
4.8406133e-59
4.8678608e-59
3.9312385e-59
3.929385e-59
3.7121182e-59
3.4660546e-59
3.8555921e-59
3.4788569e-59
3.4513518e-59
3.1917781e-59
3.6360169e-59
3.3045669e-59
2.5589601e-59
2.6787549e-59
3.0973794e-59
2.8796957e-59
3.0748402e-59
2.7810678e-59
2.8855745e-59
3.4019868e-59
3.324806e-59
3.2356202e-59
3.4432467e-59
3.678371e-59
2.640466e-59
2.7380387e-59
3.3413913e-59
3.1712758e-59
3.0911765e-59
2.4917463e-59
2.5892764e-59
3.3169481e-59
2.9634742e-59
2.859768e-59
3.3336446e-59
3.1844844e-59
3.4475033e-59
3.2095604e-59
3.4512061e-59
3.7052674e-59
3.470287e-59
3.2985108e-59
3.5639447e-59
3.3014877e-59
3.6277029e-59
2.964392e-59
2.8275992e-59
3.7189449e-59
2.9698875e-59
3.0841478e-59
3.0251068e-59
3.3783704e-59
4.4222568e-59
4.0043668e-59
4.4737229e-59
4.0049092e-59
4.7243872e-59
3.8888782e-59
4.7300393e-59
3.8714667e-59
4.2443405e-59
3.8680033e-59
4.3102437e-59
3.862031e-59
4.5638631e-59
3.7708291e-59
4.5742556e-59
3.732411e-59
1.3004294e-59
7.5905201e-60
1.3693497e-59
1.3161109e-59
1.3892801e-59
7.8343496e-60
7.601084e-60
1.4634227e-59
6.9986653e-60
1.1037141e-59
6.8879992e-60
1.0120178e-59
1.4497321e-59
1.4841896e-59
1.4779295e-59
1.3506653e-59
1.4412196e-59
1.6549858e-59
1.6500569e-59
1.3087904e-59
6.9417018e-60
1.0336464e-59
6.9244288e-60
1.0669733e-59
1.4680574e-59
1.6314892e-59
1.6248877e-59
1.3029272e-59
6.9727623e-60
1.0348292e-59
6.9796686e-60
9.6906869e-60
4.2687551e-59
3.9030477e-59
4.3820135e-59
3.9392483e-59
3.7798043e-59
3.5037891e-59
3.9413973e-59
3.6215192e-59
4.2981903e-59
4.3998135e-59
3.4005114e-59
3.5778452e-59
4.7270612e-59
4.6919565e-59
3.763649e-59
3.8083066e-59
3.8230133e-59
4.0379386e-59
3.247585e-59
3.3880064e-59
4.1267771e-59
3.3064529e-59
4.1969955e-59
3.3499412e-59
3.6404199e-59
2.9310722e-59
3.7957716e-59
3.0380563e-59
4.3634358e-59
4.4741202e-59
3.7125388e-59
3.7729952e-59
4.8515313e-59
4.8731374e-59
4.189818e-59
4.1638692e-59
4.5972344e-59
4.615918e-59
3.9718531e-59
3.9269365e-59
4.438048e-59
4.3910924e-59
3.6272737e-59
3.565083e-59
4.6092672e-59
4.5876982e-59
3.7550476e-59
3.7252213e-59
4.7278377e-59
4.439407e-59
4.7478884e-59
4.4006624e-59
5.4853617e-59
4.3839293e-59
5.3948324e-59
4.3810054e-59
4.5985944e-59
4.2962352e-59
4.5488944e-59
4.21901e-59
5.2835439e-59
5.1847398e-59
4.2068848e-59
4.2161962e-59
9.9706906e-59
1.0022382e-58
7.0595487e-59
7.091338e-59
7.8078555e-59
7.6680037e-59
1.087233e-58
1.0735854e-58
2.2178893e-59
2.4617471e-59
2.6514103e-59
2.2602503e-59
6.2562858e-59
6.1262793e-59
9.792876e-59
9.8977274e-59
6.8282907e-59
6.8302442e-59
7.3834158e-59
7.3290289e-59
1.0421683e-58
1.0543925e-58
2.5435159e-59
2.5557778e-59
2.1799308e-59
2.1647711e-59
6.1058991e-59
5.7744653e-59
6.0412193e-59
6.0215374e-59
4.8130108e-59
4.8264496e-59
4.7611547e-59
4.7749414e-59
3.5840431e-59
3.5959038e-59
5.0328468e-59
6.3863498e-59
5.0227126e-59
6.3715494e-59
3.7406531e-59
4.9783292e-59
5.0123836e-59
3.7251277e-59
2.4792583e-59
2.4649628e-59
2.2417333e-59
2.3362856e-59
2.4186105e-59
2.4228782e-59
2.2902016e-59
2.2644699e-59
5.1428588e-59
6.3777469e-59
5.108967e-59
6.420087e-59
3.8175014e-59
5.0572383e-59
5.0884944e-59
3.8166602e-59
5.3443541e-59
6.7138433e-59
5.3826422e-59
6.6455491e-59
4.0697177e-59
5.3454215e-59
5.3274307e-59
4.0233373e-59
4.1754741e-59
3.4974073e-59
3.539306e-59
4.1665734e-59
4.1763241e-59
4.1911235e-59
3.5499147e-59
3.5210649e-59
2.6979502e-59
3.4095908e-59
2.7193065e-59
3.4468773e-59
3.4437395e-59
2.7315224e-59
3.4709865e-59
2.7632933e-59
3.3934065e-59
3.9658189e-59
3.3292453e-59
4.0228233e-59
3.2673353e-59
2.6020635e-59
2.5780882e-59
3.3047324e-59
3.5758963e-59
4.2090889e-59
3.5102995e-59
4.2474165e-59
3.4424116e-59
2.7190211e-59
3.483058e-59
2.700898e-59
2.9691688e-59
2.6018692e-59
2.5902718e-59
2.9875175e-59
2.1445616e-59
2.6163634e-59
2.6273926e-59
2.1208829e-59
3.0328374e-59
3.0085689e-59
2.6663441e-59
2.6346698e-59
2.4878537e-59
2.8825781e-59
2.5298895e-59
2.8657836e-59
2.088001e-59
2.5585191e-59
2.5118477e-59
2.0362366e-59
3.0074903e-59
2.610563e-59
3.0003229e-59
2.6089172e-59
2.1314123e-59
2.6260308e-59
2.6302594e-59
2.1290108e-59
1.005055e-58
1.0053308e-58
7.139324e-59
7.09801e-59
7.3348814e-59
7.2986889e-59
1.0155803e-58
1.0260462e-58
2.1878214e-59
2.4116719e-59
2.542942e-59
2.1839256e-59
5.8504474e-59
6.0696816e-59
9.5221978e-59
9.5866827e-59
6.6996536e-59
6.7435823e-59
7.5351295e-59
7.449722e-59
1.0546094e-58
1.0631734e-58
2.0380247e-59
2.3198346e-59
2.4796327e-59
2.1415727e-59
6.220088e-59
5.6817566e-59
6.4132701e-59
6.3991267e-59
5.1641585e-59
5.1339728e-59
5.1216731e-59
3.8928152e-59
3.8808971e-59
5.1304235e-59
6.3250064e-59
6.2641748e-59
5.0699498e-59
5.1256195e-59
5.0925253e-59
5.0646986e-59
3.8979779e-59
3.8618063e-59
4.9049135e-59
6.0660929e-59
4.8730324e-59
6.0918029e-59
4.8373195e-59
3.6695515e-59
3.6933211e-59
4.8695755e-59
5.2021908e-59
6.5162139e-59
5.1948719e-59
6.5004629e-59
5.1537643e-59
3.8993642e-59
5.1929087e-59
3.8896408e-59
2.1246826e-59
2.2592621e-59
2.3193678e-59
2.1723892e-59
2.3548617e-59
2.3835465e-59
2.1921993e-59
2.2510191e-59
3.4259034e-59
4.0749896e-59
3.4057623e-59
4.1134965e-59
3.347963e-59
2.6474001e-59
2.6589058e-59
3.3651274e-59
4.3714378e-59
3.6529511e-59
4.3793087e-59
3.6674655e-59
3.6013193e-59
2.8506472e-59
3.5903314e-59
2.8413772e-59
3.230437e-59
3.8490623e-59
3.2166252e-59
3.8935981e-59
3.1594515e-59
3.1748634e-59
2.4945983e-59
2.4937548e-59
3.3534681e-59
4.0336482e-59
3.3399061e-59
4.0570904e-59
2.5846574e-59
3.2862997e-59
3.3024754e-59
2.5794439e-59
2.3910136e-59
2.7405646e-59
2.3938524e-59
2.7521928e-59
2.4108712e-59
2.4074054e-59
1.9634304e-59
1.9557247e-59
2.8533987e-59
2.4668576e-59
2.8406511e-59
2.460549e-59
2.0110391e-59
2.4780949e-59
2.4825407e-59
2.0072825e-59
2.519547e-59
2.8905764e-59
2.5215451e-59
2.9096334e-59
2.0667647e-59
2.5355868e-59
2.5411343e-59
2.0573976e-59
3.1327202e-59
2.7316864e-59
3.1235659e-59
2.7270362e-59
2.2423735e-59
2.7471558e-59
2.7554815e-59
2.2479718e-59
1.7807401e-59
1.9314566e-59
1.8562376e-59
1.8780552e-59
1.8542968e-59
1.7139206e-59
1.6866869e-59
1.8705106e-59
1.68727e-59
1.8322381e-59
1.966956e-59
1.7572085e-59
1.8658646e-59
1.9874476e-59
2.1022371e-59
1.8490612e-59
1.8250176e-59
2.0179445e-59
1.9380979e-59
1.9324108e-59
1.9075661e-59
1.8729485e-59
1.9721521e-59
1.9571486e-59
2.2206189e-59
2.2377138e-59
1.9489448e-59
1.9249088e-59
1.9511766e-59
2.0744471e-59
2.2537525e-59
1.9646491e-59
1.9573169e-59
2.2499884e-59
2.0020887e-59
2.1982515e-59
2.2866008e-59
2.2967569e-59
2.0245154e-59
2.0297357e-59
2.0045735e-59
1.6492862e-59
1.9589748e-59
1.6121301e-59
2.0313308e-59
1.6671573e-59
1.664267e-59
2.0272008e-59
1.8144071e-59
1.7764241e-59
1.6023418e-59
1.6348959e-59
1.6300569e-59
1.343856e-59
1.3196252e-59
1.5992962e-59
1.6440861e-59
1.8312059e-59
1.6455764e-59
1.8345915e-59
1.6423267e-59
1.6362606e-59
1.3469611e-59
1.3471961e-59
2.0171325e-59
2.2845402e-59
2.0318937e-59
2.2689533e-59
2.0353863e-59
1.6763415e-59
1.6765725e-59
1.5017789e-59
1.5385316e-59
1.6955754e-59
1.7191806e-59
1.7174908e-59
1.5401931e-59
1.537282e-59
1.2437314e-59
1.4838508e-59
1.2360335e-59
1.5322555e-59
1.5207221e-59
1.2540933e-59
1.5314047e-59
1.2619396e-59
2.2030648e-59
2.20164e-59
1.959396e-59
1.9527553e-59
1.9485024e-59
1.6077596e-59
1.9544213e-59
1.6123515e-59
2.1433825e-59
2.39525e-59
2.1293368e-59
2.4151055e-59
2.1221138e-59
1.7464875e-59
1.7589909e-59
2.1367336e-59
1.8690007e-59
2.1023165e-59
1.8718144e-59
2.1051135e-59
1.8626146e-59
1.5327043e-59
1.5357119e-59
1.8636369e-59
1.9081523e-59
2.1551091e-59
1.9064685e-59
2.1616874e-59
1.9059243e-59
1.5658909e-59
1.9043993e-59
1.5597707e-59
1.7563267e-59
1.5826657e-59
1.5844339e-59
1.7598297e-59
1.9059069e-59
1.7159709e-59
1.9273996e-59
1.7229455e-59
1.3099387e-59
1.5767836e-59
1.3061959e-59
1.579904e-59
1.7133493e-59
1.7107139e-59
1.4094928e-59
1.4172169e-59
1.3932152e-59
1.3046522e-59
1.398134e-59
1.3007253e-59
1.3533262e-59
1.2219263e-59
1.3608762e-59
1.2313158e-59
1.513665e-59
1.5009207e-59
1.4019237e-59
1.4153885e-59
1.4640151e-59
1.316736e-59
1.452677e-59
1.3012154e-59
1.5096959e-59
1.4794356e-59
1.496636e-59
1.4643644e-59
1.6848812e-59
1.4183858e-59
1.4066552e-59
1.701861e-59
1.5899988e-59
1.5488198e-59
1.608331e-59
1.5691441e-59
1.7940447e-59
1.4902664e-59
1.7954158e-59
1.4870648e-59
1.3378655e-59
1.3502012e-59
1.2648385e-59
1.2539024e-59
1.2969237e-59
1.1704765e-59
1.3170676e-59
1.1964613e-59
1.3572025e-59
1.2658406e-59
1.2689702e-59
1.3566539e-59
1.1937668e-59
1.322186e-59
1.188594e-59
1.3211136e-59
1.4815535e-59
1.4509388e-59
1.4713629e-59
1.4352057e-59
1.6518188e-59
1.3812601e-59
1.6858991e-59
1.4089678e-59
1.4714469e-59
1.4331443e-59
1.4554975e-59
1.4868405e-59
1.3928711e-59
1.6638547e-59
1.3762604e-59
1.6822985e-59
1.2753069e-59
1.4146374e-59
1.3697804e-59
1.2309154e-59
1.3535932e-59
1.4447988e-59
1.4168924e-59
1.3232648e-59
1.4399916e-59
1.3365968e-59
1.4446804e-59
1.3683367e-59
6.5185255e-60
6.9673564e-60
2.673441e-60
4.3304997e-60
4.4764233e-60
2.6965856e-60
2.729135e-60
2.6960888e-60
4.4211328e-60
4.3673266e-60
2.6325374e-60
3.8438561e-60
6.2551412e-60
7.3269618e-60
6.5977365e-60
6.3042765e-60
7.5254842e-60
6.0970123e-60
6.6047625e-60
6.7553454e-60
6.5013054e-60
6.0580903e-60
6.7374419e-60
6.7307198e-60
6.8601948e-60
6.2805569e-60
6.2834536e-60
6.4376946e-60
1.1925175e-59
1.2616676e-59
1.4381539e-59
1.3344444e-59
1.3006463e-59
1.2384991e-59
1.4955261e-59
1.5156943e-59
1.5965146e-59
1.5898533e-59
1.5055194e-59
1.5067528e-59
1.5223259e-59
1.527663e-59
1.4923674e-59
1.4355281e-59
1.2770784e-59
1.3771928e-59
1.5267844e-59
1.3822419e-59
1.4627725e-59
1.3084371e-59
1.1931471e-59
1.3931133e-59
1.2036959e-59
1.3432089e-59
1.3514813e-59
1.4283493e-59
1.4029262e-59
1.2831175e-59
1.4131319e-59
1.334611e-59
6.1919189e-60
6.6927316e-60
6.4325306e-60
6.0890004e-60
7.2474682e-60
7.0678329e-60
6.7855022e-60
6.8065329e-60
6.6705313e-60
6.3496125e-60
6.3122371e-60
6.3330773e-60
6.7924728e-60
6.296151e-60
6.4323391e-60
6.6170838e-60
7.4244359e-60
6.0550167e-60
7.4852715e-60
7.3735245e-60
6.3061821e-60
5.7977706e-60
5.9645065e-60
6.1001257e-60
7.1660796e-60
6.7481607e-60
6.8008968e-60
6.6391364e-60
1.4467475e-59
1.6552884e-59
1.5801047e-59
1.4354932e-59
1.4345947e-59
1.2078813e-59
1.2035597e-59
1.3792391e-59
1.1003684e-59
1.0822764e-59
1.2339292e-59
1.2622311e-59
1.4721736e-59
1.4600742e-59
1.492588e-59
1.4339106e-59
2.2117501e-59
2.3231402e-59
2.3479793e-59
2.3085631e-59
2.2102514e-59
2.3466335e-59
2.2593267e-59
2.216001e-59
2.3425655e-59
2.3831854e-59
2.5355752e-59
2.454327e-59
2.2510854e-59
2.2847283e-59
2.2861767e-59
2.2496352e-59
1.9463054e-59
2.0183539e-59
2.0571939e-59
2.0314556e-59
2.0949929e-59
2.2150908e-59
2.275834e-59
2.2871134e-59
2.2879575e-59
2.4077526e-59
2.4091052e-59
2.334217e-59
2.3834709e-59
2.4225922e-59
2.5486134e-59
2.4778284e-59
1.1154811e-58
9.2382826e-59
1.0785843e-58
1.1089115e-58
1.066985e-58
1.1000375e-58
5.1330448e-59
6.4733022e-59
6.4578011e-59
7.8948218e-59
8.0552299e-59
1.5572535e-58
5.8368702e-59
6.1828568e-59
7.7404698e-59
7.6199421e-59
1.6643369e-58
6.1703487e-59
6.2567014e-59
7.700463e-59
7.832672e-59
6.1777719e-59
6.214785e-59
1.7437267e-58
7.807366e-59
7.7130255e-59
6.0003631e-59
6.2404451e-59
1.6997775e-58
7.7581813e-59
7.8078412e-59
8.3561347e-59
8.3520379e-59
8.2212956e-59
8.5545315e-59
7.4321679e-59
7.1469286e-59
8.9005443e-59
8.2841189e-59
8.0251136e-59
8.7282007e-59
7.3014108e-59
7.3569417e-59
8.9655785e-59
8.3094517e-59
8.2012115e-59
8.8912503e-59
7.3717241e-59
7.4385108e-59
8.8985607e-59
8.9998731e-59
8.5228099e-59
8.7941693e-59
7.5138789e-59
7.1943743e-59
8.9353799e-59
8.9160292e-59
4.4217943e-59
4.5581744e-59
8.9603742e-59
9.1789437e-59
4.728892e-59
4.7457098e-59
8.702269e-59
8.5975529e-59
4.51653e-59
4.5390424e-59
9.0561194e-59
9.1548255e-59
4.5350155e-59
4.6463341e-59
3.1055757e-59
2.9522347e-59
1.9002431e-59
2.0105826e-59
3.2790148e-59
2.3228791e-59
2.3323053e-59
3.4075822e-59
2.9885813e-59
2.9990772e-59
1.9678971e-59
1.9739496e-59
2.3294409e-59
2.3822775e-59
3.4126238e-59
3.3837327e-59
2.9618714e-59
3.0471882e-59
1.9846897e-59
1.9020171e-59
2.3136976e-59
2.3606987e-59
3.4383616e-59
3.3093912e-59
1.8863624e-59
2.8480251e-59
2.8229281e-59
1.8351124e-59
3.3866064e-59
2.3766639e-59
2.3268587e-59
3.3432888e-59
8.6593993e-59
8.6993176e-59
4.3249711e-59
4.4262615e-59
8.7406765e-59
8.9683944e-59
4.6282328e-59
4.6317072e-59
8.9175817e-59
9.0180611e-59
4.4675211e-59
4.5474668e-59
8.6203285e-59
4.4975799e-59
8.5094249e-59
4.4852309e-59
2.9765216e-59
2.8737905e-59
1.9345467e-59
1.7970238e-59
2.9180164e-59
2.9416084e-59
2.0345086e-59
1.9598888e-59
2.4240742e-59
3.274619e-59
3.2310392e-59
2.3566724e-59
2.4012393e-59
2.3420052e-59
3.1153978e-59
3.2552501e-59
2.336229e-59
2.3760181e-59
3.384661e-59
3.2681315e-59
3.3383694e-59
2.4038871e-59
2.3347133e-59
3.2832789e-59
3.020561e-59
2.9448073e-59
2.0338361e-59
1.9289565e-59
2.815557e-59
2.8565481e-59
1.914723e-59
1.9735216e-59
9.0008297e-59
9.196734e-59
8.8934119e-59
8.612927e-59
7.4915421e-59
7.2745039e-59
8.6624567e-59
8.0680261e-59
8.5986196e-59
8.1239957e-59
7.3300583e-59
7.3575312e-59
9.0268456e-59
8.1949047e-59
8.815883e-59
8.1380346e-59
7.3069221e-59
7.2623117e-59
8.8100433e-59
8.8598002e-59
8.4721916e-59
6.9619126e-59
7.3277386e-59
8.7507628e-59
8.9381093e-59
8.9178402e-59
4.5703689e-59
4.4868563e-59
4.3922374e-59
8.4303435e-59
8.339715e-59
4.3916581e-59
2.9523635e-59
2.9340959e-59
1.965426e-59
2.0090111e-59
1.9119267e-59
2.9212948e-59
3.061082e-59
2.003173e-59
3.2013885e-59
2.2932189e-59
2.316856e-59
3.3051171e-59
3.2813266e-59
2.3763595e-59
2.2965821e-59
3.2622326e-59
2.8708431e-59
2.934146e-59
2.000365e-59
1.9604204e-59
3.1743252e-59
2.2975263e-59
2.3539474e-59
3.3240444e-59
3.2822579e-59
2.4028156e-59
2.377408e-59
3.2507281e-59
2.7607033e-59
2.7117535e-59
1.8131128e-59
1.9226166e-59
4.4604697e-59
8.7472469e-59
8.8636944e-59
4.5824016e-59
4.7348641e-59
9.1269511e-59
8.9133344e-59
4.7324084e-59
8.8263167e-59
8.7162205e-59
4.3795319e-59
4.5030981e-59
9.2130617e-59
8.9089359e-59
4.7458164e-59
4.7246953e-59
4.6215861e-59
9.3189293e-59
9.1341026e-59
4.6921181e-59
8.8073661e-59
8.9078682e-59
4.6198173e-59
4.6384753e-59
1.8595014e-59
2.9044128e-59
3.0284817e-59
1.9763669e-59
2.9526841e-59
2.9817416e-59
2.078643e-59
2.0067297e-59
2.3630999e-59
3.3175904e-59
3.2630046e-59
2.3021732e-59
3.2133194e-59
2.3199223e-59
2.3394147e-59
3.326243e-59
2.8801831e-59
2.8662155e-59
1.9549073e-59
1.9739786e-59
2.2874813e-59
2.3410498e-59
3.3956622e-59
3.2594579e-59
3.3579892e-59
2.3696618e-59
2.3094776e-59
3.3477381e-59
3.0442324e-59
2.9649982e-59
2.0729829e-59
1.9871719e-59
7.8644677e-59
7.699703e-59
8.1399429e-59
7.9380975e-59
1.3753095e-58
7.2662055e-59
7.0708848e-59
5.6527465e-59
6.1511148e-59
5.7251563e-59
5.224583e-59
5.1300416e-59
5.6383256e-59
4.990107e-59
4.853306e-59
5.3454432e-59
5.5048954e-59
1.4229918e-58
7.0016995e-59
3.9202446e-59
5.4788651e-59
3.8728695e-59
5.4690648e-59
6.4042981e-59
6.2778107e-59
6.3253361e-59
6.2491315e-59
6.1120678e-59
5.3866004e-59
6.2186797e-59
3.9953793e-59
5.6664565e-59
4.0101898e-59
6.4310987e-59
6.3740361e-59
4.3841524e-59
4.5632822e-59
4.5888874e-59
4.6450366e-59
4.6736853e-59
4.7364268e-59
4.5032258e-59
4.5308329e-59
1.0214911e-59
1.0204187e-59
6.1636013e-60
6.3260362e-60
8.0988855e-60
4.5473356e-60
4.8729121e-60
8.3964342e-60
6.2998462e-60
1.0313049e-59
1.0303354e-59
6.454883e-60
4.7777825e-60
4.5632091e-60
8.4323244e-60
8.3732158e-60
6.3272618e-60
1.0536394e-59
1.0425633e-59
6.4292914e-60
6.2411707e-60
1.0266167e-59
1.0166208e-59
6.3989271e-60
8.2962043e-60
4.5431615e-60
4.7750751e-60
8.5483642e-60
4.6844507e-60
4.4529554e-60
8.5335968e-60
8.4198016e-60
6.0217249e-59
1.873695e-59
3.9189683e-59
3.8346921e-59
3.9192041e-59
3.9841098e-59
3.9646812e-59
3.7721646e-59
3.73353e-59
3.8915416e-59
3.8901625e-59
3.7542308e-59
3.9293114e-59
3.9662525e-59
4.2652363e-59