/*--------------------------------*- C++ -*----------------------------------*\
  =========                 |
  \\      /  F ield         | OpenFOAM: The Open Source CFD Toolbox
   \\    /   O peration     | Website:  https://openfoam.org
    \\  /    A nd           | Version:  7
     \\/     M anipulation  |
\*---------------------------------------------------------------------------*/
FoamFile
{
    version     2.0;
    format      ascii;
    class       surfaceScalarField;
    location    "10000";
    object      phi;
}
// * * * * * * * * * * * * * * * * * * * * * * * * * * * * * * * * * * * * * //

dimensions      [0 3 -1 0 0 0 0];

internalField   nonuniform List<scalar> 
100335
(
1.7888355e+55
-2.9282691e+55
-2.9449145e+55
-3.1002006e+55
-2.9838974e+55
2.5514016e+54
-3.1910463e+55
-9.6476269e+53
-5.2554344e+53
-3.0734251e+55
-2.9072056e+55
-2.69227e+55
-2.5407453e+55
-6.7789719e+54
-3.1132306e+54
4.3886351e+54
-6.0909114e+54
-6.5581837e+54
-7.8991585e+54
-7.4064846e+54
1.2359176e+54
-6.0838178e+54
-1.0428534e+53
9.2751442e+53
-5.8920799e+53
-1.2921206e+54
-1.2919691e+54
-1.6412179e+54
-1.7031078e+54
-2.4740921e+53
-2.5124034e+55
-6.4855888e+54
4.0420269e+54
-6.352546e+54
-6.2301074e+54
-7.4786393e+54
-7.6063155e+54
-2.4509517e+55
2.4086983e+55
-7.7359386e+53
-1.6161364e+54
1.6054096e+54
-1.7010622e+54
1.5615364e+54
-3.0251615e+55
-8.2250598e+53
-1.3956428e+54
-1.4076788e+54
1.9443566e+54
-7.6723679e+53
2.9188477e+54
2.7491626e+54
-3.199133e+55
-3.847699e+53
-4.398245e+53
5.5139243e+53
5.7687137e+53
-7.4737649e+54
-9.3686321e+52
-1.1565923e+53
-1.2232259e+53
2.6700822e+54
2.715214e+54
-3.148562e+55
-4.5512972e+53
-5.0299439e+53
2.4493202e+54
1.098685e+54
-7.413816e+54
-7.2726893e+54
-6.520216e+54
-6.6110296e+54
1.212883e+54
-7.4481794e+54
-6.6932474e+54
-6.4273138e+54
-7.1845717e+54
3.7850016e+54
-5.7840418e+54
-5.6879994e+54
-4.6418228e+54
-4.7609702e+54
-5.994066e+54
-5.6161741e+54
-4.5925104e+54
-5.0194645e+54
7.8514903e+53
-7.5701425e+52
-6.6131764e+54
1.7610796e+53
-5.0585326e+53
-1.4220235e+54
-1.4596848e+54
-1.1888693e+54
-1.1696742e+54
-8.0685649e+53
-9.6159916e+53
-9.5168545e+53
-8.5339149e+53
-8.4087618e+53
-3.7999576e+53
-1.3662282e+54
1.0442858e+54
-1.75425e+54
-1.3390384e+54
-1.2510462e+54
-1.6338468e+54
-1.3718092e+54
-5.5115085e+53
1.0223175e+54
-1.3080656e+54
-1.3028922e+54
-1.688114e+54
-1.7384654e+54
-1.45745e+52
-3.167797e+52
-6.3058679e+54
-6.14241e+54
-8.5199484e+52
-2.5791153e+53
2.3665468e+53
-2.7680995e+53
-2.6253127e+53
-3.7416767e+53
-3.5591647e+53
-2.6055245e+53
2.2984754e+53
-8.4715064e+52
-2.6668253e+53
-2.6921973e+53
-3.5525005e+53
-3.70596e+53
2.4681536e+52
-1.3569686e+54
-1.8090804e+52
-1.3823171e+54
5.3756924e+53
-1.2976551e+54
9.5635504e+53
-1.2952069e+54
-1.2955339e+54
-1.6560645e+54
-1.7252616e+54
-1.2899054e+54
9.9349641e+53
-1.3352342e+54
-1.7232061e+54
-1.2563778e+54
-1.6324619e+54
7.1429534e+52
-6.1200582e+54
-6.1412554e+54
-2.394351e+55
-8.0681119e+53
2.1176888e+54
1.9977457e+54
-1.3546255e+54
-1.3546502e+54
5.7525112e+53
2.3912795e+55
1.6230767e+54
-1.5811445e+54
-1.6133603e+54
1.628524e+54
1.6319476e+54
-1.6755494e+54
-1.5986998e+54
-2.9990405e+55
1.570849e+54
2.0038369e+54
-1.3112508e+54
-1.3874468e+54
1.992212e+54
2.506832e+52
5.6054155e+54
-7.3565881e+52
-4.1202776e+53
-4.014091e+53
2.9717862e+53
-6.9644878e+54
3.0769214e+53
-5.7350617e+54
-5.1038047e+52
7.5173291e+54
-4.030086e+53
-4.1167404e+53
3.0490758e+53
3.1977844e+53
-4.1318925e+53
-4.242001e+53
2.9371632e+53
3.0505156e+53
-7.2294053e+54
7.3615533e+54
-6.9219155e+52
-4.037289e+53
-3.9319861e+53
3.0606351e+53
3.1444408e+53
-2.2636307e+55
-7.5545816e+53
1.4012573e+54
1.5137939e+54
-1.653593e+54
-1.6374588e+54
-4.0040951e+52
-3.6404236e+53
3.9030516e+53
-3.5528728e+53
5.9186814e+54
-6.0780485e+52
3.797091e+53
-3.6197053e+53
-3.4782227e+53
3.8601708e+53
-3.4835844e+52
-2.8025132e+53
4.7468448e+53
-2.6913004e+53
4.6614984e+53
5.2463714e+53
-5.6126076e+53
-2.9198596e+55
-8.5545417e+53
1.5501502e+54
1.5922007e+54
-8.869205e+53
-8.6369217e+53
1.5541165e+54
-9.4716146e+52
6.1569956e+53
5.7206244e+53
-7.5020691e+54
-1.0354704e+53
-1.0829586e+53
-5.6234058e+52
5.879648e+53
6.0574422e+53
-7.7568528e+54
-1.1396492e+53
-1.0706564e+53
1.541241e+52
1.2034211e+53
1.2703373e+53
-1.6691294e+54
-1.6813384e+52
-2.4250674e+52
-2.5222539e+52
1.2521442e+53
1.2017575e+53
-1.6993331e+54
-2.8115595e+52
-2.6087849e+52
6.2997481e+52
5.7151099e+53
6.0000227e+53
-7.5192142e+54
-1.0803589e+53
-1.133957e+53
5.8383225e+53
5.5349096e+53
-7.5317842e+54
-1.2327392e+53
-1.1975151e+53
7.1604349e+52
6.7940663e+53
-1.7930069e+53
-2.0481799e+54
-5.9373465e+54
7.4204762e+53
-2.1352326e+54
-5.9589912e+54
1.3108051e+53
7.1586688e+53
-6.5316268e+54
7.1390736e+52
7.2009258e+53
-6.592025e+54
7.4498817e+53
-2.1961349e+53
-2.2128507e+54
-5.9400034e+54
-9.4447963e+51
7.4272042e+53
-6.6101436e+54
-6.9503153e+53
7.6804619e+53
-6.5854739e+54
-2.0186264e+54
-5.8823176e+54
4.3054611e+53
1.4911523e+53
-1.4022675e+54
-1.4367127e+54
-1.1688993e+54
-1.1547112e+54
1.5920215e+53
4.8788907e+53
-1.1885015e+54
-1.4514827e+54
-1.4020561e+54
-1.1424112e+54
-6.7538049e+53
8.0588292e+53
-9.7940786e+53
-9.1534407e+53
-8.9409586e+53
-8.3077826e+53
-9.4238072e+53
-9.2872885e+53
-8.4812735e+53
-8.3289091e+53
3.0122203e+53
1.4841436e+53
-1.4192399e+54
-1.4482325e+54
-1.1785693e+54
-1.1670508e+54
1.5346309e+53
-1.4020773e+54
-1.4621586e+54
-1.1978552e+54
-1.1441309e+54
-5.6490899e+53
-9.2003927e+53
-9.0585628e+53
-8.3164761e+53
-9.7916552e+53
-9.5635567e+53
-9.3680545e+53
-8.6412117e+53
-8.504762e+53
4.7052571e+53
4.6845991e+53
-5.7382334e+52
-6.6640796e+54
-9.4137242e+52
-8.4070677e+52
1.6999417e+51
2.1040417e+53
1.4561282e+52
-1.178163e+54
2.04332e+53
-1.1810883e+54
-3.3970571e+52
1.894758e+53
-1.1657704e+54
1.8880218e+53
-2.5829668e+52
-1.1562128e+54
8.1739201e+52
-5.0469038e+50
-9.0023763e+52
-2.1117152e+53
-2.1716139e+53
-1.6819648e+53
-1.6747786e+53
-5.0446291e+51
-2.1887863e+53
-2.1214028e+53
-1.7251746e+53
-1.6401248e+53
1.0303238e+53
-1.1466925e+53
-1.4571838e+53
-1.607833e+53
-1.4481804e+53
-1.6109173e+53
-1.5319201e+53
-1.4243374e+53
-1.710699e+53
-1.5946007e+53
2.8105336e+53
-3.2681843e+51
-1.122164e+52
-1.405114e+54
5.1930804e+52
-7.8114169e+52
2.5096253e+53
-3.6437328e+53
-2.7047192e+53
-2.7153471e+53
-3.7638418e+53
-2.7428243e+53
2.5241298e+53
-2.7565491e+53
-2.605336e+53
-3.7391289e+53
-3.5185948e+53
-1.3574258e+54
7.9985254e+52
-2.7271295e+53
-7.975731e+52
2.3490546e+53
-2.6762476e+53
-2.7036522e+53
-3.5823776e+53
-3.7425816e+53
-2.721286e+53
2.4939543e+53
-2.6382309e+53
-2.7720181e+53
-3.7779995e+53
-3.5946302e+53
1.5322152e+52
-6.6285225e+51
-1.3815559e+54
-1.4007493e+54
8.4070387e+51
-5.7036205e+52
-1.5455873e+52
6.6641812e+52
-5.5865416e+52
-5.5436985e+52
-8.2773078e+52
-8.5291181e+52
-5.6343421e+52
6.6574577e+52
-5.4072285e+52
-5.6313235e+52
-8.5250319e+52
-8.0681576e+52
1.3444975e+51
-6.2500758e+51
-3.0108386e+53
-2.9571767e+53
1.5195756e+52
-5.7282288e+52
6.4809397e+52
-1.3356122e+52
-5.5413881e+52
-5.4830428e+52
-8.1202842e+52
-8.4602068e+52
-5.6919584e+52
6.6656596e+52
-8.5640924e+52
-5.6672768e+52
-5.480911e+52
-8.2094016e+52
6.0929855e+51
-2.9432853e+53
-3.9546608e+51
-3.0063894e+53
8.6715404e+52
-2.6715735e+53
2.3171741e+53
-2.6722478e+53
-2.6930304e+53
-3.5697624e+53
-3.7213579e+53
-2.6906833e+53
9.4006719e+52
2.4252776e+53
-3.7687086e+53
-2.7711727e+53
-2.6353742e+53
-3.5875899e+53
2.5257678e+52
-1.3614325e+54
2.3040749e+52
-1.3921108e+54
-2.6551311e+53
5.8851094e+52
2.3615797e+53
-2.6917827e+53
-2.6998419e+53
-3.5994505e+53
-3.7161589e+53
-2.8887757e+51
-1.3789575e+54
-2.6439923e+53
2.4471707e+53
-3.7195135e+53
-2.7486934e+53
-2.6019138e+53
-3.5058974e+53
-1.3528875e+54
1.2796514e+54
-1.3778903e+52
5.8700282e+52
6.0545697e+52
-1.6081831e+54
-9.8140178e+52
-9.4031225e+52
-1.3771912e+52
-8.5218722e+52
6.4668843e+52
-8.7420288e+52
-5.2813521e+54
-4.7445807e+52
2.8308478e+53
2.9278799e+53
-4.0496491e+53
-4.4701217e+53
4.1419189e+51
-6.646404e+54
3.066634e+53
-4.1756353e+53
-4.5198627e+53
2.715713e+53
4.9861005e+52
-6.0898632e+54
-4.5376048e+52
-2.7769492e+53
-2.6527926e+53
4.930128e+53
4.9617586e+53
-5.9173539e+54
4.9494837e+53
-2.6656182e+53
-2.6968813e+53
4.693576e+53
-7.3871851e+52
-7.3244167e+54
3.9353449e+53
-3.5980691e+53
-3.4673975e+53
3.7854121e+53
-7.533969e+54
-9.2512715e+52
4.0224285e+53
-3.5688293e+53
-3.4150448e+53
4.0424115e+53
-5.6190825e+54
2.3806936e+52
7.350539e+54
3.2406311e+53
-3.906964e+53
-3.7597888e+53
3.3004838e+53
1.7938915e+52
3.156889e+53
-4.0485477e+53
5.6172728e+54
2.2925992e+52
-4.0086507e+53
-4.1247604e+53
3.0333435e+53
-7.0177155e+54
2.9210175e+53
7.0578781e+52
7.3893822e+54
-3.9358528e+53
3.1068336e+53
-4.0342684e+53
2.9597159e+53
-5.7446865e+54
4.4017434e+52
3.2421266e+53
-3.9741424e+53
-3.8739314e+53
3.2982132e+53
3.8204482e+52
3.1261443e+53
3.0645893e+53
-4.0821867e+53
-4.177494e+53
-7.2286199e+54
5.6113962e+54
-3.9589435e+53
-4.084729e+53
3.1455644e+53
-7.0577056e+54
3.0205893e+53
-2.2420908e+55
1.5344329e+54
1.4693894e+54
-1.6304321e+54
-1.5719981e+54
-3.8729556e+53
3.0103649e+53
-3.9849017e+53
3.1737615e+53
-2.8888941e+55
1.613873e+54
-8.3834512e+53
1.6003474e+54
-8.2129998e+53
-5.9578739e+54
3.1352285e+52
-2.7485915e+53
-2.6649945e+53
4.7687616e+53
4.907384e+53
4.5554416e+52
-3.3712355e+53
3.9868167e+53
3.9129123e+53
-3.5148553e+53
5.9187444e+54
-3.526981e+53
-3.6110554e+53
3.8226107e+53
3.677753e+53
-2.7623862e+53
4.5110696e+53
-2.8146629e+53
4.7174655e+53
-1.5839499e+52
1.2800741e+54
1.7958223e+52
5.7378729e+52
5.5316336e+52
-1.609865e+54
-9.7797927e+52
-9.9252716e+52
1.2647779e+54
-2.2986168e+52
5.5899721e+52
5.9550405e+52
-1.5805893e+54
-9.7749785e+52
-9.6151306e+52
1.7553242e+52
1.6127045e+54
-2.2403753e+52
-8.6506915e+52
6.2413902e+52
-8.7568377e+52
6.5763997e+52
3.054994e+52
-5.2408955e+54
-4.8987556e+52
2.8688269e+53
2.7647218e+53
-4.3844246e+53
-4.2880982e+53
1.8653375e+52
1.6404983e+54
-9.0775467e+52
6.3291564e+52
-8.7831737e+52
6.1483523e+52
-1.4201148e+52
1.2648471e+54
-1.6192429e+54
-8.74961e+52
-8.5098609e+52
6.4167227e+52
6.1526895e+52
1.2870036e+54
-1.653215e+54
-1.9293318e+52
-8.4508644e+52
6.4080895e+52
-8.6413948e+52
6.6471241e+52
-7.7894865e+51
1.6094847e+54
-8.5621925e+52
6.5553086e+52
-8.3448491e+52
-1.2123339e+52
1.6457883e+54
-8.2907165e+52
6.5467424e+52
-8.4690167e+52
6.7457714e+52
-1.46407e+52
1.2698264e+54
5.6818309e+52
5.3581494e+52
-1.5943204e+54
-9.8469851e+52
-9.9763455e+52
1.2920148e+54
5.6649724e+52
5.8936534e+52
-1.6317257e+54
-9.9786224e+52
-9.6971684e+52
-1.2647821e+52
-9.1033312e+52
6.2812979e+52
-8.8374519e+52
5.9770557e+52
-8.8322303e+52
6.2495693e+52
-8.9404379e+52
6.508797e+52
-5.4094864e+54
2.7469756e+53
2.879947e+53
-4.4597427e+53
-4.3973882e+53
-1.4129201e+52
1.2761556e+54
-8.7200748e+52
6.4352243e+52
-8.4543847e+52
6.2842102e+52
1.2632235e+54
-2.0196786e+52
-8.2961799e+52
6.3607866e+52
-8.4843341e+52
6.654727e+52
1.2571337e+52
1.6031833e+54
-1.2991395e+52
-8.1839739e+52
6.4604196e+52
-8.3584268e+52
6.7343673e+52
1.6311622e+54
-8.5674034e+52
6.5449157e+52
-8.3350899e+52
6.3461285e+52
-2.1587426e+52
-6.7498155e+54
-4.4273363e+53
-4.2529184e+53
3.044007e+53
2.7609013e+53
-6.5985324e+54
2.5719595e+52
-4.4218459e+53
-4.2879585e+53
2.6906773e+53
2.7478351e+53
1.297196e+54
1.0966196e+52
-1.208434e+52
-7.7886503e+52
-7.9850195e+52
7.0715003e+52
7.2689917e+52
-8.615709e+51
1.6830006e+54
-7.422626e+52
7.7362577e+52
-7.5942405e+52
7.9374029e+52
-8.0665017e+52
7.0839467e+52
-1.2703387e+54
9.8402044e+51
1.6419248e+54
-1.3515797e+52
-7.2127406e+52
-7.4062719e+52
7.7672973e+52
8.0316003e+52
-1.0881594e+52
1.2860975e+54
-8.0550239e+52
7.1108314e+52
-7.8106378e+52
6.9439756e+52
-1.4591857e+52
-7.6272527e+52
7.0397118e+52
-7.837854e+52
7.2986564e+52
1.6695217e+54
-7.6284112e+52
-7.4045292e+52
7.8237069e+52
7.5909779e+52
1.332379e+54
-1.1780311e+52
1.4494691e+52
-6.693117e+52
9.3626114e+52
-6.4315043e+52
9.1797223e+52
-1.0143033e+52
-5.2865617e+52
1.0729463e+53
-5.0643998e+52
1.0468594e+53
1.3170004e+54
-1.7746039e+52
-6.2361996e+52
9.3011946e+52
-6.4571515e+52
9.5681703e+52
-1.2649739e+52
-4.8877014e+52
1.0651752e+53
-5.0536161e+52
1.0942329e+53
9.2663724e+52
-6.456081e+52
-6.659477e+52
2.3712858e+55
-7.6296832e+53
-3.8015917e+54
-8.1111946e+53
1.8743551e+54
-8.9337387e+53
-9.874984e+53
1.9086264e+54
4.9380479e+54
-4.3758445e+52
6.0142164e+52
-6.0636169e+54
-2.458581e+53
-2.2968986e+53
3.6758379e+53
3.6169475e+53
1.2057334e+52
7.0216426e+52
-3.987975e+53
-3.8049055e+53
2.894483e+53
2.9723139e+53
-4.9890361e+54
2.4656613e+52
3.2402772e+53
-4.0043184e+53
-4.015552e+53
2.9678163e+53
1.1295307e+52
-6.1357725e+54
-2.5155747e+53
-2.514734e+53
3.6323648e+53
3.445568e+53
4.9447422e+54
-2.4187037e+53
3.8124338e+53
3.7032113e+53
2.9494888e+53
-3.9153887e+53
-4.0699822e+53
2.9562693e+53
-1.7447897e+52
1.289922e+53
1.2111737e+53
-1.6620004e+54
-2.5105081e+52
-2.3342358e+52
-1.7035277e+52
1.2597605e+53
1.3061638e+53
-1.7216816e+54
-2.3906927e+52
-2.4826331e+52
-1.1531649e+52
1.2880744e+53
1.2279253e+53
-1.71984e+54
-2.6758674e+52
-2.5219128e+52
-3.8170234e+51
1.2353416e+53
1.2986849e+53
-1.7020211e+54
-2.3113073e+52
-2.4604583e+52
3.6485155e+51
2.612528e+52
2.7696044e+52
-3.5751582e+53
-3.6161711e+51
-7.3617173e+51
-7.5553287e+51
5.1517727e+51
2.7169687e+52
2.6621802e+52
-3.650634e+53
-8.3534541e+51
-7.7393536e+51
4.4130126e+51
2.6180769e+52
2.7210647e+52
-3.6537411e+53
-8.2053502e+51
-8.2726365e+51
2.7133597e+52
2.5736423e+52
-3.5860381e+53
-8.3363313e+51
-7.7800399e+51
1.4256183e+52
1.2197644e+53
1.2893756e+53
-1.6742368e+54
-2.3378097e+52
-2.4199157e+52
2.0338153e+52
1.2767264e+53
1.2282878e+53
-1.710555e+54
-2.6907187e+52
-2.4627646e+52
1.4357562e+52
1.2133924e+53
1.2636329e+53
-1.6925377e+54
-2.5321067e+52
-2.609454e+52
1.2677568e+53
1.1901747e+53
-1.6572411e+54
-2.6055134e+52
-2.4595388e+52
3.2930728e+53
-9.7730406e+53
-8.601507e+53
-3.0545962e+55
-8.2717765e+53
-9.5396459e+53
-3.0405053e+55
1.2935462e+53
6.6957208e+53
-1.9742587e+53
-7.5161504e+54
7.2771719e+53
-7.5783379e+54
1.2269988e+53
4.5798682e+53
4.5542857e+53
-6.5628401e+54
-8.9347732e+52
-9.9718388e+52
7.0929946e+52
4.7455096e+53
4.4750761e+53
-6.6013592e+54
-9.0315442e+52
-1.0106636e+53
7.2034642e+53
-1.6973778e+53
-7.5152152e+54
8.1792836e+52
4.6543733e+53
4.5868693e+53
-6.6335713e+54
-8.9791422e+52
-1.0142097e+53
-6.8325299e+53
4.5127759e+53
4.8485335e+53
-6.6302088e+54
-8.535473e+52
-9.837736e+52
-7.4662892e+54
2.0281999e+51
2.0552826e+53
-1.1643825e+54
1.9950781e+53
-1.1373391e+52
-1.1673901e+54
-3.4373587e+52
2.676823e+52
1.8020365e+53
-1.1419893e+54
1.801525e+53
-1.1375478e+54
-2.1046321e+53
9.9378696e+51
1.8720006e+53
-1.1484078e+54
-2.5332167e+52
-1.173436e+54
2.0044207e+53
-1.6618581e+52
-1.163704e+54
1.8461344e+53
2.4220737e+52
-1.1408653e+54
5.4892709e+52
-2.8045523e+51
-8.8726901e+52
-2.1019807e+53
-2.1552069e+53
-1.6558671e+53
-1.6426331e+53
-7.1917353e+51
8.2463988e+52
-2.159301e+53
-2.0845484e+53
-1.5926576e+53
-1.6745931e+53
8.4828314e+52
-1.2579652e+53
-1.4764415e+53
-1.6459563e+53
-1.4617132e+53
-1.6136295e+53
1.1151393e+53
-1.5260491e+53
-1.6704662e+53
-1.4257014e+53
-1.5771676e+53
7.653074e+52
-2.8431084e+51
-2.0923295e+53
-2.1518505e+53
-1.6507915e+53
-1.6402013e+53
-8.3998375e+51
-2.1529953e+53
-2.0925064e+53
-1.6786804e+53
-1.5990318e+53
1.022642e+53
-1.4510681e+53
-1.4392773e+53
-1.6137927e+53
-1.6215204e+53
-1.7010527e+53
-1.5943811e+53
-1.5116578e+53
-1.415861e+53
-3.3016425e+51
2.0864694e+53
-1.1757663e+54
2.0071293e+53
-1.9527851e+52
-1.1740321e+54
-2.9749967e+52
2.0305375e+52
1.8398541e+53
-1.152397e+54
1.8608724e+53
-1.1500203e+54
2.97909e+52
2.0339902e+53
-1.1694282e+54
2.1386578e+53
-1.1809079e+54
6.0553024e+51
1.904013e+53
-1.1601405e+54
1.8910498e+53
-1.1496111e+54
-9.5929589e+51
-5.3474103e+52
-2.172515e+53
-1.6948016e+53
-1.6147169e+53
-2.0968746e+53
8.0728269e+52
7.1954846e+51
-1.1321153e+53
-1.4854194e+53
-1.5013998e+53
-1.6686073e+53
-1.640631e+53
-1.5401214e+53
-1.6826356e+53
-1.5790256e+53
-1.4259027e+53
-7.7822885e+52
-2.1592044e+53
-2.1093923e+53
-1.6545643e+53
-1.6490371e+53
7.0965863e+52
-2.2003428e+51
-2.1026052e+53
-2.1617874e+53
-1.6572474e+53
-1.644058e+53
-9.2988372e+51
-2.1534492e+53
-2.0895407e+53
-1.6698984e+53
-1.5908932e+53
9.896604e+52
-1.4702631e+53
-1.4579348e+53
-1.6270842e+53
-1.6333988e+53
-1.4264464e+53
-1.7049433e+53
-1.5861133e+53
-1.5287477e+53
-5.9643148e+50
5.0814995e+53
5.2578083e+53
-6.8175995e+54
-1.7004172e+53
-1.8300613e+53
1.845897e+51
2.4764717e+53
-1.5183347e+54
2.537486e+53
7.2924797e+51
-1.5214287e+54
-5.5648623e+52
1.0228208e+53
9.9292131e+52
-3.2613028e+53
-3.3430051e+53
-2.4578416e+53
-2.4371811e+53
1.9153422e+52
2.0855565e+52
9.9714043e+52
1.0051608e+53
-4.4349017e+52
-3.3468745e+53
-3.3005372e+53
1.9981422e+52
-2.4539408e+53
-2.4439756e+53
2.0557631e+52
3.6837721e+50
5.3865134e+52
1.5928259e+51
-1.6728374e+53
5.2517813e+52
-6.0432691e+50
-1.6819036e+53
1.1665206e+52
2.5981384e+52
-1.2194688e+52
-4.2021048e+52
-4.066809e+52
-2.8325353e+52
-2.8768667e+52
1.2414874e+52
2.3253586e+52
-2.8909354e+52
-4.1892437e+52
-4.0292753e+52
-2.7868661e+52
-3.1653425e+51
5.436319e+52
-1.6839865e+53
5.3322601e+52
-1.6778835e+53
7.7284227e+51
2.5652557e+52
-2.816788e+52
-4.0535974e+52
-2.8622218e+52
-4.1794249e+52
2.4554521e+52
-4.2220116e+52
-4.0419757e+52
-2.907286e+52
-2.7991727e+52
-2.7864237e+52
1.6569468e+52
-1.7121545e+52
-2.6022628e+52
-2.5717381e+52
-1.9749453e+52
-1.9831152e+52
1.3622542e+52
-1.2479467e+52
-4.2072352e+52
-1.9521108e+52
-2.0838988e+52
-4.2548729e+52
-3.1781978e+52
1.8798921e+52
-2.0504854e+52
-2.6594633e+52
-2.5537616e+52
-1.9374765e+52
1.4825633e+52
-2.0402413e+52
-2.0530649e+52
-4.4194987e+52
-4.2292125e+52
1.2343837e+52
-2.9720034e+52
-1.9497233e+52
-2.6004964e+52
-2.6293372e+52
-1.9568711e+52
-3.0875459e+52
-2.0076131e+52
-2.6623285e+52
-2.5742809e+52
-1.9542039e+52
8.2680696e+51
-4.2838684e+52
-2.0143567e+52
-2.1236059e+52
-4.3372216e+52
-2.0664075e+52
-2.0552397e+52
-4.4250463e+52
-4.2255817e+52
5.9472572e+52
4.007583e+51
-2.9331027e+51
-2.9894428e+53
1.2650053e+52
-1.1986126e+52
6.7192083e+52
-5.6148689e+52
-5.5039916e+52
-8.1945313e+52
-8.5721419e+52
-5.9228216e+52
1.2003441e+52
6.8624354e+52
-5.4733044e+52
-5.6892868e+52
-8.6284388e+52
-8.237392e+52
2.9492059e+51
-3.0393763e+53
6.9021278e+51
-5.9602959e+52
6.8673233e+52
-5.6168088e+52
-5.5221451e+52
-8.2661554e+52
-8.5572764e+52
-5.8047398e+52
6.758188e+52
-5.4195149e+52
-5.6428099e+52
-8.5258213e+52
-8.0640596e+52
-7.8506052e+50
-3.0078937e+53
-2.9352923e+53
1.4033224e+52
-5.8180701e+52
-1.2058524e+52
6.5252002e+52
-5.569105e+52
-5.4720072e+52
-8.1419084e+52
-8.4840528e+52
-5.8510454e+52
1.3985007e+52
6.7782983e+52
-5.4538077e+52
-5.6706962e+52
-8.6112364e+52
-8.2232091e+52
5.1340724e+51
-2.3140159e+51
-2.9570435e+53
4.90887e+51
-3.0267492e+53
-7.6638752e+51
-5.8223601e+52
6.7502019e+52
-5.6456484e+52
-5.4111078e+52
-8.5758086e+52
-8.1098083e+52
-5.8957407e+52
6.8035793e+52
-5.5303386e+52
-8.2948331e+52
-8.5595273e+52
-5.6112057e+52
1.1433528e+50
-3.0315538e+53
-2.9771286e+53
-2.3671653e+51
-1.0331724e+52
1.7699968e+51
2.4605566e+52
-6.9542073e+52
-1.0491704e+52
-2.1901051e+51
2.3950679e+52
-6.9073011e+52
1.5525615e+51
-1.7056213e+51
-6.6930949e+52
1.1294846e+51
-6.7989178e+52
-5.4430817e+50
-1.0348336e+52
2.4647626e+52
-6.913756e+52
-1.0542491e+52
2.4883939e+52
-6.9428985e+52
1.015995e+50
-6.7631328e+52
-6.6329692e+52
-2.5880177e+51
-1.0641595e+52
2.6611998e+51
2.4710375e+52
-6.9555832e+52
-1.0729067e+52
2.4216773e+52
-1.5904377e+51
-6.9315707e+52
1.6247749e+51
-6.6404081e+52
-1.0273217e+51
1.8179708e+51
-6.7740813e+52
1.0531607e+52
6.930389e+50
-6.7877908e+52
1.267634e+51
2.4729448e+52
-6.9477036e+52
-1.0631018e+52
2.4787239e+52
-6.9887796e+52
-6.7115813e+52
1.4732007e+52
-5.7409078e+52
6.481023e+52
-8.1268818e+52
-5.465277e+52
-5.5573651e+52
-8.493761e+52
-5.7721379e+52
1.5267003e+52
6.6653575e+52
-5.4328949e+52
-5.6588791e+52
-8.5917579e+52
-8.1934875e+52
6.3977903e+51
-2.9456497e+53
6.5977979e+51
-3.0111961e+53
5.7957025e+52
1.5416816e+51
-3.0209912e+53
8.8596731e+51
6.6707659e+52
-5.5210568e+52
-5.6003959e+52
-8.2636052e+52
-8.560998e+52
-5.7687191e+52
1.4127669e+52
6.667702e+52
-8.5642041e+52
-5.6544371e+52
-5.4376279e+52
-8.1232541e+52
5.0436852e+51
-2.9711941e+53
1.3835323e+52
-5.7028707e+52
6.4326624e+52
-5.5582417e+52
-5.4582702e+52
-8.1216346e+52
-8.4802376e+52
-5.6803153e+52
1.260668e+52
6.5663039e+52
-5.413057e+52
-5.6391723e+52
-8.5562972e+52
-8.1530163e+52
4.7187421e+51
-2.9530957e+53
2.9763217e+51
-3.0031334e+53
5.7742397e+52
-1.2622934e+51
-2.9867945e+53
6.7252953e+51
6.5836652e+52
-5.4751084e+52
-5.5654881e+52
-8.4643463e+52
-8.2032768e+52
-5.677476e+52
6.5849985e+52
-5.6016872e+52
-5.3809818e+52
-8.4685913e+52
-8.0087215e+52
-2.9192333e+53
-1.2233739e+52
-1.2509328e+54
5.9704521e+52
-9.5556965e+52
-9.4690049e+52
5.6551946e+52
3.3439677e+51
-2.7986408e+53
3.4903439e+53
-2.2470843e+51
-1.8548393e+52
-1.9206935e+52
1.287635e+52
1.3312077e+52
-2.8282883e+53
3.5509542e+53
1.3091207e+52
1.2755074e+52
-1.9586789e+52
-1.9202619e+52
-1.2598075e+54
-1.0948609e+52
6.1787623e+52
-8.8717942e+52
-9.3182632e+52
6.324024e+52
-2.0784053e+51
-3.6234698e+53
-2.0399173e+52
-1.7513492e+51
-3.5644562e+53
-1.7776747e+52
2.6932776e+53
2.1304707e+51
-1.7511996e+51
1.4491088e+52
-1.6938e+52
1.4108018e+52
-1.7552465e+52
-9.9842588e+50
-1.7030623e+52
1.398789e+52
1.4418516e+52
-1.7609686e+52
1.399462e+52
-1.7652182e+52
1.4343466e+52
-1.7232972e+52
6.3796794e+51
-1.6109783e+54
-9.8020045e+51
6.5319994e+52
-8.8699951e+52
-9.3399743e+52
6.6408073e+52
-1.614288e+54
-9.7520403e+52
-9.7826554e+52
6.1694017e+52
5.5941832e+52
-1.2497132e+54
2.6542475e+51
-9.8541548e+51
6.6940131e+52
-8.8382815e+52
-9.3819851e+52
6.7860774e+52
-5.9814952e+51
-1.0857632e+51
-1.6017614e+54
6.6930397e+52
-9.1914424e+52
-9.9868382e+52
6.6404338e+52
1.2564891e+54
-1.6291055e+54
-1.0208838e+53
-1.0184173e+53
6.5269309e+52
5.6093393e+52
5.9869833e+52
-9.7780274e+52
-9.834223e+52
5.4858808e+52
-1.1312946e+52
1.3445045e+54
2.196178e+52
-1.6885062e+54
-6.6929666e+52
-6.4698389e+52
9.4755946e+52
9.2530136e+52
1.3416474e+54
-1.6748108e+54
-9.2574248e+51
-6.2062429e+52
9.5218687e+52
-6.4861891e+52
9.7534428e+52
7.426367e+51
3.2214551e+51
-4.827801e+52
1.0931194e+53
-5.0624122e+52
1.1158153e+53
1.4602488e+52
-5.2117102e+52
1.0972648e+53
-5.0399526e+52
1.0645444e+53
-1.3435471e+54
1.1496145e+52
-4.966949e+52
-5.1192749e+52
1.0934399e+53
1.1143859e+53
-1.9797381e+52
1.308821e+54
-1.6311069e+54
-6.5769325e+52
-6.2889688e+52
9.4478155e+52
9.1956442e+52
-1.6755461e+54
-6.2867578e+52
9.4987451e+52
-6.4805125e+52
9.7160587e+52
-5.0852999e+52
-4.8546432e+52
1.0906876e+53
1.0535528e+53
-1.2893673e+54
1.3523995e+52
-1.9044035e+52
-7.2976912e+52
7.9146823e+52
-7.4597554e+52
8.1303574e+52
1.6226064e+52
-1.9740582e+52
-1.6346868e+54
-7.7072674e+52
-7.8903913e+52
7.151768e+52
7.3486134e+52
1.2605122e+54
-1.5905603e+54
-7.9391922e+52
-7.6565077e+52
7.1557735e+52
6.9341992e+52
-7.4757605e+52
-7.2088337e+52
7.884235e+52
7.595823e+52
-1.293601e+54
9.9081037e+51
-5.4817406e+51
-7.1687131e+52
8.0076057e+52
-7.4190511e+52
8.240836e+52
-1.1084861e+52
1.3002741e+54
-1.6497069e+54
-8.0548313e+52
-7.809377e+52
7.2082742e+52
7.0453601e+52
-1.6289324e+54
-1.1097232e+52
-7.5569534e+52
7.2541683e+52
-7.8138704e+52
7.5005917e+52
-7.6044277e+52
-7.3899357e+52
7.966315e+52
7.7153633e+52
-1.2675924e+54
1.3191829e+52
1.6141561e+54
-8.0448806e+52
6.7016836e+52
-8.238305e+52
6.9768278e+52
-1.1677091e+52
1.2790503e+54
-1.6373486e+54
1.8583918e+52
-8.6340178e+52
-8.3254046e+52
6.5576379e+52
6.4712824e+52
-8.3579525e+52
6.8354124e+52
1.7890431e+52
1.6381854e+54
-8.4741015e+52
-8.160951e+52
6.6833548e+52
6.5731737e+52
-1.2777013e+54
1.5907306e+52
-8.9670616e+52
6.4590405e+52
-8.6666163e+52
6.3212629e+52
1.7246494e+52
5.796855e+52
5.6214263e+52
-1.6091002e+54
-9.6368315e+52
-9.8112477e+52
-1.4697838e+52
1.2496431e+54
1.3508289e+52
5.601149e+52
5.3440215e+52
-1.5640953e+54
-9.6374318e+52
-9.8300768e+52
1.2708377e+54
5.5784412e+52
5.8442078e+52
-1.6018507e+54
-9.7907461e+52
-9.5233484e+52
1.3103186e+52
1.625967e+54
-8.7051797e+52
6.1503541e+52
-8.7989245e+52
6.45467e+52
-5.2251979e+54
1.729106e+52
2.6896989e+53
2.8265567e+53
-4.3336325e+53
-4.2809331e+53
1.5939157e+54
1.5708439e+52
-8.9826626e+52
6.2136851e+52
-8.6722686e+52
5.9636428e+52
-1.6343195e+52
1.2458351e+54
1.6971868e+52
-8.6386674e+52
6.3039557e+52
-8.3616759e+52
6.0830521e+52
-1.2658896e+54
9.4247129e+51
1.6212598e+54
-8.2750784e+52
6.3905464e+52
-8.3908897e+52
6.6533012e+52
-8.3727425e+52
6.2411853e+52
-8.5121316e+52
6.5328222e+52
9.3820183e+51
1.5842621e+54
-8.5085482e+52
6.4174441e+52
-8.2762034e+52
6.1260389e+52
6.6361996e+51
-6.5544528e+54
-4.3057639e+53
-4.2822892e+53
2.9727861e+53
2.6057234e+53
-1.2795269e+54
1.1726936e+52
-8.0928022e+52
6.7075549e+52
-8.3296444e+52
6.9611226e+52
-1.2627994e+52
1.2890493e+54
-1.6505432e+54
1.73704e+52
-8.6574723e+52
-8.427363e+52
6.5859835e+52
6.4325816e+52
-1.6299975e+54
-8.1876045e+52
6.5548133e+52
-8.450278e+52
6.825202e+52
1.6979303e+52
-8.5237745e+52
-8.2845716e+52
6.6919782e+52
6.50751e+52
-1.4614661e+52
-1.2891124e+54
1.6721134e+52
-9.0280015e+52
6.4652541e+52
-8.8008421e+52
6.2713064e+52
-1.2809069e+54
-8.5579177e+52
6.4260683e+52
-8.7568511e+52
6.7349126e+52
1.4493876e+52
5.6489809e+52
5.9845496e+52
-1.6120489e+54
-9.5956704e+52
-9.8440828e+52
1.7204572e+52
5.7471403e+52
5.5273301e+52
-1.6246555e+54
-9.8303934e+52
-9.935783e+52
2.5536763e+51
-5.3810518e+54
2.8779574e+53
2.8423255e+53
-4.1981353e+53
-4.5061307e+53
-1.9191405e+52
1.2575145e+54
5.8153357e+52
5.5773093e+52
-1.5776894e+54
-9.5979206e+52
-9.7461532e+52
1.2854811e+54
5.8546535e+52
6.0676485e+52
-1.6226367e+54
-9.7852562e+52
-9.4674608e+52
1.6795742e+52
1.6432276e+54
-8.6257618e+52
6.4046972e+52
-8.7547866e+52
6.6493863e+52
-5.3602301e+54
2.8038896e+53
2.9575783e+53
-4.288802e+53
-4.2178679e+53
1.6030038e+54
-8.894382e+52
6.4061145e+52
-8.5822738e+52
6.1666983e+52
-4.58888e+51
-6.6787493e+54
2.9115903e+53
-4.2461139e+53
-4.6330331e+53
2.7524567e+53
-6.6657214e+54
-4.2780468e+53
-4.1431707e+53
3.13316e+53
2.8342933e+53
1.2539366e+54
-1.8391906e+52
-8.5563985e+52
6.5103988e+52
-8.2706711e+52
6.3133594e+52
-1.124539e+52
-8.4411933e+52
6.5743084e+52
-8.1792365e+52
6.312795e+52
1.2788117e+54
-8.2836664e+52
6.5110586e+52
-8.4736323e+52
6.7366624e+52
-8.2255083e+52
6.5658878e+52
-8.3820938e+52
6.7652131e+52
5.2654179e+53
-2.6200438e+55
-3.5859044e+54
2.3555095e+55
-2.648689e+55
-3.6509473e+54
-8.2431275e+53
1.942829e+54
1.8985081e+54
-7.3708525e+53
4.8701302e+54
-3.7558756e+52
-6.0480837e+54
3.8197101e+53
-2.2946774e+53
3.6582113e+53
-2.3153597e+53
5.9491546e+51
3.0816056e+53
-3.8398511e+53
-3.8467958e+53
2.8314476e+53
-4.9054907e+54
1.698637e+52
3.1753362e+53
-3.9193709e+53
-4.088794e+53
3.1285957e+53
-7.2729467e+51
-6.0330115e+54
3.733267e+53
-2.3275473e+53
3.6872605e+53
-2.5040866e+53
-4.8738179e+54
3.3926382e+53
-3.7917767e+53
-3.7672514e+53
3.1228547e+53
-5.9178433e+54
3.8508049e+53
-2.3248155e+53
3.61831e+53
-2.3883553e+53
-1.2432958e+52
1.3385178e+54
-1.6778152e+54
1.8214956e+52
-6.6407715e+52
9.5149447e+52
-6.3759272e+52
9.3673855e+52
1.3229444e+54
-1.6515466e+54
-6.2091986e+52
9.3995219e+52
-6.4322146e+52
9.6695378e+52
8.5332197e+51
-4.8309879e+52
-5.0109609e+52
1.0803165e+53
1.1088271e+53
1.2603512e+52
-5.1927434e+52
-4.971226e+52
1.0935087e+53
1.0691978e+53
1.2806293e+54
1.3413392e+52
-7.518238e+52
-7.718124e+52
7.214148e+52
7.4843411e+52
-1.1831403e+52
-1.2919634e+54
1.6029527e+52
-7.5591462e+52
7.9592217e+52
-7.3032254e+52
7.7663291e+52
-7.1406619e+52
7.8895845e+52
-7.3293351e+52
8.1536119e+52
2.1864345e+52
-7.9930645e+52
-7.686992e+52
7.2057155e+52
7.1028875e+52
-1.5393557e+52
1.2560285e+54
-7.9925153e+52
-7.7417266e+52
6.9910618e+52
6.7263706e+52
1.2805883e+54
-7.725382e+52
-7.8689877e+52
6.9735443e+52
7.2245071e+52
1.0546111e+52
1.6612064e+54
-7.3468249e+52
-7.485744e+52
7.6575527e+52
7.8876552e+52
1.6266354e+54
-7.5516786e+52
-7.3455144e+52
7.7345588e+52
7.3859143e+52
1.3045603e+54
-1.6011671e+52
-6.6136841e+52
9.2878638e+52
-6.3824801e+52
8.9673721e+52
-5.6648901e+51
-5.1933108e+52
1.0704879e+53
-5.0438261e+52
1.0263518e+53
1.3250931e+54
-6.3774381e+52
9.1970751e+52
-6.5552648e+52
9.4206627e+52
-5.0512184e+52
-5.1904903e+52
1.0576428e+53
1.0789332e+53
3.7000006e+51
-2.8164251e+53
-5.426302e+51
3.5406433e+53
-1.9251506e+52
-1.9609664e+52
1.2474774e+52
1.3069621e+52
-2.7665444e+53
3.4674922e+53
3.9476949e+51
1.2489323e+52
1.2162359e+52
-2.0158311e+52
-1.9519522e+52
-1.4530563e+52
-1.2483982e+54
1.1567521e+52
5.9813756e+52
-9.5532953e+52
-9.3517989e+52
5.7616063e+52
-3.3009861e+51
3.4439886e+51
-3.5230141e+53
-2.2293944e+52
-4.6905204e+51
-3.6088703e+53
-1.8618666e+52
4.7321462e+51
-2.767649e+53
3.4628642e+53
-5.2888377e+51
-1.9088265e+52
-1.9632032e+52
1.2502776e+52
1.3152431e+52
-2.8077848e+53
3.5317958e+53
1.2891088e+52
1.2711707e+52
-1.9821492e+52
-1.9326155e+52
-1.2341973e+54
-1.981731e+52
-9.3199224e+52
-9.2251154e+52
5.849678e+52
6.2320505e+52
-3.3169475e+51
-3.5966276e+53
-2.0239056e+52
-4.0050429e+51
-3.5232562e+53
-1.9902491e+52
2.6764392e+53
3.508649e+51
-4.4251531e+51
-1.7246353e+52
-1.7671933e+52
1.427498e+52
1.3695399e+52
3.4316815e+51
3.3724311e+53
-3.2695865e+51
-1.7339113e+52
-1.7771508e+52
1.358359e+52
1.4179641e+52
2.7141896e+53
4.6600719e+51
1.3921786e+52
-1.7787491e+52
1.4089534e+52
-1.7183017e+52
3.973435e+51
3.4432555e+53
1.3943583e+52
-1.7980778e+52
-1.7387024e+52
1.3739874e+52
-1.0441575e+52
6.8699673e+51
-1.6096472e+54
-9.5816822e+52
-9.7494814e+52
6.2130554e+52
5.7559321e+52
-1.5840402e+54
-1.975082e+52
-9.5480784e+52
-9.4673982e+52
5.8336968e+52
6.2160151e+52
2.7176474e+53
3.8586558e+51
1.4193267e+52
-1.7609559e+52
1.3603133e+52
-1.7861294e+52
2.4226384e+51
3.4453286e+53
1.3526391e+52
-1.7661897e+52
-1.7897832e+52
1.4107579e+52
2.67684e+53
3.4986339e+51
1.3396e+52
-1.8102927e+52
1.3718425e+52
-1.7417989e+52
2.7981129e+51
3.3788067e+53
1.3598354e+52
-1.8261623e+52
-1.7619855e+52
1.3194503e+52
1.9004898e+51
2.6542073e+53
-2.9874077e+51
-3.440633e+53
-1.7332281e+52