/*--------------------------------*- C++ -*----------------------------------*\
  =========                 |
  \\      /  F ield         | OpenFOAM: The Open Source CFD Toolbox
   \\    /   O peration     | Website:  https://openfoam.org
    \\  /    A nd           | Version:  7
     \\/     M anipulation  |
\*---------------------------------------------------------------------------*/
FoamFile
{
    version     2.0;
    format      ascii;
    class       volScalarField;
    location    "5000";
    object      k;
}
// * * * * * * * * * * * * * * * * * * * * * * * * * * * * * * * * * * * * * //

dimensions      [0 2 -2 0 0 0 0];

internalField   nonuniform List<scalar> 
33943
(
1.5229648
1.5208721
1.5227937
1.5219013
1.5280404
1.5205713
1.5223342
1.5239599
1.5220358
1.5217453
1.5239558
1.5236806
1.5205104
1.5208658
1.5207593
1.520415
1.5210752
1.522014
1.522943
1.5232145
1.5282197
1.5203784
1.5205115
1.5276631
1.5296634
1.5292228
1.529085
1.5294831
1.5202023
1.5192854
1.5197643
1.5209203
1.5212038
1.5222741
1.5216475
1.5223957
1.5227452
1.5220785
1.5223192
1.5227359
1.5224792
1.5251853
1.5248989
1.5215011
1.5214501
1.5221467
1.5221911
1.5213661
1.5211879
1.5219971
1.5218278
1.5205435
1.5203302
1.5205953
1.5203993
1.5205226
1.5205034
1.5202522
1.5202375
1.5285058
1.5225851
1.5233253
1.5223791
1.5230878
1.5200632
1.5198127
1.5199413
1.5196787
1.5205175
1.5200727
1.5204016
1.5199391
1.5217068
1.5215315
1.5218619
1.5218135
1.5239693
1.5278977
1.5242676
1.530174
1.5299649
1.5295525
1.5297287
1.5201934
1.5201773
1.5203385
1.5202553
1.529004
1.5280642
1.5277529
1.5286544
1.5305792
1.5302789
1.5308569
1.5311253
1.5193107
1.5194676
1.5209833
1.5211169
1.5185621
1.5185852
1.5203454
1.5203365
1.5188346
1.5204593
1.5207527
1.5190947
1.5208041
1.5207858
1.5210345
1.5210656
1.5208646
1.5211784
1.5213369
1.521072
1.5224007
1.5217496
1.522504
1.5223435
1.5223577
1.5225957
1.522746
1.5227497
1.5223837
1.5226534
1.5218792
1.5220481
1.5227755
1.5221266
1.5221623
1.5256903
1.5219167
1.5220557
1.5229856
1.5228589
1.5217547
1.5226174
1.5218282
1.522698
1.5213015
1.5212709
1.5215492
1.5215263
1.5212498
1.5212397
1.5214942
1.521479
1.5212037
1.5211875
1.5214094
1.5213928
1.5211216
1.5210323
1.5211698
1.5212779
1.5208028
1.5208119
1.5203594
1.5203621
1.5208113
1.5208262
1.5204477
1.5204216
1.5208144
1.5208186
1.520327
1.5203228
1.5203
1.5207909
1.5208088
1.5203093
1.5281425
1.5241278
1.523408
1.5231597
1.5307696
1.5302069
1.5300206
1.530549
1.5243981
1.5213382
1.5213183
1.5215108
1.5215386
1.5215045
1.5218912
1.5218539
1.5214699
1.521293
1.5211225
1.5212559
1.521427
1.5215941
1.5217441
1.5213915
1.5212357
1.5200691
1.5198957
1.5199881
1.5199877
1.5198292
1.5199164
1.519851
1.5197515
1.5199364
1.5198366
1.5198506
1.5199217
1.5197633
1.5197752
1.5202429
1.5202112
1.5201264
1.5203146
1.5200399
1.520167
1.5201274
1.5200904
1.5200741
1.5201776
1.5201637
1.5200585
1.5200187
1.5199953
1.5200325
1.5199788
1.5212933
1.521311
1.5210799
1.5211964
1.5214085
1.5222188
1.5214365
1.521369
1.5213829
1.522283
1.5251428
1.5285184
1.5282302
1.5290583
1.529369
1.5224076
1.5225659
1.5310403
1.5315366
1.531346
1.5308328
1.5203622
1.520357
1.5203326
1.5203439
1.5204695
1.5204415
1.5203844
1.5203889
1.5282201
1.5263616
1.5265252
1.5282703
1.5305414
1.5303041
1.5309512
1.5312206
1.5176795
1.5181504
1.521648
1.5186919
1.5188149
1.5204491
1.5201733
1.5188793
1.518848
1.5205017
1.5205358
1.5206404
1.5209401
1.5211049
1.5213131
1.5210113
1.52097
1.5213404
1.5212674
1.5188171
1.5188451
1.520591
1.5205786
1.5190206
1.5206641
1.5209119
1.5192673
1.5208271
1.5208044
1.5209286
1.520966
1.5209182
1.5207955
1.5207988
1.5209224
1.5209645
1.5210419
1.521045
1.5209586
1.5210154
1.5209709
1.5210916
1.5210541
1.5208566
1.520871
1.5209597
1.5209822
1.5211181
1.5210469
1.5211771
1.521348
1.5211317
1.5214359
1.5211305
1.5213956
1.5209927
1.521019
1.5210528
1.5210691
1.5225045
1.522373
1.522564
1.5218079
1.5221962
1.5228495
1.522772
1.5223831
1.5226226
1.5227641
1.522342
1.5224796
1.5225522
1.5223435
1.5226828
1.522677
1.5226518
1.5227211
1.5217527
1.5218726
1.522287
1.5225093
1.5226218
1.5219241
1.5226696
1.5219507
1.5227752
1.5227881
1.5227945
1.5228127
1.5227266
1.5220041
1.5227414
1.5220067
1.5227647
1.5220052
1.5226919
1.5238918
1.5216267
1.5219852
1.5216126
1.5219651
1.5216949
1.522093
1.5217766
1.5221686
1.5215279
1.5214701
1.521839
1.5217956
1.5215663
1.5218842
1.521553
1.5218731
1.5212072
1.5211832
1.5213388
1.5213245
1.5211683
1.5211629
1.5213035
1.5212979
1.5212785
1.5211508
1.5211484
1.5212773
1.5211458
1.5211428
1.5212639
1.5212698
1.521126
1.5211236
1.5212228
1.521225
1.5211177
1.521113
1.5212022
1.5212104
1.5210796
1.5210797
1.5211212
1.5211313
1.5210589
1.5210574
1.5209854
1.5210346
1.521399
1.5213839
1.5204717
1.5204731
1.5214088
1.5214018
1.5204811
1.5204791
1.5205464
1.5212582
1.5213246
1.5205314
1.5213753
1.5213809
1.5205203
1.5205185
1.5214336
1.5214559
1.5204609
1.5204634
1.5204624
1.5214773
1.5214483
1.5204605
1.5214415
1.5214289
1.5204304
1.5204327
1.5214561
1.5214584
1.5204455
1.5204494
1.5247575
1.5289984
1.5297749
1.5293987
1.528672
1.525302
1.5223165
1.522264
1.5217653
1.5218081
1.5218283
1.5219533
1.5216601
1.5221057
1.5215679
1.5217998
1.5215377
1.5218356
1.5313901
1.5312212
1.5316893
1.5318413
1.522081
1.522447
1.5225887
1.5219163
1.5210281
1.5210468
1.5211084
1.5210889
1.521016
1.5210104
1.5210731
1.5210672
1.5211633
1.5210791
1.5210727
1.5211556
1.5210957
1.5211188
1.5212052
1.5211827
1.5212113
1.5211854
1.5212542
1.5212779
1.5214345
1.5212556
1.5212821
1.5214104
1.521385
1.5212228
1.5212327
1.5213731
1.5212308
1.5211569
1.5211653
1.5212217
1.5208533
1.5209609
1.5210283
1.5209287
1.5208574
1.5209533
1.5209098
1.5208112
1.5210276
1.5209647
1.520972
1.5210195
1.5211121
1.5210245
1.5210341
1.5211018
1.5209645
1.5210772
1.5212017
1.5211012
1.5211619
1.5211764
1.5213133
1.5212991
1.5211749
1.5211153
1.5211032
1.5211625
1.521076
1.5210311
1.5209208
1.5209758
1.5205122
1.5204795
1.5205072
1.5204748
1.5204184
1.5204338
1.5203935
1.5204084
1.5204718
1.5204508
1.5204647
1.5204464
1.5204573
1.5204211
1.5204718
1.5204346
1.5203312
1.5203352
1.5203472
1.520351
1.5203916
1.5203942
1.5203773
1.5203862
1.5202853
1.5202666
1.520205
1.5201704
1.5202138
1.5202293
1.5201329
1.5201195
1.520483
1.5204775
1.5204377
1.5204319
1.5204062
1.520376
1.5203994
1.5204439
1.5204143
1.52044
1.5204104
1.5204426
1.5204656
1.5203983
1.5204191
1.5203192
1.5203186
1.5203578
1.5203563
1.5203547
1.5203535
1.5204022
1.5204095
1.5203718
1.5203771
1.5204943
1.5205107
1.5204613
1.5204443
1.5204411
1.5204512
1.5203853
1.5203932
1.5204584
1.5204806
1.5204529
1.5204312
1.5204704
1.5204267
1.5204837
1.520439
1.5205185
1.5205287
1.5204823
1.5204707
1.5205267
1.5204892
1.5205205
1.5204823
1.5204655
1.5204776
1.5204146
1.5204252
1.5204443
1.5204369
1.5203771
1.5203709
1.5203939
1.5203871
1.5203495
1.5203442
1.5203603
1.5203744
1.5203197
1.5203309
1.5204076
1.5204242
1.5203435
1.5203574
1.5204409
1.52046
1.5203804
1.520397
1.5204897
1.520438
1.520483
1.5204317
1.520479
1.5204719
1.5204163
1.5204098
1.5204497
1.5203997
1.5204705
1.5204186
1.5211763
1.5211685
1.5211894
1.5211866
1.5210172
1.520967
1.5211051
1.5210944
1.521259
1.5212533
1.5217029
1.5216602
1.5212964
1.5212784
1.5212279
1.5212225
1.5212357
1.521234
1.5217428
1.5217298
1.5235984
1.5260659
1.5262043
1.5281642
1.5280904
1.5218335
1.5218142
1.5219287
1.522019
1.531013
1.5316006
1.5314515
1.5308115
1.5204893
1.5204933
1.5204898
1.5204927
1.5204611
1.5204574
1.5204746
1.5204783
1.5205658
1.5205498
1.5205435
1.5205413
1.5204952
1.5204979
1.5205049
1.5205066
1.5281338
1.5262029
1.5263597
1.5281719
1.5306264
1.5304267
1.5310756
1.5312962
1.5180661
1.5180312
1.5176584
1.5180403
1.5223489
1.5219294
1.5190035
1.5189325
1.5190949
1.5207115
1.5204213
1.5191597
1.519118
1.5207565
1.5207903
1.519326
1.5205698
1.5207321
1.520962
1.520714
1.5209277
1.520949
1.5211146
1.5211429
1.5210825
1.520118
1.5211208
1.5208154
1.5212775
1.5212367
1.5212054
1.5213286
1.5213492
1.5210097
1.5210126
1.5211932
1.5211879
1.5209898
1.5209696
1.5211258
1.5211725
1.5212744
1.521362
1.521279
1.5213593
1.5212579
1.5211897
1.5212472
1.5213354
1.5187864
1.5188163
1.5207768
1.5209245
1.5208986
1.5207567
1.5208868
1.520889
1.5189957
1.5208207
1.5209349
1.5209505
1.521031
1.5210968
1.5212413
1.5191845
1.5209566
1.5209949
1.5209449
1.5209485
1.520967
1.5209715
1.5209869
1.5209796
1.5209879
1.5209872
1.5210327
1.5210323
1.5209906
1.5210337
1.520999
1.5210389
1.5209637
1.5209646
1.5209773
1.5209762
1.5210298
1.5210075
1.5210489
1.5210152
1.5209785
1.5209748
1.5209924
1.5209865
1.521057
1.5210204
1.5210852
1.5210564
1.5210021
1.5209952
1.5210437
1.5210391
1.5209829
1.5210029
1.5211255
1.5213466
1.5211034
1.5211123
1.5211373
1.5211436
1.521293
1.5214745
1.5213104
1.5215743
1.5210976
1.5211499
1.5211322
1.5210772
1.521643
1.5212628
1.5215095
1.5212976
1.5209967
1.5210066
1.521013
1.5210007
1.5210151
1.5210248
1.5210241
1.5210398
1.5210147
1.5210219
1.5210419
1.5210449
1.5210313
1.5210499
1.5210485
1.5210596
1.5225768
1.5224093
1.5225894
1.522422
1.5226275
1.522796
1.5229106
1.5228062
1.5224464
1.522326
1.5225181
1.5223304
1.5225436
1.5223425
1.5226268
1.5226072
1.5226548
1.5226846
1.5226763
1.5227093
1.522773
1.5227606
1.5227749
1.5227918
1.5227875
1.5228048
1.5225603
1.5225772
1.5225817
1.5226133
1.5223963
1.5223163
1.5223074
1.5224411
1.5226864
1.5226964
1.5227138
1.522698
1.5227368
1.5227239
1.5227304
1.5227483
1.5217883
1.5221178
1.5222851
1.5218952
1.5219595
1.5223804
1.5224352
1.5219788
1.5224631
1.5222994
1.5224709
1.5222876
1.5226309
1.5225853
1.5226384
1.522585
1.5227045
1.5227235
1.5227047
1.5227231
1.5219979
1.5224792
1.522493
1.5220122
1.5227453
1.522744
1.5227589
1.5227622
1.5225084
1.5225421
1.5220421
1.5220192
1.5228006
1.5227947
1.5228018
1.5228113
1.5228167
1.5228144
1.5228218
1.5228262
1.5228171
1.5228056
1.5228013
1.5228117
1.5220696
1.522566
1.522576
1.5220893
1.522831
1.5228261
1.5228207
1.5228256
1.5225982
1.5225922
1.5221037
1.5220959
1.5228541
1.5228459
1.5228407
1.5228477
1.5220859
1.522601
1.5226049
1.5220982
1.5221781
1.5222272
1.5230356
1.5229243
1.5216772
1.5214752
1.5214726
1.5216736
1.5214694
1.5214666
1.5216541
1.5216623
1.5215234
1.5215159
1.5217638
1.5217497
1.5215816
1.5215692
1.5218694
1.521841
1.5214146
1.5214038
1.5215663
1.5215604
1.521373
1.5213209
1.5215296
1.5215006
1.5214403
1.5214366
1.5216028
1.5216
1.521431
1.5215906
1.5214261
1.5215848
1.52109
1.5211126
1.5212585
1.5212507
1.5210688
1.5210725
1.5212347
1.5212314
1.5210561
1.5210601
1.5212176
1.5212161
1.5210547
1.5210548
1.5212116
1.5212092
1.5210456
1.5210478
1.5211962
1.5211951
1.5210452
1.521044
1.5211939
1.5211926
1.5210456
1.5210457
1.5211896
1.5211888
1.52105
1.521047
1.521185
1.5211822
1.5210464
1.521047
1.5211602
1.5211586
1.5210468
1.5210456
1.5211566
1.5211552
1.5210467
1.5210454
1.521148
1.5211469
1.5210524
1.521049
1.5211411
1.5211366
1.5210517
1.5210464
1.5210892
1.5210865
1.5210802
1.5210619
1.5210788
1.521074
1.5211002
1.5210135
1.5211557
1.5210099
1.5212192
1.5212789
1.5209671
1.5209351
1.5215002
1.5214851
1.5215136
1.5215011
1.52134
1.5214128
1.5214707
1.5214781
1.5215391
1.5215616
1.5215853
1.5215543
1.5215519
1.5215373
1.5215671
1.521571
1.5233604
1.5234858
1.5258184
1.5279375
1.5280255
1.5259519
1.5233669
1.5236944
1.5215403
1.5215511
1.521742
1.5217314
1.5214808
1.521518
1.5216688
1.5217052
1.5215128
1.5214345
1.5214801
1.521401
1.5215441
1.5214533
1.521462
1.5215342
1.5214525
1.5215411
1.5213589
1.5214582
1.5213893
1.5213987
1.5215195
1.5215087
1.5213667
1.5213751
1.5212846
1.5212773
1.5214738
1.521562
1.5216837
1.5216034
1.5212276
1.5212317
1.5213146
1.52131
1.5212893
1.5213166
1.5213945
1.5214232
1.5212148
1.5212714
1.5212939
1.521193
1.521448
1.5213315
1.5214406
1.521337
1.5321205
1.5317097
1.5319701
1.5315485
1.5312932
1.5311737
1.5317702
1.5318989
1.5217156
1.5216991
1.5216104
1.5217947
1.5216131
1.521628
1.5218332
1.521817
1.5218068
1.5217178
1.5220094
1.5219312
1.521518
1.5215305
1.5216205
1.5216076
1.5210352
1.5210299
1.5210134
1.5210197
1.5210752
1.5210483
1.52103
1.5210574
1.5210904
1.5211062
1.5210604
1.5210791
1.5210465
1.5210636
1.5210411
1.5210588
1.5210203
1.5210165
1.5210001
1.5210052
1.5210143
1.5210108
1.5209944
1.5209989
1.5210311
1.5210474
1.5210275
1.5210447
1.5210254
1.5210421
1.521022
1.5210392
1.5210738
1.521096
1.5210722
1.5210949
1.5210552
1.5210527
1.5210648
1.5210666
1.5210502
1.5210473
1.5210619
1.5210592
1.5210686
1.5210659
1.5210911
1.5210883
1.5210716
1.5210836
1.5210799
1.5210667
1.5211171
1.5211275
1.5210876
1.5211011
1.5211364
1.5211575
1.521133
1.5211079
1.5210904
1.521114
1.5210863
1.5211099
1.5211636
1.5211791
1.5211371
1.5211561
1.5211184
1.5211364
1.5211138
1.521132
1.5211399
1.5211683
1.5211351
1.5211636
1.5211838
1.5212088
1.521159
1.5211878
1.5212383
1.5212933
1.5212185
1.5212771
1.5211709
1.5211951
1.5211658
1.5211904
1.5212123
1.5212336
1.5211898
1.5212151
1.5211986
1.5212569
1.5211935
1.5212518
1.5211771
1.5212336
1.5211763
1.5212325
1.5211452
1.5211415
1.5211674
1.5211638
1.5211504
1.5211732
1.5211497
1.5211726
1.5211708
1.5212261
1.5211666
1.5212216
1.521121
1.5211474
1.5211202
1.5211468
1.5210955
1.5211122
1.5210925
1.5211093
1.5211003
1.5211171
1.5210991
1.5211162
1.5211158
1.5211126
1.5211421
1.5211389
1.5209285
1.5209053
1.520928
1.5209096
1.5209877
1.5209932
1.5209823
1.5209885
1.5210027
1.5210156
1.5209975
1.5210108
1.5209406
1.5209487
1.5209216
1.5209316
1.5209044
1.5209128
1.5208696
1.5208876
1.5209638
1.5209752
1.5209572
1.5209699
1.5209466
1.52094
1.5209294
1.5209211
1.5208828
1.5208436
1.5208121
1.5208656
1.5210016
1.5210172
1.5209988
1.5210152
1.520982
1.5209792
1.5209617
1.5209655
1.520987
1.5209841
1.5209664
1.5209702
1.5209955
1.5210109
1.5209929
1.5210087
1.5210462
1.5210658
1.5210449
1.5210647
1.5210209
1.5210306
1.5210186
1.5210284
1.521027
1.5210372
1.5210251
1.5210358
1.521039
1.5210582
1.5210365
1.5210554
1.5209809
1.5209507
1.5209811
1.5209502
1.5210538
1.5210467
1.521063
1.5210561
1.5210662
1.5211033
1.5210577
1.521095
1.5209849
1.5210163
1.5209452
1.5209769
1.5211073
1.5211025
1.521124
1.5211191
1.5211168
1.5211348
1.5211155
1.5211334
1.5211387
1.5211868
1.5211369
1.5211849
1.5211276
1.5211217
1.5211744
1.5211681
1.5210909
1.5211129
1.5210899
1.5211119
1.5210717
1.5210705
1.5210857
1.5210847
1.5210641
1.521061
1.5210775
1.5210742
1.5210823
1.5210785
1.5211035
1.5210995
1.5210365
1.5210304
1.5210495
1.5210438
1.5210226
1.5210171
1.5210306
1.5210254
1.5209388
1.5209582
1.5209592
1.5209402
1.5209674
1.5209443
1.5209753
1.5209518
1.52086
1.5209126
1.5208578
1.5209156
1.5208806
1.5208197
1.5208203
1.5208825
1.5209738
1.5209089
1.5209641
1.5208993
1.5209247
1.5208542
1.5209347
1.5208635
1.5210922
1.5209897
1.520978
1.5210775
1.5211029
1.5211032
1.5210013
1.5210033
1.5209135
1.5210187
1.5209225
1.521007
1.5210337
1.5209402
1.5210309
1.5209348
1.5209443
1.5210201
1.5209396
1.5210264
1.5209649
1.5208881
1.5208915
1.5209695
1.5210067
1.5210947
1.5209987
1.5211008
1.5210267
1.5209372
1.521035
1.5209463
1.5209493
1.5208798
1.5208732
1.5209404
1.5208315
1.5208998
1.5209065
1.520825
1.5209622
1.5209689
1.520893
1.5209011
1.5208449
1.5209295
1.5208539
1.5209203
1.5213478
1.5213434
1.5211764
1.5211689
1.5211938
1.5210625
1.5210494
1.5212045
1.5213608
1.5213625
1.5211914
1.5211895
1.5212172
1.5212167
1.5210735
1.5210741
1.5210939
1.5212219
1.5210843
1.5212331
1.5211088
1.5209937
1.5210007
1.5211184
1.5211832
1.5213383
1.5211751
1.5213447
1.5212017
1.5210663
1.5212083
1.5210731
1.5213755
1.5213832
1.5212026
1.5212111
1.5213162
1.5213226
1.5215145
1.5215169
1.5213601
1.5214923
1.5215346
1.5215348
1.5213247
1.5213221
1.5213375
1.5213407
1.5215457
1.5215462
1.5215225
1.5215115
1.5210029
1.5209324
1.5209262
1.5209955
1.521003
1.5210009
1.5209282
1.5209315
1.5208751
1.5209601
1.5208805
1.5209541
1.5209597
1.520879
1.5209567
1.5208753
1.5211206
1.5210119
1.5209996
1.5211052
1.5209295
1.5210418
1.520939
1.5210295
1.5210689
1.5209671
1.5210628
1.5209587
1.5210306
1.5211413
1.5210403
1.5211305
1.5210706
1.5209737
1.5209659
1.5210612
1.5210409
1.5211451
1.5210403
1.521143
1.5210711
1.5209711
1.5210714
1.5209735
1.5209668
1.5208925
1.5208855
1.5209575
1.5209867
1.5209116
1.5209968
1.5209229
1.5208326
1.5209201
1.5208384
1.5209131
1.5209521
1.5209396
1.520857
1.5208693
1.5213893
1.5213842
1.5212105
1.5212023
1.5212284
1.5210899
1.521076
1.5212401
1.5212192
1.5213937
1.5212259
1.5213896
1.5212537
1.521111
1.5211012
1.5212449
1.5212353
1.5214074
1.5212336
1.5214081
1.521262
1.5211144
1.5212608
1.5211139
1.5205115
1.5205528
1.5205139
1.5205499
1.5205624
1.5205225
1.5205263
1.5205669
1.5205133
1.5204813
1.5205116
1.520482
1.5204897
1.5204921
1.5205223
1.5205264
1.5206504
1.520698
1.5206501
1.5206993
1.5206842
1.520696
1.5206563
1.5206442
1.5206433
1.5206582
1.5206122
1.5205978
1.5205973
1.5205968
1.520649
1.5206484
1.5206077
1.5206625
1.5206114
1.5206584
1.5206758
1.520623
1.5206279
1.5206822
1.5206101
1.5205543
1.5206065
1.5205512
1.5205637
1.5205679
1.5206216
1.5206263
1.5205592
1.5205961
1.52056
1.5205954
1.5205965
1.5206138
1.520582
1.5205661
1.5205543
1.5205648
1.5205838
1.5205389
1.5205301
1.5205287
1.5205593
1.5205582
1.5207921
1.5208539
1.5207968
1.5208478
1.5208181
1.5207537
1.5207495
1.5208135
1.5208211
1.5208681
1.5208109
1.5208781
1.5208332
1.5207678
1.5207777
1.5208438
1.5208057
1.5207545
1.5207996
1.5207498
1.5207723
1.5207772
1.5207351
1.5207294
1.5207368
1.5207438
1.5206914
1.5206826
1.5206969
1.5206994
1.5207588
1.5207625
1.5208393
1.5208393
1.5207946
1.520793
1.5208112
1.5208135
1.5207617
1.5207579
1.5208313
1.5208757
1.5208224
1.5208852
1.5207834
1.5208429
1.5208514
1.5207901
1.5207137
1.5207703
1.5207174
1.520766
1.5207853
1.520732
1.5207401
1.520795
1.5207272
1.5206611
1.5207235
1.5206569
1.5206746
1.520681
1.5207428
1.5207502
1.5206927
1.5206349
1.5206316
1.5206894
1.5206902
1.5206309
1.5206274
1.5206867
1.5206325
1.520568
1.5205646
1.5206293
1.5206287
1.5205633
1.5205596
1.5206243
1.5205651
1.5205197
1.5205166
1.5205618
1.5205607
1.5205148
1.520512
1.5205569
1.5205174
1.5204766
1.5204769
1.520515
1.5205136
1.5204757
1.5204733
1.520511
1.5205251
1.5204815
1.5204798
1.520523
1.5205478
1.5205413
1.520497
1.5205027
1.5204802
1.5204427
1.520444
1.5204794
1.5205026
1.5204965
1.5204585
1.5204628
1.5206505
1.5205932
1.5205904
1.5206475
1.520678
1.520669
1.5206104
1.5206177
1.5205906
1.5205279
1.5205255
1.520588
1.520615
1.5206078
1.5205436
1.5205497
1.5207717
1.5207138
1.5207104
1.5207673
1.5208027
1.5207909
1.5207326
1.5207428
1.5207241
1.52065
1.5206468
1.5207209
1.5207535
1.5207437
1.5206681
1.520677
1.520904
1.5208988
1.5208438
1.5208388
1.5208661
1.5208615
1.5207966
1.5207917
1.5208999
1.5208384
1.5208419
1.5209031
1.5207918
1.5207937
1.520862
1.5208645
1.520814
1.5207566
1.5207528
1.5208097
1.5208104
1.5207527
1.5207527
1.5208113
1.5207668
1.5206921
1.5206882
1.5207636
1.5207647
1.5206886
1.5206865
1.5207631
1.5208622
1.5208005
1.5208561
1.5207952
1.520818
1.5208233
1.5207535
1.5207487
1.5208944
1.5208317
1.5208812
1.5208194
1.5207722
1.5208428
1.5208556
1.5207835
1.5211355
1.5211341
1.5211289
1.5211246
1.5211469
1.5211448
1.5211432
1.5211418
1.5210095
1.5210063
1.5209686
1.5209356
1.5210808
1.5210776
1.5210712
1.5210666
1.5211984
1.5212005
1.5211942
1.521192
1.5215133
1.5215067
1.5214784
1.5214466
1.5212426
1.521233
1.5212172
1.5212137
1.5211737
1.5211725
1.5211666
1.5211691
1.5211798
1.521178
1.5211772
1.5211761
1.5215443
1.5215479
1.5215363
1.5215305
1.5227584
1.5228777
1.5257699
1.5259944
1.5280141
1.5278251
1.5216169
1.5216125
1.5216024
1.5215945
1.5216993
1.5216841
1.5218044
1.521772
1.5309424
1.5316102
1.5314669
1.5308124
1.5279891
1.5259525
1.5261282
1.5280841
1.5181307
1.5181046
1.5175419
1.519105
1.5191364
1.5178681
1.519256
1.5194468
1.5190786
1.5189464
1.5191001
1.5209139
1.5210316
1.5210539
1.5206205
1.5208362
1.5206582
1.5191625
1.5191221
1.5209543
1.5210954
1.5210701
1.5209863
1.5211089
1.5211146
1.5191585
1.5193184
1.5195305
1.5192227
1.5207751
1.5210084
1.521152
1.5211784
1.5211041
1.5210791
1.5211278
1.5211666
1.5192337
1.5196594
1.5200372
1.5204641
1.5208321
1.5211283
1.5210514
1.5212327
1.5209059
1.5207784
1.5207967
1.5209926
1.5211606
1.5212034
1.5212651
1.5212888
1.5212362
1.5212442
1.5212862
1.5212738
1.5212178
1.521208
1.5212457
1.52126
1.5212641
1.5212792
1.5213034
1.5213125
1.5212911
1.5213054
1.5213211
1.5213319
1.521229
1.5212228
1.5211634
1.5212102
1.5213145
1.521282
1.5212785
1.52132
1.5213338
1.5213285
1.5213365
1.5213376
1.521286
1.5212853
1.5213226
1.5213205
1.5213321
1.5213353
1.5213358
1.5213327
1.5212698
1.5212641
1.5212979
1.5213077
1.5212243
1.521188
1.5211979
1.5212614
1.5212687
1.5211887
1.5212633
1.5211831
1.5213212
1.5213241
1.5213072
1.5213064
1.520905
1.5209282
1.5209289
1.5210021
1.5209728
1.5208932
1.5208915
1.5209015
1.5209583
1.5209603
1.5209508
1.5209388
1.5209475
1.5209969
1.5210097
1.5212209
1.5210969
1.521131
1.5211271
1.5212762
1.520955
1.5209579
1.5209863
1.5209816
1.5209916
1.5209866
1.5209833
1.5210025
1.5210417
1.5210109
1.521048
1.5210155
1.5209439
1.5209451
1.5209708
1.5209719
1.5209768
1.5209758
1.5209484
1.5209459
1.5209779
1.5209732
1.5209788
1.520985
1.5209888
1.520992
1.520991
1.5209963
1.5209852
1.5209823
1.520983
1.5209867
1.5209861
1.5209856
1.5209852
1.5209854
1.5209847
1.5209839
1.5209846
1.5209853
1.5210072
1.5209915
1.5209909
1.5210066
1.521006
1.5209908
1.5209907
1.5210062
1.5209869
1.5209887
1.5209894
1.520987
1.5210077
1.5209922
1.5209947
1.5210094
1.5209941
1.5209936
1.5209992
1.5210008
1.5210128
1.5209993
1.5210047
1.5210165
1.5209841
1.5209809
1.5209803
1.5209833
1.5209823
1.5209794
1.5209796
1.5209827
1.5210581
1.5210639
1.5210467
1.5210446
1.5210161
1.5210192
1.5210213
1.5210159
1.5209949
1.5209964
1.5209998
1.5209973
1.5209896
1.5209905
1.5209936
1.5209917
1.5210665
1.5210664
1.5210429
1.5210397
1.5210207
1.5210219
1.5210152
1.5210124
1.5210635
1.5210633
1.521036
1.521041
1.5210114
1.5210197
1.5210273
1.5210218
1.5210013
1.5210013
1.5209983
1.5209977
1.5209949
1.5209949
1.5209925
1.5209917
1.5210159
1.5210037
1.5210001
1.5210127
1.520995
1.5209981
1.5210114
1.5210096
1.5209847
1.5209814
1.5210082
1.5210028
1.5210125
1.5210066
1.5210024
1.5209963
1.5210186
1.5210288
1.5210231
1.5210358
1.5211304
1.5211122
1.5211105
1.5211395
1.5211046
1.5211383
1.5213527
1.5212662
1.521277
1.5214542
1.521281
1.52152
1.5210938
1.5210985
1.5211041
1.5211047
1.5211297
1.5211341
1.521145
1.5211497
1.5212511
1.5212643
1.521293
1.5213033
1.5215194
1.5216089
1.5216866
1.5215184
1.5210873
1.5210906
1.5211036
1.5211021
1.5211532
1.5211271
1.5211587
1.5211248
1.5211207
1.5211069
1.521161
1.5211671
1.5210555
1.5210732
1.5210923
1.5210744
1.5215193
1.5217362
1.5215283
1.5217896
1.5212511
1.5213647
1.5213618
1.5212402
1.5217885
1.5215456
1.5215088
1.5216645
1.5213119
1.5212438
1.5213281
1.5212407
1.5210115
1.521009
1.5210108
1.5210147
1.5210186
1.5210157
1.5210167
1.5210207
1.5210275
1.5210254
1.5210267
1.52103
1.5210385
1.5210433
1.5210495
1.5210407
1.5210127
1.5210127
1.5210167
1.5210174
1.5210204
1.5210202
1.5210228
1.5210234
1.5210199
1.521013
1.5210173
1.5210216
1.521022
1.5210196
1.5210224
1.521024
1.5210286
1.5210287
1.5210319
1.5210326
1.5210419
1.5210419
1.521053
1.5210547
1.5210263
1.521026
1.5210309
1.5210308
1.5210516
1.5210393
1.5210373
1.521046
1.522631
1.5226536
1.5223215
1.5224668
1.5224518
1.5226745
1.5226401
1.5224565
1.5223357
1.5224958
1.5224683
1.522342
1.5226527
1.5226759
1.5226569
1.5226379
1.5227643
1.5227782
1.522824
1.5228281
1.5227755
1.5227921
1.522779
1.5227872
1.5225324
1.522563
1.5223419
1.5223519
1.5225726
1.5225991
1.522315
1.5224197
1.5226682
1.5226837
1.5226976
1.522717
1.522705
1.5226933
1.5227383
1.5227301
1.5227818
1.5227903
1.5227979
1.5228077
1.5227972
1.5228041
1.5228164
1.5228198
1.5225846
1.5226207
1.5223124
1.522451
1.522717
1.5227018
1.5227385
1.5227506
1.5220025
1.5221881
1.5223379
1.522117
1.5221863
1.522429
1.5224652
1.5222039
1.5224696
1.5223084
1.5224901
1.5223192
1.522635
1.5225918
1.5226473
1.5225981
1.522708
1.5227243
1.5227094
1.5227234
1.5222236
1.5225066
1.5225208
1.522241
1.522744
1.5227445
1.5227592
1.5227601
1.5225337
1.5225537
1.5222695
1.5222568
1.5228019
1.5228108
1.522821
1.5228256
1.5228154
1.5228046
1.5227974
1.522806
1.5222984
1.5225798
1.5225911
1.5223202
1.5228291
1.5228239
1.5228118
1.5228174
1.5226039
1.522602
1.5223315
1.5223259
1.5228312
1.522838
1.5223241
1.5226131
1.5226315
1.5223465
1.5217455
1.5217956
1.5223875
1.5224398
1.5217019
1.5217159
1.5225182
1.522525
1.5213261
1.5213267
1.5215461
1.5215428
1.5213315
1.5213275
1.5215398
1.5215377
1.521335
1.5213345
1.5215316
1.5215303
1.5213441
1.52134
1.5215249
1.521521
1.5213259
1.5213243
1.521623
1.5216184
1.5213387
1.5213315
1.5216063
1.5216003
1.5213139
1.5212918
1.5217318
1.5217172
1.5216918
1.5213271
1.521339
1.5216845
1.5213179
1.5213224
1.5214548
1.5214529
1.5213036
1.5213112
1.5214477
1.5214433
1.5212615
1.5212866
1.5214215
1.5214152
1.5211831
1.5212227
1.5213863
1.5213712
1.5213343
1.5213367
1.521486
1.5214839
1.5213338
1.5213331
1.5214811
1.5214795
1.5213287
1.5213314
1.5214745
1.5214732
1.5213269
1.5213277
1.5214694
1.5214666
1.5210726
1.5210967
1.5210507
1.5210543
1.5210378
1.5210419
1.5210371
1.5210366
1.5210282
1.5210301
1.5210283
1.5210268
1.521029
1.5210291
1.521035
1.521031
1.5210334
1.5210336
1.5210346
1.5210329
1.5210353
1.5210336
1.5210432
1.5210386
1.5210469
1.521041
1.5210791
1.5210587
1.521107
1.521168
1.5212443
1.5213183
1.5219756
1.5214746
1.5219563
1.5214597
1.5219927
1.5214883
1.5219961
1.5214723
1.5217564
1.5213124
1.5218641
1.5213844
1.5219399
1.5214443
1.5219349
1.5214519
1.5220315
1.5215119
1.5220589
1.5215342
1.5220752
1.5215596
1.5220573
1.5215277
1.5220662
1.5215233
1.5220448
1.5215102
1.5220997
1.5215406
1.5220897
1.5215443
1.5225246
1.5226534
1.5226936
1.5225733
1.5224895
1.5225928
1.5226172
1.5227096
1.5254933
1.5276833
1.5278394
1.5256916
1.525377
1.5276033
1.5277156
1.5255835
1.5226332
1.5226461
1.5225226
1.5227438
1.522909
1.5228028
1.522698
1.5225784
1.5214411
1.5214363
1.5214667
1.5214623
1.5214501
1.5214764
1.5214478
1.5214742
1.5214778
1.5215482
1.5214751
1.5215454
1.5214677
1.5215373
1.5214629
1.5215322
1.521391
1.5213573
1.5214137
1.5213846
1.521421
1.5214456
1.5214165
1.5214412
1.5214135
1.5213814
1.5214807
1.5214526
1.5215145
1.5214459
1.5214409
1.5215091
1.5213926
1.5214205
1.5213884
1.5214166
1.5213738
1.5213696
1.52139
1.5213862
1.5213638
1.5213293
1.5213911
1.5213605
1.5213467
1.5213117
1.5213616
1.5213302
1.5214194
1.5214488
1.5214173
1.5214469
1.5213911
1.521387
1.5214083
1.5214043
1.5213986
1.5214161
1.5213965
1.5214142
1.5214109
1.5214066
1.52144
1.5214357
1.5214262
1.5214025
1.5213771
1.5214151
1.5214348
1.5214654
1.5214157
1.5214519
1.5213557
1.5213511
1.521325
1.5213306
1.5213738
1.5214054
1.5213686
1.5213999
1.5213762
1.521372
1.5213915
1.5213875
1.5213815
1.5213975
1.52138
1.5213963
1.5214077
1.5214376
1.5214065
1.5214364
1.5214016
1.5213971
1.5214309
1.5214261
1.5213363
1.5213598
1.5213322
1.521356
1.5213413
1.521365
1.5213391
1.5213635
1.521318
1.5213155
1.5212936
1.5212898
1.5213127
1.5213086
1.5212825
1.5212877
1.5214195
1.5214424
1.521413
1.5214356
1.521477
1.5215053
1.5214641
1.521494
1.5215164
1.5215602
1.5215039
1.5215475
1.5214529
1.5214911
1.5214448
1.5214824
1.5212813
1.5212769
1.5212509
1.5212569
1.5212862
1.5212805
1.5212541
1.5212621
1.5213085
1.5213284
1.5213036
1.5213249
1.5213036
1.5213234
1.5212994
1.5213199
1.5213011
1.5212662
1.5213106
1.5212786
1.5213248
1.5213358
1.5213201
1.5213318
1.5213196
1.5212844
1.5213417
1.5213097
1.5213454
1.5213682
1.5213411
1.5213643
1.5212679
1.5212617
1.5212358
1.5212437
1.5212682
1.521286
1.5212349
1.5212549
1.5212899
1.5213088
1.5212839
1.5213041
1.5212449
1.5212158
1.5212215
1.5211924
1.521368
1.5213921
1.5213656
1.5213901
1.5213384
1.5213504
1.5213348
1.5213472
1.5213608
1.5213848
1.5213573
1.5213811
1.5213437
1.5213561
1.5213405
1.5213537
1.5321485
1.5316574
1.5320406
1.5314523
1.5311917
1.5310666
1.5317368
1.5318543
1.5215294
1.5215177
1.5215733
1.5215618
1.5215688
1.5216044
1.5215533
1.5215883
1.5214969
1.5215253
1.5214867
1.5215151
1.5216113
1.5216595
1.5215916
1.5216395
1.5214953
1.5214889
1.5215258
1.5215199
1.5215053
1.5215029
1.5215372
1.5215348
1.521539
1.5215358
1.521617
1.5216138
1.5215267
1.5216037
1.5215199
1.521597
1.5216654
1.5217078
1.521641
1.5216844
1.5215746
1.5216124
1.5215615
1.5216002
1.5217148
1.521799
1.5216865
1.5217726
1.5216147
1.5216994
1.5216008
1.5216864
1.5214359
1.5214305
1.5214572
1.521452
1.521443
1.5214416
1.5214639
1.5214653
1.521468
1.5215037
1.5214662
1.5215019
1.5214595
1.5214538
1.5214944
1.5214887
1.5210242
1.5210241
1.5210297
1.5210292
1.5210239
1.5210234
1.5210181
1.5210179
1.5210152
1.5210215
1.521091
1.5210879
1.5210945
1.521089
1.5210455
1.5210438
1.5210396
1.5210386
1.5210357
1.5210846
1.5210992
1.521091
1.5210939
1.521103
1.5211075
1.521096
1.5211125
1.5211011
1.5210525
1.5210486
1.521055
1.5210462
1.5210666
1.5210582
1.5210551
1.5210632
1.5210384
1.5210324
1.5210388
1.5210318
1.5210499
1.5210418
1.5210412
1.5210492
1.5210327
1.5210266
1.5210332
1.521026
1.5210445
1.5210361
1.5210356
1.5210436
1.5210112
1.5210112
1.5210161
1.521016
1.5210133
1.521013
1.521008
1.5210079
1.5210049
1.5210085
1.5210078
1.5210079
1.5210124
1.5210124
1.5210117
1.5210116
1.5210072
1.5210072
1.521004
1.521005
1.5210188
1.5210187
1.5210247
1.5210248
1.5210278
1.5210278
1.5210351
1.5210352
1.5210222
1.5210162
1.5210222
1.5210159
1.5210333
1.5210255
1.5210254
1.5210329
1.5210214
1.5210152
1.521021
1.5210153
1.5210317
1.5210242
1.5210246
1.5210319
1.5210201
1.5210147
1.5210201
1.5210146
1.5210307
1.5210234
1.5210235
1.5210305
1.521063
1.5210571
1.5210628
1.5210571
1.5210729
1.5210646
1.5210646
1.5210728
1.5210558
1.5210557
1.5210616
1.5210613
1.5210721
1.521063
1.5210713
1.5210635
1.5210451
1.5210382
1.5210448
1.5210383
1.5210365
1.5210432
1.5210431
1.5210362
1.5210529
1.521046
1.5210529
1.5210459
1.5210475
1.5210478
1.5210543
1.5210545
1.5210349
1.5210415
1.5210421
1.5210352
1.5210339
1.5210341
1.5210403
1.5210402