/*--------------------------------*- C++ -*----------------------------------*\
  =========                 |
  \\      /  F ield         | OpenFOAM: The Open Source CFD Toolbox
   \\    /   O peration     | Website:  https://openfoam.org
    \\  /    A nd           | Version:  7
     \\/     M anipulation  |
\*---------------------------------------------------------------------------*/
FoamFile
{
    version     2.0;
    format      ascii;
    class       volScalarField;
    location    "5000";
    object      omega;
}
// * * * * * * * * * * * * * * * * * * * * * * * * * * * * * * * * * * * * * //

dimensions      [0 0 -1 0 0 0 0];

internalField   nonuniform List<scalar> 
33943
(
2434.4463
4283.3653
799.38737
820.82172
507.8439
4398.8627
9308.2429
2410.6241
4315.5278
4358.2945
816.5702
830.67372
7763.5143
1876.3107
1903.4561
8033.3375
634.02632
705.86592
836.27685
825.92707
421.92543
2093.5949
2065.3301
510.25599
394.66775
434.91153
434.45495
393.76394
4405.518
1212.7643
1231.3587
9161.7138
9255.6933
1961.6562
624.25781
4575.5145
4625.0473
18633.334
18887.822
4275.9105
4305.2098
819.15504
823.19468
7891.6557
8122.2572
1938.8907
1901.6696
8136.1753
8045.4252
1953.0589
1960.9366
13390.016
4428.6225
13032.028
4394.8572
13915.923
13539.186
4588.5799
4518.0203
375.28511
638.12099
710.75783
642.66129
719.9606
1483.18
1316.8447
1484.3896
1304.8762
1841.9617
1802.7982
1862.4174
1814.7591
2107.072
2130.2527
2064.2957
2100.259
830.33738
424.97107
823.41564
364.10742
363.2314
384.25042
385.45789
5159.6628
5073.8346
4938.5446
4971.9919
395.45819
391.95189
429.54948
432.84561
385.08989
397.98442
395.60092
385.75991
1182.7495
1206.5028
9233.0494
9277.9175
624.85206
624.12128
1933.4769
1951.1518
626.43706
1956.8492
1986.3963
629.27944
4552.2345
4584.5078
18744.972
18686.691
4567.692
4641.0761
18752.891
18621.381
2125.8818
641.07599
3482.0714
3535.5545
6792.8351
6740.1922
3553.5021
6850.1558
13214.304
13213.43
32621.87
32844.3
13325.364
33124.853
33015.385
858.02824
7957.2026
7778.4544
1888.2839
1910.6523
7885.6026
1935.6684
8014.5472
1925.5094
13105.004
13610.567
4394.8525
4487.4504
13935.321
13733.243
4594.3745
4594.9077
13764.968
13893.871
4598.269
4617.5349
13949.856
13442.06
4576.9956
4618.5824
21832.691
22130.366
8097.9016
8260.9098
20916.744
21687.628
7951.2062
8054.5409
22784.609
22968.994
8523.361
8524.1709
8275.6639
22313.464
22138.317
8335.518
377.1991
717.94024
639.61812
643.92744
335.84948
354.19542
353.03558
334.74749
709.97469
1322.9207
1312.5915
1488.2793
1485.1741
1802.8326
1840.5923
1866.8412
1817.3606
1525.4057
1346.2065
1315.8539
1493.3635
1899.475
1871.4336
1821.1026
1854.1705
4050.3209
3841.6417
3856.9764
4039.8372
3220.9988
3234.4821
2915.6899
2896.3774
4190.4877
3898.2829
3975.0988
4110.5616
3254.2065
3309.1099
4661.1602
5070.177
5087.9859
4636.4673
4637.5309
4586.9694
4643.0295
4594.8144
5300.3323
4836.977
4761.1393
5200.6737
4693.1028
4826.2518
4776.5108
4728.525
5111.7625
5109.9389
5104.1789
5152.0073
5005.3055
2093.141
4901.7817
5099.1783
5121.9456
2088.9437
852.64854
362.74173
384.2218
386.77285
365.73767
2069.5166
2038.6762
360.11382
358.50443
371.00914
374.72815
9436.8165
9436.9664
9171.9634
9219.1027
8781.3706
8914.2704
8935.6637
9127.7604
382.99486
376.65173
389.72623
395.33395
432.71962
424.28838
423.08126
486.91976
507.43757
506.55371
485.93398
630.6204
629.61147
1893.9274
1878.4725
628.46064
629.23253
1926.5135
1913.3383
4477.105
4514.4186
18684.111
18878.866
4523.1963
4555.3801
18914.622
18841.241
641.08064
639.06184
2109.5301
2127.0639
642.31089
2122.9059
2156.6118
643.75978
3498.0957
3474.4192
6760.5644
6758.3149
6793.7941
3508.6801
3518.7852
6817.7018
13376.878
33440.95
33380.496
13362.015
13253.153
13327.152
32926.983
33342.629
3513.0447
3479.185
6761.3305
6742.9346
6879.8407
3567.4966
3549.6285
6850.0853
13376.119
13382.753
33261.279
32923.068
13261.86
13290.613
33227.198
33316.961
2198.7449
4044.3562
3983.9058
627.14809
626.89384
2213.6604
4068.2647
7449.6486
7392.3238
7508.538
12584.267
12579.766
18600.75
18487.726
18705.005
12538.489
12655.129
18545.653
47877.846
48495.896
28906.34
29257.29
29250.175
48626.933
28987.56
48641.949
12700.256
12727.648
18643.398
18806.008
29056.163
48987.683
29483.156
49228.431
29422.109
48919.377
8162.5749
2017.7195
13776.853
4537.133
13280.078
4453.2451
13526.78
4430.9912
12855.038
4301.0217
13554.612
13109.077
4497.0229
4461.7867
13522.028
4525.0365
13725.802
4557.7785
20820.028
21679.887
7906.4842
8060.7684
22140.106
22196.958
8212.1762
8322.2199
8481.2447
22587.532
22812.321
8496.1171
22416.862
22219.849
8410.4166
8336.5055
22104.618
22426.142
8383.2863
8345.4413
22512.272
22567.901
8499.9671
8377.8923
22474.493
22881.916
8529.9057
8451.347
22297.265
21309.92
8235.2138
8361.2469
39449.641
38944.796
11841.941
11930.918
39753.391
39468.101
12172.588
12086.19
11422.506
36625.836
38021.605
11556.284
38701.839
39305.364
11818.66
11860.119
40443.526
41163.376
12395.918
12517.401
12588.916
41746.42
40738.783
12566.095
40200.648
40023.276
12167.703
12185.637
39089.422
40053.672
12198.967
12198.788
657.0503
334.33776
336.97897
355.78162
353.31319
734.96147
1863.6693
1871.6147
1834.1489
1823.7448
1317.714
1486.6704
1317.0056
1473.4831
1323.5303
1512.2107
1339.7992
1497.7805
337.06849
347.61252
346.55011
335.47847
1783.7927
1847.0698
1819.2673
1806.1547
2926.6023
2890.1086
3200.2991
3251.7922
2910.6923
2893.8257
3256.9027
3235.7143
4127.2005
3903.1014
3872.0497
4096.719
3877.6834
3813.9913
4008.2936
4077.6095
4598.1233
4680.1552
4631.9549
4545.9902
4602.7824
5123.618
5023.7086
4692.0764
4801.1724
5207.521
5246.5664
4778.1676
4726.1607
4717.4013
4755.435
4694.3545
3997.1379
3988.4453
4196.4706
4193.2125
3357.7116
3329.6383
2977.3571
3026.2603
3279.5905
2926.6416
2938.6608
3267.3386
4141.7627
3903.7896
3923.2057
4120.8494
5246.2542
5288.3399
4830.0516
4796.3542
5216.1842
5233.291
4793.6573
4788.6035
4723.8768
4760.4236
4734.9791
4706.2484
4772.5634
4822.3295
4802.2883
4748.901
9378.5772
9038.3134
9649.3425
9269.7689
8859.4744
9102.1142
8729.6035
8970.4029
8766.3422
8657.5354
9062.4899
8921.6388
9461.4071
9111.2915
9715.892
9357.0802
7849.1766
7999.137
8071.6129
8228.1132
7743.5227
7916.6884
8030.4609
8193.7349
6608.0616
6842.4793
5568.6109
5732.4915
6692.8367
6887.5402
5792.0584
5631.4613
10108.902
10128.642
9742.8271
9752.5759
9091.2753
8963.0483
9112.2028
9432.4145
9318.0764
9471.1509
9348.4591
9727.6812
9866.1583
9367.9895
9496.5963
8029.6571
8192.4064
8333.8948
8513.6887
8378.7862
8556.7513
9500.1785
9718.3787
8573.6553
8755.6813
9929.0574
9750.1025
9013.6976
9154.6613
9884.4195
10133.478
9137.564
9347.9357
9504.2398
9358.9908
8449.1447
8563.3223
9774.1267
9383.1503
10035.368
9630.7355
10105.46
9890.8564
9277.4304
9454.3824
9679.1914
9292.2566
9919.9117
9498.8023
10005.251
10268.577
9390.3682
9629.6983
10567.684
10548.15
9739.9761
9721.6187
10107.743
10086.915
9078.6923
9065.8054
9783.942
9837.1244
8802.1192
8853.8041
10199.394
10271.812
9412.1706
9473.4
10323.677
10420.532
9682.9093
9768.663
10454.01
10038.643
10456.76
10036.995
10708.07
10699.17
10042.865
10029.027
10062.654
9663.892
10182.326
9773.9389
9217.4794
9352.2355
9210.5249
9235.8403
9250.6744
9067.8473
9327.1481
9419.0487
9064.9327
9185.0931
5046.6836
4981.3149
8717.7437
8890.5451
9197.5123
9272.854
9373.1031
9371.893
5058.4841
5088.207
2154.1139
355.35082
366.04943
371.29954
359.44415
5068.0613
4953.5474
4936.9661
4781.5534
412.8988
406.22587
420.61716
443.91706
13056.712
13236.435
13263.862
13307.743
12883.769
12824.433
12884.397
12852.377
12024.642
12208.827
12498.832
12524.454
12482.224
12616.697
12770.574
12836.757
422.24476
413.07328
417.98618
425.49791
475.97833
464.32104
458.14574
487.041
509.46052
510.697
487.59302
488.03356
648.752
645.6646
1907.968
645.49364
645.69946
2079.8497
2062.0129
643.33383
642.82172
2103.5463
2090.138
4531.9028
3432.2254
6665.466
6670.8385
3416.0832
3457.9767
3450.2839
6739.6643
6710.7336
13120.574
18828.32
32662.477
13087.303
33109.679
13187.969
13231.537
33387.413
33142.782
3462.3884
3454.2561
6723.7338
6687.3365
3496.2579
3475.489
6737.5964
6781.9411
13130.747
33236.946
13226.58
33503.258
13278.382
13264.997
32973.663
33370.772
626.59635
624.23196
2192.7867
4005.4456
3983.9787
2201.7343
4016.3916
4024.5646
628.19557
2193.1208
4015.2906
3976.8937
2230.105
4087.9304
4051.5131
629.48507
7418.0381
7410.832
7443.0404
7470.179
12717.065
12639.796
18589.467
18774.087
29527.442
29750.477
49063.99
49232.537
29722.027
49011.276
29405.367
48764.181
12691.182
12639.316
18628.944
18772.781
12501.689
12587.201
18446.157
18638.592
12666.656
12596.654
18754.696
18592.28
29052.646
29474.769
47957.135
48722.43
29756.187
29341.515
49101.117
48790.785
7410.3259
7389.5294
7540.1466
7500.3841
18656.115
12725.983
12757.394
18792.074
18829.837
12673.547
12780.473
18639.913
29422.784
29749.796
49290.632
48965.029
29092.585
48989.672
48099.584
29491.322
12562.318
18504.796
18663.808
12601.017
12665.108
12584.357
18746.618
18595.635
29418.019
29763.159
48698.403
49000.52
29710.615
29438.382
49088.476
48985.811
3962.9964
4024.9309
2170.4473
4681.5235
4593.302
4046.6805
2176.808
4690.741
6189.6208
6251.1862
10417.279
10392.393
15820.633
15708.284
6118.9294
6150.2262
10392.393
10295.85
15902.248
15710
6230.8293
6269.7537
10454.347
10522.425
15859.199
16006.567
19135.742
23456.777
19066.881
23391.998
18925.295
18953.762
23142.116
23270.284
19234.669
19176.004
23564.952
23502.612
23411.376
19054.311
18936.492
23251.473
53059.04
63834.847
64920.57
53910.008
54457.258
64775.708
64899.084
54214.605
27367.273
27142.203
40905.761
39769.486
27489.611
27504.729
41028.003
40814.25
27533.673
27677.481
40593.889
41467.308
54499.665
64304.14
65152.858
54597.147
41078.683
27500.692
27352.425
40497.676
64902.619
64378.665
54489.489
54435.621
19097.258
19129.313
23345.992
23465.434
19269.563
19348.066
23688.92
23616.527
27588.861
27372.801
40599.708
41678.421
54914.307
64383.687
65295.8
55045.27
27739.847
27763.023
41487.502
41514.967
65013.405
65040.637
55197.184
54790.843
27807.006
27678.277
40956.545
41648.241
54604.422
64519.834
65307.003
54536.157
13500.127
14058.792
4679.7394
4606.8039
8461.0832
22668.869
22515.284
8390.6789
21787.881
21513.051
8131.3813
8097.7468
22071.343
22276.443
8128.7748
8280.4993
20437.49
21441.331
7702.3842
7881.227
22051.408
22295.172
8280.4131
8338.7945
21510.576
20969.006
8089.449
8078.6259
21840.583
22363.617
8258.8246
8342.1055
22505.319
8384.6214
22392
8447.6841
37885.119
36272.922
11327.417
11478.394
38695.458
39035.036
11750.339
11819.717
40153.41
39421.12
11980.413
12104.055
39464.875
39927.845
12127.834
12206.7
40873.457
40157.908
12322.76
12416.504
40678.209
41331.042
12460.418
12491.397
40412.381
40125.749
12173.991
12242.192
39296.332
40145.654
12224.32
12243.704
39948.84
39178.327
12027.662
12124.958
39985.122
40533.744
12229.161
12287.617
40659.392
40200.01
12201.434
12298.898
39975.619
40737.36
12370.642
12412.753
40566.004
39708.515
12212.088
12341.149
40670.485
41401.163
12517.585
12544.068
40117.298
12241.317
39810.81
12248.694
38441.938
37169.913
11921.31
11866.325
41935.427
41413.02
42347.315
41891.378
39061.227
40467.773
41154.01
41895.908
42982.533
43722.056
44357.284
43262.43
42781.928
42533.703
41543.232
42662.055
1373.8824
1551.8529
334.34849
337.00577
347.69843
344.25294
1879.7684
1923.8768
5221.1858
5206.1778
4755.0141
4777.1196
5123.6408
5203.9727
4682.297
4739.676
4699.5419
4753.1778
4639.2053
4686.4677
4704.2453
4751.3352
4745.8957
4715.7065
2855.7401
3143.9242
2902.306
3222.6666
3838.9136
3952.036
4149.7503
4037.7952
3218.4833
3302.4049
2960.1589
2892.2046
3841.3303
3736.223
3916.6033
4036.3332
2949.3041
2945.3133
3279.0022
3288.4731
3893.8103
3935.2497
4089.0618
4136.7479
2953.6007
3271.9483
3291.6467
2949.9159
4130.4901
3924.7906
4137.7484
3916.4568
315.09634
316.55302
324.71734
326.30315
389.22843
403.52257
401.62135
386.71527
4579.1231
4487.6431
4631.2096
4431.2632
5077.6177
5215.9649
4757.1579
4651.0401
4892.5608
5060.9019
4487.6762
4631.4895
4632.7733
4768.4064
4709.8029
4590.2613
6892.8052
6915.6324
5806.4435
5814.9863
6561.6826
6738.5253
5643.7728
5508.4123
7699.4541
7866.5311
7907.8738
8073.7735
8071.3398
8211.1152
8098.919
8262.9237
6906.0649
6954.0373
5819.0126
5805.4685
6725.1453
6881.0873
5757.0491
5619.0873
8098.2436
8292.5842
8153.7345
8340.4013
7905.9218
8087.0295
8074.4853
8255.508
9882.8471
9556.6836
9895.0594
9551.8439
9191.7941
9234.5111
9127.5523
9100.8145
8975.15
9145.5339
8871.1139
9035.91
9636.6739
9799.7495
9306.0902
9460.3846
9084.9608
8939.466
9014.7929
9138.3231
8708.1637
8587.6341
8935.7754
8802.9853
9297.4451
8960.1483
9169.9743
9528.6737
9684.5575
9316.1709
9762.0646
9409.9935
9597.0061
9213.0924
9821.944
9414.5153
9990.9307
9578.5473
10092.953
9692.8957
10212.271
9570.3912
10336.237
9697.703
9805.0263
9200.6603
10023.389
9390.2056
9293.9057
8390.4403
9472.0508
8537.8451
10072.247
9295.5086
10205.156
9416.3816
9673.2494
8947.1464
9874.027
9113.3
9662.6703
8704.0325
9787.7079
8817.761
10034.02
9017.5111
9998.1658
8999.6904
10194.422
10312.172
9420.8887
9518.8994
10461.67
9659.8404
10414.851
9622.6934
9796.4028
8827.3381
9888.1671
8907.261
10560.542
9931.3539
10524.101
9890.8268
10003.243
9625.2647
10156.009
9767.9341
10266.134
9885.5638
10249.27
9860.7998
10285.784
10424.766
9669.2198
9793.9932
9462.531
9104.6462
9283.6221
8975.9482
9314.8284
9191.0575
9485.485
9350.5168
9955.6999
9590.2808
10118.884
9733.5627
10051.026
9635.9136
9704.7902
9350.3554
8424.0457
8551.2235
8102.0632
8248.5593
8237.9905
8413.516
8397.5647
8573.0212
7024.5133
7157.9241
5907.9856
6007.1033
7183.1417
6939.0157
5858.4993
6065.9882
8103.7763
8282.43
8165.1305
8333.8327
6829.4047
7039.1226
5924.4761
5744.8151
6909.1081
6964.4031
5837.5276
5808.3796
8004.9216
8169.0179
8236.4491
8400.0408
9818.7887
9474.7146
9841.15
9482.9781
9043.9755
8926.9969
9282.0015
9156.4206
9171.4553
9056.9073
9216.6468
9090.134
9678.8493
9340.7597
9910.9805
9559.6497
10349.017
10073.916
9522.0381
9307.8977
10392.503
10496.948
9593.1491
9680.8304
9963.0671
8967.8157
10052.279
9044.2793
9888.8693
8884.6477
9656.9127
8719.0011
10196.047
10388.151
9431.4588
9592.5945
10278.397
9490.866
10258.357
9477.0766
9847.4521
8867.9204
9838.9345
8871.7951
9802.722
9960.6525
8846.3653
8980.3337
10407.904
9774.2616
10395.273
9756.7241
10157.763
10158.704
9763.3145
9757.83
10025.424
10248.687
9643.5971
9853.5125
10292.88
10506.942
9679.4366
9873.2408
10527.789
10654.44
9876.8005
9981.4774
10281.049
10426.833
9871.7067
9999.4901
10009.367
10328.684
9876.716
9613.2689
10526.795
10226.815
9838.3346
9594.798
14294.423
14886.731
14308.976
14864.005
14842.164
14156.112
14155.124
14837.952
15629.373
14991.844
15564.415
14921.532
15490.214
14733.422
15560.364
14805.266
16005.427
15096.691
14956.816
15833.491
16342.95
16288.174
15378.67
15456.672
14656.254
15622.067
14770.122
15482.369
16013.893
15177.504
15917.49
15058.222
14646.44
15559.054
14706.358
15487.402
15203.772
14398.146
14362.412
15154.402
15474.015
16377.484
15423.616
16410.189
15945.575
15048.365
15994.953
15112.889
15288.723
14682.965
14593.333
15176.62
14545.314
15171.21
15258.79
14469.253
15591.654
15732.91
14984.537
15135.963
14852.821
15748.171
15016.76
15578.271
17909.047
17817.399
16355.537
16237.19
16659.563
15533.661
15374.527
16811.973
18220.578
18254.755
16696.038
16651.466
17110.092
17144.671
15808.923
15859.814
15846.804
17362.403
15888.034
17342.016
16325.355
15108.46
15040.432
16265.238
16854.122
18443.348
16811.203
18467.17
17264.891
15911.398
17293.025
15951.012
18575.975
18585.363
17002.574
16993.585
18062.738
18096.098
19788.581
19793.083
17787.56
18946.671
19211.821
19186.527
17542.224
17481.177
17847.157
17889.992
19524.537
19536.368
18708.99
18403.244
16336.569
15738.767
15675.149
16270.274
16476.526
16464.689
15832.445
15854.477
15563.1
16361.695
15623.766
16299.865
16482.084
15719.442
16469.511
15699.613
16486.041
15567.966
15418.347
16306.608
15126.998
16127.248
15259.471
15970.732
16246.407
15383.474
16240.605
15355.744
15951.403
16910.935
16034.168
16824.348
16603.524
15765.601
15693.804
16525.607
16199.686
17122.894
16190.649
17110.108
16769.209
15883.021
16770.42
15903.354
15814.051
15198.14
15079.971
15674.846
15908.258
15282.985
15936.829
15322.208
14963.744
15812.764
15076.041
15686.253
15931.798
15898.228
15151.292
15186.229
18335.84
18242.442
16782.26
16662.874
17117.224
15981.404
15818.798
17272.71
17125.988
18693.517
17184.002
18658.559
17664.485
16403.833
16320.635
17592.938
17461.342
19036.813
17447.542
19040.094
17939.04
16608.173
17928.827
16610.148
12340.997
13042.813
12344.549
13035.064
13283.063
12572.981
12671.577
13391.73
12556.329
11893.166
12573.907
11962.338
12139.47
12214.331
12797.232
12907.473
13494.759
14262.197
13492.703
14268.759
13839.636
13797.254
13114.517
13139.013
13387.753
13358.832
12522.272
12542.654
12829.796
12843.04
13730.216
13728.068
13461.968
14246.12
13492.396
14212.172
14556.681
13768.182
13865.533
14676.947
13731.832
12846.668
13707.082
12826.009
13081.842
13174.497
14003.004
14100.884
12358.094
13030.272
12326.651
13054.185
12748.231
12718.246
12048.286
12074.571
11545.052
12280.93
12242.883
11630.418
11883.017
11914.332
12540.166
12581.236
14498.594
15094.321
14552.55
15024.477
15147.002
14479.634
14434.308
15097.314
15044.911
15419.471
14874.168
15599.073
15490.562
14804.784
14967.178
15669.813
15169.572
14515.7
15127.515
14481.566
14584.394
14531.58
13933.858
13986.368
14392.561
14315.03
13507.868
13552.805
13995.026
14011.665
14914.223
14935.055
14674.391
14661.293
14143.128
14160.263
14721.238
14685.538
14042.95
14075.61
14769.559
15274.862
14702.697
15344.286
14591.674
15289.561
15349.997
14642.72
14373.111
15022.278
14408.596
14977.528
15367.139
14744.135
14881.591
15529.722
14855.423
13964.666
14826.375
13922.617
14279.807
14395.126
15214.251
15340.595
15258.768
14422.867
14416.787
15259.402
15382.339
14506.846
14421.029
15284.537
14644.838
13660.331
13644.382
14639.377
14729.259
13713.438
13639.57
14627.433
13834.076
13062.058
13052.495
13824.372
13893.302
13108.012
13063.335
13820.947
13243.341
12489.865
12560.321
13254.713
13316.992
12626.775
12596.201
13280.541
13453.298
12713.234
12654.926
13380.213
13454.733
13458.392
12721.522
12731.236
12925.128
12220.714
12225.242
12876.074
12958.998
12945.466
12259.052
12256.467
14800.127
13983.394
13905.843
14714.824
14811
14837.906
14002.771
13983.164
14213.557
13265.894
13190.624
14130.719
14197.856
14224.006
13267.081
13259.051
15650.011
15003.372
14920.585
15546.986
15695.848
15712.642
15057.86
15037.476
15482.218
14516.111
14431.58
15395.759
15494.659
15539.672
14556.653
14535.139
16219.181
16165.345
15659.348
15610.748
16298.187
16262.057
15589.063
15552.674
16311.931
15730.506
15738.908
16319.045
15668.403
15654.29
16393.32
16382.325
16171.679
15511.966
15498.393
16148.463
16276.043
15609.447
15566.419
16237.902
15981.521
14982.311
14968.281
15985.989
16122.603
15087.996
15013.338
16043.656
15668.107
15111.695
15547.633
15006.668
15642.034
15751.366
15058.185
14958.61
15767.979
15204.829
15744.23
15184.184
15122.946
15825.611
15831.068
15122.913
12871.685
13010.538
13068.217
13084.927
12672.342
12814.093
12927.599
12967.558
12922.87
12961.981
12598.187
12494.83
12867.384
13045.681
13242.504
13250.3
12815.438
12635.283
12814.095
12875.163
9175.2131
9225.0748
8965.9087
8913.1219
11919.278
12126.314
12413.168
12471.766
12840.907
12950.344
12898.901
12912.069
13010.403
13142.721
13186.487
13193.778
9199.2436
9122.0193
9237.3308
9317.5066
5099.3267
5191.1671
402.24603
410.93094
426.51277
412.43298
9334.1933
9220.6734
8926.2262
8955.3949
8934.1736
9114.827
8456.035
8674.2188
465.92657
449.98444
464.83812
500.50684
472.97222
467.85154
468.74657
469.88725
489.44531
488.88375
464.33759
646.7704
641.65476
464.39356
646.00613
650.21378
2090.706
627.77156
628.16623
2172.9014
3978.2286
3957.3515
2158.7683
3928.829
3940.5605
627.01575
626.88798
2191.6949
4020.2083
3975.2443
2175.1089
3964.6473
3962.4448
3468.8856
3471.6877
6740.3302
6744.1835
7322.8117
7331.8625
7402.6901
7364.9705
12392.603
12489.721
18521.996
18319.107
13218.14
13195.803
33536.323
32931.036
28577.649
47743.124
29019.886
48687.924
12428.146
12359.426
18274.447
18452.029
29048.343
28679.482
49063.43
49058.599
12536.887
12432.226
18336.195
18573.484
12578.589
12497.787
18425.298
18613.358
28974.235
29304.565
49356.599
49471.594
29275.814
28832.852
48997.968
48716.614
7374.8947
7335.254
7380.5408
7441.7949
18284.64
12454.944
12381.578
18457.821
29149.127
28876.963
48823.37
49215.405
12548.464
12491.152
18588.156
18426.811
29035.296
29459.073
49496.643
49208.125
12535.209
12607.741
18617.758
18464.356
12565.022
12508.216
18459.291
18634.087
29439.077
28764.004
48623.522
48044.688
29188.805
48844.629
29436.491
49195.701
3969.2141
3990.9317
2177.4004
4653.3758
4615.4493
4008.7268
4000.2682
2173.7982
4640.3041
4658.3969
3956.1727
3998.7613
2163.5519
4648.25
4583.3883
4032.9841
4072.1137
2200.3778
4730.132
4679.6765
6157.6339
6165.9558
10419.925
10344.952
15912.018
15768.495
6164.1412
6199.7367
10315.312
10386.561
15610.937
15835.083
6163.0993
6205.2438
10416.676
10372.145
15791.45
15952.389
6222.5968
6206.9262
10410.859
10449.959
15945.065
15785.1
19037.672
23370.048
18962.052
23212.428
23528.599
19237.904
19214.745
23586.967
40531.663
27386.54
27595.994
41220.914
41231.544
27722.621
27659.253
41202.199
54790.938
64646.081
65371.576
55084.593
55166.014
65084.495
65228.311
54974.993
27620.781
27733.142
41724.091
40913.016
54904.315
64571.921
65678.967
54912.61
41205.6
27499.37
27319.603
40782.71
54778.647
65125.023
64911.862
54526.346
23301.284
19041.067
19064.01
23448.246
23608.681
19248.018
19216.167
23538.521
18829.791
23072.575
18874.412
23247.518
19093.705
19099.24
23457.904
23413.627
19210.845
19212.994
23527.718
23605.063
18984.295
19035.35
23396.896
23264.402
39698.348
27126.609
27377.81
40541.518
41142.011
27569.367
27526.137
40718.089
53095.729
63981.942
64992.96
53933.496
65060.491
65656.41
54381.898
54397.329
41047.986
27628.308
27749.949
41560.786
41143.189
27527.099
27367.408
40402.853
54758.87
65308.567
65964.362
54951.067
64529.154
65474.827
54727.3
54564.127
6143.6565
6203.9471
10359.118
10328.666
15845.358
15684.239
6130.2627
6119.1979
10344.085
10315.161
15902.866
15752.097
6275.4935
6300.4624
10473.367
10551.145
15865.931
16003.347
6230.9464
6246.2224
10509.04
10429.516
16025.893
15825.352
23307.916
19105.86
23433.787
19093.395
23609.945
19303.536
19241.095
23537.18
23574.756
19333.069
19289.816
23647.138
19130.918
19015.772
23264.64
23444.49
40781.919
27350.792
27540.113
41373.597
27622.12
27679.247
41208.778
41334.868
64900.346
55310.438
54998.776
64731.431
54566.66
64520.67
65082.485
55009.852
27496.084
27317.588
40520.78
40204.428
64658.345
65125.901
54533.367
54804.687
64054.866
64135.664
53897.454
53319.562
27734.597
27605.848
41440.183
40937.499
23159.85
18919.738
18928.122
23301.646
23508.846
19152.719
19111.078
23447.096
23524.727
19230.314
19193.287
23591.112
19068.431
18974.388
23262.788
23422.511
40741.462
27248.975
27456.595
41258.419
41662.168
27636.549
27582.925
41402.446
54405.766
64873.297
65348.907
54778.343
65288.172
65658.383
54907.412
54808.317
41177.923
27615.038
27739.152
41741.556
41420.017
27550.172
27371.426
40814.005
54938.113
64827.817
65443.272
55053.22
64623.356
65214.921
54989.462
54745.909
7009.7701
6960.3684
7124.6767
7055.2434
5101.2882
4985.7293
4461.9496
4551.9955
8090.4334
8010.8627
7012.6405
7080.9657
7965.0596
7889.8983
6911.6219
6963.3387
7134.0227
7090.4526
5070.9432
4551.3097
7091.1108
8037.7602
8088.8859
7044.7263
11327.073
16731.215
11301.416
16580.891
21470.617
21301.838
21151.737
21177.379
11297.423
16772.428
11189.398
16592.586
21465.432
21497.226
21152.495
21397.589
11358.949
16721.046
11426.127
16905.89
21345.872
21361.513
21695.488
21514.298
25417.764
25306.575
25010.942
25213.519
25525.722
25414.64
25378.015
25156.484
58740.935
96041.897
96748.204
59278.853
59571.819
96773.86
97118.938
59330.177
29406.409
29071.626
55684.897
54063.912
29502.713
29544.432
56008.693
55705.473
29524.599
29747.371
55438.36
56568.678
59541.89
97013.856
97199.926
59633.621
56524.948
29563.506
29352.797
55508.328
97384.691
97187.291
59267.309
59523.226
25235.655
25411.955
25654.158
25533.982
29658.924
29356.369
55594.081
57096.153
59418.751
97298.242
97467.122
59387.135
29776.045
29837.237
57173.422
56894.133
97440.503
97638.844
59402.827
59093.079
55943.873
56789.242
59164.71
97036.21
97057.824
59255.699
22226.68
21359.677
8257.2282
8353.1443
22838.884
22858.271
8578.8019
8587.6617
40866.808
40457.534
12304.256
12375.455
39934
40844.415
12283.915
12264.153
39176.944
38957.405
11819.45
11870.981
37975.888
38582.976
11792.046
11842.235
39894.588
39441.284
11854.229
11953.516
39727.597
40038.459
12077.986
12170.042
37133.163
35558.192
11028.062
11157.818
11509.469
38641.547
38453.209
11612.697
39736.014
39086.734
12038.144
12120.238
39538.955
40420.577
12226.516
12231.718
38502.044
38498.897
11813.173
11855.221
36614.015
37652.246
11679.941
11665.064
39502.318
38469.576
11890.67
12019.918
39896.958
40316.931
12177.68
12239.943
40633.644
40099.412
12210.631
12312.206
39555.74
40414.895
12312.715
12335.019
40469.404
38791.59
41263.342
41723.893
42905.74
42114.517
42087.19
42686.904
43636.971
42971.817
43384.746
44155.791
43108.877
42832.589
41878.355
42874.565
42618.126
41899.02
42584.284
43290.838
43306.214
42872.978
42528.467
43449.084
43180.63
42383.828
43311.057
44129.654
42810.476
42482.346
41050.885
39555.196
75021.882
36918.585
74458.852
36409.333
75322.945
37411.571
74538.264
37033.211
71784.145
34190.763
73602.517
35504.181
74066.12
36246.616
75004.069
36904.693
75444.222
38187.988
76001.165
38931.074
76438.857
39590.383
75270.577
38543.898
75278.116
37937.665
74903.105
37734.422
74051.696
36835.331
75224.171
37884.728
3047.2106
3064.2405
3397.0842
3371.5867
3998.8523
4199.8714
4044.0171
4243.3607
316.43622
317.06893
326.26283
324.6587
380.25486
387.54635
405.48375
398.25351
4755.0256
4866.1855
4802.5536
4812.644
4872.3295
4800.2662
5322.8318
5237.8714
10271.98
10375.42
9489.6704
9583.0097
10198.742
9415.9002
10236.109
9455.8623
9770.0054
8788.1297
9821.6561
8841.5877
9861.056
8875.9815
9948.4975
8958.4855
10007.173
9904.7926
9220.1077
9151.3935
10260.941
9465.4377
10300.397
9502.1768
9584.1533
9504.3084
8615.0288
8571.3813
8829.9928
9832.4798
9866.5853
8869.0737
10391.436
9746.7304
10447.098
9792.9968
10136.347
10213.302
9738.828
9804.1072
10169.831
10051.602
9508.3287
9425.4062
9962.9684
9833.3731
9535.6101
9440.344
10335.259
9701.3027
10357.63
9728.6498
10125.08
10230.151
9728.4508
9838.9349
10088.624
9698.2094
10100.955
9713.9973
10381.367
10489.112
9751.643
9861.079
6343.4197
6648.2872
5568.0938
5322.4152
7448.2546
7602.2234
7802.5502
7945.9497
6738.6763
6904.6877
5794.4291
5673.3712
7894.4331
8040.0866
8092.9571
8251.6942
8941.7389
8913.3946
8796.2447
8788.8483
9443.8344
9304.8261
9251.6991
9122.0514
10083.139
9699.2626
9869.8133
9504.1297
9536.607
9518.6167
9168.2038
9169.8361
7927.4062
8069.9548
7891.034
8053.582
8366.9703
8529.4644
8209.8021
8372.0242
7142.6041
7015.9767
6029.1896
5896.1505
6751.1849
6727.8004
5636.8842
5665.4698
8901.4649
8766.806
9125.2441
8987.459
8417.635
8291.1381
8787.7393
8633.1062
8977.5284
8644.9066
9337.6873
8965.0387
9503.447
9148.6019
9730.2017
9366.9325
6939.4706
7044.508
5928.3226
5844.3136
6889.8188
6929.0526
5817.6179
5792.2087
8076.3458
8251.0222
8112.8182
8282.0943
8128.5411
8282.985
8233.7485
8395.347
9086.0211
8925.1783
8925.4249
8801.0126
9164.5598
9045.7532
9287.3752
9155.8125
9671.8
9525.1771
9284.2561
9176.4158
9800.3497
9446.6245
9902.6657
9532.4047
6924.3272
7035.3577
5913.4152
5834.3496
8069.0373
8202.6374
7915.638
8071.4401
8108.2837
8278.8208
8235.205
8402.7553
6872.2948
6760.6808
5773.5911
5675.3304
9756.4739
9411.3674
9772.2462
9423.4532
9165.6434
9032.6676
9270.6813
9143.6065
9787.765
9432.8073
9891.6098
9542.9574
9129.2722
9008.0128
9154.2745
9029.5113
358.28262
365.26961
371.6332
376.1991
449.91402
462.2765
448.7312
433.75434
10047.719
10277.734
9416.3522
9629.6127
9259.3053
8884.2044
9598.128
9185.0844
9816.5115
9418.456
10043.801
9636.1855
9452.5793
8867.215
9775.0539
9143.3131
9923.7114
9932.1373
9155.457
9174.1283
10481.876
10275.763
9647.885
9482.2309
10011.828
9841.6108
8984.3828
8860.1697
9515.4788
8571.0067
9535.3091
8600.6245
9323.1836
8635.047
9612.72
8870.0135
9910.2004
9150.1063
10133.055
9342.5683
8976.1661
8129.7507
9223.6441
8324.0587
9512.0158
8576.6619
9713.986
8746.888
9838.2034
9831.6468
9431.474
9441.1376
10403.054
10183.046
9777.5689
9973.1833
10636.452
9962.4289
10417.71
9772.1185
10060.628
10062.533
9426.3733
9440.9382
19901.799
19896.314
18134.079
18110.718
17978.222
17996.987
19692.925
19683.237
18861.507
19109.956
18726.458
18744.265
17083.617
17094.468
17840.567
17884.833
19578.266
19581.774
18740.396
17914.673
17420.283
17425.467
15873.896
15888.552
16306.207
16277.656
15054.975
15018.402
16638.363
18201.781
16574.666
18239.558
15695.143
17026.682
17079.258
15759.983
16804.869
18480.789
16859.818
18441.998
15988.46
17314.166
17236.531
15902.35
16764.871
18340.29
16754.031
18337.031
15930.422
17225.098
17209.988
15929.421
19541.419
19535.772
17925.378
17891.462
18322.842
18347.295
20053.872
20052.227
19220.645
18709.634
19506.322
19487.86
17812.109
17762.603
17956.159
17978.379
19665.63
19661.592
18837.679
18676.072
18296.005
18251.312
16716.105
16788.951
17268.365
17174.969
16043.359
15937.696
17105.74
18694.776
17083.442
18704.758
16255.016
17562.262
17562.998
16260.753
16522.47
18185.646
16616.439
18114.258
15823.786
17095.576
16969.409
15682.452
16759.682
18326.484
16739.204
18334.775
15924.929
17212.769
17211.024
15927.216
15374.034
16029.459
15451.749
15942.665
15379.775
16076.038
15996.433
15299.651
16117.021
16137.426
15498.844
15523.943
15396.015
16146.685
15417.995
16130.804
15591.433
16547.451
15694.21
16434.153
16755.366
15834.463
15849.334
16749.19
15571.349
16405.198
15541.794
16415.07
16264.769
16165.104
15457.306
15366.687
16319.535
15421.717
15285.134
16163.284
16412.197
16417.408
15515.503
15530.734