/*--------------------------------*- C++ -*----------------------------------*\
  =========                 |
  \\      /  F ield         | OpenFOAM: The Open Source CFD Toolbox
   \\    /   O peration     | Website:  https://openfoam.org
    \\  /    A nd           | Version:  7
     \\/     M anipulation  |
\*---------------------------------------------------------------------------*/
FoamFile
{
    version     2.0;
    format      ascii;
    class       surfaceScalarField;
    location    "5000";
    object      phi;
}
// * * * * * * * * * * * * * * * * * * * * * * * * * * * * * * * * * * * * * //

dimensions      [0 3 -1 0 0 0 0];

internalField   nonuniform List<scalar> 
101024
(
8.3496357e+26
9.0536024e+26
-3.5850446e+27
-3.7462062e+27
-3.3927799e+27
-3.5477955e+27
-7.1078077e+26
4.0755708e+26
3.3326106e+26
-7.6089597e+26
-8.5109925e+26
-9.1089502e+26
-8.1060159e+26
-2.9805563e+27
2.248091e+26
3.0450432e+26
3.1839721e+26
-3.8678795e+27
2.0316863e+26
-6.5465746e+25
-5.4013255e+25
-4.2219622e+26
-1.710452e+28
1.4821493e+27
-4.9086091e+26
1.2940416e+27
1.0512385e+27
-5.8187177e+26
6.0109343e+26
-3.456318e+27
-3.5380362e+27
-2.9617918e+27
-2.9893914e+27
2.72839e+26
-6.8866298e+26
-7.2830928e+26
-5.592477e+26
-5.8876656e+26
2.7889389e+26
-3.451392e+27
-3.5378109e+27
-3.2564397e+27
-3.4247359e+27
-2.0739955e+26
-6.5139123e+26
3.5390468e+26
1.5073223e+26
-7.3932495e+26
-7.7989068e+26
-8.8696323e+26
-8.2471221e+26
-6.3396118e+26
2.8913391e+26
-7.6462082e+26
-7.702196e+26
-8.7829657e+26
-8.6238001e+26
-1.377059e+26
-3.0245502e+27
1.9771909e+26
-3.0468802e+27
-1.487448e+26
-3.2859844e+25
8.9073619e+25
4.3315432e+25
-1.6246053e+26
-2.0514344e+26
-1.531469e+26
-1.9092941e+26
-5.6453374e+24
-7.1427609e+26
2.4581921e+25
1.4731529e+26
-7.3019634e+26
8.0531063e+25
-1.5841433e+26
-1.6012867e+26
-2.0201382e+26
-1.9897912e+26
2.9307249e+27
1.6228991e+26
1.9183193e+26
-1.9270991e+26
1.8996374e+26
-2.0379226e+26
1.9232975e+26
2.2611488e+26
-1.5790709e+26
2.3031161e+26
-1.7142615e+26
1.3380033e+26
2.8527484e+26
2.7130787e+26
-3.922606e+27
-7.6900993e+25
-8.1742597e+25
2.9461864e+26
2.7916251e+26
-3.9106054e+27
-6.4739432e+25
-7.5566812e+25
1.653389e+26
9.1743028e+26
8.8622858e+26
-1.7157744e+28
-6.0088446e+26
1.1800352e+27
-5.111581e+26
-7.3653116e+26
-8.3887951e+26
6.7155841e+26
7.9271526e+26
1.335418e+25
6.6598085e+25
6.5734677e+25
-8.9951196e+26
-1.4978596e+25
-1.4221044e+25
6.8749842e+25
6.4046474e+25
-8.7753199e+26
1.6819219e+25
-1.2986649e+25
-1.4031854e+25
-1.6408545e+28
-5.4551505e+26
-3.7076757e+26
1.3690405e+27
1.1198699e+27
2.4167393e+27
-2.6678744e+26
-3.1599483e+27
3.1959177e+26
1.9954167e+26
-4.6088215e+26
5.4199487e+26
4.2515893e+26
-2.4022563e+27
4.4160257e+26
-3.1960259e+27
2.807891e+26
-3.2315909e+27
-3.2415365e+27
-2.8693141e+27
-2.7967021e+27
-8.7855644e+25
1.4210067e+26
3.5304088e+25
-8.2251835e+26
-7.9182585e+26
-7.2577984e+26
-7.453091e+26
1.6701526e+26
-8.3150733e+26
-7.5395503e+26
-7.3616823e+26
-8.096072e+26
-1.794428e+26
1.5357136e+26
-6.6138871e+26
-6.8955911e+26
-5.5693204e+26
-5.3203552e+26
-6.8279103e+26
-6.7344506e+26
-5.324983e+26
-5.5111163e+26
-1.054199e+26
1.2241174e+26
-1.1365113e+25
-7.7436633e+26
-4.2257828e+25
-6.6766974e+26
-1.7701924e+25
3.3873209e+25
2.2574591e+25
-1.6778568e+26
-1.6161831e+26
-1.355186e+26
-1.4007436e+26
3.5897984e+25
-1.6860106e+26
-1.4145192e+26
-3.8895232e+25
4.3401587e+25
-1.14484e+26
-1.1979584e+26
-1.0094084e+26
-1.055866e+26
-1.182039e+26
-1.0308694e+26
-1.0121414e+26
-1.4439058e+26
-5.3691669e+26
2.7158542e+26
-7.6946458e+26
-7.2722271e+26
-8.084152e+26
-8.7895145e+26
-5.0441944e+26
2.2557934e+26
-7.508726e+26
-8.5557044e+26
-7.6341086e+26
-8.8277594e+26
-1.5615184e+26
-2.9455156e+27
2.2574161e+26
-3.0013596e+27
-1.102956e+25
-1.2910897e+26
7.8531737e+25
1.6514746e+25
-1.5283277e+26
-1.5862757e+26
-1.8590593e+26
-1.9686655e+26
-1.3193234e+26
-2.7022034e+25
7.3116965e+25
-1.573094e+26
-1.557791e+26
-2.0008344e+26
-1.9191086e+26
9.1065024e+24
-1.710715e+25
-7.1627618e+26
-6.9321661e+26
2.766438e+25
-4.04614e+25
-1.2962155e+26
7.7564685e+25
-1.5152551e+26
-1.5869892e+26
-1.8959318e+26
-1.9930696e+26
-1.2757499e+26
6.2946264e+25
-1.5584093e+26
-1.5577166e+26
-1.9168023e+26
-1.9944407e+26
-1.9773767e+25
-7.1997663e+26
-7.1383895e+26
-2.9649736e+25
2.5773997e+24
-5.3467342e+24
2.2248982e+25
-3.2842542e+25
-3.2561584e+25
-4.4150623e+25
-4.273559e+25
9.9347763e+21
-1.7070655e+24
-1.6434615e+26
-2.9201454e+25
2.3252705e+25
4.8217242e+24
-3.1599468e+25
-3.3026825e+25
-4.117743e+25
-4.3638762e+25
-1.5914005e+26
3.0655944e+24
-7.3779163e+24
-2.8387126e+25
2.2328386e+25
-3.170241e+25
-3.3069171e+25
-4.1726478e+25
-4.3826291e+25
-2.9300222e+25
2.0282113e+25
-4.416611e+25
-3.2835479e+25
-3.229645e+25
-4.2274592e+25
-2.3099799e+24
-1.631999e+26
-1.6297224e+26
9.9734828e+26
9.5039479e+26
-8.0624527e+26
-9.1893496e+26
-7.1052946e+26
7.9777183e+26
6.8141253e+26
-8.3491688e+26
1.0397026e+27
2.9826342e+27
-1.0803222e+26
1.560811e+26
-1.9264883e+26
-2.1948904e+26
1.7640584e+26
1.8840848e+26
-1.4797784e+26
1.8407431e+26
-1.6227357e+26
2.2119406e+26
2.2344306e+26
-1.7853839e+26
2.987403e+27
1.7422158e+26
-2.084988e+26
-2.1105397e+26
1.7948577e+26
2.178989e+26
2.2574525e+26
-1.7962153e+26
-1.7966595e+26
-6.7532936e+26
-1.0421008e+25
8.762724e+26
1.9077461e+25
3.7241277e+25
-4.7765818e+25
-4.508903e+25
3.7846409e+25
-5.3727227e+24
1.5085298e+25
3.6875541e+25
3.6516673e+25
-4.7096332e+25
-5.0073697e+25
-6.7990725e+26
8.9227963e+26
3.7893505e+25
-4.7290411e+25
-4.7827806e+25
3.6618699e+25
3.5191142e+25
3.6116624e+25
-7.023167e+26
-1.036487e+25
1.5617786e+25
5.5500797e+25
-3.078031e+25
-3.3053273e+25
5.3979684e+25
-1.1794924e+25
1.8373058e+25
-4.2875567e+25
4.5871553e+25
-3.9738681e+25
4.621332e+25
-7.1294568e+26
-3.2980829e+25
5.5633775e+25
5.5470474e+25
-3.2290737e+25
4.5162277e+25
-4.2347157e+25
4.6028397e+25
-4.1660443e+25
-1.3736228e+25
1.2148721e+25
6.0496571e+25
6.288898e+25
-8.8543504e+26
-1.7380423e+25
-1.5860177e+25
5.9850397e+25
6.3066318e+25
-8.8218363e+26
-1.6650686e+25
-1.6580969e+25
-1.1664988e+25
6.0390582e+25
6.2157369e+25
-8.5605462e+26
-1.6795114e+25
1.8287363e+25
-1.4276537e+25
6.3403192e+25
6.0085057e+25
-8.8212573e+26
-1.6709182e+25
-1.6012588e+25
1.2331934e+26
2.4998513e+26
2.7293755e+26
-3.9093666e+27
-9.2481259e+25
-8.1298832e+25
7.9751744e+26
-1.7050337e+28
-6.3032465e+26
-6.5937945e+26
8.4629218e+26
6.7601641e+26
-7.8255419e+26
2.5606376e+26
2.7086407e+26
-3.8651319e+27
1.6985439e+26
-8.9492032e+25
-7.5512515e+25
-1.8773441e+26
2.4573826e+27
-3.1705228e+27
2.0214243e+26
-3.7799959e+25
2.5256857e+27
-3.2151874e+27
-4.4844011e+25
2.4467069e+26
9.0071563e+25
2.8410424e+26
5.0715515e+25
-1.2651373e+24
1.8262893e+24
1.3630902e+25
1.4303292e+25
-1.9982781e+26
-3.3204472e+24
-3.5254831e+24
1.4582007e+25
1.3918011e+25
-1.9908487e+26
-3.3732657e+24
-3.216741e+24
-1.7460968e+24
1.3750956e+25
1.454429e+25
-1.9489869e+26
2.3689063e+24
-2.9348476e+24
-3.2111711e+24
1.4528238e+25
1.4091413e+25
-2.0031552e+26
-3.3731044e+24
-3.2288196e+24
2.9259624e+26
2.3547865e+27
-3.0417108e+27
1.6840342e+26
2.3087554e+27
-3.0127603e+27
1.895977e+26
-4.4511165e+26
4.130779e+26
4.0292162e+26
2.7574243e+27
-2.9806771e+26
-2.5461925e+27
2.3495863e+26
5.1418694e+25
-5.5091686e+26
3.992264e+26
2.4472247e+26
-3.2220956e+27
1.3100538e+26
-2.6697269e+27
-5.1518072e+23
-1.4569983e+25
1.5103543e+26
-7.6042113e+26
-7.9310896e+26
-7.2754079e+26
-7.0581999e+26
1.671688e+26
-7.927873e+26
-7.7009982e+26
-7.0577436e+26
-7.2968094e+26
-1.3964269e+26
-6.5718803e+26
-6.840993e+26
-5.419837e+26
-5.6255743e+26
-6.7273121e+26
-6.5399236e+26
-5.4717281e+26
-5.1612908e+26
-3.1313246e+25
1.1045924e+26
3.6928795e+25
-2.8266153e+26
-6.5593111e+26
1.0419486e+26
-2.5573323e+26
-2.7907458e+25
-6.4369336e+26
1.2295701e+25
1.2201418e+26
-6.0110229e+24
-7.4988379e+26
1.122883e+25
1.2344426e+26
-7.5722697e+26
1.0174782e+26
2.3044347e+25
-2.6318984e+26
-6.5618032e+26
-4.0189203e+23
1.1912951e+26
-7.5970574e+26
-1.0806299e+26
1.1985573e+26
-7.5972771e+26
-2.7744617e+26
-6.5943725e+26
-6.9568948e+23
4.0588823e+25
8.4400639e+24
-1.5682064e+26
-1.6290371e+26
-1.3614716e+26
-1.3183622e+26
4.1948663e+25
-1.6035375e+25
-1.3742258e+26
-1.633737e+26
-1.5866349e+26
-1.3326401e+26
1.9624296e+25
-3.7805797e+25
-1.1256527e+26
-9.9174459e+25
-9.6268359e+25
-1.1567681e+26
3.0361907e+25
-1.1117131e+26
-1.1574302e+26
-9.6638246e+25
-1.0010001e+26
-2.2687863e+25
3.8669292e+25
-1.5921856e+26
-1.6440361e+26
-1.3411672e+26
-1.3793938e+26
4.2770602e+25
-1.3815228e+26
-1.6483e+26
-1.596533e+26
-1.3383767e+26
4.0374179e+25
-1.1601292e+26
-1.125755e+26
-9.8859478e+25
-9.6306203e+25
-1.1343298e+26
-1.1844814e+26
-9.773315e+25
-1.0269503e+26
-1.0042085e+26
6.4078768e+25
5.8838282e+25
-5.3366402e+24
-7.8068281e+26
-5.5395608e+24
-3.1077251e+24
-3.1666833e+25
-8.4701006e+26
-5.6594179e+24
3.0813321e+25
5.9855211e+24
-1.3484626e+26
2.9233282e+25
-5.1277922e+24
-1.3254493e+26
2.5615008e+24
2.942811e+25
-1.6319998e+24
-1.3664291e+26
1.7760775e+24
3.0158871e+25
-1.3863446e+26
2.8891135e+25
-1.3450134e+26
2.903644e+25
-1.388872e+26
-8.848039e+23
2.3173024e+24
2.3392805e+24
-2.4457364e+25
-2.4980118e+25
-1.9896014e+25
-1.9494184e+25
3.4248273e+24
-3.6807353e+24
-2.0177472e+25
-2.4620644e+25
-2.5635434e+25
-1.9832283e+25
-1.9133363e+24
3.1008038e+24
-1.9500396e+25
-2.0373035e+25
-1.7964119e+25
-1.8720755e+25
-4.7871306e+24
-1.8997286e+25
-2.0019731e+25
-1.8413078e+25
-1.960888e+25
2.4841356e+24
-2.4862956e+25
-2.5365151e+25
-1.9651128e+25
-2.025805e+25
-6.203722e+24
-1.8188014e+25
-1.9329346e+25
-1.9090714e+25
-2.0249717e+25
-1.8829706e+25
-1.9690354e+25
-2.904179e+27
6.321536e+24
-1.2068095e+26
-1.9026637e+25
6.6177404e+25
-1.5829283e+26
-1.9659749e+26
-1.562462e+26
-1.9111929e+26
-1.1868581e+26
7.0532162e+25
1.1997943e+25
-1.574225e+26
-1.9429488e+26
-1.5067189e+26
-1.8235604e+26
-1.1902481e+25
-6.8661551e+26
2.7480758e+25
-2.5206703e+25
-7.1546405e+26
-1.1119358e+26
2.6992292e+25
5.3127164e+25
-1.5886435e+26
-1.5562128e+26
-1.982299e+26
-1.9056826e+26
2.6756599e+25
-7.1587111e+26
-1.2027201e+26
7.1189521e+25
-1.5450615e+26
-1.9060444e+26
-1.6067924e+26
-2.0057294e+26
-7.2856052e+26
1.6647696e+23
-2.6438719e+25
1.9922616e+25
1.75886e+24
-3.1731067e+25
-3.2790089e+25
-4.0734685e+25
-4.2986119e+25
-2.5561607e+25
-2.0873163e+24
1.8459404e+25
-3.277957e+25
-3.2053316e+25
-4.2918217e+25
-4.1520434e+25
-7.6585531e+23
-1.5525568e+26
4.0674784e+24
-1.8688694e+24
-1.5916776e+26
-4.2943662e+24
-2.6057004e+25
2.005285e+25
-4.1400115e+25
-3.1616659e+25
-3.2702371e+25
-4.3379051e+25
-2.6035352e+25
-3.6771605e+24
1.8248613e+25
-3.261744e+25
-3.1830338e+25
-4.1130249e+25
-4.3031569e+25
-2.2988233e+24
-1.6230729e+26
-2.2369997e+24
-1.5792298e+26
-2.3428688e+24
-2.6983215e+25
2.1931275e+25
-3.1380718e+25
-3.2710129e+25
-4.3044948e+25
-4.0672068e+25
-2.7041654e+25
-5.5288012e+24
2.1246896e+25
-3.2678535e+25
-3.2063817e+25
-4.1751494e+25
-4.322446e+25
-2.9247517e+23
-1.5802436e+26
-2.7378168e+24
-1.610143e+26
-6.5957649e+24
-2.6493579e+25
2.1209653e+25
-3.1615272e+25
-3.2936054e+25
-4.3476427e+25
-4.1462343e+25
-2.6669142e+25
1.8755264e+25
-3.2663742e+25
-3.2103634e+25
-4.1512776e+25
-4.3351701e+25
3.4271975e+24
-1.5886058e+26
-1.6218196e+26
-9.0957235e+23
-6.4404306e+24
5.6682224e+23
7.4081543e+24
-6.8187902e+24
-6.6027047e+24
-9.7924645e+24
-1.0253554e+25
-6.456731e+24
-6.5875176e+23
7.0560291e+24
-6.7769897e+24
-6.6304628e+24
-9.7708596e+24
-1.0233383e+25
-3.7329157e+23
1.3497563e+23
-3.5824493e+25
-2.1632948e+23
-3.5257863e+25
-5.529714e+22
-6.538551e+24
7.4033514e+24
6.1803324e+23
-9.6218232e+24
-6.5481193e+24
-6.7248213e+24
-1.0132236e+25
-6.5618956e+24
7.5581947e+24
-6.6601276e+24
-6.7765092e+24
-1.0207746e+25
-9.8672131e+24
1.1239069e+23
-3.4566381e+25
4.8896925e+23
-3.5409001e+25
-3.4679041e+23
-6.4254829e+24
7.4116602e+24
-6.5020521e+24
-6.7488846e+24
-9.5944531e+24
-1.0155143e+25
-6.4566907e+24
-1.0205211e+24
7.4151669e+24
-1.0151794e+25
-6.7193272e+24
-6.6426217e+24
-9.8401485e+24
9.6949632e+22
-3.4834328e+25
-3.8299022e+23
-3.5499743e+25
6.4635732e+24
-5.7635558e+23
-3.5854297e+25
-1.1893797e+24
7.2760428e+24
-6.8325694e+24
-6.5921806e+24
-9.7872121e+24
-1.0267115e+25
-6.395041e+24
-6.5680649e+24
-6.7429206e+24
-1.0129786e+25
-9.6785161e+24
-3.5046059e+25
-9.0624896e+26
-6.8497328e+26
-7.973096e+26
6.7695583e+26
8.1014797e+26
9.3321421e+26
-2.9929058e+27
1.2732954e+26
2.3196111e+26
2.2006312e+26
-1.8141225e+26
-1.799328e+26
-1.1015973e+26
2.9717266e+27
1.5767632e+26
-1.9097301e+26
1.8440298e+26
-2.0847935e+26
1.8737305e+26
-2.1042993e+26
1.7030844e+26
-2.103771e+26
1.7994068e+26
2.4080029e+27
-1.808751e+26
2.0455289e+26
-1.5218901e+25
-1.8678361e+26
2.0749427e+26
1.4541148e+25
-2.4517814e+27
-3.9518374e+24
-2.9197874e+25
1.7791647e+26
-1.637225e+26
2.1995244e+26
2.1697811e+26
-1.7749733e+26
-7.6637922e+24
6.691404e+26
1.6981737e+25
-4.8832821e+25
-4.5691995e+25
3.7009225e+25
3.7077683e+25
6.681594e+26
-8.3807386e+24
-5.14032e+25
-5.0929922e+25
3.3846597e+25
3.2585479e+25
1.1133465e+25
8.7237287e+26
-1.4200354e+25
3.6121151e+25
-4.7642927e+25
-4.7670482e+25
3.4451537e+25
8.6591781e+26
2.2279443e+25
-4.7787022e+25
-4.4631536e+25
3.6208879e+25
3.6694864e+25
6.8524807e+26
-1.0435746e+25
2.1302593e+25
-3.9352722e+25
-4.2718416e+25
4.4906854e+25
4.4693713e+25
-1.1935589e+25
2.1287095e+25
5.1586638e+25
-3.3106895e+25
-3.0329448e+25
5.288576e+25
-6.952933e+26
-1.7197838e+25
5.5022386e+25
-3.2958073e+25
-3.2567926e+25
5.2376451e+25
-1.4407038e+25
4.4325868e+25
-4.2273247e+25
-4.2352639e+25
4.2812507e+25
-6.756637e+26
1.1002586e+25
8.8190632e+26
-4.806388e+25
-4.8344288e+25
3.7250203e+25
3.5211807e+25
5.4019631e+24
3.3774586e+25
3.5793618e+25
-4.9797239e+25
-4.9598516e+25
6.8224073e+26
3.5913628e+25
-5.0267381e+25
-4.7834434e+25
3.5964157e+25
8.8389915e+26
3.5152112e+25
-4.9481173e+25
-4.6433302e+25
3.5391964e+25
1.6332977e+25
-7.0634474e+26
-3.3339107e+25
-3.3256921e+25
5.5309914e+25
5.2630919e+25
-6.9981973e+26
-3.4293216e+25
-3.1963557e+25
5.2550493e+25
5.2971365e+25
-1.1546652e+25
4.3491123e+25
-4.1471124e+25
-4.4118938e+25
4.369647e+25
4.5165287e+25
-4.3161398e+25
-4.2614807e+25
4.3332953e+25
-1.4984893e+26
-2.3712963e+24
1.8983621e+26
3.4199465e+24
-9.5010943e+24
7.8404393e+24
-1.0061231e+25
7.9272895e+24
2.8198167e+24
1.5264423e+26
-1.9663637e+26
-2.4367245e+24
-1.00446e+25
-9.968292e+24
8.1311512e+24
7.7250719e+24
-1.9187515e+26
3.8667042e+24
-9.5992248e+24
7.845215e+24
-1.0207805e+25
7.8521426e+24
-2.246155e+24
1.943738e+26
-9.942219e+24
8.090742e+24
-9.8830695e+24
7.7262992e+24
2.4890092e+24
-1.5484288e+26
-2.2155608e+24
-1.0413837e+25
8.0587255e+24
-1.0445674e+25
7.609447e+24
-1.5130115e+26
3.7160127e+24
-1.0027923e+25
7.6637424e+24
-1.0648071e+25
7.7279325e+24
-2.5656342e+24
3.337533e+24
7.1219393e+24
7.0816293e+24
-1.1076874e+25
-1.1734946e+25
7.4625953e+24
6.9948141e+24
-1.1528645e+25
-1.1539392e+25
-1.5169543e+26
-1.8477993e+24
1.9379703e+26
-9.811363e+24
-1.020797e+25
7.6362378e+24
7.7767564e+24
1.6998216e+24
1.5091078e+26
-1.9315612e+26
-1.0036082e+25
8.0183229e+24
7.7343541e+24
-1.9514307e+26
-9.9366559e+24
7.5463156e+24
-1.0365196e+25
7.6385164e+24
1.9113793e+26
-9.9482074e+24
-9.7434229e+24
8.0058627e+24
7.6843071e+24
1.8324916e+24
-1.0390171e+25
7.937575e+24
-1.0372385e+25
7.3694045e+24
-1.0780261e+25
7.5306021e+24
-1.5752447e+26
1.6719179e+24
-1.9331288e+24
-6.1388793e+24
-6.0059567e+24
1.2687064e+25
1.2428793e+25
-2.4869808e+24
1.5485999e+26
-1.9364734e+26
3.1501646e+24
-7.7245435e+24
-7.229301e+24
1.1060746e+25
1.1236995e+25
-1.9773502e+26
-2.1222765e+24
-7.7559825e+24
-7.577386e+24
1.1188334e+25
1.0937681e+25
2.5597951e+24
-6.0249383e+24
-5.6532436e+24
1.2171772e+25
1.2559526e+25
2.5783897e+24
1.527336e+26
-2.317897e+24
-9.3364614e+24
8.7021997e+24
-9.2360961e+24
8.3745638e+24
-1.5016874e+26
-2.2277499e+24
3.2605215e+24
-8.848235e+24
-8.3519332e+24
9.1810274e+24
9.3793574e+24
3.5743156e+24
-8.8173629e+24
8.528753e+24
-9.3763298e+24
8.5978136e+24
-1.9658958e+24
-8.852353e+24
-8.7688539e+24
9.4415993e+24
9.1296954e+24
1.5721118e+26
-1.172374e+24
-1.973737e+26
-7.5780349e+24
-7.9217063e+24
1.0750109e+25
1.0981526e+25
-1.1035903e+24
-6.0073338e+24
-6.267624e+24
1.2040909e+25
1.2421688e+25
-1.5685207e+26
-6.0974527e+24
-5.8801662e+24
1.2813828e+25
1.2488773e+25
-1.9531087e+26
-7.7479743e+24
-7.4826513e+24
1.1250905e+25
1.0944911e+25
1.0550978e+24
-1.5100451e+26
-8.848927e+24
-8.632725e+24
9.4414878e+24
9.1193676e+24
1.5261658e+26
-1.4868947e+24
-9.1506165e+24
8.2812517e+24
-9.5437541e+24
8.4154671e+24
-8.7187367e+24
-9.0434463e+24
8.923253e+24
9.1994214e+24
-9.3313856e+24
8.6168551e+24
-9.0974518e+24
8.2980321e+24
1.5199889e+24
-1.8820329e+24
1.3252959e+25
1.3810772e+25
-1.9774243e+26
-3.7120748e+24
-3.6419128e+24
1.1686923e+24
1.4017276e+25
1.3230034e+25
-1.9390328e+26
-3.3327267e+24
-3.5445299e+24
1.826723e+24
1.322755e+25
1.4022212e+25
-1.9527728e+26
-3.4997553e+24
-3.4418262e+24
1.3992431e+25
1.3507503e+25
-1.9922247e+26
-3.4071188e+24
-3.6885845e+24
2.0849373e+24
-1.4131673e+24
1.35302e+25
1.3009775e+25
-1.9562521e+26
-3.7792081e+24
-3.7702058e+24
1.6530607e+25
6.115401e+25
5.6831871e+25
-8.8775118e+26
-1.7944198e+25
-1.8886099e+25
1.3228774e+25
1.3800039e+25
-1.9007316e+26
2.5310923e+24
-3.2506625e+24
-3.6833586e+24
1.2390499e+24
1.2959662e+25
1.3657764e+25
-1.9394808e+26
-3.7577226e+24
-3.6141413e+24
1.3335172e+25
1.3889317e+25
-1.9829579e+26
-3.5635776e+24
-3.8591204e+24
1.7131386e+25
5.9978095e+25
6.1014303e+25
-8.9504327e+26
-1.6870149e+25
-1.9538943e+25
2.2001445e+26
-3.8264117e+27
-1.0587895e+26
2.3491077e+27
-1.8856254e+26
-3.078228e+27
-3.5944404e+25
-2.3127869e+26
7.312744e+25
-2.3571376e+27
4.426844e+25
-3.0721031e+27
-5.400889e+25
1.6775776e+25
6.0895615e+25
5.7791499e+25
-8.8672942e+26
-1.7852311e+25
-1.8705766e+25
5.9778992e+25
5.6862589e+25
-8.5185555e+26
2.368595e+25
-1.8189367e+25
-1.5634782e+25
-2.5321852e+26
2.434578e+27
-2.3943439e+27
1.7256251e+26
2.6217871e+24
2.4954896e+27
-2.4265006e+27
-2.6620989e+25
2.5394327e+26
9.1521288e+25
2.125849e+26
-1.9540867e+25
-2.1423692e+23
7.4835797e+22
2.9546511e+24
3.2273831e+24
-4.2171751e+25
-1.0082522e+24
-1.0173947e+24
-2.2755157e+23
3.1172206e+24
3.0579803e+24
-4.3071403e+25
-1.027535e+24
-1.0881631e+24
-1.5031695e+23
3.0274017e+24
3.2222424e+24
-4.3458147e+25
-1.0624634e+24
-1.0338224e+24
3.1564289e+24
2.9943434e+24
-4.2489674e+25
-1.0350249e+24
-9.7674734e+23
-2.3993153e+23
3.041043e+24
3.1995018e+24
-4.1853545e+25
3.2083716e+23
-9.6411854e+23
-1.0050123e+24
-1.2934057e+23
3.2025674e+24
3.0957716e+24
-4.2968118e+25
-1.0577617e+24
-1.0032176e+24
-7.7024933e+22
3.0069554e+24
3.1791097e+24
-4.3304799e+25
-1.0553683e+24
-1.0758074e+24
3.0414658e+24
3.2016659e+24
-4.2662826e+25
-1.06616e+24
-1.0030146e+24
2.539948e+26
2.3763449e+27
-2.3532145e+27
1.262362e+26
2.1851189e+27
-2.2227423e+27
1.4531596e+26
-3.9062397e+26
2.6244408e+26
2.3797075e+26
1.6029885e+26
7.9608135e+24
-2.4364553e+26
1.7658591e+25
1.0914599e+26
-5.089652e+25
3.9147234e+25
2.072528e+26
-3.6237025e+26
2.3632086e+26
-3.0693524e+26
-1.6735892e+25
-2.8994617e+25
-7.2805238e+25
-8.5193927e+25
2.6860537e+24
-3.6493895e+27
-8.736992e+25
-7.2156466e+25
-3.6549303e+27
2.1988052e+26
2.5049486e+26
2.2716409e+25
-1.4444838e+26
-1.6698436e+26
1.3546644e+25
1.0667821e+26
-2.4875161e+26
-6.2745522e+26
1.0924643e+26
1.8021701e+25
-2.6050064e+26
-6.4632994e+26
-3.8245413e+24
4.3026852e+23
1.2645969e+26
-7.4135991e+26
1.2534629e+26
6.2214847e+24
-7.3453411e+26
9.5670665e+24
1.0543983e+26
-2.5210454e+26
-6.3766809e+26
1.0733764e+26
-2.5643137e+26
-6.3934659e+26
6.7282645e+24
1.2480893e+26
-7.3598504e+26
1.2418088e+26
-7.4126355e+26
5.5476826e+23
4.1191097e+25
8.9693452e+24
-1.5498561e+26
-1.308209e+26
-1.3532651e+26
-1.6142398e+26
4.2663926e+25
-1.1979654e+25
-1.6150189e+26
-1.5757737e+26
-1.3616543e+26
-1.3252452e+26
-1.9152763e+25
-1.180251e+26
2.4188519e+25
-1.0047728e+26
-1.1293325e+26
-1.0386048e+26
-3.8533402e+25
-1.1451781e+26
-1.1713889e+26
-1.0292249e+26
-9.9756208e+25
-1.4616384e+25
4.125249e+25
-1.5656907e+26
-1.6206092e+26
-1.3627923e+26
-1.3225691e+26
5.0345224e+25
-1.6140803e+26
-1.5675752e+26
-1.3179062e+26
-1.3574883e+26
-3.7070135e+25
-1.1396271e+26
-1.004791e+26
-1.1835929e+26
-1.0339299e+26
-1.1477429e+26
-1.1153757e+26
-9.4524093e+25
-9.8528983e+25
-2.0095913e+25
1.0024802e+26
2.6357951e+25
-8.3524644e+26
9.7951331e+25
-2.2988988e+25
-8.2394559e+26
2.0769469e+24
5.8666447e+25
6.1939562e+25
-3.9185392e+24
-7.6310043e+26
-4.0903116e+24
-3.5061183e+24
4.0546138e+24
5.9233962e+25
5.9869837e+25
-7.6897044e+26
-5.1718684e+24
-3.9179804e+24
9.7053714e+25
2.2052633e+25
-8.3629843e+26
-1.6716778e+24
5.8218515e+25
6.2337884e+25
-7.6945019e+26
-4.9156718e+24
-3.1161476e+24
-1.0144731e+26
5.909638e+25
6.0201399e+25
-7.7514799e+26
-5.752821e+24
-3.6855161e+24
-8.4265515e+26
3.2692374e+24
3.0175333e+25
-1.65024e+24
-1.2994852e+26
3.0883412e+25
3.769252e+24
-1.3234755e+26
-1.3666774e+24
9.7664626e+23
3.1424235e+25
-1.3629793e+26
3.1017105e+25
5.1870508e+23
-1.3456336e+26
-2.9443426e+25
-8.3618544e+23
3.0371589e+25
-1.3653789e+26
1.4925604e+24
-1.3130647e+26
2.9989381e+25
4.0994662e+24
-1.3138991e+26
3.0531676e+25
8.5227247e+23
-1.3549475e+26
4.9477666e+24
2.8760687e+24
-2.4406107e+24
-2.4849056e+25
-2.3844687e+25
-1.9019875e+25
-1.9703217e+25
-4.6923851e+24
-3.4720994e+24
4.0423401e+24
-1.7489289e+25
-1.8285424e+25
-1.9211204e+25
-2.001355e+25
-4.143049e+24
-1.7853233e+25
-1.9362278e+25
-1.7512384e+25
-1.8893433e+25
2.1456218e+24
-2.4786505e+25
-2.4227603e+25
-1.9166195e+25
-1.9866551e+25
-5.5053449e+23
4.2928579e+24
3.0558939e+24
-2.4041652e+25
-2.4754351e+25
-1.8724607e+25
-1.9431786e+25
5.0931566e+24
-2.4970932e+25
-2.4122644e+25
-1.9661528e+25
-1.9061744e+25
-1.8872139e+24
4.0203087e+24
-1.7397817e+25
-1.8139054e+25
-1.9169934e+25
-1.9849057e+25
-1.7981747e+25
-1.7754555e+25
-1.9606432e+25
-1.9049591e+25
4.5621159e+24
2.9219033e+25
-1.3068171e+26
3.0388849e+25
4.4004667e+24
-1.3229291e+26
1.9170825e+24
2.9935234e+25
-1.3589772e+26
1.4228406e+24
3.0558893e+25
-1.3761518e+26
-2.893099e+25
-6.0844666e+23
2.9583668e+25
-1.3677372e+26
1.9827126e+24
-1.3224685e+26
2.9678065e+25
-1.3227505e+26
2.9792953e+25
-1.3619302e+26
-3.3402365e+24
2.7902454e+24
2.6714909e+24
-1.9420574e+25
-2.4435247e+25
-2.4890526e+25
-1.980444e+25
4.8191394e+24
-1.9809881e+25
-2.4155264e+25
-2.5210012e+25
-1.94275e+25
-4.7960484e+24
5.3807288e+24
-1.775217e+25
-1.852502e+25
-2.0065343e+25
-1.9101764e+25
-1.781633e+25
-1.9277488e+25
-1.891374e+25
-1.8419496e+25
-5.7742247e+23
2.6484414e+24
-2.4087337e+25
-1.9212129e+25
-2.0018835e+25
-2.4691074e+25
3.4696217e+24
-2.5223325e+25
-2.425466e+25
-2.0157437e+25
-1.9629381e+25
-2.5190571e+24
-1.7275396e+25
-1.8136552e+25
-1.926204e+25
-2.0103449e+25
-1.8244449e+25
-1.7919286e+25
-1.9660387e+25
-1.9292723e+25
-6.5201346e+25
-7.8706982e+23
-5.8313293e+24
6.3584472e+25
6.0142676e+25
-7.9520607e+26
-1.9891017e+25
-1.7492746e+25
2.6687514e+24
3.4497147e+25
-3.1466807e+24
-1.7210367e+26
3.3945413e+24
3.5345344e+25
-1.7402505e+26
2.7481932e+25
-6.8239955e+26
-3.7413083e+25
7.2958871e+25
-7.0721102e+26
6.0161461e+25
-8.0250107e+26
-2.0416588e+25
3.3801039e+25
-1.7314689e+26
-2.0213733e+24
1.2744079e+25
1.3534266e+25
1.2310295e+24
-3.8789079e+25
-3.7942674e+25
-2.8772044e+25
-2.8759576e+25
3.4015925e+24
3.2280486e+24
-1.7836549e+24
1.3278936e+25
1.2985655e+25
-3.8604025e+25
-3.9440287e+25
-2.9243667e+25
-2.8954416e+25
3.0876396e+24
3.3633512e+24
1.2653629e+25
1.3427569e+25
-3.8953521e+25
-3.8466339e+25
-2.9056456e+25
-2.891015e+25
3.0727081e+24
3.2262247e+24
1.1458155e+24
7.4180473e+24
-1.1801757e+24
-1.9096965e+25
7.5916433e+24
1.3049685e+24
-1.9196634e+25
-3.5135852e+23
2.9276544e+23
3.9358153e+24
-4.9219474e+24
-3.3377346e+24
-4.7210877e+24
-3.2008157e+24
3.835697e+24
-1.0199643e+23
-4.9099422e+24
-4.7440084e+24
-3.2385588e+24
-3.268682e+24
-7.3896006e+24
-1.297885e+23
3.8577342e+24
-4.7777954e+24
-4.9030497e+24
-3.2784303e+24
-3.2637649e+24
-8.1043298e+23
7.5732595e+24
1.2931729e+24
-1.9397696e+25
-1.9544841e+25
4.1555165e+24
-2.7048624e+22
-3.4223178e+24
-5.0314195e+24
-4.7897669e+24
-3.2737605e+24
3.2660804e+23
4.056593e+24
6.3624311e+22
-5.3875312e+24
-2.7935918e+24
-2.7372057e+24
-5.6255435e+24
4.1604525e+24
4.7766857e+21
-5.6189152e+24
-2.9192633e+24
-2.6420976e+24
-5.4731889e+24
-2.0752337e+22
5.0831376e+23
-3.1981996e+24
-3.2197829e+24
-2.1055926e+24
-2.0358196e+24
-2.0066971e+23
-3.1244577e+24
-3.3079911e+24
-1.9695626e+24
-2.0425584e+24
-4.2486809e+24
-5.5485432e+23
-3.2498588e+24
-3.2370611e+24
-1.9757366e+24
-2.074031e+24
-3.2094024e+23
-5.4233545e+24
-2.764647e+24
-2.7029666e+24
-5.6435754e+24
-3.6638703e+24
-5.9422743e+23
-2.0152838e+24
-3.3835525e+24
-3.2154469e+24
-1.9400339e+24
-1.0969954e+23
-2.9241432e+24
-2.6050556e+24
-5.3617653e+24
-5.5369966e+24
1.1629842e+24
7.3285812e+24
-1.9407707e+25
7.5265058e+24
-1.9464112e+25
1.1486001e+23
3.7319946e+24
-4.9012221e+24
-4.7526024e+24
-3.2617867e+24
-3.2808351e+24
3.8893679e+24
-4.7726807e+24
-4.9764838e+24
-3.3784366e+24
-3.2555273e+24
-4.2373115e+24
-2.845742e+23
-3.2135393e+24
-3.2372944e+24
-2.0161999e+24
-2.0613149e+24
1.2441762e+23
-5.3909121e+24
-2.7288703e+24
-2.652829e+24
-5.6164974e+24
-4.282813e+24
-7.7375215e+23
-3.1790301e+24
-3.3450081e+24
-1.9759419e+24
-1.9293591e+24
-4.4904941e+23
-2.6034482e+24
-2.8737757e+24
-5.594688e+24
-5.4719775e+24
-4.2196873e+24
-3.2816288e+24
-3.2874759e+24
-1.9816744e+24
-2.0634906e+24
-5.4107489e+24
-2.783457e+24
-2.6835823e+24
-5.6386797e+24
-9.5115042e+25
4.6953799e+25
-1.4733065e+26
-1.5108334e+26
-1.9079967e+26
-1.8346363e+26
-6.9112493e+26
-2.5316311e+25
-3.9504605e+24
1.0626593e+24
1.9328307e+25
-4.1244204e+25
-3.2040764e+25
-3.2938799e+25
-4.3193139e+25
-3.1927801e+24
2.0094273e+24
-1.5983481e+26
-2.4832338e+25
-2.6268913e+24
1.6907447e+25
-3.295103e+25
-3.2262187e+25
-4.1306563e+25
-4.3125074e+25
-3.4933929e+24
-1.5785952e+26
-2.5044852e+25
-1.0636081e+24
1.8655714e+25
-3.277161e+25
-3.2058293e+25
-4.2760092e+25
-4.131702e+25
3.2548837e+23
-1.578768e+26
-2.5214654e+25
1.9998114e+25
-5.325976e+21
-3.1380746e+25
-3.2504013e+25
-4.0157334e+25
-4.2471559e+25
-1.5344639e+26
3.0637649e+24
-4.9781095e+24
-2.4958419e+25
3.9101e+24
1.8088756e+25
-3.2305947e+25
-3.3261485e+25
-4.1791981e+25
-4.3567281e+25
-2.3896198e+25
1.4815936e+25
-3.3132007e+25
-3.2107711e+25
-4.3205994e+25
-4.1314557e+25
-4.7375375e+24
4.5455896e+24
-1.6184237e+26
-1.5830265e+26
-2.6393744e+25
-1.4216628e+24
1.9941206e+25
-3.1904237e+25
-3.3089978e+25
-4.0957982e+25
-4.3306644e+25
-1.5054935e+24
-1.5900799e+26
-2.4855791e+25
1.7194121e+25
-3.2960839e+25
-4.3219695e+25
-3.2464818e+25
-4.1883801e+25
-1.6137434e+26
3.560169e+23
-5.9168485e+24
6.290095e+24
1.3179377e+23
-6.6680812e+24
-6.4938786e+24
-9.4574151e+24
-9.972744e+24
-5.8659821e+24
2.2247417e+22
6.2679557e+24
-6.5490073e+24
-6.6757108e+24
-9.9898194e+24
-9.6437491e+24
-7.9508229e+21
-3.4065162e+25
6.5035692e+23
-2.5073287e+23
-3.4809279e+25
-5.8448957e+23
-5.7749411e+24
6.4382561e+24
-6.6619132e+24
-6.4898417e+24
-9.6132854e+24
-1.0071104e+25
-5.7742534e+24
-2.3723181e+23
6.0485775e+24
-6.5227622e+24
-6.6419753e+24
-9.9744611e+24
-9.5356968e+24
-4.7436369e+23
-3.4939325e+25
-3.2490523e+23
-3.443437e+25
6.0913792e+24
5.2063384e+22
-3.453329e+25
-1.8170203e+22
6.8324731e+24
-6.6430285e+24
-6.4508154e+24
-9.5045957e+24
-9.978377e+24
-6.0540958e+24
-5.4275327e+23
6.7595843e+24
-6.5382244e+24
-6.6812603e+24
-1.0012373e+25
-9.6514262e+24
-3.1114779e+23
-3.5180621e+25
-9.2106413e+23
-5.93101e+24
6.7140578e+24
-6.7732054e+24
-6.5173146e+24
-9.6271718e+24
-1.0104494e+25
-5.8708626e+24
-4.6072761e+23
6.2020182e+24
-6.4896096e+24
-6.6635098e+24
-9.9542881e+24
-9.5144248e+24
5.8052355e+23
-3.2903517e+23
-3.429294e+25
-3.5035439e+25
-4.1765211e+22
-6.2403399e+24
7.1285973e+24
-6.72947e+24
-6.4682217e+24
-9.4908141e+24
-9.9994299e+24
-6.3092952e+24
-5.835e+23
7.1764444e+24
-6.5548994e+24
-6.7026017e+24
-1.0072684e+25
-9.7053601e+24
-1.6642375e+23
-1.5569483e+23
-3.501485e+25
-3.4177832e+25
-1.0733929e+24
-6.1628529e+24
7.2366595e+24
-6.8240298e+24
-6.5565158e+24
-9.7078163e+24
-1.0174092e+25
-6.1211402e+24
-8.9109323e+23
6.7205644e+24
-6.5467723e+24
-6.6850124e+24
-1.0020861e+25
-9.5929033e+24
4.9718239e+23
-4.6323366e+23
-3.4653627e+25
-3.5235054e+25
-4.6165841e+23
-6.4222936e+24
7.4456038e+24
-6.813779e+24
-6.5274694e+24
-9.6015965e+24
-1.0125183e+25
-6.3566923e+24
-1.0542311e+24
7.3794111e+24
-6.6785888e+24
-6.7512414e+24
-1.0151925e+25
-9.7844581e+24
7.4062343e+22
-5.436836e+23
-3.5371074e+25
-3.4766305e+25
-1.1969616e+24
-6.2655691e+24
7.1294532e+24
-6.5850418e+24
-9.7619505e+24
-6.8451329e+24
-1.0192782e+25
-6.1523088e+24
6.5466012e+24
-6.745642e+24
-6.5661398e+24
-1.0113311e+25
-9.6517657e+24
7.1917627e+23
-3.4667745e+25
-3.5419567e+25
-8.7257746e+22
-1.0960579e+24
-4.7187034e+22
2.7077341e+24
-8.2960215e+24
-1.0712225e+24
1.1102565e+22
2.5606371e+24
-8.1904793e+24
4.9610415e+22
1.7785274e+22
-7.9241271e+24
-5.5029845e+22
-8.0658617e+24
-1.0002972e+23
-1.0916609e+24
2.579594e+24
-8.2120806e+24
-1.0835308e+24
3.0613606e+22
2.5182163e+24
-8.1957903e+24
1.1098874e+23
-8.9212141e+21
-7.914991e+24
-8.0674192e+24
1.1137388e+24
5.8614212e+22
-7.8237042e+24
7.057211e+22
1.3906045e+23
2.5670303e+24
1.6090433e+22
-8.1565618e+24
-1.1234635e+24
2.5486173e+22
2.7467234e+24
-8.2345057e+24
-2.1081928e+20
-7.9973726e+24
4.9173889e+22
-1.1069436e+24
2.628165e+24
-8.2194199e+24
-1.1073383e+24
2.6309249e+24
-8.2254353e+24
-7.2749999e+22
-8.0399772e+24
-7.9333496e+24
1.2974804e+23
-1.0683935e+24
2.5886776e+24
-8.1214692e+24
-1.1420214e+24
6.6097385e+21
2.7643952e+24
-8.2481179e+24
8.1630874e+22
-7.7987468e+24
1.2089265e+21
-7.9893589e+24
1.0646524e+24
-8.9447064e+22
-8.0085684e+24
-9.0808187e+22
2.6222369e+24
-8.1794937e+24
-1.1008682e+24
-6.898851e+22
2.6140104e+24
-8.1775828e+24
-6.4570382e+22
-7.9079123e+24
-2.9490538e+22
-1.1340073e+24
-8.7944808e+22
2.7077219e+24
-8.2888481e+24
-1.0891493e+24
2.5946034e+24
-8.1961131e+24
8.7070169e+21
-7.9222365e+24
-9.3104778e+22
-8.0770671e+24
1.1178037e+23
-1.0872603e+24
-8.1266018e+24