/*--------------------------------*- C++ -*----------------------------------*\
  =========                 |
  \\      /  F ield         | OpenFOAM: The Open Source CFD Toolbox
   \\    /   O peration     | Website:  https://openfoam.org
    \\  /    A nd           | Version:  7
     \\/     M anipulation  |
\*---------------------------------------------------------------------------*/
FoamFile
{
    version     2.0;
    format      ascii;
    class       volScalarField;
    location    "5000";
    object      pMean;
}
// * * * * * * * * * * * * * * * * * * * * * * * * * * * * * * * * * * * * * //

dimensions      [0 2 -2 0 0 0 0];

internalField   nonuniform List<scalar> 
33943
(
-4.7770332e+58
-4.7370526e+58
-4.7004225e+58
-4.6924156e+58
-4.7940758e+58
-4.7837368e+58
-4.756019e+58
-4.8067564e+58
-4.7434011e+58
-4.7412506e+58
-4.7008644e+58
-4.6989979e+58
-4.7992745e+58
-4.790834e+58
-4.7919076e+58
-4.7996539e+58
-4.4925131e+58
-4.5788423e+58
-4.7045087e+58
-4.7041446e+58
-4.6474321e+58
-4.7812213e+58
-4.7819979e+58
-4.7747903e+58
-4.7719511e+58
-4.8654093e+58
-4.8572074e+58
-4.7715059e+58
-4.8262553e+58
-4.7461268e+58
-4.7515306e+58
-4.7629003e+58
-4.7658462e+58
-4.7821544e+58
-4.757321e+58
-4.7695736e+58
-4.7699695e+58
-4.8005062e+58
-4.7996774e+58
-4.7497924e+58
-4.7499018e+58
-4.7132874e+58
-4.7091734e+58
-4.803932e+58
-4.8058652e+58
-4.7989909e+58
-4.7984586e+58
-4.8076645e+58
-4.8100356e+58
-4.8021636e+58
-4.7996146e+58
-4.8264149e+58
-4.8242922e+58
-4.8257499e+58
-4.8215534e+58
-4.8263703e+58
-4.8267079e+58
-4.8252333e+58
-4.8223674e+58
-4.514905e+58
-4.5011329e+58
-4.5853262e+58
-4.5016823e+58
-4.5850657e+58
-4.558622e+58
-4.4967321e+58
-4.5583693e+58
-4.4983226e+58
-4.6960914e+58
-4.6272127e+58
-4.6965533e+58
-4.6280195e+58
-4.7907644e+58
-4.7862741e+58
-4.7930572e+58
-4.7934156e+58
-4.715791e+58
-4.6520677e+58
-4.7118518e+58
-4.6144905e+58
-4.6202672e+58
-4.6678976e+58
-4.6656255e+58
-4.8309741e+58
-4.8288365e+58
-4.8312749e+58
-4.832843e+58
-4.7771338e+58
-4.7674851e+58
-4.8559301e+58
-4.8628541e+58
-4.7707913e+58
-4.8688694e+58
-4.8630991e+58
-4.7818934e+58
-4.7492582e+58
-4.7563091e+58
-4.7620342e+58
-4.7700126e+58
-4.7617126e+58
-4.7613023e+58
-4.7835287e+58
-4.7836306e+58
-4.7646261e+58
-4.7867214e+58
-4.7883256e+58
-4.7639822e+58
-4.7726405e+58
-4.7757232e+58
-4.8096391e+58
-4.8043509e+58
-4.7753759e+58
-4.7792536e+58
-4.8122775e+58
-4.8096784e+58
-4.7849908e+58
-4.751769e+58
-4.7897775e+58
-4.7893827e+58
-4.8150006e+58
-4.8142334e+58
-4.7906996e+58
-4.8149265e+58
-4.8032451e+58
-4.8039768e+58
-4.814178e+58
-4.8158201e+58
-4.8035629e+58
-4.8149485e+58
-4.8151663e+58
-4.7293367e+58
-4.8084041e+58
-4.807309e+58
-4.8101672e+58
-4.8115734e+58
-4.8114235e+58
-4.8098949e+58
-4.8084035e+58
-4.8122942e+58
-4.8280435e+58
-4.8285811e+58
-4.8277145e+58
-4.8295538e+58
-4.827742e+58
-4.8287722e+58
-4.8306358e+58
-4.8275233e+58
-4.8254114e+58
-4.827141e+58
-4.8237031e+58
-4.826184e+58
-4.827322e+58
-4.8295729e+58
-4.8253711e+58
-4.8277979e+58
-4.8382972e+58
-4.8381583e+58
-4.8418306e+58
-4.8396629e+58
-4.8374902e+58
-4.8390761e+58
-4.8390527e+58
-4.8413558e+58
-4.8369653e+58
-4.8387778e+58
-4.8385685e+58
-4.8406661e+58
-4.8416152e+58
-4.8383541e+58
-4.8380689e+58
-4.8388067e+58
-4.5153764e+58
-4.5931328e+58
-4.5065113e+58
-4.5097997e+58
-4.4570194e+58
-4.5056398e+58
-4.5079841e+58
-4.455278e+58
-4.5915547e+58
-4.5063399e+58
-4.5055275e+58
-4.5675769e+58
-4.568513e+58
-4.6366091e+58
-4.705373e+58
-4.7064306e+58
-4.6398688e+58
-4.5630031e+58
-4.5034511e+58
-4.5028273e+58
-4.5655028e+58
-4.6991517e+58
-4.7037171e+58
-4.6352501e+58
-4.6315977e+58
-4.5933743e+58
-4.5625211e+58
-4.5629733e+58
-4.5932325e+58
-4.5208115e+58
-4.5216925e+58
-4.493079e+58
-4.4917347e+58
-4.5918077e+58
-4.5598499e+58
-4.5612342e+58
-4.5906162e+58
-4.5184383e+58
-4.5198532e+58
-4.7781159e+58
-4.7404279e+58
-4.7413814e+58
-4.7764239e+58
-4.645193e+58
-4.6857022e+58
-4.6456486e+58
-4.685794e+58
-4.7398297e+58
-4.7764292e+58
-4.7744118e+58
-4.7389897e+58
-4.6833546e+58
-4.6442066e+58
-4.6848476e+58
-4.6432789e+58
-4.8368123e+58
-4.8366395e+58
-4.8333036e+58
-4.835467e+58
-4.8418905e+58
-4.7969924e+58
-4.8421654e+58
-4.8385532e+58
-4.8414241e+58
-4.8013839e+58
-4.718338e+58
-4.6204978e+58
-4.6701545e+58
-4.67944e+58
-4.625092e+58
-4.8020989e+58
-4.8017524e+58
-4.6018448e+58
-4.6056446e+58
-4.6884143e+58
-4.6838103e+58
-4.8509214e+58
-4.8513794e+58
-4.8505856e+58
-4.8487258e+58
-4.852059e+58
-4.8531409e+58
-4.8527776e+58
-4.8515417e+58
-4.7717287e+58
-4.765415e+58
-4.8643407e+58
-4.8737998e+58
-4.7760938e+58
-4.8785377e+58
-4.8681077e+58
-4.7854325e+58
-4.6955421e+58
-4.6958037e+58
-4.6296624e+58
-4.7659607e+58
-4.7651086e+58
-4.7856633e+58
-4.785864e+58
-4.7679066e+58
-4.7684716e+58
-4.7904469e+58
-4.7878415e+58
-4.773848e+58
-4.7750524e+58
-4.8029511e+58
-4.804327e+58
-4.7748528e+58
-4.7806615e+58
-4.8048766e+58
-4.8106325e+58
-4.7585662e+58
-4.757956e+58
-4.7884758e+58
-4.7882925e+58
-4.7576332e+58
-4.7881841e+58
-4.7877252e+58
-4.7559321e+58
-4.7910563e+58
-4.7914892e+58
-4.8146299e+58
-4.8145157e+58
-4.8158838e+58
-4.7927408e+58
-4.7929128e+58
-4.8172722e+58
-4.8076062e+58
-4.815331e+58
-4.8176643e+58
-4.804868e+58
-4.8018703e+58
-4.8039288e+58
-4.8138756e+58
-4.8156494e+58
-4.7913897e+58
-4.7924268e+58
-4.8161535e+58
-4.8162231e+58
-4.8179369e+58
-4.7938042e+58
-4.7935116e+58
-4.8184054e+58
-4.8072777e+58
-4.8079914e+58
-4.8171403e+58
-4.8189042e+58
-4.8057023e+58
-4.806843e+58
-4.815243e+58
-4.817555e+58
-4.7846997e+58
-4.8153309e+58
-4.8161247e+58
-4.7160259e+58
-4.7147362e+58
-4.780811e+58
-4.8150416e+58
-4.8376032e+58
-4.8372251e+58
-4.8365127e+58
-4.8220218e+58
-4.822429e+58
-4.8241139e+58
-4.8241086e+58
-4.8248221e+58
-4.8226613e+58
-4.8227974e+58
-4.825337e+58
-4.8298954e+58
-4.8322466e+58
-4.8291924e+58
-4.8300252e+58
-4.8304356e+58
-4.831836e+58
-4.8309148e+58
-4.8316937e+58
-4.8218876e+58
-4.8217155e+58
-4.8245386e+58
-4.8238792e+58
-4.8297614e+58
-4.830798e+58
-4.8299268e+58
-4.8321337e+58
-4.8296506e+58
-4.8309831e+58
-4.8125879e+58
-4.8155166e+58
-4.8354918e+58
-4.841521e+58
-4.8351083e+58
-4.837959e+58
-4.8342116e+58
-4.8398292e+58
-4.8320787e+58
-4.8359713e+58
-4.8327946e+58
-4.8326618e+58
-4.8366562e+58
-4.8326211e+58
-4.8331068e+58
-4.8345968e+58
-4.8342099e+58
-4.8372696e+58
-4.8418963e+58
-4.8426062e+58
-4.8461295e+58
-4.847769e+58
-4.842573e+58
-4.8424766e+58
-4.8480094e+58
-4.8452899e+58
-4.8437038e+58
-4.8408473e+58
-4.8420823e+58
-4.8455797e+58
-4.8418003e+58
-4.8418759e+58
-4.8434247e+58
-4.8465545e+58
-4.8385782e+58
-4.8389012e+58
-4.8415244e+58
-4.8402028e+58
-4.8384626e+58
-4.8386219e+58
-4.8402288e+58
-4.8426383e+58
-4.8368683e+58
-4.8385767e+58
-4.8414804e+58
-4.8390258e+58
-4.8385542e+58
-4.8388425e+58
-4.8403829e+58
-4.8431411e+58
-4.8462062e+58
-4.8459695e+58
-4.8514219e+58
-4.8526388e+58
-4.8473875e+58
-4.8450638e+58
-4.850917e+58
-4.8531737e+58
-4.8511677e+58
-4.847105e+58
-4.8468715e+58
-4.8528537e+58
-4.8463568e+58
-4.8476186e+58
-4.8537516e+58
-4.852119e+58
-4.8443143e+58
-4.8444231e+58
-4.8499918e+58
-4.8518582e+58
-4.8526727e+58
-4.8455e+58
-4.844583e+58
-4.8511268e+58
-4.8455906e+58
-4.8446484e+58
-4.8503698e+58
-4.8520173e+58
-4.8441181e+58
-4.8457645e+58
-4.8518326e+58
-4.84901e+58
-4.5148875e+58
-4.4570948e+58
-4.4605672e+58
-4.510972e+58
-4.5077847e+58
-4.5983803e+58
-4.712289e+58
-4.7090045e+58
-4.6421866e+58
-4.6434838e+58
-4.510348e+58
-4.5744958e+58
-4.5143456e+58
-4.57344e+58
-4.5106644e+58
-4.5728784e+58
-4.5126645e+58
-4.573641e+58
-4.4304754e+58
-4.5075513e+58
-4.5088546e+58
-4.4267204e+58
-4.6411194e+58
-4.713342e+58
-4.712151e+58
-4.6434579e+58
-4.5023085e+58
-4.5028128e+58
-4.5315284e+58
-4.5318572e+58
-4.5013084e+58
-4.4997635e+58
-4.531299e+58
-4.5291972e+58
-4.6048903e+58
-4.5736678e+58
-4.5720569e+58
-4.6032233e+58
-4.5731833e+58
-4.5724704e+58
-4.6041912e+58
-4.6047793e+58
-4.6569587e+58
-4.6569446e+58
-4.6975148e+58
-4.6971069e+58
-4.7881684e+58
-4.7528407e+58
-4.7520899e+58
-4.7888132e+58
-4.7880844e+58
-4.7500023e+58
-4.7526757e+58
-4.7844809e+58
-4.6976273e+58
-4.6556698e+58
-4.657136e+58
-4.6951344e+58
-4.5650349e+58
-4.5667506e+58
-4.5971166e+58
-4.5952191e+58
-4.523516e+58
-4.5256202e+58
-4.4975537e+58
-4.4948748e+58
-4.5277823e+58
-4.4980023e+58
-4.4990263e+58
-4.5265861e+58
-4.601246e+58
-4.5681847e+58
-4.5697648e+58
-4.5994871e+58
-4.742662e+58
-4.745532e+58
-4.7814322e+58
-4.7780774e+58
-4.7479305e+58
-4.7487349e+58
-4.7832302e+58
-4.7834558e+58
-4.6935308e+58
-4.6537109e+58
-4.6520639e+58
-4.6923006e+58
-4.6901413e+58
-4.6495533e+58
-4.6477702e+58
-4.6875061e+58
-4.5977591e+58
-4.6121413e+58
-4.5974599e+58
-4.6119619e+58
-4.5575972e+58
-4.5572576e+58
-4.5701856e+58
-4.5696601e+58
-4.5589123e+58
-4.5714182e+58
-4.5583069e+58
-4.5709363e+58
-4.5966546e+58
-4.6111636e+58
-4.5961925e+58
-4.6104378e+58
-4.5174421e+58
-4.5292672e+58
-4.5171673e+58
-4.5288484e+58
-4.5187063e+58
-4.5305973e+58
-4.5181602e+58
-4.5300398e+58
-4.495339e+58
-4.4945569e+58
-4.4848282e+58
-4.4838957e+58
-4.49376e+58
-4.4934745e+58
-4.4829849e+58
-4.4831638e+58
-4.5954662e+58
-4.5950087e+58
-4.6096672e+58
-4.6094046e+58
-4.5552047e+58
-4.5677572e+58
-4.5672925e+58
-4.5565872e+58
-4.5690472e+58
-4.5558131e+58
-4.5684228e+58
-4.5943139e+58
-4.593772e+58
-4.6088551e+58
-4.6083922e+58
-4.5152468e+58
-4.5268958e+58
-4.5166893e+58
-4.5283061e+58
-4.5160077e+58
-4.5275554e+58
-4.8103088e+58
-4.8093156e+58
-4.8205118e+58
-4.8188599e+58
-4.756444e+58
-4.7563655e+58
-4.7790145e+58
-4.7797081e+58
-4.7560191e+58
-4.7553403e+58
-4.7794507e+58
-4.7781379e+58
-4.8106878e+58
-4.8097664e+58
-4.8194901e+58
-4.8209682e+58
-4.6432435e+58
-4.660921e+58
-4.6426987e+58
-4.6601392e+58
-4.694069e+58
-4.6939758e+58
-4.7176312e+58
-4.7180671e+58
-4.6443273e+58
-4.6617432e+58
-4.6439779e+58
-4.6616577e+58
-4.6933841e+58
-4.6928119e+58
-4.7173921e+58
-4.7164825e+58
-4.7546062e+58
-4.7543072e+58
-4.7774384e+58
-4.7776247e+58
-4.8084857e+58
-4.8087202e+58
-4.8182602e+58
-4.8189731e+58
-4.8078536e+58
-4.8066001e+58
-4.818145e+58
-4.8161063e+58
-4.7537862e+58
-4.7531856e+58
-4.7770723e+58
-4.7758669e+58
-4.6914226e+58
-4.6908738e+58
-4.7151316e+58
-4.7143776e+58
-4.641972e+58
-4.6595233e+58
-4.6416197e+58
-4.6593849e+58
-4.6920896e+58
-4.6920209e+58
-4.7157963e+58
-4.715792e+58
-4.6411161e+58
-4.6588488e+58
-4.6407331e+58
-4.6582738e+58
-4.8567458e+58
-4.8546503e+58
-4.8562493e+58
-4.8567216e+58
-4.8547985e+58
-4.8528843e+58
-4.8539718e+58
-4.854897e+58
-4.8624304e+58
-4.8602735e+58
-4.8455133e+58
-4.8429589e+58
-4.8621062e+58
-4.8627957e+58
-4.8596992e+58
-4.8573418e+58
-4.8593804e+58
-4.8597825e+58
-4.846379e+58
-4.8474359e+58
-4.8042247e+58
-4.6050258e+58
-4.6819571e+58
-4.6873597e+58
-4.6068166e+58
-4.8508039e+58
-4.8483383e+58
-4.8510012e+58
-4.8496597e+58
-4.6054303e+58
-4.605657e+58
-4.6918423e+58
-4.6874475e+58
-4.8602476e+58
-4.8615442e+58
-4.8603997e+58
-4.8614938e+58
-4.8606091e+58
-4.8596931e+58
-4.8601866e+58
-4.858351e+58
-4.861408e+58
-4.8624745e+58
-4.8629357e+58
-4.8618278e+58
-4.8615185e+58
-4.8623514e+58
-4.8622904e+58
-4.8605103e+58
-4.7773327e+58
-4.7711252e+58
-4.8739722e+58
-4.8827315e+58
-4.7765267e+58
-4.8791114e+58
-4.8685635e+58
-4.7856249e+58
-4.7017182e+58
-4.6950351e+58
-4.6346394e+58
-4.6320443e+58
-4.687982e+58
-4.6869879e+58
-4.7887253e+58
-4.758267e+58
-4.7563497e+58
-4.7894464e+58
-4.7899315e+58
-4.7606352e+58
-4.7604453e+58
-4.7913415e+58
-4.7910273e+58
-4.7791234e+58
-4.7930489e+58
-4.8156638e+58
-4.8154936e+58
-4.794062e+58
-4.7951739e+58
-4.7950486e+58
-4.8164419e+58
-4.8173695e+58
-4.8030575e+58
-4.8079265e+58
-4.8159984e+58
-4.8022471e+58
-4.8174618e+58
-4.8051118e+58
-4.8033046e+58
-4.8177302e+58
-4.8183895e+58
-4.7935668e+58
-4.7949191e+58
-4.816056e+58
-4.8160607e+58
-4.7952669e+58
-4.7951057e+58
-4.8176337e+58
-4.8167784e+58
-4.8026784e+58
-4.8162135e+58
-4.8036644e+58
-4.8171531e+58
-4.803139e+58
-4.8049093e+58
-4.8170224e+58
-4.8154981e+58
-4.722554e+58
-4.7218069e+58
-4.7894298e+58
-4.8187527e+58
-4.8190856e+58
-4.7877896e+58
-4.8190323e+58
-4.8183596e+58
-4.7201013e+58
-4.7866986e+58
-4.8176637e+58
-4.8187282e+58
-4.7856803e+58
-4.818091e+58
-4.8175364e+58
-4.7187774e+58
-4.8397875e+58
-4.8399924e+58
-4.8394891e+58
-4.839669e+58
-4.8229629e+58
-4.8230971e+58
-4.8254095e+58
-4.8249818e+58
-4.8285258e+58
-4.8293629e+58
-4.8310215e+58
-4.8324425e+58
-4.8297129e+58
-4.8319361e+58
-4.8301307e+58
-4.8319925e+58
-4.8225673e+58
-4.8220328e+58
-4.8243776e+58
-4.8244234e+58
-4.8219132e+58
-4.8224145e+58
-4.824528e+58
-4.8245869e+58
-4.8226221e+58
-4.8228736e+58
-4.8246831e+58
-4.8255182e+58
-4.8281397e+58
-4.8290236e+58
-4.8308079e+58
-4.8323739e+58
-4.8291209e+58
-4.8300439e+58
-4.8320807e+58
-4.8326793e+58
-4.8387366e+58
-4.838831e+58
-4.838998e+58
-4.839099e+58
-4.8247729e+58
-4.8228876e+58
-4.8233093e+58
-4.8246595e+58
-4.8254687e+58
-4.823721e+58
-4.8238642e+58
-4.8258009e+58
-4.8295208e+58
-4.8303865e+58
-4.8313441e+58
-4.8292522e+58
-4.8309417e+58
-4.8308226e+58
-4.8310606e+58
-4.8308361e+58
-4.8219047e+58
-4.8240008e+58
-4.823891e+58
-4.822344e+58
-4.8231423e+58
-4.8233249e+58
-4.8247746e+58
-4.8253678e+58
-4.8282782e+58
-4.8291585e+58
-4.8293823e+58
-4.8306919e+58
-4.8297738e+58
-4.8304974e+58
-4.8302776e+58
-4.8307608e+58
-4.8183323e+58
-4.8174397e+58
-4.7607997e+58
-4.8338829e+58
-4.8344884e+58
-4.81702e+58
-4.7592014e+58
-4.8333866e+58
-4.8507657e+58
-4.848848e+58
-4.8692532e+58
-4.8692399e+58
-4.8514457e+58
-4.8511815e+58
-4.848191e+58
-4.8503834e+58
-4.8691389e+58
-4.8684292e+58
-4.8511224e+58
-4.8510503e+58
-4.8494185e+58
-4.8478387e+58
-4.867986e+58
-4.8679124e+58
-4.8502747e+58
-4.8501625e+58
-4.8407863e+58
-4.8435713e+58
-4.8398901e+58
-4.8432344e+58
-4.8401055e+58
-4.8398323e+58
-4.843201e+58
-4.8430501e+58
-4.8399728e+58
-4.8401951e+58
-4.8431506e+58
-4.8433472e+58
-4.8435096e+58
-4.8406613e+58
-4.8397674e+58
-4.8431294e+58
-4.8193243e+58
-4.8260273e+58
-4.8268539e+58
-4.8192915e+58
-4.8202545e+58
-4.8272564e+58
-4.8269688e+58
-4.819254e+58
-4.8368299e+58
-4.836941e+58
-4.8301677e+58
-4.8297072e+58
-4.8375125e+58
-4.8374521e+58
-4.8308879e+58
-4.8304825e+58
-4.8374631e+58
-4.8371719e+58
-4.8305877e+58
-4.8310427e+58
-4.8187551e+58
-4.826673e+58
-4.8275327e+58
-4.8186311e+58
-4.8307886e+58
-4.837244e+58
-4.8372896e+58
-4.8308227e+58
-4.8275258e+58
-4.8261376e+58
-4.8176596e+58
-4.8194421e+58
-4.8396065e+58
-4.8394355e+58
-4.8427988e+58
-4.84255e+58
-4.8390693e+58
-4.8401308e+58
-4.8430219e+58
-4.8425036e+58
-4.8365773e+58
-4.8368449e+58
-4.8298964e+58
-4.8302258e+58
-4.8170937e+58
-4.8253064e+58
-4.8261859e+58
-4.8172082e+58
-4.8370787e+58
-4.8372892e+58
-4.8305049e+58
-4.830575e+58
-4.8258906e+58
-4.8263039e+58
-4.8183711e+58
-4.8175671e+58
-4.836521e+58
-4.8368909e+58
-4.8299533e+58
-4.8302448e+58
-4.8176123e+58
-4.8255649e+58
-4.8264759e+58
-4.8179713e+58
-4.833582e+58
-4.832902e+58
-4.8407388e+58
-4.838378e+58
-4.8542307e+58
-4.8469791e+58
-4.8487884e+58
-4.8565422e+58
-4.8485598e+58
-4.8479857e+58
-4.8541513e+58
-4.8574059e+58
-4.8472802e+58
-4.8474523e+58
-4.8568995e+58
-4.8547442e+58
-4.8445438e+58
-4.8464443e+58
-4.8523364e+58
-4.8556476e+58
-4.8455659e+58
-4.847591e+58
-4.8510928e+58
-4.8532187e+58
-4.8459515e+58
-4.8445546e+58
-4.8527432e+58
-4.8486291e+58
-4.8461905e+58
-4.8473955e+58
-4.8518897e+58
-4.8537675e+58
-4.847314e+58
-4.8545304e+58
-4.8475865e+58
-4.8522927e+58
-4.8550354e+58
-4.8549174e+58
-4.8593667e+58
-4.8611473e+58
-4.854223e+58
-4.8557289e+58
-4.8613117e+58
-4.8594414e+58
-4.8554962e+58
-4.8551339e+58
-4.8592153e+58
-4.8609759e+58
-4.8533767e+58
-4.855635e+58
-4.8609215e+58
-4.8582716e+58
-4.8532052e+58
-4.8535876e+58
-4.8575314e+58
-4.8591778e+58
-4.8527429e+58
-4.8543484e+58
-4.8595939e+58
-4.8578391e+58
-4.8527976e+58
-4.8526816e+58
-4.8574626e+58
-4.8591764e+58
-4.8516373e+58
-4.8537148e+58
-4.8591195e+58
-4.8562468e+58
-4.8506562e+58
-4.8515522e+58
-4.8550851e+58
-4.8565792e+58
-4.8501556e+58
-4.8517056e+58
-4.8569849e+58
-4.8550473e+58
-4.8500258e+58
-4.8504162e+58
-4.8550009e+58
-4.8565762e+58
-4.8489585e+58
-4.8507147e+58
-4.8565995e+58
-4.85399e+58
-4.8474718e+58
-4.8487377e+58
-4.8529087e+58
-4.8543484e+58
-4.847847e+58
-4.8482582e+58
-4.8551322e+58
-4.8536558e+58
-4.8476908e+58
-4.8531909e+58
-4.8487059e+58
-4.8548174e+58
-4.8488258e+58
-4.8473848e+58
-4.8548199e+58
-4.8519692e+58
-4.8635274e+58
-4.8629451e+58
-4.863424e+58
-4.8620858e+58
-4.8631565e+58
-4.8634914e+58
-4.8634533e+58
-4.8638271e+58
-4.8615091e+58
-4.8621048e+58
-4.8621382e+58
-4.8618478e+58
-4.8618309e+58
-4.8612105e+58
-4.8604744e+58
-4.8614866e+58
-4.5136271e+58
-4.5761194e+58
-4.4310503e+58
-4.4333235e+58
-4.5142181e+58
-4.5120962e+58
-4.6440797e+58
-4.7143816e+58
-4.7576352e+58
-4.756723e+58
-4.7915363e+58
-4.7932697e+58
-4.7539649e+58
-4.7556934e+58
-4.7885131e+58
-4.7914801e+58
-4.7003328e+58
-4.660151e+58
-4.6988648e+58
-4.6590023e+58
-4.7013985e+58
-4.661033e+58
-4.6618683e+58
-4.7014773e+58
-4.5060277e+58
-4.53577e+58
-4.5070096e+58
-4.5358458e+58
-4.5763924e+58
-4.5768859e+58
-4.607994e+58
-4.6076042e+58
-4.5349363e+58
-4.5358879e+58
-4.5075591e+58
-4.5058409e+58
-4.5771071e+58
-4.5766811e+58
-4.6086991e+58
-4.6088851e+58
-4.5055831e+58
-4.5056778e+58
-4.5344783e+58
-4.534451e+58
-4.5747197e+58
-4.5754274e+58
-4.605503e+58
-4.6063549e+58
-4.505734e+58
-4.5330086e+58
-4.5343898e+58
-4.5038836e+58
-4.6077722e+58
-4.5758887e+58
-4.6075288e+58
-4.5757416e+58
-4.2600474e+58
-4.2542395e+58
-4.3323244e+58
-4.3334261e+58
-4.4292943e+58
-4.508246e+58
-4.5091708e+58
-4.4267583e+58
-4.7029861e+58
-4.6617546e+58
-4.6618718e+58
-4.7024003e+58
-4.7569001e+58
-4.7584329e+58
-4.7954637e+58
-4.7925238e+58
-4.7580477e+58
-4.7593647e+58
-4.7944896e+58
-4.7963726e+58
-4.660867e+58
-4.6611458e+58
-4.702696e+58
-4.7012976e+58
-4.504134e+58
-4.5044283e+58
-4.4943794e+58
-4.4939707e+58
-4.5045983e+58
-4.504241e+58
-4.4941518e+58
-4.4943701e+58
-4.5285207e+58
-4.5407743e+58
-4.5284984e+58
-4.5406133e+58
-4.5282081e+58
-4.5403076e+58
-4.5286413e+58
-4.5406986e+58
-4.5045743e+58
-4.5038903e+58
-4.4933236e+58
-4.4943801e+58
-4.5030301e+58
-4.5024262e+58
-4.4922451e+58
-4.4926766e+58
-4.5287606e+58
-4.5410523e+58
-4.5286287e+58
-4.5407567e+58
-4.5278451e+58
-4.5401537e+58
-4.527142e+58
-4.5393583e+58
-4.6084603e+58
-4.6233245e+58
-4.6081264e+58
-4.6230695e+58
-4.5692013e+58
-4.5687437e+58
-4.5814447e+58
-4.5818097e+58
-4.5681164e+58
-4.5675438e+58
-4.5808633e+58
-4.5800971e+58
-4.6074106e+58
-4.6066247e+58
-4.6224604e+58
-4.6215938e+58
-4.5689775e+58
-4.5818016e+58
-4.5818275e+58
-4.569222e+58
-4.5692648e+58
-4.5821479e+58
-4.5690579e+58
-4.5820285e+58
-4.6088722e+58
-4.6240749e+58
-4.6241621e+58
-4.6089979e+58
-4.6086695e+58
-4.6236556e+58
-4.6086729e+58
-4.6235145e+58
-4.6564627e+58
-4.6740616e+58
-4.6563974e+58
-4.6742241e+58
-4.6560199e+58
-4.6737698e+58
-4.6558371e+58
-4.6732463e+58
-4.7060943e+58
-4.730252e+58
-4.7056855e+58
-4.7294339e+58
-4.7062246e+58
-4.7301964e+58
-4.7065132e+58
-4.7307588e+58
-4.821423e+58
-4.8305303e+58
-4.8223204e+58
-4.8319959e+58
-4.7686862e+58
-4.7915349e+58
-4.7680095e+58
-4.7898624e+58
-4.7687209e+58
-4.7911695e+58
-4.7689444e+58
-4.7919244e+58
-4.82158e+58
-4.8313037e+58
-4.8201498e+58
-4.8287143e+58
-4.8193873e+58
-4.8277093e+58
-4.8196439e+58
-4.8285046e+58
-4.7663426e+58
-4.7652199e+58
-4.7888305e+58
-4.7870599e+58
-4.7676264e+58
-4.7893794e+58
-4.7672784e+58
-4.7896937e+58
-4.8186474e+58
-4.8281308e+58
-4.8170142e+58
-4.8254058e+58
-4.7053096e+58
-4.7290555e+58
-4.7051893e+58
-4.7290531e+58
-4.6545179e+58
-4.6721522e+58
-4.653834e+58
-4.6711879e+58
-4.6555588e+58
-4.673009e+58
-4.6551646e+58
-4.6728485e+58
-4.7043072e+58
-4.7033679e+58
-4.7281698e+58
-4.7268216e+58
-4.5604506e+58
-4.5599393e+58
-4.5729218e+58
-4.5723148e+58
-4.5620949e+58
-4.5745294e+58
-4.5613428e+58
-4.5738296e+58
-4.6011668e+58
-4.6155463e+58
-4.6005261e+58
-4.6148399e+58
-4.5995113e+58
-4.6138178e+58
-4.5988043e+58
-4.6130329e+58
-4.5205054e+58
-4.5319987e+58
-4.5198556e+58
-4.5314615e+58
-4.5221652e+58
-4.5336651e+58
-4.5214906e+58
-4.5329118e+58
-4.4987188e+58
-4.497769e+58
-4.4883421e+58
-4.4873978e+58
-4.4967185e+58
-4.4961595e+58
-4.4856565e+58
-4.4864076e+58
-4.5257289e+58
-4.5378296e+58
-4.524799e+58
-4.5368159e+58
-4.4999352e+58
-4.499487e+58
-4.48916e+58
-4.4896285e+58
-4.5015378e+58
-4.5006695e+58
-4.490503e+58
-4.4915895e+58
-4.5236635e+58
-4.5357187e+58
-4.5230508e+58
-4.5346867e+58
-4.6054994e+58
-4.6205294e+58
-4.6047453e+58
-4.6197299e+58
-4.5640746e+58
-4.5768304e+58
-4.5631955e+58
-4.5756958e+58
-4.5662109e+58
-4.5789463e+58
-4.5651984e+58
-4.5780023e+58
-4.6035705e+58
-4.618418e+58
-4.6025452e+58
-4.6170841e+58
-4.7586602e+58
-4.7574372e+58
-4.7818796e+58
-4.780071e+58
-4.7603912e+58
-4.7599215e+58
-4.7825655e+58
-4.7829028e+58
-4.8131694e+58
-4.8218864e+58
-4.8136379e+58
-4.8230378e+58
-4.8125642e+58
-4.8225002e+58
-4.8109349e+58
-4.8201176e+58
-4.7630161e+58
-4.7617787e+58
-4.7856598e+58
-4.7838713e+58
-4.764292e+58
-4.7860798e+58
-4.7638951e+58
-4.786395e+58
-4.8158854e+58
-4.8245621e+58
-4.8164329e+58
-4.8255053e+58
-4.8156413e+58
-4.8142826e+58
-4.8250215e+58
-4.8227179e+58
-4.7022546e+58
-4.7258858e+58
-4.701885e+58
-4.7258152e+58
-4.6527448e+58
-4.6518738e+58
-4.6701538e+58
-4.669557e+58
-4.650618e+58
-4.6495056e+58
-4.6682782e+58
-4.6669054e+58
-4.7006519e+58
-4.6995038e+58
-4.7246775e+58
-4.7231378e+58
-4.6981427e+58
-4.6976835e+58
-4.721674e+58
-4.7214269e+58
-4.6479794e+58
-4.6472063e+58
-4.665504e+58
-4.6648974e+58
-4.6454231e+58
-4.6461389e+58
-4.6637777e+58
-4.6627294e+58
-4.6963407e+58
-4.6952407e+58
-4.7201364e+58
-4.7186343e+58
-4.598788e+58
-4.5924386e+58
-4.599098e+58
-4.592139e+58
-4.6133658e+58
-4.62038e+58
-4.6202371e+58
-4.6131737e+58
-4.5915585e+58
-4.5982036e+58
-4.5918623e+58
-4.598562e+58
-4.6129384e+58
-4.6198828e+58
-4.61257e+58
-4.6194361e+58
-4.5526232e+58
-4.557497e+58
-4.5572406e+58
-4.5523866e+58
-4.5518621e+58
-4.5521493e+58
-4.5570466e+58
-4.5567917e+58
-4.5760234e+58
-4.5713214e+58
-4.5763006e+58
-4.5710975e+58
-4.5704797e+58
-4.5754889e+58
-4.5708194e+58
-4.5757999e+58
-4.5584778e+58
-4.5539079e+58
-4.5588308e+58
-4.553595e+58
-4.5724592e+58
-4.577556e+58
-4.5773296e+58
-4.5722168e+58
-4.5577763e+58
-4.5532939e+58
-4.5581793e+58
-4.5529815e+58
-4.5719201e+58
-4.5769313e+58
-4.5716233e+58
-4.5766475e+58
-4.59129e+58
-4.5979501e+58
-4.5976586e+58
-4.5909478e+58
-4.6191771e+58
-4.612013e+58
-4.612289e+58
-4.6189641e+58
-4.5907877e+58
-4.5904483e+58
-4.5974578e+58
-4.5970787e+58
-4.6186778e+58
-4.6113564e+58
-4.6182538e+58
-4.6117573e+58
-4.5184568e+58
-4.5182394e+58
-4.5204777e+58
-4.5202977e+58
-4.5339574e+58
-4.5373691e+58
-4.5371679e+58
-4.5341499e+58
-4.5177121e+58
-4.517469e+58
-4.5198015e+58
-4.5200028e+58
-4.5335765e+58
-4.5333068e+58
-4.5368711e+58
-4.536642e+58
-4.5215895e+58
-4.519775e+58
-4.5218291e+58
-4.5196208e+58
-4.5353723e+58
-4.5387274e+58
-4.5385039e+58
-4.5352287e+58
-4.5208548e+58
-4.519049e+58
-4.5211622e+58
-4.5188967e+58
-4.5348072e+58
-4.5380895e+58
-4.5345189e+58
-4.5378181e+58
-4.5083576e+58
-4.5088204e+58
-4.5059906e+58
-4.5060882e+58
-4.5052757e+58
-4.5050349e+58
-4.50807e+58
-4.507795e+58
-4.4841057e+58
-4.4831846e+58
-4.5071741e+58
-4.5073002e+58
-4.5045567e+58
-4.5045525e+58
-4.5038535e+58
-4.5035574e+58
-4.5064852e+58
-4.5058493e+58
-4.4817263e+58
-4.4824952e+58
-4.5902181e+58
-4.596892e+58
-4.5965192e+58
-4.5898584e+58
-4.5893655e+58
-4.5896023e+58
-4.5963383e+58
-4.5960745e+58
-4.6179395e+58
-4.6110912e+58
-4.6181243e+58
-4.6108588e+58
-4.6103585e+58
-4.6173035e+58
-4.610654e+58
-4.6176469e+58
-4.5502598e+58
-4.5552266e+58
-4.5549916e+58
-4.5500958e+58
-4.5737661e+58
-4.5689372e+58
-4.5740091e+58
-4.5687532e+58
-4.5681313e+58
-4.5732155e+58
-4.5683821e+58
-4.5734041e+58
-4.5562103e+58
-4.5516224e+58
-4.5566729e+58
-4.5512064e+58
-4.5701797e+58
-4.5753699e+58
-4.5750576e+58
-4.569848e+58
-4.5556632e+58
-4.5509471e+58
-4.5559658e+58
-4.5507235e+58
-4.569586e+58
-4.574706e+58
-4.5693553e+58
-4.5745044e+58
-4.5889677e+58
-4.5956874e+58
-4.5954856e+58
-4.5887064e+58
-4.5884663e+58
-4.5952241e+58
-4.5882496e+58
-4.5949771e+58
-4.616829e+58
-4.6099913e+58
-4.6169522e+58
-4.6098207e+58
-4.6092527e+58
-4.6095465e+58
-4.6165667e+58
-4.6162569e+58
-4.5159233e+58
-4.5158291e+58
-4.5182137e+58
-4.5180741e+58
-4.5315835e+58
-4.5350948e+58
-4.5349265e+58
-4.531721e+58
-4.5192523e+58
-4.5171052e+58
-4.5196528e+58
-4.516773e+58
-4.5329665e+58
-4.5365586e+58
-4.5362053e+58
-4.5326724e+58
-4.5187599e+58
-4.5163479e+58
-4.5189075e+58
-4.5163945e+58
-4.53229e+58
-4.5358436e+58
-4.5321091e+58
-4.5356765e+58
-4.8341407e+58
-4.8240414e+58
-4.8337134e+58
-4.8240693e+58
-4.8238886e+58
-4.833905e+58
-4.8328077e+58
-4.8231522e+58
-4.8454714e+58
-4.8453334e+58
-4.8459259e+58
-4.8461774e+58
-4.8459638e+58
-4.8442144e+58
-4.845479e+58
-4.8444342e+58
-4.7720628e+58
-4.7573167e+58
-4.772609e+58
-4.7570394e+58
-4.7574751e+58
-4.7576066e+58
-4.7726076e+58
-4.7728139e+58
-4.7914231e+58
-4.7911363e+58
-4.8049298e+58
-4.8055053e+58
-4.8054187e+58
-4.8047328e+58
-4.7912544e+58
-4.7907915e+58
-4.7720808e+58
-4.7568575e+58
-4.7719833e+58
-4.7567552e+58
-4.7565496e+58
-4.7718289e+58
-4.7710908e+58
-4.7560585e+58
-4.7908013e+58
-4.80475e+58
-4.7909185e+58
-4.8050083e+58
-4.8046996e+58
-4.8036899e+58
-4.7906016e+58
-4.7898187e+58
-4.8338083e+58
-4.8245741e+58
-4.8348717e+58
-4.8240007e+58
-4.8244734e+58
-4.8242119e+58
-4.8340906e+58
-4.8347931e+58
-4.8456376e+58
-4.846432e+58
-4.8458235e+58
-4.846617e+58
-4.8465985e+58
-4.8454792e+58
-4.8463145e+58
-4.8456307e+58
-4.6438075e+58
-4.6358953e+58
-4.6440545e+58
-4.63561e+58
-4.6594833e+58
-4.668594e+58
-4.6684103e+58
-4.6592681e+58
-4.6431838e+58
-4.6353872e+58
-4.6435843e+58
-4.634994e+58
-4.6589946e+58
-4.6681239e+58
-4.6676954e+58
-4.658617e+58
-4.6879704e+58
-4.7019778e+58
-4.6882909e+58
-4.7023282e+58
-4.6884816e+58
-4.6887306e+58
-4.7026586e+58
-4.7025067e+58
-4.7215437e+58
-4.721527e+58
-4.7358598e+58
-4.7360112e+58
-4.7357453e+58
-4.735414e+58
-4.7214058e+58
-4.7211734e+58
-4.6367575e+58
-4.6370256e+58
-4.6452615e+58
-4.6450428e+58
-4.6603372e+58
-4.6605039e+58
-4.6696745e+58
-4.6695316e+58
-4.644293e+58
-4.6364902e+58
-4.6446988e+58
-4.6361033e+58
-4.66918e+58
-4.6600238e+58
-4.6597124e+58
-4.6688254e+58
-4.7015661e+58
-4.6877757e+58
-4.7017121e+58
-4.6875442e+58
-4.687341e+58
-4.7013503e+58
-4.7008705e+58
-4.6869629e+58
-4.7208948e+58
-4.7351548e+58
-4.7208061e+58
-4.7352467e+58
-4.7348994e+58
-4.7342965e+58
-4.7205349e+58
-4.7200575e+58
-4.7558072e+58
-4.7708645e+58
-4.7709713e+58
-4.755782e+58
-4.7554422e+58
-4.7707405e+58
-4.7699936e+58
-4.7550102e+58
-4.7894968e+58
-4.8034512e+58
-4.8037241e+58
-4.7895456e+58
-4.7894134e+58
-4.8035918e+58
-4.8026458e+58
-4.7886934e+58
-4.8227371e+58
-4.8324661e+58
-4.8328781e+58
-4.822751e+58
-4.8227049e+58
-4.8327702e+58
-4.8315988e+58
-4.8219005e+58
-4.8441082e+58
-4.8440456e+58
-4.8450307e+58
-4.8446041e+58
-4.8442746e+58
-4.8448015e+58
-4.8436448e+58
-4.8434576e+58
-4.8215693e+58
-4.8312158e+58
-4.8319545e+58
-4.821779e+58
-4.8204618e+58
-4.8213301e+58
-4.8315832e+58
-4.8302709e+58
-4.8430943e+58
-4.8433255e+58
-4.8442516e+58
-4.8436347e+58
-4.8420816e+58
-4.8432667e+58
-4.844047e+58
-4.8422596e+58
-4.7545931e+58
-4.7696315e+58
-4.7698736e+58
-4.7546161e+58
-4.7538787e+58
-4.7544002e+58
-4.7696853e+58
-4.7689177e+58
-4.7884525e+58
-4.8023408e+58
-4.8026692e+58
-4.7885737e+58
-4.7875068e+58
-4.7883039e+58
-4.8022629e+58
-4.8012068e+58
-4.6857789e+58
-4.6996436e+58
-4.6995425e+58
-4.6855657e+58
-4.6849751e+58
-4.6853374e+58
-4.6993466e+58
-4.6989448e+58
-4.7188355e+58
-4.7329632e+58
-4.7331593e+58
-4.7188651e+58
-4.718069e+58
-4.7185524e+58
-4.7328363e+58
-4.7322287e+58
-4.6348121e+58
-4.6345361e+58
-4.6430691e+58
-4.6428353e+58
-4.658406e+58
-4.6582322e+58
-4.6676035e+58
-4.6674541e+58
-4.6343122e+58
-4.6425527e+58
-4.6422667e+58
-4.6340172e+58
-4.6671365e+58
-4.66686e+58
-4.6579488e+58
-4.6577182e+58
-4.6868361e+58
-4.7007749e+58
-4.7006056e+58
-4.6865886e+58
-4.6863546e+58
-4.7003494e+58
-4.6999894e+58
-4.6861019e+58
-4.7198667e+58
-4.7341434e+58
-4.7342535e+58
-4.7198189e+58
-4.71953e+58
-4.7338419e+58
-4.7333885e+58
-4.7192105e+58
-4.6337051e+58
-4.6419408e+58
-4.6335333e+58
-4.6418385e+58
-4.6572664e+58
-4.6573978e+58
-4.6665444e+58
-4.6664442e+58
-4.6330031e+58
-4.6412774e+58
-4.6333328e+58
-4.6416161e+58
-4.6661642e+58
-4.657005e+58
-4.6566666e+58
-4.6657985e+58
-4.8662036e+58
-4.8669109e+58
-4.8663103e+58
-4.8643174e+58
-4.866516e+58
-4.8674378e+58
-4.8676083e+58
-4.8660889e+58
-4.8635092e+58
-4.8642947e+58
-4.8638885e+58
-4.8616898e+58
-4.8638504e+58
-4.8648048e+58
-4.8649791e+58
-4.8637959e+58
-4.8722845e+58
-4.8714209e+58
-4.8717171e+58
-4.8697635e+58
-4.8653866e+58
-4.8656282e+58
-4.8651531e+58
-4.8625788e+58
-4.8712761e+58
-4.8725149e+58
-4.872687e+58
-4.8714169e+58
-4.8687684e+58
-4.8697632e+58
-4.8669607e+58
-4.8690639e+58
-4.8694673e+58
-4.8703443e+58
-4.8703493e+58
-4.8690821e+58
-4.8675781e+58
-4.8667435e+58
-4.8674069e+58
-4.8658955e+58
-4.8510774e+58
-4.8525435e+58
-4.6061259e+58
-4.6856996e+58
-4.6912541e+58
-4.6098695e+58
-4.869348e+58
-4.8699785e+58
-4.8697873e+58
-4.8676868e+58
-4.8707259e+58
-4.8693092e+58
-4.8686085e+58
-4.8703936e+58
-4.6056424e+58
-4.6058799e+58
-4.6920563e+58
-4.687769e+58
-4.7778057e+58
-4.7715123e+58
-4.8745725e+58
-4.8833851e+58
-4.6352274e+58
-4.6324481e+58
-4.5291648e+58
-4.6918904e+58
-4.6908503e+58
-4.5302461e+58
-4.6867719e+58
-4.6891384e+58
-4.7902446e+58
-4.7230779e+58
-4.7239374e+58
-4.7898339e+58
-4.8221554e+58
-4.821337e+58
-4.7919716e+58
-4.8219264e+58
-4.8208198e+58
-4.7254198e+58
-4.7225882e+58
-4.789736e+58
-4.8218295e+58
-4.8211628e+58
-4.7914162e+58
-4.820551e+58
-4.8223663e+58
-4.7950007e+58
-4.7955295e+58
-4.8177201e+58
-4.8164711e+58
-4.8425863e+58
-4.8428491e+58
-4.8430044e+58
-4.8431929e+58
-4.8251432e+58
-4.8249662e+58
-4.8278087e+58
-4.828746e+58
-4.8025115e+58
-4.8046545e+58
-4.8159308e+58
-4.8178074e+58
-4.8293105e+58
-4.8321088e+58
-4.83049e+58
-4.8342401e+58
-4.8244029e+58
-4.823705e+58
-4.8271671e+58
-4.8271378e+58
-4.8315472e+58
-4.8325876e+58
-4.8354797e+58