/*--------------------------------*- C++ -*----------------------------------*\
  =========                 |
  \\      /  F ield         | OpenFOAM: The Open Source CFD Toolbox
   \\    /   O peration     | Website:  https://openfoam.org
    \\  /    A nd           | Version:  7
     \\/     M anipulation  |
\*---------------------------------------------------------------------------*/
FoamFile
{
    version     2.0;
    format      ascii;
    class       volVectorField;
    location    "5000";
    object      U;
}
// * * * * * * * * * * * * * * * * * * * * * * * * * * * * * * * * * * * * * //

dimensions      [0 1 -1 0 0 0 0];

internalField   nonuniform List<vector> 
33943
(
(-1.7543121e+30 1.4550949e+29 4.3111982e+28)
(-1.4535615e+30 6.8922382e+28 1.7811151e+29)
(-1.1179698e+30 5.8663069e+28 3.4985179e+29)
(-1.4577505e+30 4.8401242e+28 1.0141532e+29)
(-1.7286024e+30 2.1267953e+29 -9.0879681e+28)
(-1.6135285e+30 7.7873338e+28 4.8232062e+28)
(-1.1595161e+30 3.5546153e+28 9.0191878e+28)
(-1.5429166e+30 1.2041552e+29 -7.4339947e+28)
(-1.4231525e+30 9.7344161e+27 1.5422943e+29)
(-1.4644723e+30 1.6138736e+29 1.3050066e+29)
(-1.1867106e+30 6.8592672e+28 3.1729823e+29)
(-1.2484845e+30 8.5695421e+28 3.3264846e+29)
(-1.2152549e+30 3.4469488e+28 1.6993593e+29)
(-1.1747391e+30 4.0444401e+28 2.9431015e+29)
(-1.2062374e+30 1.5074452e+28 2.9204188e+29)
(-1.2388124e+30 1.0949501e+29 1.5762377e+29)
(-1.3876433e+30 3.3726636e+28 -1.338891e+29)
(-1.4046447e+30 1.163823e+29 2.0806586e+29)
(-1.4067232e+30 8.9033867e+28 4.1895513e+28)
(-1.4392623e+30 3.4800311e+28 6.6586674e+28)
(-1.8890198e+30 1.5712087e+29 1.3928003e+29)
(-1.3093569e+30 1.5599872e+28 1.4452513e+29)
(-1.3082816e+30 2.8739738e+28 1.5679416e+29)
(-1.5955154e+30 1.6591087e+29 -1.4461322e+29)
(-1.2393366e+30 6.2633415e+28 7.5994023e+28)
(-1.0615671e+30 2.303093e+29 -3.4045822e+29)
(-1.0989652e+30 1.7706274e+29 -3.421296e+29)
(-1.1694642e+30 1.5595807e+29 2.9654014e+28)
(-1.5108669e+30 3.8258327e+28 2.7335292e+28)
(-1.4588609e+30 -3.8785959e+28 -1.6752411e+29)
(-1.5085838e+30 1.1300189e+29 -1.8298631e+29)
(-1.1292558e+30 -2.9300164e+28 9.1741755e+28)
(-1.1257594e+30 1.7589815e+29 7.0955495e+28)
(-1.0897549e+30 -4.350422e+28 -1.0270336e+29)
(-1.0935672e+30 -5.2392424e+28 -2.3805761e+29)
(-1.0910783e+30 5.5359644e+27 -1.8433302e+29)
(-1.1207421e+30 8.9126181e+28 -1.8890421e+29)
(-8.4555503e+29 7.4986279e+27 8.207042e+28)
(-8.4946423e+29 1.5222682e+29 6.7433883e+28)
(-1.3830959e+30 -1.0978397e+28 1.0552127e+29)
(-1.3840128e+30 1.2689536e+29 9.809471e+28)
(-1.1986971e+30 6.4188344e+28 2.5985526e+29)
(-1.2433994e+30 9.6893227e+28 2.6419043e+29)
(-1.1760278e+30 -4.10906e+27 1.3898005e+29)
(-1.1909268e+30 6.6355996e+28 1.3231125e+29)
(-1.1842438e+30 1.6959022e+28 2.6910272e+29)
(-1.148774e+30 4.5488423e+28 2.5731257e+29)
(-1.1706848e+30 9.7461035e+27 1.3217565e+29)
(-1.2067073e+30 9.4837672e+28 1.3026659e+29)
(-1.1729542e+30 2.7774868e+28 2.5823868e+29)
(-1.2048225e+30 3.0422188e+28 2.5890538e+29)
(-1.0023398e+30 5.3371469e+28 1.4698746e+29)
(-1.1354073e+30 9.0791141e+27 2.332134e+29)
(-9.7864232e+29 9.4267952e+27 1.5114356e+29)
(-1.1042783e+30 2.436732e+28 2.2955949e+29)
(-9.7335088e+29 1.4400071e+28 1.4244535e+29)
(-1.0107313e+30 6.4783031e+28 1.5009815e+29)
(-1.1105908e+30 1.2182627e+28 2.236992e+29)
(-1.142342e+30 9.2634343e+27 2.294914e+29)
(-1.8939988e+30 1.2538073e+29 9.4879906e+28)
(-1.40228e+30 2.9733514e+28 -1.4035938e+29)
(-1.4430793e+30 1.1528928e+29 2.0380568e+29)
(-1.3692145e+30 8.0178484e+28 -1.6500465e+29)
(-1.4889678e+30 2.2327725e+28 1.9594092e+29)
(-1.2832322e+30 5.1787297e+28 5.0084003e+28)
(-1.2487032e+30 7.1127037e+27 -1.2095299e+29)
(-1.2937093e+30 -9.4906434e+27 4.5420022e+28)
(-1.2278934e+30 1.8229372e+28 -1.2981801e+29)
(-1.2734307e+30 5.2742659e+28 1.5247449e+29)
(-1.3207048e+30 1.4964194e+28 -4.7426704e+28)
(-1.2942262e+30 -1.8437737e+28 1.5326692e+29)
(-1.3120319e+30 2.8631971e+28 -5.7394658e+28)
(-1.2851575e+30 1.7381259e+28 1.2067365e+29)
(-1.2886939e+30 2.718521e+28 1.2083954e+29)
(-1.2668471e+30 2.6687716e+28 1.25563e+29)
(-1.2710019e+30 1.3938019e+28 1.2109168e+29)
(-1.3902874e+30 8.765169e+28 3.1073787e+28)
(-1.8518812e+30 1.1010717e+29 1.3182408e+29)
(-1.3962221e+30 2.4828878e+28 3.268216e+28)
(-1.201987e+30 2.0728962e+28 1.6657398e+29)
(-1.1704926e+30 1.4343099e+29 1.5796576e+29)
(-1.2300381e+30 8.5543434e+28 -1.9781775e+29)
(-1.133531e+30 1.2849781e+29 -1.9809482e+29)
(-1.1460844e+30 1.2167106e+28 1.353046e+29)
(-1.1600894e+30 8.0265565e+27 1.4064425e+29)
(-1.1435e+30 1.928526e+28 1.4451668e+29)
(-1.152719e+30 6.9731615e+27 1.4199591e+29)
(-1.1697873e+30 1.6132112e+29 6.6718518e+28)
(-1.2009512e+30 1.0798946e+29 5.7522039e+28)
(-9.9506725e+29 2.5461553e+29 -3.4303101e+29)
(-1.0635978e+30 1.6075705e+29 -3.3967289e+29)
(-1.3085665e+30 9.4726929e+28 -4.5441045e+28)
(-1.4390857e+30 2.0636606e+29 -8.6451877e+28)
(-1.7990367e+30 3.1823693e+29 -6.2900643e+28)
(-1.4092661e+30 2.0679402e+29 -7.5152045e+28)
(-1.3787882e+30 -5.6948024e+28 -1.5007318e+29)
(-1.3862402e+30 6.764663e+28 -1.5294149e+29)
(-1.1463242e+30 -3.8346188e+28 7.500597e+28)
(-1.0818445e+30 1.5565571e+29 4.5671673e+28)
(-1.0727819e+30 -4.9561093e+28 -2.4462603e+29)
(-1.0400071e+30 -3.6553913e+28 -2.3219076e+29)
(-1.0613076e+30 -3.8343945e+28 -1.0355501e+29)
(-1.0699537e+30 1.7414617e+28 -9.8065262e+28)
(-1.0624573e+30 -5.2906352e+28 -2.2974502e+29)
(-1.0606951e+30 -5.0022129e+28 -9.4918163e+28)
(-1.0855429e+30 2.094969e+28 -9.5991494e+28)
(-1.0949936e+30 -5.3588709e+28 -2.3537365e+29)
(-1.0454031e+30 -1.6975047e+28 -1.8756318e+29)
(-1.0592967e+30 4.8927432e+28 -1.8808764e+29)
(-8.2144855e+29 1.1222637e+29 6.5373474e+28)
(-8.2692998e+29 -2.2100349e+28 7.2570977e+28)
(-1.0604844e+30 -1.1742339e+28 -1.8200249e+29)
(-1.0773894e+30 6.4698434e+28 -1.8622691e+29)
(-8.1085451e+29 1.2555037e+29 4.6765346e+28)
(-8.3383212e+29 -1.2650165e+28 7.8780644e+28)
(-1.3001274e+30 1.5875726e+27 -2.2272049e+29)
(-1.2019991e+30 -4.3562044e+28 -1.4823213e+28)
(-9.0955163e+29 -3.2052432e+28 -2.2875845e+29)
(-8.9058438e+29 -2.3145429e+28 -2.214526e+29)
(-7.9324865e+29 -2.5308322e+28 -1.5695619e+29)
(-8.0983485e+29 1.0059594e+28 -1.5560323e+29)
(-8.9870953e+29 -2.9233182e+28 -2.1589907e+29)
(-8.009604e+29 -2.5098286e+28 -1.5247678e+29)
(-6.5910154e+29 -1.786173e+27 -1.4418809e+29)
(-6.7345073e+29 3.7236073e+28 -1.5012673e+29)
(-6.2349114e+29 -2.5182649e+28 1.2077087e+29)
(-6.3362542e+29 7.165217e+28 1.0971378e+29)
(-6.6425591e+29 5.4343726e+27 -1.4037658e+29)
(-6.193245e+29 -1.5207987e+28 1.142721e+29)
(-6.2102618e+29 8.55086e+28 9.0321601e+28)
(-1.2015334e+30 9.8389675e+28 2.2385943e+29)
(-1.1747735e+30 5.5814399e+28 1.1806345e+29)
(-1.152537e+30 -1.5893784e+28 1.1631182e+29)
(-1.1479461e+30 4.1556428e+28 2.3698208e+29)
(-1.1895744e+30 2.5599374e+28 2.5148922e+29)
(-1.1737003e+30 6.938932e+28 1.131355e+29)
(-1.2193414e+30 4.2828591e+28 2.3782943e+29)
(-1.1783901e+30 -7.0040996e+27 1.2017076e+29)
(-1.2157943e+30 4.191908e+28 2.4646094e+29)
(-9.7768836e+29 -1.0884563e+28 1.3842821e+29)
(-9.7213049e+29 3.3029196e+28 1.3009054e+29)
(-1.0861402e+30 2.9350337e+28 2.1238487e+29)
(-1.0927186e+30 1.147971e+28 2.0593397e+29)
(-9.6250089e+29 -5.9452887e+27 1.2781011e+29)
(-9.7851786e+29 4.4668778e+28 1.3322211e+29)
(-1.1127852e+30 1.1513324e+28 2.1134649e+29)
(-1.1055657e+30 9.0796944e+27 2.0716065e+29)
(-9.6042988e+29 1.2269521e+27 1.3910662e+29)
(-9.7475733e+29 4.7505751e+28 1.3246779e+29)
(-1.0956559e+30 1.7300377e+28 2.1121669e+29)
(-1.1075168e+30 7.2381792e+27 2.104654e+29)
(-9.5746835e+29 8.6783378e+27 1.2838783e+29)
(-9.8739226e+29 5.3676882e+28 1.333596e+29)
(-1.1179815e+30 1.4804537e+28 2.1163622e+29)
(-1.1096207e+30 1.5485226e+28 2.1082407e+29)
(-8.4890253e+29 -7.8167163e+26 1.5465604e+29)
(-8.6493018e+29 3.4935115e+28 1.5437842e+29)
(-9.9182898e+29 5.071451e+27 1.9166787e+29)
(-9.9792582e+29 6.0539602e+27 1.9327366e+29)
(-8.5300568e+29 -3.313054e+27 1.6137027e+29)
(-8.6122794e+29 2.9898863e+28 1.5529775e+29)
(-9.7408682e+29 1.3167949e+28 1.9387623e+29)
(-9.8435132e+29 5.9818184e+27 1.937462e+29)
(-8.4735826e+29 -4.1790748e+26 1.5907947e+29)
(-8.5702275e+29 3.5143131e+28 1.5230676e+29)
(-9.7525886e+29 7.3765007e+27 1.8778764e+29)
(-9.8589026e+29 4.9981881e+27 1.8720201e+29)
(-9.9240344e+29 8.0616802e+27 1.9118559e+29)
(-8.5077762e+29 5.0035401e+27 1.5523346e+29)
(-8.5858494e+29 3.7512557e+28 1.5371914e+29)
(-9.9589984e+29 7.6916584e+27 1.9219982e+29)
(-1.8913975e+30 9.8237874e+28 9.728012e+28)
(-1.4843049e+30 1.8338313e+28 1.8111125e+29)
(-1.3968791e+30 2.8352362e+28 -1.4481446e+29)
(-1.3728855e+30 7.9583516e+28 -1.645106e+29)
(-1.1823574e+30 2.4761365e+28 1.7167385e+29)
(-1.1219423e+30 1.03886e+29 -1.6929626e+29)
(-1.1820608e+30 6.2422925e+28 -1.5296892e+29)
(-1.1581961e+30 1.3365027e+29 1.7623961e+29)
(-1.4419813e+30 1.048649e+29 1.8762473e+29)
(-1.2391164e+30 9.1221852e+27 -1.1702534e+29)
(-1.2126246e+30 2.2228475e+28 -1.5322016e+29)
(-1.2698922e+30 -7.709934e+27 4.0746793e+28)
(-1.2771832e+30 5.5271553e+28 5.3635579e+28)
(-1.2881152e+30 1.4768387e+28 -6.0671567e+28)
(-1.249664e+30 5.951912e+28 1.4161315e+29)
(-1.2783805e+30 -1.4800004e+28 1.4605901e+29)
(-1.2708198e+30 3.0242917e+28 -7.5119038e+28)
(-1.3098104e+30 2.7254798e+26 3.6284844e+28)
(-1.2284413e+30 3.125485e+28 -1.381542e+29)
(-1.2432902e+30 -1.4721131e+27 -1.3199291e+29)
(-1.2884866e+30 4.3064168e+28 3.9425517e+28)
(-1.3062438e+30 -1.6079173e+27 1.4586579e+29)
(-1.2730801e+30 5.9149114e+28 1.3693546e+29)
(-1.2894987e+30 3.938707e+27 -7.6468219e+28)
(-1.3093172e+30 4.0289732e+28 -6.6267381e+28)
(-1.1181287e+30 3.2116651e+28 4.5672994e+27)
(-1.1192738e+30 2.4967318e+28 -7.3946722e+28)
(-1.1161564e+30 1.4529929e+28 -7.1523598e+28)
(-1.1276176e+30 1.7623466e+27 3.6851908e+27)
(-1.1463986e+30 3.7542818e+27 -5.1083442e+27)
(-1.1379933e+30 3.3319033e+28 -3.7983189e+27)
(-1.116235e+30 1.295585e+28 -8.3487083e+28)
(-1.1281069e+30 2.1737909e+28 -8.5696752e+28)
(-1.1191719e+30 2.5429515e+28 4.6240456e+25)
(-1.1145802e+30 2.3483701e+28 -7.5777575e+28)
(-1.1090075e+30 3.5042105e+27 -7.8964559e+28)
(-1.1256044e+30 1.0517119e+27 2.1705614e+27)
(-1.1418746e+30 1.951729e+27 -6.3264999e+27)
(-1.1363454e+30 2.3214147e+28 -8.8795756e+27)
(-1.1712063e+30 -1.5256135e+28 1.539893e+29)
(-1.16675e+30 1.5812106e+28 1.5114391e+28)
(-1.1630116e+30 1.7849251e+28 8.3069799e+27)
(-1.1600701e+30 3.9772952e+28 1.5697477e+29)
(-1.1194016e+30 1.8999776e+28 -5.1712765e+28)
(-1.1400754e+30 3.8190947e+28 6.4479684e+28)
(-1.1210514e+30 1.6595402e+28 -4.4417651e+28)
(-1.148652e+30 -4.4844747e+27 6.0535386e+28)
(-1.1595428e+30 4.6783699e+27 7.2461116e+27)
(-1.1667957e+30 3.3595997e+28 1.5127577e+29)
(-1.1804866e+30 -1.3408547e+28 1.5741133e+29)
(-1.164083e+30 1.7763824e+28 9.6278016e+27)
(-1.149803e+30 -8.8549413e+27 5.9321167e+28)
(-1.1179941e+30 7.6024406e+27 -5.0842388e+28)
(-1.1439997e+30 2.5320734e+28 5.9425357e+28)
(-1.113564e+30 1.697947e+28 -5.2208039e+28)
(-1.1286354e+30 4.5590018e+27 1.1728985e+29)
(-1.1256019e+30 1.1552187e+28 1.2429089e+29)
(-1.1361094e+30 1.2603235e+28 1.2530062e+29)
(-1.1409283e+30 1.461325e+28 1.2667695e+29)
(-1.1195595e+30 5.540841e+27 1.1625948e+29)
(-1.2829383e+30 3.2881037e+28 1.0996992e+29)
(-1.1164234e+30 2.0361298e+28 1.2350836e+29)
(-1.1195636e+30 5.7211819e+27 1.1468771e+29)
(-1.1387825e+30 1.1463353e+28 1.2344045e+29)
(-1.2924509e+30 2.5871443e+28 1.1660438e+29)
(-1.3493073e+30 9.4722215e+28 5.5980446e+27)
(-1.1740491e+30 4.9171353e+28 1.4910799e+29)
(-1.0444837e+30 1.431135e+29 -2.0595347e+29)
(-1.1051035e+30 7.0070386e+28 -1.8926086e+29)
(-1.1238862e+30 1.2111009e+29 1.625535e+29)
(-1.2693818e+30 2.302765e+28 1.1161012e+29)
(-1.2503764e+30 2.7977558e+28 1.1241773e+29)
(-1.1830589e+30 8.919002e+28 1.0454876e+28)
(-1.205064e+30 1.5100927e+29 1.2575706e+28)
(-1.2618025e+30 1.703748e+29 -1.3035278e+28)
(-1.237574e+30 9.1039902e+28 1.8742685e+28)
(-9.7753999e+29 6.0541751e+27 1.1461595e+29)
(-9.8237414e+29 1.4914259e+27 1.1097622e+29)
(-9.9169287e+29 8.2636266e+27 1.1751566e+29)
(-9.8600122e+29 1.7090058e+27 1.1675811e+29)
(-9.7825457e+29 1.1193061e+28 1.200093e+29)
(-9.8276255e+29 1.2921129e+27 1.1634005e+29)
(-9.8854779e+29 5.2758115e+27 1.1397825e+29)
(-9.8541538e+29 1.000654e+27 1.1408754e+29)
(-1.2000368e+30 1.1124437e+29 -5.107874e+28)
(-1.1019934e+30 1.5405172e+29 -5.4194081e+28)
(-1.0750006e+30 2.1839705e+29 -1.0003635e+29)
(-1.1786094e+30 1.8171793e+29 -9.7972077e+28)
(-9.2746308e+29 4.1209511e+28 -4.2021083e+28)
(-9.9239252e+29 2.5067521e+29 -1.0083498e+29)
(-1.3634323e+30 3.1502808e+29 -8.7635476e+28)
(-2.9797144e+30 1.5799413e+28 8.5436108e+27)
(-1.4897731e+30 8.0243433e+27 -1.6969185e+29)
(-1.4908545e+30 3.889701e+27 -1.7868272e+29)
(-1.5092348e+30 1.5661394e+28 -1.096087e+29)
(-1.0164355e+30 -6.2858797e+27 -2.2897175e+29)
(-1.0375247e+30 -2.187149e+28 -2.3314438e+29)
(-1.0597266e+30 3.1466167e+28 -1.0607862e+29)
(-1.0598263e+30 -2.3730735e+28 -1.0759543e+29)
(-1.0254498e+30 -2.76329e+28 -2.2567306e+29)
(-1.0454866e+30 -3.2068716e+28 -2.2847912e+29)
(-1.0568662e+30 3.0816394e+28 -1.0775821e+29)
(-1.0572327e+30 -3.4984434e+28 -1.038711e+29)
(-1.0315295e+30 -1.7105906e+28 -1.9121578e+29)
(-1.0323118e+30 4.0875933e+28 -1.9008154e+29)
(-8.5071562e+29 -2.8787815e+28 7.1670363e+28)
(-8.3049881e+29 1.0986608e+29 5.2035574e+28)
(-1.0377946e+30 -1.8705931e+28 -1.9033785e+29)
(-1.0290852e+30 4.6938689e+28 -1.9296183e+29)
(-8.4789704e+29 -9.1398668e+27 6.2227537e+28)
(-7.8644283e+29 1.212311e+29 2.1461287e+28)
(-1.1889843e+30 -2.5572175e+28 -9.8789533e+27)
(-1.1812402e+30 -3.6163919e+28 -1.0306942e+28)
(-1.2653657e+30 1.7497912e+27 -2.1234254e+29)
(-1.2734688e+30 -8.2950003e+27 -2.1008189e+29)
(-1.1858267e+30 -4.5136267e+28 -8.7400991e+27)
(-1.2757059e+30 -2.2749997e+27 -2.1502176e+29)
(-1.2852287e+30 -6.3395667e+27 -2.1483513e+29)
(-1.195525e+30 -3.2275637e+28 -1.0620543e+28)
(-8.7144324e+29 -4.5639824e+27 -2.2460559e+29)
(-8.8302819e+29 -1.8697795e+28 -2.2918347e+29)
(-7.9259332e+29 1.6415552e+28 -1.6177165e+29)
(-7.9017418e+29 -1.436082e+28 -1.6415741e+29)
(-7.9020984e+29 -2.3706663e+28 -1.5597165e+29)
(-8.7558996e+29 -1.8166422e+28 -2.1833147e+29)
(-8.8371561e+29 -2.2451375e+28 -2.222081e+29)
(-7.9134481e+29 1.6978429e+28 -1.584076e+29)
(-6.4302002e+29 3.5083091e+28 -1.5127231e+29)
(-6.012342e+29 -2.5274312e+28 9.6660515e+28)
(-5.8764323e+29 7.5445198e+28 7.5655043e+28)
(-6.457649e+29 -9.1934352e+27 -1.4630819e+29)
(-6.3725497e+29 -3.0669494e+27 -1.5504229e+29)
(-6.3791483e+29 3.0872678e+28 -1.5450635e+29)
(-6.0752823e+29 -2.7241714e+28 9.0233867e+28)
(-5.9316957e+29 6.9779564e+28 7.7766641e+28)
(-8.7536911e+29 -1.8993724e+28 -2.1962336e+29)
(-8.9069665e+29 -2.9086478e+28 -2.2530812e+29)
(-7.8768963e+29 -2.3304624e+28 -1.5671819e+29)
(-7.9912545e+29 9.44865e+27 -1.5571535e+29)
(-7.9039233e+29 -2.9487567e+28 -1.5330929e+29)
(-8.8655419e+29 -2.5140677e+28 -2.1463101e+29)
(-8.9993674e+29 -2.7944663e+28 -2.1929046e+29)
(-8.0009686e+29 1.2301788e+28 -1.562329e+29)
(-6.561553e+29 -8.1697844e+27 -1.4052411e+29)
(-6.5770009e+29 3.4188676e+28 -1.5108984e+29)
(-6.0445788e+29 -2.2982756e+28 1.0902297e+29)
(-6.0525269e+29 6.9545977e+28 8.5525532e+28)
(-6.4924839e+29 -7.076259e+27 -1.4250791e+29)
(-6.6373538e+29 3.0273317e+28 -1.474946e+29)
(-6.0291384e+29 -2.4615288e+28 1.0886886e+29)
(-6.1428653e+29 7.3120431e+28 1.0398198e+29)
(-1.3206534e+30 -4.7925073e+27 -1.5888949e+29)
(-9.9065223e+29 -1.7425734e+28 -1.2281623e+29)
(-1.0036467e+30 -1.7481516e+28 -1.2435814e+29)
(-1.1866364e+30 -1.6669528e+28 -1.3159357e+29)
(-1.2423967e+30 -7.5985127e+28 -1.4661323e+29)
(-1.3317534e+30 -5.0894855e+27 -1.5847359e+29)
(-9.9707205e+29 -1.9979998e+28 -1.1811642e+29)
(-9.9702888e+29 1.2945455e+28 -2.5220455e+29)
(-1.0063526e+30 1.1408257e+28 -2.5181142e+29)
(-1.0028085e+30 1.6440482e+28 -2.4822045e+29)
(-5.153487e+29 -2.333667e+28 -2.1038181e+29)
(-5.183114e+29 -3.1733975e+28 -2.1059388e+29)
(-4.9445267e+29 1.045002e+28 -1.3887068e+29)
(-4.9197317e+29 -1.4089257e+28 -1.3929021e+29)
(-4.873103e+29 -1.8260946e+28 -1.3964714e+29)
(-5.2784286e+29 -3.1394967e+28 -2.0926813e+29)
(-5.231456e+29 -2.7313111e+28 -2.0654415e+29)
(-5.0772178e+29 1.7497267e+28 -1.4165962e+29)
(-5.7916771e+29 -3.3798238e+28 1.6347384e+29)
(-5.9290878e+29 3.3765772e+28 1.6763876e+29)
(-3.9028918e+29 4.3730506e+27 1.2679566e+28)
(-4.0386979e+29 1.2602898e+28 1.2354176e+28)
(-4.0304314e+29 6.5543795e+26 2.1883327e+28)
(-5.7931349e+29 -3.2496213e+28 1.5952211e+29)
(-4.0968455e+29 2.2583178e+28 2.296157e+27)
(-5.8721925e+29 3.8770394e+28 1.4905607e+29)
(-5.1971317e+29 -2.6212352e+28 -2.0742732e+29)
(-5.2612444e+29 -3.2822523e+28 -2.0705873e+29)
(-4.8870777e+29 -1.1389552e+28 -1.3854024e+29)
(-4.9955616e+29 1.6425729e+28 -1.3848941e+29)
(-3.9740712e+29 7.6029885e+27 2.2598553e+28)
(-5.7229964e+29 -3.1228089e+28 1.615239e+29)
(-4.1885813e+29 2.2095894e+28 1.9924928e+28)
(-5.9065495e+29 3.8209967e+28 1.6293116e+29)
(-4.0521744e+29 1.124945e+28 2.2316189e+28)
(-5.7554584e+29 -2.3978071e+28 1.5600037e+29)
(-1.1138308e+30 5.203732e+28 7.3157005e+28)
(-1.1771986e+30 4.024798e+28 2.0369866e+29)
(-9.7366667e+29 -8.6961946e+27 1.2656076e+29)
(-1.0960945e+30 1.6316476e+28 2.0123053e+29)
(-9.8321026e+29 3.9637666e+28 1.2749165e+29)
(-1.1042988e+30 1.5297168e+28 2.0168982e+29)
(-9.7186265e+29 2.6492777e+28 1.2558946e+29)
(-1.0852799e+30 9.7334492e+27 1.9860861e+29)
(-9.6201409e+29 -2.0953314e+28 1.2863658e+29)
(-1.0713898e+30 2.0840688e+28 1.959724e+29)
(-9.8350235e+29 -3.2322972e+27 1.2508839e+29)
(-9.8023662e+29 4.149047e+28 1.2432054e+29)
(-1.1155564e+30 2.5740151e+28 2.016774e+29)
(-1.1178314e+30 2.3488046e+28 2.0043724e+29)
(-9.8216477e+29 -6.3638055e+27 1.3694975e+29)
(-1.1084373e+30 2.5283368e+28 2.0896647e+29)
(-9.8079377e+29 4.0137219e+28 1.242211e+29)
(-1.1151581e+30 1.7622021e+28 2.0387515e+29)
(-8.4432752e+29 -1.5339823e+28 1.4492892e+29)
(-8.4040444e+29 1.7540421e+28 1.4099353e+29)
(-9.6726271e+29 1.5976216e+28 1.8392741e+29)
(-9.6935774e+29 9.377833e+27 1.8307823e+29)
(-8.4310916e+29 -1.2824681e+28 1.4065219e+29)
(-8.433318e+29 2.5451263e+28 1.420169e+29)
(-9.691421e+29 6.1739223e+27 1.7385499e+29)
(-9.7192987e+29 8.7707944e+27 1.772794e+29)
(-9.7457363e+29 8.7099222e+27 1.8342262e+29)
(-8.4074738e+29 -1.026994e+28 1.4930755e+29)
(-8.4143504e+29 2.5872798e+28 1.4406077e+29)
(-9.8052389e+29 5.6177865e+27 1.8291225e+29)
(-8.4355693e+29 -4.9404715e+27 1.4444359e+29)
(-8.440753e+29 2.9786485e+28 1.4429956e+29)
(-9.7260735e+29 7.9936955e+27 1.8010825e+29)
(-9.7204049e+29 5.7209042e+27 1.7795168e+29)
(-8.458411e+29 -5.5339363e+27 1.5776936e+29)
(-8.5050864e+29 2.9021636e+28 1.5351951e+29)
(-9.7334176e+29 4.2635616e+27 1.8657467e+29)
(-9.6464468e+29 9.1264959e+27 1.8593947e+29)
(-8.4938799e+29 -2.4180152e+25 1.5305015e+29)
(-8.4876209e+29 3.7667832e+28 1.50285e+29)
(-9.778082e+29 8.9308237e+27 1.8321758e+29)
(-9.7428065e+29 4.9997582e+27 1.8191534e+29)
(-8.5150648e+29 2.7812626e+27 1.618357e+29)
(-8.5589655e+29 3.6031936e+28 1.5237589e+29)
(-9.8456349e+29 8.5060621e+27 1.859731e+29)
(-9.7615868e+29 1.1317852e+28 1.8776007e+29)
(-8.5107171e+29 4.223689e+27 1.5253394e+29)
(-8.5749132e+29 3.5532759e+28 1.4966814e+29)
(-9.8434978e+29 1.1810968e+28 1.8524202e+29)
(-9.8127063e+29 1.022454e+28 1.8465276e+29)
(-6.6709546e+29 1.8931126e+28 1.600104e+29)
(-6.6005116e+29 -2.0009131e+28 1.6603544e+29)
(-8.7331883e+29 9.9524196e+26 1.6327018e+29)
(-8.814671e+29 3.7669893e+27 1.6614891e+29)
(-6.5708883e+29 -1.5859007e+28 1.5859437e+29)
(-6.6578895e+29 2.0887693e+28 1.5802965e+29)
(-8.7857704e+29 4.4865314e+27 1.6982083e+29)
(-8.7805389e+29 2.5990197e+27 1.6991187e+29)
(-8.6569354e+29 5.2774678e+27 1.7189568e+29)
(-6.5884145e+29 -2.1202426e+28 1.6673492e+29)
(-6.5972417e+29 1.4933717e+28 1.6350316e+29)
(-8.716618e+29 3.1396536e+27 1.6972545e+29)
(-6.6694094e+29 2.1560027e+28 1.6092126e+29)
(-6.569693e+29 -1.962283e+28 1.6236021e+29)
(-8.7430422e+29 8.7693271e+26 1.7072211e+29)
(-8.7815776e+29 5.2142529e+27 1.7152558e+29)
(-6.528772e+29 -2.2682776e+28 1.6597327e+29)
(-6.6399151e+29 1.6120864e+28 1.626246e+29)
(-8.6195453e+29 1.1502398e+26 1.6279742e+29)
(-8.7319914e+29 2.2539824e+27 1.7289049e+29)
(-8.6976848e+29 -3.8008136e+26 1.6105323e+29)
(-6.5180912e+29 -1.7827398e+28 1.6108299e+29)
(-6.6546184e+29 2.4833954e+28 1.5876208e+29)
(-8.7656716e+29 6.9796539e+27 1.6873092e+29)
(-6.6850341e+29 2.1928747e+28 1.5957198e+29)
(-6.6075102e+29 -1.5252702e+28 1.6611637e+29)
(-8.7194794e+29 4.0802597e+27 1.631908e+29)
(-8.8155537e+29 6.7606867e+27 1.7123105e+29)
(-6.621876e+29 2.1317354e+28 1.5726402e+29)
(-6.5887428e+29 -1.2681819e+28 1.5715818e+29)
(-8.7173942e+29 3.6576398e+27 1.6444686e+29)
(-8.7280564e+29 5.1642541e+27 1.6545665e+29)
(-1.3563107e+30 7.9637026e+28 -1.6588498e+29)
(-1.1923638e+30 4.4802931e+28 1.5780495e+29)
(-1.1487061e+30 1.1977757e+29 1.6995989e+29)
(-1.1281016e+30 4.5023438e+28 -1.5829633e+29)
(-1.0833009e+30 1.2214899e+29 -1.7087989e+29)
(-1.4587583e+30 2.4681417e+28 1.7139526e+29)
(-1.2903422e+30 6.4808262e+28 1.4033231e+29)
(-1.3252497e+30 4.0153067e+27 1.5175508e+29)
(-1.2973298e+30 4.2234638e+28 -6.7168435e+28)
(-1.2850206e+30 2.3302669e+27 -8.0997568e+28)
(-1.2363898e+30 1.2380914e+28 -1.1725313e+29)
(-1.2974637e+30 -5.7983507e+27 4.5676039e+28)
(-1.224804e+30 2.5002566e+28 -1.2931212e+29)
(-1.2724439e+30 5.6812299e+28 5.0811449e+28)
(-1.2418414e+30 1.4490284e+27 -1.3320709e+29)
(-1.3107201e+30 1.2839598e+27 3.7128298e+28)
(-1.2248099e+30 3.3290346e+28 -1.3695732e+29)
(-1.2898068e+30 4.4279473e+28 3.5875129e+28)
(-1.158569e+30 9.5748232e+28 -1.2872523e+28)
(-1.156872e+30 9.1522296e+28 2.2495401e+28)
(-1.1806139e+30 1.3106071e+29 1.9215918e+28)
(-1.1775373e+30 1.2502161e+29 -1.3242293e+28)
(-1.2834954e+30 1.8120033e+28 -6.2741849e+28)
(-1.2876866e+30 -8.1653995e+27 1.4477551e+29)
(-1.2483984e+30 6.5885609e+28 1.3869379e+29)
(-1.2947019e+30 3.2665576e+28 -5.9606172e+28)
(-1.11321e+30 1.9220866e+28 -8.2817027e+28)
(-1.1060435e+30 1.4059228e+28 -8.0350181e+28)
(-1.1316549e+30 3.4961684e+28 3.1584305e+26)
(-1.1430427e+30 8.0541297e+26 -4.125618e+26)
(-1.1000543e+30 2.5821678e+27 -1.0328236e+29)
(-1.1021914e+30 2.4593713e+28 -1.0180734e+29)
(-1.1149911e+30 2.1850198e+28 -1.5466543e+28)
(-1.1216867e+30 5.5094811e+27 -1.195516e+28)
(-1.0993554e+30 2.7025179e+28 -9.6201543e+27)
(-1.092752e+30 2.1749187e+27 -8.5768605e+28)
(-1.0945319e+30 2.6082629e+28 -8.4665631e+28)
(-1.1055263e+30 5.2795537e+27 -6.6361575e+27)
(-1.1057671e+30 2.3061528e+28 -7.7749331e+28)
(-1.1031287e+30 1.4350691e+28 -7.4617508e+28)
(-1.0971677e+30 3.2423998e+28 -2.8145227e+27)
(-1.1121247e+30 4.0426456e+26 -2.1779974e+27)
(-1.0967983e+30 1.6768547e+28 -5.2275529e+28)
(-1.1021022e+30 2.0166324e+28 -5.5997265e+28)
(-1.1334277e+30 -3.060049e+27 5.8128435e+28)
(-1.1172329e+30 4.1763071e+28 5.8813729e+28)
(-1.1293104e+30 4.172295e+28 1.408973e+29)
(-1.1411951e+30 1.8198075e+28 4.3682537e+27)
(-1.1403545e+30 1.6643211e+28 8.597893e+27)
(-1.1491977e+30 -1.2864553e+28 1.4395816e+29)
(-1.1560367e+30 3.8217916e+28 1.4678738e+29)
(-1.1401229e+30 1.8247482e+28 3.9846922e+26)
(-1.1427706e+30 5.1066572e+27 1.7363357e+27)
(-1.1577694e+30 -1.1044985e+28 1.4609185e+29)
(-1.1272774e+30 2.8260889e+28 5.2211907e+28)
(-1.0958164e+30 2.1629501e+28 -6.0254192e+28)
(-1.0982876e+30 7.6041873e+27 -5.8564171e+28)
(-1.1340864e+30 -4.2867435e+27 5.3724433e+28)
(-1.1141926e+30 3.0715111e+28 -7.8333596e+28)
(-1.1111287e+30 7.0821235e+27 -8.0113128e+28)
(-1.1225077e+30 3.3414766e+28 -1.9598844e+27)
(-1.1278869e+30 1.1065647e+28 -3.5356827e+26)
(-1.1443197e+30 9.70164e+27 -1.0675574e+28)
(-1.1384802e+30 2.8122454e+28 -1.1129004e+28)
(-1.1094218e+30 8.6475912e+27 -9.2449058e+28)
(-1.1181835e+30 2.7495844e+28 -9.173462e+28)
(-1.1348863e+30 3.2209975e+28 -3.4919377e+27)
(-1.1116249e+30 2.240582e+28 -8.9934543e+28)
(-1.1074223e+30 1.0070671e+28 -8.6301355e+28)
(-1.1406308e+30 4.3875326e+27 -7.8464544e+27)
(-1.1029358e+30 2.7291343e+28 -6.4575882e+27)
(-1.1046801e+30 2.4863945e+28 -8.6228385e+28)
(-1.1068935e+30 1.0196103e+28 -7.5434249e+28)
(-1.1106427e+30 2.4315106e+27 -9.8763034e+27)
(-1.1572525e+30 2.488981e+28 5.5602157e+27)
(-1.1556972e+30 1.0220527e+28 5.0273086e+27)
(-1.1665626e+30 4.3215131e+28 1.5002834e+29)
(-1.1715152e+30 -6.1338446e+27 1.4992225e+29)
(-1.144353e+30 1.8530372e+28 -1.6688739e+27)
(-1.1444566e+30 9.7522751e+27 5.0179352e+27)
(-1.1504858e+30 3.6711409e+28 1.4656531e+29)
(-1.1594891e+30 -1.4005892e+28 1.4231248e+29)
(-1.1254356e+30 3.3525366e+28 5.4713722e+28)
(-1.1004143e+30 1.0100505e+28 -5.6041898e+28)
(-1.1032297e+30 2.1412732e+28 -6.2241218e+28)
(-1.1362405e+30 -2.7228583e+27 5.1629578e+28)
(-1.1405772e+30 3.4564871e+28 5.6108905e+28)
(-1.1126475e+30 1.2746429e+28 -5.6694605e+28)
(-1.1143599e+30 2.8529563e+28 -5.4859599e+28)
(-1.1501952e+30 2.6982321e+27 5.7067985e+28)
(-9.2118758e+29 9.2178199e+27 -5.0297013e+28)
(-9.3237407e+29 2.1236439e+28 -3.9397303e+27)
(-9.2343746e+29 1.6998459e+28 -5.2874499e+28)
(-9.3732846e+29 4.1416123e+27 -5.5174073e+27)
(-9.322714e+29 6.3787313e+27 -4.9332852e+28)
(-9.2848394e+29 1.2553301e+28 -5.1515961e+28)
(-9.4990748e+29 1.7181124e+28 -6.0557028e+27)
(-9.4777224e+29 3.0666198e+27 -7.8233308e+27)
(-9.2402597e+29 9.6650456e+27 -4.9082466e+28)
(-9.4145651e+29 2.1647159e+28 -5.7334465e+27)
(-9.2785965e+29 1.4533772e+28 -5.1756323e+28)
(-9.4578962e+29 5.9025433e+27 -8.0455479e+27)
(-9.2810848e+29 4.9787234e+27 -5.1011793e+28)
(-9.3798177e+29 1.7182388e+28 -7.0635872e+27)
(-9.2461899e+29 1.4153728e+28 -5.2912202e+28)
(-9.3711193e+29 2.4841705e+27 -8.1121256e+27)
(-9.4842984e+29 8.3534843e+27 -4.4497832e+28)
(-9.5691917e+29 1.8287455e+28 -1.2391205e+28)
(-9.4627111e+29 1.5061947e+28 -4.7418703e+28)
(-9.5505176e+29 4.251308e+27 -1.452332e+28)
(-9.4162282e+29 1.2350421e+28 -4.4753207e+28)
(-9.4816664e+29 1.9948735e+28 -1.2857245e+28)
(-9.4446573e+29 1.8066859e+28 -4.7527003e+28)
(-9.5301198e+29 5.6096036e+27 -1.4908611e+28)
(-9.8458858e+29 2.5543682e+28 -8.7608814e+27)
(-9.8830039e+29 9.0960592e+27 -1.0696177e+28)
(-9.7960546e+29 1.6452702e+28 -6.645614e+28)
(-9.814508e+29 1.7975134e+28 -6.8687711e+28)
(-9.9223239e+29 2.2678875e+28 -8.196458e+27)
(-9.9095707e+29 6.8816515e+27 -1.0166197e+28)
(-9.8417699e+29 1.7626907e+28 -6.8471358e+28)
(-9.8689007e+29 1.4337988e+28 -6.6027573e+28)
(-9.1166139e+29 3.0362234e+27 -5.6372185e+28)
(-9.1511202e+29 1.437826e+28 -5.7740278e+28)
(-9.2636778e+29 1.5288743e+28 -9.1122103e+27)
(-9.3154571e+29 1.0298491e+27 -9.8199764e+27)
(-9.2378986e+29 5.0964468e+27 -5.0578096e+28)
(-9.4285419e+29 1.5856271e+28 -7.0954637e+27)
(-9.4844089e+29 1.77557e+27 -5.6901906e+27)
(-9.1324046e+29 3.2114261e+27 -5.5942846e+28)
(-9.3336068e+29 1.5149006e+28 -1.1558551e+28)
(-9.1854139e+29 1.2393573e+28 -5.7207251e+28)
(-9.3834868e+29 2.7858048e+27 -1.2849668e+28)
(-9.2141493e+29 3.7433784e+27 -5.2237585e+28)
(-9.2611177e+29 1.278168e+28 -5.0151149e+28)
(-9.326118e+29 1.5921473e+28 -7.8304997e+27)
(-9.3492028e+29 1.4236796e+26 -6.6623221e+27)
(-9.3851357e+29 6.7194585e+27 -4.5335715e+28)
(-9.4845606e+29 1.660515e+28 -1.3289308e+28)
(-9.286297e+29 5.0103394e+27 -5.2378971e+28)
(-9.3851408e+29 1.2877425e+28 -1.9282167e+28)
(-9.3182564e+29 1.6755055e+28 -5.3161546e+28)
(-9.4461219e+29 2.8765371e+27 -2.0013686e+28)
(-1.0053032e+30 7.5650423e+26 4.6812586e+28)
(-1.0050631e+30 6.8885496e+27 4.7339303e+28)
(-1.0183018e+30 2.3705428e+28 1.4801332e+29)
(-1.0207632e+30 -1.3919451e+28 1.4955665e+29)
(-9.7345144e+29 9.9275949e+27 -6.1748753e+27)
(-9.6948842e+29 9.0307065e+27 -3.9724314e+27)
(-9.9578606e+29 2.7525648e+28 8.7398967e+28)
(-1.0028555e+30 -5.1311159e+27 8.5107486e+28)
(-9.7609692e+29 3.8144761e+27 -7.3792393e+27)
(-9.7374691e+29 8.6528975e+27 -7.3193803e+27)
(-1.0024321e+30 1.7277541e+28 8.2051354e+28)
(-1.0053814e+30 -9.5210373e+27 8.2371342e+28)
(-1.002605e+30 8.1571664e+27 4.9209125e+28)
(-1.0022599e+30 9.2046712e+27 5.3208138e+28)
(-1.0029873e+30 2.7051114e+28 1.4774561e+29)
(-1.0126234e+30 -1.4232773e+28 1.4727356e+29)
(-9.2898174e+29 5.7152058e+27 -4.5161738e+28)
(-9.5120364e+29 1.6427291e+28 8.220841e+27)
(-9.2621292e+29 1.3001384e+28 -4.66329e+28)
(-9.5165142e+29 -3.3499695e+26 7.0136831e+27)
(-9.4506179e+29 1.510206e+28 -3.8565245e+28)
(-9.4268732e+29 8.7681199e+27 -3.6197986e+28)
(-9.5930552e+29 2.1881281e+28 2.8782295e+28)
(-9.6689874e+29 -1.8387616e+27 2.7556924e+28)
(-9.2258627e+29 1.0597656e+28 -4.2786549e+28)
(-9.4391912e+29 2.2965785e+28 1.032834e+28)
(-9.2560869e+29 1.3903295e+28 -4.4930551e+28)
(-9.4954244e+29 2.3113257e+27 8.171177e+27)
(-9.4869541e+29 2.8608343e+27 -3.8651365e+28)
(-9.4693413e+29 1.2826895e+28 -3.9723536e+28)
(-9.6658552e+29 1.713674e+28 2.5911876e+28)
(-9.6786408e+29 -3.3661941e+27 2.5819268e+28)
(-9.642423e+29 3.1564403e+27 -8.9105988e+27)
(-9.6874109e+29 8.4409464e+27 -1.0565105e+28)
(-9.9250687e+29 2.0411094e+28 7.9732353e+28)
(-9.9929842e+29 -7.6222589e+27 7.8046748e+28)
(-9.9769051e+29 4.144389e+27 4.6723359e+28)
(-9.9899328e+29 7.7125402e+27 4.3505608e+28)
(-1.0048454e+30 2.101024e+28 1.4225347e+29)
(-1.012408e+30 -1.5521419e+28 1.4146387e+29)
(-1.005698e+30 3.102164e+27 4.8584327e+28)
(-1.0034229e+30 7.4757187e+27 4.965744e+28)
(-1.023282e+30 2.5256598e+28 1.4857343e+29)
(-1.0227879e+30 -1.4038391e+28 1.5085911e+29)
(-9.7470089e+29 4.8596933e+27 -6.6052316e+27)
(-9.7165475e+29 9.7224514e+27 -6.2340102e+27)
(-1.0052712e+30 1.9938575e+28 8.3400278e+28)
(-1.006511e+30 -8.3749571e+27 8.4303721e+28)
(-9.4441177e+29 2.4547332e+27 -3.8901623e+28)
(-9.4224769e+29 1.2970555e+28 -3.8895507e+28)
(-9.663605e+29 1.7858727e+28 2.6366456e+28)
(-9.6725618e+29 -2.5566159e+27 2.6942023e+28)
(-9.1525999e+29 4.6126867e+27 -4.8544009e+28)
(-9.3938498e+29 1.6635395e+28 5.0073629e+27)
(-9.1901178e+29 1.1487256e+28 -4.9545418e+28)
(-9.4486456e+29 -8.3625402e+26 3.6849789e+27)
(-9.3682796e+29 2.6706745e+27 -4.1665046e+28)
(-9.3952571e+29 1.289445e+28 -4.3071194e+28)
(-9.5494328e+29 1.441817e+28 2.2729299e+28)
(-9.6212506e+29 -5.0811166e+27 2.2167072e+28)
(-9.2373986e+29 4.4524552e+27 -4.5854165e+28)
(-9.471643e+29 1.5614356e+28 7.132773e+27)
(-9.2213542e+29 1.1358531e+28 -4.5496616e+28)