/*--------------------------------*- C++ -*----------------------------------*\
  =========                 |
  \\      /  F ield         | OpenFOAM: The Open Source CFD Toolbox
   \\    /   O peration     | Website:  https://openfoam.org
    \\  /    A nd           | Version:  7
     \\/     M anipulation  |
\*---------------------------------------------------------------------------*/
FoamFile
{
    version     2.0;
    format      ascii;
    class       volVectorField;
    location    "5000";
    object      UMean;
}
// * * * * * * * * * * * * * * * * * * * * * * * * * * * * * * * * * * * * * //

dimensions      [0 1 -1 0 0 0 0];

internalField   nonuniform List<vector> 
33943
(
(-2.2957581e+28 3.357663e+26 1.1054195e+27)
(-2.1820734e+28 6.6816907e+26 2.5956046e+27)
(-2.5099914e+28 5.8884241e+26 1.8319167e+27)
(-2.4728996e+28 3.8107713e+26 1.1724496e+27)
(-2.7800187e+28 4.9613593e+26 3.8732636e+26)
(-2.1461641e+28 1.5649113e+27 -1.2560197e+27)
(-1.6834827e+28 7.5374877e+26 -6.8539956e+26)
(-2.3083861e+28 3.5282778e+26 1.362799e+27)
(-2.1885006e+28 6.7130402e+26 2.6289154e+27)
(-2.2371459e+28 1.2475104e+27 2.5006108e+27)
(-2.5220011e+28 6.9724801e+26 1.8743355e+27)
(-2.5511319e+28 4.1453223e+26 1.8673828e+27)
(-1.8452895e+28 5.2541137e+26 2.191096e+27)
(-2.3324476e+28 7.0637956e+26 2.2199195e+27)
(-2.3478975e+28 1.8916522e+26 2.2191078e+27)
(-1.8635689e+28 5.4849192e+26 2.0805389e+27)
(-2.5033474e+28 1.952361e+26 -7.5070411e+26)
(-2.6060529e+28 4.8363998e+26 5.7466949e+26)
(-2.4664781e+28 1.00513e+26 1.0500166e+27)
(-2.4711875e+28 4.3724008e+26 1.1929716e+27)
(-3.1240945e+28 1.2514904e+27 1.500723e+27)
(-2.243582e+28 -6.0986735e+25 1.3260717e+27)
(-2.246803e+28 3.5417297e+26 1.3683327e+27)
(-2.847283e+28 8.7474837e+26 7.1192301e+26)
(-1.9993577e+28 -5.0436042e+26 -9.2595264e+26)
(-1.8734953e+28 -1.1942702e+27 -6.7932902e+26)
(-2.0359319e+28 -5.2645186e+26 -9.1071685e+26)
(-2.0510766e+28 -4.0540017e+26 -8.2887036e+26)
(-2.1859157e+28 1.3749135e+27 -1.0503026e+27)
(-2.2110304e+28 2.4093378e+26 -2.7298993e+27)
(-2.2362295e+28 8.2977029e+26 -2.676401e+27)
(-1.7280546e+28 8.0523242e+26 -6.4290452e+26)
(-1.7735682e+28 2.0104299e+27 -4.7172225e+26)
(-2.0706455e+28 1.9433167e+26 -2.5090561e+27)
(-2.2009018e+28 2.1600789e+26 -2.1243041e+27)
(-1.6752463e+28 1.410341e+26 -3.169386e+27)
(-1.7020134e+28 2.6775124e+26 -3.1744209e+27)
(-1.2357698e+28 5.518256e+26 -2.5288244e+26)
(-1.274182e+28 1.1699179e+27 -1.7247737e+26)
(-2.2515016e+28 8.121897e+26 2.7136926e+27)
(-2.2847149e+28 1.4541102e+27 2.6727147e+27)
(-2.5171124e+28 7.3913882e+26 1.8600406e+27)
(-2.5829056e+28 5.6445458e+26 2.1024855e+27)
(-1.8470104e+28 5.6823327e+26 2.1300614e+27)
(-1.8626369e+28 5.7866561e+26 2.0617489e+27)
(-2.3555105e+28 2.3492327e+26 2.19994e+27)
(-2.3253041e+28 7.7438073e+26 2.1471082e+27)
(-1.8295983e+28 4.731732e+26 1.9785888e+27)
(-1.8625559e+28 6.468512e+26 2.0533993e+27)
(-2.3478497e+28 6.1744737e+26 2.0103334e+27)
(-2.3618336e+28 2.5043921e+26 2.1074219e+27)
(-1.5693505e+28 2.6842639e+26 1.6869121e+27)
(-2.0547629e+28 1.3297895e+26 2.0384998e+27)
(-1.5598479e+28 2.8755195e+26 1.7749337e+27)
(-2.0332899e+28 4.6744689e+26 2.0210332e+27)
(-1.5427393e+28 2.0978361e+26 1.6130269e+27)
(-1.5702742e+28 3.1028037e+26 1.7446297e+27)
(-2.0323767e+28 3.1294039e+26 1.8615368e+27)
(-2.0504692e+28 7.4250651e+25 1.9889957e+27)
(-3.1807289e+28 9.2055699e+26 3.8510079e+26)
(-2.5175422e+28 2.390322e+26 -7.4821535e+26)
(-2.6138929e+28 5.229443e+26 6.1646231e+26)
(-2.5122293e+28 5.4289115e+25 -8.3507512e+26)
(-2.6187507e+28 1.2168748e+26 4.9142612e+26)
(-2.3343474e+28 2.4380735e+26 -5.5308463e+26)
(-2.2850341e+28 1.3132214e+26 -1.0953453e+27)
(-2.3270525e+28 2.2324126e+25 -5.7766614e+26)
(-2.2688746e+28 -1.4493989e+25 -1.1042485e+27)
(-2.3585194e+28 3.763077e+26 1.0231301e+27)
(-2.2965674e+28 2.4063347e+26 -1.3782429e+26)
(-2.3642673e+28 1.7695226e+25 1.0095988e+27)
(-2.2863514e+28 2.1392914e+25 -1.7960661e+26)
(-2.2462758e+28 3.5047325e+26 1.2036973e+27)
(-2.2503575e+28 -2.2742344e+25 1.2709944e+27)
(-2.2421813e+28 4.2485029e+26 1.3804144e+27)
(-2.2387528e+28 -3.2169264e+25 1.2781131e+27)
(-2.4737712e+28 1.4579892e+26 1.220021e+27)
(-3.1119376e+28 1.1845266e+27 1.5293712e+27)
(-2.4638234e+28 4.0394993e+26 1.2591174e+27)
(-2.1290562e+28 -7.6101021e+25 -1.7676417e+26)
(-2.1423574e+28 -3.6016774e+25 -1.4836907e+26)
(-2.0761074e+28 -2.6606908e+26 -3.6002148e+26)
(-1.9907079e+28 -3.8452883e+26 -4.0151052e+26)
(-1.9415906e+28 1.8415752e+26 1.2420943e+27)
(-1.9466937e+28 -9.7683493e+25 1.3111844e+27)
(-1.9471762e+28 2.5576765e+26 1.3672558e+27)
(-1.9515654e+28 -7.5868043e+25 1.3079605e+27)
(-2.0754972e+28 -1.2020125e+26 -6.8398915e+26)
(-2.0704662e+28 -4.155873e+26 -5.8475453e+26)
(-2.0267578e+28 -8.9596725e+26 -8.4346106e+26)
(-2.0226761e+28 -7.3836392e+26 -9.2519135e+26)
(-1.9168586e+28 -3.8146206e+26 -7.7911913e+26)
(-1.8894171e+28 -7.8548376e+26 -1.0361679e+27)
(-2.0306275e+28 -3.9383562e+26 -1.0023673e+27)
(-1.96693e+28 -2.4133525e+26 -7.5035239e+26)
(-2.2681235e+28 3.7754535e+26 -3.0920293e+27)
(-2.2909093e+28 1.0057068e+27 -2.9560727e+27)
(-1.8047731e+28 7.9885371e+26 -5.5873547e+26)
(-1.8380089e+28 2.1338552e+27 -3.3207678e+26)
(-2.2331624e+28 -1.1534935e+26 -2.3487147e+27)
(-2.2140084e+28 2.8557255e+26 -2.2888394e+27)
(-2.0940573e+28 2.9026288e+26 -2.639193e+27)
(-2.1008532e+28 1.9470536e+26 -2.5453022e+27)
(-2.2116015e+28 1.207491e+26 -2.1408801e+27)
(-2.0792827e+28 1.324208e+26 -2.5034995e+27)
(-2.0881197e+28 2.2465425e+26 -2.4804563e+27)
(-2.2222765e+28 -1.2415734e+26 -2.1926228e+27)
(-1.7027366e+28 2.403015e+26 -3.2739741e+27)
(-1.71641e+28 3.5650039e+26 -3.2570249e+27)
(-1.2706954e+28 1.1467018e+27 -1.9106051e+26)
(-1.2503967e+28 5.5641304e+26 -2.8676863e+26)
(-1.6899066e+28 7.6325407e+25 -3.196774e+27)
(-1.7065348e+28 4.1584709e+26 -3.2085468e+27)
(-1.2750701e+28 1.3009532e+27 -1.8522286e+26)
(-1.2305792e+28 4.0485691e+26 -3.4420203e+26)
(-2.193852e+28 1.5677787e+26 -2.7917761e+27)
(-2.1746589e+28 -2.6282944e+25 -1.6522775e+27)
(-1.8027652e+28 -2.4234271e+26 -2.8639439e+27)
(-1.78955e+28 4.781637e+25 -2.837085e+27)
(-1.4849762e+28 1.2331595e+26 -3.4019142e+27)
(-1.4974746e+28 -4.7604791e+25 -3.3642463e+27)
(-1.7892551e+28 -1.0261213e+26 -2.7576004e+27)
(-1.4833663e+28 -4.2928089e+23 -3.3180559e+27)
(-1.0215125e+28 3.0218966e+25 -3.0110124e+27)
(-1.039332e+28 7.3160923e+24 -3.0181874e+27)
(-8.6396252e+27 1.0862929e+26 5.9757752e+26)
(-8.8482956e+27 5.0149396e+26 5.9530286e+26)
(-1.0223958e+28 -1.0157327e+26 -2.9592328e+27)
(-8.5149831e+27 -3.4449648e+25 4.6298001e+26)
(-8.7435552e+27 5.4480294e+26 5.1322682e+26)
(-2.5461867e+28 4.9609521e+26 1.7827938e+27)
(-1.9050494e+28 5.9805247e+26 2.1041693e+27)
(-1.8808115e+28 5.344692e+26 2.1173121e+27)
(-2.3406127e+28 6.9376561e+26 2.1749399e+27)
(-2.3801212e+28 1.9090289e+26 2.2971234e+27)
(-1.8912605e+28 7.3101023e+26 2.1289407e+27)
(-2.3946454e+28 3.2741039e+26 2.2356111e+27)
(-1.8790587e+28 5.4411611e+26 2.1118112e+27)
(-2.392235e+28 6.5545354e+26 2.2368894e+27)
(-1.5662183e+28 3.7439333e+26 1.7481856e+27)
(-1.5720738e+28 3.3707201e+26 1.6428018e+27)
(-2.0422037e+28 5.5041078e+26 2.0258712e+27)
(-2.0505188e+28 1.7622331e+26 1.9757708e+27)
(-1.5505988e+28 3.1632324e+26 1.612611e+27)
(-1.5605495e+28 3.8682952e+26 1.631217e+27)
(-2.0557737e+28 3.8526602e+26 1.9180157e+27)
(-2.0474682e+28 1.3761619e+26 1.8649139e+27)
(-1.5371295e+28 3.3135024e+26 1.5999907e+27)
(-1.5503845e+28 3.1997806e+26 1.5204648e+27)
(-2.0351079e+28 5.0344577e+26 1.8554627e+27)
(-2.0461995e+28 1.8516807e+26 1.8275032e+27)
(-1.5460206e+28 2.8439247e+26 1.5687735e+27)
(-1.5659145e+28 3.3475019e+26 1.6438003e+27)
(-2.0498841e+28 1.0625596e+26 1.9217516e+27)
(-2.0478495e+28 3.8252209e+26 1.8740735e+27)
(-1.3473645e+28 1.6039346e+26 1.6337809e+27)
(-1.3584407e+28 2.3117701e+26 1.6830528e+27)
(-1.7559478e+28 1.8094772e+26 1.903023e+27)
(-1.7582805e+28 2.6692162e+25 1.925535e+27)
(-1.3510755e+28 1.8070987e+26 1.7353053e+27)
(-1.3593636e+28 2.0238824e+26 1.6690521e+27)
(-1.7443871e+28 3.0233926e+26 1.9848266e+27)
(-1.7544271e+28 9.3480928e+25 1.9654204e+27)
(-1.3340346e+28 1.3203091e+26 1.6310411e+27)
(-1.3459975e+28 1.8574875e+26 1.598194e+27)
(-1.734763e+28 2.4658786e+26 1.8621839e+27)
(-1.7446293e+28 6.5360813e+25 1.8629758e+27)
(-1.7472636e+28 1.7142197e+26 1.91408e+27)
(-1.3444238e+28 1.6446948e+26 1.6552846e+27)
(-1.3494571e+28 2.3148333e+26 1.6783782e+27)
(-1.746211e+28 6.9396851e+24 1.9312766e+27)
(-3.1953436e+28 9.0762342e+26 3.8835006e+26)
(-2.6336067e+28 1.3626885e+26 5.9172179e+26)
(-2.5166796e+28 2.6300785e+26 -6.9284303e+26)
(-2.5171188e+28 7.4969985e+25 -7.9822419e+26)
(-2.1493168e+28 -9.3036549e+25 -2.5334225e+26)
(-2.1258844e+28 -5.7090238e+25 -2.1803205e+26)
(-2.152516e+28 2.2421675e+25 -2.0363087e+26)
(-2.1665033e+28 1.0431754e+26 -2.0924121e+26)
(-2.6098963e+28 5.119108e+26 6.1802035e+26)
(-2.2846034e+28 2.0138392e+26 -1.0078423e+27)
(-2.2766564e+28 7.4932434e+23 -1.1193357e+27)
(-2.3086823e+28 2.4742803e+25 -6.6482719e+26)
(-2.3316483e+28 3.0581799e+26 -5.0654641e+26)
(-2.2974025e+28 2.9949769e+26 -7.3764284e+25)
(-2.3481333e+28 4.1543178e+26 1.0327962e+27)
(-2.3571593e+28 2.9668864e+25 9.8694856e+26)
(-2.2798769e+28 1.4247614e+25 -2.0444871e+26)
(-2.3453666e+28 2.3252786e+25 -5.9550121e+26)
(-2.2785209e+28 -2.2271601e+25 -1.130395e+27)
(-2.2833093e+28 7.4119953e+25 -1.1423449e+27)
(-2.330905e+28 1.7519216e+26 -6.6162624e+26)
(-2.3812877e+28 2.6936561e+25 1.0191095e+27)
(-2.3626219e+28 3.5484451e+26 9.292235e+26)
(-2.2908889e+28 2.0888433e+26 -2.4997909e+26)
(-2.2987844e+28 5.0919142e+25 -1.9688203e+26)
(-1.9986457e+28 1.0579124e+26 -5.2147324e+26)
(-1.9798268e+28 3.7674143e+25 -8.0969105e+26)
(-1.9767156e+28 6.7754497e+25 -7.9779709e+26)
(-2.0047002e+28 1.9168075e+25 -5.3557535e+26)
(-2.0280582e+28 3.9200827e+25 -8.2128938e+26)
(-2.021867e+28 7.7990013e+25 -8.1614348e+26)
(-2.0117776e+28 3.0562283e+25 -9.5635878e+26)
(-2.0190136e+28 4.8779921e+25 -9.4644417e+26)
(-1.9900719e+28 5.0086761e+25 -5.9479082e+26)
(-1.9646538e+28 2.8046443e+25 -8.4318545e+26)
(-1.9597676e+28 6.7037058e+24 -8.9466205e+26)
(-1.9923949e+28 -5.9025216e+24 -5.5895191e+26)
(-2.0121316e+28 1.6393325e+25 -8.4304881e+26)
(-2.0075075e+28 1.347738e+25 -8.954905e+26)
(-2.0670799e+28 -2.6776221e+25 1.3398543e+27)
(-1.9937566e+28 1.9478543e+26 5.3590203e+26)
(-1.9940719e+28 -4.3576712e+25 4.799733e+26)
(-2.0557643e+28 2.9212361e+26 1.3720364e+27)
(-1.9734206e+28 1.1981524e+24 -4.3297055e+26)
(-2.0242249e+28 1.9119654e+26 1.3356105e+26)
(-1.9691461e+28 1.1035474e+26 -4.0226746e+26)
(-2.0292029e+28 -1.1326211e+25 9.202743e+25)
(-1.9810931e+28 1.2114344e+26 4.1971145e+26)
(-2.054804e+28 2.0135789e+26 1.2841703e+27)
(-2.0658726e+28 -7.1089652e+25 1.344427e+27)
(-1.9827802e+28 -5.0252794e+25 4.421093e+26)
(-2.0215516e+28 -4.0009928e+25 6.3428129e+25)
(-1.9570515e+28 4.9516931e+25 -4.9429873e+26)
(-2.0176499e+28 1.1309982e+26 4.1289414e+25)
(-1.9585315e+28 -1.3888514e+25 -4.6943353e+26)
(-1.9465069e+28 -1.3187199e+25 1.1805229e+27)
(-1.9446863e+28 2.8593025e+26 1.2317565e+27)
(-1.9501408e+28 -5.1557599e+25 1.3051674e+27)
(-1.9545665e+28 2.797189e+26 1.2638617e+27)
(-1.9530717e+28 -2.0109369e+25 1.2968746e+27)
(-2.2742184e+28 6.4948469e+25 1.3924764e+27)
(-1.9505863e+28 3.3223033e+26 1.3715648e+27)
(-1.9437008e+28 -2.9521298e+25 1.2212656e+27)
(-1.9537475e+28 2.6104048e+26 1.2337818e+27)
(-2.2722694e+28 3.8781286e+26 1.3411128e+27)
(-2.4814459e+28 1.7773735e+26 1.1233447e+27)
(-2.1375626e+28 -1.5446804e+25 -2.1368555e+26)
(-2.0710533e+28 -1.3438341e+26 -2.9158319e+26)
(-2.0790649e+28 4.4039823e+25 -3.693931e+26)
(-2.118854e+28 1.4187532e+26 -2.3238097e+26)
(-2.2614997e+28 -5.4491922e+25 1.4061052e+27)
(-2.2511247e+28 3.9207515e+26 1.4404962e+27)
(-1.9170923e+28 -2.3586377e+25 -3.3935859e+26)
(-1.9909668e+28 2.2546454e+25 -1.7295467e+26)
(-1.9626034e+28 -1.0251358e+26 -5.0272037e+26)
(-1.8706191e+28 -2.4044295e+26 -6.4001068e+26)
(-1.6511106e+28 1.1857958e+26 1.4046581e+27)
(-1.6555039e+28 -8.1960118e+25 1.3799507e+27)
(-1.6624599e+28 1.1889535e+26 1.4338002e+27)
(-1.6578197e+28 -1.0862474e+26 1.4522715e+27)
(-1.6623529e+28 1.7740563e+26 1.5176524e+27)
(-1.6665532e+28 -6.9506017e+25 1.4755299e+27)
(-1.6702946e+28 1.0546853e+26 1.4082617e+27)
(-1.6679529e+28 -9.427463e+25 1.4331461e+27)
(-1.8881045e+28 -3.0100154e+26 -5.4148506e+26)
(-1.9317002e+28 -1.8554009e+26 -6.5358349e+26)
(-1.9252313e+28 -7.2692958e+26 -1.0270703e+27)
(-1.824045e+28 -9.0389024e+26 -1.0057496e+27)
(-1.8335813e+28 -4.1186561e+25 -7.2079786e+26)
(-2.0860568e+28 4.2413831e+26 -7.8686923e+26)
(-2.0521518e+28 4.0037757e+26 -8.2933521e+26)
(-1.8648612e+28 -7.8844177e+25 -6.6350666e+26)
(-2.5674395e+28 3.3585748e+26 -2.2882705e+27)
(-2.5460416e+28 1.818077e+26 -2.1122846e+27)
(-2.5855547e+28 1.7031009e+26 -1.1992862e+27)
(-2.2083872e+28 3.421753e+26 -2.5273574e+27)
(-2.2322951e+28 -1.1130396e+26 -2.6120432e+27)
(-2.127519e+28 2.209617e+26 -2.7619934e+27)
(-2.1139592e+28 3.1359319e+26 -2.8181869e+27)
(-2.2291063e+28 1.322348e+26 -2.3810003e+27)
(-2.2394049e+28 -7.7352762e+25 -2.4083919e+27)
(-2.1193783e+28 3.1202922e+26 -2.6866799e+27)
(-2.1100058e+28 1.7264316e+26 -2.65709e+27)
(-1.7372938e+28 2.6063998e+26 -3.3974915e+27)
(-1.7569833e+28 4.26332e+26 -3.3832868e+27)
(-1.2885761e+28 5.1740467e+26 -3.4504446e+26)
(-1.3187135e+28 1.215167e+27 -1.8797841e+26)
(-1.7338931e+28 1.7633829e+26 -3.308657e+27)
(-1.7406997e+28 5.0562375e+26 -3.3245914e+27)
(-1.2938986e+28 5.3192723e+26 -1.8851615e+26)
(-1.2927874e+28 1.3149134e+27 -2.4567377e+26)
(-2.1909592e+28 -3.3211866e+26 -1.8097809e+27)
(-2.1842784e+28 5.2192366e+25 -1.805665e+27)
(-2.2164102e+28 2.2997966e+26 -2.8956159e+27)
(-2.2126697e+28 7.5072622e+25 -2.7798979e+27)
(-2.1847598e+28 -2.7621949e+25 -1.6709571e+27)
(-2.2012344e+28 1.5970043e+26 -2.7786216e+27)
(-2.1987431e+28 4.8068748e+25 -2.7417844e+27)
(-2.1843724e+28 -3.7445148e+26 -1.7021937e+27)
(-1.8078582e+28 1.7384117e+26 -2.9274465e+27)
(-1.8167568e+28 -1.059326e+26 -2.9359177e+27)
(-1.5187182e+28 9.250743e+25 -3.4215125e+27)
(-1.5121283e+28 2.3243546e+26 -3.4677259e+27)
(-1.5075036e+28 1.2537026e+26 -3.3675498e+27)
(-1.806149e+28 3.7186809e+25 -2.8275784e+27)
(-1.8084481e+28 -1.4955938e+26 -2.8608139e+27)
(-1.5099067e+28 8.928057e+25 -3.3845003e+27)
(-1.0441855e+28 1.5561953e+26 -3.0088054e+27)
(-8.5988781e+27 1.3763624e+26 4.4880962e+26)
(-8.6696081e+27 6.5518695e+26 4.54813e+26)
(-1.0407866e+28 2.5354406e+25 -2.9892558e+27)
(-1.0469816e+28 1.6561409e+26 -3.0867343e+27)
(-1.0564746e+28 1.7581642e+26 -3.0570282e+27)
(-8.8675155e+27 2.4395097e+26 5.6033688e+26)
(-8.9120244e+27 6.7322094e+26 5.633127e+26)
(-1.798306e+28 6.8515671e+25 -2.8351598e+27)
(-1.8100562e+28 -1.8063301e+26 -2.8655953e+27)
(-1.4994813e+28 1.456654e+26 -3.3934874e+27)
(-1.5111662e+28 1.7862226e+25 -3.361207e+27)
(-1.4959839e+28 6.2917912e+25 -3.3373453e+27)
(-1.7979489e+28 -1.6728485e+25 -2.7884356e+27)
(-1.8032031e+28 -1.7548261e+26 -2.8331459e+27)
(-1.5036821e+28 6.1468504e+25 -3.3671403e+27)
(-1.0318802e+28 -6.0691364e+25 -2.9613758e+27)
(-1.0450667e+28 1.5462245e+26 -3.0123627e+27)
(-8.4426321e+27 4.4747163e+24 3.9854718e+26)
(-8.7839503e+27 6.1512271e+26 5.2807776e+26)
(-1.0296992e+28 1.9626912e+25 -2.9979897e+27)
(-1.0483592e+28 5.8721522e+25 -3.0004481e+27)
(-8.4329892e+27 9.2503288e+25 4.0016904e+26)
(-8.6729641e+27 5.2268541e+26 4.7106383e+26)
(-2.2519367e+28 1.6981892e+25 -2.3543598e+27)
(-1.8010984e+28 -1.6767071e+25 -2.9330558e+27)
(-1.8089603e+28 -3.3885262e+26 -2.9229665e+27)
(-2.2676852e+28 -8.0471225e+25 -1.2490848e+27)
(-2.3048434e+28 -3.0483895e+26 -1.3751078e+27)
(-2.2517526e+28 -1.15516e+26 -2.2393217e+27)
(-1.7989909e+28 -1.0159927e+26 -2.8444741e+27)
(-1.5430708e+28 3.605732e+25 -3.6140055e+27)
(-1.5523495e+28 -7.0415026e+25 -3.5792113e+27)
(-1.5426978e+28 -2.0389105e+25 -3.543584e+27)
(-1.0904112e+28 -3.6775825e+25 -3.1177407e+27)
(-1.09355e+28 -1.6860804e+26 -3.0934876e+27)
(-7.7548589e+27 -9.8209886e+25 -3.3059368e+27)
(-7.6815484e+27 3.2339195e+25 -3.3742058e+27)
(-7.6940808e+27 -7.0316389e+25 -3.3202643e+27)
(-1.0993729e+28 -2.0975537e+26 -3.1009542e+27)
(-1.0951444e+28 -1.3153151e+26 -3.0621841e+27)
(-7.8351197e+27 -1.0587736e+26 -3.3379882e+27)
(-8.1796252e+27 -4.3334099e+25 1.1581705e+27)
(-8.370953e+27 1.9724996e+26 1.2511778e+27)
(-5.8906665e+27 1.4398553e+26 -1.1305566e+27)
(-6.0451084e+27 1.5604873e+26 -1.0479803e+27)
(-5.9487974e+27 8.0255591e+25 -1.0848881e+27)
(-8.195438e+27 -5.1423735e+25 1.1305888e+27)
(-5.9634752e+27 1.375958e+26 -1.2272308e+27)
(-8.2082955e+27 2.0783977e+26 1.1145439e+27)
(-1.0850744e+28 -1.1691084e+26 -3.0575322e+27)
(-1.0904041e+28 -2.1582272e+26 -3.0378562e+27)
(-7.6267019e+27 -4.7805415e+25 -3.3347573e+27)
(-7.7585284e+27 -1.1613166e+26 -3.2609635e+27)
(-5.8357506e+27 4.6146056e+25 -1.1272632e+27)
(-8.0452978e+27 -1.605564e+26 1.0623557e+27)
(-6.0549101e+27 1.3485758e+26 -1.021302e+27)
(-8.2969903e+27 1.57005e+26 1.1862375e+27)
(-5.960566e+27 8.4321637e+25 -1.0247412e+27)
(-8.1830884e+27 -5.031315e+25 1.1195013e+27)
(-1.9054983e+28 6.3659513e+26 1.9227618e+27)
(-2.3799243e+28 1.6258606e+26 1.9901028e+27)
(-1.593788e+28 2.9372021e+26 1.6614468e+27)
(-2.0779544e+28 3.6213972e+26 1.9875845e+27)
(-1.611918e+28 3.8845453e+26 1.7512481e+27)
(-2.0829711e+28 9.9545527e+25 2.0325848e+27)
(-1.6073529e+28 3.0158198e+26 1.6595064e+27)
(-2.0752712e+28 1.323481e+26 2.0505526e+27)
(-1.6028648e+28 3.2814143e+26 1.7549692e+27)
(-2.0625367e+28 5.0516655e+26 2.0534552e+27)
(-1.5947066e+28 4.106188e+26 1.7464962e+27)
(-1.5979987e+28 4.6811562e+26 1.7709469e+27)
(-2.0785069e+28 4.6111782e+26 2.0475476e+27)
(-2.075467e+28 1.6777028e+26 2.0597592e+27)
(-1.5895081e+28 3.2875922e+26 1.7593052e+27)
(-2.0726004e+28 5.0294247e+26 2.0653333e+27)
(-1.5996674e+28 3.9749885e+26 1.6882365e+27)
(-2.0826651e+28 2.1904595e+26 2.031492e+27)
(-1.3604224e+28 2.6165491e+26 1.7445318e+27)
(-1.3611111e+28 2.6118161e+26 1.6564113e+27)
(-1.7571706e+28 3.7182781e+26 1.9913377e+27)
(-1.763783e+28 1.6709881e+26 1.9532688e+27)
(-1.3524473e+28 2.3722567e+26 1.6302389e+27)
(-1.3573851e+28 3.032483e+26 1.6672458e+27)
(-1.759046e+28 2.5663246e+26 1.878026e+27)
(-1.7584236e+28 9.4756679e+25 1.8988653e+27)
(-1.7453612e+28 3.2761885e+26 1.8872907e+27)
(-1.335073e+28 2.3038569e+26 1.6482167e+27)
(-1.3424577e+28 2.8437143e+26 1.5895394e+27)
(-1.7531265e+28 1.5291286e+26 1.8683576e+27)
(-1.3420503e+28 2.6550846e+26 1.6157666e+27)
(-1.3488413e+28 3.499442e+26 1.6629267e+27)
(-1.746274e+28 1.1328298e+26 1.8699362e+27)
(-1.7479024e+28 2.539478e+26 1.8422658e+27)
(-1.333715e+28 2.8124234e+26 1.6794966e+27)
(-1.3397631e+28 2.8024981e+26 1.6007534e+27)
(-1.7441635e+28 1.5605209e+26 1.866192e+27)
(-1.7340135e+28 3.6834889e+26 1.8837712e+27)
(-1.3378355e+28 2.5533543e+26 1.6040468e+27)
(-1.3433441e+28 3.3657702e+26 1.6171118e+27)
(-1.7465077e+28 1.2024154e+26 1.8143104e+27)
(-1.7459027e+28 2.5004567e+26 1.7903836e+27)
(-1.3371313e+28 2.555756e+26 1.65458e+27)
(-1.3474812e+28 2.7591747e+26 1.596514e+27)
(-1.7527317e+28 1.558106e+26 1.8756291e+27)
(-1.7432495e+28 3.3817335e+26 1.8810132e+27)
(-1.3483581e+28 2.3923775e+26 1.6400235e+27)
(-1.3581551e+28 2.8483984e+26 1.6828801e+27)
(-1.754516e+28 6.6016722e+25 1.9264306e+27)
(-1.7532333e+28 2.3145207e+26 1.8900569e+27)
(-1.1730049e+28 1.9608352e+26 1.7321746e+27)
(-1.1689346e+28 8.160408e+25 1.7845987e+27)
(-1.5207145e+28 1.6002309e+26 1.7561614e+27)
(-1.5263345e+28 2.7619498e+25 1.7712703e+27)
(-1.1670148e+28 1.4583379e+26 1.7656696e+27)
(-1.1723811e+28 2.8410782e+26 1.7858441e+27)
(-1.5255228e+28 -1.9118051e+25 1.8118608e+27)
(-1.5262049e+28 1.1461885e+26 1.8160262e+27)
(-1.5201763e+28 2.3026055e+26 1.88961e+27)
(-1.1791423e+28 1.4960782e+26 1.8776358e+27)
(-1.1732794e+28 1.9842385e+26 1.7549102e+27)
(-1.5237325e+28 4.4231599e+25 1.8670091e+27)
(-1.1775554e+28 2.4358557e+26 1.8011155e+27)
(-1.1692148e+28 1.1365556e+26 1.763286e+27)
(-1.5283644e+28 1.114075e+26 1.8218833e+27)
(-1.5307193e+28 -1.6933799e+24 1.8323479e+27)
(-1.1566681e+28 9.3865913e+25 1.7683727e+27)
(-1.1565983e+28 1.8805281e+26 1.6943093e+27)
(-1.5027296e+28 1.6474011e+26 1.747459e+27)
(-1.5109027e+28 1.7242805e+25 1.7849368e+27)
(-1.5106191e+28 9.023553e+25 1.7050017e+27)
(-1.1505663e+28 9.4415155e+25 1.6798454e+27)
(-1.1610679e+28 2.4844556e+26 1.7349125e+27)
(-1.5164441e+28 -5.523728e+24 1.7541195e+27)
(-1.167437e+28 2.0870827e+26 1.7303305e+27)
(-1.1581292e+28 7.2903262e+25 1.7520012e+27)
(-1.5105203e+28 1.6537872e+26 1.7468382e+27)
(-1.5183576e+28 3.9462748e+25 1.7999606e+27)
(-1.163005e+28 2.4271924e+26 1.767866e+27)
(-1.1586654e+28 1.4783728e+26 1.735373e+27)
(-1.512187e+28 1.145316e+26 1.7891623e+27)
(-1.5122003e+28 -4.0959361e+25 1.7932983e+27)
(-2.5048682e+28 9.2866786e+25 -8.3598893e+26)
(-2.1774499e+28 5.8046191e+25 -2.9132321e+26)
(-2.1437909e+28 8.4164852e+25 -3.131005e+26)
(-2.1312029e+28 1.0511324e+26 -2.9558881e+26)
(-2.1355141e+28 3.9553694e+25 -3.4006792e+26)
(-2.631364e+28 1.7072968e+26 5.1965639e+26)
(-2.3917365e+28 3.7266728e+26 1.0670864e+27)
(-2.4086794e+28 7.3455595e+25 1.1683779e+27)
(-2.3121703e+28 1.0228084e+26 -1.4839951e+26)
(-2.3058054e+28 2.1380478e+26 -2.1040192e+26)
(-2.2915225e+28 2.3032703e+26 -9.3875951e+26)
(-2.3481314e+28 4.9124783e+25 -5.2069881e+26)
(-2.2870624e+28 2.9634496e+25 -1.0555872e+27)
(-2.3366822e+28 3.0914765e+26 -4.6587262e+26)
(-2.2925709e+28 1.2998829e+26 -1.1146384e+27)
(-2.3553236e+28 6.1388045e+25 -5.5510069e+26)
(-2.2853149e+28 3.1855865e+25 -1.0927992e+27)
(-2.3449853e+28 2.1540746e+26 -6.2890038e+26)
(-2.0273817e+28 2.8981283e+26 -1.9911748e+26)
(-2.0056565e+28 2.6325434e+26 -1.5909522e+26)
(-2.0247891e+28 1.5345064e+26 -1.3861863e+26)
(-2.0661021e+28 3.4180461e+26 -2.0629596e+26)
(-2.3079314e+28 2.9802919e+26 -9.501871e+24)
(-2.3820526e+28 1.4243213e+25 1.0931634e+27)
(-2.3548011e+28 3.9311219e+26 1.0790722e+27)
(-2.306084e+28 2.6102385e+25 -9.7649657e+25)
(-2.0170468e+28 7.391367e+25 -9.2606984e+26)
(-2.0079959e+28 8.8119879e+25 -8.7659123e+26)
(-2.0229575e+28 1.3316177e+26 -7.4156261e+26)
(-2.0322446e+28 7.4506107e+25 -7.8333797e+26)
(-2.0076811e+28 -3.1947805e+24 -9.9693292e+26)
(-2.0044281e+28 3.0027761e+25 -9.6026786e+26)
(-2.0075148e+28 1.6414313e+25 -9.223478e+26)
(-2.0059483e+28 1.9424265e+25 -8.8316512e+26)
(-1.9916783e+28 4.5660306e+25 -6.3156471e+26)
(-1.9678116e+28 1.5698889e+25 -8.824181e+26)
(-1.9663982e+28 3.4834394e+25 -8.4474688e+26)
(-1.9901576e+28 1.4631148e+25 -5.9925763e+26)
(-1.9839335e+28 5.5316579e+25 -7.875003e+26)
(-1.9794749e+28 1.1515281e+26 -7.3265259e+26)
(-1.9966755e+28 1.3553406e+26 -5.1142422e+26)
(-2.0069385e+28 3.4140789e+25 -5.3534657e+26)
(-1.9709135e+28 1.4511436e+26 -3.7635637e+26)
(-1.9759282e+28 1.3758768e+25 -4.1647979e+26)
(-2.0314728e+28 1.1932577e+25 1.1431092e+26)
(-2.0226815e+28 2.2666517e+26 1.464484e+26)
(-2.0556325e+28 3.2712075e+26 1.3722255e+27)
(-1.9965069e+28 -1.9267461e+25 5.1486339e+26)
(-1.9957856e+28 2.443888e+26 5.7511205e+26)
(-2.067417e+28 1.1625233e+25 1.3525126e+27)
(-2.070614e+28 2.6120862e+26 1.310324e+27)
(-1.9826687e+28 -7.1596933e+24 4.2749546e+26)
(-1.9860301e+28 1.5185439e+26 4.0035722e+26)
(-2.0619634e+28 -1.8001269e+25 1.3037987e+27)
(-2.0216463e+28 1.1891089e+26 5.9832399e+24)
(-1.9599712e+28 1.5830528e+25 -4.9157081e+26)
(-1.962335e+28 5.258043e+25 -5.210649e+26)
(-2.020544e+28 -2.3737507e+24 3.4626734e+25)
(-1.9745635e+28 5.5129745e+25 -8.1311624e+26)
(-1.970175e+28 4.8739155e+25 -8.5902998e+26)
(-2.0011214e+28 9.9710506e+25 -5.6923038e+26)
(-2.0032985e+28 2.8362997e+25 -5.3382104e+26)
(-2.0236801e+28 3.7945198e+25 -8.2127851e+26)
(-2.0189539e+28 5.0530743e+25 -8.60644e+26)
(-2.0013106e+28 5.7606223e+24 -1.0036268e+27)
(-2.0103136e+28 4.6759618e+25 -9.4883434e+26)
(-2.0159498e+28 5.7165305e+25 -8.4055358e+26)
(-2.0056147e+28 4.4149766e+25 -9.9234564e+26)
(-2.0004751e+28 6.8194861e+24 -9.8359907e+26)
(-2.0202705e+28 3.9855952e+25 -8.5990809e+26)
(-1.9914695e+28 8.8361742e+25 -5.9983457e+26)
(-1.9734533e+28 4.433629e+25 -8.586672e+26)
(-1.9692708e+28 5.707794e+25 -8.3202181e+26)
(-1.9963311e+28 2.6641097e+25 -6.1941146e+26)
(-1.9919197e+28 4.7915964e+24 4.9287937e+26)
(-1.9908501e+28 2.1472365e+26 4.5464512e+26)
(-2.0687552e+28 3.0098447e+26 1.3264573e+27)
(-2.0678162e+28 -2.5359245e+25 1.3579576e+27)
(-1.9858825e+28 1.3981474e+25 3.9502532e+26)
(-1.9836751e+28 1.981987e+26 4.3383982e+26)
(-2.0561681e+28 3.1444477e+26 1.2837529e+27)
(-2.0627256e+28 3.6453615e+25 1.2477026e+27)
(-2.0161381e+28 1.8187377e+26 3.1860126e+25)
(-1.9617035e+28 9.8965113e+25 -4.8505288e+26)
(-1.9669352e+28 3.0124626e+25 -5.0761606e+26)
(-2.0226202e+28 3.1306062e+25 6.3054278e+24)
(-2.0277237e+28 1.8126358e+26 6.115245e+25)
(-1.9686775e+28 1.084011e+26 -4.6978265e+26)
(-1.9697448e+28 2.9426179e+25 -4.3423743e+26)
(-2.0312817e+28 6.1930135e+24 9.8665449e+25)
(-1.6375954e+28 1.1929129e+25 -5.5800037e+26)
(-1.6683155e+28 2.9740953e+25 -4.204657e+26)
(-1.640781e+28 -2.5051368e+25 -5.6999691e+26)
(-1.6743378e+28 -3.3703734e+25 -4.2793992e+26)
(-1.6628251e+28 -3.8179071e+25 -6.2776985e+26)
(-1.6570387e+28 -5.0245871e+25 -6.4987738e+26)
(-1.6809432e+28 -1.7639443e+25 -5.7261629e+26)
(-1.676541e+28 -4.1548753e+25 -5.8859188e+26)
(-1.6563843e+28 -6.4842798e+24 -6.0969531e+26)
(-1.6735269e+28 1.3620039e+25 -5.5123678e+26)
(-1.6598951e+28 -2.3566653e+25 -6.2005769e+26)
(-1.678079e+28 -1.7167145e+25 -5.6207272e+26)
(-1.6430933e+28 -2.2548859e+25 -5.836398e+26)
(-1.6755913e+28 -8.1035412e+24 -4.5349011e+26)
(-1.6376337e+28 -4.7943382e+25 -6.0151005e+26)
(-1.6718623e+28 -5.9110236e+25 -4.6173545e+26)
(-1.6879921e+28 -3.7690927e+25 -6.3216129e+26)
(-1.7019336e+28 -2.235551e+25 -5.6430418e+26)
(-1.683211e+28 -5.5678594e+25 -6.5857342e+26)
(-1.6971937e+28 -5.1530323e+25 -5.8445167e+26)
(-1.6824214e+28 -5.1705672e+24 -6.1220861e+26)
(-1.6942208e+28 2.8329034e+24 -5.5078564e+26)
(-1.6852198e+28 -2.494534e+25 -6.2617174e+26)
(-1.6988878e+28 -2.5651065e+25 -5.5939817e+26)
(-1.7372686e+28 8.8923515e+24 -6.0892209e+26)
(-1.7409804e+28 -2.4582837e+25 -6.191557e+26)
(-1.760478e+28 1.0492356e+25 -7.8750516e+26)
(-1.7620722e+28 -3.4846639e+25 -7.9650755e+26)
(-1.7442909e+28 -1.6031099e+25 -6.2446217e+26)
(-1.7400773e+28 -5.3211877e+25 -6.4771409e+26)
(-1.760566e+28 -6.0346594e+25 -8.2809812e+26)
(-1.7660231e+28 -1.6542369e+25 -8.0408774e+26)
(-1.6161525e+28 -4.3853107e+25 -6.5746862e+26)
(-1.6216143e+28 -3.1609711e+25 -6.5560329e+26)
(-1.6494313e+28 -2.2073038e+25 -5.0855783e+26)
(-1.6569042e+28 -4.6412916e+25 -5.0364901e+26)
(-1.6437337e+28 -3.3039271e+25 -6.5380859e+26)
(-1.6628716e+28 -1.397569e+25 -5.9557663e+26)
(-1.6632443e+28 -3.3861842e+25 -5.8820791e+26)
(-1.6336593e+28 -6.492222e+25 -7.1796725e+26)
(-1.65191e+28 -4.3125246e+25 -6.5233005e+26)
(-1.6399278e+28 -2.643787e+25 -7.1542187e+26)
(-1.6587404e+28 -2.6909881e+25 -6.5023034e+26)
(-1.6256577e+28 -1.6309424e+25 -6.0495875e+26)
(-1.6227717e+28 -3.6095253e+25 -6.0417774e+26)
(-1.6595647e+28 -6.6445513e+24 -4.7108114e+26)
(-1.6578782e+28 -5.7201573e+25 -4.6313897e+26)
(-1.666484e+28 -3.0642357e+25 -6.6117893e+26)
(-1.6824488e+28 -1.8533752e+25 -5.9058313e+26)
(-1.6560559e+28 -7.126456e+25 -7.378876e+26)
(-1.6706828e+28 -5.7797491e+25 -6.6084412e+26)
(-1.6625047e+28 -2.1474722e+25 -7.4291023e+26)
(-1.678193e+28 -3.1162255e+25 -6.5824016e+26)
(-1.7059526e+28 7.8727641e+25 9.799896e+26)
(-1.7039802e+28 -1.062528e+26 9.9377693e+26)
(-1.7713369e+28 1.2851773e+26 1.5777105e+27)
(-1.7718432e+28 -9.1487924e+25 1.600169e+27)
(-1.6974002e+28 -6.6054521e+25 1.8656741e+26)
(-1.69264e+28 8.0587886e+25 2.0672892e+26)
(-1.7468013e+28 1.4919887e+26 7.1694226e+26)
(-1.7533836e+28 -4.2284297e+25 6.9013741e+26)
(-1.6979183e+28 2.4220043e+25 1.4715695e+26)
(-1.6940635e+28 -9.3654594e+25 1.5215401e+26)
(-1.7531764e+28 5.9557079e+25 6.4011053e+26)
(-1.7534057e+28 -9.3320668e+25 6.5433478e+26)
(-1.7045772e+28 -8.3175653e+25 1.0355689e+27)
(-1.7025248e+28 1.5607329e+26 1.0802305e+27)
(-1.7602794e+28 2.1500327e+26 1.6527972e+27)
(-1.7691138e+28 -3.6014767e+25 1.6268026e+27)
(-1.6482486e+28 -1.7575894e+25 -5.1353931e+26)
(-1.6854152e+28 -2.5151535e+24 -3.9240426e+26)
(-1.6431835e+28 -5.791951e+25 -5.231791e+26)
(-1.6831545e+28 -5.9952452e+25 -3.9518477e+26)
(-1.660879e+28 -4.2008931e+25 -3.2262981e+26)
(-1.6572187e+28 4.4377157e+25 -3.0501488e+26)
(-1.7103162e+28 7.5616378e+25 3.4481913e+25)
(-1.7180166e+28 -4.62014e+25 2.4396266e+25)
(-1.6420844e+28 2.1609153e+25 -4.7895344e+26)
(-1.6790281e+28 4.5631072e+25 -3.5253653e+26)
(-1.6462989e+28 -3.4480364e+25 -4.8985179e+26)
(-1.6850632e+28 -2.7912954e+25 -3.6583168e+26)
(-1.6620975e+28 -2.15785e+24 -3.4950901e+26)
(-1.658226e+28 -6.6637919e+25 -3.5361068e+26)
(-1.7176675e+28 1.8638242e+25 -1.1283591e+25)
(-1.7162804e+28 -8.532788e+25 -5.4296554e+24)
(-1.6769471e+28 1.9801314e+25 1.1512904e+26)
(-1.6819047e+28 -8.0552629e+25 1.0869482e+26)
(-1.7320337e+28 8.2670325e+25 6.1495795e+26)
(-1.7385133e+28 -6.3719154e+25 6.0205093e+26)
(-1.6874379e+28 9.4220729e+25 9.6951457e+26)
(-1.6900297e+28 -9.1580471e+25 9.4269216e+26)
(-1.7494666e+28 1.5478645e+26 1.5468548e+27)
(-1.7573082e+28 -5.5319109e+25 1.5328539e+27)
(-1.6941981e+28 9.6776981e+25 9.7205269e+26)
(-1.6919198e+28 -9.9536436e+25 9.9253018e+26)
(-1.7621274e+28 1.3265779e+26 1.5855295e+27)
(-1.7609373e+28 -1.0945859e+26 1.6135452e+27)
(-1.6851542e+28 2.980246e+25 1.332711e+26)
(-1.6817951e+28 -8.450082e+25 1.4607062e+26)
(-1.7422286e+28 7.0515477e+25 6.2795485e+26)
(-1.7424122e+28 -8.7116272e+25 6.4730894e+26)
(-1.6470417e+28 8.0860015e+22 -3.6950167e+26)
(-1.643865e+28 -5.5509694e+25 -3.6450237e+26)
(-1.7052049e+28 2.1884715e+25 -2.405265e+25)
(-1.7041627e+28 -7.8586895e+25 -1.1833752e+25)
(-1.6234326e+28 -3.2159962e+25 -5.6699574e+26)
(-1.6617446e+28 -1.0085677e+25 -4.3813852e+26)
(-1.6291513e+28 -4.5513813e+25 -5.643972e+26)
(-1.6686937e+28 -4.5785168e+25 -4.3893118e+26)
(-1.6398812e+28 -1.369538e+25 -3.917166e+26)
(-1.6441393e+28 -5.5910874e+25 -3.9638313e+26)
(-1.694883e+28 1.3299616e+25 -5.351469e+25)
(-1.7027602e+28 -6.7642041e+25 -5.2252956e+25)
(-1.6327327e+28 -1.6301417e+25 -5.3284378e+26)