/*--------------------------------*- C++ -*----------------------------------*\
  =========                 |
  \\      /  F ield         | OpenFOAM: The Open Source CFD Toolbox
   \\    /   O peration     | Website:  https://openfoam.org
    \\  /    A nd           | Version:  7
     \\/     M anipulation  |
\*---------------------------------------------------------------------------*/
FoamFile
{
    version     2.0;
    format      ascii;
    class       volScalarField;
    location    "7000";
    object      k;
}
// * * * * * * * * * * * * * * * * * * * * * * * * * * * * * * * * * * * * * //

dimensions      [0 2 -2 0 0 0 0];

internalField   nonuniform List<scalar> 
34124
(
1.5030131
1.5050945
1.5023434
1.5023282
1.5072246
1.504372
1.504405
1.5016916
1.5016047
1.5022199
1.5091798
1.5066658
1.5065521
1.5037919
1.5035219
1.5041069
1.5019651
1.5011885
1.5014539
1.5021073
1.5087703
1.5090189
1.51142
1.5064634
1.5056111
1.5062236
1.5042536
1.5029113
1.5032766
1.5040307
1.5011463
1.5016781
1.5011422
1.5016587
1.502691
1.5084216
1.5083508
1.5110448
1.5090283
1.5112792
1.5126624
1.5069316
1.5052048
1.5053555
1.5059815
1.5026627
1.5043165
1.5027476
1.5034058
1.5043128
1.5009113
1.5009584
1.501805
1.5013057
1.501993
1.5052234
1.5078599
1.5080233
1.5105776
1.5081108
1.5106984
1.5123937
1.5089198
1.5111066
1.5125247
1.513501
1.504802
1.5069341
1.504872
1.505279
1.5061339
1.5024388
1.5029127
1.5040727
1.502934
1.503594
1.5053181
1.5012801
1.5006152
1.5011805
1.5023686
1.5016569
1.5031198
1.5024603
1.5074383
1.5073762
1.5100404
1.5077918
1.5098263
1.5120191
1.5076565
1.5103293
1.5121436
1.5133623
1.5086911
1.5107416
1.5124006
1.5134538
1.5143191
1.5045399
1.5050961
1.5063257
1.5048514
1.5054153
1.5066742
1.5028617
1.5020279
1.5030993
1.5050112
1.5032279
1.5043177
1.5041071
1.5013562
1.5007098
1.5006382
1.5017913
1.5014187
1.5020742
1.5016054
1.5021487
1.5069247
1.5069032
1.5095458
1.5070862
1.5091785
1.5116499
1.5095507
1.5076487
1.5115109
1.5131989
1.5070134
1.5097764
1.5119337
1.5132745
1.5142473
1.5081329
1.5100594
1.5122321
1.5134761
1.5142729
1.5150378
1.504643
1.5040725
1.505073
1.5072167
1.5049865
1.5056515
1.5056016
1.5026563
1.5018111
1.50188
1.5038338
1.5032838
1.5032348
1.5030258
1.5034227
1.5010701
1.5018482
1.5007452
1.5013223
1.5012569
1.5010034
1.5013954
1.5017545
1.500778
1.506431
1.505997
1.5089668
1.5066608
1.5086766
1.511359
1.5089838
1.5069286
1.5110712
1.5130249
1.5095278
1.5115574
1.5069204
1.5130517
1.5142104
1.5067782
1.5087601
1.5116792
1.5132751
1.5142011
1.5150554
1.50863
1.5096015
1.5118107
1.5135854
1.5143533
1.5150288
1.5156596
1.5041461
1.5033461
1.5038505
1.5058448
1.5056438
1.5046938
1.5043911
1.5047696
1.5020259
1.5030867
1.5018707
1.5029522
1.5030072
1.5024568
1.5026104
1.5026948
1.5018825
1.5008188
1.5007311
1.501712
1.5010688
1.5012764
1.5007853
1.5008355
1.5013201
1.5006061
1.5008172
1.5064003
1.5082323
1.5052825
1.5058687
1.5077601
1.5110758
1.5088358
1.5063414
1.5108571
1.5129993
1.5090973
1.511105
1.5059669
1.5129165
1.5141165
1.5117045
1.5086332
1.5132592
1.5064865
1.5144241
1.5150656
1.5076633
1.5085088
1.5110595
1.5133548
1.5142321
1.5150105
1.515691
1.5100475
1.5076991
1.5115355
1.5134909
1.5145916
1.5150421
1.5156633
1.5158834
1.503358
1.5048616
1.5035004
1.5049027
1.5052295
1.5044462
1.5039176
1.5041906
1.5032803
1.50189
1.501697
1.5030122
1.5020535
1.5026335
1.5022967
1.5017559
1.5022749
1.5016457
1.5014551
1.5011074
1.501628
1.5007197
1.5011124
1.5008942
1.5009995
1.5004072
1.5006835
1.5007795
1.5003804
1.5013907
1.5066866
1.5094457
1.5055704
1.5072593
1.5109797
1.5064329
1.5070355
1.5080441
1.5104685
1.5129468
1.5083433
1.5112565
1.5054317
1.5131874
1.5141461
1.5115105
1.5078013
1.5131946
1.5062097
1.5143899
1.5150251
1.510879
1.5134642
1.5087525
1.5147408
1.5054323
1.5152656
1.5156961
1.5093369
1.5071793
1.5107096
1.5132309
1.5145178
1.5149887
1.5156712
1.5159028
1.5095534
1.5117324
1.5065537
1.5138781
1.5147288
1.5152623
1.5156611
1.5159452
1.5158927
1.5033104
1.5034985
1.5044675
1.5036189
1.5042464
1.5043166
1.5029355
1.5036633
1.5030894
1.5024921
1.5021288
1.5025637
1.5018839
1.5023671
1.502093
1.5022383
1.5011469
1.5015069
1.501933
1.5010285
1.5022986
1.50137
1.5009871
1.5009844
1.5012118
1.5010276
1.5011181
1.5004789
1.5004404
1.5018392
1.5002897
1.5009839
1.5019502
1.5091312
1.5060848
1.5052771
1.5086947
1.5118591
1.5058725
1.5102599
1.5112049
1.513456
1.505843
1.5091497
1.5066747
1.5112827
1.5127201
1.5145339
1.5105449
1.5072201
1.5132937
1.5056227
1.5145617
1.5150317
1.5104867
1.5133842
1.5082695
1.5146935
1.5056466
1.5153055
1.5156944
1.5125705
1.5104826
1.5146814
1.5083982
1.5155705
1.5042248
1.5157084
1.5159634
1.5091596
1.511284
1.5064331
1.5131157
1.5147008
1.5152339
1.5156576
1.5159283
1.515936
1.5117725
1.5090732
1.5138545
1.50444
1.5148246
1.5154919
1.5156952
1.5159939
1.5159766
1.5158471
1.5039197
1.5040308
1.5037633
1.5043499
1.5038504
1.5041161
1.5022497
1.5029087
1.503779
1.5020841
1.5034292
1.502594
1.5027025
1.5020739
1.5026045
1.5020878
1.502302
1.5011142
1.5010813
1.5039339
1.500883
1.5018688
1.5035897
1.5011492
1.5011692
1.5008908
1.5015618
1.5011498
1.5002814
1.5005473
1.5003495
1.5011354
1.5019672
1.500601
1.5014861
1.5017894
1.511768
1.5081257
1.5079554
1.5062809
1.5059836
1.5062774
1.5101156
1.5118257
1.5136676
1.5065805
1.5085915
1.5134652
1.5144296
1.514877
1.5066214
1.5093799
1.5115649
1.506563
1.5139963
1.5146837
1.5153857
1.5098837
1.5131184
1.5078923
1.5147387
1.5061599
1.5153756
1.5156904
1.5123297
1.5100565
1.5147447
1.5081228
1.5156158
1.5041905
1.5157229
1.5159752
1.5118436
1.5137423
1.5108286
1.515352
1.5071682
1.5160081
1.5045057
1.5158993
1.5160009
1.5111759
1.5090021
1.5137868
1.5039038
1.5147905
1.5155749
1.515702
1.5159471
1.5159305
1.5159037
1.5115636
1.5139816
1.5074423
1.5148997
1.5041679
1.5154095
1.5159723
1.5159161
1.5160523
1.5159777
1.5157405
1.5046125
1.5054361
1.5039292
1.5046148
1.5037197
1.5042162
1.5022246
1.5023957
1.5064984
1.5021156
1.502843
1.5053391
1.5023604
1.5022624
1.502179
1.502575
1.5023986
1.5008409
1.5013469
1.5010573
1.5025843
1.5047432
1.5013945
1.5029048
1.5039633
1.500879
1.5013247
1.5005107
1.5009364
1.5006262
1.5008502
1.5005143
1.500381
1.5013705
1.5017259
1.5011689
1.5017938
1.5015433
1.5027636
1.5106475
1.51137
1.5138965
1.5082369
1.5082982
1.5094247
1.5061324
1.5065588
1.5073666
1.5083083
1.509912
1.5137487
1.5142965
1.515055
1.5072205
1.5095995
1.5122064
1.5151512
1.5154084
1.5155444
1.5069675
1.511829
1.5094224
1.5140584
1.5039322
1.5150958
1.5157299
1.515714
1.51265
1.5099513
1.5148437
1.5084842
1.5156691
1.5045745
1.515671
1.5159912
1.5118441
1.5136624
1.5105815
1.5154059
1.5072541
1.5160212
1.5039717
1.5159247
1.5159804
1.513179
1.5122497
1.5146711
1.5102863
1.5157531
1.5077063
1.5161577
1.5159969
1.5113953
1.5134525
1.5074555
1.5152484
1.5037936
1.5156147
1.5159266
1.5159234
1.5159406
1.5158858
1.515795
1.5137991
1.511153
1.5149934
1.5096805
1.5155366
1.5157781
1.5159286
1.5159716
1.5161029
1.5159466
1.5154141
1.5047774
1.5042578
1.5044739
1.5046143
1.5044878
1.5019093
1.5026169
1.5027729
1.5054967
1.5089449
1.5023625
1.5050223
1.506547
1.502225
1.5025679
1.5014159
1.5021265
1.5014567
1.5021074
1.5011899
1.5011272
1.5042612
1.5038054
1.5042546
1.5030784
1.5033114
1.505109
1.5004464
1.5002669
1.5010021
1.5005656
1.5011198
1.501426
1.5004623
1.5009977
1.5005145
1.5015228
1.5010282
1.50255
1.5017241
1.5021558
1.5018972
1.5105714
1.5127881
1.5106903
1.5128516
1.5143049
1.5150435
1.5089604
1.5102942
1.5089642
1.5112679
1.5071849
1.5050563
1.5069233
1.5081753
1.5075874
1.5133798
1.5098906
1.515375
1.5156079
1.5158278
1.5077392
1.5131029
1.5098225
1.5151204
1.515697
1.5159054
1.515645
1.5056545
1.5117719
1.5138292
1.5085617
1.5156062
1.5042597
1.5044614
1.5157357
1.515962
1.5159665
1.515636
1.5119541
1.5138314
1.5105232
1.5154679
1.5074024
1.5160329
1.5039105
1.5039077
1.5159074
1.5155258
1.5159954
1.5132069
1.5123723
1.5146423
1.5104362
1.5158191
1.5077605
1.5161545
1.5159535
1.5138659
1.5144081
1.5125096
1.5154443
1.5102435
1.5161123
1.5098665
1.5162227
1.5159423
1.5136424
1.5111068
1.515314
1.509175
1.5158299
1.5159023
1.5160122
1.515961
1.5159056
1.5157914
1.515578
1.5135408
1.5149755
1.5127357
1.5156003
1.5122011
1.5158148
1.5159859
1.5160932
1.5161649
1.5158218
1.5150271
1.5046474
1.5048144
1.5030781
1.5044591
1.5026874
1.5050795
1.5020731
1.5024305
1.5024359
1.5040333
1.5078087
1.506758
1.5094825
1.5049119
1.5058173
1.5073694
1.5015151
1.5011074
1.5025857
1.5014826
1.5029678
1.5028067
1.5015267
1.5021614
1.5016465
1.5035754
1.5031849
1.5048013
1.5035744
1.5041795
1.5043157
1.5008518
1.5007984
1.5003998
1.5011564
1.5017846
1.5005563
1.5026235
1.5015974
1.5008548
1.5015718
1.5013191
1.5022254
1.501815
1.5027524
1.5126038
1.5112585
1.5108869
1.5142113
1.513273
1.5127931
1.5139729
1.5150289
1.515566
1.5156727
1.510157
1.5097956
1.5116241
1.5083984
1.5113251
1.5056428
1.5060588
1.50514
1.5052508
1.5077266
1.5080426
1.508345
1.5155774
1.5130733
1.513142
1.5159008
1.5162129
1.5160514
1.508433
1.5152171
1.5125585
1.5103814
1.5160428
1.5159737
1.5160218
1.5158898
1.5158366
1.5062974
1.5069907
1.5138888
1.5118067
1.5152932
1.5103866
1.5160771
1.5047043
1.5160043
1.51611
1.5160003
1.5158341
1.5134643
1.5127084
1.5147453
1.5104199
1.5158593
1.5076309
1.5162069
1.5037964
1.5157285
1.5159816
1.5139562
1.514399
1.5127458
1.5154623
1.5105239
1.5161331
1.5091621
1.516192
1.5159056
1.5152067
1.5141225
1.5153678
1.5121002
1.5161567
1.5122513
1.5098618
1.5162815
1.5163274
1.5158335
1.5136268
1.5152842
1.5125761
1.5158943
1.5115037
1.5160889
1.5160382
1.5160178
1.5158323
1.5156733
1.515359
1.5148279
1.5142574
1.515584
1.5158652
1.5124498
1.5149422
1.5157999
1.5156729
1.5162384
1.5162042
1.515689
1.5159843
1.5033809
1.5029722
1.5054414
1.5029939
1.5058243
1.5046862
1.5046753
1.5037229
1.5028308
1.5041792
1.5032897
1.5076171
1.5075044
1.5072834
1.5058575
1.5066772
1.5072964
1.5017691
1.5020687
1.5012049
1.5026577
1.5029717
1.5018554
1.5041411
1.5037139
1.5025468
1.5032682
1.5033039
1.5039083
1.5040854
1.5054318
1.5013979
1.5004251
1.5004528
1.5008781
1.5010045
1.5047335
1.5022263
1.5020261
1.5007729
1.5015272
1.5012634
1.5012325
1.5019148
1.5022919
1.5036257
1.5140768
1.5133828
1.5131976
1.511608
1.5121465
1.5152608
1.5150915
1.5145216
1.5142006
1.5155792
1.5138957
1.5158243
1.5159233
1.5095968
1.5145506
1.5101067
1.5058929
1.5110242
1.5115528
1.5063203
1.5043322
1.5072129
1.509476
1.5098407
1.5154313
1.5163084
1.5158952
1.5131726
1.5117711
1.5129139
1.5162346
1.5164088
1.5165684
1.5160681
1.5147838
1.5160724
1.5163179
1.5159223
1.5051355
1.5140577
1.5154698
1.5126627
1.5161499
1.5118253
1.5162634
1.5161262
1.5161109
1.5141853
1.5145529
1.5127411
1.5155244
1.5106673
1.5161994
1.5087698
1.516275
1.5159513
1.5152645
1.5142384
1.5154158
1.512687
1.5162035
1.512006
1.5092826
1.5161904
1.5163952
1.5158224
1.5151107
1.5160731
1.5136009
1.516174
1.5144412
1.5123174
1.5102115
1.516319
1.5163449
1.516494
1.5156668
1.515051
1.5142401
1.5158599
1.5161241
1.5109714
1.5148035
1.5161529
1.5161054
1.5159375
1.5157451
1.5155739
1.5160409
1.5151508
1.5155251
1.5158089
1.5157989
1.5100659
1.5147325
1.516042
1.5154847
1.5155002
1.5161222
1.516309
1.5163103
1.5176826
1.503631
1.5055617
1.5026378
1.5053224
1.5048908
1.5060224
1.5063523
1.5071766
1.5059072
1.5057285
1.5066429
1.5062299
1.5070242
1.5082883
1.5024326
1.5011511
1.501353
1.5019129
1.5025208
1.5055796
1.5040907
1.5038225
1.5022066
1.5032988
1.5032616
1.5037148
1.5041312
1.5050256
1.5074087
1.5004493
1.5006349
1.5009954
1.5009819
1.5029393
1.5045635
1.501975
1.5011758
1.5013304
1.5013862
1.5018109
1.5011409
1.50554
1.5024711
1.5024597
1.5085468
1.5151818
1.5146939
1.5149934
1.5138811
1.5140964
1.5137432
1.5157577
1.515499
1.515733
1.5142177
1.5153526
1.5162245
1.5094156
1.5123607
1.5093788
1.5161739
1.5150365
1.5137287
1.5151029
1.5099593
1.5065925
1.5060058
1.5056055
1.5137315
1.511166
1.5090793
1.5094875
1.5163135
1.5140293
1.5164153
1.5162123
1.5152454
1.5146927
1.5154341
1.5159217
1.5104936
1.5078755
1.5085664
1.5157839
1.5166038
1.5163496
1.5166627
1.5165012
1.5163513
1.5163692
1.5163578
1.5152545
1.514297
1.5161252
1.5162897
1.5090171
1.5152099
1.5163349
1.516348
1.5160721
1.5153713
1.5144461
1.5155252
1.5129585
1.5163061
1.5118005
1.508794
1.5163033
1.516528
1.5158589
1.5152864
1.5161107
1.5138099
1.5162314
1.5145541
1.5119491
1.5099309
1.5161497
1.5163971
1.5166438
1.5156875
1.5159938
1.514694
1.5165028
1.5152517
1.5161978
1.515029
1.5129327
1.510517
1.5162334
1.5164765
1.5160286
1.516439
1.5160745
1.5153026
1.5157153
1.5161269
1.5161598
1.5088545
1.513733
1.5161839
1.5161757
1.516028
1.5158361
1.5156526
1.5158214
1.5163889
1.5157226
1.5157838
1.5156288
1.5084405
1.5133014
1.5158515
1.5158431
1.5163018
1.5156893
1.5157222
1.5153666
1.5160682
1.5168718
1.5171664
1.5157398
1.5044148
1.5026356
1.5034699
1.5037088
1.5063013
1.5073124
1.5062969
1.5068214
1.5052163
1.5058696
1.5061286
1.5078977
1.5068469
1.5078313
1.5103914
1.5013464
1.5015868
1.5020233
1.5024357
1.5043933
1.5060724
1.5036327
1.5028062
1.503234
1.5030714
1.503916
1.5032333
1.5095886
1.5050776
1.5055137
1.5112304
1.5005112
1.5007349
1.5008697
1.5031677
1.5023047
1.5029896
1.5009331
1.5011769
1.5009845
1.5017529
1.5009851
1.5035874
1.5024531
1.5051972
1.5154478
1.5039074
1.5058882
1.5098028
1.515742
1.5115215
1.5088017
1.5099199
1.5142023
1.5120476
1.5082988
1.5161209
1.5158394
1.5162038
1.5165639
1.515228
1.51395
1.5123485
1.5093593
1.5064378
1.5057595
1.5062725
1.506976
1.5041832
1.5123685
1.5111187
1.515166
1.5156433
1.5165786
1.5159075
1.5161205
1.5163125
1.5162569
1.5153618
1.5089958
1.5052291
1.5078123
1.5163203
1.516678
1.5167203
1.5166914
1.5164206
1.5163455
1.5158032
1.5162761
1.5085645
1.5116739
1.5161338
1.5164047
1.5163009
1.5159805
1.5155168
1.516137
1.5146256
1.5111369
1.5093798
1.5162413
1.5165555
1.5167211
1.5156669
1.5160638
1.5148685
1.5165456
1.5154303
1.5165706
1.5140543
1.5122941
1.5098612
1.515989
1.5163678
1.5166629
1.5164824
1.5157105
1.516338
1.5170126
1.5144785
1.5140515
1.5123354
1.5162303
1.5164368
1.5167219
1.5159642
1.5158993
1.5160152
1.5161788
1.5079204
1.5125053
1.5153496
1.5160692
1.5165051
1.5161654
1.5161546
1.5159421
1.515693
1.5156972
1.5158614
1.5159337
1.5096454
1.5123383
1.5149292
1.5164957
1.5162778
1.5156198
1.515274
1.5165516
1.5177029
1.5166698
1.5111642
1.5032464
1.5033037
1.5066466
1.5079732
1.5054823
1.5057543
1.5061589
1.505274
1.5064215
1.5074894
1.5127369
1.5079578
1.5099199
1.5132457
1.5013896
1.5016513
1.5021241
1.5050547
1.5039349
1.5061592
1.5021441
1.5026958
1.5024
1.5034725
1.5027424
1.505148
1.5057587
1.5089454
1.5147926
1.5071613
1.5083931
1.5129361
1.5022235
1.5052172
1.5021972
1.5039837
1.5009858
1.5014934
1.5026476
1.503013
1.5074079
1.513241
1.5222058
1.5053491
1.5087664
1.5141969
1.5106737
1.5131636
1.511636
1.5103914
1.5083156
1.5110626
1.5157882
1.5135046
1.5100388
1.507284
1.5160776
1.5152754
1.5164441
1.5149771
1.5165717
1.5160549
1.5167702
1.5137184
1.5113972
1.5088279
1.5046022
1.5029724
1.504259
1.5045836
1.5039007
1.5114329
1.5139888
1.5099519
1.5134858
1.5160332
1.5162132
1.5167046
1.5159273
1.5161042
1.5161468
1.5163254
1.5163795
1.5096885
1.5092023
1.5168802
1.5166623
1.5166336
1.5160493
1.5080808
1.5114692
1.5142627
1.5164948
1.516398
1.5162358
1.5157216
1.5164579
1.5132211
1.5116053
1.5097942
1.5159969
1.5164583
1.516837
1.5155714
1.5169747
1.5160139
1.5140773
1.5133517
1.5116391
1.5160094
1.5162705
1.5166975
1.5157163
1.5163632
1.5173943
1.5157864
1.5161022
1.515434
1.5181401
1.516912
1.5158066
1.5095293
1.5116918
1.5146883
1.5163577
1.5165413
1.5160666
1.5158361
1.5156764
1.5156955
1.5158185
1.5138328
1.5140467
1.514162
1.5160728
1.5164611
1.5162637
1.5154163
1.5155222
1.5166552
1.5186664
1.5135262
1.5138095
1.5080202
1.5062668
1.5090162
1.5051254
1.5060965
1.505834
1.5070787
1.5091617
1.5130581
1.5154414
1.5102892
1.5122875
1.5166226
1.5047376
1.5075765
1.5038957
1.5068226
1.5023671
1.5034783
1.5047984
1.5055782
1.510217
1.5137472
1.5180071
1.5084674
1.5128165
1.5162482
1.5048804
1.5014496
1.5062448
1.5013965
1.5056705
1.5019876
1.5012824
1.5073662
1.5060124
1.5137911
1.5203946
1.5175872
1.513639
1.5161222
1.5097855
1.5134562
1.5097637
1.5121911
1.5145289
1.5133137
1.5129558
1.5123552
1.5110668
1.5086697
1.5104973
1.5117996
1.51209
1.5108054
1.5146887
1.5165064
1.5115624
1.5091223
1.5077888
1.5150077
1.5166237
1.5168132
1.5132553
1.5110923
1.5109554
1.5128892
1.5131399
1.5152855
1.5117621
1.5124329
1.5152153
1.5166933
1.516726
1.5166637
1.5108747
1.5085722
1.5084994
1.5104228
1.5102046
1.5169892
1.5164616
1.5163603
1.5159823
1.5157518
1.5160155
1.5162626
1.5097551
1.5114494
1.5138905
1.5159698
1.516651
1.5163087
1.5160515
1.5155858
1.517015
1.5149181
1.5133779
1.5131348
1.5116525
1.5160185
1.5162865
1.5167523
1.5155576
1.5170632
1.5169146
1.515774
1.5151902
1.5145687
1.5164408
1.5165921
1.5156445
1.5163899
1.5172123
1.5167026
1.5173615
1.5169841
1.5197427
1.5174638
1.5171501
1.5155473
1.5138624
1.5139286
1.5161849
1.5166124
1.5164283
1.5159171
1.5158076
1.5156902
1.5156138
1.5151108
1.5146508
1.5162908
1.5153212
1.5164267
1.5165357
1.5160869
1.5161544
1.5150953
1.5143275
1.5153705
1.5145347
1.5143383
1.50852
1.5104782
1.5061943
1.5106244
1.5051253
1.5067595
1.5073678
1.5087791
1.5131054
1.5152612
1.5175358
1.5124672
1.5164133
1.5183064
1.5072762
1.5039147
1.5096676
1.5031414
1.5088339
1.5040405
1.503318
1.5093379
1.5086153
1.5131338
1.5176957
1.5186063
1.5139311
1.5171285
1.5153896
1.5028643
1.5066811
1.5031487
1.5113169
1.5017611
1.5011893
1.5049859
1.5089564
1.5160151
1.5167192
1.5135017
1.5328395
1.5147925
1.509987
1.5176995
1.5140895
1.5149484
1.5147284
1.5123915
1.5115464
1.5101815
1.5136296
1.5158059
1.5146286
1.5145802
1.5132497
1.5115566
1.5090005
1.5110232
1.5118191
1.5113913
1.5157749
1.5133603
1.5169551
1.5108824
1.510106
1.5104379
1.5148167
1.516148
1.5166894
1.5130205
1.5106401
1.5134004
1.515541
1.5152431
1.5135519
1.5147768
1.5163613
1.5133602
1.5148116
1.5163493
1.5169066
1.5163882
1.5110919
1.5095203
1.5096119
1.510519
1.5167659
1.5169376
1.5171011
1.5161644
1.5158397
1.5160023
1.5155895
1.5155868
1.5138396
1.5157396
1.5166334
1.5165908
1.5160947
1.5155908
1.5171607
1.5164313
1.5148788
1.5144322
1.5165593
1.5155088
1.5170336
1.5173013
1.516957
1.5164984
1.5164121
1.5180548
1.5163107
1.5164709
1.5154405
1.5161314
1.5163624
1.5175253
1.518219
1.51747
1.5194672
1.5157379
1.5156525
1.5155975
1.5151383
1.5160878
1.5151821
1.5161461
1.5166981
1.5165245
1.5162571
1.5157918
1.5157284
1.5154279
1.5151669
1.5148766
1.5177495
1.5172315
1.5163921
1.5170252
1.516899
1.5159058
1.5159638
1.5155012
1.5158866
1.5151609
1.514832
1.5143928
1.5110723
1.5079181
1.5061525
1.511963
1.5071582
1.5065885
1.5107536
1.5153256
1.5174983
1.518755
1.5162576
1.5187452
1.5181489
1.5061094
1.5114692
1.5057209
1.5149856
1.5039897
1.503066
1.5074701
1.5110931
1.5158901
1.5184354
1.5172117
1.5199218
1.5167003
1.5123587
1.5068181
1.5041789
1.5039851
1.5296645
1.5157139
1.5007703
1.5023688
1.5068414
1.5088268
1.5119849
1.5158851
1.5284149
1.5151292
1.5095043
1.5022467
1.5167014
1.5178362
1.5189513
1.5201085
1.5198791
1.5158939
1.5151186
1.5169327
1.5159253
1.5158716
1.515154
1.5134025
1.5150858
1.5157012
1.5161473
1.5129663
1.5140083
1.5126055
1.5132194
1.5114071
1.511774
1.5149121
1.516869
1.5107731
1.5152194
1.5141459
1.5170569
1.5117949
1.5100782
1.5144959
1.5158831
1.5163284
1.5103012
1.5113418
1.5165533
1.515146
1.5160837
1.5139472
1.5176383
1.5167126
1.5170921
1.5157611
1.5158394
1.5154611
1.5166239
1.5163071
1.5147502
1.5168908
1.5167011
1.5158728
1.5165054
1.5175104
1.5171585
1.5162008
1.5158553
1.5174231
1.5169359
1.5168098
1.5158877
1.516599
1.5167068
1.5163823
1.5171587
1.5171964
1.5162573
1.5155535
1.5154764
1.5169524
1.5172281
1.5176266
1.5173446
1.5172883
1.519382
1.5185817
1.5160417
1.5169232
1.5153508
1.5161477
1.5180855
1.5182275
1.5175327
1.5192208
1.5199354
1.5140243
1.5167823
1.5159555
1.5174097
1.5151293
1.5176634
1.5169241
1.516327
1.5168434
1.5167828
1.5163026
1.5161181
1.5156936
1.516076
1.5153551
1.5152446
1.5148883
1.5189686
1.517385
1.5144738
1.5167914
1.5167466
1.5166263
1.515986
1.5158715
1.5154399
1.515921
1.5151122
1.5148724
1.5146859
1.5104381
1.5095857
1.50736
1.5064715
1.5172498
1.5184863
1.5190646
1.5193154
1.5186363
1.5154571
1.5104526
1.5072286
1.5062272
1.5234019
1.5156759
1.5028809
1.5051998
1.5112506
1.5116726
1.5155527
1.5180101
1.5239896
1.5169112
1.5127892
1.5053988
1.5076441
1.5039984
1.5014347
1.5139443
1.5188204
1.5151144
1.5024845
1.5161233
1.5155931
1.5242969
1.5256773
1.5421837
1.5144204
1.5106074
1.5024282
1.5011432
1.5199346
1.5183203
1.5197087
1.5193034
1.5201125
1.5207591
1.5209789
1.5197256
1.5207085
1.5194717
1.5170564
1.5179623
1.5174165
1.5166786
1.5167133
1.5173886
1.5173538
1.5172909
1.5164991
1.5169037
1.5129898
1.5130814
1.5176392
1.5132715
1.5124072
1.5158687
1.5113998
1.5144614
1.5171361
1.5092517
1.5071262
1.5102527
1.5146282
1.5180297
1.5179757
1.517026
1.517787
1.5169845
1.5164252
1.5189903
1.517946
1.517672
1.5176642
1.5170094
1.5169228
1.516855
1.5168409
1.5161466
1.516773
1.5168851
1.5161585
1.5178581
1.517188
1.5174325
1.5173511
1.5173072
1.5160849
1.5157853
1.5161763
1.5173584
1.5169752
1.5164928
1.5162524
1.5168111
1.517138
1.5154461
1.5170852
1.5180992
1.5178073
1.5176917
1.5192343
1.5201068
1.5192285
1.5169045
1.5159906
1.5184162
1.5153529
1.5174256
1.5178127
1.5167763
1.5202738
1.5176206
1.5200043
1.5174536
1.5207654
1.5167449
1.5180491
1.5159566
1.5174671
1.5150843
1.5189181
1.517654
1.5169055
1.5168905
1.5168473
1.5166274
1.5161765
1.5159684
1.5156246
1.5164637
1.5153458
1.5152508
1.5150082
1.520138
1.5195889
1.5168897
1.516538
1.51668
1.5162248
1.5164387
1.5162185
1.5158361
1.5164564
1.5154033
1.5161573
1.5150632
1.5149812
1.5151782
1.5092052
1.5181375
1.5191144
1.5218407
1.5187841
1.5161588
1.5114574
1.5117258
1.5071067
1.5046871
1.5175615
1.5191637
1.5147161
1.5056435
1.5164903
1.516691
1.5175374
1.5198956
1.5246882
1.5197839
1.513062
1.5062033
1.5034167
1.5060771
1.5017737
1.5046888
1.5109617
1.5204817
1.530772
1.504986
1.5148488
1.5117538
1.5299063
1.5141687
1.5052298
1.5475895
1.5120749
1.5146898
1.5036034
1.5013907
1.5010169
1.5190404
1.5200583
1.5173407
1.5193983
1.5204993
1.5200784
1.5209775
1.5215807
1.5200546
1.5207338
1.5199248
1.5206199
1.5218661
1.5179166
1.5185697
1.5198652
1.5199971
1.5183647
1.5182735
1.5178752
1.5171961
1.5179728
1.5182658
1.5178149
1.518169
1.5177939
1.5085981
1.5114156
1.5086509
1.5123361
1.5125002
1.5167471
1.5183119
1.5131591
1.5105148
1.5172441
1.5185635
1.5197542
1.518352
1.5194466
1.5190629
1.5178049
1.5172344
1.5180161
1.5191916
1.5200553
1.51809
1.5165436
1.5176306
1.5170134
1.5169071
1.5167508
1.5166253
1.5168027
1.5166891
1.5165679
1.5178019
1.5169202
1.5174405
1.5160265
1.5160302
1.515757
1.5174344
1.5170117
1.5154235
1.5182038
1.5180901
1.5181868
1.5195309
1.5178033
1.5206761
1.5181877
1.5205417
1.5167613
1.5184498
1.5159638
1.5182911
1.5153418
1.5176583
1.5195267
1.5169562
1.516052
1.5208173
1.5205939
1.5191408
1.5166694
1.5158491
1.5150977
1.5202292
1.5190496
1.5177074
1.5169259
1.516952
1.5167046
1.5166711
1.5164937
1.5158758
1.5163977
1.5156048
1.5165515
1.515331
1.5152481
1.5153406
1.5224822
1.5207263
1.5201464
1.517244
1.5166837
1.5170115
1.5158433
1.5153869
1.5150409
1.5152489
1.5149328
1.519444
1.5217712
1.5218416
1.5168488
1.5123563
1.5072832
1.5142558
1.5094287
1.5042559
1.5076185
1.5145557
1.5191662
1.5221418
1.5079216
1.5176431
1.5146357
1.5208755
1.5147471
1.5087571
1.523185
1.517546
1.5197982
1.50739
1.503975
1.5028133
1.5047717
1.5149552
1.5103544
1.5391333
1.5204815
1.5374245
1.5225938
1.5300798
1.5447496
1.5087119
1.5162953
1.5286864
1.5019658
1.5008918
1.5032314
1.5175445
1.5196385
1.5204723
1.5194673
1.5195415
1.5181683
1.5209379
1.5204913
1.5215468
1.5219979
1.5202393
1.518932
1.5202239
1.5208002
1.5198577
1.5174693
1.5175076
1.5179663
1.5174079
1.5192957
1.5223761
1.5201627
1.5189269
1.5218018
1.5206699
1.5203993
1.5208865
1.5224432
1.522315
1.5166442
1.5183903
1.5181814
1.5173915
1.5197237
1.5193283
1.5199427
1.5185473
1.5185519
1.5185107
1.5181672
1.522409
1.5193409
1.5202377
1.5201752
1.5203511
1.5200431
1.5178434
1.5205376
1.5191033
1.5170565
1.518604
1.5217291
1.5164632
1.5176565
1.5177077
1.5181136
1.5176035
1.5173759
1.517394
1.5167731
1.5159944
1.5159879
1.5157362
1.5170539
1.5154044
1.5179445
1.5193571
1.5170552
1.5160125
1.5210715
1.5208252
1.5183607
1.5166791
1.5159384
1.5153441
1.5179231
1.5170411
1.5167578
1.5195322
1.5161095
1.5144629
1.5212739
1.5213978
1.5183247
1.5166544
1.5158103
1.5155262
1.5222958
1.5208366
1.519256
1.5178629
1.5169866
1.516369
1.515826
1.5156008
1.5153265
1.5153236
1.5151366
1.5233735
1.523294
1.5216065
1.5202092
1.5180203
1.5176219
1.516263
1.5158986
1.5153511
1.5152484
1.5151082
1.5151776
1.5215721
1.5212496
1.5222095
1.5132471
1.5080223
1.51423
1.5066987
1.5109681
1.5083965
1.5177078
1.5118088
1.5223591
1.5203863
1.5212539
1.5204982
1.5212779
1.5232785
1.5150576
1.5192958
1.5250231
1.5050605
1.5026476
1.5054503
1.5035726
1.5184715
1.5071246
1.5077261
1.5053724
1.5124179
1.5120314
1.5252173
1.5182374
1.5406613
1.5094569
1.5093961
1.5310201
1.5796919
1.5016104
1.5011355
1.5030211
1.5033912
1.5143176
1.5186899
1.5147481
1.5204909
1.5210129
1.5201991
1.5184055
1.5195083
1.5172161
1.5160834
1.5211641
1.5207782
1.5219727
1.520351
1.5171971
1.521741
1.5200735
1.5175994
1.521314
1.5172443
1.5173579
1.5173337
1.5174346
1.5193442
1.5176088
1.516482
1.5168379
1.5240921
1.5233145
1.5215203
1.5219916
1.5202596
1.5194613
1.5192242
1.5204242
1.5181704
1.523235
1.5216231
1.52186
1.5215645
1.5218118
1.5212518
1.5204495
1.5210014
1.5227773
1.5225186
1.5226876
1.5223825
1.5213771
1.5152469
1.5139564
1.5146758
1.5157252
1.5148299
1.5161199
1.5164683
1.5151988
1.5136048
1.5142535
1.5147835
1.5145006
1.5182959
1.5196999
1.5201149
1.5226529
1.5200474
1.5202349
1.5201987
1.5194915
1.5195205
1.51861
1.5185839
1.5183
1.5182633
1.5185824
1.5180204
1.517886
1.5170465
1.5233675
1.5225011
1.5220764
1.5219589
1.5223288
1.5221183
1.5231623
1.5230107
1.5220582
1.5191661
1.5211197
1.5209005
1.5207505
1.5223425
1.5213169
1.5225451
1.5164506
1.5176498
1.5173837
1.5175725
1.5179824
1.5173987
1.5174351
1.5180116
1.5176074
1.5174291
1.5182777
1.5164357
1.5159446
1.5167179
1.5159743
1.515727
1.5170696
1.5153915
1.5179821
1.5172955
1.5173064
1.5194046
1.5160659
1.5142049
1.5213298
1.5209472
1.5183
1.5166486
1.5159248
1.5153592
1.517118
1.5177183
1.5167414
1.5165828
1.5160533
1.5192656
1.5160715
1.5111139
1.515109
1.5214985
1.5209126
1.5183496
1.5166518
1.5158435
1.5151988
1.523068
1.523212
1.5212808
1.5194614
1.5180319
1.5170762
1.5162903
1.5158169
1.5155912
1.5153374
1.5152556
1.5153167
1.525013
1.5243853
1.5236818
1.5220283
1.5197603
1.5182892
1.5170424
1.5162795
1.5159849
1.5154577
1.5151847
1.5152284
1.514883
1.5205881
1.5216483
1.5239438
1.5099664
1.5131332
1.5062904
1.5113759
1.5083392
1.5064933
1.5195937
1.5098805
1.5107764
1.5083576
1.5193003
1.5185654
1.5191518
1.5197725
1.52097
1.5161036
1.5166935
1.5239337
1.5272011
1.5038962
1.5033606
1.5051458
1.5058859
1.5024765
1.5209738
1.5065449
1.5083667
1.502365
1.5017226
1.5046392
1.5233002
1.5098038
1.5265483
1.508455
1.5239626
1.5164703
1.529106
1.561149
1.5643322
1.5009291
1.5036556
1.5040441
1.5020401
1.5114546
1.513834
1.5152771
1.5124364
1.5212867
1.520443
1.5175659
1.5174266
1.5194901
1.5162431
1.5145109
1.5209356
1.516541
1.5167049
1.5162826
1.5159106
1.5170938
1.5168929
1.5170137
1.5171392
1.5207711
1.5165426
1.5163324
1.515352
1.5165893
1.5195204
1.5142311
1.5151718
1.515562
1.516864
1.5169732
1.51724
1.5193947
1.5172174
1.517222
1.5170887
1.5170802
1.5170771
1.5170399
1.5172999
1.5173493
1.5171281
1.5171718
1.5170187
1.5170102
1.5172271
1.5216117
1.5193429
1.5191281
1.5179229
1.5181534
1.5188204
1.5194033
1.5197673
1.5170353
1.5161332
1.5159859
1.5167503
1.5164179
1.5148309
1.5162534
1.5164035
1.5156151
1.5143985
1.5149626
1.5158417
1.5141973
1.5136708
1.5138396
1.5142022
1.5136519
1.5249211
1.5234227
1.5229676
1.5222625
1.5249702
1.52289
1.5239109
1.5206551
1.5217027
1.5202939
1.5198274
1.5197121
1.5204179
1.5203903
1.5179131
1.5179345
1.5194
1.5174156
1.5170316
1.5235038
1.5233331
1.5231312
1.5233402
1.5228971
1.5227545
1.5215568
1.5211544
1.5200221
1.5217829
1.5202052
1.5229168
1.5227875
1.522867
1.5225983
1.5227767
1.5215321
1.521653
1.5210704
1.5135603
1.5116934
1.5121432
1.5126321
1.5122872
1.5151598
1.5139779
1.5161169
1.514756
1.5125616
1.5161373
1.5136343
1.5097847
1.5105569
1.513234
1.5214634
1.5229168
1.5234413
1.5232526
1.5230927
1.5222276
1.5222854
1.5200557
1.5203053
1.5202512
1.5196386
1.5196665
1.5218628
1.5214543
1.5193781
1.5196409
1.5183206
1.5186233
1.5186135
1.5186417
1.5183979
1.5183707
1.517195
1.5171249
1.5181709
1.523486
1.523342
1.5235144
1.5231242
1.5232429
1.5238367
1.5238959
1.5236859
1.5236166
1.5230762
1.5209999
1.522174
1.523539
1.5253116
1.5245143
1.5232382
1.522955
1.5208795
1.5231316
1.517601
1.5179124
1.5175728
1.5175378
1.5173652
1.517419
1.5179137
1.5174282
1.5173804
1.515895
1.5164417
1.5182516
1.5166792
1.5166939
1.5182579
1.5164352
1.5159186
1.5159598
1.5157147
1.5170911
1.5153824
1.5173673
1.5178763
1.5169405
1.5167802
1.5167711
1.5193722
1.5158362
1.5105361
1.5143548
1.5214971
1.521027
1.5182772
1.5166219
1.5159192
1.5153326
1.5166184
1.5166196
1.5176759
1.5165983
1.5166351
1.5162789
1.5165191
1.5191897
1.5160327
1.512027
1.5152044
1.5215555
1.5210388
1.5183537
1.5165681
1.5158517
1.5154982
1.5248898
1.5240171
1.5237147
1.5216586
1.5197101
1.5181831
1.5170987
1.5162995
1.5158005
1.5155893
1.515312
1.5152824
1.5151043
1.5260328
1.5257633
1.5254214
1.5241736
1.5224821
1.5200309
1.5183746
1.5171157
1.5163186
1.5159838
1.5154156
1.5152225
1.5150663
1.5147737
1.5215724
1.5236158
1.5252754
1.5078809
1.5071268
1.5109311
1.5132073
1.5081497
1.5092157
1.5053062
1.520923
1.5114121
1.5122912
1.5052039
1.5038607
1.5068593
1.5223263
1.5149765
1.5228797
1.5156774
1.5208896
1.5186693
1.5230542
1.5265274
1.5278521
1.5028423
1.5060849
1.5066879
1.5045662
1.5040398
1.5029764
1.5165714
1.5158876
1.5027834
1.5059251