/*--------------------------------*- C++ -*----------------------------------*\
  =========                 |
  \\      /  F ield         | OpenFOAM: The Open Source CFD Toolbox
   \\    /   O peration     | Website:  https://openfoam.org
    \\  /    A nd           | Version:  7
     \\/     M anipulation  |
\*---------------------------------------------------------------------------*/
FoamFile
{
    version     2.0;
    format      ascii;
    class       volScalarField;
    location    "7000";
    object      nut;
}
// * * * * * * * * * * * * * * * * * * * * * * * * * * * * * * * * * * * * * //

dimensions      [0 2 -1 0 0 0 0];

internalField   nonuniform List<scalar> 
34124
(
9.3280233e-44
1.9813432e-43
6.9075186e-44
1.1500607e-43
4.3197672e-43
1.5461653e-43
5.5746564e-43
4.5434389e-44
5.537694e-44
1.4468216e-43
2.7158775e-42
5.185955e-43
6.2437261e-43
2.4519339e-43
2.5763476e-43
3.3550986e-43
2.5014036e-44
4.3273815e-44
4.7123326e-44
1.576418e-43
2.4509836e-42
1.8195701e-42
2.4902008e-42
4.4105818e-43
5.1210675e-43
7.3169236e-43
9.4755672e-44
1.0065929e-43
6.6577949e-43
3.2307249e-43
7.5017691e-45
7.9148062e-44
3.3380146e-44
1.1018104e-43
1.0455277e-43
2.3578798e-42
1.5657598e-42
2.0489185e-42
1.9452136e-42
2.1374569e-42
2.4714835e-42
2.8743429e-43
5.4053121e-43
5.2899326e-43
1.4731664e-42
3.4947849e-44
2.2118296e-43
3.2556967e-43
2.4678841e-43
6.1828783e-43
2.177386e-44
8.3840429e-44
9.4632939e-44
8.0937999e-44
9.2539437e-44
2.0244977e-43
1.4768745e-42
3.8465883e-42
2.8246042e-42
1.4386859e-42
2.0789885e-42
2.4502091e-42
5.9941534e-43
2.7873926e-42
2.7240536e-42
2.2567229e-42
9.8778524e-44
4.3412812e-43
6.9960693e-43
7.1607024e-43
1.4085135e-42
4.3285985e-44
9.6837876e-44
3.537333e-43
2.2730296e-43
4.3763819e-43
2.2325711e-43
4.8273773e-44
4.3331303e-44
9.0386052e-44
8.3230491e-44
7.9040947e-44
5.6608972e-44
6.2558275e-44
1.4578977e-42
1.7746152e-42
2.3284588e-42
2.4318175e-42
2.7487308e-42
4.2995903e-42
1.0919606e-42
2.5292626e-42
3.6194521e-42
2.7866619e-42
3.7338803e-42
3.4228534e-42
4.5285453e-42
3.1195098e-42
1.7641228e-42
2.7472763e-43
3.3996519e-43
7.4509334e-43
6.6613187e-43
1.4029372e-42
5.8468328e-43
1.3686818e-43
9.9520003e-44
2.1750004e-43
2.2736884e-43
1.7447291e-43
7.4978223e-44
1.2754886e-43
3.8302244e-44
6.6532022e-44
6.0243978e-44
6.8303914e-44
4.5153256e-44
2.345489e-44
4.4837403e-44
3.4443722e-44
1.8599557e-42
1.4723286e-42
2.4430283e-42
1.5604332e-42
1.8327965e-42
4.6567899e-42
2.1692268e-42
7.3642418e-43
2.8621811e-42
6.5537865e-42
1.6631911e-42
3.0993421e-42
3.9304645e-42
5.5779224e-42
1.5320377e-42
2.3244497e-42
4.7644505e-42
2.4646417e-42
7.887721e-42
1.737641e-42
3.2686953e-42
4.816443e-43
3.3438116e-43
5.7173842e-43
3.1126566e-43
4.2543e-43
1.8601933e-43
1.4602688e-43
2.0695211e-43
1.463563e-43
1.7421463e-43
2.6885267e-43
2.1979565e-43
6.5377435e-44
1.6294115e-43
7.3572807e-44
4.793601e-44
4.169242e-44
6.8478694e-44
5.7848244e-44
3.5370659e-44
2.3006153e-44
3.2319125e-44
3.1136188e-44
3.1964626e-44
1.4274036e-42
1.3888109e-42
3.274549e-42
8.0339151e-43
1.2914812e-42
2.9192047e-42
1.7615447e-42
5.6965443e-43
2.1753203e-42
2.1553725e-42
1.9592104e-42
1.1473221e-42
7.7362542e-43
1.6144861e-42
2.4396031e-42
1.39182e-42
3.138555e-42
2.1112311e-42
5.0122243e-42
1.6837915e-42
1.6235964e-42
1.9045223e-42
2.1767687e-42
2.5575e-42
2.6451802e-42
2.6345242e-42
1.7794402e-42
4.3242974e-42
4.8540638e-43
7.0190154e-43
1.1651199e-42
6.6893143e-43
6.3291056e-43
9.3790909e-44
2.7872025e-43
1.168553e-43
2.1663392e-43
1.2050437e-43
3.1058594e-43
2.2926453e-43
2.2000413e-43
1.236448e-43
2.4345302e-43
1.100133e-43
2.6312115e-43
4.1674271e-44
4.5259753e-44
8.2381664e-44
4.9059937e-44
3.5526039e-44
1.9736186e-44
2.0862348e-44
1.2387195e-44
3.3316976e-44
3.3440017e-44
5.0960326e-43
1.1470444e-42
1.0271195e-42
8.5005601e-43
1.6022957e-42
4.0552122e-42
1.7968115e-42
3.465489e-43
1.2942894e-42
1.7061479e-42
1.4363803e-42
2.3773885e-42
5.8995325e-43
1.306841e-42
2.2804519e-42
2.6725003e-42
6.1031815e-43
6.6499447e-43
1.6362454e-43
1.2990459e-42
1.5897698e-42
1.1727092e-42
2.1150394e-42
3.4054307e-42
1.4025593e-42
1.9966335e-42
9.9197611e-43
2.3631595e-42
1.496178e-42
1.1740751e-42
7.4230414e-43
2.265496e-42
3.7278405e-42
1.4105706e-42
3.1535021e-42
4.8965227e-42
4.236121e-43
2.8825755e-43
6.4347481e-43
5.5808578e-43
5.8424988e-43
3.6300253e-43
4.3450431e-43
2.5777079e-43
3.4211577e-43
2.2001023e-43
2.2458242e-43
2.8045389e-43
1.6484385e-43
2.0933058e-43
7.3002795e-44
7.7269241e-44
3.8538004e-44
2.0681935e-43
6.4877235e-44
1.3939801e-43
1.2289074e-43
2.5595215e-44
2.0689296e-44
2.2959542e-44
1.2563928e-44
9.6063226e-45
3.5076028e-44
4.7997368e-44
2.1290228e-44
5.7808456e-44
5.974899e-43
7.8346374e-43
8.5537202e-43
1.1108853e-42
1.5581461e-42
6.0130036e-43
1.143455e-42
8.4274332e-43
1.3399532e-42
1.2296159e-42
7.8756089e-43
1.2072359e-42
5.0842523e-43
1.1763325e-42
8.685277e-43
5.8543308e-43
4.5388594e-43
8.6315682e-43
4.8301107e-43
6.8869535e-43
1.2236879e-42
1.5115969e-42
3.859287e-42
5.3662391e-43
1.5728577e-42
4.9180222e-43
2.1886227e-42
1.99743e-42
1.2632696e-42
9.9679298e-43
8.5952143e-43
1.4889458e-42
2.1544848e-42
1.09474e-42
1.8480172e-42
4.5736834e-42
1.117244e-42
6.9323413e-43
8.4840274e-43
5.6331337e-43
2.6831241e-42
1.0292449e-42
2.7521334e-42
4.4735343e-42
8.2127528e-42
5.8896084e-43
6.8487954e-43
4.4694596e-43
3.9531082e-43
5.2448995e-43
3.8285373e-43
3.2163147e-43
2.5549701e-43
3.1915767e-43
1.7052295e-43
4.4688723e-43
9.9950864e-43
4.4259558e-43
2.2833935e-43
2.1730605e-43
4.6245476e-44
4.6996191e-44
1.5348478e-43
1.6018987e-43
5.6074862e-44
3.0795113e-43
1.1850736e-43
6.537662e-44
3.8048712e-44
2.3895908e-44
4.4782799e-44
2.9568902e-44
5.6214863e-45
1.8768303e-44
5.9377166e-44
2.6262466e-44
9.6143009e-44
3.1663231e-44
1.2294228e-42
5.2053189e-43
1.0135713e-42
1.8812154e-42
1.458195e-42
6.9048516e-43
1.0737184e-42
1.72612e-42
1.3497806e-42
7.2314253e-43
1.3686072e-42
7.9200825e-43
1.121619e-42
1.6721499e-42
1.394595e-42
1.296765e-42
7.7952404e-43
1.3485324e-42
5.3757632e-43
1.1113185e-42
8.9997277e-43
6.2992939e-43
1.1656173e-42
5.0105643e-43
9.8349318e-43
5.8971253e-43
9.4195932e-43
1.3385475e-42
1.4376033e-42
8.4862241e-43
3.2871419e-42
8.3172093e-43
1.8134764e-42
2.7143838e-43
2.3116318e-42
4.9655988e-42
1.374672e-42
6.5162228e-43
6.4042192e-43
6.6749354e-43
1.9587006e-42
1.7438335e-42
1.4383131e-42
2.8416531e-42
2.3408324e-42
5.2001415e-43
1.3557669e-42
9.4698184e-43
2.7560257e-43
8.4571271e-43
3.3081772e-42
2.2997222e-42
4.2629156e-42
3.5881982e-42
6.263759e-42
5.9720409e-43
7.8372676e-43
6.2035781e-43
5.2925831e-43
6.9796826e-43
1.8122848e-43
1.375823e-43
2.8662601e-43
3.961518e-43
1.1566063e-43
3.982812e-43
5.2419738e-43
1.4638823e-43
2.3229732e-43
2.2011177e-43
1.958511e-43
1.1266368e-43
1.5986377e-44
9.573948e-44
2.2283168e-43
6.549907e-44
1.7031984e-43
6.3938933e-44
5.8917628e-44
5.7499378e-44
2.7424318e-44
8.8268241e-44
1.8944947e-44
2.4207698e-44
4.7006973e-45
2.3690878e-44
7.4771583e-44
5.9410829e-44
4.1095331e-44
2.9025463e-44
1.9902795e-44
9.6537518e-43
7.3512417e-43
1.3401064e-42
6.8378854e-43
1.1079087e-42
1.740745e-42
9.1791051e-43
2.1358098e-42
1.4446242e-42
7.6747992e-43
1.1873613e-42
8.3704062e-43
1.4473365e-42
1.4628945e-42
7.8064412e-43
1.3690129e-42
1.2837055e-42
4.2430903e-43
1.1142127e-42
9.402158e-43
6.31143e-43
6.4349782e-43
1.270014e-42
8.478683e-43
1.9826144e-42
5.3489566e-43
7.6722698e-43
1.1441116e-42
2.0007608e-42
5.6353277e-43
3.6474374e-42
8.6567769e-43
1.7262299e-42
2.6931173e-43
1.4413246e-42
2.4317373e-42
4.3345772e-42
1.2896239e-42
1.1259212e-42
3.8538949e-42
8.7520641e-43
4.9409955e-42
4.6282804e-43
1.9148788e-42
1.5954809e-42
6.2967926e-43
1.328685e-42
5.6348639e-43
2.056221e-43
4.5506235e-43
8.4873147e-43
8.6587951e-43
1.8555964e-42
4.0120463e-42
5.6300562e-42
1.0473381e-42
4.9537264e-43
8.028819e-43
4.539816e-42
7.4041016e-43
3.3431579e-42
1.0510801e-42
1.5789567e-42
6.3263854e-42
8.6702402e-42
1.067326e-41
6.5470068e-43
3.5599706e-43
5.8360771e-43
3.0633287e-43
4.6247904e-43
2.4957737e-43
6.0961889e-44
1.7601295e-43
5.1686245e-43
1.4250334e-43
2.0920287e-43
1.3795431e-43
2.83498e-43
3.5719398e-43
2.4212128e-43
2.6915327e-43
1.5674491e-43
6.7667139e-44
1.896329e-44
5.5805798e-44
2.3369729e-43
1.6009496e-43
1.4406901e-43
1.3948131e-43
5.7969036e-44
5.7578823e-44
9.6893571e-44
4.9089596e-44
4.3164421e-44
3.6867442e-44
2.0161442e-44
1.8432653e-44
2.2299597e-44
1.2245403e-43
7.2185898e-44
4.7369979e-44
3.7187288e-44
2.5931969e-44
6.6162875e-44
1.3749029e-42
1.9291941e-42
1.1713014e-42
3.1563006e-42
9.6752615e-43
1.9174191e-42
4.7280899e-43
7.7817749e-43
8.8362133e-43
1.2275305e-42
9.5715133e-43
1.9455854e-42
1.5528214e-42
2.9869111e-42
6.279851e-43
8.8382742e-43
8.4711802e-43
1.1669821e-42
2.7712253e-42
3.2731913e-42
5.543932e-43
1.7995747e-42
1.1178651e-42
9.2431973e-43
9.9149034e-44
1.4155114e-42
9.1620465e-43
7.9576565e-43
5.765035e-43
1.2689199e-42
2.172096e-42
1.2539283e-42
2.9853328e-42
3.9503657e-43
1.6707476e-42
1.7041199e-42
1.1085527e-42
1.2759049e-42
6.190346e-43
4.6023858e-42
2.1793252e-42
1.7815474e-42
2.856873e-43
1.4443596e-42
1.0614971e-42
2.4851659e-42
5.8745056e-42
4.8792003e-42
1.0791343e-42
3.0710229e-42
2.8635488e-43
2.1206498e-42
2.0634571e-42
1.0575736e-42
4.2250076e-43
5.2482449e-43
1.6066226e-42
4.8942773e-43
1.4374041e-42
6.1411168e-43
1.1709242e-42
2.598327e-42
2.6273758e-42
7.249806e-42
8.5384707e-43
9.8689869e-43
1.4820614e-42
1.3153388e-42
4.109405e-42
2.4200899e-42
9.7974424e-43
3.316587e-42
4.211438e-42
6.3182106e-42
9.006582e-42
3.9035857e-43
1.3845029e-42
3.5550626e-43
3.9609493e-43
2.2440142e-43
1.29978e-43
4.3495278e-44
1.4728762e-43
6.3189748e-43
5.1397012e-43
1.7099535e-43
5.0840403e-43
9.7286602e-44
2.6792492e-43
2.9962174e-43
1.7461286e-43
1.6551152e-43
3.9281052e-44
1.7155416e-43
7.4926968e-44
5.3359167e-44
2.6205403e-43
3.4273856e-43
1.2889074e-43
1.4896518e-43
1.8886387e-43
1.4910014e-43
3.4079946e-44
4.2576946e-44
4.6838646e-44
2.7935094e-44
2.4577401e-44
5.7937707e-45
2.1874698e-44
2.1100665e-44
1.878627e-44
2.7280088e-44
5.5152881e-44
5.9220645e-44
4.1597041e-44
6.7344808e-44
6.6025987e-44
1.1780654e-42
2.1225439e-42
2.7949742e-42
2.5599447e-42
1.8075423e-42
3.2552156e-42
1.2951591e-42
1.4456641e-42
1.2522719e-42
2.299329e-42
1.1379842e-42
7.3439353e-43
1.1505183e-42
9.0057261e-43
7.559319e-43
1.4357118e-42
8.42201e-43
2.3820626e-42
2.180771e-42
2.5853006e-42
4.3793732e-43
1.2537394e-42
6.2069959e-43
9.6127675e-43
1.0621847e-42
3.1725901e-42
1.258512e-42
1.8204226e-43
2.2652753e-42
1.8505313e-42
1.3920327e-42
9.9612742e-43
3.5978236e-43
1.3355684e-43
8.9209915e-43
1.6696384e-42
1.1080651e-42
9.352951e-43
1.1940667e-42
1.7615351e-42
1.8043454e-42
2.9634265e-42
1.2873038e-42
2.9475584e-42
2.5724084e-43
3.5327911e-43
1.1282073e-42
7.9710729e-43
2.3924473e-42
2.3477996e-42
1.8713785e-42
1.6505979e-42
4.6624057e-43
1.7631401e-42
7.7638152e-43
1.390163e-42
1.7969709e-42
5.2305127e-42
5.8838119e-42
1.0764794e-42
6.5659171e-42
3.7636428e-43
1.6623415e-42
1.6196996e-43
1.8328066e-42
8.6277396e-42
6.0520444e-43
8.1761414e-43
5.0729852e-43
5.6042076e-43
2.9610356e-42
1.2260094e-42
7.7785544e-43
3.2401685e-42
2.3238858e-42
4.8017211e-42
7.0121106e-42
1.2984733e-42
1.4155705e-42
2.8314214e-42
5.9678589e-42
1.3862846e-42
3.7239399e-42
1.105489e-42
1.2949436e-42
7.848853e-42
6.2856258e-42
1.0004086e-41
6.0761357e-43
6.7806716e-43
3.7440369e-43
2.9032908e-43
1.1884837e-43
1.5832668e-43
8.3211088e-44
1.9353229e-43
1.1224484e-43
3.1788147e-44
5.2445732e-43
6.5269279e-43
1.0102112e-42
3.1279531e-43
1.0692079e-42
2.4017403e-43
2.6004929e-43
1.949393e-43
3.2512748e-43
1.8988307e-43
7.8074984e-44
3.5077257e-44
1.5196904e-43
4.9393653e-44
6.2523382e-44
3.0699541e-43
1.830778e-43
1.2210222e-43
2.8267224e-43
5.5879251e-43
1.551807e-43
3.6358079e-44
3.1067681e-44
3.8865692e-44
4.1319011e-44
5.5110115e-44
1.63363e-44
7.9794228e-44
4.4472436e-44
3.6511544e-44
4.0327635e-44
2.9764754e-44
7.1087872e-44
6.9522146e-44
1.0071238e-43
1.5247757e-42
2.5060592e-42
2.1069803e-42
1.0643623e-42
1.6468876e-42
3.9356634e-42
3.3482276e-42
2.0105228e-42
1.8376978e-42
4.1512018e-42
1.6683294e-42
1.2469519e-42
1.2759928e-42
1.0042612e-42
1.0518333e-42
1.1098008e-42
3.6747418e-43
2.6810192e-43
2.6394164e-43
1.6967604e-42
1.5571138e-42
7.6306289e-43
1.584622e-42
1.8593068e-42
1.2976408e-42
2.6064327e-42
5.0471722e-42
4.7213877e-42
7.6471576e-43
1.6130227e-42
1.491815e-42
3.264464e-43
1.987552e-42
1.7951558e-42
3.4807827e-42
5.1644757e-43
1.807682e-42
7.6063547e-44
4.5920976e-44
1.3500837e-42
7.0142729e-43
8.1229874e-43
6.8785921e-43
2.0867117e-42
1.1558528e-43
1.5043041e-42
2.383438e-42
2.220802e-42
1.5367416e-42
2.8829617e-42
1.4040397e-42
4.356597e-42
7.7338488e-43
3.8398539e-42
2.56107e-42
3.9591381e-42
2.2523166e-43
9.298047e-43
4.2838387e-42
4.3610901e-42
2.9851947e-42
7.2315027e-43
2.375191e-42
6.5264183e-43
1.1908987e-42
1.0530949e-42
1.6201919e-42
6.3060016e-42
4.5151955e-42
1.8182881e-42
2.9184775e-42
3.6500503e-43
2.9728756e-42
2.1898372e-43
3.9019914e-43
1.0129774e-41
2.9084258e-42
7.8217911e-42
9.8983161e-43
6.1983122e-43
2.0850749e-42
2.0904343e-42
7.8476536e-43
1.830007e-42
8.360941e-43
1.2599571e-42
6.2476775e-42
5.2992484e-42
9.0160187e-42
2.0142855e-42
3.520619e-42
2.1790226e-42
5.8107283e-42
1.2158597e-42
1.3230006e-42
1.8449827e-42
3.7243338e-42
7.3879222e-42
1.0252319e-41
7.0030813e-42
1.1292612e-41
4.518935e-43
4.3460704e-43
4.1366328e-43
4.9032188e-43
1.7497404e-43
7.6782087e-44
4.8808119e-43
1.2248236e-43
7.3219771e-44
1.3831311e-43
8.8532121e-44
4.3748457e-43
5.3043105e-43
3.9637183e-43
9.5144449e-43
7.167386e-43
3.414345e-43
1.4212813e-43
8.3923779e-44
1.7523819e-43
3.0098967e-43
1.661203e-43
9.8413601e-44
4.7824157e-43
4.5760039e-43
1.8147427e-43
8.9538663e-44
8.1269804e-44
4.5490905e-43
1.0187347e-42
1.4255401e-43
5.630227e-44
2.6767053e-44
3.1020655e-44
2.4191898e-44
2.9704519e-44
3.9908987e-43
3.3156769e-44
3.6135019e-43
2.2000125e-44
4.2399393e-44
4.2178837e-44
5.7326896e-44
6.2883584e-44
1.3395269e-43
1.5302239e-43
2.9772904e-42
3.4420233e-42
3.9115224e-42
1.5624543e-42
1.1352616e-42
2.0343275e-42
2.843534e-42
2.9424041e-42
1.7262655e-42
3.2925568e-42
3.4852762e-42
1.8621288e-42
7.47498e-42
1.3076497e-42
1.9159661e-42
1.623301e-42
8.6464615e-43
1.5481316e-42
2.1454728e-42
1.3335312e-42
1.2968069e-43
1.0520939e-42
1.0218243e-42
5.3512246e-43
2.7689984e-42
2.732924e-42
1.6685681e-42
5.7116785e-42
2.1677557e-42
9.1064461e-43
4.036653e-42
1.4275241e-41
3.02296e-42
4.9823733e-42
1.4550528e-42
1.6447772e-42
2.4211767e-42
6.0371314e-43
7.9483549e-44
1.0053117e-42
7.663026e-43
1.8146212e-42
9.6759246e-43
1.5894034e-42
3.9489555e-42
3.8294435e-42
1.4044225e-41
3.9811607e-42
3.1221176e-42
1.1750843e-42
4.6081307e-42
1.9166214e-42
6.0357691e-42
1.6707277e-42
1.0150258e-41
7.8565605e-42
1.9531738e-42
8.9826519e-43
1.7577061e-42
5.8193788e-43
2.0489368e-42
1.0250569e-42
6.9190139e-43
1.0935945e-41
2.1816499e-42
6.021056e-42
9.4437295e-43
3.1887897e-42
3.8466209e-43
1.9983249e-42
8.6826225e-43
7.504813e-43
3.483652e-43
6.6341256e-42
6.0288185e-42
5.8955829e-42
9.1904292e-42
1.0016539e-42
1.9898447e-42
1.591901e-42
2.2035202e-42
8.6904097e-43
8.3873463e-43
1.9845946e-42
8.7423479e-42
1.0078945e-41
7.0385849e-42
6.5219201e-42
1.1126635e-41
3.5109668e-42
2.6777152e-42
2.4725287e-42
2.3185929e-42
7.3598176e-43
2.3593482e-42
2.6945883e-42
3.6525507e-42
7.7442946e-42
9.4784751e-42
1.3820524e-41
8.2018516e-42
1.184999e-41
3.6613132e-43
2.6129693e-43
2.5004443e-43
4.3139149e-43
3.3293523e-43
2.338563e-43
1.1105656e-42
1.2866324e-42
4.9215553e-43
2.6378164e-43
3.8498824e-43
1.6585833e-42
4.5342517e-43
1.6059919e-42
1.2343828e-43
7.4493381e-44
8.9574001e-44
1.0985402e-43
2.2864746e-43
3.9132796e-43
4.4554298e-43
6.0811352e-43
2.8596376e-43
2.8975097e-43
2.7530437e-43
1.4388467e-43
3.9200112e-43
3.8261554e-43
3.4899037e-43
1.425215e-44
2.4122927e-44
4.4972043e-44
3.0040978e-44
2.4415487e-43
1.6354571e-43
6.069765e-44
2.1466521e-44
3.0996986e-43
4.2398294e-44
5.256917e-44
3.2551813e-44
9.3476779e-44
7.047576e-44
4.8035932e-44
9.9974468e-44
3.2855283e-42
5.4247776e-42
4.1895897e-42
1.2889259e-42
2.0656902e-42
1.4133229e-42
5.7291372e-42
2.7301531e-42
1.9115107e-42
2.190202e-42
2.284523e-42
2.6530873e-42
8.4343521e-43
1.8853336e-42
6.7550422e-43
2.6769323e-42
2.3804597e-42
2.9641694e-42
4.8182736e-42
4.595204e-42
1.0069559e-42
1.4422923e-42
3.8907081e-43
1.7157028e-42
2.4399965e-42
1.7948669e-42
1.131855e-42
1.6763143e-42
2.1384175e-42
3.5286718e-42
2.2850266e-42
3.1415558e-42
1.6730364e-42
1.5991106e-42
1.762137e-42
2.8418538e-42
6.210498e-43
9.0850332e-43
4.5620678e-42
3.6340999e-42
3.3304315e-42
2.8292401e-42
5.9748129e-42
2.1461965e-42
3.4651799e-42
3.9584912e-42
1.6031966e-42
1.6369026e-42
1.3335302e-42
4.2269388e-42
1.3662832e-42
3.7350986e-42
5.98907e-42
6.0602964e-42
8.0415909e-42
2.6115083e-42
1.7987912e-42
3.953441e-42
3.063179e-42
5.6012786e-42
1.2893878e-42
2.1360232e-42
7.7106812e-42
5.7618863e-42
7.0402542e-42
1.500166e-42
1.2948902e-42
1.2332701e-42
1.4738042e-42
6.9469436e-43
5.7891484e-43
1.048874e-42
4.8988949e-42
5.7921401e-42
2.8544009e-42
6.966367e-42
2.6005142e-42
5.0554995e-43
4.2678676e-42
7.5612941e-43
1.0793005e-42
4.9928279e-43
3.796227e-43
1.3384097e-42
7.4381475e-42
7.0113125e-42
5.0535057e-42
1.6756746e-42
1.5299858e-41
2.6524911e-42
1.3214043e-42
1.4249188e-42
2.3106944e-42
5.2630228e-43
1.0957456e-42
2.1101098e-42
3.1724401e-42
4.668629e-42
6.88917e-42
1.019874e-41
8.1337688e-42
1.255973e-41
4.7383867e-42
1.6730806e-42
3.0753344e-42
5.5268877e-43
1.1440453e-42
3.7749753e-42
3.0590731e-42
3.4184289e-42
3.0521877e-42
5.2353066e-42
5.8778394e-42
9.913482e-42
2.0064123e-41
7.9622851e-42
1.1085979e-41
3.0652543e-43
2.3028644e-43
2.0151815e-43
2.164638e-43
3.3915091e-43
4.6771095e-43
1.2129083e-42
1.1230408e-42
6.9726084e-43
5.52589e-43
3.5877716e-43
2.4818286e-43
6.6088939e-43
8.1666051e-43
1.1001835e-42
4.0130204e-44
1.4383369e-43
5.96584e-44
2.4439709e-43
2.4613297e-43
1.8383981e-43
4.2464071e-43
1.9606991e-43
3.9886971e-43
1.4085227e-43
2.6514262e-43
8.5257333e-44
1.137253e-43
1.5964107e-43
2.3944613e-43
8.5263458e-44
2.1814079e-44
1.5643022e-44
1.70546e-44
1.9980646e-43
4.6741831e-44
2.7000224e-44
9.9900123e-44
4.2705867e-44
3.0325169e-44
8.604473e-44
2.5141501e-44
1.0963798e-43
3.9999882e-44
4.4904171e-44
3.5530162e-43
9.942845e-44
3.6239621e-44
9.5135563e-44
2.8342369e-42
1.7438451e-42
9.3935272e-43
7.0870896e-43
4.9737734e-42
4.7385803e-42
1.6680172e-42
5.0722814e-43
2.1461022e-42
2.321816e-42
3.1448346e-42
3.5237715e-42
1.057219e-42
4.2560332e-42
2.8837716e-42
4.4603639e-43
3.2486026e-43
9.0087713e-43
6.0628605e-43
2.5665164e-43
1.6407788e-42
9.417857e-43
2.2192296e-42
2.9892882e-42
3.1046596e-42
1.4813492e-42
2.5211756e-42
2.2255377e-42
2.0829674e-42
1.4685516e-42
1.028559e-42
4.5251086e-43
5.5054094e-43
3.0456611e-42
3.0994391e-42
3.0186014e-42
3.7633122e-42
4.7642094e-42
5.2399051e-42
3.0528771e-42
2.7845917e-42
6.9069902e-43
1.3774937e-42
2.419209e-42
3.8917742e-42
5.5845387e-42
5.9887155e-42
1.271174e-42
1.7155311e-42
1.17901e-42
1.5999192e-42
5.7743015e-43
5.2992049e-42
4.7287893e-42
2.1193767e-42
6.338228e-42
1.0134714e-42
9.7011472e-43
2.425839e-42
1.1445527e-42
1.1366464e-42
1.2437189e-42
8.4697101e-43
7.4191417e-43
5.4528202e-42
4.4321568e-42
3.4717314e-42
9.7242326e-43
1.4781403e-41
3.8744116e-42
2.2053248e-42
3.2595443e-43
3.6361272e-43
1.8392001e-42
1.4586167e-41
6.7315524e-42
7.388752e-42
1.6316494e-41
2.9903547e-42
9.8780514e-43
2.395872e-42
5.4912087e-43
7.526532e-43
1.5054225e-42
3.0047342e-42
2.5768631e-42
1.6783948e-42
3.8871773e-42
4.3600974e-42
6.2668215e-42
1.2670552e-41
7.7525211e-42
1.1721477e-41
4.750713e-43
2.0563477e-43
1.152759e-42
2.1811945e-42
3.4636013e-42
5.1811066e-42
7.5862791e-42
1.2926939e-41
1.4072764e-41
7.1475094e-42
1.0143899e-42
1.3797441e-43
1.3786789e-43
3.2226905e-43
3.8482205e-43
1.2061923e-42
1.2688065e-42
1.0738473e-42
6.6857163e-43
3.6424752e-43
2.797949e-43
5.3109546e-43
5.9615029e-43
3.8147253e-43
1.5229643e-42
9.1179023e-44
6.808676e-44
7.248239e-44
2.7389758e-43
3.586184e-43
9.1577396e-44
2.1259545e-43
4.0660489e-43
2.4299097e-43
3.0229463e-43
2.2727787e-43
5.5053974e-43
9.8123704e-44
1.351267e-43
2.9405742e-43
1.6363981e-43
1.2754884e-43
8.2675087e-44
7.7591613e-44
1.0661082e-43
4.8098908e-44
9.7012267e-44
2.8812549e-44
6.7034816e-44
1.7809919e-44
2.9773838e-44
1.3617209e-43
2.0115471e-43
5.5423009e-43
7.5765827e-44
8.522481e-44
8.4567688e-43
1.2141143e-42
2.3378162e-42
1.0638026e-42
8.7014524e-43
8.9185561e-43
1.1092528e-42
4.7852699e-42
5.9883266e-42
2.3984204e-42
1.535293e-42
9.7732603e-43
1.3005883e-42
8.4245049e-43
1.9246994e-42
1.9373828e-42
3.4568663e-42
2.9142744e-42
3.018242e-42
2.728065e-42
1.1709757e-42
1.9404279e-43
1.5376891e-43
3.6707173e-43
3.3441059e-43
2.2831726e-43
2.0691253e-42
2.4476993e-42
9.2479726e-43
1.7262334e-42
2.7394856e-42
2.8510823e-42
2.9978851e-42
2.3651198e-42
1.6171088e-42
1.517937e-42
1.3674226e-42
3.9350416e-42
6.1352524e-43
3.4493662e-43
2.9576716e-42
3.9809445e-42
4.8185338e-42
2.9073812e-42
6.3838387e-43
8.0065137e-43
1.3409343e-42
2.9729346e-42
4.3330089e-42
5.352126e-42
4.4826425e-42
2.3597286e-42
3.2097242e-42
1.4762356e-42
5.792522e-43
6.3292206e-42
3.9557489e-42
3.2592072e-42
6.1748059e-42
2.2036072e-42
1.5377745e-42
1.3287987e-42
5.973118e-43
7.8065942e-43
7.8661683e-42
4.4840651e-42
4.0769887e-42
1.3375299e-41
4.9442761e-42
3.469076e-42
3.6436999e-43
6.487225e-43
6.3551031e-43
1.4431108e-41
7.0297706e-42
9.4303323e-42
5.1020462e-43
6.2763272e-43
7.8108549e-43
1.436032e-42
2.4202287e-42
3.5765306e-42
4.5439058e-42
1.1056511e-41
6.9655327e-42
8.1677322e-42
1.5349305e-41
2.0920682e-42
1.4896737e-42
1.1117013e-42
1.7074487e-42
3.3485549e-42
6.6806639e-42
8.5523304e-42
1.8451314e-41
5.08856e-42
9.1786608e-42
6.3405327e-43
4.5248014e-43
7.2810132e-43
3.3477916e-43
8.5547655e-43
8.7227742e-43
3.7741478e-43
3.8102265e-43
3.4180378e-43
3.7507753e-43
5.1227068e-43
6.0427575e-43
6.2403265e-43
2.472286e-43
1.4660892e-43
1.9102607e-43
1.7140644e-43
1.8904785e-43
1.1696001e-43
2.7164056e-43
1.896011e-43
1.8442085e-43
2.1598379e-43
1.8826521e-43
1.6251876e-43
2.3016009e-43
1.8267273e-43
7.9070392e-43
1.7792459e-43
2.3984354e-44
2.174321e-43
2.4360957e-44
1.832588e-43
1.5958411e-43
2.8542782e-44
2.3078396e-44
2.8073019e-44
2.9183908e-43
4.1636262e-43
1.0883399e-42
1.9420363e-43
5.101813e-43
8.2434383e-44
2.8543646e-42
1.2101562e-42
3.7900631e-42
2.9235493e-42
2.8204442e-42
1.1768264e-42
1.0151222e-42
8.2461366e-43
8.8283314e-43
5.0202641e-43
6.0688902e-43
6.8739514e-43
7.129235e-43
4.7055439e-42
3.9561675e-42
3.6414371e-42
1.0734344e-42
5.7561091e-43
3.0565495e-42
3.1745268e-42
3.2410806e-42
3.5440078e-42
1.1244528e-42
8.7508219e-43
2.009947e-42
1.838046e-42
3.1218631e-42
5.7861612e-43
1.2378483e-42
1.9885169e-42
2.6890882e-42
2.6601666e-42
3.706149e-42
7.4213902e-43
4.9893548e-43
1.8094062e-43
9.9485337e-44
1.7831619e-43
3.5393003e-42
4.3689727e-42
4.9536713e-42
2.9307766e-42
4.9857233e-42
4.2766795e-42
3.9136311e-42
9.1585762e-43
6.6121707e-43
9.7743461e-43
2.2778922e-42
2.836959e-42
4.3842339e-42
4.4998558e-42
9.3151521e-42
4.3398939e-42
1.4148421e-42
1.8319829e-42
6.4289506e-43
8.5802908e-43
6.5615207e-42
6.1562942e-42
3.3751808e-42
9.1072197e-42
2.6200616e-42
2.0729691e-42
2.460038e-42
1.1618942e-42
7.2343565e-43
1.1310606e-41
4.2562227e-42
6.9506973e-42
3.4747214e-42
3.377905e-42
2.3664138e-42
4.8939144e-43
5.5962475e-43
9.3491795e-43
1.3729523e-41
1.5575885e-41
6.8435384e-43
1.2167326e-42
7.3062918e-43
7.7004927e-43
1.3016357e-42
2.2623489e-42
3.6682216e-42
3.7020647e-42
1.2131682e-41
4.1646534e-42
1.2384481e-41
4.6911656e-43
6.4472177e-43
1.2888685e-42
1.3855473e-42
1.2036065e-42
1.8223406e-42
3.7666559e-42
7.7558429e-42
3.6306258e-42
3.9666592e-42
2.8221694e-42
1.0257256e-41
4.195711e-43
5.6767748e-43
5.9742918e-43
3.5110401e-43
3.3713873e-43
9.0395961e-43
2.8936281e-43
3.8016708e-43
5.1508328e-43
5.0303172e-43
1.5209071e-42
1.3456099e-42
2.8488233e-43
2.4941481e-42
1.3513639e-43
1.7248438e-43
3.1726886e-43
8.4001287e-44
3.3549794e-43
3.3695834e-43
3.2406293e-43
1.2747616e-43
1.944391e-43
4.6785341e-43
4.2240636e-43
1.3228809e-42
4.4326985e-43
5.775912e-43
1.7804642e-43
6.8973546e-44
1.587599e-43
3.9811365e-44
1.0767114e-43
3.0998386e-44
4.4163898e-44
3.30835e-44
8.0272724e-44
6.0092767e-43
9.6361826e-43
5.3973376e-43
2.0627321e-42
3.0240305e-43
8.0311953e-44
3.2567892e-42
3.2130914e-42
5.230989e-42
1.6311869e-42
6.7789546e-43
1.6258787e-42
1.0132952e-42
4.4885269e-42
5.8518676e-42
3.6024655e-42
2.1429172e-42
1.0992429e-42
1.1214665e-42
3.7037909e-43
9.2262902e-43
4.2525437e-43
6.1981494e-43
4.0775492e-42
1.8076349e-42
3.4312044e-42
8.0109631e-43
7.9553205e-43
7.4725323e-43
1.4762656e-42
2.1325568e-42
2.9426993e-42
1.1222495e-42
5.6899075e-43
1.0966384e-42
1.1779138e-42
1.5420991e-42
9.1608351e-43
2.5995318e-42
2.7796734e-42
9.0524382e-43
1.6653971e-42
1.62562e-42
2.8073279e-42
3.150313e-42
6.626861e-43
4.6228581e-43
3.714728e-43
2.9056748e-43
2.0104675e-42
4.554646e-42
1.5322152e-42
9.2643327e-42
4.2689112e-42
5.022511e-42
4.5676098e-42
4.0381249e-42
6.1571882e-43
9.6497654e-43
1.9894347e-42
2.8368664e-42
3.595216e-42
6.4665228e-42
2.520466e-42
2.5964841e-42
3.9763363e-42
1.7605548e-42
4.8965297e-42
1.3572107e-41
1.9382084e-42
2.115863e-42
1.7145202e-42
1.7918907e-42
1.2445478e-42
1.0155592e-42
9.4016489e-42
9.8333508e-42
5.9837534e-42
4.3707139e-42
3.0454681e-42
3.4301913e-42
2.9467483e-43
3.1662311e-43
3.1963884e-42
4.9673512e-42
3.6566957e-42
4.3961908e-42
4.3986654e-43
1.2371652e-42
6.7821816e-43
1.0614826e-42
8.3795055e-43
1.2911045e-42
1.92057e-42
3.3237765e-42
2.5183498e-42
3.7901989e-42
2.3716323e-42
1.5890697e-41
1.3818904e-42
1.6162494e-42
1.4977205e-42
1.5519612e-42
1.2884478e-42
2.0639177e-42
2.965915e-42
1.9013632e-42
1.7454935e-42
6.318452e-42
4.0505994e-42
2.3885497e-41
2.3790279e-43
4.3272549e-43
2.784641e-43
6.0405039e-43
6.1630734e-43
6.2835707e-43
3.0789368e-43
4.6625633e-43
7.9804661e-43
1.4633701e-42
9.1851736e-43
1.6082581e-42
1.9217688e-42
1.3825024e-43
3.1716695e-43
1.8361229e-43
5.1376101e-43
1.6949041e-43
2.3314414e-43
2.7149278e-43
2.8822083e-43
3.9903994e-43
1.2451132e-42
7.1165763e-43
1.1391567e-42
4.6428019e-43
1.663591e-43
1.7477224e-43
7.8764632e-44
1.5023428e-43
1.4793406e-42
4.1143784e-43
2.6283912e-44
3.3558784e-44
5.6984795e-44
2.180958e-43
4.6050163e-43
3.5250586e-43
3.1661051e-43
7.9608562e-43
1.3947835e-43
9.6732359e-44
1.1454917e-42
2.4017874e-42
4.5353661e-42
9.604672e-43
1.4669772e-42
3.0012637e-42
4.1436662e-42
3.8440669e-42
6.7542919e-42
1.53293e-42
1.2938058e-42
1.5490725e-42
4.2021902e-42
5.3539548e-42
1.8161501e-42
2.5854126e-42
6.5738602e-43
1.1613582e-42
4.9839123e-43
1.0171662e-42
8.2224232e-43
1.7136163e-42
5.026719e-42
7.1180477e-43
1.2920313e-42
2.7224634e-42
2.334084e-42
8.5149346e-43
5.9316449e-43
1.3526e-42
1.2406239e-42
6.5415633e-42
5.044187e-43
5.1344872e-43
1.4892272e-42
2.302295e-42
6.9739028e-43
6.5748519e-43
1.6192468e-42
1.0491061e-42
1.5580682e-42
1.0841116e-42
2.5403815e-42
9.3877935e-43
9.6006916e-43
1.3808745e-42
8.9795156e-43
1.5605392e-42
2.9391727e-42
3.3890686e-42
1.2467306e-42
2.4343403e-42
1.8957334e-42
1.1015465e-41
7.6352386e-42
2.9652774e-42
1.4159152e-41
2.5427068e-42
1.0211422e-42
1.0466901e-42
2.0862952e-42
2.1370203e-42
2.7171566e-42
3.3594261e-42
4.2857042e-42
4.7795252e-42
6.8141538e-42
3.0930851e-42
1.8343845e-42
2.3956259e-42
2.6085977e-42
2.4966731e-42
2.3213796e-42
2.7523344e-42
3.1502479e-42
3.1018293e-42
9.7175885e-42
4.6954388e-42
3.1205117e-42
3.5240025e-42
3.3698538e-42
4.2483545e-43
3.4496055e-43
6.6360936e-42
4.072125e-42
4.3315831e-43
3.5179757e-42
2.6568695e-41
1.240722e-42
1.043351e-42
1.2084303e-42
1.1901238e-42
9.5782992e-43
1.1467563e-42
1.6027082e-42
1.9151164e-42
1.5548057e-42
4.0520662e-42
5.4950451e-42
3.1250472e-41
2.0775495e-42
1.8084939e-42
1.5258979e-42
1.5115954e-42
1.6420419e-42
1.7574347e-42
1.9246175e-42
1.2854222e-42
2.8193268e-42
1.1418624e-42
7.3440643e-42
5.1691733e-41
1.5457606e-41
5.2469237e-43
1.2152946e-42
1.3826384e-42
1.3047702e-42
7.2078232e-43
2.5395597e-42
5.957573e-43
8.4109106e-43
1.2344696e-42
9.8547346e-43
2.5425754e-43
3.3468209e-43
3.7546511e-43
7.2491826e-43
4.6523433e-43
1.0180125e-43
4.5800363e-43
4.3772539e-43
6.4772827e-43
1.0335318e-42
3.7998686e-43
9.6200091e-44
1.3380499e-42
3.0681359e-43
4.7850079e-43
1.6030195e-43
3.4865639e-44
4.1775654e-44
4.51386e-43
6.3301601e-43
1.5242836e-43
3.274244e-44
4.5429682e-43
1.3351607e-43
9.8785398e-43
1.014684e-42
1.7391706e-43
4.7402464e-43
1.6856877e-43
1.0188986e-43
5.9919549e-44
1.9538762e-42
4.4563237e-43
4.8928019e-42
1.3475943e-41
3.6530432e-42
4.7579473e-42
2.438055e-42
5.3273763e-42
1.2448828e-42
2.1164244e-43
6.8529846e-42
3.9963728e-42
1.4961481e-42
5.5494957e-42
5.0048552e-42
3.2934919e-42
2.8496957e-42
6.372844e-42
4.4192054e-42
2.6725603e-42
8.5870515e-43
2.7784215e-43
8.917012e-43
1.0981573e-42
2.6648376e-42
7.8662414e-43
5.9157295e-43
9.0709432e-43
3.3780787e-42
5.2164854e-43
7.1245439e-43
4.6553275e-43
8.5794299e-43
2.5209031e-42
1.0661546e-42
1.6625032e-42
1.3726704e-42
1.1670359e-42
1.5229726e-42
2.1448589e-42
1.0715025e-42
1.2701897e-42
4.0407604e-42
1.2118391e-42
1.0205971e-42
1.3010595e-42
1.2286605e-42
1.3020076e-42
1.2530192e-42
1.476257e-42
2.5966486e-42
1.678367e-42
6.8350626e-42
4.4131246e-42
2.7190487e-42
2.3909567e-42
7.9045794e-42
4.0938429e-42
3.3265389e-42
5.4957375e-42
9.5426456e-42
1.8635586e-42
2.3611896e-42
1.1279691e-42
4.7772091e-42
1.5442508e-41
3.1007867e-42
2.1137101e-42
1.9540047e-42
3.7318978e-42
1.2576528e-42
4.9873511e-42
3.6281454e-42
2.9330134e-42
2.4622515e-42
2.5442045e-42
1.4727768e-41
5.7573299e-42
2.8689539e-42
4.0731798e-42
4.6801821e-43
2.0426474e-42
1.2255546e-41
2.6254981e-42
7.0573046e-42
2.5382239e-41
6.5312838e-42
2.407023e-41
3.7835429e-42
2.4324278e-41
1.6267969e-42
1.3296177e-42
1.3473278e-42
1.1591217e-42
1.4801492e-42
1.254768e-42
1.2773343e-42
1.3671981e-42
2.0905907e-42
1.4793424e-42
5.6460972e-42
2.1078289e-41
3.5197122e-41
9.3163605e-43
1.8646539e-43
3.6349865e-42
1.8712554e-42
1.7112156e-42