/*--------------------------------*- C++ -*----------------------------------*\
  =========                 |
  \\      /  F ield         | OpenFOAM: The Open Source CFD Toolbox
   \\    /   O peration     | Website:  https://openfoam.org
    \\  /    A nd           | Version:  7
     \\/     M anipulation  |
\*---------------------------------------------------------------------------*/
FoamFile
{
    version     2.0;
    format      ascii;
    class       volScalarField;
    location    "6000";
    object      k;
}
// * * * * * * * * * * * * * * * * * * * * * * * * * * * * * * * * * * * * * //

dimensions      [0 2 -2 0 0 0 0];

internalField   nonuniform List<scalar> 
33730
(
1.5222674
1.5205268
1.5209973
1.5208659
1.5212843
1.5222828
1.5226623
1.5225384
1.5226154
1.5207119
1.5204911
1.5204334
1.5205734
1.5208393
1.5208098
1.5210083
1.5210107
1.5208781
1.5224622
1.5209516
1.5205286
1.5213155
1.5222167
1.5204485
1.5203157
1.5208734
1.5206379
1.5231477
1.5220625
1.5218386
1.522647
1.5228383
1.5234018
1.5225077
1.5228947
1.5231204
1.5222082
1.5222317
1.5232642
1.5232798
1.5234953
1.5225318
1.5229023
1.5209716
1.5205177
1.5209977
1.5205425
1.5206916
1.5208775
1.5204283
1.5203382
1.5206796
1.5210722
1.5206555
1.5210486
1.5211698
1.5211208
1.5209352
1.5208257
1.5206461
1.520531
1.5217039
1.5216953
1.521951
1.5204189
1.5202815
1.5209647
1.521893
1.5203344
1.5202659
1.5201502
1.5204534
1.5206436
1.5201467
1.5204259
1.5201395
1.520032
1.5201332
1.5202452
1.5204336
1.5206799
1.520643
1.5208577
1.5222789
1.5219294
1.5219039
1.5205373
1.5205659
1.520458
1.520362
1.5208053
1.5209335
1.5206848
1.5206592
1.5217317
1.5214842
1.5232938
1.5222565
1.5219751
1.5227794
1.5230076
1.5231701
1.5227362
1.5227089
1.5233997
1.5234452
1.5235205
1.5234628
1.5232512
1.5226836
1.5226167
1.5222351
1.5235494
1.5234898
1.5227718
1.5227361
1.5232773
1.522363
1.522412
1.523405
1.5234322
1.5233449
1.5233284
1.5235028
1.5235227
1.5235272
1.5235744
1.5235804
1.5232414
1.5235185
1.5223195
1.5226846
1.5235946
1.5235918
1.5227846
1.5227815
1.5207467
1.5213538
1.5213731
1.5207562
1.5213769
1.5213861
1.5207884
1.520768
1.5209583
1.5211713
1.5204947
1.5205748
1.5212498
1.5212877
1.5206498
1.5206811
1.5214266
1.5214229
1.5208571
1.5208717
1.5213991
1.5214188
1.5208348
1.5208441
1.5214156
1.5210084
1.5210547
1.5213711
1.5214301
1.5214317
1.5209308
1.5209394
1.5208113
1.5206491
1.5208283
1.5206912
1.521562
1.52157
1.5207583
1.5206033
1.5205576
1.5207381
1.5204978
1.521564
1.5215746
1.5215495
1.5215585
1.5215799
1.5215737
1.5215852
1.52172
1.5215873
1.5217515
1.5217067
1.520554
1.5205285
1.5205596
1.5205818
1.5204969
1.5204684
1.5204422
1.5204737
1.5202678
1.5200889
1.5203297
1.5217397
1.5217879
1.5217341
1.5217795
1.5203631
1.5204524
1.520362
1.5204454
1.5204917
1.520531
1.5205007
1.5205184
1.5203408
1.5204361
1.5203543
1.5204192
1.5205249
1.5205552
1.5205499
1.5205246
1.5204973
1.5202542
1.5195791
1.519742
1.5199578
1.5198513
1.5200135
1.5201195
1.5198264
1.5197531
1.5198738
1.5199404
1.5200744
1.5199888
1.5201768
1.5202775
1.5202948
1.5203145
1.520387
1.5203699
1.5202422
1.5202854
1.5202184
1.5203092
1.5203385
1.5203941
1.5203679
1.5203671
1.5204289
1.5204585
1.520452
1.520479
1.5206247
1.5206032
1.5206032
1.5206278
1.5207264
1.5207455
1.5208678
1.5208716
1.5206313
1.5206496
1.5206563
1.5206719
1.5209001
1.5207667
1.5208
1.5209124
1.5219279
1.5218124
1.5217727
1.5217812
1.5218392
1.5218251
1.5218093
1.5218077
1.5218905
1.5218746
1.5208131
1.5208247
1.5208586
1.5208326
1.5207147
1.5207538
1.5205555
1.5206493
1.520984
1.520974
1.521036
1.5210862
1.5209301
1.5209123
1.5209034
1.5208911
1.521702
1.5214812
1.5233977
1.523456
1.523504
1.5222414
1.5219769
1.5228797
1.522762
1.5230988
1.5232104
1.5227333
1.5235379
1.5234852
1.5233008
1.5232401
1.5232698
1.5233634
1.5225683
1.5228643
1.5229485
1.5224713
1.5225893
1.5225422
1.5233114
1.5232032
1.5229226
1.5224009
1.5223955
1.5220951
1.5235581
1.5235524
1.5235654
1.523574
1.5235168
1.5234895
1.5235401
1.5234999
1.5226738
1.5226815
1.5234934
1.5234781
1.5226639
1.5226414
1.5234544
1.5234132
1.523397
1.5234051
1.5234991
1.5223518
1.5223945
1.523507
1.5235801
1.5235737
1.5233759
1.5235282
1.5235897
1.5235977
1.5232701
1.5234219
1.5234342
1.5231647
1.5235356
1.523552
1.5235408
1.5235686
1.5229561
1.5220827
1.5224663
1.5233131
1.5225832
1.5226371
1.5234413
1.5234804
1.5236049
1.5236082
1.523611
1.5236167
1.5236016
1.5235956
1.5236119
1.5236027
1.5235281
1.5226891
1.5226992
1.5235259
1.5226928
1.5226828
1.5235254
1.5235137
1.5221133
1.5220772
1.5209525
1.5209588
1.5221162
1.52213
1.520966
1.5209696
1.5221292
1.5221097
1.520972
1.5209783
1.5220901
1.522121
1.5209964
1.5210007
1.5217486
1.5214858
1.5206134
1.5206665
1.5219473
1.5219128
1.5207673
1.5207829
1.5220132
1.5219823
1.5208433
1.5208522
1.5220285
1.5220286
1.5208835
1.5208966
1.5221407
1.5221314
1.5210406
1.5210447
1.522087
1.5221237
1.5210529
1.521057
1.5221179
1.522084
1.521017
1.5210229
1.5221272
1.522142
1.5210307
1.5210347
1.5219552
1.5220019
1.52111
1.5211078
1.5217203
1.5218414
1.5211268
1.5211646
1.5220804
1.5220668
1.5210794
1.5210819
1.5220517
1.5220893
1.5210859
1.5210881
1.5196303
1.5211639
1.5211945
1.5211397
1.5211643
1.5211302
1.5210952
1.5211429
1.521105
1.5211747
1.5211373
1.5212006
1.5211603
1.5211401
1.5210934
1.5211513
1.5211021
1.521525
1.5214962
1.5215113
1.5215202
1.5214857
1.5215194
1.5215272
1.5214912
1.5214161
1.5214348
1.521118
1.5211155
1.5211641
1.5211473
1.5210775
1.5210701
1.5210941
1.521082
1.5209827
1.5210006
1.5209012
1.520925
1.5205188
1.5210397
1.5210954
1.5210508
1.5209639
1.5206894
1.5204738
1.5206678
1.5214739
1.5214723
1.5214917
1.5214539
1.5214939
1.5215104
1.5214894
1.5214718
1.5213883
1.5213622
1.5213952
1.5213558
1.5213919
1.5214205
1.5213834
1.5214122
1.5214403
1.521427
1.5214685
1.5214538
1.5213636
1.5213592
1.5213213
1.5213183
1.5214307
1.521597
1.5215908
1.5215861
1.5216025
1.5213213
1.5216137
1.5216175
1.5216278
1.5216237
1.5215955
1.521591
1.521598
1.5216035
1.52111
1.5211322
1.521066
1.5210869
1.5210938
1.5210504
1.5211107
1.5210651
1.5211012
1.5210431
1.5211182
1.5210574
1.5211174
1.5210589
1.5211402
1.5210798
1.5210611
1.5210431
1.5210827
1.5210635
1.5209583
1.5209793
1.5209012
1.520879
1.5204193
1.5209378
1.520955
1.5208741
1.5208549
1.5203959
1.5210429
1.5210266
1.5210603
1.5210415
1.5203633
1.5203883
1.5202985
1.5202774
1.5203082
1.5203295
1.5203796
1.5204262
1.5206065
1.5205824
1.5216111
1.521607
1.521612
1.5216166
1.5216314
1.5216335
1.5216391
1.5216366
1.5215996
1.5215949
1.5216045
1.5216094
1.5216314
1.521621
1.5216181
1.5216285
1.5185194
1.5187178
1.5182945
1.5184314
1.5191121
1.5191458
1.5192308
1.5206334
1.5207291
1.5205599
1.5206411
1.5208521
1.5209035
1.5207715
1.5208133
1.5207107
1.5206321
1.5208068
1.5207161
1.5207854
1.5207048
1.5208307
1.5207405
1.5210011
1.5209216
1.5210142
1.5209322
1.5210388
1.5210795
1.520977
1.5210127
1.5210276
1.5209645
1.5210403
1.5209753
1.5210138
1.5209358
1.5210521
1.5209683
1.5207768
1.5208711
1.5206993
1.5207837
1.5209379
1.5208747
1.5209958
1.5209256
1.5208172
1.5207532
1.5209067
1.5208361
1.520909
1.5208295
1.520964
1.5208765
1.5209471
1.5209599
1.5208655
1.5208757
1.5209616
1.5208822
1.5209966
1.5209106
1.5208991
1.5208187
1.5208427
1.5209297
1.5208817
1.520894
1.5208003
1.5208096
1.5200213
1.5201509
1.5199062
1.5199767
1.51979
1.5199073
1.519787
1.5196684
1.5197226
1.5198849
1.5201979
1.5201724
1.5202008
1.5202248
1.5200983
1.5200758
1.5201535
1.5201318
1.5202118
1.5201505
1.520174
1.520235
1.5202861
1.5202591
1.5202876
1.520313
1.5200273
1.5199591
1.5200073
1.5200652
1.5198861
1.5198521
1.519947
1.519964
1.5199997
1.5199844
1.5200045
1.5200212
1.5200628
1.520107
1.5200843
1.5201288
1.5201825
1.5201647
1.5202138
1.5202315
1.5200843
1.5201073
1.520098
1.520122
1.5203396
1.5201744
1.520212
1.520385
1.5204652
1.5202626
1.5203235
1.5205115
1.5208515
1.5208038
1.5209265
1.5208767
1.5208478
1.5207848
1.5209315
1.5208634
1.5210181
1.5209589
1.520896
1.5209493
1.521009
1.5209497
1.5209054
1.5209601
1.5208086
1.5207897
1.520875
1.5208544
1.5207574
1.520701
1.5207867
1.5208428
1.5207068
1.5207653
1.5206804
1.5206248
1.5208961
1.5208793
1.5209549
1.5209345
1.5207939
1.5207876
1.5208725
1.5208807
1.5209893
1.5210335
1.5209723
1.5210132
1.5209826
1.5209647
1.5209909
1.520973
1.5208794
1.5209221
1.5208368
1.5207918
1.5210365
1.5209911
1.5210465
1.5210008
1.521045
1.5210007
1.5210877
1.52104
1.5210575
1.5210459
1.520984
1.5209942
1.521056
1.5209949
1.5210976
1.5210325
1.5210745
1.5210978
1.5210028
1.5210227
1.5210832
1.521024
1.5211
1.521038
1.5210734
1.521057
1.5209849
1.5209982
1.5210996
1.5210408
1.5211229
1.5210615
1.5211283
1.5210788
1.5211387
1.521087
1.5211069
1.5210499
1.5211169
1.5210577
1.5211462
1.5210997
1.521176
1.5211281
1.5211633
1.5211897
1.5211512
1.5211266
1.5210072
1.5210228
1.5209454
1.5209331
1.5209476
1.5208795
1.5209618
1.5208901
1.5210259
1.5209529
1.5210481
1.5209712
1.520968
1.5209001
1.5209883
1.5209162
1.5211115
1.5210674
1.521068
1.5210075
1.5210778
1.5210156
1.5209667
1.5210181
1.521028
1.5209749
1.521033
1.5210731
1.521073
1.5217384
1.5219103
1.521817
1.5218672
1.5217505
1.5216297
1.5216276
1.521635
1.5216339
1.5216557
1.5216628
1.5216637
1.521674
1.5216903
1.5216899
1.5216847
1.5216837
1.5216543
1.5216551
1.5216578
1.5216559
1.5217214
1.5217167
1.5217519
1.521768
1.5216914
1.5216951
1.5217181
1.5217074
1.5217834
1.5217693
1.521771
1.5217844
1.5217247
1.5217328
1.5217332
1.5217251
1.5217463
1.5217861
1.5218005
1.5210008
1.5210101
1.5210166
1.5210197
1.521049
1.5210468
1.5210286
1.5210199
1.520903
1.5208909
1.5209339
1.5209481
1.5206557
1.5207171
1.5208184
1.5208352
1.5211253
1.5211244
1.5211207
1.5211169
1.5211409
1.5211376
1.5211475
1.5211881
1.5211003
1.5210975
1.5210905
1.5210842
1.5210799
1.5210761
1.5210686
1.521059
1.5223398
1.5216151
1.5226206
1.5225534
1.5214207
1.5221534
1.5224724
1.5234845
1.5234653
1.5235054
1.5235505
1.5235055
1.5229689
1.522794
1.5230995
1.5228006
1.5231907
1.5231788
1.5232236
1.5233165
1.5232453
1.523275
1.5233559
1.5226495
1.5228568
1.5229564
1.5229303
1.5225574
1.522511
1.5235351
1.5235396
1.5235533
1.5235598
1.5235648
1.5235721
1.5234757
1.523501
1.5235262
1.5234903
1.5235394
1.5235017
1.5233034
1.5233309
1.5232809
1.5232748
1.5233726
1.5233829
1.523408
1.5233912
1.5230097
1.5229537
1.5229591
1.5230595
1.5225826
1.5225453
1.5223165
1.5224004
1.5227808
1.5232354
1.523205
1.5227762
1.5227757
1.5231711
1.523105
1.5227286
1.5234002
1.5234221
1.5233996
1.5234287
1.5232827
1.5233452
1.5232758
1.5233495
1.5230863
1.5229572
1.5231051
1.5229473
1.5226658
1.5229882
1.5228369
1.5225689
1.5226169
1.5226017
1.5222647
1.5222247
1.5222061
1.5225674
1.5223905
1.5221517
1.5235713
1.5235782
1.5235751
1.5235698
1.5235773
1.5235788
1.5235855
1.5235833
1.523546
1.5235498
1.5235595
1.5235533
1.5235008
1.5235133
1.5235251
1.5235038
1.522837
1.5233576
1.5233542
1.5228589
1.5228759
1.5233563
1.5233506
1.5228642
1.5235858
1.5235893
1.5235793
1.5235857
1.5235774
1.5235818
1.5235704
1.5235767
1.5228683
1.5233485
1.5233323
1.5228644
1.5228487
1.5233127
1.5232827
1.5228111
1.5235562
1.5235644
1.5235488
1.5235602
1.5235045
1.523531
1.5234972
1.5235278
1.5220897
1.5222472
1.5220862
1.5234959
1.5235054
1.523426
1.5234661
1.5235556
1.5235905
1.5235778
1.5235842
1.52362
1.5236119
1.5234545
1.5233972
1.5234662
1.5233382
1.5232472
1.5234555
1.5235394
1.5235303
1.523545
1.5235607
1.5235485
1.5235695
1.5235899
1.5235954
1.5235964
1.523605
1.523612
1.5236029
1.5236021
1.5236015
1.5236095
1.5236112
1.5236138
1.5236176
1.5234486
1.5234407
1.5234707
1.5234812
1.5232662
1.5231629
1.523077
1.5232619
1.5235553
1.5235484
1.523549
1.5235612
1.5235777
1.5235736
1.5235778
1.5235854
1.5230157
1.523252
1.5232165
1.5229225
1.5229373
1.5226196
1.5220538
1.5223948
1.5232301
1.5231422
1.5226145
1.5226982
1.523486
1.5234329
1.5234783
1.5234058
1.5233055
1.5232918
1.5227489
1.5227756
1.5233362
1.5233263
1.5227952
1.5227955
1.5235637
1.5235489
1.5235559
1.5235378
1.5235892
1.5235802
1.5235838
1.5235731
1.5236181
1.5236155
1.5236175
1.5236221
1.523625
1.5236213
1.5236211
1.523625
1.5236214
1.5236166
1.5236198
1.5236157
1.5236075
1.5236048
1.5236125
1.5236079
1.5236235
1.5236181
1.5236093
1.5236152
1.5233776
1.5233747
1.522841
1.5228654
1.5228772
1.52338
1.5233828
1.5228717
1.5236264
1.5236268
1.5236185
1.5236194
1.5228674
1.5233845
1.5233812
1.5228767
1.5228696
1.5233777
1.5233667
1.5228423
1.5236215
1.523624
1.5236141
1.5236179
1.5236089
1.5236151
1.5236022
1.5236097
1.5236649
1.5222343
1.5222004
1.5222352
1.5222498
1.5222476
1.5222312
1.5222089
1.5222403
1.5218819
1.5216112
1.5220771
1.5220438
1.5221376
1.5221072
1.5221549
1.5221525
1.5222492
1.5222424
1.5221957
1.5222327
1.5222326
1.5221995
1.5222394
1.5222549
1.5220418
1.5220925
1.5219164
1.522181
1.5221722
1.5221481
1.5221867
1.5217156
1.521621
1.5216139
1.5217083
1.5215808
1.521608
1.5215376
1.5215157
1.5215428
1.5216352
1.5215505
1.5216278
1.5215271
1.5214663
1.521549
1.5214821
1.5216717
1.5217619
1.5216571
1.521779
1.5216744
1.5215786
1.521592
1.5216908
1.5216707
1.5217575
1.521654
1.5217751
1.5216719
1.521577
1.5216891
1.5215924
1.5215645
1.5215021
1.5214941
1.5215564
1.5214534
1.5215092
1.5215181
1.5214446
1.5214921
1.5214779
1.5214437
1.5214345
1.5214022
1.5214468
1.521399
1.5214545
1.5215388
1.5215965
1.5215272
1.5216111
1.5214745
1.5215481
1.5215602
1.5214833
1.5216108
1.5215397
1.5215951
1.5215264
1.5214741
1.5215473
1.5215602
1.5214847
1.5215326
1.5214244
1.5215046
1.5215119
1.5214237
1.5215189
1.5215256
1.5214247
1.5213061
1.5213054
1.5213047
1.5219887
1.5219794
1.5218283
1.5218192
1.5218282
1.5217053
1.5216971
1.5218371
1.5217997
1.5217713
1.5216585
1.5216847
1.5216954
1.5216648
1.5215973
1.5215714
1.5218986
1.5220687
1.5218891
1.522077
1.5218987
1.5217502
1.5217632
1.5219122
1.521891
1.5220559
1.5218798
1.5220636
1.5218908
1.5217445
1.5219044
1.5217597
1.522286
1.5222854
1.522067
1.5220696
1.5220526
1.5220564
1.5222673
1.5222646
1.522283
1.5208492
1.5222641
1.5208726
1.5208687
1.5208952
1.5221798
1.5221719
1.5219858
1.5219758
1.521793
1.5217697
1.5219323
1.5219129
1.5219237
1.5210092
1.5221758
1.5209246
1.5209389
1.5210352
1.5208278
1.5208529
1.5208768
1.5208517
1.5209988
1.5209238
1.5209077
1.5210254
1.5214204
1.5214763
1.5214831
1.5214188
1.5214901
1.5214972
1.5214228
1.5214216
1.5213091
1.5213085
1.5212963
1.5213077
1.521307
1.521464
1.5214153
1.52147
1.5214169
1.5213095
1.5212981
1.5213089
1.521299
1.5214879
1.5214703
1.5214237
1.521401
1.5213939
1.5213209
1.5214168
1.521322
1.5212971
1.5213093
1.5212966
1.5212798
1.52129
1.5212901
1.5212747
1.5212879
1.5212891
1.5213164
1.5214019
1.5214096
1.5213188
1.5216974
1.5217932
1.5216799
1.5218121
1.521814
1.5217901
1.5216807
1.5217035
1.5216997
1.5215951
1.5217188
1.5216113
1.5217243
1.5215993
1.5216206
1.5217009
1.5217801
1.5216662
1.5218037
1.5216874
1.5217086
1.5216002
1.521685
1.52158
1.5217064
1.5217915
1.5216772
1.5218218
1.5216973
1.5215918
1.52162
1.521728
1.5215996
1.521524
1.5215424
1.5216213
1.5215467
1.521465
1.5214811
1.5215662
1.5216123
1.5216415
1.5215366
1.5215622
1.5215601
1.5215862
1.5214779
1.5215005
1.5215551
1.5216155
1.5215404
1.5216329
1.5214821
1.5215635
1.5215791
1.5214944
1.5215664
1.5216202
1.5215472
1.5216417
1.521491
1.5215707
1.5215896
1.5215071
1.5221181
1.5221272
1.5219274
1.5219386
1.5219539
1.5217789
1.5217941
1.5219391
1.5221026
1.5221152
1.5219347
1.5219174
1.5219301
1.5219499
1.5217749
1.5217965
1.5223477
1.522347
1.5221145
1.5221184
1.522098
1.5221061
1.522325
1.5223236
1.522321
1.5208418
1.5223439
1.5208219
1.5208523
1.5208706
1.5223458
1.5223467
1.5221081
1.5221144
1.5221162
1.5221269
1.5223545
1.5223547
1.5223508
1.5208157
1.5223423
1.5207973
1.5208256
1.5208457
1.5219318
1.5221115
1.5219175
1.5221233
1.5219285
1.5217672
1.5217862
1.5219475
1.5219473
1.5221207
1.5219264
1.5221361
1.5219388
1.521777
1.5219634
1.5218036
1.5207799
1.5208117
1.5208283
1.5207974
1.520806
1.5208372
1.5208501
1.5208213
1.5207716
1.5207667
1.5207478
1.5207575
1.5207566
1.5207394
1.5207241
1.5207399
1.520761
1.5207854
1.5208024
1.5207759
1.5208207
1.5208122
1.5207853
1.520797
1.520803
1.5207807
1.5207669
1.5207909
1.5208074
1.5208233
1.5208478
1.5208295
1.5208877
1.5209027
1.5209836
1.5210089
1.5208563
1.5208566
1.5209719
1.5209581
1.5213852
1.5213848
1.5213185
1.5213139
1.5212853
1.5212951
1.521289
1.5212784
1.5213128
1.5213891
1.5213948
1.5213139
1.5212866
1.5212866
1.5212752
1.5212743
1.5182533
1.5180735
1.5180199
1.5180263
1.5188652
1.5185977
1.5186468
1.5189073
1.5184982
1.5187523
1.5187009
1.5190332
1.5189981
1.5183614
1.5184233
1.5182279
1.5182783
1.5184715
1.5183166
1.5183766
1.51855
1.5185273
1.5184527
1.518754
1.5186762
1.5192378
1.5191476
1.5194154
1.5197744
1.5196831
1.5193096
1.5195159
1.5195284
1.5199073
1.5198825
1.5195905
1.5195745
1.5199718
1.5199153
1.519984
1.5199067
1.5199628
1.519884
1.5207644
1.5207185
1.5207713
1.5208278
1.5209442
1.5209199
1.5208663
1.5208862
1.5207092
1.5207062
1.5206583
1.5207656
1.5208844
1.5208222
1.5208629
1.5208058
1.5211151
1.5210529
1.52107
1.5211367
1.5211993
1.521169
1.5211051
1.5211306
1.5209951
1.5210517
1.5209812
1.52107
1.5211311
1.5210526
1.5211039
1.52103
1.5209147
1.5209113
1.520853
1.5209839
1.520841
1.5207775
1.5208345
1.5209093
1.5210264
1.5210668
1.5210022
1.5210959
1.5209986
1.5209244
1.5210248
1.5209465
1.52098
1.5209293
1.5209405
1.5209949
1.5209291
1.5208747
1.5208844
1.5209412
1.5210285
1.521053
1.5209758
1.5209957
1.5209754
1.5209963
1.5209173
1.5209329
1.5213092
1.5213603
1.5212981
1.5213738
1.5213091
1.5212255
1.5212366
1.5213219
1.5213878
1.5213228
1.5213665
1.5213052
1.521318
1.5212345
1.5213355
1.5212505
1.5214627
1.5213987
1.5214161
1.5214828
1.5215167
1.5214929
1.5214301
1.5214506
1.5213632
1.5214212
1.5213476
1.5214395
1.5214731
1.5213969
1.5214528
1.5213792
1.5214065
1.5214574
1.5213938
1.5214732
1.5214164
1.521342
1.5213537
1.52143
1.5214211
1.5214601
1.5213972
1.5214878
1.5214207
1.5213472
1.5214445
1.5213679
1.5213658
1.5213042
1.5213193
1.5213829
1.5212337
1.5213321
1.5213155
1.5212482
1.5213976
1.5214154
1.5213363
1.5213511
1.5212655
1.5213621
1.521279
1.5213478
1.521063
1.5211374
1.5210692
1.5210021
1.521244
1.5211752
1.5212125
1.5211479
1.5209997
1.5209231
1.5209885
1.5210752
1.5211553
1.5211844
1.5210698
1.5210964
1.5213139
1.5213547
1.5212897
1.5213827
1.5213103
1.5212354
1.5212571
1.5213358
1.5214114
1.5214496
1.5213464
1.5213801
1.5213674
1.5214027
1.5212909
1.5213224
1.5212535
1.5211836
1.52112
1.521184
1.5212028
1.5211305
1.5210582
1.5211238
1.5212867
1.5213226
1.5212561
1.5213572
1.5211982
1.5212758
1.521308
1.5212271
1.5212096
1.5212512
1.5211891
1.5212747
1.5211161
1.5211978
1.5212205
1.5211354
1.5213406
1.5212732
1.5213072
1.5212444
1.5211695
1.5212537
1.5212839
1.5211973
1.5212264
1.5211622
1.5211724
1.5212392
1.5212363
1.5212527
1.5211723
1.5211857
1.5210981
1.5211626
1.5210896
1.5211737
1.5211865
1.5211111
1.5211728
1.5210997
1.5212348
1.521172
1.5211855
1.5212515
1.5211129
1.5211727
1.5211018
1.5211872
1.5212157
1.5212669
1.5212037
1.5212811
1.5212041
1.5211313
1.5211423
1.5212167
1.5211025
1.5210515
1.5210607
1.5211146
1.5209991
1.5210635
1.5210538
1.5210068
1.521025
1.5210819
1.5210921
1.5210318
1.5211319
1.5211438
1.52108
1.5210899
1.5210899
1.5210374
1.5210444
1.5210992
1.5211001
1.5210477
1.521112
1.5210572
1.5209823
1.520989
1.521039
1.5210466
1.521059
1.5210499
1.5209949
1.5210005
1.5200658
1.5200782
1.5200861
1.5200767
1.5201625
1.5202692
1.5202173
1.5201633
1.5200738
1.5201203
1.5198194
1.519918
1.5197974
1.5199158
1.5199634
1.5199737
1.5199739
1.5199796
1.5199437
1.519798
1.5235201
1.5235879
1.5206966
1.5206642
1.5206791
1.5206461
1.5206709
1.5206489
1.520635
1.5206515
1.5207169
1.5206995
1.5206761
1.5206892
1.520684
1.5207112
1.520745
1.5207186
1.520537
1.52057
1.5206241
1.52059
1.5205131
1.5205359
1.5205831
1.5205619
1.5206045
1.5206374
1.5206797
1.5206496
1.5205736
1.5205923
1.5206299
1.5206113
1.5207049
1.5206557
1.5206719
1.5206225
1.5206409
1.5205833
1.5205499
1.5206045
1.5206506
1.5205933
1.5205693
1.5206216
1.5206428
1.5206696
1.5207223
1.5206946
1.5207746
1.520737
1.5207054
1.5207436
1.5207425
1.52073
1.5207003
1.5207102
1.5207255
1.5207499
1.5207589
1.5207327
1.5207958
1.520755
1.5207306
1.5207714
1.5204904
1.5204871
1.5204613
1.5204592
1.5204568
1.520417
1.5204109
1.5204519
1.5204734
1.5204865
1.5205296
1.5205149
1.5205368
1.5205239
1.5205581
1.5205664
1.520329
1.5203225
1.5203774
1.5203708
1.5202081
1.520172
1.5202546
1.5202781
1.5202885
1.520273
1.5202895
1.5203129
1.5203799
1.5203836
1.5204097
1.5204072
1.5203452
1.5203218
1.5203743
1.5203427
1.5203153
1.520307
1.5203268
1.520343
1.5204391
1.5204201
1.520421
1.5204405
1.5204387
1.520437
1.5204697
1.5204738
1.5205225
1.5205021
1.5205031
1.5205236
1.5205822
1.5205778
1.5205992
1.5206041
1.5205206
1.5205209
1.5205542
1.52055
1.5206319
1.5206015
1.5205914
1.5206233
1.5206248
1.5206169
1.5206282
1.5206209
1.5206139
1.5206073
1.5206027
1.5206163
1.5206951
1.5206793
1.520671
1.5206861
1.5206952
1.5207014
1.5207066
1.5207011
1.520406
1.5204052
1.5204327
1.5204345
1.5205262
1.5205253
1.5205309
1.5205304
1.5204297
1.5204059
1.5204154
1.520445
1.520537
1.5205271
1.520533
1.5205431
1.5206546
1.5205218
1.5206989
1.5205584
1.5204628
1.5204526
1.5204796
1.5204939
1.5205802
1.5205646
1.5205692
1.5205872
1.5206518
1.520636
1.5207882
1.5207896
1.520861
1.5207191
1.5207327
1.5208593
1.5206635
1.5206428
1.5206455
1.5206675
1.5207181
1.5207167
1.5207402
1.5207387
1.5209239
1.5207959
1.5208028
1.5209158
1.5215249
1.5214055
1.5215793
1.5214587
1.5214772
1.5214162
1.5213078
1.521365
1.5216428
1.5216797
1.5215211
1.5215573
1.5214285
1.5215788
1.5214647
1.5215406
1.5213194
1.5213839
1.5213011
1.5212412
1.5212556
1.5211726
1.5212342
1.521323
1.5214023
1.5214484
1.5213679
1.5214863
1.5213907
1.5214265
1.521303
1.5213353
1.5214908
1.5215291
1.5215724
1.5214519
1.5214739
1.5215069
1.5213961
1.5214249
1.5213342
1.5214498
1.5213601
1.5214194
1.5214762
1.5215163
1.5214263
1.5213902
1.5217524
1.521635
1.5217108
1.5215941
1.5216941
1.5216616
1.5215429
1.5215736
1.521596
1.5215623
1.5214537
1.5214841
1.5215073
1.5215484
1.521615
1.5216584
1.5218843
1.5216838
1.5219145
1.5217182
1.5217315
1.5215653
1.5216883
1.5215202
1.5220148
1.521995
1.5217887
1.521815
1.5218312
1.521662
1.5218012
1.521629
1.5222797
1.5222455
1.5220022
1.5222503
1.5222518
1.522013
1.5220414
1.5220582
1.5222844
1.5222862
1.5219072
1.5221287
1.5218857
1.522141
1.5222414
1.5219901
1.5222429
1.5220052
1.5222372
1.5221309
1.5220069
1.5220232
1.5218249
1.5218043
1.5218161
1.521648
1.5216753
1.5218417
1.5218771
1.5220467
1.5218477
1.5220687
1.521861
1.5216955
1.5218948
1.5217328
1.5223158
1.5223073
1.5223123
1.522313
1.5220741
1.5220812
1.5220783
1.5220926
1.5223202
1.5223211
1.5219115
1.5220936
1.5218947
1.5221071
1.5221034
1.5221221
1.52191
1.5219347
1.5219078
1.5217417
1.5219287
1.5217635
1.5219518
1.5217618
1.5217924
1.5219238
1.5220786
1.5220904
1.521883
1.5218977
1.5219141
1.5217518
1.5218957
1.5217327
1.5219104
1.5220831
1.5218847
1.5221021
1.5218982
1.5217338
1.5217659
1.5219275
1.5223316
1.522332
1.522089
1.5220967
1.5220979
1.5221112
1.5223345
1.5223352
1.5223305
1.5223275
1.5217481
1.5216327
1.5216535
1.5217702
1.5216537
1.5215475
1.5216762
1.5215671
1.5217499
1.5217848
1.5216336
1.5216677
1.5215488
1.5216908
1.5215818
1.5216552
1.5216644
1.5217575
1.5216403
1.5217828
1.5216613
1.521554
1.5215774
1.5216876
1.5216964
1.5217781
1.5216643
1.5218112
1.5216857
1.5215804
1.5217188
1.5216109
1.5215711
1.521605
1.5215247
1.5214946
1.5215105
1.5215695
1.521493
1.52159
1.5215181
1.5214348
1.5214497
1.5215361
1.5215201
1.5215504
1.521437
1.5214639
1.5215201
1.5215759
1.5214986
1.5216007
1.5214402
1.5215234
1.5215458
1.5214587
1.5216336
1.5215543
1.5216027
1.5215271
1.52147
1.5215522
1.5215792
1.5214934
1.5213574
1.5214071
1.5213478
1.521419
1.5214321
1.5214189
1.5213606
1.5213716
1.5213573
1.52128
1.5213684
1.5212898
1.5213815
1.5212944
1.5213048
1.5213706
1.5215023
1.5214851
1.521423
1.5214373
1.5214588
1.5214432
1.5213715
1.5213845
1.5214566
1.5214987
1.5214365
1.5215219
1.5213861
1.5214577
1.5214781
1.5214036
1.521421
1.5213582
1.5214027
1.521343
1.5214017
1.521387
1.5213268
1.5213395
1.52135
1.5213352
1.5212587
1.5212707
1.5212751
1.5212895
1.5213532
1.5213686
1.5214522
1.5215026
1.5214406
1.5215162
1.5214614
1.5213903
1.5214007
1.521474
1.5214658
1.5215118
1.5214514
1.5215282
1.5214723
1.521402
1.5214867
1.5214145
1.5214929
1.5215026
1.5214365
1.5214439
1.5214634
1.521397
1.5214551
1.5213906
1.5214455
1.5214925
1.5214368
1.521503
1.5214555
1.5213919
1.5213991
1.5214638
1.5214048
1.52135
1.5213568
1.5214125
1.5213575
1.5212897
1.5212969
1.5213658
1.5214063
1.5214135
1.5213528
1.5213588
1.5213611
1.5213669
1.5212935
1.5212997
1.521332
1.5213857
1.5213386
1.5213776
1.5212864
1.5213421
1.5213362
1.5212819
1.521344
1.5213558
1.521309
1.5213234
1.5212668
1.5213291
1.5212876
1.52131
1.5214085
1.5214672
1.5214171
1.5214579
1.521411
1.5214104
1.5213728
1.5213754
1.5213866
1.5213462
1.5213816
1.5213384
1.5214307
1.5214215
1.5213761
1.5213677
1.5212594
1.5212011
1.5212119
1.5212731
1.5212758
1.5212912
1.5212166
1.5212294
1.5212305
1.5211609
1.5212171
1.5211498
1.521202
1.5212135
1.5211358
1.5211443
1.5210961
1.521137
1.5210895
1.521146
1.5210918
1.5210414
1.5210479
1.5210989
1.5211504
1.5211621
1.5211023
1.5211115
1.5211135
1.5210611
1.5211044
1.521055
1.5212313
1.5212807
1.521222
1.5212924
1.5212229
1.5211568
1.5211644
1.5212329
1.5212476
1.5212955
1.5212376
1.5213071
1.5212382
1.5211719
1.5212489
1.5211812
1.5211164
1.5211578
1.5211104
1.521166
1.5211127
1.5210637
1.5211192
1.5210689
1.5211828
1.5211726
1.5211253
1.5211338
1.5211358
1.5210775
1.5211272
1.5210833
1.5212393
1.5212852
1.5212427
1.5212812
1.5212415
1.5211962
1.5212381
1.5211934
1.5212901
1.5212382
1.5212984
1.5212445
1.5212454
1.5211859
1.5212386
1.5211811
1.5212489
1.5212938
1.5212425
1.521301
1.5212426
1.5211855
1.521192
1.5212497
1.5210991
1.5211409
1.5211449
1.521103
1.5211815
1.5211396
1.5211433
1.5211867
1.5211855
1.5211443
1.5211927
1.5211504
1.5211515
1.5211055
1.5211454
1.5211093
1.5211258
1.5211272
1.5211598
1.5211576
1.521159
1.5211947
1.5211612
1.5211921
1.5211655
1.5211403
1.5211184
1.5211868
1.5216908
1.5217919
1.5218064
1.5218168
1.521818
1.5218082
1.5217964
1.5217046
1.5217368
1.5217771
1.5213891
1.521399
1.5213287
1.5213454
1.5214141
1.5214322
1.5213682
1.5213954
1.5213699
1.521376
1.5213479
1.5213406
1.5213164
1.5213244
1.521307
1.5212981
1.5215472
1.5214897
1.5214813
1.521551
1.5214513
1.5214684
1.5214502
1.5214231
1.5215505
1.5214709
1.5214695
1.5215483
1.5214069
1.5214366
1.5214333
1.5214015
1.5214176
1.5214558
1.5215435
1.5223843
1.5222249
1.5220182
1.5214565
1.5228439
1.5227631
1.5225839
1.5225289
1.5212925
1.5227101
1.5223635
1.5221451
1.5224427
1.5235267
1.5235747
1.5235517
1.5235135
1.5235325
1.5235181
1.5234895
1.5235558
1.5235509
1.5235571
1.5235569
1.523562
1.5235529
1.5235277
1.5234993
1.5234957
1.5235195
1.5230252
1.5232653
1.5231906
1.522832
1.5228225
1.5228819
1.5226261
1.52322
1.5232723
1.5226211
1.5229148
1.5228797
1.5226535
1.5233041
1.5232703
1.5232253
1.5232488
1.523336
1.5233725
1.5232643
1.5232906
1.5233259
1.5232879
1.5234014
1.5233892
1.5230474
1.5229895
1.5229724
1.5229475
1.5225563
1.5225066
1.5223663
1.522575
1.5235591
1.5235697
1.5235654
1.5235766
1.5235777
1.5235754
1.5235844
1.5235831
1.5235331
1.5235472
1.5234978
1.5235079
1.5235581
1.5235537
1.5235232
1.5235066
1.5233467
1.5232954
1.5234196
1.5234036
1.5229786
1.5230833
1.5226034
1.5223078
1.5230461
1.5232603
1.5232323
1.5230327
1.5230223
1.5232041
1.5231448
1.5229795
1.5234113
1.5234314
1.5234063
1.5234352
1.5232983
1.5233588
1.5232899
1.5233602
1.5231057
1.5229787
1.5231279
1.5229731
1.5229102
1.5230436
1.5229138
1.5228148
1.5226371
1.522619
1.5222657
1.5222178
1.5222884
1.5226556
1.5226234
1.5223324
1.523583
1.5235798
1.5235897
1.5235877
1.5235652
1.5235594
1.5235322
1.5235101
1.5231164
1.5233687
1.5233619
1.5231281
1.5231392
1.5233684
1.523359
1.5231303
1.5235891
1.5235927
1.5235733
1.5235822
1.5235813
1.5235859
1.5235658
1.5235739
1.5231273
1.5233525
1.52334
1.5231227
1.5231092
1.5233277
1.5232973
1.5230767
1.5235615
1.5235692
1.5235446
1.523558
1.5235113
1.5235373
1.5234973
1.5235272
1.5215925
1.5220741
1.5222047
1.5218672
1.5221849
1.5222784
1.5221286
1.5220441
1.5223096
1.5235483
1.5235008
1.5234847
1.5235614
1.5235869
1.5235484
1.5235587
1.5234054
1.5234721
1.52342
1.5234867
1.5234176
1.5234773
1.5235583
1.5235687
1.5235617
1.5235531
1.5236304
1.5236281
1.523637
1.5236235
1.5236161
1.5236063
1.5235997
1.5236127
1.5236132
1.5236153
1.5236167
1.5236168
1.5236156
1.5236101
1.5236028
1.5236028
1.5236086
1.5234731
1.5234752
1.5232681
1.5233464
1.5231389
1.5232791
1.5234545
1.5234833
1.5235527
1.5235559
1.5235683
1.5235765
1.5235534
1.5235623
1.5235791
1.5235847
1.5236003
1.5236063
1.523609
1.5236163
1.5236204
1.5236214
1.5236124
1.5236085
1.5236139
1.5236184
1.5236152
1.5236216
1.5236194
1.5236229
1.5236256
1.5236255
1.523448
1.5234901
1.5230749
1.5232716
1.5235545
1.5235667
1.5235825
1.5235903
1.5230175
1.5232582
1.5232063
1.5229042
1.5229203
1.5225713
1.5222889
1.5226598
1.5232462
1.5231475
1.5228941
1.5229921
1.5234924
1.5234393
1.5234754
1.5234023
1.523317
1.5232978
1.5230361
1.523062
1.523354
1.5233363
1.5230815
1.523094
1.5235678
1.5235536
1.5235492
1.5235344
1.5235927
1.523584
1.5235786
1.5235676
1.5236212
1.5236259
1.5236287
1.5236284
1.5236253
1.5236238
1.5236164
1.5236113
1.5236265
1.5236214
1.5236048
1.5236082
1.5233863
1.5233777
1.5231209
1.523141
1.5231514
1.5233953
1.5233905
1.5231456
1.5236292
1.5236297
1.5236121
1.5236143
1.5231455
1.5233936
1.5233904
1.5231501
1.5231478
1.5233921
1.52338
1.5231277
1.5236247
1.5236271
1.5236076
1.5236136
1.5236119
1.5236183
1.5235975
1.5236057
1.5235222
1.5234917
1.5228495
1.5221848
1.5228199
1.5221517
1.5228494
1.5221853
1.5228606
1.5221994
1.5228592
1.5221974
1.5228464
1.5221798
1.5228252
1.5221602
1.522854
1.5221913
1.5224373
1.5218596
1.5220856
1.521607
1.5227048
1.5220343
1.5226393
1.5220087
1.5227602
1.5220902
1.5227318
1.5220598