/*--------------------------------*- C++ -*----------------------------------*\
  =========                 |
  \\      /  F ield         | OpenFOAM: The Open Source CFD Toolbox
   \\    /   O peration     | Website:  https://openfoam.org
    \\  /    A nd           | Version:  7
     \\/     M anipulation  |
\*---------------------------------------------------------------------------*/
FoamFile
{
    version     2.0;
    format      ascii;
    class       volScalarField;
    location    "6000";
    object      p;
}
// * * * * * * * * * * * * * * * * * * * * * * * * * * * * * * * * * * * * * //

dimensions      [0 2 -2 0 0 0 0];

internalField   nonuniform List<scalar> 
33730
(
-2.9056383e+73
-2.7970058e+73
-2.78607e+73
-2.6555116e+73
-2.6452006e+73
-2.7990004e+73
-2.8025062e+73
-2.8092827e+73
-2.8133932e+73
-2.7459167e+73
-2.7499661e+73
-2.7199235e+73
-2.7159579e+73
-2.7410401e+73
-2.7112556e+73
-2.7041198e+73
-2.7341593e+73
-2.4506656e+73
-2.3465768e+73
-2.5590698e+73
-2.461329e+73
-2.5484506e+73
-2.2464813e+73
-2.656738e+73
-2.6610948e+73
-2.6448088e+73
-2.6515114e+73
-2.7504746e+73
-2.735506e+73
-2.7294089e+73
-2.7440909e+73
-2.7525577e+73
-2.7592271e+73
-2.74951e+73
-2.7560522e+73
-2.7582066e+73
-2.7421608e+73
-2.7389581e+73
-2.7547396e+73
-2.767554e+73
-2.7635643e+73
-2.7645804e+73
-2.7605885e+73
-2.7213954e+73
-2.700421e+73
-2.7188394e+73
-2.6978163e+73
-2.725034e+73
-2.7233145e+73
-2.7022157e+73
-2.7039931e+73
-2.6920644e+73
-2.712961e+73
-2.6951647e+73
-2.7159988e+73
-2.7060077e+73
-2.7098083e+73
-2.685048e+73
-2.6888966e+73
-2.4946781e+73
-2.4522946e+73
-2.470912e+73
-2.4527414e+73
-2.4038669e+73
-2.5019594e+73
-2.4587843e+73
-2.3590668e+73
-2.3570795e+73
-2.6085432e+73
-2.5509525e+73
-2.5554623e+73
-2.603984e+73
-2.369972e+73
-2.2708975e+73
-2.2589768e+73
-2.5115766e+73
-2.4675131e+73
-2.4634476e+73
-2.5073695e+73
-2.5451426e+73
-2.5376463e+73
-2.5984489e+73
-2.5914765e+73
-2.1503184e+73
-2.3094211e+73
-2.2523391e+73
-2.6653904e+73
-2.6630172e+73
-2.667279e+73
-2.6693989e+73
-2.6536347e+73
-2.650077e+73
-2.656762e+73
-2.6602963e+73
-2.694392e+73
-2.6878417e+73
-2.7012115e+73
-2.685377e+73
-2.6795899e+73
-2.6951455e+73
-2.7205336e+73
-2.7272848e+73
-2.7167887e+73
-2.723537e+73
-2.7234588e+73
-2.7263785e+73
-2.7332528e+73
-2.730234e+73
-2.7285655e+73
-2.7247641e+73
-2.7218377e+73
-2.7181291e+73
-2.7345584e+73
-2.7314499e+73
-2.7279014e+73
-2.7248105e+73
-2.7086151e+73
-2.6917903e+73
-2.6890071e+73
-2.7057013e+73
-2.7325441e+73
-2.7338605e+73
-2.7410581e+73
-2.7396828e+73
-2.7287976e+73
-2.7311536e+73
-2.7357806e+73
-2.7381545e+73
-2.7427333e+73
-2.7411486e+73
-2.7365498e+73
-2.7348908e+73
-2.739645e+73
-2.7371604e+73
-2.7331949e+73
-2.7306919e+73
-2.6929143e+73
-2.7065879e+73
-2.7055802e+73
-2.6918569e+73
-2.7044314e+73
-2.7028948e+73
-2.6892718e+73
-2.6907532e+73
-2.7104184e+73
-2.7095158e+73
-2.6967633e+73
-2.6957364e+73
-2.7086792e+73
-2.7076902e+73
-2.6948765e+73
-2.693861e+73
-2.6984546e+73
-2.6967976e+73
-2.6846256e+73
-2.6829137e+73
-2.7013595e+73
-2.6998442e+73
-2.6878155e+73
-2.6861241e+73
-2.6917492e+73
-2.6779601e+73
-2.6758794e+73
-2.6896437e+73
-2.6950879e+73
-2.6935009e+73
-2.6813277e+73
-2.6796731e+73
-2.4922671e+73
-2.4962981e+73
-2.5131076e+73
-2.5170622e+73
-2.4895561e+73
-2.4989549e+73
-2.4744959e+73
-2.4786003e+73
-2.4607917e+73
-2.4565251e+73
-2.410401e+73
-2.4718199e+73
-2.4807281e+73
-2.4694518e+73
-2.4783932e+73
-2.46351e+73
-2.461047e+73
-2.4551629e+73
-2.4352635e+73
-2.4525459e+73
-2.4117936e+73
-2.4167337e+73
-2.4999129e+73
-2.5044775e+73
-2.5255161e+73
-2.5208017e+73
-2.482163e+73
-2.4641219e+73
-2.4680049e+73
-2.4863498e+73
-2.4163685e+73
-2.3685152e+73
-2.3624847e+73
-2.3794554e+73
-2.3742606e+73
-2.398675e+73
-2.3936115e+73
-2.638101e+73
-2.6041511e+73
-2.6062666e+73
-2.6358654e+73
-2.5771594e+73
-2.5499835e+73
-2.5529113e+73
-2.574347e+73
-2.5804851e+73
-2.55447e+73
-2.5557563e+73
-2.5787926e+73
-2.6024336e+73
-2.5998294e+73
-2.6317145e+73
-2.6340747e+73
-2.1636496e+73
-2.176269e+73
-2.0708189e+73
-2.0567403e+73
-2.372745e+73
-2.3773835e+73
-2.424671e+73
-2.4205553e+73
-2.3302305e+73
-2.2737453e+73
-2.268125e+73
-2.3253136e+73
-2.3206172e+73
-2.2627508e+73
-2.257624e+73
-2.3145929e+73
-2.5133224e+73
-2.5346783e+73
-2.5335848e+73
-2.5122201e+73
-2.4945595e+73
-2.4736836e+73
-2.4749179e+73
-2.4933617e+73
-2.4727041e+73
-2.4896306e+73
-2.4920609e+73
-2.4707131e+73
-2.5107561e+73
-2.5078463e+73
-2.5320793e+73
-2.5291254e+73
-2.5667115e+73
-2.5464044e+73
-2.5710341e+73
-2.5416975e+73
-2.5379068e+73
-2.562925e+73
-2.5589596e+73
-2.5339544e+73
-2.5968686e+73
-2.6288478e+73
-2.5926841e+73
-2.6250569e+73
-2.5854283e+73
-2.5892852e+73
-2.6218477e+73
-2.6181969e+73
-2.1930064e+73
-2.1186314e+73
-2.3580843e+73
-2.3318257e+73
-2.3274511e+73
-2.3530186e+73
-2.2692663e+73
-2.3040074e+73
-2.2648648e+73
-2.3000838e+73
-2.6719027e+73
-2.6707419e+73
-2.6684677e+73
-2.669724e+73
-2.6736695e+73
-2.6727617e+73
-2.6758183e+73
-2.6745805e+73
-2.6582741e+73
-2.6601255e+73
-2.6566844e+73
-2.6547472e+73
-2.6616824e+73
-2.6633679e+73
-2.6650233e+73
-2.6670131e+73
-2.5938127e+73
-2.586909e+73
-2.6513675e+73
-2.6996468e+73
-2.7027725e+73
-2.6372321e+73
-2.6316571e+73
-2.6453966e+73
-2.6930054e+73
-2.6966529e+73
-2.7054196e+73
-2.701824e+73
-2.7117023e+73
-2.7086183e+73
-2.7144492e+73
-2.7127842e+73
-2.7141023e+73
-2.7158548e+73
-2.7090756e+73
-2.7110346e+73
-2.7124601e+73
-2.7104696e+73
-2.7047581e+73
-2.7031156e+73
-2.7127058e+73
-2.711001e+73
-2.7093763e+73
-2.7014783e+73
-2.7073638e+73
-2.6994078e+73
-2.7205646e+73
-2.7190992e+73
-2.7204438e+73
-2.7220041e+73
-2.7176838e+73
-2.7160589e+73
-2.7190975e+73
-2.7174164e+73
-2.7108445e+73
-2.7093623e+73
-2.7188325e+73
-2.7173114e+73
-2.7080832e+73
-2.7064216e+73
-2.715981e+73
-2.714309e+73
-2.6585801e+73
-2.71003e+73
-2.7088868e+73
-2.6434266e+73
-2.6407957e+73
-2.6558633e+73
-2.7074721e+73
-2.7052474e+73
-2.7194462e+73
-2.7182705e+73
-2.7144338e+73
-2.7166431e+73
-2.7282452e+73
-2.7276608e+73
-2.7292509e+73
-2.7299621e+73
-2.7270904e+73
-2.7262882e+73
-2.728667e+73
-2.7277783e+73
-2.7270848e+73
-2.7195211e+73
-2.7187599e+73
-2.7263811e+73
-2.7180676e+73
-2.7170793e+73
-2.7257368e+73
-2.7248021e+73
-2.7253834e+73
-2.7244565e+73
-2.7269078e+73
-2.7258773e+73
-2.7233937e+73
-2.7220132e+73
-2.7248629e+73
-2.7234159e+73
-2.723839e+73
-2.7159686e+73
-2.7150022e+73
-2.7228335e+73
-2.7139243e+73
-2.7124252e+73
-2.7217917e+73
-2.7203259e+73
-2.6943614e+73
-2.6949033e+73
-2.6879079e+73
-2.6873523e+73
-2.6932689e+73
-2.693898e+73
-2.6868591e+73
-2.6862544e+73
-2.6920686e+73
-2.6926776e+73
-2.6857159e+73
-2.6851093e+73
-2.6905403e+73
-2.6914182e+73
-2.6844981e+73
-2.6836494e+73
-2.6983768e+73
-2.6989249e+73
-2.6918839e+73
-2.6912603e+73
-2.6973974e+73
-2.6979412e+73
-2.6907743e+73
-2.6902334e+73
-2.6964641e+73
-2.6969233e+73
-2.6898061e+73
-2.6893506e+73
-2.6954763e+73
-2.6960462e+73
-2.6889401e+73
-2.6883853e+73
-2.6857251e+73
-2.6865102e+73
-2.6795284e+73
-2.678706e+73
-2.6840528e+73
-2.6849897e+73
-2.6779566e+73
-2.6770283e+73
-2.6888818e+73
-2.6897376e+73
-2.6828657e+73
-2.6819598e+73
-2.6872783e+73
-2.6881626e+73
-2.6811673e+73
-2.6802698e+73
-2.6788463e+73
-2.6798266e+73
-2.6728579e+73
-2.6718902e+73
-2.6766558e+73
-2.6779414e+73
-2.6709489e+73
-2.6697868e+73
-2.6822841e+73
-2.6831828e+73
-2.676219e+73
-2.6753233e+73
-2.6806961e+73
-2.681586e+73
-2.6745523e+73
-2.673654e+73
-1.9420033e+73
-2.493278e+73
-2.4913023e+73
-2.5026195e+73
-2.5006484e+73
-2.4973673e+73
-2.5066684e+73
-2.4951493e+73
-2.5044962e+73
-2.5122762e+73
-2.5229539e+73
-2.5103238e+73
-2.5210116e+73
-2.5162887e+73
-2.5269649e+73
-2.5140815e+73
-2.5247702e+73
-2.5078978e+73
-2.4927885e+73
-2.4894501e+73
-2.4938654e+73
-2.4883436e+73
-2.4983546e+73
-2.5031075e+73
-2.4972607e+73
-2.4873367e+73
-2.4917924e+73
-2.4757295e+73
-2.4845333e+73
-2.4736537e+73
-2.48254e+73
-2.4798896e+73
-2.4886578e+73
-2.4776438e+73
-2.4864211e+73
-2.4718351e+73
-2.4695662e+73
-2.4638262e+73
-2.4614928e+73
-2.4436583e+73
-2.4675576e+73
-2.4653948e+73
-2.4571166e+73
-2.4593778e+73
-2.4394196e+73
-2.4249631e+73
-2.4209276e+73
-2.4753995e+73
-2.4724082e+73
-2.4765223e+73
-2.4712542e+73
-2.4807453e+73
-2.4850846e+73
-2.4839656e+73
-2.4796333e+73
-2.4733169e+73
-2.4702583e+73
-2.4743779e+73
-2.469192e+73
-2.4786195e+73
-2.4829468e+73
-2.4775433e+73
-2.4818733e+73
-2.4636314e+73
-2.4625464e+73
-2.4682179e+73
-2.4670985e+73
-2.4660578e+73
-2.4649734e+73
-2.4614117e+73
-2.4602689e+73
-2.4567882e+73
-2.4477879e+73
-2.4373875e+73
-2.4401799e+73
-2.4450823e+73
-2.4544597e+73
-2.4178953e+73
-2.4201537e+73
-2.4277889e+73
-2.4256113e+73
-2.4223738e+73
-2.425434e+73
-2.4328836e+73
-2.4299852e+73
-2.5014576e+73
-2.4992535e+73
-2.510889e+73
-2.5085883e+73
-2.5064971e+73
-2.5159366e+73
-2.503769e+73
-2.5132708e+73
-2.5256535e+73
-2.5363783e+73
-2.5229337e+73
-2.5336384e+73
-2.5205864e+73
-2.5312776e+73
-2.51824e+73
-2.5289558e+73
-2.4838187e+73
-2.4926385e+73
-2.4817585e+73
-2.4905445e+73
-2.4756876e+73
-2.4736836e+73
-2.46568e+73
-2.4675655e+73
-2.4466503e+73
-2.4802841e+73
-2.4777145e+73
-2.469494e+73
-2.4718486e+73
-2.4501588e+73
-2.4885763e+73
-2.4976134e+73
-2.4858691e+73
-2.4948344e+73
-2.4308984e+73
-2.4276219e+73
-2.3884828e+73
-2.3914536e+73
-2.4118504e+73
-2.4088923e+73
-2.3858425e+73
-2.4062108e+73
-2.4025851e+73
-2.382458e+73
-2.403212e+73
-2.3954803e+73
-2.392303e+73
-2.3999575e+73
-2.3872047e+73
-2.3897628e+73
-2.3975718e+73
-2.3951073e+73
-2.4070542e+73
-2.4103312e+73
-2.4180022e+73
-2.4147863e+73
-2.4125561e+73
-2.4048117e+73
-2.402398e+73
-2.4102793e+73
-2.3800949e+73
-2.4272541e+73
-2.2772966e+73
-2.3329793e+73
-2.4756869e+73
-2.494932e+73
-2.513535e+73
-2.6368471e+73
-2.6356653e+73
-2.656399e+73
-2.6551535e+73
-2.6032772e+73
-2.6025009e+73
-2.6186504e+73
-2.6177614e+73
-2.6051164e+73
-2.6205587e+73
-2.604087e+73
-2.6195269e+73
-2.634779e+73
-2.6542533e+73
-2.6338672e+73
-2.6533827e+73
-2.5757755e+73
-2.5887106e+73
-2.5746205e+73
-2.5875767e+73
-2.5507989e+73
-2.5488808e+73
-2.5619755e+73
-2.5601209e+73
-2.5534388e+73
-2.5644861e+73
-2.5522221e+73
-2.563363e+73
-2.5733151e+73
-2.5863837e+73
-2.5715578e+73
-2.5847923e+73
-2.5784549e+73
-2.5776325e+73
-2.5917743e+73
-2.5908231e+73
-2.5543352e+73
-2.5655293e+73
-2.5539442e+73
-2.564999e+73
-2.5553721e+73
-2.5667953e+73
-2.5547593e+73
-2.5661239e+73
-2.5769325e+73
-2.5900702e+73
-2.5763212e+73
-2.5893956e+73
-2.6016883e+73
-2.6005502e+73
-2.6169262e+73
-2.6158743e+73
-2.599452e+73
-2.6148173e+73
-2.5979695e+73
-2.6133963e+73
-2.6310049e+73
-2.6505109e+73
-2.6492773e+73
-2.6296603e+73
-2.6330548e+73
-2.6319404e+73
-2.6525467e+73
-2.6514498e+73
-2.2033474e+73
-2.1988132e+73
-2.12844e+73
-2.124646e+73
-2.215889e+73
-2.2093293e+73
-2.1345073e+73
-2.1437338e+73
-2.0468091e+73
-2.0326803e+73
-2.3933685e+73
-2.395334e+73
-2.415677e+73
-2.4138208e+73
-2.417949e+73
-2.3979924e+73
-2.4170572e+73
-2.3967916e+73
-2.4352519e+73
-2.436237e+73
-2.4560078e+73
-2.4548246e+73
-2.4327979e+73
-2.4344025e+73
-2.4540931e+73
-2.4524887e+73
-2.3481196e+73
-2.3502906e+73
-2.3760712e+73
-2.3745835e+73
-2.3231759e+73
-2.2891862e+73
-2.2861518e+73
-2.3205757e+73
-2.281141e+73
-2.28352e+73
-2.3183055e+73
-2.3157932e+73
-2.3460112e+73
-2.3730015e+73
-2.3438331e+73
-2.3710602e+73
-2.3391582e+73
-2.3421374e+73
-2.3690532e+73
-2.3660273e+73
-2.2785949e+73
-2.3138062e+73
-2.2749422e+73
-2.3110037e+73
-2.2715125e+73
-2.2727723e+73
-2.3085015e+73
-2.3060751e+73
-2.3337706e+73
-2.3363888e+73
-2.3634574e+73
-2.3605215e+73
-2.5143056e+73
-2.5240016e+73
-2.5140024e+73
-2.5236867e+73
-2.5338856e+73
-2.5447796e+73
-2.5334565e+73
-2.5442248e+73
-2.5331356e+73
-2.5333378e+73
-2.5439408e+73
-2.5436735e+73
-2.5138319e+73
-2.5139426e+73
-2.523585e+73
-2.5234259e+73
-2.4957492e+73
-2.5051939e+73
-2.4953231e+73
-2.5048488e+73
-2.4766363e+73
-2.4765064e+73
-2.4859562e+73
-2.4859253e+73
-2.4867528e+73
-2.4862311e+73
-2.4767067e+73
-2.4773498e+73
-2.4950687e+73
-2.5047155e+73
-2.4949941e+73
-2.5046588e+73
-2.4759682e+73
-2.4766081e+73
-2.4857476e+73
-2.4849775e+73
-2.4926355e+73
-2.4907938e+73
-2.5017077e+73
-2.4997865e+73
-2.4946592e+73
-2.5042221e+73
-2.4937476e+73
-2.5030849e+73
-2.4840141e+73
-2.4823255e+73
-2.4736634e+73
-2.4751423e+73
-2.5133269e+73
-2.5229117e+73
-2.5120601e+73
-2.5216025e+73
-2.5104499e+73
-2.5199366e+73
-2.508459e+73
-2.5178945e+73
-2.5312661e+73
-2.5325995e+73
-2.5431714e+73
-2.5419107e+73
-2.5297144e+73
-2.5404333e+73
-2.527673e+73
-2.5384761e+73
-2.5651559e+73
-2.5628808e+73
-2.5786128e+73
-2.5764771e+73
-2.546852e+73
-2.5581993e+73
-2.5441512e+73
-2.5556299e+73
-2.5672904e+73
-2.5697951e+73
-2.5831107e+73
-2.580715e+73
-2.5418207e+73
-2.5533393e+73
-2.539492e+73
-2.5510141e+73
-2.5375203e+73
-2.5490493e+73
-2.5353272e+73
-2.5469039e+73
-2.5609294e+73
-2.574574e+73
-2.5587327e+73
-2.5724199e+73
-2.556946e+73
-2.5706161e+73
-2.5549719e+73
-2.5686963e+73
-2.5335017e+73
-2.5315435e+73
-2.5430586e+73
-2.5450525e+73
-2.5964102e+73
-2.5941055e+73
-2.6097886e+73
-2.6119233e+73
-2.6282355e+73
-2.6478071e+73
-2.6260899e+73
-2.6457395e+73
-2.5920432e+73
-2.6077742e+73
-2.5899658e+73
-2.6057286e+73
-2.6242706e+73
-2.6439976e+73
-2.6223072e+73
-2.6422198e+73
-2.5842913e+73
-2.6002628e+73
-2.5881841e+73
-2.60401e+73
-2.5860898e+73
-2.6020671e+73
-2.6405918e+73
-2.6206493e+73
-2.6186784e+73
-2.6387109e+73
-2.6371229e+73
-2.6170258e+73
-2.6351844e+73
-2.1090995e+73
-2.225042e+73
-2.2298749e+73
-2.1728221e+73
-2.1789058e+73
-2.3871823e+73
-2.3774836e+73
-2.3841363e+73
-2.3745555e+73
-2.3670166e+73
-2.354364e+73
-2.3640552e+73
-2.351632e+73
-2.3466343e+73
-2.3494464e+73
-2.3616036e+73
-2.3587709e+73
-2.3689147e+73
-2.3717124e+73
-2.3813966e+73
-2.3787473e+73
-2.2855491e+73
-2.3074413e+73
-2.3054706e+73
-2.2830627e+73
-2.3402204e+73
-2.3237143e+73
-2.3215609e+73
-2.3376903e+73
-2.2806954e+73
-2.3032431e+73
-2.3011943e+73
-2.2788847e+73
-2.3357304e+73
-2.3195293e+73
-2.3173485e+73
-2.3331538e+73
-2.3159594e+73
-2.2995733e+73
-2.2769385e+73
-2.675239e+73
-2.6746329e+73
-2.6741231e+73
-2.6736164e+73
-2.671233e+73
-2.6719651e+73
-2.6724787e+73
-2.6731008e+73
-2.6765176e+73
-2.6770068e+73
-2.6761129e+73
-2.6756847e+73
-2.6791946e+73
-2.6784854e+73
-2.6779422e+73
-2.6774457e+73
-2.6608598e+73
-2.6617093e+73
-2.6625615e+73
-2.6635342e+73
-2.6601036e+73
-2.6591539e+73
-2.6582342e+73
-2.6571569e+73
-2.6642821e+73
-2.6651138e+73
-2.6658775e+73
-2.6667965e+73
-2.6676189e+73
-2.6685231e+73
-2.6694183e+73
-2.6704349e+73
-2.5965063e+73
-2.4921248e+73
-2.5884247e+73
-2.5909676e+73
-2.4848723e+73
-2.579496e+73
-2.5848782e+73
-2.6020202e+73
-2.6756336e+73
-2.678837e+73
-2.6528708e+73
-2.6495971e+73
-2.5960857e+73
-2.6689767e+73
-2.6725558e+73
-2.6430087e+73
-2.6465574e+73
-2.6851375e+73
-2.6870028e+73
-2.6909185e+73
-2.689046e+73
-2.7016336e+73
-2.7033754e+73
-2.6816199e+73
-2.6834014e+73
-2.6998802e+73
-2.6873304e+73
-2.685546e+73
-2.6980365e+73
-2.6917311e+73
-2.6934744e+73
-2.6958097e+73
-2.6974753e+73
-2.7082242e+73
-2.7097533e+73
-2.6885364e+73
-2.6901489e+73
-2.6941971e+73
-2.6925268e+73
-2.7066813e+73
-2.7050425e+73
-2.7064197e+73
-2.706903e+73
-2.705955e+73
-2.7054247e+73
-2.7072161e+73
-2.7079573e+73
-2.7085157e+73
-2.7076648e+73
-2.7045352e+73
-2.7037671e+73
-2.7042194e+73
-2.7051025e+73
-2.7033394e+73
-2.7028598e+73
-2.7022583e+73
-2.7017461e+73
-2.6903853e+73
-2.6994104e+73
-2.6985983e+73
-2.6895301e+73
-2.6888393e+73
-2.6978389e+73
-2.6968986e+73
-2.6879253e+73
-2.7064144e+73
-2.7073074e+73
-2.7036945e+73
-2.7045696e+73
-2.7047572e+73
-2.7056874e+73
-2.7020513e+73
-2.7029464e+73
-2.7039144e+73
-2.7029868e+73
-2.7011796e+73
-2.7002655e+73
-2.6870351e+73
-2.6960389e+73
-2.6951715e+73
-2.6861073e+73
-2.6993309e+73
-2.7021113e+73
-2.7010156e+73
-2.6982173e+73
-2.6928926e+73
-2.6941919e+73
-2.6851611e+73
-2.6838534e+73
-2.7128676e+73
-2.7133424e+73
-2.71251e+73
-2.7119891e+73
-2.7135535e+73
-2.714211e+73
-2.7147675e+73
-2.7139987e+73
-2.7105807e+73
-2.7112313e+73
-2.7117891e+73
-2.7110302e+73
-2.7088252e+73
-2.709815e+73
-2.7102989e+73
-2.7093562e+73
-2.6968001e+73
-2.7057296e+73
-2.7049709e+73
-2.6959732e+73
-2.6953174e+73
-2.704279e+73
-2.7034475e+73
-2.6944562e+73
-2.7127463e+73
-2.713566e+73
-2.7100469e+73
-2.7108604e+73
-2.711299e+73
-2.71212e+73
-2.7085916e+73
-2.7094013e+73
-2.6937273e+73
-2.7027149e+73
-2.702015e+73
-2.6929737e+73
-2.6922635e+73
-2.7012723e+73
-2.7003124e+73
-2.6912946e+73
-2.7097937e+73
-2.7105869e+73
-2.7070917e+73
-2.7078644e+73
-2.708156e+73
-2.7090883e+73
-2.7054493e+73
-2.7063599e+73
-2.6422116e+73
-2.6440123e+73
-2.6588116e+73
-2.6092011e+73
-2.6848627e+73
-2.685787e+73
-2.6595736e+73
-2.6588253e+73
-2.6065189e+73
-2.6813559e+73
-2.6835206e+73
-2.6575689e+73
-2.6553595e+73
-2.6998868e+73
-2.7004172e+73
-2.7042355e+73
-2.7046878e+73
-2.717284e+73
-2.716779e+73
-2.6988024e+73
-2.6993749e+73
-2.703664e+73
-2.7029951e+73
-2.7161591e+73
-2.7154121e+73
-2.6948009e+73
-2.6960273e+73
-2.6989013e+73
-2.7001706e+73
-2.7125133e+73
-2.7112037e+73
-2.6970329e+73
-2.698091e+73
-2.7021923e+73
-2.7012184e+73
-2.7145287e+73
-2.7135938e+73
-2.7213931e+73
-2.7220391e+73
-2.7209819e+73
-2.7216547e+73
-2.721632e+73
-2.7218212e+73
-2.7225777e+73
-2.7222782e+73
-2.720388e+73
-2.7206061e+73
-2.7212921e+73
-2.7209584e+73
-2.7206091e+73
-2.7200288e+73
-2.7194571e+73
-2.7200728e+73
-2.7216289e+73
-2.7212655e+73
-2.7189314e+73
-2.7192966e+73
-2.714245e+73
-2.7145796e+73
-2.7060002e+73
-2.7055429e+73
-2.7134142e+73
-2.7138897e+73
-2.7051686e+73
-2.704641e+73
-2.7206415e+73
-2.7210417e+73
-2.7182339e+73
-2.71866e+73
-2.7125827e+73
-2.7129651e+73
-2.7041674e+73
-2.7037208e+73
-2.7115447e+73
-2.712145e+73
-2.7033108e+73
-2.702692e+73
-2.7198741e+73
-2.7202681e+73
-2.7174166e+73
-2.7178242e+73
-2.7189849e+73
-2.7195315e+73
-2.7164616e+73
-2.7170276e+73
-2.7185737e+73
-2.7189313e+73
-2.7195629e+73
-2.7190953e+73
-2.7186958e+73
-2.7181572e+73
-2.7175409e+73
-2.7181138e+73
-2.7175588e+73
-2.7169616e+73
-2.7169783e+73
-2.7164972e+73
-2.7158617e+73
-2.714988e+73
-2.7163693e+73
-2.71553e+73
-2.7179389e+73
-2.71846e+73
-2.7159069e+73
-2.7153995e+73
-2.7104388e+73
-2.7109166e+73
-2.7020383e+73
-2.7015072e+73
-2.701091e+73
-2.7099816e+73
-2.7093613e+73
-2.7004374e+73
-2.7169736e+73
-2.717562e+73
-2.7143815e+73
-2.7149826e+73
-2.6998389e+73
-2.7087525e+73
-2.7081563e+73
-2.6991941e+73
-2.6985363e+73
-2.7074789e+73
-2.7065933e+73
-2.6976239e+73
-2.7157826e+73
-2.7164175e+73
-2.7131505e+73
-2.713791e+73
-2.7143451e+73
-2.715191e+73
-2.7116738e+73
-2.7125217e+73
-1.932207e+73
-2.6792285e+73
-2.6797524e+73
-2.6781679e+73
-2.6787178e+73
-2.6770272e+73
-2.6775951e+73
-2.6756758e+73
-2.6764289e+73
-2.6831211e+73
-2.6837245e+73
-2.6821059e+73
-2.6826179e+73
-2.6811841e+73
-2.6816263e+73
-2.6802454e+73
-2.6807326e+73
-2.6704346e+73
-2.6712729e+73
-2.6687609e+73
-2.6696268e+73
-2.6739077e+73
-2.6748025e+73
-2.6721372e+73
-2.673039e+73
-2.6636266e+73
-2.6645579e+73
-2.6626903e+73
-2.6670998e+73
-2.6679458e+73
-2.6653888e+73
-2.6662577e+73
-2.4933066e+73
-2.4976768e+73
-2.4966571e+73
-2.4922419e+73
-2.4903063e+73
-2.4913074e+73
-2.4957274e+73
-2.494715e+73
-2.5058303e+73
-2.5021255e+73
-2.5068415e+73
-2.5011012e+73
-2.4992028e+73
-2.5039519e+73
-2.5002089e+73
-2.5049363e+73
-2.5006765e+73
-2.4974382e+73
-2.5018072e+73
-2.4962914e+73
-2.506247e+73
-2.5109601e+73
-2.5097784e+73
-2.5050906e+73
-2.4985784e+73
-2.4952658e+73
-2.4996529e+73
-2.4942051e+73
-2.5040947e+73
-2.5087775e+73
-2.5030331e+73
-2.5077454e+73
-2.511602e+73
-2.5166176e+73
-2.5156202e+73
-2.5105926e+73
-2.5271463e+73
-2.5207083e+73
-2.5217268e+73
-2.5261287e+73
-2.5097101e+73
-2.5087268e+73
-2.514741e+73
-2.5137358e+73
-2.5252619e+73
-2.5188335e+73
-2.524249e+73
-2.5198515e+73
-2.5195587e+73
-2.5157147e+73
-2.5207311e+73
-2.5145304e+73
-2.531264e+73
-2.5258432e+73
-2.5246538e+73
-2.5300701e+73
-2.5124905e+73
-2.5175074e+73
-2.5135266e+73
-2.5185499e+73
-2.5290745e+73
-2.5236675e+73
-2.5226218e+73
-2.5280441e+73
-2.5082323e+73
-2.4932776e+73
-2.4899346e+73
-2.4942815e+73
-2.4889188e+73
-2.4987791e+73
-2.5034188e+73
-2.4977552e+73
-2.4879341e+73
-2.4923022e+73
-2.4968011e+73
-2.4764824e+73
-2.4753313e+73
-2.4805356e+73
-2.4794045e+73
-2.4835877e+73
-2.4889883e+73
-2.487901e+73
-2.4847124e+73
-2.4743533e+73
-2.4733363e+73
-2.4774101e+73
-2.4784305e+73
-2.4826337e+73
-2.4816169e+73
-2.4869592e+73
-2.4859582e+73
-2.4835503e+73
-2.4806963e+73
-2.4847082e+73
-2.4795122e+73
-2.4888501e+73
-2.4931302e+73
-2.4919753e+73
-2.4877045e+73
-2.4815041e+73
-2.4784869e+73
-2.4825213e+73
-2.4774712e+73
-2.4866837e+73
-2.490949e+73
-2.4856453e+73
-2.4899031e+73
-2.4722371e+73
-2.4711278e+73
-2.4766461e+73
-2.4754987e+73
-2.4744329e+73
-2.4734089e+73
-2.4700132e+73
-2.4689656e+73
-2.4657673e+73
-2.4568397e+73
-2.4635088e+73
-2.4543996e+73
-2.4495657e+73
-2.4470401e+73
-2.4679043e+73
-2.4667828e+73
-2.4723775e+73
-2.471258e+73
-2.4702281e+73
-2.4691952e+73
-2.4656569e+73
-2.4645968e+73
-2.458866e+73
-2.4498636e+73
-2.4612214e+73
-2.4521599e+73
-2.4446598e+73
-2.4422718e+73
-2.4425035e+73
-2.435111e+73
-2.4327044e+73
-2.4399722e+73
-2.4351158e+73
-2.4304391e+73
-2.4375337e+73
-2.4279508e+73
-2.4763732e+73
-2.4733308e+73
-2.4774192e+73
-2.4722792e+73
-2.4814888e+73
-2.4856452e+73
-2.4846237e+73
-2.480458e+73
-2.4712862e+73
-2.4753741e+73
-2.4702348e+73
-2.4794697e+73
-2.483624e+73
-2.4641747e+73
-2.4631708e+73
-2.4690552e+73
-2.4680373e+73
-2.4670287e+73
-2.465946e+73
-2.462117e+73
-2.4609947e+73
-2.4596426e+73
-2.4563304e+73
-2.450164e+73
-2.4551945e+73
-2.4585356e+73
-2.4410513e+73
-2.4435934e+73
-2.4477036e+73
-2.4528989e+73
-2.4541875e+73
-2.4575487e+73
-2.4563166e+73
-2.4454066e+73
-2.4387096e+73
-2.4231396e+73
-2.4254657e+73
-2.431966e+73
-2.4277557e+73
-2.4305456e+73
-2.4369981e+73
-2.4343498e+73
-2.5049862e+73
-2.5018233e+73
-2.5062463e+73
-2.5005503e+73
-2.4983892e+73
-2.499477e+73
-2.5038928e+73
-2.5027694e+73
-2.5107368e+73
-2.5154868e+73
-2.5094489e+73
-2.5141743e+73
-2.5072278e+73
-2.5130832e+73
-2.5119519e+73
-2.5083693e+73
-2.5070081e+73
-2.5114086e+73
-2.505592e+73
-2.510027e+73
-2.5144996e+73
-2.5192564e+73
-2.5158999e+73
-2.5206656e+73
-2.5073873e+73
-2.5043e+73
-2.5087551e+73
-2.5029515e+73
-2.5132468e+73
-2.5179932e+73
-2.5166725e+73
-2.5119029e+73
-2.5254468e+73
-2.5304816e+73
-2.5290894e+73
-2.5240394e+73
-2.5355934e+73
-2.5409956e+73
-2.539589e+73
-2.5341856e+73
-2.5227634e+73
-2.521431e+73
-2.5278049e+73
-2.5264422e+73
-2.5329238e+73
-2.5315583e+73
-2.5383235e+73
-2.5369757e+73
-2.5239979e+73
-2.5202717e+73
-2.5252923e+73
-2.5189505e+73
-2.5358186e+73
-2.5304041e+73
-2.5290973e+73
-2.5345161e+73
-2.5217262e+73
-2.5178506e+73
-2.522887e+73
-2.5167103e+73
-2.5334233e+73
-2.5280085e+73
-2.526845e+73
-2.5322674e+73
-2.4848593e+73
-2.483675e+73
-2.4888985e+73
-2.4877041e+73
-2.4918751e+73
-2.4974519e+73
-2.4961911e+73
-2.4931123e+73
-2.4826793e+73
-2.4816662e+73
-2.4856558e+73
-2.4866926e+73
-2.4908483e+73
-2.489793e+73
-2.4951431e+73
-2.4940822e+73
-2.4763308e+73
-2.4752666e+73
-2.480782e+73
-2.4796564e+73
-2.4786427e+73
-2.4776413e+73
-2.4742374e+73
-2.4732379e+73
-2.467842e+73
-2.4586072e+73
-2.4698604e+73
-2.4604093e+73
-2.4528843e+73
-2.4511794e+73
-2.4811348e+73
-2.4797942e+73
-2.4858041e+73
-2.4843282e+73
-2.4830359e+73
-2.4818561e+73
-2.4785376e+73
-2.4773908e+73
-2.4719489e+73
-2.4621454e+73
-2.474278e+73
-2.4644145e+73
-2.4566396e+73
-2.4544981e+73
-2.4925432e+73
-2.4899694e+73
-2.4940871e+73
-2.4884116e+73
-2.4983305e+73
-2.5026772e+73
-2.5012065e+73
-2.4968205e+73
-2.4899577e+73
-2.4871133e+73
-2.491219e+73
-2.4859033e+73
-2.4955145e+73
-2.4999039e+73
-2.4942172e+73
-2.4985823e+73
-2.4491625e+73
-2.4413768e+73
-2.4393311e+73
-2.4470946e+73
-2.4454673e+73
-2.4378044e+73
-2.4364849e+73
-2.4439664e+73
-2.4048702e+73
-2.4058934e+73
-2.4144241e+73
-2.4133405e+73
-2.4071606e+73
-2.4092454e+73
-2.4177836e+73
-2.4157081e+73
-2.4335653e+73
-2.4254454e+73
-2.4233774e+73
-2.4314878e+73
-2.4209277e+73
-2.422045e+73
-2.4300766e+73
-2.4289301e+73
-2.4018749e+73
-2.4038161e+73
-2.412303e+73
-2.4102922e+73
-2.4276595e+73
-2.4197843e+73
-2.4177176e+73
-2.4253876e+73
-2.4234425e+73
-2.4159548e+73
-2.4208109e+73
-2.4131572e+73
-2.4084306e+73
-2.4001912e+73
-2.3978688e+73
-2.4058459e+73
-2.4115267e+73
-2.4054706e+73
-2.4020738e+73
-2.4081883e+73
-2.3971835e+73
-2.3998682e+73
-2.406059e+73
-2.4034572e+73
-2.4145104e+73
-2.4176284e+73
-2.4240283e+73
-2.4210924e+73
-2.4188653e+73
-2.4123305e+73
-2.4098e+73
-2.4164237e+73
-2.2207273e+73
-2.1500167e+73
-2.1519604e+73
-2.0620368e+73
-2.3988395e+73
-2.3996645e+73
-2.4190221e+73
-2.4182358e+73
-2.400476e+73
-2.45743e+73
-2.437481e+73
-2.4569292e+73
-2.4367629e+73
-2.3533998e+73
-2.3790591e+73
-2.2923589e+73
-2.3264846e+73
-2.2904399e+73
-2.2910083e+73
-2.3248996e+73
-2.3236233e+73
-2.3780735e+73
-2.3518805e+73
-2.3770107e+73
-2.3506231e+73
-2.4870062e+73
-2.4778093e+73
-2.4869039e+73
-2.4868756e+73
-2.4776781e+73
-2.4778289e+73
-2.4955906e+73
-2.5049955e+73
-2.4956576e+73
-2.5051386e+73
-2.5141662e+73
-2.5240487e+73
-2.5143007e+73
-2.5241013e+73
-2.5340944e+73
-2.545095e+73
-2.5556349e+73
-2.567115e+73
-2.6360614e+73
-2.6459736e+73
-2.6454173e+73
-2.6354682e+73
-2.6344621e+73
-2.634972e+73
-2.6448695e+73
-2.6443068e+73
-2.6669605e+73
-2.6560605e+73
-2.6676928e+73
-2.655399e+73
-2.6543365e+73
-2.6659295e+73
-2.6548806e+73
-2.6664194e+73
-2.6020178e+73
-2.609468e+73
-2.6090553e+73
-2.6015928e+73
-2.6009204e+73
-2.6012866e+73
-2.6087096e+73
-2.6082904e+73
-2.6250659e+73
-2.6169271e+73
-2.6255442e+73
-2.6164587e+73
-2.6156991e+73
-2.6242735e+73
-2.6161149e+73
-2.6246925e+73
-2.6108023e+73
-2.603742e+73
-2.6112615e+73
-2.6032489e+73
-2.6187756e+73
-2.6274687e+73
-2.6268783e+73
-2.618245e+73
-2.6098362e+73
-2.6028193e+73
-2.6103368e+73
-2.6023707e+73
-2.6178091e+73
-2.6264259e+73
-2.6173112e+73
-2.6259356e+73
-2.634049e+73
-2.643887e+73
-2.6434113e+73
-2.6335473e+73
-2.6539165e+73
-2.6654885e+73
-2.664992e+73
-2.6534101e+73
-2.6331666e+73
-2.6327425e+73
-2.6430292e+73
-2.6425721e+73
-2.6530664e+73
-2.6526377e+73
-2.6646292e+73
-2.664239e+73
-2.5804149e+73
-2.5747125e+73
-2.5808754e+73
-2.5742318e+73
-2.5870533e+73
-2.5939044e+73
-2.5933281e+73
-2.5865266e+73
-2.5731142e+73
-2.5792803e+73
-2.5737428e+73
-2.5799112e+73
-2.5860581e+73
-2.5928568e+73
-2.5854433e+73
-2.5922861e+73
-2.5503194e+73
-2.5556862e+73
-2.5547399e+73
-2.5493229e+73
-2.5472831e+73
-2.5483942e+73
-2.5538282e+73
-2.55274e+73
-2.5658655e+73
-2.5610093e+73
-2.5667761e+73
-2.5600681e+73
-2.5581414e+73
-2.5639886e+73
-2.5592048e+73
-2.5650088e+73
-2.557634e+73
-2.5527389e+73
-2.5580628e+73
-2.5522848e+73
-2.5633338e+73
-2.5690536e+73
-2.5685643e+73
-2.5628653e+73
-2.5563913e+73
-2.5517549e+73
-2.5571019e+73
-2.5510528e+73
-2.5623789e+73
-2.5680855e+73
-2.5617005e+73
-2.5674531e+73
-2.5724597e+73
-2.5786616e+73
-2.5778215e+73
-2.5715709e+73
-2.591752e+73
-2.5840511e+73
-2.5848739e+73
-2.5909767e+73
-2.5707455e+73
-2.5697478e+73
-2.577029e+73
-2.5760517e+73
-2.5902772e+73
-2.582382e+73
-2.5893883e+73
-2.5833228e+73
-2.577104e+73
-2.5767354e+73
-2.5830855e+73
-2.5834666e+73
-2.5761079e+73
-2.582374e+73
-2.5764413e+73
-2.5827502e+73
-2.5898421e+73
-2.59691e+73
-2.5964244e+73
-2.5893983e+73
-2.5890379e+73
-2.5886397e+73
-2.5960254e+73
-2.5956022e+73
-2.5586618e+73
-2.5535058e+73
-2.5589118e+73
-2.5532763e+73
-2.5642531e+73
-2.570051e+73
-2.5697165e+73
-2.5639532e+73
-2.5531207e+73
-2.552934e+73
-2.5584721e+73
-2.5582652e+73
-2.563752e+73
-2.5635422e+73
-2.5694862e+73
-2.5692725e+73
-2.5540306e+73
-2.5543176e+73
-2.5598369e+73
-2.5595461e+73
-2.5649851e+73
-2.5653134e+73
-2.5712514e+73
-2.5708954e+73
-2.5591145e+73
-2.5538372e+73
-2.5593309e+73
-2.5536655e+73
-2.5706333e+73
-2.5647591e+73
-2.5645047e+73
-2.5703422e+73
-2.5816796e+73
-2.575793e+73
-2.5820483e+73
-2.5754286e+73
-2.5952746e+73
-2.5883245e+73
-2.5879255e+73
-2.5948628e+73
-2.5749464e+73
-2.5811383e+73
-2.5751859e+73
-2.5814246e+73
-2.5945917e+73
-2.5876732e+73
-2.5873625e+73
-2.5942557e+73
-2.6005382e+73
-2.6079049e+73
-2.6073458e+73
-2.5999516e+73
-2.5994748e+73
-2.5989225e+73
-2.6068664e+73
-2.6063127e+73
-2.6233231e+73
-2.6153202e+73
-2.6238965e+73
-2.6147443e+73
-2.6137663e+73
-2.6223766e+73
-2.6142938e+73
-2.622865e+73
-2.5984097e+73
-2.6058139e+73
-2.6051376e+73
-2.5976713e+73
-2.6212277e+73
-2.6132732e+73
-2.6218993e+73
-2.6125796e+73
-2.6036166e+73
-2.5969926e+73
-2.604469e+73
-2.5961373e+73
-2.6119538e+73
-2.6206084e+73
-2.6198311e+73
-2.6111392e+73
-2.6303845e+73
-2.640213e+73
-2.6396318e+73
-2.6297329e+73
-2.6617346e+73
-2.6496146e+73
-2.650233e+73
-2.6611273e+73
-2.6606058e+73
-2.6490814e+73
-2.648339e+73
-2.6599263e+73
-2.6291233e+73
-2.6283617e+73
-2.6390268e+73
-2.6382435e+73
-2.6323683e+73
-2.6421985e+73
-2.6416638e+73
-2.6317952e+73
-2.6313296e+73
-2.6411837e+73
-2.63084e+73
-2.6406672e+73
-2.6637918e+73
-2.6631823e+73
-2.652239e+73
-2.6516506e+73
-2.6506974e+73
-2.6511969e+73
-2.6626965e+73
-2.6622336e+73
-2.2391599e+73
-2.1875628e+73
-2.1830059e+73
-2.2352944e+73
-2.2331804e+73
-2.2327157e+73
-2.181794e+73
-2.18138e+73
-2.1185498e+73
-2.1151277e+73
-2.2507043e+73
-2.2469496e+73
-2.2008318e+73
-2.1949263e+73
-2.2439878e+73
-2.2421534e+73
-2.192046e+73
-2.1906265e+73
-2.1248416e+73
-2.1333324e+73
-2.0397012e+73
-2.0252516e+73
-2.4104214e+73
-2.4112877e+73
-2.4189439e+73
-2.4197721e+73
-2.4120437e+73
-2.4129767e+73
-2.4213235e+73
-2.4205203e+73
-2.4280226e+73
-2.4287671e+73
-2.4366049e+73
-2.4359952e+73
-2.4355003e+73
-2.4274219e+73
-2.4266032e+73
-2.4347761e+73
-2.4367378e+73
-2.4292209e+73
-2.4287301e+73
-2.4362353e+73
-2.4220106e+73
-2.4138497e+73
-2.4131469e+73
-2.4214023e+73
-2.4363008e+73
-2.4288166e+73
-2.4289889e+73
-2.4366121e+73
-2.4213335e+73
-2.4130444e+73
-2.4133374e+73
-2.4216254e+73
-2.4439194e+73
-2.4435068e+73
-2.4517681e+73
-2.4513196e+73
-2.4435924e+73
-2.4441529e+73
-2.4521745e+73
-2.4514866e+73
-2.4595586e+73
-2.4603117e+73
-2.4690605e+73
-2.4683109e+73
-2.4681473e+73
-2.4593993e+73
-2.459759e+73
-2.4684271e+73
-2.442477e+73
-2.4432643e+73
-2.4512217e+73
-2.4503135e+73
-2.4437187e+73
-2.444167e+73
-2.4521064e+73
-2.4517402e+73
-2.4685356e+73
-2.4600221e+73
-2.459611e+73
-2.4679986e+73
-2.4579827e+73