/*--------------------------------*- C++ -*----------------------------------*\
  =========                 |
  \\      /  F ield         | OpenFOAM: The Open Source CFD Toolbox
   \\    /   O peration     | Website:  https://openfoam.org
    \\  /    A nd           | Version:  7
     \\/     M anipulation  |
\*---------------------------------------------------------------------------*/
FoamFile
{
    version     2.0;
    format      ascii;
    class       volScalarField;
    location    "6000";
    object      pMean;
}
// * * * * * * * * * * * * * * * * * * * * * * * * * * * * * * * * * * * * * //

dimensions      [0 2 -2 0 0 0 0];

internalField   nonuniform List<scalar> 
33730
(
-1.0216625e+70
-1.0166452e+70
-1.0169462e+70
-1.0082813e+70
-1.0085687e+70
-1.0168903e+70
-1.0185264e+70
-1.016805e+70
-1.0172624e+70
-1.0307392e+70
-1.0303312e+70
-1.0320409e+70
-1.0331298e+70
-1.0313687e+70
-1.0333047e+70
-1.0322318e+70
-1.0311201e+70
-9.5942539e+69
-9.3020877e+69
-9.8020847e+69
-9.5931511e+69
-9.8117148e+69
-9.0396749e+69
-1.0278681e+70
-1.0267824e+70
-1.0284734e+70
-1.0288501e+70
-1.0251479e+70
-1.0216696e+70
-1.0217172e+70
-1.0257755e+70
-1.0229e+70
-1.0226105e+70
-1.0295464e+70
-1.0286261e+70
-1.0248562e+70
-1.0212338e+70
-1.0209352e+70
-1.0244465e+70
-1.0227212e+70
-1.0216096e+70
-1.0280382e+70
-1.0279734e+70
-1.0371904e+70
-1.0378543e+70
-1.0372864e+70
-1.0375823e+70
-1.0357501e+70
-1.036446e+70
-1.0374627e+70
-1.0362522e+70
-1.0396765e+70
-1.0382095e+70
-1.0388217e+70
-1.0381979e+70
-1.0375881e+70
-1.0381339e+70
-1.0384414e+70
-1.0393402e+70
-9.7504554e+69
-9.6113826e+69
-9.6687677e+69
-9.6003372e+69
-9.432977e+69
-9.7540131e+69
-9.6084088e+69
-9.2951059e+69
-9.2907887e+69
-1.0069384e+70
-9.9083516e+69
-9.9037926e+69
-1.0079097e+70
-9.297799e+69
-9.0450328e+69
-9.0289731e+69
-9.7417873e+69
-9.594698e+69
-9.60307e+69
-9.7498389e+69
-9.9085589e+69
-9.9006333e+69
-1.0085152e+70
-1.0079374e+70
-8.8645097e+69
-9.2069927e+69
-9.0882098e+69
-1.0384016e+70
-1.0386875e+70
-1.0376927e+70
-1.0368718e+70
-1.0402569e+70
-1.0399481e+70
-1.0400641e+70
-1.0395865e+70
-1.0045076e+70
-1.0062857e+70
-1.0256457e+70
-1.0190562e+70
-1.0189781e+70
-1.0259619e+70
-1.0274054e+70
-1.0324567e+70
-1.0274582e+70
-1.0328428e+70
-1.0275103e+70
-1.0272128e+70
-1.0323527e+70
-1.0324473e+70
-1.030675e+70
-1.0309578e+70
-1.0340189e+70
-1.0340415e+70
-1.0304641e+70
-1.0303062e+70
-1.0339188e+70
-1.0337466e+70
-1.0235877e+70
-1.0170328e+70
-1.0174498e+70
-1.0241819e+70
-1.0260217e+70
-1.0257705e+70
-1.0307523e+70
-1.0310585e+70
-1.0262324e+70
-1.0261418e+70
-1.0315223e+70
-1.0312736e+70
-1.0287667e+70
-1.0287335e+70
-1.0316826e+70
-1.0321781e+70
-1.0295616e+70
-1.0295269e+70
-1.0331353e+70
-1.0331957e+70
-1.0404942e+70
-1.0398516e+70
-1.0402058e+70
-1.0411775e+70
-1.0404697e+70
-1.0403862e+70
-1.0410256e+70
-1.0412054e+70
-1.0384802e+70
-1.0388872e+70
-1.0389646e+70
-1.0398851e+70
-1.0392984e+70
-1.0392078e+70
-1.0400529e+70
-1.0397766e+70
-1.0420252e+70
-1.0417164e+70
-1.0426007e+70
-1.0421616e+70
-1.0413953e+70
-1.0418109e+70
-1.0419073e+70
-1.0427503e+70
-1.0419363e+70
-1.0430451e+70
-1.0423971e+70
-1.0416411e+70
-1.0419661e+70
-1.0422318e+70
-1.0426183e+70
-1.0431949e+70
-9.7540083e+69
-9.7567903e+69
-9.8284452e+69
-9.8315267e+69
-9.7517944e+69
-9.7815204e+69
-9.6649431e+69
-9.668221e+69
-9.6012392e+69
-9.596333e+69
-9.4281739e+69
-9.6607111e+69
-9.6896953e+69
-9.660449e+69
-9.6894471e+69
-9.6085013e+69
-9.6072956e+69
-9.5829501e+69
-9.4962242e+69
-9.5819995e+69
-9.4267415e+69
-9.4257368e+69
-9.7569191e+69
-9.7592068e+69
-9.8343998e+69
-9.8325901e+69
-9.6677562e+69
-9.5996492e+69
-9.6009331e+69
-9.6691926e+69
-9.4342976e+69
-9.2873558e+69
-9.2783491e+69
-9.2931012e+69
-9.2884079e+69
-9.3517517e+69
-9.3503624e+69
-1.0241584e+70
-1.0157031e+70
-1.0151536e+70
-1.0250257e+70
-1.0042083e+70
-9.9492869e+69
-9.9482428e+69
-1.0043701e+70
-1.0031425e+70
-9.944679e+69
-9.938311e+69
-1.0038391e+70
-1.0165554e+70
-1.0167659e+70
-1.0259608e+70
-1.0258172e+70
-8.8731921e+69
-8.8965843e+69
-8.6857966e+69
-8.6782527e+69
-9.2762967e+69
-9.2773983e+69
-9.424434e+69
-9.4297274e+69
-9.1986892e+69
-9.0859294e+69
-9.0768423e+69
-9.1958893e+69
-9.2035728e+69
-9.0810818e+69
-9.0766804e+69
-9.1954692e+69
-9.7531648e+69
-9.8250404e+69
-9.8305216e+69
-9.7577248e+69
-9.6581493e+69
-9.5900156e+69
-9.587179e+69
-9.6622961e+69
-9.5948831e+69
-9.6665316e+69
-9.6660388e+69
-9.5967059e+69
-9.7605611e+69
-9.7606311e+69
-9.8352029e+69
-9.8359494e+69
-1.0047538e+70
-9.9503063e+69
-1.004627e+70
-9.9486995e+69
-9.9474838e+69
-1.0046277e+70
-1.0043299e+70
-9.9458179e+69
-1.0170583e+70
-1.0265063e+70
-1.0172747e+70
-1.0270742e+70
-1.0169733e+70
-1.01736e+70
-1.0271309e+70
-1.0265983e+70
-9.044985e+69
-8.9308145e+69
-9.2206867e+69
-9.1777236e+69
-9.1785274e+69
-9.2212711e+69
-9.126995e+69
-9.1661481e+69
-9.1288058e+69
-9.1714626e+69
-1.0424182e+70
-1.0428553e+70
-1.043243e+70
-1.0431302e+70
-1.0417767e+70
-1.0417889e+70
-1.0407744e+70
-1.0413738e+70
-1.0448367e+70
-1.0446306e+70
-1.044902e+70
-1.0445001e+70
-1.044253e+70
-1.044374e+70
-1.0442328e+70
-1.0437688e+70
-9.9166495e+69
-9.9388673e+69
-1.0240184e+70
-1.0324271e+70
-1.0321727e+70
-1.0102776e+70
-1.0104491e+70
-1.0247136e+70
-1.0326403e+70
-1.0328218e+70
-1.037997e+70
-1.0380469e+70
-1.037391e+70
-1.0375883e+70
-1.0351071e+70
-1.0352964e+70
-1.0362849e+70
-1.0362772e+70
-1.0352509e+70
-1.0351821e+70
-1.0362789e+70
-1.0364124e+70
-1.0412392e+70
-1.0414877e+70
-1.0386874e+70
-1.0387868e+70
-1.0388064e+70
-1.0413007e+70
-1.0387942e+70
-1.0408184e+70
-1.0345498e+70
-1.034705e+70
-1.0357876e+70
-1.0357962e+70
-1.0347631e+70
-1.034832e+70
-1.0358366e+70
-1.0359547e+70
-1.0402053e+70
-1.0406374e+70
-1.0379711e+70
-1.0381021e+70
-1.0412347e+70
-1.0409114e+70
-1.0383549e+70
-1.0383878e+70
-1.0218683e+70
-1.0302371e+70
-1.0305708e+70
-1.0085029e+70
-1.0092065e+70
-1.0229346e+70
-1.0312007e+70
-1.0313675e+70
-1.0353162e+70
-1.0356946e+70
-1.03662e+70
-1.0363603e+70
-1.0325756e+70
-1.0327863e+70
-1.0337692e+70
-1.03376e+70
-1.0329902e+70
-1.0331437e+70
-1.0340595e+70
-1.0342608e+70
-1.0354146e+70
-1.0369125e+70
-1.0373695e+70
-1.0356627e+70
-1.0380438e+70
-1.037884e+70
-1.0361053e+70
-1.0362385e+70
-1.0336888e+70
-1.0339148e+70
-1.0349086e+70
-1.0349946e+70
-1.0339371e+70
-1.033992e+70
-1.0351357e+70
-1.0352447e+70
-1.0369373e+70
-1.0387343e+70
-1.039143e+70
-1.0371127e+70
-1.0395107e+70
-1.0393476e+70
-1.0373224e+70
-1.0373834e+70
-1.0405306e+70
-1.0404142e+70
-1.0421971e+70
-1.0428079e+70
-1.040708e+70
-1.0406372e+70
-1.0427277e+70
-1.0425114e+70
-1.0409764e+70
-1.0408852e+70
-1.0428297e+70
-1.0433295e+70
-1.0412289e+70
-1.0409856e+70
-1.0434096e+70
-1.0431602e+70
-1.0395138e+70
-1.039317e+70
-1.0406026e+70
-1.0412905e+70
-1.039788e+70
-1.0397233e+70
-1.0413846e+70
-1.0412053e+70
-1.039999e+70
-1.0399512e+70
-1.0414993e+70
-1.0419822e+70
-1.0402666e+70
-1.0400074e+70
-1.0418681e+70
-1.0416493e+70
-1.0419162e+70
-1.0418802e+70
-1.0442356e+70
-1.0446532e+70
-1.0420393e+70
-1.0418895e+70
-1.0445661e+70
-1.0442148e+70
-1.041753e+70
-1.0416602e+70
-1.0436184e+70
-1.0442806e+70
-1.0419767e+70
-1.041841e+70
-1.044281e+70
-1.044018e+70
-1.0419295e+70
-1.0417734e+70
-1.0447055e+70
-1.0450384e+70
-1.0420198e+70
-1.0420328e+70
-1.0449069e+70
-1.0444201e+70
-1.0419738e+70
-1.0420491e+70
-1.0445995e+70
-1.0450736e+70
-1.0421149e+70
-1.0420508e+70
-1.0449781e+70
-1.0446091e+70
-8.2232082e+69
-9.7494936e+69
-9.749621e+69
-9.7795514e+69
-9.7792309e+69
-9.7511289e+69
-9.7806773e+69
-9.7501052e+69
-9.7798851e+69
-9.8378672e+69
-9.8736095e+69
-9.8373231e+69
-9.872901e+69
-9.8389367e+69
-9.8740613e+69
-9.8382589e+69
-9.8736007e+69
-9.8277647e+69
-9.7525059e+69
-9.7405366e+69
-9.7526916e+69
-9.7405327e+69
-9.7824199e+69
-9.7949719e+69
-9.7826347e+69
-9.7406365e+69
-9.7528263e+69
-9.6595397e+69
-9.6880444e+69
-9.6592364e+69
-9.6878166e+69
-9.6614386e+69
-9.6894436e+69
-9.6603494e+69
-9.6882938e+69
-9.6098952e+69
-9.6084653e+69
-9.5847263e+69
-9.5832887e+69
-9.5005853e+69
-9.6071359e+69
-9.6067305e+69
-9.5811301e+69
-9.5815453e+69
-9.4963246e+69
-9.4342128e+69
-9.429671e+69
-9.6683999e+69
-9.6623849e+69
-9.6688947e+69
-9.6622043e+69
-9.6983447e+69
-9.7075647e+69
-9.7074049e+69
-9.6983337e+69
-9.6682646e+69
-9.6620729e+69
-9.6685857e+69
-9.6618889e+69
-9.698284e+69
-9.7076504e+69
-9.6980595e+69
-9.7076063e+69
-9.6328407e+69
-9.6336908e+69
-9.6322749e+69
-9.6323704e+69
-9.632191e+69
-9.6314825e+69
-9.633062e+69
-9.6317298e+69
-9.5805616e+69
-9.5354053e+69
-9.5095176e+69
-9.5110534e+69
-9.5344211e+69
-9.5796622e+69
-9.4414113e+69
-9.4412508e+69
-9.4648298e+69
-9.4646354e+69
-9.4405866e+69
-9.4430542e+69
-9.4669078e+69
-9.4643888e+69
-9.7516445e+69
-9.7510408e+69
-9.7815686e+69
-9.7803905e+69
-9.7554842e+69
-9.7848769e+69
-9.7533191e+69
-9.7830559e+69
-9.8428948e+69
-9.878006e+69
-9.8417728e+69
-9.8767886e+69
-9.8401898e+69
-9.8754624e+69
-9.839043e+69
-9.8739469e+69
-9.6621663e+69
-9.6900005e+69
-9.6615841e+69
-9.6891173e+69
-9.6100495e+69
-9.6098558e+69
-9.5849446e+69
-9.5847224e+69
-9.498271e+69
-9.6127772e+69
-9.6108944e+69
-9.5858568e+69
-9.5876144e+69
-9.4995432e+69
-9.6650398e+69
-9.6937815e+69
-9.6631498e+69
-9.691355e+69
-9.4317378e+69
-9.4310848e+69
-9.291678e+69
-9.2914027e+69
-9.3525535e+69
-9.3536672e+69
-9.2913892e+69
-9.354232e+69
-9.3471357e+69
-9.2853697e+69
-9.3362359e+69
-9.3136206e+69
-9.3116319e+69
-9.3344883e+69
-9.3113089e+69
-9.3103851e+69
-9.3339695e+69
-9.3341918e+69
-9.3738961e+69
-9.3762748e+69
-9.3986402e+69
-9.3952895e+69
-9.3961122e+69
-9.3751836e+69
-9.3754923e+69
-9.3967278e+69
-9.268777e+69
-9.4145685e+69
-9.0627774e+69
-9.1848007e+69
-9.580927e+69
-9.6495466e+69
-9.7407461e+69
-1.0306032e+70
-1.0311243e+70
-1.0333528e+70
-1.0340526e+70
-1.0189286e+70
-1.0191819e+70
-1.0244742e+70
-1.0245585e+70
-1.0182751e+70
-1.0236686e+70
-1.0186517e+70
-1.0241872e+70
-1.0315156e+70
-1.0344547e+70
-1.0316268e+70
-1.0343971e+70
-1.0057227e+70
-1.0111509e+70
-1.0059747e+70
-1.0115076e+70
-9.9479181e+69
-9.9484711e+69
-9.989732e+69
-9.9896654e+69
-9.945753e+69
-9.9866706e+69
-9.9475496e+69
-9.9890721e+69
-1.0060443e+70
-1.0116711e+70
-1.0060812e+70
-1.011656e+70
-1.0044473e+70
-1.0048362e+70
-1.0097939e+70
-1.0102192e+70
-9.9391499e+69
-9.9806372e+69
-9.9421434e+69
-9.9827747e+69
-9.9331969e+69
-9.9738604e+69
-9.9363591e+69
-9.9777655e+69
-1.0051127e+70
-1.010548e+70
-1.0053397e+70
-1.0107246e+70
-1.0196031e+70
-1.0199591e+70
-1.0250241e+70
-1.0254988e+70
-1.0201078e+70
-1.0256578e+70
-1.020228e+70
-1.0256784e+70
-1.0326862e+70
-1.0356656e+70
-1.0356347e+70
-1.0327297e+70
-1.0319894e+70
-1.0324063e+70
-1.0348627e+70
-1.0354113e+70
-9.0559054e+69
-9.0412979e+69
-8.9406148e+69
-8.9413079e+69
-9.0611731e+69
-9.0608387e+69
-8.9511877e+69
-8.9763396e+69
-8.4875395e+69
-8.4641246e+69
-9.2864865e+69
-9.2877584e+69
-9.3496137e+69
-9.3486572e+69
-9.3424772e+69
-9.2796821e+69
-9.3467132e+69
-9.2858747e+69
-9.4253824e+69
-9.4211546e+69
-9.4891019e+69
-9.4932086e+69
-9.4273797e+69
-9.4279297e+69
-9.4973313e+69
-9.4982052e+69
-9.1650618e+69
-9.1634296e+69
-9.2093809e+69
-9.2157857e+69
-9.1515161e+69
-9.1183322e+69
-9.1132549e+69
-9.1542732e+69
-9.1127896e+69
-9.1141935e+69
-9.1561865e+69
-9.1527233e+69
-9.1673593e+69
-9.2189409e+69
-9.1660944e+69
-9.2169527e+69
-9.1766383e+69
-9.171394e+69
-9.2194379e+69
-9.2224275e+69
-9.1166972e+69
-9.1592015e+69
-9.1149627e+69
-9.1675437e+69
-9.1185836e+69
-9.1207437e+69
-9.1638854e+69
-9.1548862e+69
-9.166019e+69
-9.1719896e+69
-9.2225742e+69
-9.2149323e+69
-9.7438434e+69
-9.7726893e+69
-9.7468236e+69
-9.7761367e+69
-9.8290515e+69
-9.8633461e+69
-9.8325865e+69
-9.8668046e+69
-9.8392215e+69
-9.8363403e+69
-9.8703002e+69
-9.8729824e+69
-9.7527017e+69
-9.7496399e+69
-9.7793225e+69
-9.7819912e+69
-9.6549009e+69
-9.6834513e+69
-9.6573687e+69
-9.6862584e+69
-9.580945e+69
-9.5774537e+69
-9.6047237e+69
-9.6077011e+69
-9.6001993e+69
-9.6022304e+69
-9.5757136e+69
-9.5744982e+69
-9.659393e+69
-9.6890041e+69
-9.6625034e+69
-9.6917313e+69
-9.5853603e+69
-9.58461e+69
-9.6113071e+69
-9.6117167e+69
-9.666449e+69
-9.6663573e+69
-9.6952898e+69
-9.6947211e+69
-9.6650577e+69
-9.694497e+69
-9.6661546e+69
-9.6953135e+69
-9.61227e+69
-9.6126465e+69
-9.5872366e+69
-9.586154e+69
-9.755129e+69
-9.7848321e+69
-9.7558872e+69
-9.7855697e+69
-9.7554448e+69
-9.7854656e+69
-9.7555977e+69
-9.7851022e+69
-9.842649e+69
-9.8416149e+69
-9.8767392e+69
-9.8782263e+69
-9.8423838e+69
-9.8786122e+69
-9.8421199e+69
-9.8781731e+69
-1.0062246e+70
-1.0060888e+70
-1.0119191e+70
-1.0117569e+70
-9.9489643e+69
-9.9904504e+69
-9.9480604e+69
-9.9902846e+69
-1.0062774e+70
-1.0062285e+70
-1.011799e+70
-1.0119429e+70
-9.9466933e+69
-9.9893301e+69
-9.9457695e+69
-9.9876968e+69
-9.9457406e+69
-9.9878358e+69
-9.9452672e+69
-9.9879256e+69
-1.0060753e+70
-1.0118018e+70
-1.0060799e+70
-1.0118781e+70
-1.0060554e+70
-1.0118527e+70
-1.0059575e+70
-1.0116719e+70
-9.9448768e+69
-9.9447231e+69
-9.986875e+69
-9.9878028e+69
-1.0204578e+70
-1.0206102e+70
-1.0262839e+70
-1.0259433e+70
-1.0330789e+70
-1.0360183e+70
-1.0334516e+70
-1.0365953e+70
-1.0205972e+70
-1.0263206e+70
-1.0205655e+70
-1.0261643e+70
-1.0335748e+70
-1.0367064e+70
-1.0334663e+70
-1.0364745e+70
-1.0206393e+70
-1.026483e+70
-1.0206527e+70
-1.0262911e+70
-1.0207158e+70
-1.0265321e+70
-1.036714e+70
-1.0336182e+70
-1.0338065e+70
-1.0370386e+70
-1.037121e+70
-1.0338388e+70
-1.0366048e+70
-8.9305634e+69
-9.1121615e+69
-9.1039512e+69
-9.1830206e+69
-9.1944952e+69
-9.2688219e+69
-9.2448279e+69
-9.2678418e+69
-9.2453409e+69
-9.2047235e+69
-9.1777903e+69
-9.2053244e+69
-9.1783195e+69
-9.176781e+69
-9.1803191e+69
-9.2060808e+69
-9.2043878e+69
-9.2421374e+69
-9.2422134e+69
-9.2669788e+69
-9.267427e+69
-9.1467049e+69
-9.1396585e+69
-9.1492361e+69
-9.1561628e+69
-9.1327513e+69
-9.1213919e+69
-9.123955e+69
-9.1375974e+69
-9.1552506e+69
-9.1531543e+69
-9.1452212e+69
-9.154892e+69
-9.1396456e+69
-9.1292732e+69
-9.1222874e+69
-9.1355267e+69
-9.1231298e+69
-9.1517685e+69
-9.1658674e+69
-1.043978e+70
-1.044486e+70
-1.0445329e+70
-1.04449e+70
-1.0450513e+70
-1.0451961e+70
-1.045084e+70
-1.0447032e+70
-1.0437312e+70
-1.0432955e+70
-1.0437051e+70
-1.0436125e+70
-1.0423743e+70
-1.0428834e+70
-1.0430473e+70
-1.0430231e+70
-1.04631e+70
-1.046514e+70
-1.0466012e+70
-1.0462568e+70
-1.0464259e+70
-1.0466318e+70
-1.0464751e+70
-1.0461426e+70
-1.0459799e+70
-1.0462046e+70
-1.0462666e+70
-1.0459522e+70
-1.0457763e+70
-1.0459004e+70
-1.0458552e+70
-1.0453021e+70
-9.8919336e+69
-9.6928154e+69
-1.0018678e+70
-1.0015365e+70
-9.706557e+69
-1.0024267e+70
-1.0025988e+70
-1.0170856e+70
-1.0323075e+70
-1.0319192e+70
-1.0347037e+70
-1.035045e+70
-1.0174525e+70
-1.0325673e+70
-1.0326896e+70
-1.0354423e+70
-1.0354638e+70
-1.040749e+70
-1.0401926e+70
-1.0440778e+70
-1.0441837e+70
-1.0407483e+70
-1.0406446e+70
-1.0403294e+70
-1.0407018e+70
-1.0408233e+70
-1.0442799e+70
-1.0443265e+70
-1.0408657e+70
-1.0400914e+70
-1.0393584e+70
-1.0436686e+70
-1.0433374e+70
-1.0402275e+70
-1.0400498e+70
-1.0399431e+70
-1.0401968e+70
-1.0437934e+70
-1.0439002e+70
-1.0403602e+70
-1.0404378e+70
-1.039479e+70
-1.0402008e+70
-1.04023e+70
-1.0394534e+70
-1.0395124e+70
-1.0392978e+70
-1.0401318e+70
-1.0401991e+70
-1.0394737e+70
-1.0396851e+70
-1.0403808e+70
-1.0403086e+70
-1.0403318e+70
-1.0395732e+70
-1.0403944e+70
-1.0395642e+70
-1.0361079e+70
-1.0379909e+70
-1.0380743e+70
-1.0360913e+70
-1.0360985e+70
-1.0380648e+70
-1.0381e+70
-1.036214e+70
-1.0392186e+70
-1.0392207e+70
-1.0385615e+70
-1.0385171e+70
-1.0393022e+70
-1.0393172e+70
-1.038614e+70
-1.0386648e+70
-1.0394742e+70
-1.0394609e+70
-1.0386991e+70
-1.0387232e+70
-1.0358539e+70
-1.0379365e+70
-1.0382684e+70
-1.036109e+70
-1.0386527e+70
-1.0394183e+70
-1.0394403e+70
-1.0386406e+70
-1.038044e+70
-1.0381295e+70
-1.0359582e+70
-1.0360433e+70
-1.0389206e+70
-1.0396707e+70
-1.0396985e+70
-1.0388795e+70
-1.0388937e+70
-1.0386218e+70
-1.039484e+70
-1.039609e+70
-1.0392311e+70
-1.0390282e+70
-1.0398617e+70
-1.0399245e+70
-1.0391513e+70
-1.0391803e+70
-1.0399261e+70
-1.0399559e+70
-1.0357501e+70
-1.0373872e+70
-1.037549e+70
-1.0358114e+70
-1.035914e+70
-1.037709e+70
-1.0378862e+70
-1.0361788e+70
-1.0386179e+70
-1.0385556e+70
-1.0379641e+70
-1.0378316e+70
-1.0387519e+70
-1.0387704e+70
-1.0381743e+70
-1.03814e+70
-1.0360128e+70
-1.0378074e+70
-1.0379653e+70
-1.0361028e+70
-1.0359429e+70
-1.037851e+70
-1.0379857e+70
-1.0361607e+70
-1.0390503e+70
-1.0390296e+70
-1.0384192e+70
-1.0383833e+70
-1.0390082e+70
-1.0390541e+70
-1.0383509e+70
-1.0383773e+70
-1.0054963e+70
-1.0069611e+70
-1.0203832e+70
-1.0157549e+70
-1.0303375e+70
-1.029854e+70
-1.0323041e+70
-1.0328883e+70
-1.0164443e+70
-1.0312522e+70
-1.0310155e+70
-1.0336818e+70
-1.0340286e+70
-1.0379251e+70
-1.0372175e+70
-1.0416032e+70
-1.0411839e+70
-1.0378543e+70
-1.038194e+70
-1.0379394e+70
-1.0380916e+70
-1.0417916e+70
-1.04205e+70
-1.0385098e+70
-1.0387749e+70
-1.0390012e+70
-1.0392431e+70
-1.0430725e+70
-1.0428707e+70
-1.0395723e+70
-1.0397036e+70
-1.0390642e+70
-1.0383141e+70
-1.042304e+70
-1.042702e+70
-1.0391313e+70
-1.0393839e+70
-1.0368261e+70
-1.0375938e+70
-1.0368636e+70
-1.0377006e+70
-1.0367873e+70
-1.0364684e+70
-1.0373056e+70
-1.0375058e+70
-1.0373637e+70
-1.0370576e+70
-1.0379077e+70
-1.0380589e+70
-1.0380829e+70
-1.0373297e+70
-1.0373506e+70
-1.0381755e+70
-1.0363643e+70
-1.0364983e+70
-1.0358122e+70
-1.0356685e+70
-1.0353443e+70
-1.0351045e+70
-1.0336408e+70
-1.0337988e+70
-1.0356326e+70
-1.0355688e+70
-1.0339504e+70
-1.0340474e+70
-1.0368029e+70
-1.0367482e+70
-1.0360975e+70
-1.0360809e+70
-1.0359101e+70
-1.0357522e+70
-1.0341499e+70
-1.034218e+70
-1.0361977e+70
-1.0359656e+70
-1.0341736e+70
-1.0345385e+70
-1.0371385e+70
-1.0370747e+70
-1.0364087e+70
-1.0363628e+70
-1.0372183e+70
-1.0372176e+70
-1.036502e+70
-1.0364923e+70
-1.0379392e+70
-1.0376244e+70
-1.0384711e+70
-1.0386433e+70
-1.0386973e+70
-1.0379603e+70
-1.0379764e+70
-1.0387756e+70
-1.0389484e+70
-1.0381149e+70
-1.0390949e+70
-1.0384028e+70
-1.0383534e+70
-1.0383285e+70
-1.0391253e+70
-1.0391886e+70
-1.0376646e+70
-1.0375737e+70
-1.0368906e+70
-1.0370031e+70
-1.0365056e+70
-1.0363192e+70
-1.0345513e+70
-1.0346881e+70
-1.0347751e+70
-1.0366056e+70
-1.036693e+70
-1.0349445e+70
-1.0378173e+70
-1.0377997e+70
-1.0370816e+70
-1.0371032e+70
-1.0350743e+70
-1.0367733e+70
-1.036967e+70
-1.0352064e+70
-1.0351694e+70
-1.0370053e+70
-1.0372296e+70
-1.0354953e+70
-1.0381215e+70
-1.0380617e+70
-1.0373686e+70
-1.037291e+70
-1.0382072e+70
-1.0382099e+70
-1.0375015e+70
-1.0374362e+70
-8.1744985e+69
-1.0443151e+70
-1.044089e+70
-1.0444838e+70
-1.0444902e+70
-1.0448841e+70
-1.0447419e+70
-1.0450814e+70
-1.045022e+70
-1.0429121e+70
-1.0426867e+70
-1.0432309e+70
-1.0432223e+70
-1.0436794e+70
-1.04352e+70
-1.0437618e+70
-1.0437537e+70
-1.0459803e+70
-1.0458877e+70
-1.0459204e+70
-1.0459794e+70
-1.0456075e+70
-1.0453355e+70
-1.0457149e+70
-1.0457438e+70
-1.0461901e+70
-1.0461619e+70
-1.0462239e+70
-1.0462016e+70
-1.0461096e+70
-1.0461007e+70
-1.0461689e+70
-9.7399045e+69
-9.7520023e+69
-9.7517268e+69
-9.7397147e+69
-9.7396624e+69
-9.7395514e+69
-9.751922e+69
-9.7519028e+69
-9.7941664e+69
-9.781803e+69
-9.7944024e+69
-9.7817225e+69
-9.7814581e+69
-9.7940901e+69
-9.7815471e+69
-9.7942709e+69
-9.7526071e+69
-9.741185e+69
-9.7533752e+69
-9.7406629e+69
-9.7829845e+69
-9.795591e+69
-9.7951514e+69
-9.7826048e+69
-9.752029e+69
-9.7402064e+69
-9.752392e+69
-9.7401333e+69
-9.7821838e+69
-9.7948161e+69
-9.781978e+69
-9.7946022e+69
-9.8271299e+69
-9.843199e+69
-9.8431367e+69
-9.8269333e+69
-9.8918818e+69
-9.8748275e+69
-9.8748053e+69
-9.8920138e+69
-9.826754e+69
-9.8268042e+69
-9.8431741e+69
-9.8429593e+69
-9.8921668e+69
-9.8744557e+69
-9.891787e+69
-9.8747162e+69
-9.8439727e+69
-9.8283683e+69
-9.8444275e+69
-9.8280103e+69
-9.8930085e+69
-9.8759603e+69
-9.8757616e+69
-9.8927612e+69
-9.8273175e+69
-9.8432573e+69
-9.82746e+69
-9.8435652e+69
-9.8924022e+69
-9.8752694e+69
-9.8749311e+69
-9.8919029e+69
-9.8247497e+69
-9.756224e+69
-9.7355435e+69
-9.7563879e+69
-9.7354386e+69
-9.7798486e+69
-9.7999232e+69
-9.779842e+69
-9.7359763e+69
-9.7568199e+69
-9.7804358e+69
-9.661915e+69
-9.6615112e+69
-9.6684842e+69
-9.6679619e+69
-9.6974592e+69
-9.7071005e+69
-9.7066564e+69
-9.6979152e+69
-9.6613144e+69
-9.6613039e+69
-9.6681458e+69
-9.6681476e+69
-9.6972515e+69
-9.6972752e+69
-9.7068017e+69
-9.7067411e+69
-9.6689494e+69
-9.6630908e+69
-9.6699899e+69
-9.662359e+69
-9.6990753e+69
-9.7083863e+69
-9.7076583e+69
-9.6985407e+69
-9.6684461e+69
-9.6617173e+69
-9.6687577e+69
-9.6617103e+69
-9.6981122e+69
-9.7074635e+69
-9.6978531e+69
-9.7073486e+69
-9.633487e+69
-9.6330664e+69
-9.6330559e+69
-9.6323497e+69
-9.6318726e+69
-9.6315365e+69
-9.6326501e+69
-9.632316e+69
-9.5822821e+69
-9.538359e+69
-9.5813898e+69
-9.5355972e+69
-9.5148139e+69
-9.5126363e+69
-9.632574e+69
-9.6326127e+69
-9.6318762e+69
-9.6317223e+69
-9.6317667e+69
-9.6312806e+69
-9.6318934e+69
-9.6311436e+69
-9.5793796e+69
-9.5335142e+69
-9.5804208e+69
-9.5337554e+69
-9.5097356e+69
-9.5088978e+69
-9.4709243e+69
-9.4485954e+69
-9.4465002e+69
-9.4687263e+69
-9.4665531e+69
-9.4452909e+69
-9.4674308e+69
-9.4443475e+69
-9.6711456e+69
-9.6508298e+69
-9.6717068e+69
-9.6505429e+69
-9.694236e+69
-9.7123782e+69
-9.7123334e+69
-9.6940631e+69
-9.6506677e+69
-9.6714348e+69
-9.6505226e+69
-9.6945075e+69
-9.7127824e+69
-9.6210551e+69
-9.6216394e+69
-9.6295185e+69
-9.6296167e+69
-9.6297196e+69
-9.6293456e+69
-9.6214924e+69
-9.6209597e+69
-9.5902398e+69
-9.5729438e+69
-9.5432539e+69
-9.5725185e+69
-9.5900705e+69
-9.5084788e+69
-9.5101933e+69
-9.5421055e+69
-9.5720025e+69
-9.5731682e+69
-9.5905753e+69
-9.5898374e+69
-9.5417904e+69
-9.5089808e+69
-9.440389e+69
-9.4414447e+69
-9.4735786e+69
-9.4408099e+69
-9.4429773e+69
-9.4748747e+69
-9.4729141e+69
-9.7539755e+69
-9.7428133e+69
-9.7549865e+69
-9.7420435e+69
-9.7412692e+69
-9.7414532e+69
-9.7537609e+69
-9.7534182e+69
-9.7848476e+69
-9.797313e+69
-9.7840932e+69
-9.7965379e+69
-9.782989e+69
-9.7960808e+69
-9.7955665e+69
-9.7834432e+69
-9.7461932e+69
-9.7581745e+69
-9.7452643e+69
-9.757277e+69
-9.7870478e+69
-9.7993192e+69
-9.7875833e+69
-9.800075e+69
-9.7551891e+69
-9.744208e+69
-9.7563793e+69
-9.7432875e+69
-9.7860197e+69
-9.7985572e+69
-9.7976729e+69
-9.7852478e+69
-9.8328175e+69
-9.8487803e+69
-9.8480902e+69
-9.8322338e+69
-9.8802884e+69
-9.8972543e+69
-9.896663e+69
-9.8798541e+69
-9.831295e+69
-9.8306016e+69
-9.8473649e+69
-9.8465333e+69
-9.8789821e+69
-9.878197e+69
-9.896039e+69
-9.8949782e+69
-9.8453786e+69
-9.8302526e+69
-9.8462384e+69
-9.8294849e+69
-9.8947099e+69
-9.8778599e+69
-9.8771679e+69
-9.8940971e+69
-9.8444335e+69
-9.8287846e+69
-9.8449741e+69
-9.8284843e+69
-9.8937102e+69
-9.8764864e+69
-9.8759447e+69
-9.8929931e+69
-9.6647365e+69
-9.6636621e+69
-9.6713413e+69
-9.6702576e+69
-9.6997101e+69
-9.7096961e+69
-9.7087587e+69
-9.7005769e+69
-9.6628844e+69
-9.6627456e+69
-9.6699338e+69
-9.6701028e+69
-9.6991425e+69
-9.6989278e+69
-9.7085903e+69
-9.7083205e+69
-9.6352201e+69
-9.6342345e+69
-9.6343576e+69
-9.6333376e+69
-9.6329493e+69
-9.6325654e+69
-9.6336208e+69
-9.6331656e+69
-9.5828909e+69
-9.5374883e+69
-9.5835498e+69
-9.5381605e+69
-9.5146326e+69
-9.5147069e+69
-9.6369111e+69
-9.636691e+69
-9.6373062e+69
-9.6361747e+69
-9.6352444e+69
-9.6340476e+69
-9.6362593e+69
-9.6349622e+69
-9.5843466e+69
-9.5381893e+69
-9.5854089e+69
-9.5409113e+69
-9.5164781e+69
-9.5150305e+69
-9.6732884e+69
-9.6677764e+69
-9.6748502e+69
-9.6665377e+69
-9.7038741e+69
-9.7133854e+69
-9.7120835e+69
-9.7027695e+69
-9.6715052e+69
-9.665446e+69
-9.6725236e+69
-9.6646677e+69
-9.7016648e+69
-9.7112065e+69
-9.700701e+69
-9.7100935e+69
-9.47212e+69
-9.4495333e+69
-9.4472684e+69
-9.4703772e+69
-9.4694067e+69
-9.4464245e+69
-9.4478387e+69
-9.4706904e+69
-9.3167298e+69
-9.315031e+69
-9.3388658e+69
-9.3404999e+69
-9.3142513e+69
-9.3167402e+69
-9.3408748e+69
-9.3385231e+69
-9.4041847e+69
-9.382531e+69
-9.3806324e+69
-9.4021724e+69
-9.3824024e+69
-9.3809317e+69
-9.402252e+69
-9.40383e+69
-9.3158344e+69
-9.3181948e+69
-9.3416276e+69
-9.3394726e+69
-9.4048017e+69
-9.382833e+69
-9.381648e+69
-9.4027964e+69
-9.4013878e+69
-9.3811948e+69
-9.3982401e+69
-9.3776565e+69
-9.3375029e+69
-9.3146357e+69
-9.3121937e+69
-9.3357071e+69
-9.3479664e+69
-9.3189872e+69
-9.3165198e+69
-9.3460552e+69
-9.3159172e+69
-9.3166758e+69
-9.34738e+69
-9.3463109e+69
-9.3784743e+69
-9.3810678e+69
-9.4089673e+69
-9.4064128e+69
-9.4070986e+69
-9.3793335e+69
-9.3782503e+69
-9.4061254e+69
-9.0461716e+69
-9.0004328e+69
-8.9872053e+69
-8.5377099e+69
-9.2794914e+69
-9.2859923e+69
-9.3410174e+69
-9.3381387e+69
-9.2862501e+69
-9.4820824e+69
-9.4141399e+69
-9.4819993e+69
-9.4123802e+69
-9.1716408e+69
-9.2167807e+69
-9.098003e+69
-9.1525416e+69
-9.1013138e+69
-9.1041016e+69
-9.1525451e+69
-9.1415295e+69
-9.2171688e+69
-9.1726108e+69
-9.2071133e+69
-9.1618327e+69
-9.5909863e+69
-9.56636e+69
-9.5934741e+69
-9.5964015e+69
-9.5714319e+69
-9.5675149e+69
-9.6461213e+69
-9.6753726e+69
-9.64997e+69
-9.6787771e+69
-9.7346896e+69
-9.764765e+69
-9.7383162e+69
-9.767716e+69
-9.8239762e+69
-9.8589334e+69
-9.9280947e+69
-9.9687143e+69
-1.0334195e+70
-1.0358594e+70
-1.036274e+70
-1.0337448e+70
-1.0339868e+70
-1.0338962e+70
-1.0364199e+70
-1.0364155e+70
-1.0394245e+70
-1.0386486e+70
-1.0389378e+70
-1.0390293e+70
-1.0392615e+70
-1.0395436e+70
-1.0392064e+70
-1.0395698e+70
-1.0190131e+70
-1.0224211e+70
-1.0226879e+70
-1.0192367e+70
-1.0194789e+70
-1.0193691e+70
-1.0228365e+70
-1.0228758e+70
-1.030147e+70
-1.0266153e+70
-1.0298728e+70
-1.0268813e+70
-1.0270281e+70
-1.0302172e+70
-1.0269869e+70
-1.0302608e+70
-1.0219673e+70
-1.018303e+70
-1.0217022e+70
-1.0185488e+70
-1.0258587e+70
-1.0290702e+70
-1.029409e+70
-1.0261273e+70
-1.0222024e+70
-1.0186742e+70
-1.0221379e+70
-1.0188132e+70
-1.0263332e+70
-1.0296164e+70
-1.0264286e+70
-1.0296571e+70
-1.0342139e+70
-1.0366483e+70
-1.0370012e+70
-1.034468e+70
-1.0394397e+70
-1.0397236e+70
-1.0401269e+70
-1.0397548e+70
-1.0345581e+70
-1.0345999e+70
-1.0370844e+70
-1.0370097e+70
-1.0398487e+70
-1.0398088e+70
-1.0401693e+70
-1.0400502e+70
-1.0077803e+70
-1.0045265e+70
-1.0076188e+70
-1.0046968e+70
-1.0117768e+70
-1.014982e+70
-1.0152046e+70
-1.0119745e+70
-1.004871e+70
-1.0079673e+70
-1.004782e+70
-1.0079062e+70
-1.0121066e+70
-1.0153523e+70
-1.0121723e+70
-1.0153819e+70
-9.9340647e+69
-9.9532212e+69
-9.9534203e+69
-9.9343944e+69
-9.93421e+69
-9.9341941e+69
-9.95362e+69
-9.9535859e+69
-1.000864e+70
-9.9869393e+69
-1.0008164e+70
-9.9873826e+69
-9.9871498e+69
-1.000862e+70
-9.9872479e+69
-1.0008823e+70
-9.9511156e+69
-9.9309749e+69
-9.9499791e+69
-9.932432e+69
-9.9834735e+69
-1.000425e+70
-1.0005887e+70
-9.9848726e+69
-9.9524735e+69
-9.932987e+69
-9.9521074e+69
-9.9336907e+69
-9.985766e+69
-1.000696e+70
-9.9864335e+69
-1.0007636e+70
-1.0049387e+70
-1.008067e+70
-1.0081541e+70
-1.0050042e+70
-1.0155117e+70
-1.0123442e+70
-1.0122533e+70
-1.0156437e+70
-1.00501e+70
-1.0050327e+70
-1.0081805e+70
-1.0081766e+70
-1.0156881e+70
-1.0123434e+70
-1.0156428e+70
-1.0123604e+70
-1.0031616e+70
-1.0033656e+70
-1.0064727e+70
-1.006256e+70
-1.0036914e+70
-1.0067745e+70
-1.0035142e+70
-1.0066408e+70
-1.0103892e+70
-1.0135775e+70
-1.0138196e+70
-1.0106279e+70
-1.0107948e+70
-1.0109315e+70
-1.0140006e+70
-1.0140946e+70
-9.9446956e+69
-9.9239166e+69
-9.9430885e+69
-9.9258392e+69
-9.976917e+69
-9.9975675e+69
-9.9993467e+69
-9.9787296e+69
-9.9271811e+69
-9.928991e+69
-9.9464115e+69
-9.9479609e+69
-9.9800503e+69
-9.9815483e+69
-1.0000869e+70
-1.000217e+70
-9.9192815e+69
-9.9174267e+69
-9.9364508e+69
-9.938355e+69
-9.9719566e+69
-9.9698319e+69
-9.9904386e+69
-9.9924937e+69
-9.9412414e+69
-9.9205684e+69
-9.9398583e+69
-9.9223321e+69
-9.9943134e+69
-9.973533e+69
-9.9752353e+69
-9.9960299e+69
-1.007151e+70
-1.0038614e+70
-1.0069626e+70
-1.004043e+70
-1.0143082e+70
-1.0111112e+70
-1.0113011e+70
-1.0145295e+70
-1.0043343e+70
-1.0074189e+70
-1.0041717e+70
-1.0072982e+70
-1.0146932e+70
-1.0114398e+70
-1.0115479e+70
-1.0147471e+70
-1.0196893e+70
-1.0231061e+70
-1.0233585e+70
-1.0198949e+70
-1.0200209e+70
-1.0201004e+70
-1.0234974e+70
-1.0235153e+70
-1.0307767e+70
-1.0272572e+70
-1.0304627e+70
-1.0275241e+70
-1.0277012e+70
-1.0309344e+70
-1.0276619e+70
-1.0309296e+70
-1.0202278e+70
-1.0236477e+70
-1.0238456e+70
-1.0203725e+70
-1.0313305e+70
-1.0278144e+70
-1.0310896e+70
-1.0280009e+70
-1.0238689e+70
-1.0204106e+70
-1.0239021e+70
-1.0204337e+70
-1.0280476e+70
-1.0313896e+70
-1.0313195e+70
-1.0280312e+70
-1.0354718e+70
-1.0378615e+70
-1.0382147e+70
-1.0357132e+70
-1.0409202e+70
-1.0409626e+70
-1.0406421e+70
-1.0413459e+70
-1.0414228e+70
-1.0410696e+70
-1.0410538e+70
-1.041349e+70
-1.0357463e+70
-1.0357658e+70
-1.0382727e+70
-1.0382197e+70
-1.0348375e+70
-1.0372475e+70
-1.0376244e+70
-1.0351226e+70
-1.0352336e+70
-1.0377236e+70
-1.0353073e+70
-1.0376979e+70
-1.040266e+70
-1.0407617e+70
-1.0400188e+70
-1.0403824e+70
-1.040516e+70
-1.0404883e+70
-1.0408235e+70
-1.0407886e+70
-9.1117969e+69
-9.2040766e+69
-9.1872216e+69
-9.1088051e+69
-9.1143493e+69
-9.1016784e+69
-9.1898514e+69
-9.1834705e+69
-8.9281756e+69
-8.9334136e+69
-9.1011614e+69
-9.1126772e+69
-9.2041087e+69
-9.1983442e+69
-9.1159306e+69
-9.1071708e+69
-9.1951416e+69
-9.2049162e+69
-8.937999e+69
-8.9650052e+69
-8.4233476e+69
-8.4011671e+69
-9.3147661e+69
-9.3140975e+69
-9.3391895e+69
-9.3376774e+69
-9.313855e+69
-9.3134166e+69
-9.3371396e+69
-9.3371264e+69
-9.378243e+69
-9.3777889e+69
-9.399928e+69
-9.4003781e+69
-9.4011856e+69
-9.3792894e+69
-9.3806141e+69
-9.4030214e+69
-9.3897001e+69
-9.3705032e+69
-9.3717378e+69
-9.3913375e+69
-9.3285803e+69
-9.3057091e+69
-9.3056785e+69
-9.3293526e+69
-9.3933414e+69
-9.3734654e+69
-9.3760151e+69
-9.3963342e+69
-9.3304291e+69
-9.3067554e+69
-9.3114283e+69
-9.3347857e+69
-9.4411051e+69
-9.4374283e+69
-9.46429e+69
-9.4607911e+69
-9.4355878e+69
-9.4337837e+69
-9.4573419e+69
-9.4582104e+69
-9.5008347e+69
-9.4998986e+69
-9.5274569e+69
-9.5279708e+69
-9.5301747e+69
-9.5031379e+69
-9.5070719e+69
-9.5340812e+69
-9.447276e+69
-9.4456216e+69
-9.4699897e+69
-9.4709422e+69
-9.4443056e+69
-9.4438286e+69
-9.4675551e+69
-9.468699e+69
-9.5379723e+69
-9.5111071e+69
-9.5125407e+69
-9.5391201e+69