/*--------------------------------*- C++ -*----------------------------------*\
  =========                 |
  \\      /  F ield         | OpenFOAM: The Open Source CFD Toolbox
   \\    /   O peration     | Website:  https://openfoam.org
    \\  /    A nd           | Version:  7
     \\/     M anipulation  |
\*---------------------------------------------------------------------------*/
FoamFile
{
    version     2.0;
    format      ascii;
    class       volVectorField;
    location    "6000";
    object      UMean;
}
// * * * * * * * * * * * * * * * * * * * * * * * * * * * * * * * * * * * * * //

dimensions      [0 1 -1 0 0 0 0];

internalField   nonuniform List<vector> 
33730
(
(-9.3172347e+33 -1.2798747e+33 -3.058975e+32)
(-9.2953411e+33 -5.622001e+32 1.1581801e+33)
(-9.0876219e+33 -1.3007594e+32 1.2790133e+33)
(-9.6316963e+33 1.3702562e+32 7.1713883e+32)
(-9.6832701e+33 1.9889467e+31 7.6706176e+32)
(-8.9561936e+33 -9.1439377e+31 -1.0381012e+33)
(-7.0012494e+33 -4.1179646e+32 -8.0721263e+31)
(-9.1001822e+33 -4.797718e+32 -1.0410396e+33)
(-7.2946106e+33 -1.1232927e+33 -5.1716585e+31)
(-7.5489621e+33 -6.2063145e+31 9.4825624e+32)
(-7.6918688e+33 -2.0385486e+32 9.4570466e+32)
(-9.4471369e+33 1.2600842e+32 1.0690955e+33)
(-9.3427797e+33 -1.5495564e+31 1.0494834e+33)
(-7.7105305e+33 -4.4175081e+31 9.7428574e+32)
(-9.3660573e+33 1.7912749e+32 1.103039e+33)
(-9.3148566e+33 -5.8796986e+31 1.1445374e+33)
(-7.6016798e+33 1.0164717e+31 1.0235431e+33)
(-9.6896548e+33 8.1139566e+31 -1.1953312e+32)
(-9.7883063e+33 1.9218119e+32 -1.2202918e+32)
(-1.0064774e+34 1.481705e+32 3.8389904e+32)
(-9.6484178e+33 1.7235978e+32 -1.6688845e+32)
(-1.0126433e+34 -8.0646943e+30 4.2215543e+32)
(-8.9661071e+33 1.9863733e+32 -4.0385136e+32)
(-8.9089693e+33 9.7553732e+31 6.662513e+32)
(-8.9493297e+33 2.3315585e+32 6.7340628e+32)
(-8.9417679e+33 4.7165275e+31 7.4898924e+32)
(-8.928097e+33 2.5681105e+32 6.9698263e+32)
(-8.3842522e+33 9.4273338e+30 -9.1343037e+32)
(-8.8656877e+33 1.3442529e+32 -8.5552628e+32)
(-8.7890006e+33 -2.4816193e+31 -8.4095551e+32)
(-8.3053945e+33 2.0175232e+31 -9.6556336e+32)
(-6.6775636e+33 3.0662309e+31 -1.2410741e+33)
(-6.8105841e+33 -8.9297826e+31 -1.2303409e+33)
(-5.0273086e+33 -1.5360117e+32 4.771821e+31)
(-5.2074987e+33 -5.2237487e+32 8.6654366e+31)
(-8.3321364e+33 -6.7023695e+31 -9.0388782e+32)
(-8.7833763e+33 1.1915185e+32 -8.2822626e+32)
(-8.7243804e+33 7.3926362e+30 -8.2356025e+32)
(-8.271157e+33 1.6001237e+31 -9.2668402e+32)
(-6.8004369e+33 -2.1102992e+32 -1.2143609e+33)
(-6.6703258e+33 -1.9088094e+31 -1.2175843e+33)
(-5.1600099e+33 -7.564693e+32 9.7728126e+30)
(-5.1071628e+33 -3.2887048e+32 3.0209374e+31)
(-6.4244981e+33 1.0531871e+31 7.4458143e+32)
(-8.2337536e+33 1.5557043e+32 9.040787e+32)
(-6.3478534e+33 3.7908485e+31 7.6730141e+32)
(-8.172254e+33 2.4447059e+31 9.2300434e+32)
(-6.4709315e+33 -5.6554839e+31 7.8929856e+32)
(-6.3811053e+33 -8.0432479e+30 7.5962164e+32)
(-8.2276501e+33 4.2981124e+31 9.1845742e+32)
(-8.2912252e+33 1.4847905e+32 9.4586682e+32)
(-8.2594126e+33 8.4943045e+31 9.2955516e+32)
(-6.4049798e+33 8.7014462e+31 7.531278e+32)
(-8.300194e+33 1.9884318e+32 9.4347905e+32)
(-6.5066776e+33 3.9510633e+31 7.9287111e+32)
(-6.4726862e+33 7.0136275e+31 8.462067e+32)
(-6.4888582e+33 9.0036418e+31 7.8464747e+32)
(-8.2472793e+33 6.3630936e+30 1.0078278e+33)
(-8.2826916e+33 1.7607247e+32 9.7180561e+32)
(-9.1754413e+33 1.0086834e+32 -1.133496e+32)
(-8.8786839e+33 1.4232749e+32 -3.5422017e+32)
(-7.9807789e+33 1.7172474e+32 -2.9146178e+32)
(-7.9016114e+33 1.6203769e+32 -3.5921465e+32)
(-9.0002563e+33 1.8359084e+32 -3.7893601e+32)
(-9.1610042e+33 2.0357714e+32 -1.4746451e+32)
(-8.9020796e+33 2.0291057e+32 -3.7274387e+32)
(-9.8034485e+33 4.2818386e+31 -9.3487518e+31)
(-8.6900391e+33 1.7517022e+32 -5.1406141e+32)
(-9.3816119e+33 2.1575119e+32 5.3151446e+32)
(-8.9589061e+33 1.6912989e+32 -1.501654e+31)
(-8.9796008e+33 2.1159792e+32 -3.2259074e+30)
(-9.3030269e+33 1.0069365e+32 5.0928726e+32)
(-9.6599069e+33 2.2793661e+32 -1.3020236e+32)
(-8.8945579e+33 2.4851346e+32 -3.7380691e+32)
(-8.9591978e+33 9.0491844e+31 -3.7956239e+32)
(-9.0661581e+33 2.2272237e+32 -1.8581174e+32)
(-8.8629276e+33 2.3449001e+32 -4.0145667e+32)
(-8.8334892e+33 2.0513352e+32 -3.9704636e+32)
(-9.0168656e+33 1.7159846e+32 -2.0755287e+32)
(-9.0448621e+33 2.2345817e+32 2.8019853e+31)
(-9.0751379e+33 1.1136225e+32 6.5808839e+31)
(-9.3306442e+33 2.2537415e+32 5.202266e+32)
(-9.3319407e+33 5.1873627e+31 5.615998e+32)
(-9.9679662e+33 2.4777351e+32 -2.1582862e+32)
(-8.9546793e+33 1.9591043e+32 -4.2861464e+32)
(-7.9679814e+33 1.9912606e+32 -6.9013485e+32)
(-7.8044951e+33 2.224769e+32 5.7813936e+32)
(-7.7823322e+33 1.0145533e+32 6.1163683e+32)
(-7.8325565e+33 9.0409646e+31 6.1106866e+32)
(-7.8481922e+33 2.1250854e+32 6.2655727e+32)
(-7.853109e+33 2.3389299e+32 6.4915493e+32)
(-7.845857e+33 7.0081908e+31 6.9479897e+32)
(-7.8496327e+33 1.1436899e+32 6.2015997e+32)
(-7.8565649e+33 2.4284988e+32 6.2004424e+32)
(-1.0046835e+34 -1.6888551e+32 -8.7214856e+32)
(-1.0182443e+34 -1.4818205e+32 -8.8124919e+32)
(-8.8471706e+33 6.6799837e+31 -1.0491994e+33)
(-8.6847599e+33 2.2138771e+32 -6.1905978e+32)
(-8.6953469e+33 6.2410284e+31 -6.3602997e+32)
(-8.8336397e+33 3.2146381e+31 -1.0999216e+33)
(-7.1598363e+33 1.7535377e+32 -1.1257991e+33)
(-5.9490826e+33 7.9631967e+31 -1.3322126e+33)
(-7.0992333e+33 5.0269429e+31 -1.1295348e+33)
(-5.8916521e+33 2.6806514e+31 -1.3569708e+33)
(-7.103284e+33 9.1651957e+31 -1.089431e+33)
(-7.1630875e+33 1.6313453e+32 -1.0918682e+33)
(-5.9442193e+33 3.6521168e+31 -1.3159895e+33)
(-5.8757766e+33 5.0773128e+31 -1.3150039e+33)
(-4.0797304e+33 1.7903367e+31 -1.1981721e+33)
(-3.9781498e+33 3.3792097e+31 -1.2056509e+33)
(-3.6281231e+33 -1.2205438e+32 3.6911663e+32)
(-3.4836064e+33 5.837006e+31 3.1670625e+32)
(-4.0570191e+33 -3.3784073e+31 -1.1912244e+33)
(-3.9846958e+33 4.944771e+31 -1.1758429e+33)
(-3.6334526e+33 -2.093895e+32 3.3681292e+32)
(-3.5353331e+33 4.2304576e+31 3.3810732e+32)
(-8.7750093e+33 -1.0703801e+31 -1.0386177e+33)
(-8.6029836e+33 2.2572634e+32 -6.042771e+32)
(-8.6193014e+33 8.8883064e+31 -6.1096134e+32)
(-8.7811434e+33 -1.5573539e+29 -1.0708085e+33)
(-7.0827703e+33 6.0742252e+31 -1.0840707e+33)
(-7.1462235e+33 1.2114865e+32 -1.0931654e+33)
(-5.9340643e+33 -5.3175133e+31 -1.3034592e+33)
(-5.8675308e+33 -2.5777294e+31 -1.3128623e+33)
(-7.0728614e+33 4.8715065e+31 -1.1056757e+33)
(-7.1336784e+33 1.6007912e+32 -1.1099822e+33)
(-5.866221e+33 -7.165871e+30 -1.3395946e+33)
(-5.9123176e+33 2.2362318e+31 -1.3223632e+33)
(-4.0910523e+33 -1.5958601e+32 -1.1866861e+33)
(-3.9941828e+33 -6.5158902e+31 -1.1821964e+33)
(-3.624015e+33 -3.7633017e+32 2.8211629e+32)
(-3.5655374e+33 -1.6520799e+32 3.0654286e+32)
(-4.0628186e+33 -7.160579e+31 -1.2059115e+33)
(-3.9816756e+33 -1.3607272e+31 -1.2098247e+33)
(-3.6718307e+33 -2.915177e+32 3.3853838e+32)
(-3.5718889e+33 -5.4586335e+31 3.3740226e+32)
(-7.0995082e+33 1.4819073e+32 8.3702229e+32)
(-5.5705769e+33 2.7467578e+31 7.2162321e+32)
(-5.4652408e+33 6.9599671e+31 6.7587217e+32)
(-7.0521998e+33 9.3865643e+31 8.19935e+32)
(-5.5164994e+33 7.2002949e+31 6.9480031e+32)
(-5.500229e+33 6.7715891e+31 7.386064e+32)
(-7.0434337e+33 5.5191059e+31 8.7292149e+32)
(-7.0660934e+33 1.4585143e+32 8.4249305e+32)
(-5.5781649e+33 -9.0440369e+30 7.4712164e+32)
(-5.5126122e+33 2.6585719e+31 7.1874223e+32)
(-7.0963606e+33 1.3058869e+32 8.6705172e+32)
(-7.0728508e+33 6.8136033e+31 8.5781098e+32)
(-5.5511792e+33 3.3070347e+31 7.006616e+32)
(-5.4732401e+33 4.3432936e+31 7.0880376e+32)
(-7.0943952e+33 1.1941635e+32 8.3946564e+32)
(-7.0356356e+33 3.7487172e+31 8.4824545e+32)
(-5.5917608e+33 9.5301074e+31 7.1130093e+32)
(-5.5551246e+33 1.0618945e+32 7.3161794e+32)
(-7.1513682e+33 1.6116671e+32 8.5696354e+32)
(-7.1095818e+33 7.6820508e+31 8.7211097e+32)
(-5.632736e+33 5.2184318e+31 7.5026561e+32)
(-5.5590612e+33 8.6250078e+31 7.0700034e+32)
(-7.1608161e+33 1.7956016e+32 8.7708806e+32)
(-7.1321392e+33 1.128802e+32 8.6194883e+32)
(-5.6636691e+33 1.0261024e+32 7.6681718e+32)
(-7.1917004e+33 1.5139964e+32 9.2266069e+32)
(-7.1478697e+33 5.0794746e+31 9.4402155e+32)
(-5.6222232e+33 8.1570934e+31 7.9361193e+32)
(-5.6631807e+33 8.4260161e+31 7.7086077e+32)
(-5.590603e+33 1.1643417e+32 7.2440745e+32)
(-7.1999021e+33 1.8212463e+32 9.0200911e+32)
(-7.1558183e+33 1.1373042e+32 8.8274001e+32)
(-7.7812372e+33 1.5985656e+32 -2.7353817e+32)
(-7.7876023e+33 1.7682195e+32 -3.0461476e+32)
(-7.889826e+33 1.4066444e+32 -1.5150222e+32)
(-7.914498e+33 1.8664432e+32 -1.765496e+32)
(-6.5465576e+33 1.4444543e+32 -2.3169217e+32)
(-6.6388046e+33 1.4929868e+32 -1.9944793e+32)
(-7.9477181e+33 1.574044e+32 -2.7842461e+32)
(-7.9619942e+33 1.7970609e+32 -3.0572923e+32)
(-7.8771665e+33 1.7758927e+32 -3.7759266e+32)
(-7.8886882e+33 1.7826173e+32 -3.4036542e+32)
(-8.926085e+33 1.2743695e+32 -3.7052286e+32)
(-6.6322289e+33 1.4665723e+32 -2.4025315e+32)
(-6.6973212e+33 1.5143049e+32 -2.0714613e+32)
(-6.6214701e+33 1.4039701e+32 -2.4477304e+32)
(-6.6875631e+33 1.3818847e+32 -2.0883935e+32)
(-6.847784e+33 1.5427475e+32 -2.3559115e+32)
(-6.8352591e+33 1.3977807e+32 -2.4077211e+32)
(-6.9164933e+33 1.5607392e+32 -3.0997249e+32)
(-8.0360923e+33 1.7259935e+32 -3.2261181e+32)
(-6.9091689e+33 1.4105236e+32 -3.1151227e+32)
(-7.9505533e+33 1.8410637e+32 -4.1485701e+32)
(-8.0074586e+33 1.6432501e+32 -3.828333e+32)
(-7.7986994e+33 1.9334028e+32 -3.1167962e+32)
(-7.8070932e+33 2.0320912e+32 -3.0841718e+32)
(-7.9250226e+33 2.1791955e+32 -1.8531082e+32)
(-7.9247872e+33 1.7690565e+32 -1.8233183e+32)
(-7.9812262e+33 1.9130568e+32 -3.1188853e+32)
(-7.8962043e+33 2.1141343e+32 -3.907267e+32)
(-7.8912165e+33 2.0090643e+32 -3.8044057e+32)
(-7.9854346e+33 2.0721686e+32 -3.0420048e+32)
(-9.0098562e+33 2.0511614e+32 -3.7937346e+32)
(-8.7170957e+33 2.1585902e+32 -5.1697464e+32)
(-8.7325304e+33 1.3042574e+32 -4.8909941e+32)
(-8.1021812e+33 1.7112174e+32 -4.8272514e+32)
(-8.0878328e+33 2.1799672e+32 -4.9443604e+32)
(-8.194842e+33 1.738303e+32 -3.657007e+32)
(-8.1176846e+33 1.934378e+32 -4.1575698e+32)
(-8.2829046e+33 2.1199447e+32 6.239501e+32)
(-7.9142437e+33 1.2319388e+32 2.3554584e+32)
(-7.9193617e+33 1.927994e+32 2.3676305e+32)
(-8.2450597e+33 9.2228052e+31 6.1094804e+32)
(-7.9846906e+33 2.1497926e+32 4.226235e+31)
(-7.7172599e+33 1.9023641e+32 -1.6910691e+32)
(-7.7311027e+33 2.1117083e+32 -1.8066566e+32)
(-7.9569929e+33 1.5615698e+32 5.9835711e+31)
(-8.0524512e+33 2.0085593e+32 8.2608996e+31)
(-7.7401792e+33 1.7727322e+32 -1.4817522e+32)
(-7.7471833e+33 1.9916012e+32 -1.489985e+32)
(-8.0378421e+33 1.3805838e+32 8.3151221e+31)
(-7.8720762e+33 2.125658e+32 2.0754484e+32)
(-7.8649503e+33 1.467196e+32 2.2895928e+32)
(-8.1826389e+33 1.032421e+32 5.9711324e+32)
(-8.2258289e+33 2.0728004e+32 5.7745741e+32)
(-1.0034928e+34 3.8305375e+31 -1.6350126e+32)
(-9.8709128e+33 2.3508774e+32 -1.4854104e+32)
(-8.5816236e+33 1.2173458e+32 -7.6825016e+32)
(-8.640716e+33 -4.1630063e+31 -8.0224737e+32)
(-8.6708061e+33 2.0956521e+32 -5.2287498e+32)
(-8.6904269e+33 2.3948914e+32 -5.0950566e+32)
(-8.9215892e+33 2.4789567e+32 -4.0904106e+32)
(-8.8439709e+33 2.095002e+32 -4.2190846e+32)
(-8.9092943e+33 2.3122379e+32 -4.4311931e+32)
(-7.9711096e+33 2.4341612e+32 -7.1855731e+32)
(-8.0542758e+33 1.8994452e+32 -6.9102109e+32)
(-8.8965954e+33 1.9634238e+32 -4.6491303e+32)
(-8.9665228e+33 2.0926875e+32 -4.4110318e+32)
(-8.0384004e+33 2.2960878e+32 -7.0234951e+32)
(-8.1053532e+33 1.0255975e+32 -6.8678304e+32)
(-8.9590726e+33 1.0867067e+32 -4.4293629e+32)
(-7.7050267e+33 2.1064134e+32 -3.1305443e+32)
(-7.8668169e+33 2.1261997e+32 -1.8564961e+32)
(-7.8556908e+33 1.8673369e+32 -1.8996648e+32)
(-7.7133608e+33 2.085735e+32 -3.1318057e+32)
(-7.8673864e+33 2.2529039e+32 -3.2830801e+32)
(-7.8340144e+33 2.3059033e+32 -3.7912749e+32)
(-7.8248964e+33 2.2407775e+32 -3.8422044e+32)
(-7.8617337e+33 2.1561613e+32 -3.2787033e+32)
(-7.8272661e+33 2.1116987e+32 -4.0116472e+32)
(-7.8394431e+33 2.0905816e+32 -3.4242785e+32)
(-7.85658e+33 2.141794e+32 -3.554411e+32)
(-7.8154149e+33 2.2239734e+32 -3.9423164e+32)
(-7.7133497e+33 2.098998e+32 -3.3880819e+32)
(-7.6917472e+33 2.1015721e+32 -3.2722108e+32)
(-7.8237584e+33 2.134796e+32 -2.3247515e+32)
(-7.8026049e+33 1.9583476e+32 -2.1871364e+32)
(-8.0768972e+33 1.5188595e+32 9.475979e+31)
(-7.8132173e+33 2.1601432e+32 -1.3940108e+32)
(-8.0835314e+33 2.3142842e+32 9.3661717e+31)
(-7.8153373e+33 1.7415443e+32 -1.3923602e+32)
(-7.8156026e+33 1.8992602e+32 -1.2736857e+32)
(-8.0753663e+33 1.9993078e+32 1.1087286e+32)
(-8.0619862e+33 1.0366859e+32 1.418881e+32)
(-7.8019036e+33 1.3781635e+32 -9.9389431e+31)
(-7.9693207e+33 2.2838534e+32 2.5601771e+32)
(-8.2788541e+33 2.4163917e+32 6.1565726e+32)
(-7.963511e+33 1.4144894e+32 2.5731585e+32)
(-8.2753467e+33 1.1688337e+32 6.2053541e+32)
(-7.9791026e+33 1.0213421e+32 3.1385897e+32)
(-7.9752828e+33 2.0943821e+32 2.7703781e+32)
(-8.2848195e+33 2.1251874e+32 6.4286179e+32)
(-8.2584157e+33 6.8089377e+31 6.7653286e+32)
(-8.9243375e+33 2.0396405e+32 -2.250207e+32)
(-7.5720228e+33 6.9764781e+31 -2.8052145e+32)
(-8.2987693e+33 1.8064278e+32 -4.6958677e+32)
(-8.1556607e+33 1.842906e+32 -6.1024375e+32)
(-8.1647823e+33 2.3117071e+32 -6.1067371e+32)
(-8.279636e+33 2.2553575e+32 -4.854297e+32)
(-7.8595266e+33 1.8218269e+32 -8.3395042e+32)
(-8.4520411e+33 2.024621e+32 -5.0560301e+32)
(-7.9156194e+33 1.9780566e+32 -7.7434252e+32)
(-8.4906638e+33 2.3695221e+32 -4.8286794e+32)
(-6.7105075e+33 1.883075e+32 6.1229624e+32)
(-6.689246e+33 1.1611419e+32 6.0097963e+32)
(-6.6707872e+33 1.0632468e+32 6.4317515e+32)
(-6.6869575e+33 2.0030648e+32 6.1382686e+32)
(-6.7262675e+33 1.7373182e+32 6.1909812e+32)
(-6.6885041e+33 8.5124425e+31 6.3516261e+32)
(-6.7236026e+33 1.7490166e+32 6.4902832e+32)
(-6.7202589e+33 8.6954777e+31 6.4116079e+32)
(-6.7668346e+33 1.2328063e+32 6.4300528e+32)
(-6.783139e+33 2.0791253e+32 6.5406361e+32)
(-6.7930554e+33 1.9700392e+32 6.7621741e+32)
(-6.7651886e+33 8.7353879e+31 7.0156622e+32)
(-6.7381389e+33 1.1202845e+32 6.4189346e+32)
(-6.7669414e+33 2.0050846e+32 6.2083465e+32)
(-6.7618046e+33 1.1963031e+32 6.3578942e+32)
(-6.7712243e+33 2.1079812e+32 6.4768249e+32)
(-1.0099549e+34 -4.9613512e+31 -5.0888176e+32)
(-1.0210381e+34 -5.1213281e+31 -5.0813471e+32)
(-9.0560835e+33 1.2698663e+32 -8.5786129e+32)
(-7.1444607e+33 8.8081232e+31 -1.1248819e+33)
(-7.1735743e+33 1.9689355e+32 -1.1101993e+33)
(-9.0647607e+33 1.8821978e+32 -4.839137e+32)
(-9.054564e+33 6.8595205e+31 -4.9512608e+32)
(-9.0508924e+33 8.788632e+31 -9.1074771e+32)
(-7.1566439e+33 6.9305369e+31 -1.1670711e+33)
(-7.1717473e+33 2.0878484e+32 -1.1437573e+33)
(-6.1859288e+33 9.6270726e+31 -1.4218665e+33)
(-6.156391e+33 5.5204734e+31 -1.4439065e+33)
(-6.1671016e+33 6.2132523e+31 -1.4055534e+33)
(-6.1301938e+33 5.5342489e+31 -1.4153681e+33)
(-4.2565646e+33 1.1989011e+32 -1.2104397e+33)
(-4.2253694e+33 9.1342136e+31 -1.1977654e+33)
(-2.9737498e+33 6.4869149e+31 -1.3265132e+33)
(-3.0368504e+33 7.0126995e+31 -1.3377337e+33)
(-4.2216762e+33 5.738053e+31 -1.2291648e+33)
(-4.2461725e+33 1.1436136e+32 -1.2155508e+33)
(-3.0171031e+33 8.3204247e+31 -1.3329289e+33)
(-2.9731202e+33 3.3760815e+31 -1.3654453e+33)
(-3.5282719e+33 4.6482497e+31 5.4630691e+32)
(-3.4695939e+33 1.3751361e+32 5.2880456e+32)
(-2.4045694e+33 -1.965841e+31 -3.9847113e+32)
(-2.3693937e+33 1.3242616e+31 -3.4363922e+32)
(-2.4207627e+33 1.1486235e+31 -3.4180889e+32)
(-3.5421365e+33 8.6983158e+31 5.5684904e+32)
(-2.3264038e+33 -1.0682115e+31 -3.9669152e+32)
(-3.4350671e+33 1.0648053e+32 5.1733814e+32)
(-4.255422e+33 9.0974376e+31 -1.2064846e+33)
(-4.2313864e+33 6.972829e+31 -1.1931221e+33)
(-2.9663817e+33 3.5599166e+31 -1.3229733e+33)
(-3.0347738e+33 2.8588045e+31 -1.33164e+33)
(-4.2108182e+33 1.1210069e+32 -1.193346e+33)
(-4.1857448e+33 6.9472961e+31 -1.2048378e+33)
(-2.9972675e+33 6.6085325e+31 -1.3164301e+33)
(-2.9477911e+33 3.8881411e+31 -1.3455435e+33)
(-3.4847351e+33 -1.0160147e+31 5.2051453e+32)
(-3.432344e+33 7.5830218e+31 5.0799852e+32)
(-2.3865538e+33 -7.9872576e+31 -4.4506513e+32)
(-2.3563781e+33 -4.122446e+31 -3.8429498e+32)
(-3.5203186e+33 5.1004815e+31 5.4754313e+32)
(-3.4167924e+33 1.2949341e+32 5.0737698e+32)
(-2.4389354e+33 -3.1486e+31 -3.4918542e+32)
(-2.331022e+33 -5.0144629e+30 -3.8766084e+32)
(-8.963412e+33 5.8805093e+31 -8.5821295e+32)
(-7.1452469e+33 1.5841558e+32 -1.1096224e+33)
(-7.1174686e+33 5.7024557e+31 -1.1247041e+33)
(-8.972341e+33 1.8221395e+32 -4.7340132e+32)
(-8.9624923e+33 9.577511e+31 -4.7445944e+32)
(-8.9724231e+33 7.2244503e+31 -8.7720393e+32)
(-7.1369498e+33 1.9022798e+32 -1.1209918e+33)
(-7.1111065e+33 6.6887961e+31 -1.1390491e+33)
(-6.1550772e+33 -3.2649149e+31 -1.405198e+33)
(-6.1052721e+33 -2.1872955e+31 -1.4194814e+33)
(-6.109478e+33 1.640608e+31 -1.43019e+33)
(-6.1312414e+33 3.0319364e+31 -1.4099341e+33)
(-4.2618947e+33 3.0730993e+31 -1.2087573e+33)
(-4.2399715e+33 1.7122126e+31 -1.1925522e+33)
(-2.9864882e+33 -4.4521125e+31 -1.311113e+33)
(-3.0812929e+33 -6.4967865e+31 -1.3129335e+33)
(-4.238355e+33 6.1080907e+31 -1.2094716e+33)
(-4.2125079e+33 1.7441663e+31 -1.2200436e+33)
(-3.0274637e+33 -1.3904078e+31 -1.312514e+33)
(-2.9514107e+33 -3.948479e+31 -1.3434803e+33)
(-2.4099867e+33 -2.1839366e+32 -4.7531531e+32)
(-3.4115098e+33 -6.4957818e+31 4.9160842e+32)
(-3.3785436e+33 1.6688464e+31 4.9874595e+32)
(-2.374599e+33 -1.7016475e+32 -3.909361e+32)
(-3.4534711e+33 -2.2775458e+31 5.1920499e+32)
(-3.3387568e+33 4.4377976e+31 4.7855353e+32)
(-2.4232903e+33 -1.5346488e+32 -4.1991131e+32)
(-2.3196354e+33 -1.3558963e+32 -4.3841333e+32)
(-4.2502598e+33 7.4859586e+31 -1.2155335e+33)
(-4.2195629e+33 5.6368278e+31 -1.1990597e+33)
(-3.0378799e+33 -6.2877422e+30 -1.3305461e+33)
(-2.9522529e+33 4.1980352e+30 -1.3237809e+33)
(-4.2447883e+33 9.206123e+31 -1.2182279e+33)
(-4.2192203e+33 3.8967527e+31 -1.2312412e+33)
(-3.0189114e+33 3.7095144e+31 -1.3256764e+33)
(-2.9718137e+33 -3.5663057e+30 -1.356512e+33)
(-2.3864621e+33 -1.3507985e+32 -4.7140003e+32)
(-3.4256867e+33 -2.1494505e+31 4.8596217e+32)
(-3.3517504e+33 6.6935441e+31 4.788681e+32)
(-2.3230911e+33 -8.5661055e+31 -4.159595e+32)
(-3.4349015e+33 2.6016995e+31 5.1619926e+32)
(-3.3725538e+33 7.1973104e+31 5.0383744e+32)
(-2.4019894e+33 -7.2969885e+31 -4.2832847e+32)
(-2.3209759e+33 -7.0133387e+31 -4.4838984e+32)
(-4.7858896e+33 6.3094403e+31 7.0393988e+32)
(-4.811384e+33 1.6215189e+31 7.2459518e+32)
(-6.17084e+33 1.3695425e+32 7.6210912e+32)
(-6.1505555e+33 9.6775315e+31 7.5884347e+32)
(-4.7641873e+33 8.4432154e+31 7.1250243e+32)
(-4.7783315e+33 3.5869504e+31 6.8613364e+32)
(-6.1379875e+33 1.3825926e+32 7.330219e+32)
(-6.1030498e+33 8.3743694e+31 7.3653969e+32)
(-4.7884988e+33 9.4016599e+31 7.0031779e+32)
(-4.8032598e+33 4.112068e+31 7.1871314e+32)
(-6.1640932e+33 1.5981634e+32 7.5757249e+32)
(-6.1297551e+33 1.1402905e+32 7.4453422e+32)
(-4.844195e+33 9.0577265e+31 7.5842936e+32)
(-4.825982e+33 5.5075839e+31 7.1181551e+32)
(-6.1506978e+33 1.4758655e+32 7.732323e+32)
(-6.1064023e+33 8.5964133e+31 7.7049926e+32)
(-4.7991001e+33 2.7359303e+31 7.2366727e+32)
(-4.8111431e+33 -1.3267557e+30 7.3959234e+32)
(-6.145301e+33 1.2511966e+32 7.7180741e+32)
(-6.1394634e+33 7.3916266e+31 7.8012114e+32)
(-4.7952738e+33 4.6397216e+31 7.3667983e+32)
(-4.8016959e+33 1.614802e+30 7.083628e+32)
(-6.1449926e+33 1.0986289e+32 7.5523183e+32)
(-6.1138921e+33 5.5469692e+31 7.5855324e+32)
(-4.7939421e+33 6.2985e+31 7.0945806e+32)
(-4.8193885e+33 9.0558019e+30 7.2546959e+32)
(-6.1707329e+33 1.3228294e+32 7.4928802e+32)
(-6.1569354e+33 9.1829465e+31 7.5776627e+32)
(-4.7838738e+33 5.567172e+31 7.4170525e+32)
(-4.7927042e+33 2.7542766e+31 7.0469325e+32)
(-6.1283726e+33 1.2520715e+32 7.6140816e+32)
(-6.0940168e+33 5.1010081e+31 7.6625462e+32)
(-4.844257e+33 1.22216e+32 7.0559255e+32)
(-4.8564752e+33 6.5463196e+31 7.2095326e+32)
(-6.2295557e+33 1.6762867e+32 7.5057809e+32)
(-6.2119819e+33 1.2763212e+32 7.5229558e+32)
(-4.8465345e+33 1.1977494e+32 7.3875218e+32)
(-4.8345979e+33 7.8432098e+31 7.0226189e+32)
(-6.2094057e+33 1.556022e+32 7.7352255e+32)
(-6.173087e+33 8.9914254e+31 7.7346071e+32)
(-4.8428876e+33 9.0114501e+31 7.1043362e+32)
(-4.8563386e+33 4.7084424e+31 7.3245292e+32)
(-6.2169178e+33 1.7199793e+32 7.7150806e+32)
(-6.2199583e+33 1.1675594e+32 7.8489196e+32)
(-4.8233974e+33 1.1225672e+32 7.2146933e+32)
(-4.8308798e+33 5.6141092e+31 6.9419085e+32)
(-6.2128309e+33 1.4791405e+32 7.5028385e+32)
(-6.184732e+33 9.5524217e+31 7.5801057e+32)
(-4.9351043e+33 1.1629019e+32 7.3954993e+32)
(-4.9414106e+33 7.5024982e+31 7.4652308e+32)
(-6.2956851e+33 1.7293746e+32 7.959513e+32)
(-6.278194e+33 1.2733336e+32 8.0189061e+32)
(-4.8990019e+33 1.0577398e+32 7.5893545e+32)
(-4.9568173e+33 7.5927789e+31 7.5144029e+32)
(-6.2421149e+33 1.5013109e+32 8.0915563e+32)
(-6.2215801e+33 7.2489893e+31 8.210611e+32)
(-4.9090762e+33 1.2225953e+32 7.2503901e+32)
(-4.9277915e+33 6.7471011e+31 7.510567e+32)
(-6.2759314e+33 1.7275685e+32 7.9451005e+32)
(-6.2449473e+33 1.2944598e+32 7.7838357e+32)
(-4.8520432e+33 1.3842858e+32 7.1819507e+32)
(-4.8460807e+33 7.9141882e+31 6.9161052e+32)
(-6.2437606e+33 1.5729798e+32 7.6537449e+32)
(-6.2078806e+33 1.0533169e+32 7.6372654e+32)
(-9.5595198e+33 1.1665062e+32 -8.9194164e+32)
(-6.5333038e+33 1.6461106e+32 -2.3088328e+32)
(-6.5033862e+33 1.536247e+32 -2.2439833e+32)
(-6.6204241e+33 1.6675142e+32 -1.9933751e+32)
(-6.5870601e+33 1.4760912e+32 -1.9125393e+32)
(-6.5133518e+33 1.733746e+32 -2.5729614e+32)
(-6.6048698e+33 1.7667503e+32 -2.2239025e+32)
(-6.4939739e+33 1.7755505e+32 -2.5573806e+32)
(-6.5822127e+33 1.7050582e+32 -2.2078529e+32)
(-6.4795067e+33 1.6576354e+32 -2.0406984e+32)
(-6.6256519e+33 1.7117419e+32 -1.4357055e+32)
(-6.4519893e+33 1.4640461e+32 -1.9629022e+32)
(-6.5880978e+33 1.4025574e+32 -1.3645058e+32)
(-6.4597649e+33 1.7378285e+32 -2.276303e+32)
(-6.6080851e+33 1.8110691e+32 -1.6507975e+32)
(-6.4410183e+33 1.6874928e+32 -2.2545156e+32)
(-6.5876794e+33 1.6130368e+32 -1.6340275e+32)
(-5.5971655e+33 1.387314e+32 -1.9437701e+32)
(-5.6181317e+33 1.2951897e+32 -1.9920191e+32)
(-5.5277965e+33 1.4378518e+32 -2.0325649e+32)
(-5.6367688e+33 1.4270103e+32 -2.0114431e+32)
(-5.5085816e+33 1.2544381e+32 -2.0225461e+32)
(-5.5435566e+33 1.4122519e+32 -2.0084134e+32)
(-5.6741814e+33 1.4342175e+32 -1.7762119e+32)
(-5.5173882e+33 1.2785093e+32 -1.9987612e+32)
(-5.5251911e+33 1.3172765e+32 -2.1068515e+32)
(-5.6328368e+33 1.2968545e+32 -2.0813051e+32)
(-6.6134706e+33 1.6863852e+32 -2.4274458e+32)
(-6.6811525e+33 1.6987586e+32 -2.0807316e+32)
(-6.5875973e+33 1.5913877e+32 -2.3674334e+32)
(-6.6467559e+33 1.5429419e+32 -2.0157575e+32)
(-6.595335e+33 1.7688653e+32 -2.7235868e+32)
(-6.6644851e+33 1.7832941e+32 -2.3483801e+32)
(-6.5733049e+33 1.8564695e+32 -2.7432704e+32)
(-6.6416713e+33 1.7672056e+32 -2.3382248e+32)
(-6.8101473e+33 1.8273627e+32 -2.6781876e+32)
(-6.7851753e+33 1.8446389e+32 -2.6979491e+32)
(-6.872192e+33 1.8456861e+32 -3.4150064e+32)
(-6.8435022e+33 1.9001413e+32 -3.4841558e+32)
(-8.0138644e+33 1.7985482e+32 -3.3482944e+32)
(-6.8258792e+33 1.7484718e+32 -2.3818884e+32)
(-6.7957025e+33 1.5772042e+32 -2.3330234e+32)
(-6.8657865e+33 1.6137894e+32 -3.0996019e+32)
(-6.8918448e+33 1.7682015e+32 -3.1136415e+32)
(-8.0310888e+33 1.7281183e+32 -2.873551e+32)
(-7.9469163e+33 1.8334734e+32 -4.0232616e+32)
(-7.9443104e+33 1.9369467e+32 -3.7217402e+32)
(-5.5178365e+33 1.2421073e+32 -2.0796954e+32)
(-5.3700058e+33 1.4339288e+32 -2.1553612e+32)
(-5.5297307e+33 1.4517177e+32 -2.0915122e+32)
(-5.3609461e+33 1.1876082e+32 -2.1433429e+32)
(-5.4366561e+33 1.4547801e+32 -2.0625381e+32)
(-5.6031131e+33 1.4839342e+32 -1.8137246e+32)
(-5.5878917e+33 1.2294565e+32 -1.7985442e+32)
(-5.4219986e+33 1.2223217e+32 -2.0561707e+32)
(-5.5132048e+33 1.0962135e+32 -2.1405059e+32)
(-5.3710067e+33 1.3506893e+32 -2.2377392e+32)
(-5.5323407e+33 1.3535446e+32 -2.1641556e+32)
(-5.3591946e+33 1.0421666e+32 -2.222921e+32)
(-5.4362411e+33 1.3578734e+32 -2.1485195e+32)
(-5.6019454e+33 1.3719229e+32 -1.8833784e+32)
(-5.4114507e+33 1.0705664e+32 -2.1332837e+32)
(-5.57271e+33 1.0837666e+32 -1.8664922e+32)
(-5.2933896e+33 1.3573969e+32 -1.9833207e+32)
(-5.2936476e+33 1.1179399e+32 -1.9794233e+32)
(-5.4536137e+33 1.4402775e+32 -1.9186238e+32)
(-5.4447807e+33 1.1831988e+32 -1.9110902e+32)
(-5.4590305e+33 1.3340639e+32 -2.0120589e+32)
(-5.4467948e+33 1.0260838e+32 -1.9932586e+32)
(-5.2978191e+33 1.2294597e+32 -2.1130058e+32)
(-5.2978668e+33 9.5333524e+31 -2.1112132e+32)
(-5.4834497e+33 1.2609365e+32 -1.9963397e+32)
(-7.0343573e+33 1.6505186e+32 -2.9324586e+32)
(-6.9764633e+33 1.4172032e+32 -3.2335503e+32)
(-6.9969495e+33 1.6516925e+32 -3.2239936e+32)
(-7.0153323e+33 1.389167e+32 -2.9283705e+32)
(-5.4906452e+33 1.068226e+32 -2.1236972e+32)
(-7.0086538e+33 1.4529655e+32 -4.0105489e+32)
(-7.0584245e+33 1.4106141e+32 -3.9866341e+32)
(-7.0807993e+33 1.4547066e+32 -3.688321e+32)
(-7.0230576e+33 1.4300543e+32 -3.7635992e+32)
(-7.0897009e+33 1.5353182e+32 -3.4967285e+32)
(-7.1119315e+33 1.7209856e+32 -3.4768975e+32)
(-7.1261895e+33 1.7060353e+32 -3.3101639e+32)
(-7.1071952e+33 1.4721579e+32 -3.3041393e+32)
(-6.534458e+33 1.8070114e+32 -2.6134873e+32)
(-6.4871319e+33 1.8403673e+32 -2.6359368e+32)
(-6.6247437e+33 1.8466642e+32 -2.2679865e+32)
(-6.5730645e+33 1.7759173e+32 -2.2696861e+32)
(-6.52487e+33 1.9440072e+32 -2.5387378e+32)
(-6.6175261e+33 1.9848221e+32 -2.216251e+32)
(-6.5158109e+33 1.9088941e+32 -2.5556423e+32)
(-6.6002851e+33 1.8644486e+32 -2.2280853e+32)
(-6.4722664e+33 1.9254969e+32 -2.2578397e+32)
(-6.6209799e+33 2.0100491e+32 -1.6589418e+32)
(-6.4578587e+33 1.8289748e+32 -2.2745817e+32)
(-6.6024996e+33 1.7713919e+32 -1.6731705e+32)
(-6.4761966e+33 1.813155e+32 -2.3317242e+32)
(-6.6251976e+33 1.881255e+32 -1.7210934e+32)
(-6.432475e+33 1.7573375e+32 -2.3269491e+32)
(-6.5741687e+33 1.6885249e+32 -1.7096034e+32)
(-6.613182e+33 1.8131176e+32 -2.7812079e+32)
(-6.6878051e+33 1.8688115e+32 -2.383794e+32)
(-6.5708937e+33 1.89955e+32 -2.8264351e+32)
(-6.6346059e+33 1.8453721e+32 -2.4140742e+32)
(-6.832036e+33 1.8814712e+32 -2.7448638e+32)
(-6.7821677e+33 1.8927248e+32 -2.7897775e+32)
(-6.8450432e+33 1.9355182e+32 -3.5829629e+32)
(-6.8955374e+33 1.8820177e+32 -3.4828319e+32)
(-8.0480826e+33 2.1294684e+32 -3.4960143e+32)
(-6.828198e+33 2.0358621e+32 -2.5695824e+32)
(-6.8111814e+33 1.9539277e+32 -2.6189594e+32)
(-6.8673706e+33 1.9999235e+32 -3.4102995e+32)
(-6.8764418e+33 2.0549752e+32 -3.3638404e+32)
(-8.0414881e+33 2.0913588e+32 -3.3901181e+32)
(-6.6041547e+33 1.9697044e+32 -2.6464642e+32)
(-6.6793802e+33 1.9979774e+32 -2.3230953e+32)
(-6.5932159e+33 1.9572188e+32 -2.6851233e+32)
(-6.664149e+33 1.902335e+32 -2.3396152e+32)
(-7.9657043e+33 1.9751653e+32 -4.2186335e+32)
(-7.9787731e+33 2.3265112e+32 -4.4015883e+32)
(-8.1072297e+33 2.6068476e+32 -5.2424384e+32)
(-8.078194e+33 1.9960357e+32 -5.0192366e+32)
(-8.129432e+33 2.0426236e+32 -4.1917073e+32)
(-8.1492082e+33 2.3987612e+32 -4.4045872e+32)
(-8.0838136e+33 1.8677481e+32 -4.8047264e+32)
(-8.0832365e+33 1.8471469e+32 -4.2273327e+32)
(-8.1048119e+33 1.8275487e+32 -3.7899616e+32)
(-8.085608e+33 1.9509394e+32 -4.6253464e+32)
(-7.3870717e+33 1.8192203e+32 -3.6588692e+32)
(-7.3671885e+33 1.8282691e+32 -4.0585295e+32)
(-7.3423513e+33 1.9955676e+32 -4.0543522e+32)
(-7.3549804e+33 1.857519e+32 -3.7280128e+32)
(-7.3026011e+33 1.8012706e+32 -4.4417608e+32)
(-7.3567418e+33 1.4566902e+32 -4.4037081e+32)
(-7.324483e+33 1.5024893e+32 -4.3893928e+32)
(-7.2739419e+33 1.7084876e+32 -4.3842449e+32)
(-7.1882365e+33 1.7196944e+32 -3.7635924e+32)
(-7.2039048e+33 1.7522394e+32 -3.7443335e+32)
(-7.2478924e+33 1.7470761e+32 -3.4393031e+32)
(-7.2223187e+33 1.6004966e+32 -3.4927696e+32)
(-7.1945223e+33 1.4775689e+32 -3.9971024e+32)
(-7.1752546e+33 1.4295001e+32 -4.2579503e+32)
(-7.1233533e+33 1.5838931e+32 -4.2729735e+32)
(-7.1411944e+33 1.5144796e+32 -4.0063741e+32)
(-8.6976609e+33 2.395693e+32 -4.2488938e+32)
(-8.8205186e+33 2.2704075e+32 -3.4926444e+32)
(-8.2761906e+33 2.0739754e+32 -5.7294398e+32)
(-8.9438854e+33 1.9747366e+32 -3.7308305e+32)
(-7.7972201e+33 2.5436123e+32 -3.478938e+32)
(-7.8261401e+33 2.2752468e+32 -2.8457846e+32)
(-7.6770744e+33 2.127073e+32 -2.7021421e+32)
(-6.8203882e+33 1.7136382e+32 4.437602e+32)
(-6.8125282e+33 9.5435411e+31 4.3989263e+32)
(-7.1027851e+33 1.8562026e+32 7.0690498e+32)
(-7.0914948e+33 8.845312e+31 7.0054508e+32)
(-6.7501919e+33 1.7426001e+32 7.755697e+31)
(-6.7074856e+33 1.2693894e+32 8.313033e+31)
(-6.994167e+33 1.7083765e+32 2.88665e+32)
(-6.9502359e+33 1.028095e+32 2.9868913e+32)
(-6.7293405e+33 1.691776e+32 8.6243926e+31)
(-6.9951556e+33 1.7585159e+32 3.0333268e+32)
(-6.7264938e+33 1.2834549e+32 8.5958223e+31)
(-6.9793347e+33 1.1235224e+32 3.0006974e+32)
(-6.8231663e+33 1.7524466e+32 4.2615538e+32)
(-7.1056078e+33 1.6754132e+32 6.7887331e+32)
(-6.7906289e+33 9.5777397e+31 4.4084161e+32)
(-7.060501e+33 7.6259122e+31 6.934568e+32)
(-6.5441438e+33 1.7687516e+32 -1.4398736e+32)
(-6.7963752e+33 1.8779297e+32 3.7701436e+30)
(-6.5254378e+33 1.6487502e+32 -1.4271969e+32)
(-6.7753288e+33 1.5592523e+32 3.5406544e+30)
(-6.463168e+33 1.9056137e+32 -2.1368971e+32)
(-6.4197741e+33 1.8506759e+32 -2.1331018e+32)
(-6.6224469e+33 1.9309513e+32 -1.579905e+32)
(-6.575967e+33 1.7703036e+32 -1.5453987e+32)
(-6.4614522e+33 1.8050503e+32 -2.1946647e+32)
(-6.6267005e+33 1.8376966e+32 -1.638447e+32)
(-6.4458452e+33 1.7780426e+32 -2.1730386e+32)
(-6.6055273e+33 1.7162282e+32 -1.6247508e+32)
(-6.539199e+33 1.9133222e+32 -1.380515e+32)
(-6.7819877e+33 1.971045e+32 4.7119545e+30)
(-6.5030211e+33 1.72536e+32 -1.3378011e+32)
(-6.7396305e+33 1.6093533e+32 1.0146253e+31)
(-6.5376321e+33 1.631992e+32 -1.2899436e+32)
(-6.5355172e+33 1.4869249e+32 -1.2680402e+32)
(-6.8035659e+33 1.7513707e+32 2.314458e+31)
(-6.7894444e+33 1.3875038e+32 2.2080235e+31)
(-6.4871791e+33 1.7776444e+32 -2.0227675e+32)
(-6.6583167e+33 1.7605519e+32 -1.4416787e+32)
(-6.4377466e+33 1.6642321e+32 -2.0308862e+32)
(-6.6034827e+33 1.544419e+32 -1.4337747e+32)
(-6.4470891e+33 1.7377541e+32 -2.013418e+32)
(-6.6290406e+33 1.734359e+32 -1.4208114e+32)
(-6.4502544e+33 1.6665215e+32 -1.9762456e+32)
(-6.6165675e+33 1.5759341e+32 -1.4140089e+32)