/*--------------------------------*- C++ -*----------------------------------*\
  =========                 |
  \\      /  F ield         | OpenFOAM: The Open Source CFD Toolbox
   \\    /   O peration     | Website:  https://openfoam.org
    \\  /    A nd           | Version:  7
     \\/     M anipulation  |
\*---------------------------------------------------------------------------*/
FoamFile
{
    version     2.0;
    format      ascii;
    class       volScalarField;
    location    "8000";
    object      k;
}
// * * * * * * * * * * * * * * * * * * * * * * * * * * * * * * * * * * * * * //

dimensions      [0 2 -2 0 0 0 0];

internalField   nonuniform List<scalar> 
34378
(
1.5247484
1.5194453
1.5236265
1.5223084
1.5258247
1.5234663
1.5251654
1.5185041
1.5199426
1.5183584
1.5194936
1.5192059
1.5225312
1.5227363
1.5240967
1.5239831
1.5212373
1.520582
1.5224318
1.5229643
1.5227364
1.5240342
1.5253289
1.5247165
1.5283638
1.5237384
1.5237738
1.5236297
1.5222999
1.5217407
1.5187737
1.5180202
1.518197
1.5197138
1.5189601
1.5193985
1.5181193
1.5181545
1.5185458
1.5186763
1.5186223
1.5188187
1.5193888
1.5184183
1.5195814
1.5194778
1.5178958
1.5216831
1.5219419
1.5205176
1.5229278
1.5227896
1.5220122
1.5220431
1.5230571
1.5230669
1.5215707
1.5210722
1.5198765
1.5197425
1.5208103
1.5197275
1.5207751
1.5220848
1.5220518
1.5230868
1.5230465
1.5216251
1.5218078
1.5222213
1.5237317
1.523839
1.5234975
1.5233494
1.5234769
1.5233166
1.5234406
1.5235838
1.524928
1.5235483
1.5234188
1.5246604
1.5242138
1.5239962
1.529407
1.5299973
1.5296197
1.5290923
1.5234698
1.5237945
1.5228473
1.5228878
1.5228583
1.5228566
1.5227338
1.5225604
1.52125
1.5206818
1.5205059
1.5204644
1.5178282
1.5176923
1.5188524
1.5181319
1.5183499
1.5189247
1.5189829
1.5198261
1.5198419
1.5189709
1.5189327
1.5189929
1.5189416
1.5182285
1.5202875
1.5200312
1.5183366
1.5181894
1.5182036
1.5185862
1.518738
1.5178666
1.5186773
1.51859
1.5185467
1.5187106
1.5188367
1.5188142
1.518854
1.5188202
1.5185036
1.5187133
1.5193997
1.518257
1.5196468
1.517801
1.5176053
1.5188042
1.5188423
1.5197358
1.5197161
1.5178277
1.5203084
1.5204378
1.5181242
1.5171318
1.5174623
1.5176487
1.5174081
1.5200885
1.520912
1.5211719
1.5220645
1.5219378
1.5213172
1.5213551
1.5222491
1.5222435
1.5196084
1.5204688
1.5208328
1.5213724
1.5213754
1.5223301
1.5223288
1.5214131
1.5214354
1.522349
1.5223605
1.5192638
1.5193221
1.5200411
1.5200862
1.5192153
1.5192086
1.5199585
1.5199939
1.519941
1.5192127
1.5192187
1.5199306
1.5214869
1.5214666
1.5223851
1.5223973
1.5214472
1.5214509
1.522343
1.5223702
1.5206949
1.5208772
1.5204082
1.5202042
1.5201603
1.5202043
1.5205488
1.5204938
1.5203383
1.5207352
1.5212117
1.5208849
1.5226401
1.5225484
1.5223564
1.5227874
1.5226636
1.5226602
1.5229032
1.5229137
1.5227376
1.5226332
1.5226355
1.5227319
1.5224558
1.5225336
1.5223323
1.5226218
1.5224532
1.5225605
1.5223523
1.5226285
1.5226603
1.5224769
1.5224339
1.5226432
1.5234462
1.5227337
1.5227271
1.5227564
1.5235235
1.5227549
1.5226589
1.5226542
1.5227324
1.5227259
1.5233387
1.5232507
1.5227634
1.5226647
1.5226939
1.5227269
1.5227437
1.5227681
1.5227613
1.5227926
1.5234926
1.523179
1.5233118
1.5230179
1.5232826
1.5233599
1.5243759
1.5233524
1.5234151
1.5235002
1.5233831
1.5241483
1.5233764
1.5233164
1.523091
1.5231204
1.5227704
1.5226369
1.5226705
1.5227315
1.5229357
1.5226638
1.5227012
1.5228938
1.5222208
1.5221949
1.5222332
1.5222448
1.5221678
1.5221713
1.522205
1.5221982
1.522095
1.5221053
1.5217625
1.5219209
1.5206627
1.5202412
1.5198574
1.5199075
1.5197946
1.5198307
1.5197774
1.5197724
1.5216021
1.5209792
1.5177592
1.5176834
1.518909
1.5190023
1.5189625
1.5181174
1.5183228
1.5189164
1.5189271
1.5189036
1.5189225
1.5189571
1.518976
1.5189451
1.5189725
1.5190205
1.5190387
1.5199141
1.5199233
1.5199185
1.519927
1.5190616
1.5190797
1.5189887
1.5189451
1.51792
1.5199894
1.5197495
1.5180807
1.5181654
1.5181525
1.5186209
1.5185995
1.5187076
1.5187847
1.5188402
1.5188655
1.5177407
1.5178868
1.5177498
1.5175002
1.5185465
1.5187163
1.5188552
1.5188229
1.5177012
1.5184454
1.518561
1.5183795
1.5185767
1.5186989
1.5187191
1.5186959
1.5187279
1.5184625
1.5187086
1.5192972
1.5196059
1.5183893
1.5173989
1.5179941
1.5188236
1.5197326
1.5197637
1.5188548
1.5172303
1.5172757
1.5177595
1.5178077
1.5175898
1.5175699
1.5173684
1.5173328
1.5187968
1.5188049
1.5187871
1.5188008
1.5188286
1.5188427
1.5188188
1.5188408
1.5189375
1.5189533
1.5198301
1.5198438
1.5189089
1.5198012
1.518918
1.5197887
1.5175158
1.5198909
1.5200378
1.5177911
1.5171845
1.5170539
1.5170199
1.516787
1.5174512
1.5174313
1.5172357
1.5171956
1.5170986
1.5176709
1.5171451
1.5176953
1.5166785
1.5173586
1.5169664
1.5175808
1.5193596
1.5197276
1.5203915
1.5201371
1.5200156
1.5198155
1.5213987
1.5214758
1.5202814
1.5201882
1.5216561
1.5216776
1.5203559
1.5203464
1.5218272
1.521833
1.5204305
1.5203948
1.5218576
1.5218557
1.5190678
1.5191222
1.5198353
1.5197932
1.5203895
1.5204132
1.5218875
1.5218846
1.5203729
1.5204007
1.5218965
1.5218951
1.5204258
1.5204339
1.5219341
1.5219295
1.5205162
1.5204586
1.5219397
1.5219401
1.5188174
1.5188245
1.519475
1.5194788
1.5188448
1.5188847
1.519539
1.5195178
1.5192769
1.5187028
1.5187567
1.5194643
1.519467
1.5187589
1.5187662
1.5194305
1.5194461
1.5187786
1.5194293
1.5187769
1.5194255
1.5187896
1.5187993
1.5194287
1.5194369
1.5205262
1.5205622
1.5219815
1.5219877
1.5205176
1.5204967
1.5219789
1.5219695
1.5204964
1.5219606
1.5219505
1.5204797
1.5205013
1.5205462
1.5219382
1.5219464
1.5235463
1.5195909
1.5206964
1.520488
1.5198749
1.5202888
1.51996
1.5203396
1.5203139
1.5198921
1.5200157
1.5203957
1.5196697
1.5196191
1.5197052
1.5195739
1.5196286
1.5196714
1.5196399
1.5195508
1.5196278
1.5195438
1.5195644
1.5196924
1.5196517
1.5196148
1.5196509
1.5198577
1.5198168
1.5195994
1.519805
1.5195946
1.519791
1.5196082
1.5197121
1.5197493
1.5196552
1.5196632
1.519897
1.5197125
1.5199321
1.5204561
1.5200297
1.5202885
1.520652
1.5203724
1.520089
1.5199479
1.5204676
1.5204841
1.520373
1.5215868
1.5218251
1.5217612
1.5219597
1.5218328
1.52184
1.5219725
1.521974
1.5214847
1.5216469
1.5216686
1.5217964
1.5219354
1.5221354
1.5219448
1.5221371
1.5219247
1.5219135
1.5220711
1.5220565
1.5218798
1.5220316
1.5218853
1.5220311
1.5220354
1.5220274
1.5222427
1.5222293
1.5222084
1.5219933
1.5219983
1.5222068
1.5217722
1.5219324
1.5217779
1.5219307
1.5217239
1.5217283
1.5218398
1.5218375
1.5217671
1.5217515
1.521881
1.5218591
1.5218185
1.5218051
1.521974
1.5219543
1.5213805
1.5215567
1.5215699
1.5217131
1.5216851
1.5216913
1.5217964
1.5217938
1.5213387
1.5214646
1.5215278
1.5216257
1.5217335
1.5217398
1.5218835
1.5218811
1.5212983
1.5214357
1.5214882
1.5215966
1.5216731
1.5216837
1.5217397
1.5217386
1.52133
1.5214095
1.5215216
1.5215735
1.5216461
1.5216536
1.5217638
1.5217599
1.5217654
1.5217962
1.521782
1.5217985
1.5214168
1.5214669
1.5216143
1.5216346
1.5215964
1.5217711
1.5225345
1.5216992
1.5218913
1.5219328
1.5219439
1.5227137
1.5220682
1.522046
1.5226408
1.5224465
1.5220043
1.5219834
1.5227989
1.5221003
1.5221157
1.5219678
1.5219669
1.522799
1.5220827
1.5220781
1.5218008
1.5218345
1.5218053
1.5218308
1.5227197
1.5227272
1.5218384
1.521871
1.5218234
1.5218466
1.5217505
1.521819
1.5217334
1.5217941
1.5217119
1.5217808
1.5217149
1.5217765
1.5216844
1.5218054
1.5216876
1.5218012
1.5217255
1.5218448
1.5217088
1.5218198
1.5227473
1.5227431
1.5227748
1.5227761
1.5226697
1.5225132
1.5225402
1.5226973
1.5217581
1.5218798
1.5217489
1.5218633
1.5217717
1.5217415
1.5218388
1.5218012
1.5217832
1.5218531
1.521774
1.5218371
1.5217469
1.5217155
1.5218647
1.521826
1.5220212
1.5219889
1.5228105
1.5221006
1.5221281
1.5220365
1.5220222
1.5228364
1.5221347
1.5221448
1.5218592
1.5218921
1.5218318
1.5218559
1.5218715
1.5219054
1.5218625
1.5218897
1.5227654
1.5227482
1.5224282
1.5220083
1.5227103
1.5221176
1.522664
1.5223666
1.5228157
1.5227868
1.5227746
1.5227967
1.522423
1.5226995
1.5227053
1.5224295
1.522778
1.5228199
1.5227415
1.5228554
1.5233626
1.5226211
1.5227278
1.5226244
1.5227396
1.5231753
1.5232065
1.5233955
1.5228816
1.5228872
1.5229141
1.5229178
1.5227966
1.5227961
1.5228099
1.522807
1.5232267
1.5231042
1.5231632
1.5233628
1.5231745
1.5230205
1.5228294
1.5228193
1.5228283
1.522844
1.5229016
1.5229184
1.5229132
1.5228887
1.5228095
1.5228365
1.522654
1.5226026
1.5227481
1.5227455
1.5225078
1.5224969
1.5218575
1.5218475
1.5220146
1.5219983
1.5217901
1.5217578
1.5219022
1.5218652
1.5218044
1.5219201
1.5217944
1.5219041
1.5218415
1.5218104
1.5219939
1.5219581
1.5220781
1.5222817
1.5220678
1.5222668
1.5219476
1.5220905
1.5219174
1.5220594
1.5219675
1.5221145
1.5219563
1.5220998
1.5220566
1.5220297
1.5222561
1.5222264
1.5218757
1.5218637
1.5218613
1.5218571
1.5218941
1.5218862
1.5219039
1.5218961
1.5217983
1.5217934
1.5218084
1.5218063
1.5218469
1.5218413
1.5218582
1.5218534
1.5217438
1.5217498
1.5217752
1.5217769
1.5202797
1.5213032
1.5213906
1.5215744
1.5216017
1.5199838
1.5196607
1.519709
1.5193572
1.5193642
1.5193981
1.5194251
1.5193314
1.5193187
1.5201304
1.5193463
1.5193488
1.5193155
1.5193168
1.5193257
1.5193215
1.5216305
1.5210745
1.5176672
1.5182663
1.5182316
1.517615
1.5185008
1.5182509
1.5189925
1.5189607
1.5189551
1.5189798
1.518903
1.5189183
1.5188979
1.5188966
1.5189086
1.5189021
1.518917
1.5189195
1.5189231
1.5189273
1.5189405
1.5189638
1.5189417
1.5189371
1.5189456
1.5189396
1.518957
1.5189676
1.5189596
1.5189759
1.5189186
1.5189042
1.5189182
1.518937
1.5189369
1.518932
1.5189541
1.51895
1.5192049
1.5197184
1.5197272
1.5192036
1.5197491
1.5191894
1.5191996
1.5197331
1.519218
1.5192265
1.5197305
1.5197269
1.5197497
1.5192398
1.5192533
1.5197797
1.5189548
1.51895
1.5189726
1.5189674
1.5189855
1.5189672
1.5190035
1.5189824
1.5190013
1.5189845
1.5189511
1.5189739
1.5189591
1.5189529
1.5189186
1.5189305
1.517662
1.517424
1.517446
1.519982
1.5197868
1.5178664
1.5175966
1.5177795
1.5187037
1.5186074
1.5186594
1.5186114
1.5187355
1.5188586
1.5188372
1.5188238
1.5188554
1.5188808
1.5176805
1.5174382
1.5185969
1.5185291
1.518441
1.5185825
1.5183987
1.5185758
1.5187293
1.5187129
1.5186982
1.5187235
1.5186928
1.5187207
1.5188685
1.5188572
1.5188265
1.5188445
1.5188145
1.5188343
1.5188365
1.518831
1.5187978
1.5188077
1.5187844
1.518796
1.5175505
1.5177033
1.5174801
1.5177189
1.5183968
1.5183382
1.5182936
1.5184075
1.5185688
1.5185674
1.5185894
1.5186084
1.5186952
1.5186898
1.5187093
1.5186973
1.5187211
1.5187283
1.5187302
1.5187414
1.5178351
1.5182711
1.5184193
1.5184386
1.5182591
1.5185741
1.5186244
1.5186479
1.5185863
1.5185172
1.5189498
1.5184487
1.5186747
1.519198
1.5193678
1.5188375
1.5189079
1.5194603
1.5175491
1.5181645
1.5173462
1.5173742
1.5172965
1.5173397
1.5174088
1.5173614
1.5179509
1.5179879
1.5187037
1.5187222
1.5187428
1.518719
1.5195246
1.5189772
1.5190069
1.5195514
1.5195832
1.5190343
1.5190366
1.5196
1.5187543
1.5187413
1.518775
1.5187598
1.5172084
1.5172182
1.5171695
1.5171884
1.5172425
1.5172555
1.5172079
1.5172284
1.5172319
1.5177896
1.5172535
1.5178006
1.5172761
1.5172933
1.5178269
1.5178423
1.5173134
1.5172822
1.5187846
1.5187807
1.5187852
1.5187931
1.518803
1.5187956
1.5187973
1.5188056
1.5188165
1.5188114
1.5188215
1.5188143
1.5188301
1.5188381
1.518835
1.5188478
1.5188317
1.5188255
1.5188426
1.5188509
1.5188588
1.5188441
1.5188625
1.5188796
1.5196315
1.5190989
1.5191094
1.5196361
1.5191453
1.5191288
1.519663
1.5197029
1.5188036
1.5187936
1.5188093
1.5188227
1.5196038
1.5190605
1.5190772
1.5196032
1.518816
1.5188131
1.5188327
1.5188352
1.5190805
1.5190885
1.5195945
1.5196024
1.5172712
1.516908
1.5170633
1.5199728
1.5200586
1.5175289
1.5172849
1.5173117
1.5169821
1.5167481
1.5171851
1.5171467
1.5170764
1.5170414
1.5170862
1.5170593
1.5171141
1.5177091
1.5171318
1.517712
1.517116
1.5171304
1.5170818
1.5171053
1.517742
1.5177467
1.5171573
1.5171752
1.5165683
1.5165916
1.5167493
1.5167603
1.5164907
1.5165403
1.5168568
1.5172785
1.5175274
1.516915
1.5169601
1.5169335
1.5169623
1.5170007
1.5176301
1.5170432
1.5176527
1.5190625
1.5185869
1.5185132
1.5197423
1.5197768
1.519108
1.5188093
1.5199998
1.5201628
1.5198727
1.5196661
1.5201487
1.5200501
1.5202173
1.5202058
1.520298
1.5202564
1.518335
1.518341
1.5194414
1.5194479
1.5183883
1.5183417
1.5194881
1.5195146
1.5202518
1.5202752
1.520235
1.5202651
1.5202857
1.520294
1.5203804
1.5203192
1.5181508
1.5181642
1.5191621
1.5191605
1.5181461
1.5181592
1.5191733
1.5191721
1.518164
1.5181653
1.5191975
1.5191973
1.5182281
1.5181787
1.51922
1.519243
1.518581
1.5186683
1.5196745
1.5196491
1.5179094
1.5178366
1.5191452
1.519142
1.5180258
1.5179762
1.5191569
1.519153
1.5180412
1.5180401
1.519138
1.5191339
1.5180829
1.5180573
1.519134
1.5191296
1.5181114
1.5180996
1.5191292
1.5191315
1.5180888
1.5180991
1.5191339
1.5191305
1.5181119
1.5181176
1.5191426
1.5191396
1.5181561
1.5181279
1.5191455
1.5191435
1.5203901
1.5204231
1.5203851
1.520361
1.5203608
1.5203454
1.5203677
1.5204182
1.5189514
1.5189469
1.5190361
1.5190233
1.5202137
1.5198083
1.5199258
1.5203003
1.52015
1.5198537
1.520212
1.5193662
1.5193926
1.5194528
1.5194205
1.5196348
1.5199385
1.5200139
1.5196839
1.5192642
1.5193078
1.5192977
1.5193324
1.5195193
1.5195744
1.5198498
1.5198667
1.5194884
1.5198095
1.519569
1.5198568
1.5192312
1.5192899
1.5192642
1.519316
1.5192288
1.519331
1.5192646
1.5193583
1.5195006
1.5196176
1.5198202
1.5199011
1.5189783
1.5190647
1.5189919
1.5190707
1.5190311
1.5190794
1.5190487
1.5190887
1.5190235
1.5191093
1.5190405
1.5191174
1.5189897
1.5190358
1.5190023
1.5190424
1.5191837
1.5192473
1.5190685
1.5190731
1.5191028
1.5190938
1.5191135
1.5190237
1.5190251
1.5191334
1.5191284
1.5189822
1.5189831
1.5190616
1.5190567
1.5190361
1.5191434
1.5190295
1.5191306
1.5189928
1.5189861
1.5190715
1.5190587
1.5190669
1.5189699
1.5190459
1.5190776
1.519024
1.5191445
1.5190432
1.5191523
1.519029
1.5191414
1.5190137
1.5191202
1.519113
1.5192179
1.5190977
1.5191999
1.5191132
1.5192268
1.5191277
1.5192317
1.5192057
1.5193679
1.519215
1.5193665
1.5191982
1.5193521
1.519185
1.5193341
1.519105
1.519207
1.5191054
1.5192029
1.5191869
1.5191873
1.5193323
1.5193381
1.519117
1.5192167
1.5191101
1.5192067
1.5191981
1.5193454
1.5191931
1.5193356
1.5190169
1.5190299
1.5190968
1.519103
1.5190573
1.5190699
1.5191702
1.5191751
1.5191022
1.5191202
1.5192138
1.5192242
1.5190621
1.5191424
1.5190786
1.5191519
1.519139
1.51915
1.5192445
1.5192492
1.5192218
1.5193827
1.5192317
1.5193845
1.5191825
1.5192881
1.5192022
1.5193028
1.5194237
1.5192651
1.5192891
1.5194401
1.5197256
1.5198685
1.5200325
1.5201343
1.5194204
1.5195407
1.5194647
1.5195772
1.5195121
1.5196935
1.5195599
1.5197297
1.5198346
1.5200215
1.5201374
1.5202776
1.5195596
1.5196743
1.5198755
1.5199555
1.5193255
1.5193676
1.5194582
1.519491
1.5192785
1.5193709
1.5193166
1.5194019
1.5196246
1.5197692
1.5199395
1.5200439
1.5203668
1.5200939
1.5201522
1.5200997
1.5198657
1.5201148
1.5198641
1.5213276
1.521152
1.5212445
1.5212546
1.5212209
1.5213561
1.5214301
1.5213176
1.5214747
1.5215426
1.5214499
1.5215226
1.5215122
1.5216144
1.5215379
1.5216342
1.5214225
1.5215126
1.5215205
1.5214338
1.5214525
1.5214588
1.5215458
1.5215383
1.5216222
1.5215037
1.5216142
1.5215161
1.5215363
1.5216399
1.5215405
1.5216466
1.5211678
1.5209751
1.521075
1.5210869
1.5210507
1.5211796
1.5212664
1.5211586
1.5213862
1.5212837
1.5213679
1.521307
1.5213586
1.5214612
1.5213833
1.5214796
1.5216055
1.5216841
1.5216925
1.5216176
1.5217821
1.5216753
1.5216866
1.5217862
1.5216411
1.5216373
1.5217164
1.5217117
1.5218109
1.5217078
1.5218078
1.5217102
1.5215062
1.5215991
1.5215964
1.5215055
1.5215134
1.521513
1.5216043
1.5216017
1.5217039
1.5215913
1.521706
1.5215922
1.5215998
1.5217084
1.5215989
1.5217114
1.5215414
1.5214475
1.5215429
1.5214484
1.5215351
1.5216528
1.5216516
1.5215368
1.5215539
1.5214637
1.5215584
1.5214618
1.521552
1.5216678
1.5215514
1.5216636
1.5216988
1.5217806
1.5217794
1.5216997
1.5217062
1.5217864
1.5217064
1.5217847
1.5218838
1.5218781
1.5217733
1.5217735
1.5217814
1.5217802
1.5218881
1.5218871
1.5217201
1.5218359
1.5218307
1.5217218
1.5217286
1.5216449
1.5217289
1.5216466
1.5216608
1.5216615
1.5217441
1.5217416
1.5217371
1.5217369
1.5218452
1.5218431
1.5213435
1.5212537
1.5213456
1.5212557
1.5213276
1.5214566
1.5214536
1.5213281
1.5213547
1.5212735
1.5213634
1.5212668
1.5213449
1.5214721
1.5213416
1.521465
1.5211054
1.5212011
1.5211997
1.5211092
1.521126
1.5212213
1.521207
1.5211158
1.5211682
1.5212826
1.5212803
1.5211713
1.5211892
1.5213017
1.5212887
1.5211806
1.5211623
1.5212595
1.521253
1.521161
1.5211632
1.5211709
1.5212649
1.5212532
1.5212283
1.5213428
1.5213357
1.5212263
1.5212299
1.5212356
1.5213469
1.5213365
1.5213168
1.5214084
1.5214014
1.5213139
1.5213187
1.521323
1.5214122
1.5214058
1.521516
1.5215106
1.521392
1.5213878
1.5213969
1.5213973
1.5215203
1.5215156
1.5209927
1.5207921
1.5208929
1.5209107
1.5208652
1.5210025
1.521097
1.5209797
1.5211275
1.5212081
1.5211084
1.5211939
1.5211787
1.5212943
1.5211999
1.5213097
1.5210836
1.521181
1.5211868
1.5210951
1.5211265
1.5212186
1.5212015
1.5211128
1.5212685
1.5211496
1.5212639
1.521161
1.5212822
1.5211899
1.5212983
1.5211778
1.5208534
1.5206501
1.520753
1.5207657
1.5207085
1.5208342
1.5209342
1.5208277
1.5210663
1.5209644
1.5210567
1.5209797
1.5210274
1.5211342
1.521045
1.5211453
1.5212378
1.521329
1.521333
1.5212474
1.5212752
1.521362
1.5212637
1.5213485
1.5214334
1.5214387
1.5213127
1.5213205
1.5213385
1.5213479
1.5214655
1.5214542
1.5206981
1.5204978
1.5206115
1.5205938
1.5205612
1.5207002
1.5207937
1.5206697
1.5208082
1.5209105
1.5207995
1.5209068
1.5208721
1.5209966
1.520885
1.5210026
1.5206826
1.5208398
1.5208345
1.5206839
1.5207125
1.5207344
1.5208866
1.5208593
1.5209502
1.5207974
1.5209515
1.5208021
1.5208286
1.5209708
1.5208472
1.5209952
1.520507
1.5203009
1.5204533
1.5203582
1.5203982
1.5205531
1.5206239
1.5204767
1.5207226
1.5205822
1.5207323
1.520578
1.5206917
1.5208375
1.5206944
1.5208346
1.5209134
1.5210259
1.5210279
1.5209208
1.52096
1.5210679
1.5209431
1.5210469
1.5211183
1.5211223
1.5209886
1.520998
1.5210185
1.5210335
1.521158
1.5211379
1.5203103
1.5203017
1.5205578
1.5205396
1.5205057
1.5207283
1.5207177
1.5205127
1.5203633
1.5203428
1.5205723
1.5206076
1.520565
1.52054
1.5207771
1.5207437
1.5202159
1.5199644
1.5202017
1.5199882
1.5201462
1.5203602
1.5203914
1.5201828
1.5204388
1.5202258
1.520464
1.5202153
1.5204191
1.5206272
1.5204073
1.5206085
1.5197396
1.5197569
1.5200216
1.5200257
1.5202719
1.5202492
1.5199886
1.5199919
1.5219307
1.5217357
1.5218047
1.5219756
1.5198038
1.5200383
1.5200546
1.5200571
1.5203543
1.5203356
1.5204051
1.5203749
1.5201115
1.5201113
1.5221363
1.5220842
1.5221146
1.5221552
1.5201573
1.5201027
1.5221287
1.5220925
1.5221419
1.5221677
1.5219464
1.5217537
1.5218108
1.5219847
1.5201098
1.5201107
1.5204144
1.5203915
1.5204377
1.5204092
1.5201426
1.5201445
1.5222063
1.5221542
1.522144
1.5221887
1.5201863
1.5201534
1.5201148
1.5201142
1.5204042
1.5203824
1.5204064
1.5203761
1.5201125
1.5201117
1.5221741
1.5221227
1.5221256
1.5221728
1.5201559
1.5201585
1.5203652
1.5203516
1.5205814
1.5206038
1.5205601
1.5205478
1.5207698
1.5207528
1.5205747
1.5203682
1.5206119
1.5203465
1.5207799
1.5205689
1.5205421
1.5207475
1.5221846
1.5221364
1.5221398
1.5221836
1.5221584
1.5221631
1.5222125
1.5221998
1.5206002
1.5203771
1.520627
1.5203628
1.5208009
1.5205844
1.5205678
1.5207802
1.5206104
1.5204012
1.5206454
1.5203827
1.5208149
1.520604
1.5205804
1.5207843
1.5209004
1.5207598
1.5209165
1.520749
1.5208755
1.521029
1.5210161
1.5208679
1.5207559
1.5209028
1.5207756
1.5209283
1.5208891
1.5210383
1.5208732
1.5210163
1.5208654
1.5207268
1.5208767
1.5207199
1.5208338
1.5208313
1.5209826
1.5209759
1.5208634
1.5207383
1.5208913
1.5207163
1.5209985
1.5208498
1.520831
1.5209759
1.5210482
1.5209432
1.5210522
1.5209441
1.5211412
1.5210138
1.521016
1.5211392
1.520946
1.5210516
1.520961
1.5210707
1.5211603
1.5210335
1.521021
1.5211436
1.5210939
1.5209917
1.5211037
1.5209865
1.5211962
1.5210669
1.5210635
1.5211888
1.5209894
1.5210941
1.5210031
1.5211118
1.5212024
1.521077
1.5210666
1.5211876
1.5221451
1.5221393
1.5221974
1.5221959
1.5221249
1.5221292
1.5221821
1.5221779
1.5221889
1.5221315
1.5221309
1.5221871
1.5222115
1.5221491
1.5221507
1.5222041
1.5221067
1.5220745
1.5221288
1.5221593
1.5219425
1.5217822
1.5218335
1.5219889
1.5219391
1.5217593
1.521825
1.5219931
1.5221415
1.52208
1.5221172
1.522171
1.5211475
1.5210466
1.5211562
1.5210419
1.5211214
1.5212506
1.5212425
1.5211187
1.5210289
1.5211336
1.5210502
1.5211587
1.5211245
1.5212518
1.5211051
1.5212277
1.5208167
1.5209666
1.5209452
1.5208018
1.5207928
1.5208175
1.520962
1.5209318
1.5210553
1.5209265
1.5210743
1.5209127
1.5209013
1.5210388
1.5209225
1.5210657
1.5209572
1.5208222
1.5209743
1.520809
1.5209344
1.5210844
1.5210715
1.520926
1.5209437
1.520824
1.5209763
1.5207972
1.5209374
1.5210867
1.5209133
1.5210577
1.5210381
1.5211455
1.5211287
1.5210255
1.5210301
1.521134
1.5210111
1.5211113
1.5212359
1.5212204
1.52111
1.5210984
1.5210832
1.5210993
1.5212223
1.5212011
1.5202022
1.5202026
1.5204926
1.5204681
1.5205045
1.520474
1.5202249
1.520226
1.5222203
1.5221731
1.5221504
1.5221914
1.5202678
1.5202446
1.5201877
1.5201871
1.5204862
1.5204621
1.5204853
1.5204547
1.5201883
1.5201883
1.5222385
1.5221873
1.5221776
1.5222246
1.5202307
1.5202288
1.5204559
1.520439
1.520694
1.5206655
1.5206327
1.5208595
1.520835
1.5206523
1.5204676
1.5204461
1.5206617
1.5206988
1.5206572
1.5206306
1.5208596
1.5208239
1.5206654
1.5204491
1.5206933
1.5204331
1.5206519
1.5208649
1.5208407
1.5206339
1.5206545
1.5204484
1.5206933
1.5204261
1.5206523
1.5208655
1.5206233
1.5208282
1.5222475
1.5221976
1.5221925
1.5222369
1.5221727
1.5221916
1.5222349
1.5222102
1.5220722
1.5220468
1.5218478
1.5218893
1.5202556
1.5202556
1.520537
1.5205125
1.5222043
1.5221664
1.5221407
1.522177
1.5202977
1.522222
1.5221833
1.5221559
1.5221938
1.5218624
1.5220682
1.5220873
1.5218936
1.5222492
1.522186
1.5221859
1.5222426
1.5222365
1.5221835
1.5221832
1.5222337
1.5221747
1.5221887
1.5222384
1.52222
1.5222433
1.5221883
1.5221725
1.5222214
1.5218791
1.522076
1.5221027
1.5219113
1.522148
1.522177
1.5222259
1.5221938
1.5221501
1.5221809
1.5222286
1.5221982
1.5221005
1.5220685
1.5218651
1.5219041
1.5222712
1.5222026
1.5221346
1.5221953
1.5228785
1.5221631
1.5221545
1.5221715
1.5221791
1.522072
1.5219967
1.522
1.522076
1.522274
1.5223333
1.5229277
1.5223383
1.5222736
1.5228278
1.5228592
1.521889
1.5219905
1.5220146
1.5219087
1.5221078
1.5220924
1.5221419
1.5221257
1.5218142
1.5218643
1.5219959
1.5219472
1.522064
1.5221224
1.5221468
1.5220888
1.5228579
1.5228836
1.5229903
1.5229827
1.5229124
1.522912
1.5222218
1.522217
1.5222299
1.5222082
1.5222128
1.5222184
1.5222274
1.5222176
1.5223909
1.5223986
1.5223318
1.522318
1.5224004
1.5224004
1.5223312
1.5223251
1.5221817
1.5221506
1.5221719
1.5221422
1.5221536
1.5221855
1.5221813
1.5221466
1.5221133
1.5221209
1.522177
1.5221691
1.5221855
1.5221259
1.5221284
1.5221855
1.5189868
1.519154
1.5228642
1.5227219
1.5229799
1.5229698
1.5229068
1.5229033
1.5228946
1.5227368
1.522819
1.5226915
1.5222104
1.5222395
1.522236
1.5222079
1.5221989
1.5222129
1.5222389
1.5222226
1.5221682
1.5221814
1.5222332
1.5222162
1.5221754
1.5221786
1.5222324
1.5222283
1.5222647
1.5222814
1.5222803
1.5222671
1.5223704
1.5224208
1.5224249
1.522366
1.5224231
1.5224341
1.5223791
1.5223608
1.5222614
1.5222766
1.5222834
1.5222652
1.5222605
1.5222447
1.5222305
1.5222369
1.5223403
1.5223852
1.5223772
1.5223202
1.5221844
1.5223171
1.5222581
1.5221088
1.5221731
1.5221703
1.5220085
1.5220081
1.5222186
1.5221662
1.5221406
1.5221878
1.5222202
1.5221919
1.5221699
1.5221926
1.5219376
1.5221138
1.5221243
1.5219493
1.5221087
1.5220777
1.5218907
1.5219244
1.5213761
1.5214674
1.5214596
1.5213717
1.5213574
1.5213738
1.5214622
1.5214444
1.5215683
1.5214543
1.5215762
1.5214484
1.5214334
1.5215531
1.5214478
1.5215696
1.5212047
1.5212987
1.521284
1.5211937
1.5211918
1.5212827
1.5212642
1.5211767
1.5213652
1.5212688
1.5213804
1.5212577
1.5213453
1.5212535
1.5213626
1.5212408
1.5213076
1.5212199
1.5213151
1.5212168
1.5212864
1.5214002
1.521392
1.5212828
1.5212939
1.5212217
1.5213156
1.521203
1.5212869
1.5213982
1.5212696
1.5213772
1.5213555
1.5214444
1.5214296
1.5213436
1.5213388
1.5214257
1.5213269
1.5214122
1.5215368
1.5214285
1.5215504
1.5214158
1.5214019
1.5214105
1.5215318
1.5215195
1.5217549
1.5217545
1.5218344
1.5218325
1.5219369
1.521827
1.5219306
1.5218277
1.5217545
1.5218327
1.5218215
1.5217433
1.5219193
1.5218268
1.52193
1.521817
1.5215429
1.5216336
1.5215328
1.5216234
1.5216198
1.5216273
1.5217388
1.5217302
1.5215179
1.5216061
1.5215265
1.5216167
1.5217231
1.5216126
1.5216046
1.5217125
1.5215687
1.5215648
1.5216583
1.5216535
1.5216495
1.5217592
1.5216512
1.5217628
1.5215639
1.5216541
1.5216401
1.5215509
1.5217465
1.5216492
1.52176
1.5216377
1.5217328
1.5218122
1.5218051
1.5217265
1.5217106
1.5217192
1.5217977
1.5217882
1.5219109
1.5218057
1.5217993
1.5218998
1.5217849
1.5218954
1.5217926
1.5218868
1.5201033
1.5199182
1.5196679
1.5197056
1.5193718
1.5193781
1.5194152
1.5194467
1.5190979
1.5190952
1.5191095
1.5191083
1.5191324
1.5191316
1.5191519
1.51918
1.5190727
1.5190682
1.5190684
1.5190669
1.5195236
1.5195117
1.519075
1.5190717
1.5190894
1.5190884
1.5190709
1.5190696
1.5190691
1.5190661
1.519081
1.5190772
1.5190838
1.5190844
1.5217866
1.5194648
1.519569
1.5212674
1.5195756
1.5194101
1.517533
1.5183029
1.5181917
1.5182421
1.5183665
1.5174758
1.518649
1.5183827
1.5182293
1.5184679
1.5189833
1.5190013
1.5189592
1.518952
1.5189701
1.5189843
1.5189784
1.5189454
1.5189532
1.5189606
1.5189546
1.5188998
1.5189033
1.5188953
1.5189165
1.5189179
1.518921
1.5188995
1.5189116
1.5189257
1.5189299
1.5189353
1.5189395
1.5189366
1.5189585
1.518955
1.5189674
1.5189435
1.5189477
1.5189604
1.5189758
1.5189356
1.518907
1.5189222
1.5189571
1.5189407
1.5189359
1.5189726
1.5189697
1.5191873
1.5194383
1.5194533
1.519192
1.5194475
1.5191716
1.519185
1.5194464
1.5192055
1.5192072
1.5194569
1.5194515
1.5194769
1.5192172
1.5192458
1.5195165
1.5189581
1.5189532
1.5189912
1.5189876
1.5189861
1.5189693
1.5190167
1.5189976
1.5189471
1.518968
1.5189148
1.5189269
1.5174397
1.5174224
1.5174477
1.5173143
1.5173373
1.5177561
1.5175963
1.5176761
1.5174777
1.5176796
1.5187395
1.518721
1.5185979
1.5185133
1.5186844
1.5186188
1.5187598
1.5187339
1.518621
1.518504
1.5186028
1.5186014
1.5185268
1.5187236
1.5187418
1.5187396
1.5187244
1.5188707
1.5188577
1.5188366
1.5188304
1.5188365
1.5188874
1.5188611
1.5188533
1.5188756
1.5188244
1.5188307
1.5188378
1.5188328
1.5188509
1.5188644
1.5188703
1.5188595
1.517724
1.5176046
1.5176769
1.5174897
1.5174711
1.517682
1.5174582
1.5174382
1.5173513
1.5173196
1.5172925
1.5173266
1.5184325
1.5183846
1.5185823
1.5185802
1.5183164
1.5184023
1.51857
1.5185998
1.5186991
1.518692
1.5187239
1.518721
1.5187023
1.5186921
1.5187242
1.5187328
1.5188229
1.5188106
1.5188408
1.5188314
1.518815
1.5188112
1.5188297
1.5188398
1.5187945
1.5187817
1.5188043
1.5187942
1.5187808
1.5187867
1.5187971
1.5187991
1.5174573
1.517433
1.517411
1.5174522
1.5176003
1.5176276
1.5177202
1.5177529
1.5182855
1.5184127
1.5185744
1.5186162
1.5187
1.5187149
1.5187344
1.5187454
1.5176097
1.5175967
1.517778
1.5178193
1.5182675
1.518424
1.5184504
1.5182481
1.5185807
1.5186318
1.5186699
1.5186036
1.5182038
1.5178118
1.5180343
1.5184718
1.5186192
1.5183942
1.5186453
1.5188864
1.5190614
1.5188117
1.5189045
1.5191724
1.5174057
1.5174566
1.517473
1.5174096
1.5179244
1.5175693
1.5176467
1.5180105
1.517269
1.5172753
1.517281
1.5172799
1.5173024
1.5173084
1.5173231
1.5173222
1.5173062
1.5173297
1.5173439
1.5173174
1.5172822
1.5172722
1.5172859
1.5172986
1.5178004
1.5174497
1.517458
1.5178
1.5178104
1.5174794
1.517499
1.5178409
1.5187096
1.5187284
1.518765
1.5187389
1.5192287
1.518963
1.5189961
1.5192624
1.5192869
1.5190107
1.5190326
1.5193165
1.5187589
1.5187464
1.5187956
1.5187802
1.5171675
1.5171817
1.5171591
1.5171534
1.5171508
1.5171622
1.5171767
1.517174
1.5171765
1.517181
1.5172013
1.517218
1.517194
1.5171921
1.5171984
1.5171945
1.517208
1.5172152
1.5172098
1.5172205
1.5171711
1.5171563
1.5171687
1.5171875
1.5176575
1.5173258
1.5173459
1.5176672
1.5171905
1.5171854
1.5172013
1.517207
1.5173587
1.5173581
1.5176677
1.5176734
1.5172079
1.5172024
1.5172173
1.5172243
1.5172301
1.5172181
1.5172337
1.5172469
1.5176844
1.5173719
1.5173809
1.5176931
1.5174037
1.5173907
1.517703
1.5177342
1.5173295
1.5173197
1.5172222
1.5172386
1.5173013
1.5172961
1.5172063
1.5171943
1.5187877
1.5187965
1.5188061
1.5188084
1.5188186
1.518824
1.5188368
1.5188496
1.5188354
1.5188289
1.5188607
1.5188707
1.5188615
1.5188472
1.5188809
1.5188972
1.5193447
1.5190824
1.5190948
1.5193524
1.5191338
1.51911
1.5193717
1.5194131
1.5188081
1.5187975
1.5188276
1.5188439
1.5193199
1.5190514
1.5190682
1.5193232
1.5188199
1.5188174
1.5188548
1.5188563
1.519081
1.5190779
1.5193166
1.5193322
1.5170676
1.516934
1.517067
1.5169938
1.5168211
1.5173072
1.5172857
1.5173082
1.5171795
1.5172084
1.5169996
1.5169751
1.5169534
1.5169172
1.5169481
1.5169098
1.5168157
1.516722
1.5165768
1.5167665
1.5167591
1.5165234
1.517203
1.5171917
1.5170969
1.5171171
1.5170755
1.5170961
1.5171668
1.5171595
1.5170751
1.5170613
1.5170377
1.5170514
1.5170259
1.517026
1.5170316
1.5170369
1.5170491
1.5170451
1.5170473
1.5170526
1.517033
1.5170473
1.5170657
1.5170481
1.5172165
1.5172373
1.5175817
1.5175732
1.5170769
1.5170586
1.5170628
1.5170806
1.5175822
1.5172517
1.5172407
1.5175788
1.517067
1.5170656
1.5170726
1.5170687
1.5170857
1.5170941
1.5170874
1.5171006
1.5175983
1.5172589
1.5172675
1.5176042
1.5176157
1.5172822
1.5172903
1.5176342
1.5170822
1.5170753
1.5170999
1.5170913
1.5171113
1.517096
1.5171299
1.5171123
1.5156024
1.5157426
1.5164721
1.5167621
1.5153671
1.5167439
1.5167426
1.5167741
1.5167953
1.5165182
1.5164313
1.5163629
1.5165302
1.5163019
1.516326
1.5165429
1.5165627
1.5167567
1.5167463
1.5168129
1.5168375
1.5170111
1.516497
1.5167542
1.5171992
1.5173414
1.5169456
1.5170214
1.5174154
1.5169014
1.5169123
1.5169244
1.5169042
1.5169524
1.5169446
1.516955
1.5169681
1.5169118
1.5169382
1.5169269
1.5169595
1.5174713
1.5171045
1.5171396
1.5174975
1.5169836
1.5169639
1.5169819