/*--------------------------------*- C++ -*----------------------------------*\
  =========                 |
  \\      /  F ield         | OpenFOAM: The Open Source CFD Toolbox
   \\    /   O peration     | Website:  https://openfoam.org
    \\  /    A nd           | Version:  7
     \\/     M anipulation  |
\*---------------------------------------------------------------------------*/
FoamFile
{
    version     2.0;
    format      ascii;
    class       volScalarField;
    location    "8000";
    object      omega;
}
// * * * * * * * * * * * * * * * * * * * * * * * * * * * * * * * * * * * * * //

dimensions      [0 0 -1 0 0 0 0];

internalField   nonuniform List<scalar> 
34378
(
2240.9157
4605.5034
4069.5078
2270.0867
806.82578
4174.624
846.01334
1247.859
9500.3707
1246.4582
9443.9732
4504.7675
7521.5359
7940.4201
1942.5851
1841.5578
4122.5562
4061.2778
826.44928
848.70058
8013.0802
1953.7737
751.26343
690.56711
386.20439
2139.5741
2133.3331
2040.0277
854.16665
840.77495
1990.7377
665.01625
673.2013
18973.532
4544.7701
1225.2679
669.01632
669.5694
2005.8565
1996.696
4579.609
4557.9621
18697.14
9380.374
18971.556
1234.8603
9339.0793
12712.068
13199.006
7463.6956
4429.2654
4277.9613
13739.58
13575.511
4649.7928
4589.9632
1884.3301
1955.4333
8020.5987
7593.9173
1871.8776
7745.5213
1920.5409
13616.656
13935.274
4607.2714
4718.0894
692.04114
745.77092
761.56651
1847.2802
1934.4337
1919.6269
1853.6892
1537.9002
1384.7902
1412.9888
1594.0272
584.29828
1593.6031
1418.8059
593.97601
514.67849
516.69278
369.72488
371.39253
382.50693
380.61988
1927.6433
1931.233
5284.9638
5169.8895
5147.2677
5181.5537
4966.6042
4835.9142
2015.7788
2122.1744
2036.5889
2068.2644
550.55914
550.12124
2144.1382
685.6109
693.86547
12808.889
12880.644
32875.288
33192.332
3544.5874
3514.8949
6708.7697
6681.615
1941.927
653.32827
668.9467
1988.8561
691.04033
692.79021
2162.6771
2155.436
4561.092
3565.8363
3566.6769
6780.6654
6738.6304
3555.8153
3535.6589
6698.2041
6744.1339
12920.405
12917.304
32182.081
18665.548
32818.314
18786.118
4475.6793
12922.604
12821.342
32890.055
33114.202
2002.9756
668.53105
666.63288
1982.9137
4583.2548
4540.7497
18743.537
18669.894
12600.853
20499.123
21264.992
7975.6913
7806.4935
21784.085
21663.52
8189.4962
8094.949
12874.544
4249.48
4288.294
22456.337
22785.832
8480.6658
8582.1408
22340.812
22071.287
8487.2581
8378.281
13750.729
13853.655
4647.9029
4667.4162
12757.372
13317.106
4460.3125
4291.8685
4386.0588
13197.298
13271.35
4527.9587
21891.886
22676.502
8577.2895
8380.0856
22998.036
22767.529
8734.803
8640.1264
1359.5537
1520.9693
1583.2672
1414.1217
1858.9943
1845.0527
1841.3484
1879.2759
1915.8344
1917.2665
1836.4119
1815.5606
4558.709
5190.5118
5080.4719
4692.8367
5412.5575
5383.8547
4903.2977
4843.8857
4879.8641
4975.9704
5016.9779
4943.4379
4616.4742
4812.7883
4740.4687
4730.2081
4139.5649
4024.7278
3984.4508
4218.6724
3385.1247
3341.7629
3030.5717
3036.1853
1151.9844
3159.2118
3125.8316
3473.9056
1174.8874
3529.0727
4188.2968
4146.0465
4336.1338
4405.3214
1027.693
1022.9588
4383.7255
4273.8191
4202.1517
4489.4248
3217.0037
3181.3928
3591.546
3520.2871
1174.3098
1190.9898
1028.5265
1043.1975
745.47953
862.16084
449.61114
735.60537
868.37082
388.21106
389.44992
451.74608
859.96306
727.94115
743.23903
880.82481
4905.5562
5121.4092
5022.1336
5033.667
4865.8512
5519.901
5401.1505
4994.1027
9534.7065
9622.9136
9464.4742
9261.1335
9403.7287
9468.3764
9255.274
9338.1671
8960.3986
9034.8214
8676.9047
8840.7831
4744.7887
4744.143
5185.4773
5179.1097
4943.8377
4788.8572
4884.5069
5002.7532
549.93756
545.56651
534.30963
534.54964
2227.0213
4082.704
4041.1195
671.39913
680.26758
12188.964
12423.417
17948.38
18229.037
12341.473
12415.562
18250.773
18145.992
28544.937
28819.788
48673.685
47932.209
49077.193
48677.801
28941.907
28261.943
7365.902
7336.1205
2090.3048
672.42271
691.24408
2141.4839
677.05511
678.79189
2251.0303
4107.3413
4108.5374
2241.7615
4074.3905
4085.2938
3522.3994
3556.9896
6724.3481
6746.6825
7450.1401
7400.9515
7348.179
7408.609
12900.24
12316.454
12564.27
18076.544
18362.801
12375.996
12465.284
18267.571
18192.65
28434.292
28891.236
46673.641
47655.715
32228.664
12943.457
32625.308
28964.737
48084.139
47998.271
28435.094
12739.43
12867.365
32859.307
33043.879
3504.3629
3442.1181
6681.2147
6586.3268
12337.334
12532.34
18130.523
18341.407
12301.013
12355.448
18193.201
18049.926
28854.725
28295.422
48563.809
48240.481
28766.275
48218.294
28945.468
48961.722
2158.3637
692.01961
688.28509
2140.5384
3584.366
3572.5771
6766.9245
6792.1044
3552.6179
3531.3503
6693.9641
6739.769
12936.795
32781.67
12836.401
32700.581
12975.164
32424.617
12953.886
32886.533
20782.277
20412.252
7757.9525
7659.9702
36978.069
36058.876
11277.465
11389.813
38150.962
38181.291
11566.682
11680.371
39426.915
38937.915
11830.935
11909.752
38499.807
38995.867
11791.917
11890.196
21178.651
21436.88
7925.9946
7862.3503
40514.09
39654.566
12313.194
12424.39
41217.116
40601.365
12473.46
12495.977
40300.828
39956.291
12175.259
12258.52
38714.357
39789.518
12150.172
12167.858
22129.158
22691.972
8493.0874
8617.4318
22860.181
22518.133
8596.6729
8569.7968
12958.276
20276.662
21206.273
7953.6434
7734.4987
21646.413
21739.352
8238.8743
8073.6353
21417.637
8061.8472
21784.331
8156.0754
21544.507
21485.913
8230.105
8061.9737
39696.023
38361.396
12188.032
12018.355
40444.108
40868.565
12382.607
12464.321
40945.49
12522.285
12658.603
41549.094
41186.866
40093.549
12558.587
12569.218
359.21437
4260.4483
1145.1576
1012.8104
2896.7524
2921.009
3203.3997
3245.6223
3843.2518
3822.1812
3990.3281
4038.0265
4383.2614
4160.356
4385.8969
4191.5317
3120.1788
3499.255
4623.9979
4716.8868
4780.0214
4847.7985
4794.0447
4542.0568
4721.7731
5167.7548
5000.4373
4508.4071
4687.38
5095.1103
4599.4266
5224.5276
4746.784
5025.9074
4921.2952
4936.1015
4996.73
5419.2065
4885.1501
5402.9596
4908.7772
4942.0461
4937.7736
4463.3341
4499.8946
4589.2226
4479.8906
4572.9011
4523.3613
859.4567
742.05778
9338.71
8339.9784
9515.1492
8518.0169
10113.414
10162.019
9269.1898
9362.9602
9801.5411
8981.2643
10006.046
9187.4942
9632.7391
8607.886
9696.288
8709.7324
10411.508
10542.036
9563.53
9711.9268
10615.736
9739.4858
10686.496
9834.1958
9933.7947
10039.403
8893.5474
9017.3089
9038.2945
10121.668
10182.844
9122.9296
10846.388
10102.364
10930.707
10214.876
10657.92
10764.819
10183.811
10315.564
10524.75
10680.385
10033.012
10232.182
10658.387
10809.083
9919.5804
10103.228
10074.335
9336.3997
10294.955
9575.3734
10260.932
10247.44
9755.9014
9819.8152
9965.2589
9478.6529
10204.855
9733.7996
10374.433
10398.128
9629.0686
9721.6475
9737.9546
9299.6626
10010.456
9580.8563
9500.1055
9411.2881
9279.0792
9276.4318
9178.9101
8987.9152
9474.6659
9297.5252
10041.596
9993.2415
9577.7031
9613.3945
8473.0055
8582.5628
8353.1536
8543.7882
8172.6336
8288.884
8446.568
8601.0053
6970.5299
7216.1813
2602.4556
5889.8432
6034.2867
7207.5403
7140.4523
2606.2927
5976.5992
6066.0143
2442.9124
2467.2357
7383.8941
7527.7714
2714.5465
6351.9494
6236.9225
7412.5506
7517.7337
2670.7538
6331.9016
6290.2954
8666.6414
8805.147
8769.9062
8958.7888
2500.7722
2531.921
8655.3347
8788.7031
8767.1133
8958.9262
9714.5491
9513.2273
9849.2021
9705.5432
9734.8409
9557.6381
9867.3699
9724.8568
10352.846
9933.7171
10483.273
10088.276
10283.814
9836.2405
10436.216
10041.435
2006.1296
1979.1414
2157.2626
2193.766
1956.2255
1998.8745
2142.3389
2120.2246
10349.088
9894.0336
10633.703
10198.944
10003.595
10209.052
9805.5864
10063.822
9752.1187
9557.4788
10029.603
9866.4555
10613.687
10833.856
10147.734
10409.845
7595.5407
7785.6558
2756.3805
6581.388
6436.072
7420.4405
7640.9408
2723.7361
6443.0682
6299.2533
8897.5667
9035.4803
9069.9348
9269.1046
8684.9779
8812.9911
8921.7748
9099.0119
2560.6762
2565.3091
2716.3314
7392.9463
2677.5108
6260.4144
2517.2372
2550.8018
2207.7471
2026.5607
2017.9693
2215.4536
2050.6845
2007.7591
2177.0553
2225.1635
1153.1554
1283.4657
1321.4515
1117.9064
649.61108
1547.8293
1500.1853
1727.8596
1692.1534
526.63292
526.68947
647.14743
1282.8594
1264.3814
1097.3257
1084.4561
1494.5599
1511.9408
1698.4154
1726.0895
455.66515
459.59566
520.58769
641.59824
651.4211
526.24122
1514.0553
1506.6771
1734.1663
1733.4907
1276.6368
1099.2949
1088.7169
1281.0919
1280.8675
1103.7316
1138.9225
1335.2426
1721.3779
1518.1219
1563.8994
1775.739
10713.597
10989.392
9947.1876
10236.658
10866.246
11084.032
10350.416
10598.237
10591.186
10085.768
10871.597
10384.01
11003.618
11202.747
10231.277
10453.565
9943.8887
8901.6085
10173.609
9116.8513
10740.655
9852.6922
10911.215
10026.642
10434.795
9571.3101
10701.889
9826.8737
10233.847
10360.809
9159.0993
9293.5221
13404.346
13574.339
13473.088
13393.613
13266.623
13315.011
12838.117
13049.941
13187.054
13330.68
13357.492
13385.555
13033.556
13134.425
12956.21
12996.364
12677.798
12776.547
12632.015
12684.502
8520.6515
12046.879
12196.724
12398.385
12490.47
8447.8301
8687.2884
8716.3566
9363.8203
9467.0095
9436.0726
9416.3793
8893.539
9041.5076
4882.4732
8532.7935
8754.2773
8973.3439
8908.2581
8888.0929
9023.8683
533.8582
529.10503
513.33796
705.75479
707.90059
512.97584
709.59233
698.5801
4043.1469
4000.3321
2215.3868
4689.7612
15290.539
15657.902
22521.006
18352.544
22753.222
18526.423
18734.717
18827.081
22981.93
22946.842
15568.735
15557.723
22988.709
18732.543
23117.476
18860.69
18631.32
18688.82
22873.674
22759.482
39013.12
26443.566
26698.412
39911.681
26837.999
26942.047
39544.661
40296.619
65727.77
55436.849
55481.371
64795.311
54297.961
64183.329
65297.75
54886.159
65702.128
65750.381
55767.71
55547.213
55701.24
64868.75
64781.461
55323.012
27057.161
26951.296
39864.965
40020.648
26605.958
26803.469
38928.055
39103.844
6212.8168
6154.3693
10327.959
10282.361
6177.2416
6151.4544
10218.648
10317.745
2176.1872
3959.4097
4048.2216
656.44056
677.85633
2225.4825
4060.6452
4084.0792
4071.5009
4066.2268
2243.4884
4776.8078
4754.056
4048.6955
4033.9573
2230.7728
4727.515
4729.811
7375.0601
7416.0095
6280.3455
6266.3801
10379.164
10464.574
15431.623
15823.301
6240.6601
6194.3793
10370.699
10319.994
15597.742
15617.91
6202.9564
6151.8413
10300.582
10232.621
15513.52
15465.083
6221.6606
6218.9398
10359.149
10393.685
15488.095
15781.906
12353.733
12450.298
18300.721
18189.094
18674.356
18499.015
22655.969
22879.619
23132.046
18901.108
18990.629
23095.942
22998.424
18764.423
23110.436
18879.123
18697.686
18747.7
22940.627
22816.093
28216.988
26535.125
26799.482
39859.684
38693.407
27046.654
26976.398
40227.543
40209.773
47069.348
53038.464
62990.036
64352.508
53382.324
54143.892
64642.118
64914.723
54233.526
28729.08
47587.187
12351.255
12585.985
18213.28
18439.13
28693.859
28690.22
47779.035
48201.518
26915.662
27032.303
40155.116
39875.225
54540.011
64502.734
65122.275
54736.932
54682.433
64593.415
64394.857
54548.099
26664.733
26863.932
39088.616
39430.271
12128.024
12393.592
17995.737
18302.313
12349.58
12419.543
18334.274
18204.707
28439.01
48113.751
28763.332
48796.726
28986.837
28432.307
48796.709
48641.337
7351.0376
7242.2657
18731.274
18568.362
22733.592
22942.515
23120.752
18871.497
18943.503
23049.684
22928.418
18681.868
23038.64
18795.922
18532.467
18578.191
22777.321
22640.977
26971.135
26864.438
39539.928
39959.123
26501.619
26729.442
39574.629
39085.33
55312.59
64600.623
65374.735
55419.766
64600.702
65113.331
55097.237
54589.18
26861.374
26626.666
39029.509
39953.347
54974.075
63876.19
65049.314
55332.08
26928.101
27066.025
40600.431
39961.798
65199.258
65803.027
55715.274
55652.027
2249.7171
4113.2745
4130.9117
676.90225
675.17214
2230.3144
4071.9091
4084.0513
7438.4298
7465.7233
7357.2425
7411.046
12340.276
18216.261
12571.578
18451.358
28820.883
47893.281
28953.562
48445.39
12311.485
12393.49
18260.983
18147.222
48153.228
48011.828
28860.173
28286.222
32343.806
12365.869
12609.668
18472.009
18210.273
28635.251
28991.175
47008.258
48128.749
18414.331
18299.447
12434.497
12513.78
29209.421
48422.02
28671.68
48350.368
352.08405
37579.728
37407.852
11199.265
11253.527
36058.115
36803.547
11108.615
11177.976
39162.205
38210.54
40354.265
40419.727
41715.253
41254.5
40637.614
41278.821
38505.665
37703.08
11480.482
11565.088
38474.031
39138.707
11575.195
11599.992
42803.964
41936.133
43544.348
42847.549
42594.562
42245.162
40910.668
42088.172
40000.208
38749.965
12171.604
12327.134
40766.864
40592.45
12413.472
12490.803
41145.862
40872.602
12483.968
12552.484
39694.161
40989.061
12421.011
12333.849
21109.909
20658.686
7897.6229
7942.2072
36737.886
35383.163
11117.802
11259.695
38193.816
38066.281
11476.411
11592.201
39211.895
38595.038
11724.276
11824.747
38702.739
39259.046
11837.4
11882.275
37968.067
38668.037
11790.369
11701.989
39359.161
39158.874
11828.659
11890.146
38947.701
38576.52
11703.315
11782.534
38047.38
38613.583
11709.118
11805.45
41939
40626.761
42674.151
43180.767
43273.07
43873.31
43531.545
42299.979
9957.2047
10105.199
9501.3891
9722.2375
2386.3289
2353.2406
2489.2999
2531.1012
1941.4433
2040.4022
2086.7819
6741.5074
6907.0438
5758.8584
5676.6142
6643.041
6774.222
5662.3425
5550.7098
7929.8212
8056.4422
8099.5712
8279.5539
7821.406
7958.6368
7912.8615
8101.7178
8812.4149
8913.397
8630.5601
8789.2345
8931.2995
8753.7823
9130.7382
8984.0914
9493.211
9089.3588
9677.9443
9293.6111
9335.9443
8925.9199
9451.2081
9098.4206
10426.578
9987.7822
10521.041
10129.087
9854.3077
9660.4049
9817.9585
9701.3871
10460.61
10009.24
10431.07
10060.36
9797.0084
9620.6646
9897.7984
9768.6325
7463.1648
6262.8665
8989.4952
8752.0822
8894.039
8704.3675
8924.156
10244.308
10351.401
9521.627
9669.9626
10090.721
10209.682
9617.0729
9779.4807
10267.541
9538.8456
10450.069
9772.0065
10162.737
10337.262
9669.0674
9903.2095
9628.8871
10356.867
9928.1111
9583.4385
9750.5665
9071.0692
10131.053
9451.7986
10240.911
9522.359
10496.273
9813.9544
10000.644
9181.4254
10238.42
9425.305
9536.4799
8770.3541
9870.1991
9083.9068
9126.8536
8190.2001
9396.9174
8444.1362
9540.7257
8543.5067
9732.831
8743.528
10010.69
9185.6994
10107.072
9307.8584
9558.1239
9633.2028
8654.2693
8552.4838
10004.259
9186.9342
10186.559
9390.0345
9538.8002
8548.4064
9697.6197
8727.3783
10701.323
10790.643
10205.392
10343.359
10848.971
10940.657
10089.203
10230.558
10873.712
10866.306
10118.943
10189.492
10722.938
10219.696
10706.055
10278.727
10584.919
10683.745
9704.2369
9837.507
10071.922
9009.1698
10168.776
9136.5811
10626.523
9749.2708
10631.993
9803.0996
9064.3606
10127.806
10119.962
9106.4436
9452.667
8690.11
9560.594
8823.9788
9710.9939
8919.7123
9783.7774
9012.8977
9293.1645
8328.8614
9335.5951
8396.1134
9036.0899
8112.2099
9128.0176
8227.9767
9552.5563
9100.6211
9677.7494
9274.0858
9911.9232
10018.96
9224.2023
9357.99
9755.5165
9300.6322
9902.9845
9468.7851
9671.0024
9000.3596
9795.5867
9163.9686
652.40989
1507.7213
1693.0636
1118.2587
1067.7139
1291.6663
1235.8446
12036.757
12667.276
11976.447
12718.87
12191.156
11446.288
11546.472
12232.474
13005.408
12305.237
12879.37
12176.236
12389.821
11702.807
12502.082
11817.567
14437.824
13658.325
13677.91
14441.833
14392.256
14246.82
13496.792
13653.025
13008.452
13928.173
13001.749
13907.835
13874.939
13007.506
13746.474
12860.851
13121.013
13705.966
13014.527
13811.705
13289.643
12439.447
12521.496
13362.127
13461.033
14025.789
13290.101
14200.941
13545.371
12666.177
13685.648
12820.31
13223.851
12481.798
12487.714
13202.052
11963.786
12703.746
12697.771
12039.995
13070.738
13195.277
12366.934
12496.851
11908.885
12696.453
12012.747
12582.003
14794.404
14004.542
14040.681
14819.002
14804.716
14776.24
13988.284
14053.638
13353.176
14274.315
13335.761
14267.282
14264.963
13378.032
14232.358
13306.316
14356.223
15089.474
14267.916
15172.338
14524.934
13565.563
13631.677
14579.323
14410.46
15208.204
14365.246
15221.481
14614.673
13639.976
14620.564
13687.01
13557.69
12808.537
12822.567
13544.778
13509.866
12776.324
13552.736
12839.811
12296.735
12377.251
13033.838
13036.386
13026.989
12989.232
12281.636
12320.108
13233.545
12461.324
12576.302
13273.98
13069.198
13781.329
13017.674
13821.234
13862.256
13848.107
13077.913
13117.812
13314.036
13299.27
12600.532
12624.246
15571.064
16163.098
15439.597
16267.134
15855.623
14826.674
14946.777
15971.609
15643.081
16271.594
15551.219
16350.148
15991.832
14942.313
16020.838
15009.077
16371.722
15754.635
15885.663
16464.155
16493.312
15857.361
16026.367
16627.442
16369.629
15604.77
15740.142
16470.826
16477.268
15703.061
15848.824
16590.232
16127.164
15476.337
15573.204
16176.184
16252.159
16131.856
15504.341
15667.165
16060.693
15280.843
15382.409
16120.136
16186.855
16079.061
15315.578
15462.364
15807.297
15081.382
15189.447
15873.549
15913.734
15826.652
15115.095
15221.041
14504.538
14585.175
15478.921
15564.843
15540.156
15499.339
14515.373
14592.928
14152.161
14686.038
13987.459
14828.06
14312.196
13430.902
13578.8
14466.899
15299.154
14607.609
15052.579
14347.839
14699.989
13767.977
14928.246
13992.049
15833.967
15169.034
15202.334
15817.285
15463.808
14870.092
15113.836
15677.389
15001.776
15745.389
14950.001
15740.147
14946.167
15437.025
14707.2
15645.523
14615.19
15068.944
14456.532
15200.073
14979.872
14228.515
14395.845
15112.349
15080.871
15444.038
14805.417
15694.975
15341.996
14574.474
15588.926
14854.373
15464.533
14726.408
14803.166
15486.718
15211.058
14532.598
15416.389
14759.341
14151.481
14208.55
15111.149
15167.138
15107.298
14914.728
13984.202
14180.553
14972.669
15480.003
14800.893
15623.007
15342.772
14549.39
14718.393
15478.592
16183.804
15496.532
15943.477
15216.117
15759.455
14923.713
16007.314
15211.754
17260.397
16199.002
16252.776
17256.401
16840.616
16629.332
15660.663
15921.724
15782.296
16750.876
15744.543
16737.702
16399.657
15530.845
16196.049
15276.242
15561.246
16294.652
15346.652
16485.215
15875.141
14962.603
15154.95
16038.36
16195.798
16951.078
15904.296
17194.402
16423.962
15434.497
16663.334
15723.597
16282.245
15539.753
15571.547
16261.844
15797.301
15126.184
16005.444
15377.074
15270.664
15304.769
16121.078
16104.533
15904.84
15692.11
14914.774
15172.753
19550.119
19580.724
17760.606
17870.919
18269.672
16757.289
16833.938
18242.946
18726.084
18918.903
17353.741
17051.531
17519.004
17748.344
16140.234
16432.116
16984.793
18316.773
16686.831
18547.995
17150.577
15805.402
16066.238
17385.073
17826.991
19320.546
17509.124
19525.625
17962.72
16475.786
18210.48
16790.512
19723.718
19821.433
17933.993
18217.963
18941.38
19214.284
20924.294
20966.468
5274.2792
5157.8295
5208.6431
5343.4229
18946.601
20067.877
21059.443
21026.454
19138.411
19253.484
18330.062
18592.223
20124.483
20169.484
5352.5041
5297.3973
5182.2864
5285.5961
19228.296
20111.16
4615.2142
4747.6555
4795.1192
4704.2462
4739.8647
4643.734
4687.8138
4794.5336
21291.803
21301.665
19363.836
19548.939
19167.782
19406.187
21030.551
21046.177
5518.5198
5450.7823
5534.958
5636.5481
20113.909
20376.013
20756.44
20804.738
18958.839
19173.557
19341.82
19598.422
21211.768
21248.899
5552.5945
5475.9845
5500.54
5605.3454
20294.864
19891.306
19352.894
19513.739
17920.693
17695.778
18184.81
18343.247
16819.905
17012.13
18310.14
19747.466
18011.034
19938.925
17084.807
18509.186
18734.069
17365.608
4960.1026
4892.0115
4894.2039
4988.8311
4939.4912
4883.8373
4943.3319
5035.452
18181.646
19762.205
17979.832
19878.615
16993.415
18463.032
18590.104
17165.839
18108.33
19560.87
17832.355
19722.499
16898.219
18315.916
18507.427
17155.679
16585.104
17490.844
16444.664
17590.547
16995.445
16003.051
16123.288
17074.344
17572.992
16620.576
17395.326
16389.826
16938.377
15981.214
17100.038
16196.922
16539.704
17338.069
16383.043
17465.341
16962.368
17066.43
16044.64
16184.191
16849.356
17605.648
16599.118
17811.835
16223.513
17178.926
17365.067
16452.043
16074.018
16618.567
15942.856
16712.312
15769.061
16559.18
16654.242
15900.511
16964.665
16298.112
16794.146
16090.412
15893.405
16707.933
16862.29
16085.461
15914.677
16541.759
15810.378
16605.857
15560.129
16394.577
16450.191
15658.935
16670.152
16008.173
16515.044
15811.394
15577.441
16388.08
16527.597
15759.533
3794.9576
3774.8207
3898.6167
3940.6518
3746.452
3735.3079
3873.4291
3890.4847
4421.9238
4311.8792
4323.0774
4438.1309
4425.507
4336.557
4370.8147
4487.4611
3568.5507
3657.4073
3780.5029
3690.658
3709.5893
3640.3978
3744.8626
3820.4632
4235.8805
4147.1078
4220.2533
4310.679
4292.8405
4209.2724
4091.1403
4191.1205
15971.312
16474.154
15763.121
16654.333
16340.217
15502.375
15713.52
16516.971
17193.495
16491.113
17006.158
16259.238
16860.686
15985.548
17045.077
16216.462
17969.576
16919.558
17144.72
18145.754
18282.421
18130.363
17102.457
17312.555
16700.897
17501.472
16494.978
17670.076
17824.701
16886.822
17695.218
16698.061
16569.5
17324.313
16323.635
17546.625
16882.604
15923.119
16149.567
17079.925
17143.437
17941.103
16878.603
18154.552
17455.294
16439.556
17652.777
16688.881
17061.299
16321.076
16516.792
17218.353
17270.573
16535.691
17387.759
16699.266
16064.409
16257.019
16929.674
17086.329
17245.541
17148.962
16282.826
16433.556
21671.347
21704.953
19746.761
19980.203
19797.495
20024.923
21661.354
21657.084
5686.0236
5606.8529
5712.4864
5827.4246
20684.135
20737.207
21033.534
21112.642
19115.288
19392.881
19812.186
20061.36
21786.94
21803.866
5575.0979
5521.6542
5624.6175
5710.3102
20839.839
20197.971
20171.245
20346.796
18390.392
18659.499
19105.589
17430.913
17680.377
18903.952
20240.795
20379.929
18757.444
18494.509
19028.673
19196.502
17578.317
17824.411
18073.291
19503.735
17761.537
19737.782
18240.746
16813.034
17101.421
18495.624
18709.534
20235.681
18408.58
20413.595
18916.52
17410.36
19139.697
17705.462
5018.6971
4979.5144
5035.1938
5108.0683
5072.7926
4995.9389
5073.8679
5183.8332
5460.1407
5400.0431
5404.5529
5483.7024
21107.726
21175.531
19207.469
19486.442
5529.2796
5468.1463
5515.1532
5604.614
20215.185
4958.5098
4903.7722
4938.1979
5010.8675
4873.9981
4852.5862
4904.0468
4945.7812
4519.0944
4456.5444
4474.2766
4568.4911
4006.5036
3873.1151
3883.3337
4025.4006
3860.507
3813.1711
3957.8686
4024.1624
4517.4747
4410.7567
4471.2942
4601.5783
3811.4775
3798.8337
3911.4842
3948.5319
3829.3949
3817.7602
3927.7319
3965.2182
4399.2344
4366.68
4446.5369
4492.4384
4409.7484
4332.2912
4351.8028
4454.1071
1562.0516
1597.5129
1810.2759
1778.0825
1022.6463
1995.0056
1996.3829
2218.878
2214.1643
2079.5055
2118.0082
2316.1921
2296.4957
1686.2194
1477.172
1010.0192
1484.9599
1695.582
774.86187
772.47506
2633.5463
2621.09
2806.6498
2795.1197
2522.064
2550.0862
2703.0907
2741.9482
3143.3774
3275.1722
3325.7065
3171.5999
3113.9022
3269.4868
3204.0703
3049.3364
611.33054
609.92895
978.41753
991.53627
759.36297
752.90206
2272.2386
1976.6898
2234.7691
2009.2107
1946.951
1967.8329
2224.3712
2213.4962
1445.3108
1431.7895
1655.7141
1689.7828
1408.4747
1410.9339
1652.2591
1640.8034
2780.7797
2566.0188
2782.664
2555.2194
2583.4398
2802.8519
2850.8057
2637.8126
3169.334
3165.6815
3336.8715
3351.1351
3369.2876
3193.6479
3231.6257
3403.6828
448.2365
452.23142
606.32869
626.62833
986.01272
984.98988
758.67109
758.56362
994.41214
1020.8621
763.58325
777.8451
2650.9764
2877.3072
2884.5775
2648.2582
2630.0077
2596.209
2829.6298
2870.769
3262.5647
3225.0656
3407.9159
3458.5161
3295.7887
3282.5364
3458.1328
3475.4082
2032.527
2292.317
2278.9177
2015.429
1681.5927
1457.8981
1447.0645
1695.0381
1423.6515
1411.7613
1636.2857
1667.0688
1992.5104
1963.8441
2238.6493
2274.7871
2279.2715
2024.6152
2020.8028
2295.1893
1682.479
1446.9347
1448.6204
1694.7387
1549.3668
1517.2714
1753.9788
1812.7082
2333.2521
2086.0323
2132.3516
2374.2861
3416.5382
3264.5493
3264.6794
3436.6359
2863.5069
2650.7413
2651.1607
2876.5836
2710.3865
2686.0612
2884.2673
2915.5015
3413.1268
3261.1103
3278.6857
3441.7167
15663.337
14926.506
15153.815
15876.016
16362.918
16187.814
15439.578
15635.258
14530.556
15277.816
14328.769
15502.092
15989.689
14978.521
15836.26
14809.805
16644.369
15976.328
16170.575
16802.247
16866.285
16200.729
16327.68
16953.445
15966.079
16579.31
15767.537
16744.424
16097.492
16805.8
15987.287
16868.473
15626.761
16049.163
15406.523
16236.666
15963.989
15173.15
15405.09
16169.703
16103.577
16554.357
15884.16
16740.947
16473.906
15658.682
16653.112
15879.362
16309.976
15561.475
15763.337
16481.385
16526.916
15773.545
16570.324
15846.374
15124.787
15973.973
14954.842
16159.412
16189.553
16185.761
15127.045
15177.133
13430.09
13522.152
12704.443
12799.966
12174.051
13009.18
12326.208
12920.086
13737.692
12986.359
13097.924
13844.618
12593.278
13204.776
12506.485
13296.36
15232.478
14408.791
15357.078
14530.49
14754.315
14669.726
13702.25
13793.378
15378.227
14567.557
15378.118
14527.516
13778.309
14761.902
14764.324
13825.319
14597.585
14760.708
13843.513
13996.136
14230.144
13323.505
14109.001
13204.087
15064.482
14243.319
14384.443
15192.67
13663.207
14486.159
13528.979
14599.232
13921.669
13158.047
13231.124
13985.718
13991.138
13978.377
13207.871
13245.364
12651.681
13385.675
13452.156
12786.473
13427.595
12710.749
13422.926
12716.276
11900.979
11883.313
11995.528
12053.762
12295.56
12407.119
12436.104
12407.889
13021.545
13224.556
13365.128
13325.665
13392.748
13474.008
13338.881
13172.907
12560.718
12682.785
12703.508
12698.63
8692.1812
8656.1634
11869.424
12058.944
12309.512
12402.141
12696.031
12721.114
12527.152
12641.301
12536.499
12636.454
12537.633
12592.783
512.77145
707.04927
701.96146
508.06946
679.21295
706.56996
478.71041
712.97883
689.9064
691.87723
717.68022
478.37655
717.06875
709.32709
683.05323
693.79273
7033.5595
7096.1393
7068.988
7030.9126
2042.2579
5140.0569
4554.3251
7992.1223
8033.2143
7022.9969
6981.321
16262.536
20874.977
20521.748
16528.885
20974.884
21080.571
24381.844
24709.405
24900.36
24835.597
16564.294
21247.786
20966.913
16419.732
20861.392
20902.884
24884.146
25090.456
24785.311
24629.303
55077.336
28375.66
28712.307
56661.616
28794.945
28948.05
55634.248
56892.411
100140.8
59210.086
59159.874
99745.35
58707.938
99731.711
100216.92
58968.256
100235.25
99761.727
59481.297
59307.003
59455.622
99345.575
99439.599
59321.519
29081.707
28920.99
56093.838
56605.274
28539.311
28787.715
54870.552
54740.605
11229.697
11175.122
11108.716
11214.316
4008.117
3911.6866
2167.4076
4586.1437
4695.7193
4045.4816
4017.3109
2213.897
4705.4592
4722.8723
7124.2156
7078.7046
7187.6838
7168.5913
2067.399
5245.3043
5191.5308
4626.1516
4641.3583
8155.1545
8169.0603
7143.9071
7118.3542
8043.6487
8085.6044
7083.6547
7030.338
7083.476
7028.1295
7113.5333
7109.4341
2053.1587
5169.4934
5166.9692
4588.864
4603.8552
8081.1106
8078.1884
7069.7925
7058.1275
7983.111
8041.6971
7042.88
6981.3198
6218.5499
6157.6304
10289.55
10335.896
15576.525
15588.895
6230.5184
6205.0147
10441.033
10354.167
15503.789
15859.63
11282.079
16425.503
11373.517
16710.797
20671.197
21024.27
21149.118
21257.1
11270.934
16597.786
11215.11
16480.16
21259.291
20996.98
20936.985
20971.768
11195.574
16512.544
11121.68
16325.921
21173.688
20910.069
20757.231
20780.643
11257.167
16468.952
11291.077
16650.526
20750.064
21088.056
21119.495
21201.17
18906.951
18787.205
23066.796
23164.147
22946.342
18681.532
18739.42
22816.945
24524.911
24842.624
25061.136
25005.996
24893.973
25086.613
24867.405
24699.747
39329.19
26872.674
26662.819
38841.158
28468.627
28821.694
56559.05
54314.558
29053.7
28955.153
57055.249
56749.054
53631.986
63987.409
63442.636
53318.781
57671.725
98581.584
99278.534
57902.749
58315.839
99708.157
99838.965
58333.362
27000.2
27080.978
39599.918
39334.666
54209.742
63811.85
64318.443
54183.319
22873.055
18637.078
18805.459
23063.877
23250.291
18971.467
23177.833
19050.482
27186.684
27055.034
39707.699
39973.847
39462.777
26819.718
27011.458
39842.281
54230.799
63999.917
64403.669
54686.072
55065.472
64484.964
64366.731
54855.241
28872.177
29060.454
56795.463
56187.274
58486.914
99803.49
99688.026
58696.453
58811.918
99230.259
99267.892
58723.748
28605.032
28859.265
55176.705
55170.987
15246.188
15659.66
18564.922
18408.06
22676.408
22858.001
23155.001
18812.763
18903.339
23102.597
15586.896
15569.322
23143.831
18823.329
23233.45
18933.314
18685.304
18741.03
23007.253
22872.928
26849.856
26649.405
39066.749
39922.995
54438.039
63688.543
64700.796
54939.085
27049.585
27160.127
40421.969
39976.339
64781.686
65167.519
55349.306
55390.957
27207.374
27124.455
39763.152
40068.932
26777.781
27003.164
39863.572
39323.28
55464.766
64302.993
64840.145
55506.738
64165.83
64772.915
55489.971
55119.024
6189.9733
6144.9972
10346.418
10262.8
6079.0549
6048.4631
10221.974
10116.75
24603.952
24903.178
25043.573
24945.736
24815.711
25011.739
24695.198
24510.419
28996.249
28813.665
55480.798
56502.766
28432.784
28722.959
55770.511
55126.637
59241.604
99761.094
100052.92
59413.215
99599.472
99967.533
59311.888
58973.231
28876.033
28563.638
54866.415
56674.574
58857.112
99276.323
99720.932
59207.463
28893.502
29074.918
57536.896
56610.47
100296.76
100578.68
59369.964
59324.732
4091.8619
4064.5747
2244.2453
4777.8759
4774.5878
4047.6028
4024.2679
2224.5755
4720.1743
4731.7618
6275.6285
6235.7622
10349.22
10433.229
15672.918
15667.36
6291.3427
6279.0988
10405.702
10472.843
15882.903
15492.2
6209.5806
6176.762
10333.244
10246.527
15524.514
15527.409
6232.6515
6216.4319
10406.879
10350.175
15491.471
15841.38
22906.05
18645.92
18798.369
23062.39
23316.372
18987.291
19048.302
23213.615
26878.899
27038.125
40433.769
39864.248
64338.187
64876.441
54333.677
54035.712
40815.667
27313.088
27136.886
40034.557
54707.497
65147.268
64539.563
54776.537
23057.725
18748.693
23142.661
18857.588
18643.036
18681.408
22958.652
22802.413
54497.601
64347.037
64904.882
54609.688
54546.18
64492.703
64072.443
54271.558
27120.08
27032.644
40023.256
39670.063
26713.898
26952.958
39156.596
39594.645
18281.769
28188.19
47897.412
47249.33
28763.857
18998.102
23306.577
19080.526
23242.378
18794.307
18628.465
22858.18
23047.397
39381.417
26797.834
27006.238
40064.049
40864.071
27297.468
27180.523
40435.267
52640.67
63600.389
64277.752
53436.72
54175.603
65085.795
64812.047
54470.792
18903.438
19009.193
23303.941
23220.977
23115.408
18788.19
18834.72
22968.15
27219.827
27298.749
40519.825
40794.201
54611.753
64851.821
65367.565
54816.538
40617.14
27133.403
26894.227
39824.428
64430.869
65288.003