/*--------------------------------*- C++ -*----------------------------------*\
  =========                 |
  \\      /  F ield         | OpenFOAM: The Open Source CFD Toolbox
   \\    /   O peration     | Website:  https://openfoam.org
    \\  /    A nd           | Version:  7
     \\/     M anipulation  |
\*---------------------------------------------------------------------------*/
FoamFile
{
    version     2.0;
    format      ascii;
    class       volVectorField;
    location    "8000";
    object      U;
}
// * * * * * * * * * * * * * * * * * * * * * * * * * * * * * * * * * * * * * //

dimensions      [0 1 -1 0 0 0 0];

internalField   nonuniform List<vector> 
34378
(
(-1.9217581e+47 2.8639477e+46 2.927761e+46)
(-1.6469407e+47 2.228333e+46 8.8616188e+45)
(-1.319428e+47 2.982242e+45 2.1131785e+46)
(-1.5845855e+47 1.708709e+46 1.8826488e+46)
(-9.9182448e+46 9.1794257e+45 4.2628904e+46)
(-1.3611668e+47 2.383404e+46 2.1556662e+46)
(-1.3091847e+47 1.0092761e+46 1.4442449e+46)
(-1.3578988e+47 2.0902137e+46 -1.9456088e+46)
(-1.1656831e+47 2.5675167e+46 1.533379e+46)
(-1.2693117e+47 2.9417283e+45 -1.7099801e+46)
(-1.0719227e+47 1.7302099e+45 1.3175911e+46)
(-1.2783589e+47 1.9070723e+46 4.471135e+45)
(-1.0343558e+47 1.278366e+45 1.9209482e+46)
(-1.0331785e+47 1.0448552e+46 1.8114806e+46)
(-1.0417628e+47 7.1523276e+45 3.3854295e+46)
(-1.0228498e+47 7.4636651e+45 3.4541453e+46)
(-1.2531653e+47 1.5095296e+46 1.8871884e+46)
(-1.2537484e+47 2.899294e+45 1.9825828e+46)
(-1.0243458e+47 1.3274831e+46 3.8347261e+46)
(-1.046794e+47 1.1986751e+46 3.8992565e+46)
(-1.0221727e+47 4.1609608e+45 1.8643318e+46)
(-9.8388523e+46 7.7600552e+45 3.3282298e+46)
(-1.2335611e+47 1.6265908e+46 2.3401043e+46)
(-1.2342793e+47 8.880325e+45 -1.335959e+46)
(-1.8036098e+47 1.3207949e+46 9.160027e+45)
(-1.1055476e+47 7.7159705e+45 1.6845554e+46)
(-1.1112527e+47 7.8206541e+45 1.6277508e+46)
(-1.1211318e+47 7.4525274e+45 1.7791353e+46)
(-1.248701e+47 1.4003778e+46 9.3075522e+45)
(-1.283653e+47 1.141625e+46 1.1967797e+46)
(-8.896736e+46 1.5451716e+45 -8.0697284e+45)
(-8.4464924e+46 4.6207206e+45 -2.6005046e+46)
(-8.6656075e+46 6.1453272e+45 -2.5512395e+46)
(-8.4204673e+46 1.605402e+45 1.5248777e+46)
(-9.5827441e+46 2.8338849e+45 -1.652106e+46)
(-1.1773295e+47 1.4408425e+46 -1.5967656e+46)
(-8.5084134e+46 5.4531115e+45 -2.5800341e+46)
(-8.224387e+46 4.9227578e+45 -2.5534431e+46)
(-8.903022e+46 8.3453478e+44 -7.7233557e+45)
(-8.942231e+46 8.4894637e+45 -7.5615449e+45)
(-9.4675231e+46 8.6484191e+44 -1.6337814e+46)
(-9.5954467e+46 9.8347136e+45 -1.6660015e+46)
(-8.1936278e+46 -1.801657e+45 1.4165551e+46)
(-9.7612906e+46 1.7727731e+46 1.0365359e+46)
(-8.2656237e+46 1.4284988e+46 1.4220511e+46)
(-1.1732167e+47 4.2186455e+45 -1.5958256e+46)
(-1.0078998e+47 3.0855386e+45 1.1855949e+46)
(-8.3317686e+46 1.0474196e+45 1.8407703e+46)
(-8.2728448e+46 6.3572377e+45 1.7469607e+46)
(-9.944631e+46 9.7121089e+45 1.7265625e+46)
(-9.1292039e+46 4.7737176e+45 2.6526259e+46)
(-9.1762671e+46 5.5247251e+45 2.7214981e+46)
(-8.3063759e+46 1.9707327e+45 1.7544075e+46)
(-8.2745494e+46 7.3177924e+45 1.7276834e+46)
(-9.1884086e+46 4.9599681e+45 2.6307999e+46)
(-9.1442046e+46 5.2596885e+45 2.6356415e+46)
(-9.9921394e+46 7.3688997e+45 3.1673881e+46)
(-9.7617451e+46 8.6250642e+45 3.0553379e+46)
(-9.9151006e+46 2.4713373e+45 1.727518e+46)
(-9.9189179e+46 2.5617362e+45 1.8330178e+46)
(-9.9746211e+46 1.0360288e+46 3.1405309e+46)
(-9.7795113e+46 1.0186121e+46 1.7068255e+46)
(-1.0133392e+47 9.1202823e+45 3.0838888e+46)
(-8.3335569e+46 2.3399823e+45 1.8117343e+46)
(-8.2923127e+46 7.9386866e+45 1.7148726e+46)
(-9.1040464e+46 5.7137906e+45 2.7025652e+46)
(-9.1300234e+46 5.1634183e+45 2.6126911e+46)
(-1.2378133e+47 1.3730891e+46 -1.4685277e+46)
(-1.2315887e+47 1.7351811e+46 2.1871416e+46)
(-1.2775948e+47 6.7376899e+45 2.2401841e+46)
(-1.1082562e+47 1.0875992e+46 1.9007507e+46)
(-1.1188058e+47 4.2064643e+45 1.8036008e+46)
(-1.0878119e+47 9.4713581e+45 -7.3004705e+45)
(-1.1035163e+47 5.9906671e+45 -4.2266839e+45)
(-1.0704239e+47 1.0568564e+46 7.5647844e+45)
(-1.0106392e+47 6.159408e+45 -1.0676499e+46)
(-1.0125058e+47 8.7151345e+45 -1.2720591e+46)
(-1.0897543e+47 5.0390396e+45 6.3127197e+45)
(-1.2147828e+47 1.5428157e+46 1.6944752e+46)
(-1.0806841e+47 1.019805e+46 6.6599737e+45)
(-1.0273217e+47 6.0816484e+45 -1.217589e+46)
(-1.2066856e+47 6.7829538e+45 1.7263679e+46)
(-1.127683e+47 7.6366966e+45 -3.7760788e+45)
(-1.067647e+47 1.3580266e+46 -3.9436306e+45)
(-1.0814548e+47 5.9684117e+45 1.5147469e+46)
(-1.0526593e+47 1.5265769e+46 1.8796403e+46)
(-9.5776067e+46 8.0113525e+45 -1.6214657e+46)
(-9.7558268e+46 1.446254e+46 -1.7778062e+46)
(-1.1077422e+47 6.0177379e+45 -4.3296521e+45)
(-1.0950864e+47 1.1386081e+46 1.7769314e+46)
(-9.3760601e+46 5.1286315e+45 1.5029093e+46)
(-9.4507006e+46 5.5878679e+45 1.6225604e+46)
(-9.4961496e+46 5.3209183e+45 1.5564719e+46)
(-9.378482e+46 4.9250835e+45 1.5191239e+46)
(-9.404761e+46 4.8469977e+45 1.5315927e+46)
(-9.5400756e+46 5.7878126e+45 1.6773048e+46)
(-1.07996e+47 8.1904648e+45 1.418795e+46)
(-1.0802703e+47 8.0125499e+45 1.3982533e+46)
(-1.0859491e+47 9.7890559e+45 1.4571485e+46)
(-1.085608e+47 9.0915888e+45 1.3322196e+46)
(-1.3252355e+47 1.1189405e+46 -1.8477877e+46)
(-1.3450547e+47 1.2674217e+46 -2.0114297e+46)
(-1.1020373e+47 5.8410486e+45 -2.1860848e+46)
(-9.642724e+46 4.7704903e+45 -3.652378e+45)
(-9.5965395e+46 7.7897272e+45 -2.3787268e+45)
(-6.0644779e+46 2.1831526e+45 -1.2646426e+46)
(-6.1600151e+46 8.1918094e+45 -1.303694e+46)
(-6.078416e+46 -4.6585111e+44 1.8683771e+46)
(-6.1316961e+46 1.1961528e+46 1.8451348e+46)
(-7.2826526e+46 3.4401797e+45 -2.1062324e+46)
(-7.1951622e+46 3.1438826e+45 -2.1115119e+46)
(-6.690116e+46 6.5225111e+45 -1.1550873e+46)
(-6.6345624e+46 1.348286e+45 -1.1693794e+46)
(-8.916652e+46 2.4216493e+45 -8.3333006e+45)
(-8.111972e+46 6.6846125e+45 -2.46762e+46)
(-8.198279e+46 6.3364084e+45 -2.4135589e+46)
(-8.7398574e+46 8.7643928e+45 -7.3045109e+45)
(-9.7720259e+46 7.4136271e+45 -2.6174007e+45)
(-9.473948e+46 4.9613089e+45 -3.2768794e+45)
(-1.0767241e+47 5.2353811e+45 -2.0713355e+46)
(-1.0871736e+47 4.8137294e+45 -2.1300218e+46)
(-9.1378294e+46 9.073696e+45 -1.5926532e+46)
(-7.2269697e+46 3.6984159e+45 -2.0732455e+46)
(-7.1559688e+46 3.4822352e+45 -2.0549312e+46)
(-6.6301838e+46 1.2644148e+45 -1.1548401e+46)
(-6.6301028e+46 6.0605795e+45 -1.1353277e+46)
(-7.1866433e+46 3.4635358e+45 -2.0612912e+46)
(-7.1274894e+46 3.1491912e+45 -2.0654253e+46)
(-6.6159113e+46 6.3131497e+45 -1.1491724e+46)
(-6.5911667e+46 1.2117299e+45 -1.1291496e+46)
(-5.9018515e+46 1.1256512e+45 -1.2169697e+46)
(-5.9472943e+46 6.5705741e+45 -1.2339087e+46)
(-5.8779238e+46 -2.2916327e+45 1.7247318e+46)
(-7.4395499e+46 1.300144e+46 1.0242688e+46)
(-5.8762066e+46 9.0503934e+45 1.6820919e+46)
(-7.854778e+46 -2.1628341e+44 1.1617951e+46)
(-9.2784182e+46 1.8292631e+45 -1.6374331e+46)
(-5.9732441e+46 1.5700444e+45 -1.2145082e+46)
(-5.9785191e+46 7.3212551e+45 -1.2687142e+46)
(-5.8656928e+46 1.0547256e+46 1.6545779e+46)
(-5.9919763e+46 -1.1362539e+45 1.7965155e+46)
(-8.9640631e+46 4.0611993e+45 -8.3576791e+45)
(-8.0765923e+46 9.1982177e+45 -2.5026889e+46)
(-8.2961181e+46 8.9600282e+45 -2.4701884e+46)
(-8.8324772e+46 1.0590594e+46 -7.6838706e+45)
(-9.2334731e+46 3.0362956e+45 -1.6242197e+46)
(-9.1525361e+46 1.0284342e+46 -1.602553e+46)
(-7.5750227e+46 1.3531922e+46 1.0931638e+46)
(-7.7534548e+46 8.0332409e+44 1.1878745e+46)
(-8.0611803e+46 6.771097e+45 1.6459552e+46)
(-7.0891498e+46 7.2805693e+44 1.7637892e+46)
(-7.0131749e+46 4.7070998e+45 1.7006266e+46)
(-7.9378909e+46 3.8678051e+45 2.2403143e+46)
(-7.9235933e+46 4.110843e+45 2.257854e+46)
(-7.0362954e+46 1.1383972e+45 1.6817033e+46)
(-7.0234523e+46 5.2119463e+45 1.6690987e+46)
(-7.9023289e+46 3.7505022e+45 2.1868269e+46)
(-7.8812351e+46 3.7417441e+45 2.1769415e+46)
(-8.1109183e+46 2.1755201e+45 1.6535312e+46)
(-8.8883269e+46 6.1450735e+45 2.4744671e+46)
(-8.8887228e+46 5.391323e+45 2.4815074e+46)
(-7.0965823e+46 1.1390193e+45 1.7279931e+46)
(-6.9816483e+46 5.3072197e+45 1.6446992e+46)
(-7.9743016e+46 3.9075415e+45 2.2387197e+46)
(-7.931692e+46 3.9168954e+45 2.163032e+46)
(-7.0364378e+46 1.6441895e+45 1.6731198e+46)
(-6.9811903e+46 5.3474267e+45 1.6654151e+46)
(-7.9003205e+46 3.9042972e+45 2.1744801e+46)
(-7.8996928e+46 4.0342433e+45 2.1678152e+46)
(-8.118087e+46 1.9326353e+45 1.7052296e+46)
(-8.0261331e+46 7.1115594e+45 1.597536e+46)
(-8.8061119e+46 6.6089e+45 2.4593329e+46)
(-8.8709119e+46 6.0843767e+45 2.411917e+46)
(-8.0758831e+46 2.2248604e+45 1.7557358e+46)
(-7.9312913e+46 7.4209285e+45 1.640557e+46)
(-8.8610415e+46 7.0368238e+45 2.4221449e+46)
(-8.8092401e+46 7.6664708e+45 2.4663539e+46)
(-8.9002795e+46 7.0210222e+45 2.4455862e+46)
(-8.0882585e+46 2.4609458e+45 1.6981368e+46)
(-7.9601919e+46 7.3110866e+45 1.6368899e+46)
(-8.8908945e+46 6.3838966e+45 2.4296776e+46)
(-7.0939593e+46 1.2784842e+45 1.7605711e+46)
(-7.0679476e+46 5.4624741e+45 1.6920992e+46)
(-7.9852134e+46 4.011481e+45 2.2246371e+46)
(-7.9588471e+46 4.0672504e+45 2.2548603e+46)
(-7.0143758e+46 2.0355365e+45 1.6795538e+46)
(-7.0175252e+46 6.2387218e+45 1.6571405e+46)
(-7.9326698e+46 4.2434778e+45 2.1632649e+46)
(-7.9036998e+46 4.1502661e+45 2.1623662e+46)
(-1.0280898e+47 8.901692e+45 -1.1225514e+46)
(-1.0895233e+47 4.8401914e+45 7.3944578e+45)
(-1.0506465e+47 1.0802085e+46 5.6104125e+45)
(-1.0041051e+47 6.6899408e+45 -1.3722885e+46)
(-1.093905e+47 9.9503198e+45 -5.8174574e+45)
(-1.0926657e+47 7.5241952e+45 -5.5403314e+45)
(-1.0889484e+47 1.3157456e+46 1.7111191e+46)
(-1.1311038e+47 5.4308465e+45 1.7570722e+46)
(-1.0792003e+47 6.4287052e+45 -5.3986258e+45)
(-1.0740426e+47 1.2072406e+46 1.6115538e+46)
(-1.0940341e+47 4.6923295e+45 1.6679872e+46)
(-1.0804932e+47 9.0257904e+45 -6.6124258e+45)
(-9.6539429e+46 8.1851363e+45 1.7493698e+46)
(-9.4458734e+46 5.9366928e+45 2.9895266e+44)
(-9.6150891e+46 4.8723705e+45 1.7072586e+45)
(-9.6654459e+46 2.5400102e+45 1.711504e+46)
(-9.4166632e+46 6.1190774e+45 -1.5317255e+44)
(-9.4787126e+46 4.2632918e+45 7.6212999e+44)
(-9.6734835e+46 2.6451397e+45 1.7071789e+46)
(-9.7274106e+46 7.9781403e+45 1.7061248e+46)
(-9.2609606e+46 6.8549429e+45 6.8051751e+45)
(-8.8839384e+46 3.9839809e+45 -5.8050062e+45)
(-8.8572738e+46 6.1677842e+45 -6.1145752e+45)
(-9.3120713e+46 3.5053888e+45 6.6418208e+45)
(-9.3844584e+46 7.624566e+45 8.1116722e+45)
(-8.9149084e+46 5.5823823e+45 -5.3711315e+45)
(-8.9957617e+46 4.5051615e+45 -4.1530682e+45)
(-9.3582991e+46 3.2723509e+45 7.337139e+45)
(-8.9768711e+46 6.5001011e+45 2.327082e+45)
(-8.8633363e+46 5.8808002e+45 -7.1552146e+45)
(-8.8746431e+46 3.8547538e+45 -6.3045199e+45)
(-9.0397405e+46 3.5101189e+45 1.8524894e+45)
(-9.1207567e+46 3.5518309e+45 1.3588597e+45)
(-9.057912e+46 6.2294932e+45 2.0709356e+45)
(-8.7276269e+46 3.564583e+45 -7.0166098e+45)
(-8.7411867e+46 5.2218458e+45 -7.916692e+45)
(-1.0131484e+47 1.0395961e+46 2.2824888e+45)
(-8.7841108e+46 5.529024e+45 -8.7003759e+45)
(-8.7958679e+46 3.3885502e+45 -8.3236906e+45)
(-9.1206585e+46 5.9733328e+45 8.5707908e+44)
(-1.034626e+47 4.940583e+45 1.2945534e+45)
(-9.1412792e+46 3.6215423e+45 5.9875055e+44)
(-8.8124671e+46 5.8409004e+45 -8.2074159e+45)
(-8.8224115e+46 3.2783893e+45 -7.9240429e+45)
(-8.8825052e+46 6.2583224e+45 5.9240116e+44)
(-8.910784e+46 3.9743306e+45 5.3442904e+44)
(-9.5672379e+46 8.8812855e+45 -1.5161835e+46)
(-9.8078921e+46 6.9310888e+45 -1.2737502e+46)
(-8.9784058e+46 6.2833367e+45 1.8069633e+45)
(-8.8285082e+46 6.0405175e+45 -8.1685969e+45)
(-8.8828672e+46 3.6137006e+45 -7.3422202e+45)
(-8.9927277e+46 3.5746735e+45 1.3443357e+45)
(-8.8069009e+46 5.3025821e+45 -8.6911408e+45)
(-8.9040287e+46 3.5003847e+45 -7.948218e+45)
(-9.1429036e+46 3.5341795e+45 6.1674451e+44)
(-9.1456033e+46 6.0886917e+45 1.1331363e+45)
(-1.0452331e+47 1.0478354e+46 1.7336067e+45)
(-1.023876e+47 5.6884317e+45 8.3220677e+44)
(-9.6237886e+46 6.5636247e+45 -1.4376465e+46)
(-9.4593372e+46 9.8490184e+45 -1.5208421e+46)
(-8.9272078e+46 8.2718964e+45 -1.4285491e+45)
(-1.0564618e+47 1.2535682e+46 8.6506101e+45)
(-1.294713e+47 1.2480374e+46 1.8606448e+46)
(-8.5470507e+46 1.0034618e+46 -1.1799932e+45)
(-1.0352586e+47 5.1507411e+45 7.8070945e+45)
(-8.8253502e+46 1.2104803e+46 -2.8262907e+46)
(-8.8503174e+46 6.6531312e+45 -2.9410108e+46)
(-1.3135586e+47 7.6844364e+45 1.800436e+46)
(-1.0167191e+47 1.1825907e+46 8.7143576e+45)
(-8.439649e+46 8.4069849e+45 -5.7339231e+44)
(-8.4439619e+46 1.0116317e+46 -9.4751186e+44)
(-1.0221149e+47 5.360724e+45 8.3540287e+45)
(-9.3212291e+46 7.3172735e+45 7.3796164e+45)
(-8.892188e+46 5.6395726e+45 -5.5153526e+45)
(-8.9871442e+46 4.5646563e+45 -4.2768072e+45)
(-9.316934e+46 3.192033e+45 6.705782e+45)
(-9.5712558e+46 7.6366582e+45 1.6734889e+46)
(-9.4431358e+46 5.9507806e+45 1.7585206e+44)
(-9.5687093e+46 4.5666072e+45 1.1401764e+45)
(-9.6180445e+46 2.350521e+45 1.6528619e+46)
(-7.9535256e+46 4.3812469e+45 1.304101e+46)
(-7.8860171e+46 3.9356419e+45 1.281492e+46)
(-7.9411983e+46 3.7089492e+45 1.2966913e+46)
(-7.9630416e+46 4.2248068e+45 1.3648493e+46)
(-7.9646573e+46 4.0258151e+45 1.3308699e+46)
(-7.9093793e+46 3.578028e+45 1.2574636e+46)
(-7.9556424e+46 4.1563917e+45 1.310977e+46)
(-7.8748094e+46 3.6214419e+45 1.2920165e+46)
(-7.9420494e+46 3.9774537e+45 1.3054977e+46)
(-7.8805585e+46 3.4459762e+45 1.2929754e+46)
(-7.9325306e+46 4.4464268e+45 1.3749476e+46)
(-7.9100988e+46 3.5957354e+45 1.3151023e+46)
(-9.1833971e+46 5.583328e+45 1.403592e+46)
(-9.2588867e+46 6.1647801e+45 1.4155675e+46)
(-9.1856806e+46 6.4118117e+45 1.3946916e+46)
(-9.1487199e+46 5.9132813e+45 1.3232807e+46)
(-9.1525001e+46 6.7790245e+45 1.3326899e+46)
(-9.1844143e+46 7.812012e+45 1.4258791e+46)
(-9.3049082e+46 6.9212148e+45 1.3871138e+46)
(-9.1671507e+46 6.2711264e+45 1.3396281e+46)
(-1.2673874e+47 1.1549022e+46 -1.6167768e+46)
(-1.2782805e+47 1.0325615e+46 -1.6159583e+46)
(-1.3421548e+47 1.1197632e+46 -1.0330696e+46)
(-1.3548237e+47 1.154488e+46 -1.1059675e+46)
(-1.1080014e+47 5.2354294e+45 -1.5746976e+46)
(-8.165289e+46 4.0423238e+45 -9.6891011e+45)
(-8.0940535e+46 3.0417049e+45 -1.0163951e+46)
(-9.224218e+46 8.7049312e+45 -1.6502549e+46)
(-9.2444531e+46 2.6448593e+45 -1.628369e+46)
(-4.2452302e+46 2.6896921e+45 -1.745801e+46)
(-4.2591262e+46 2.4933629e+45 -1.7304681e+46)
(-4.5272743e+46 1.5248824e+45 -1.0124081e+46)
(-4.5478751e+46 5.4983574e+45 -9.8051738e+45)
(-4.2438509e+46 2.7507042e+45 -1.7420638e+46)
(-4.2609613e+46 2.6031995e+45 -1.734651e+46)
(-4.5482575e+46 1.8727112e+45 -9.9459675e+45)
(-4.5484887e+46 5.986102e+45 -1.0105593e+46)
(-3.8539209e+46 2.1667168e+45 4.1474097e+45)
(-3.8774731e+46 5.3320958e+45 3.8953746e+45)
(-5.0707558e+46 6.9010523e+45 1.9207321e+46)
(-5.0432807e+46 -7.7159605e+44 1.9256139e+46)
(-4.9998691e+46 3.7907118e+44 1.9030212e+46)
(-4.9596977e+46 7.8253124e+45 1.8445811e+46)
(-3.8715388e+46 2.9026999e+45 4.1226514e+45)
(-3.7907126e+46 6.0938446e+45 2.5365876e+45)
(-8.8814154e+46 4.5445087e+45 -2.4198909e+46)
(-8.8470732e+46 4.4666485e+45 -2.4024995e+46)
(-1.0676685e+47 6.2283696e+45 -2.0415376e+46)
(-9.7244473e+46 5.8798185e+45 -3.6099133e+45)
(-9.3355001e+46 7.5792033e+45 -2.3090817e+45)
(-1.0592408e+47 4.8496451e+45 -1.97623e+46)
(-9.5093564e+46 3.0009203e+45 -1.7184572e+46)
(-8.956318e+46 9.3679533e+45 -1.6346979e+46)
(-1.0936597e+47 5.2834824e+45 -1.5067187e+46)
(-8.0237809e+46 3.1842809e+45 -9.9367878e+45)
(-8.0501289e+46 4.1066867e+45 -9.6995665e+45)
(-1.1051779e+47 4.9229378e+45 -1.529611e+46)
(-8.0595433e+46 3.0285183e+45 -9.9144892e+45)
(-8.032431e+46 3.9419038e+45 -9.6421641e+45)
(-7.1187241e+46 4.0806465e+45 -1.9969612e+46)
(-7.1678446e+46 4.1326033e+45 -1.9882961e+46)
(-6.5534348e+46 6.4979173e+45 -1.1465497e+46)
(-6.5901702e+46 1.987846e+45 -1.1214115e+46)
(-8.6507893e+46 3.8565369e+45 -2.3071313e+46)
(-8.740115e+46 3.8977759e+45 -2.3325923e+46)
(-8.7888429e+46 4.2072545e+45 -2.3823048e+46)
(-8.780347e+46 4.217189e+45 -2.3463086e+46)
(-5.7103867e+46 6.7945351e+45 -1.2373486e+46)
(-4.25461e+46 3.2558565e+45 -1.7008483e+46)
(-4.2555191e+46 3.0114699e+45 -1.7006448e+46)
(-4.3880518e+46 1.2569086e+45 -9.9258879e+45)
(-4.3831156e+46 4.9158068e+45 -9.7760799e+45)
(-4.2605073e+46 2.9932853e+45 -1.7014186e+46)
(-4.2623563e+46 2.81011e+45 -1.7124395e+46)
(-4.4475002e+46 1.2122823e+45 -9.8021777e+45)
(-4.4223586e+46 5.146705e+45 -1.0071979e+46)
(-3.7397613e+46 1.3934845e+45 3.7936059e+45)
(-3.7607953e+46 4.3885258e+45 3.9664812e+45)
(-4.9634752e+46 -1.4728182e+45 1.8187736e+46)
(-4.9849245e+46 5.592915e+45 1.811986e+46)
(-5.4440343e+46 9.4922067e+45 1.3657145e+46)
(-5.8265155e+46 1.9300246e+45 -1.2110676e+46)
(-5.6713734e+46 -5.3681621e+44 1.5299707e+46)
(-3.8040715e+46 1.7639991e+45 3.9315353e+45)
(-4.9862189e+46 -7.618025e+44 1.8110474e+46)
(-4.9195553e+46 6.2754696e+45 1.762085e+46)
(-3.7044206e+46 4.7641982e+45 2.751629e+45)
(-5.8826601e+46 1.9587171e+45 -1.2694307e+46)
(-5.7849738e+46 7.1511841e+45 -1.2568033e+46)
(-5.7283583e+46 -8.198159e+44 1.5145104e+46)
(-5.555254e+46 9.884054e+45 1.4167676e+46)
(-7.237852e+46 4.8445961e+45 -2.0592048e+46)
(-7.1920295e+46 4.9332216e+45 -2.0679534e+46)
(-6.6029284e+46 6.911949e+45 -1.1482333e+46)
(-6.665241e+46 2.4498277e+45 -1.1748735e+46)
(-4.2266863e+46 2.8324613e+45 -1.712201e+46)
(-4.2360468e+46 2.7018395e+45 -1.7006742e+46)
(-4.4628562e+46 1.308724e+45 -9.7941103e+45)
(-4.4625788e+46 5.3305617e+45 -9.7036763e+45)
(-4.2339975e+46 2.8502604e+45 -1.7200535e+46)
(-4.2389046e+46 2.5682979e+45 -1.7229899e+46)
(-4.4752019e+46 1.6699965e+45 -9.9356172e+45)
(-4.4478048e+46 5.4261525e+45 -1.0213089e+46)
(-3.7917697e+46 2.508259e+45 3.7373405e+45)
(-3.735372e+46 5.2556424e+45 2.8662942e+45)
(-4.9545248e+46 -9.5563178e+43 1.8239871e+46)
(-4.8967116e+46 6.5780364e+45 1.7498197e+46)
(-3.7811524e+46 1.8948738e+45 3.9567755e+45)
(-5.030708e+46 -7.285104e+44 1.8602899e+46)
(-3.7720739e+46 5.0986386e+45 3.5430602e+45)
(-4.9818907e+46 6.6898594e+45 1.8207885e+46)
(-1.0551182e+47 7.5117123e+45 -1.9614783e+46)
(-9.4276979e+46 7.701191e+45 -3.9715793e+45)
(-9.4241273e+46 9.5004924e+45 -2.8460187e+45)
(-1.0559171e+47 6.3662434e+45 -1.9437253e+46)
(-7.2734997e+46 6.2519025e+45 -2.0337055e+46)
(-7.2169441e+46 6.2768992e+45 -2.0309774e+46)
(-6.6188447e+46 7.9117294e+45 -1.1386239e+46)
(-6.6763046e+46 3.4808259e+45 -1.1529899e+46)
(-7.1820778e+46 5.6570374e+45 -2.00013e+46)
(-7.1538605e+46 5.5040003e+45 -2.0124879e+46)
(-6.5809412e+46 7.5695299e+45 -1.1467185e+46)
(-6.6363932e+46 2.9517782e+45 -1.1293867e+46)
(-5.8340147e+46 2.5642449e+45 -1.210781e+46)
(-5.6550455e+46 -1.0821561e+44 1.5081831e+46)
(-5.7323206e+46 7.5675448e+45 -1.2473786e+46)
(-5.4235819e+46 9.8934665e+45 1.3552272e+46)
(-5.8064573e+46 2.7858236e+45 -1.197293e+46)
(-5.5612432e+46 -3.6104668e+43 1.4600615e+46)
(-5.7087254e+46 7.871668e+45 -1.2213848e+46)
(-5.434205e+46 1.0122945e+46 1.3893695e+46)
(-6.9051869e+46 1.6611996e+45 1.6010551e+46)
(-6.8870678e+46 5.1106496e+45 1.6006945e+46)
(-7.731861e+46 4.2830293e+45 2.0804445e+46)
(-7.7250928e+46 4.5595358e+45 2.0545392e+46)
(-5.6976764e+46 4.1674824e+45 1.8723577e+46)
(-5.6598723e+46 -1.9953442e+44 1.9101114e+46)
(-6.9265458e+46 3.0536878e+45 1.7918105e+46)
(-6.9952669e+46 3.2890727e+45 1.859992e+46)
(-5.6356232e+46 4.5240531e+45 1.8633186e+46)
(-5.6449629e+46 -8.8395727e+43 1.8741136e+46)
(-6.9562166e+46 2.8656508e+45 1.7856156e+46)
(-6.9666215e+46 3.213149e+45 1.7864554e+46)
(-5.7107932e+46 4.4559161e+45 1.8783153e+46)
(-5.6771574e+46 -3.1721808e+44 1.9385291e+46)
(-7.0120398e+46 2.8261308e+45 1.8337334e+46)
(-7.0243006e+46 3.2682675e+45 1.7995868e+46)
(-5.5836779e+46 4.8548551e+45 1.8503577e+46)
(-5.6001523e+46 2.8821826e+44 1.8714219e+46)
(-6.9669696e+46 3.0509172e+45 1.8313441e+46)
(-6.9516206e+46 3.1845638e+45 1.7737996e+46)
(-6.9495423e+46 1.6988509e+45 1.632716e+46)
(-6.8422043e+46 5.5821095e+45 1.5389466e+46)
(-7.7835681e+46 4.7662672e+45 2.0426506e+46)
(-7.7967955e+46 4.7802144e+45 2.088503e+46)
(-5.8291723e+46 4.4372126e+45 1.917659e+46)
(-5.8280737e+46 -1.1926544e+44 1.9453795e+46)
(-7.0099753e+46 2.8314163e+45 1.8244675e+46)
(-7.1256803e+46 3.2199741e+45 1.869243e+46)
(-5.6305758e+46 1.3080519e+44 1.9077108e+46)
(-5.5847102e+46 5.0733867e+45 1.8711479e+46)
(-6.9811043e+46 3.0226398e+45 1.7784847e+46)
(-6.9981479e+46 3.424204e+45 1.7795829e+46)
(-5.7334566e+46 4.7678821e+45 1.9122385e+46)
(-5.6624143e+46 9.6214919e+43 1.9453298e+46)
(-7.0494346e+46 3.0786872e+45 1.8554466e+46)
(-7.0751212e+46 3.4456197e+45 1.8626675e+46)
(-5.6095872e+46 4.9011073e+45 1.8852142e+46)
(-5.6090044e+46 4.6878969e+44 1.9018828e+46)
(-6.9601378e+46 3.2066699e+45 1.7968172e+46)
(-6.9720414e+46 3.3444472e+45 1.8015087e+46)
(-6.9380128e+46 1.4162803e+45 1.6539474e+46)
(-6.8201527e+46 5.5538492e+45 1.5643796e+46)
(-7.7074352e+46 4.9474668e+45 2.0996503e+46)
(-7.7263447e+46 5.0136286e+45 2.0642129e+46)
(-6.8808287e+46 1.8633005e+45 1.5983336e+46)
(-6.7699728e+46 5.6938419e+45 1.554432e+46)
(-7.7135116e+46 4.9057744e+45 2.0422884e+46)
(-7.7540279e+46 4.9967946e+45 2.0753574e+46)
(-7.8722395e+46 7.7094422e+45 1.6200939e+46)
(-6.9819221e+46 1.6575901e+45 1.7265716e+46)
(-6.8464933e+46 5.7835859e+45 1.620899e+46)
(-7.6878968e+46 5.7414314e+45 2.0678932e+46)
(-7.6911425e+46 5.7942045e+45 2.1117807e+46)
(-6.9133488e+46 2.2060316e+45 1.6644764e+46)
(-6.8508965e+46 5.9947491e+45 1.6340511e+46)
(-7.7099086e+46 5.3961679e+45 2.0849465e+46)
(-7.705423e+46 5.5395082e+45 2.0748352e+46)
(-7.0018864e+46 1.8306036e+45 1.7070969e+46)
(-7.7754593e+46 5.2914338e+45 2.1023017e+46)
(-6.8658623e+46 5.9373215e+45 1.6135897e+46)
(-7.7748965e+46 5.3947097e+45 2.0833585e+46)
(-6.9341039e+46 2.1428646e+45 1.655655e+46)
(-6.8181728e+46 5.6729995e+45 1.6061195e+46)
(-7.7011344e+46 5.0432064e+45 2.0874284e+46)
(-7.7247855e+46 5.3629633e+45 2.0841767e+46)
(-5.7091746e+46 4.5541905e+45 1.9396661e+46)
(-5.7181422e+46 -5.129395e+43 1.9915054e+46)
(-7.0458805e+46 3.2730677e+45 1.8507369e+46)
(-7.0484152e+46 2.9592286e+45 1.8904856e+46)
(-5.7203493e+46 5.1519158e+45 1.9085182e+46)
(-5.681684e+46 5.6843618e+44 1.9243935e+46)
(-7.0403298e+46 3.0538074e+45 1.8214048e+46)
(-7.0951393e+46 3.4483016e+45 1.8578621e+46)
(-5.7021616e+46 1.3527945e+44 1.985552e+46)
(-7.0608249e+46 3.1354468e+45 1.8683954e+46)
(-7.0716322e+46 3.6602724e+45 1.8241484e+46)
(-5.7301545e+46 5.373315e+45 1.9113458e+46)
(-5.5981215e+46 1.2015985e+45 1.8996853e+46)
(-5.5892115e+46 5.8121161e+45 1.8769982e+46)
(-7.0081092e+46 3.7659009e+45 1.800458e+46)
(-7.0058133e+46 3.4985171e+45 1.8578158e+46)
(-1.4749719e+47 8.9621364e+45 -2.2946001e+46)
(-9.0214707e+46 4.7067839e+45 1.3197284e+45)
(-1.0551579e+47 5.4838078e+45 3.1323194e+45)
(-9.9956614e+46 9.7999336e+45 -1.2449109e+46)
(-8.8038882e+46 4.1659556e+45 -8.2221435e+45)
(-8.6882847e+46 5.5779071e+45 -8.9509703e+45)
(-9.0125062e+46 6.5906676e+45 1.2813992e+45)
(-9.001533e+46 3.7009452e+45 1.184224e+45)
(-8.7275507e+46 6.1404563e+45 -7.7416701e+45)
(-8.7773443e+46 4.1030838e+45 -7.2390838e+45)
(-8.8181544e+46 7.0400549e+45 9.0288868e+44)
(-8.8619037e+46 4.2558526e+45 9.117941e+44)
(-8.8891768e+46 6.9207207e+45 1.3010229e+45)
(-8.7041028e+46 6.4950245e+45 -8.3845177e+45)
(-8.9233759e+46 4.1498949e+45 1.0734117e+45)
(-8.7784986e+46 4.2609186e+45 -7.3991249e+45)
(-8.7084463e+46 6.0702132e+45 -9.582488e+45)
(-9.0159865e+46 4.0588378e+45 6.6316506e+44)
(-9.3314951e+46 8.2383471e+45 6.6833462e+45)
(-8.9619031e+46 5.4177775e+45 -5.3868688e+45)
(-9.3663325e+46 4.4101702e+45 6.4311112e+45)
(-8.9474058e+46 6.8275849e+45 -5.1332397e+45)
(-8.8509509e+46 6.95787e+45 -5.6948809e+45)
(-9.1489578e+46 9.291612e+45 6.8867567e+45)
(-9.267483e+46 4.9402741e+45 6.6137209e+45)
(-9.3085053e+46 7.6377561e+45 -2.3488516e+44)
(-9.3932178e+46 6.6441912e+45 8.1261925e+44)
(-9.3294213e+46 1.0222194e+46 1.551937e+46)
(-9.4894779e+46 4.6189842e+45 1.5560745e+46)
(-9.5029999e+46 5.4967615e+45 6.084346e+44)
(-9.5034213e+46 9.6222441e+45 1.5354223e+46)
(-9.3955394e+46 6.8717087e+45 -1.4251686e+44)
(-9.5569427e+46 4.0341064e+45 1.5577145e+46)
(-8.894294e+46 4.9202407e+45 -4.9367327e+45)
(-9.1651737e+46 7.865986e+45 6.402934e+45)
(-9.2278422e+46 3.87129e+45 6.0955692e+45)
(-8.787822e+46 6.1527292e+45 -5.942303e+45)
(-9.3636471e+46 5.0841042e+45 1.1136462e+44)
(-9.3412599e+46 8.6666368e+45 1.5175412e+46)
(-9.2918634e+46 6.5261331e+45 -2.5725457e+44)
(-9.4806974e+46 3.4598272e+45 1.5495483e+46)
(-9.3301802e+46 6.5121627e+45 -1.8514037e+44)
(-9.357226e+46 4.7836445e+45 1.9327702e+44)
(-9.4298002e+46 8.8957825e+45 1.5999908e+46)
(-9.4846941e+46 3.5226206e+45 1.6053532e+46)
(-8.8058788e+46 6.2846465e+45 -5.8236082e+45)
(-9.1240021e+46 7.4985647e+45 6.3550991e+45)
(-8.8525682e+46 4.6235479e+45 -5.4465908e+45)
(-9.2051634e+46 3.8200349e+45 6.4135411e+45)
(-1.0760547e+47 5.8098612e+45 9.2293958e+45)
(-8.9693893e+46 1.0486274e+46 -2.3495804e+45)
(-8.0741799e+46 4.0399595e+45 5.3816578e+45)
(-8.1185809e+46 6.3669609e+45 1.6244834e+46)
(-8.0276504e+46 4.4786689e+45 4.7902369e+45)
(-8.1819998e+46 1.9574483e+45 1.6181852e+46)
(-7.6866252e+46 3.5352796e+45 -8.1981325e+44)
(-7.6251911e+46 4.2884055e+45 -1.0967292e+45)
(-7.9385203e+46 5.3319634e+45 8.7717365e+45)
(-7.9474195e+46 2.3171446e+45 8.711789e+45)
(-7.6837657e+46 4.0275252e+45 -3.2447707e+44)
(-7.9598645e+46 6.1242424e+45 9.3248629e+45)
(-7.6573675e+46 4.3953907e+45 -7.7510404e+44)
(-7.9881595e+46 2.6910257e+45 8.997251e+45)
(-8.0583549e+46 3.4650817e+45 4.7758679e+45)
(-8.1199334e+46 5.9721244e+45 1.5599959e+46)
(-8.0159073e+46 4.1651922e+45 4.594945e+45)
(-8.1506368e+46 1.7735954e+45 1.5851688e+46)
(-7.6726793e+46 3.5990047e+45 -1.0115479e+45)
(-7.613661e+46 4.5726002e+45 -1.2070088e+45)
(-7.9387228e+46 5.381808e+45 8.623068e+45)
(-7.9526473e+46 2.4727019e+45 8.6503234e+45)
(-7.6614875e+46 3.3895638e+45 -9.8472928e+44)
(-8.0074821e+46 5.464715e+45 8.7141e+45)
(-7.6386173e+46 4.2285542e+45 -1.2756633e+45)
(-8.0247748e+46 2.4363955e+45 8.4930907e+45)
(-8.0573942e+46 3.4294507e+45 4.668954e+45)
(-8.0049462e+46 4.2432773e+45 4.5817502e+45)
(-8.1542362e+46 6.1113729e+45 1.5654139e+46)
(-8.1634135e+46 1.896474e+45 1.5934464e+46)
(-8.1622192e+46 5.7781062e+45 1.5669504e+46)
(-8.0898686e+46 3.4667996e+45 4.738585e+45)
(-8.034147e+46 4.2288528e+45 4.3456346e+45)
(-8.2012832e+46 1.7171354e+45 1.5610064e+46)
(-7.3799731e+46 3.1077612e+45 -3.9828337e+45)
(-7.5520252e+46 4.8252736e+45 3.1551375e+45)
(-7.3510614e+46 4.5989741e+45 -4.2323406e+45)
(-7.5733333e+46 2.7762278e+45 3.0222427e+45)
(-7.1741559e+46 3.2256926e+45 -4.5686525e+45)
(-7.1581138e+46 4.3016171e+45 -4.7813784e+45)
(-7.3939227e+46 4.7680232e+45 1.4903572e+45)
(-7.4056615e+46 2.9865641e+45 1.3353e+45)
(-7.1947866e+46 3.5823021e+45 -4.4930928e+45)
(-7.1373402e+46 4.7947967e+45 -4.7732101e+45)
(-7.4065046e+46 5.0643004e+45 1.5363856e+45)
(-7.3897361e+46 3.3464371e+45 1.3485851e+45)
(-7.3899618e+46 3.374808e+45 -3.8775432e+45)
(-7.3399512e+46 4.8053309e+45 -4.1496044e+45)
(-7.5342727e+46 5.204247e+45 2.9282124e+45)
(-7.5252159e+46 3.1733019e+45 2.8602604e+45)
(-7.4172514e+46 3.7877998e+45 -3.2833677e+45)
(-7.5746226e+46 5.5253533e+45 3.7477179e+45)
(-7.377674e+46 4.7453528e+45 -3.7200909e+45)
(-7.5934964e+46 2.9820544e+45 3.4943574e+45)
(-7.2213081e+46 3.3793379e+45 -4.211137e+45)
(-7.1682592e+46 4.2763822e+45 -4.4945233e+45)
(-7.4233439e+46 4.8287108e+45 1.8256047e+45)
(-7.4103601e+46 2.8445689e+45 1.6585717e+45)
(-7.2080709e+46 3.8468913e+45 -3.8370375e+45)
(-7.4466789e+46 5.4893429e+45 2.259787e+45)
(-7.1853938e+46 4.4335313e+45 -4.1885851e+45)
(-7.4463662e+46 3.1945313e+45 1.9369377e+45)
(-7.4131912e+46 3.21505e+45 -3.6957965e+45)
(-7.3609151e+46 4.4189316e+45 -3.9689154e+45)
(-7.5427688e+46 5.0983155e+45 3.1210925e+45)
(-7.5359604e+46 2.8889376e+45 2.9973629e+45)
(-7.1984569e+46 3.6532755e+45 -4.5253991e+45)
(-7.2948045e+46 5.1299156e+45 8.0548719e+44)
(-7.1732439e+46 4.645536e+45 -4.8941391e+45)
(-7.3003696e+46 3.1751003e+45 5.9480599e+44)
(-7.2101205e+46 3.2025548e+45 -4.7663118e+45)
(-7.1800979e+46 4.1622845e+45 -5.0601156e+45)
(-7.3998455e+46 4.5851266e+45 4.2556185e+44)
(-7.3833663e+46 2.9845128e+45 1.8839226e+44)
(-7.1856706e+46 3.6647351e+45 -4.4794311e+45)
(-7.3806056e+46 5.119987e+45 6.9470254e+44)
(-7.179789e+46 4.299566e+45 -4.8095487e+45)
(-7.3786829e+46 3.2485522e+45 4.0945623e+44)
(-7.2142506e+46 3.1523468e+45 -4.7736805e+45)
(-7.1717721e+46 4.325425e+45 -5.0544402e+45)
(-7.2880621e+46 4.7424126e+45 2.8918353e+44)
(-7.2733358e+46 2.9994543e+45 1.4262543e+44)
(-7.3152139e+46 2.92301e+45 -4.2190681e+45)
(-7.4231385e+46 4.4827849e+45 -4.1987942e+44)
(-7.2898319e+46 4.1806216e+45 -4.5731504e+45)
(-7.4207326e+46 3.133013e+45 -6.8572452e+44)
(-7.2768274e+46 3.3538137e+45 -3.7956503e+45)
(-7.4022899e+46 4.7229488e+45 -1.036747e+44)
(-7.2775761e+46 4.27392e+45 -4.1118095e+45)
(-7.4126657e+46 3.1059844e+45 -3.05385e+44)
(-7.6388591e+46 4.565733e+45 4.9179545e+44)
(-7.659537e+46 2.9005522e+45 3.0273908e+44)
(-8.815106e+46 5.4835307e+45 4.1855643e+43)
(-7.4689736e+46 2.9694968e+45 -6.4969233e+45)
(-7.4829453e+46 3.5955569e+45 -6.692518e+45)
(-7.7141856e+46 4.2995919e+45 2.5554311e+44)
(-7.6638043e+46 2.932221e+45 -2.7357946e+44)
(-8.910542e+46 3.1397008e+45 -4.0772397e+44)
(-7.4853274e+46 3.6853172e+45 -7.226221e+45)
(-7.5241354e+46 2.7024881e+45 -6.2823137e+45)
(-8.6567702e+46 5.3081244e+45 -9.8097421e+45)
(-8.6362392e+46 3.0447689e+45 -8.9339665e+45)
(-7.711843e+46 4.4830025e+45 -1.0206276e+44)
(-7.6337996e+46 3.1560143e+45 -5.4942686e+44)
(-8.9945646e+46 3.6989792e+45 -1.3190886e+45)
(-7.4716406e+46 3.9336271e+45 -7.399807e+45)
(-7.5509789e+46 2.9197762e+45 -6.4913355e+45)
(-7.7116227e+46 4.2944807e+45 -1.6496398e+44)
(-7.6630264e+46 2.857333e+45 -5.6642203e+44)
(-8.9762352e+46 5.6612121e+45 -1.0311121e+45)
(-7.4966791e+46 3.5409841e+45 -7.4122323e+45)
(-7.5569873e+46 2.666249e+45 -6.6597389e+45)
(-7.3102485e+46 3.0005119e+45 -4.5067132e+45)
(-7.3540384e+46 4.0766296e+45 -1.0197162e+45)
(-7.2794739e+46 4.2147872e+45 -4.7828467e+45)
(-7.3610198e+46 2.8890839e+45 -1.1450484e+45)
(-8.7472599e+46 2.7487557e+45 -1.0253837e+46)
(-8.7452351e+46 5.6943553e+45 -1.0742542e+46)
(-7.321206e+46 3.0597571e+45 -4.4226023e+45)
(-7.3661851e+46 4.5476213e+45 -8.7730884e+44)