/*--------------------------------*- C++ -*----------------------------------*\
  =========                 |
  \\      /  F ield         | OpenFOAM: The Open Source CFD Toolbox
   \\    /   O peration     | Website:  https://openfoam.org
    \\  /    A nd           | Version:  7
     \\/     M anipulation  |
\*---------------------------------------------------------------------------*/
FoamFile
{
    version     2.0;
    format      ascii;
    class       volScalarField;
    location    "10000";
    object      omega;
}
// * * * * * * * * * * * * * * * * * * * * * * * * * * * * * * * * * * * * * //

dimensions      [0 0 -1 0 0 0 0];

internalField   nonuniform List<scalar> 
34158
(
460.17642
458.31255
459.76933
458.66392
429.56288
432.8713
453.53965
450.98912
544.48818
541.8478
428.90026
431.18097
452.77687
450.2904
448.71724
420.23257
461.82553
423.07095
444.06794
442.86305
419.98708
420.22154
542.63291
542.43953
420.37321
479.33108
477.46868
420.46069
768.48614
916.70052
903.32792
759.27654
768.13716
912.73075
393.24408
393.40445
448.40687
451.85384
463.87131
419.31812
458.81919
421.10082
443.84152
441.69205
566.96703
567.44943
504.70142
444.15161
413.34599
550.5088
450.20632
414.98077
433.05513
432.84003
421.55763
422.74244
397.51653
399.90637
412.07586
412.31384
392.01297
538.67419
477.5663
419.78461
419.57571
476.84958
772.38637
912.17341
907.7701
762.34959
759.11348
905.77505
915.28226
771.04006
485.32341
668.21156
664.98898
553.78518
553.02409
558.45413
672.57011
488.79238
1151.4987
1182.8316
1386.6411
1344.1255
1578.0241
1630.8816
1794.4509
1591.6293
1560.2017
1779.8455
1821.1013
1137.0922
1328.2589
1148.3936
1350.3567
1144.8201
1151.3396
1349.7667
1345.8524
1806.7708
1587.7397
1793.4093
1576.601
394.15339
393.95308
383.58644
384.77292
404.71002
405.13113
419.93862
421.66691
440.50637
442.32443
568.32389
568.887
512.48919
451.02339
411.71055
574.41122
450.81403
414.2249
433.63055
432.14306
544.15414
758.7509
744.767
544.69189
756.90708
750.22707
576.2201
509.28921
436.55732
407.05166
603.45516
547.11931
438.37293
407.80312
422.9099
422.8446
400.15788
400.39664
412.97082
413.79013
407.9095
392.62035
414.13895
394.55533
2305.0773
2329.6125
388.37135
391.99543
2140.5199
474.00481
418.18244
765.06252
902.03286
908.41171
772.75094
668.46429
552.61238
552.01083
664.40752
488.17774
483.89665
662.89556
668.12623
551.61827
556.10519
1387.7544
1181.1725
1158.9353
1348.4
1839.056
1638.6199
1585.9366
1785.3352
1786.705
1575.9278
1596.2567
1820.4473
1154.8326
1140.903
1340.1183
1357.9341
1347.3982
1153.5899
1142.1804
1339.594
1595.4659
1813.6309
1577.3934
1797.0263
1645.3459
1603.3059
1824.6274
1162.308
1363.8202
1394.0509
1196.5007
486.15499
640.26796
642.10391
1032.6526
1019.0454
802.80078
799.08691
1009.3206
795.04356
800.54904
1019.2228
642.20776
1019.6024
1018.4695
799.09271
798.18865
490.09177
1525.8499
1528.6631
1767.6238
1768.4272
1592.8131
1631.8681
1852.3122
1901.8938
2256.5138
2475.6675
2432.395
2199.3848
2099.1112
2337.1803
2329.2373
2092.4327
2675.2517
2688.6863
2909.144
2885.824
2787.5345
2820.2036
3013.051
2993.1105
3401.7285
3287.895
3320.5128
3516.6441
3486.5981
2742.9135
2760.2859
2994.4158
2965.6127
2665.0834
2664.606
2881.5091
2899.6821
3488.181
3289.5741
3316.849
3511.7657
3622.2385
3421.2041
3373.9286
3569.0573
1494.6555
1502.0467
1741.5444
1740.0536
2067.3916
2311.3456
2310.5352
2064.8535
1786.2295
1533.3283
1542.0477
1798.9704
2135.4611
2138.3511
2388.7871
2384.9324
1514.2671
1506.2149
1743.7438
1782.8527
1524.4383
1543.13
1791.586
1778.1961
2363.3173
2126.788
2114.5207
2365.5621
2106.0972
2064.0508
2306.0018
2351.8608
3499.9766
3334.289
3379.3648
3578.3293
2920.9761
2712.2722
2723.9875
2954.5825
3453.9654
3278.3179
3330.3697
3536.3439
2874.1574
2651.1345
2698.1507
2925.1895
385.67736
393.49111
393.64021
385.17342
385.57538
406.00673
405.6034
388.32287
388.0255
387.74634
389.64553
441.66954
440.69881
456.4589
411.6938
457.34346
412.72304
430.84653
431.94791
544.06245
760.55152
749.01287
544.89066
760.63766
756.49327
589.27646
530.00369
441.84872
405.88116
610.01792
532.36295
439.78332
408.17782
422.62977
422.02243
508.55972
761.74719
753.90904
728.44253
738.499
509.16393
759.60129
759.14282
736.76913
733.53261
575.46982
526.73189
423.59202
399.80274
598.08615
563.37746
429.14835
401.06084
413.13444
413.10214
416.72007
394.71583
414.23098
395.27717
474.9471
401.28537
494.41281
403.39291
2129.9691
2147.65
2331.2536
2310.1951
2132.514
5338.5817
5279.6017
4714.2248
4741.5666
2144.2758
5386.2702
5297.8541
2331.0549
2328.1978
466.35101
463.4632
388.14256
391.09153
2136.7008
4111.3895
4005.8595
4146.3027
4012.8931
3878.5011
3842.4172
2081.3304
2076.1246
665.06541
668.26434
550.41009
554.11116
485.02932
1122.5198
1153.1218
1163.2163
1354.6771
1347.1303
1590.612
1580.5429
1785.3499
1783.1529
1592.8555
1637.6019
1787.8517
1838.2162
1195.616
1170.0265
1359.659
1396.0797
793.02878
1028.5556
1018.7551
790.74395
635.16706
637.72233
1004.4038
1014.683
785.91542
791.51816
487.07969
634.00747
657.75783
482.67797
1010.3051
1006.6286
789.79565
789.5217
1048.0833
808.3393
1028.1132
820.55147
2501.4668
2299.298
2223.5518
2448.7619
1924.4598
1634.9746
1605.9443
1870.8548
1535.7786
1533.1134
1781.7873
1778.9909
2333.2224
2112.218
2097.6613
2311.3003
3589.9799
3444.2749
3407.9337
3577.6965
3039.4703
2863.0165
2798.0579
2995.4479
2640.6371
2674.6315
2866.7654
2835.4335
3451.7514
3264.964
3226.7016
3418.3571
3488.7178
3314.5669
3324.8512
3516.2593
2890.6732
2673.6469
2679.6112
2905.2857
2746.8923
2720.4057
2953.3693
2964.9514
3575.9473
3378.9816
3379.5025
3580.3535
1553.1669
1546.8981
1791.9813
1813.5864
1502.5716
1517.282
1761.5573
1751.63
2077.8705
2087.6091
2326.0917
2323.737
2358.8497
2119.8991
2144.1112
2387.1453
2392.9469
2166.4867
2135.0895
2376.3505
1806.5787
1545.8025
1535.2593
1791.7333
1522.0769
1516.6248
1756.3858
1773.6156
2315.9564
2079.2963
2102.8509
2348.0648
2972.6642
2762.9159
2947.3782
2728.6246
3594.9027
3398.2403
3371.7385
3565.8877
2661.8018
2880.9668
2932.9128
2699.0789
3348.4742
3293.3737
3501.0658
2874.9069
2873.2139
3076.7531
3090.7305
2784.5602
2736.7291
2965.1442
3011.17
3440.0043
3381.1764
1553.3021
1547.4316
1800.9154
1820.5768
2165.3957
2380.2477
2136.8566
2417.76
2491.9859
2274.9319
2289.7782
2519.6688
1912.6684
1637.6243
1655.7296
1931.5771
653.57966
654.3375
670.7124
674.5826
901.66047
881.63456
870.25479
903.49987
1405.0438
1119.4075
1113.6571
1399.4175
1346.1268
1077.5437
1078.7989
1349.3726
1062.1721
1063.3466
1327.673
1327.0359
1091.2116
1092.7611
1365.5755
1360.505
668.18065
877.52448
878.53787
1350.0133
1074.2762
1076.2314
1351.0788
1336.3151
1061.0706
1059.7049
1333.1102
691.4863
653.42526
676.65894
2218.7484
2230.576
3831.6005
3833.8402
2370.0868
2454.9421
4087.4353
4290.8843
5495.7153
6605.9539
6409.0164
5269.8276
4989.4067
6124.9137
6130.7417
4992.5507
7242.1889
7250.3517
8402.1111
8368.3165
7538.7519
7682.2968
8776.5448
8696.8972
9843.683
9484.0495
9549.3465
10696.607
10596.698
7398.3615
7460.6479
8677.9066
8536.5816
7168.3504
7210.4672
8363.1483
8342.3431
10624.022
9493.0919
9487.8511
10633.253
11066.917
9875.6753
9647.102
10738.427
2170.3487
2190.2415
3774.0238
3744.4878
4927.5147
6070.1787
6027.0111
4890.3217
3842.5798
2231.6962
2277.0579
3926.6998
5110.3387
5060.8498
6259.4244
6265.0596
2216.0337
2176.2134
3739.4694
3826.2989
2219.4063
2253.2564
3913.3611
3843.2177
6238.1245
5088.6944
5024.4731
6192.3534
4978.7606
4872.7555
5993.0979
6103.4558
10678.585
9589.6009
9706.36
10866.027
8481.895
7351.7862
7348.7976
8529.1277
10487.955
9365.1654
9438.9604
8234.1928
7100.1293
7204.6444
8322.0466
385.43561
372.05071
371.80019
379.58081
379.96432
402.43618
393.80825
393.88731
403.01476
384.8439
385.56082
405.36505
405.3263
393.80371
389.71184
395.29673
390.22015
395.20369
421.57199
428.52382
396.26911
412.50315
413.45263
431.91112
431.32765
545.13565
543.69719
534.32801
452.64931
405.05179
521.9092
444.08972
406.5292
420.8847
421.37914
507.24763
755.92948
763.34927
740.02416
731.71081
507.77198
757.99464
735.42466
740.13617
762.25389
614.63575
565.19477
430.04831
399.70903
601.82983
532.37151
427.48062
401.07713
412.62661
412.7485
470.18421
702.63093
662.51369
662.17283
707.74099
1816.1864
1820.9324
470.34987
705.58944
662.64113
661.34556
706.54356
1815.0752
1826.9113
603.11805
547.58871
415.79663
393.59199
632.97461
505.69108
416.59707
395.24735
485.47658
407.30925
494.75519
407.68695
539.52446
453.73167
594.8294
482.23927
5097.5471
5020.1391
4867.3986
4950.7275
10216.412
10075.05
10017.197
10034.848
5119.2119
4961.511
4928.2142
5071.7659
10203.939
10211.63
2146.1262
5282.389
5388.7339
4817.4672
4725.8019
2137.319
5239.2587
5355.3878
4765.7705
4674.0898
4958.4143
5134.8477
5043.8236
4898.9141
10210.735
9045.3879
9059.1728
10208.871
10086.02
8951.4892
8954.636
10072.284
8091.4692
9182.3159
9177.2726
9267.6476
8173.7385
8149.058
9282.2528
5132.4278
5045.4254
4916.9307
4992.3102
10285.243
9148.6939
10260.425
10064.097
10118.406
2150.4653
5358.6095
5339.6664
2139.911
5264.5907
5381.3455
4720.4755
4809.0891
526.83553
487.89336
488.22052
530.23654
465.79424
487.73479
484.86736
525.45582
525.67107
388.11431
462.74382
3965.1269
3933.5796
4046.0595
4099.9006
12848.026
11886.565
12194.512
11733.825
11542.867
3908.3786
3777.5202
3928.7327
4069.604
3874.9341
3902.0236
3803.4593
3943.4145
4067.8375
481.71991
987.2515
766.12897
1015.7945
1013.0031
784.75808
785.56017
1028.1683
1044.1668
799.06053
809.41489
630.06964
652.52946
484.72697
1500.0334
1508.4478
1743.9436
1756.938
2079.2373
2305.2466
1539.0412
1553.5183
1771.0914
1800.5179
1548.7427
1584.6651
1817.0165
1807.7019
2132.0015
2137.5575
2337.461
2345.8997
2289.1648
2080.7895
2122.4174
2343.3361
2840.1368
2659.4072
2680.2534
2874.4935
2678.3422
2617.1304
2808.1048
2881.3183
3269.0661
3447.3109
3383.2082
3196.9703
3277.4216
3470.9894
2833.5878
2649.1847
2731.2393
2919.7958
2824.7406
2773.3972
2961.0654
2994.5892
3322.2251
3221.6503
3369.5082
3492.6681
3515.8881
3361.2605
3384.7184
3543.3121
1651.4851
1651.558
1891.3312
1932.3553
1556.2678
1584.3663
1807.0541
1830.4974
2322.31
2121.7605
2162.5264
2383.4474
2427.3935
2225.6906
2275.4945
2479.208
897.53023
1115.2586
1398.7845
1393.871
1108.2421
1074.3859
1072.8112
1342.4034
1345.7313
876.81079
658.36151
662.83862
862.47613
894.53732
1325.2193
1056.8785
1055.4713
1324.0036
1362.3669
1084.4989
1083.8248
1358.2718
643.61008
667.78719
654.36696
679.37635
863.65534
864.5508
885.12286
944.72438
647.6349
648.54278
1065.2195
1062.3042
1342.2504
1346.1583
1334.6528
1055.1735
1056.7798
1334.1834
1438.847
1147.8645
1157.2764
1443.3972
1084.5915
1362.9194
1360.4649
1085.5914
6704.6996
5602.1365
5412.7644
6568.2037
4351.9665
2485.2036
2385.4815
4184.1533
2235.1148
2246.1947
3886.919
3863.1367
6137.5503
5025.4814
4974.544
6057.0829
10893.535
9850.7242
9982.1982
11104.336
8802.8673
7745.599
7689.9963
8839.5186
7131.781
7238.3746
8368.6824
8237.7926
10628.447
9493.9741
9344.2508
10449.824
10558.892
9444.3668
9559.6013
10719.377
8316.6022
7178.5348
7221.8929
8388.2754
7434.6429
7380.8451
8584.0106
8588.9325
10940.292
9759.8746
9737.3823
10881.164
2296.9492
2246.2157
3880.48
3976.478
2188.1783
2208.0132
3827.5115
3824.4166
4968.1029
4959.6858
6069.4572
6090.0427
6212.7567
5048.4826
5150.5833
6296.4316
6340.6741
5182.9783
5088.7312
6239.5374
3967.6738
2277.1857
2243.1541
3913.6186
2238.382
2191.7737
3800.3276
3873.3274
6054.8885
4933.0878
5026.5642
6161.3456
8632.08
7468.2294
8576.6341
7384.5157
10918.251
9773.3822
9756.422
10926.327
7178.624
8338.6568
8462.2569
7292.7004
9622.2755
9497.2481
10654.437
7808.251
7761.9073
8900.4315
8951.2334
7525.6821
7334.4801
8503.4873
8735.7939
9947.1616
9644.09
2271.8527
2250.9119
3883.809
3973.3091
5176.8223
6194.1998
5049.4817
6347.8842
6616.5935
5451.4095
5584.8441
6724.5626
4197.1952
2426.8658
2524.2608
4353.0745
730.10195
734.04539
815.83181
813.32301
730.67154
729.65982
808.06805
815.5006
1020.8477
1040.248
997.70136
995.27529
1043.5043
998.89404
973.97877
1010.1195
1200.4993
1199.2214
1158.1457
1166.2636
1147.5865
1147.9829
1176.4991
1184.0454
1804.1828
1789.9102
1709.2175
1713.739
1681.8391
1682.5331
1747.2541
1752.0073
996.99756
1001.9816
966.70731
965.08934
1155.4378
1161.6485
1141.0333
1146.9642
1714.0498
1711.862
1691.6242
1689.4513
997.86327
1028.5174
733.01908
732.61046
816.14869
814.95541
751.82545
753.15687
841.77163
833.96508
4295.4959
6115.0273
6255.7207
4363.7231
4326.1807
6193.4795
6133.5627
4313.5864
10486.961
10207.728
10420.781
10663.035
10575.624
10347.342
10167.194
10427.021
6717.6883
4642.8456
6621.3186
4638.9522
6926.9753
5035.2688
7271.9829
4835.4437
10936.426
11182.865
11121.255
11307.368
12069
12005.069
11552.836
11368.345
12639.11
12962.635
12689.352
12558.038
13657.113
13636.816
13414.152
13537.651
13368.072
13518.739
13523.668
13336.501
12319.08
12265.354
12327.614
12265.573
11836.212
11733.049
11564.982
11677.367
12824.441
13045.264
13040.628
12859.137
13070.188
13013.548
13011.272
13029.656
11827.315
11699.022
11812.144
11910.831
14232.884
14262.914
14217.235
14143.966
14091.568
14296.574
14266.438
14107.918
15473.012
15549.355
15402.634
15366.235
15424.575
15499.865
15356.269
15225.464
14585.221
14814.966
14794.144
14548.234
14354.565
14477.934
14734.115
14630.563
15328.12
15476.499
15879.183
15731.017
16049.666
16121.864
15821.793
15706.872
16945.736
17357.464
17213.434
16797.462
16439.748
16710.412
16581.721
16302.545
16629.927
16741.087
16668.457
16589.987
17659.604
17868.838
17855.927
17695.878
17641.162
17829.001
17483.882
17291.276
14594.667
14359.83
14301.233
14466.781
14956.367
14722.802
14741.444
14975.915
16052.864
16102.994
16353.711
16294.824
15503.672
15593.381
15679.326
15500.369
14232.926
14057.667
14054.029
14230.784
14030.447
14061.367
14258.143
14239.999
15159.718
15306.323
15528.899
15439.141
15337.704
15374.818
15567.755
15488.375
17173.623
17420.74
17853.779
17633.291
16225.989
16365.238
16718.57
16594.658
16769.673
16614.729
16522.326
16664.473
17623.491
17768.174
17917.057
17740.612
18341.436
18592.703
18876.985
18663.543
17279.013
17390.893
17652.87
17546.321
16665.668
16767.945
16595.75
16472.025
17588.533
17803.969
17585.779
17356.505
4156.5085
5955.5496
5975.1069
4166.006
4261.4964
6051.5734
6045.1478
4202.6419
10345.323
10125.529
10116.987
10405.366
10288.104
10019.435
9990.7861
10295.953
11624.377
11515.528
11602.022
11741.787
12941.153
12819.402
12811.068
12978.7
12845.375
12732.296
12782.555
12924.83
11469.284
11444.315
11560.438
11636.297
10505.69
10115.382
10311.751
10715.524
4205.0015
6035.4156
6179.5805
4272.3886
4427.9436
6258.9253
6539.3616
4578.7849
10793.427
10636.386
10368.574
11041.363
12213.541
11825.747
11914.07
12283.225
11988.295
11780.721
12008.101
12243.114
13508.55
13272.754
13363.014
13607.652
13458.187
13105.769
13093.034
13386.835
6366.6743
4261.63
4428.2285
6109.6323
4122.1265
4179.1024
5901.9142
5990.0945
9968.1187
10213.789
9910.752
10253.769
10469.413
10178.481
10480.32
10747.595
4272.1936
6187.7031
6137.831
4284.8631
4429.8614
4401.4104
6340.2191
6280.9095
10794.385
10590.082
10456.315
10664.757
10232.191
10423.991
10713.483
10532.681
13118.782
13128.711
12982.023
13109.927
11969.21
11948.919
11831.101
11926.063
12094.808
11946.084
11728.481
11892.704
13104.555
13338.973
13363.344
13177.759
11908.167
11636.885
11705.022
11978.055
11389.341
11388.793
11509.96
11525.784
12671.459
12685.271
12707.756
12713.317
13137.456
12876.177
12860.333
13098.61
16669.765
16947.974
17759.77
17454.976
15872.693
16104.188
16753.177
16561.809
17067.15
17360.513
17217.57
16974.132
18287.4
18495.504
18238.675
18096.636
14951.112
15135.806
15602.148
15461.96
13988.179
14123.424
14359.053
14305.239
14457.095
14672.355
14669.253
14477.373
15980.439
16024.38
15791.364
15745.35
17142.601
17409.763
17635.635
17392.074
16205.054
16385.999
16483.814
16378.756
16592.528
16621.403
16511.173
16463.793
15107.497
15175.517
15210.899
15175.161
13924.179
13932.839
13903.417
13931.673
14300.522
14090.757
14053.022
14233.961
15287.012
15331.733
15466.706
15355.51
385.41443
379.19612
371.48616
372.07392
379.91477
401.93827
393.52596
393.47511
402.45621
371.62509
371.72651
378.43491
384.54036
378.82238
384.97026
435.0713
405.31409
405.07431
435.04742
385.69932
389.29538
387.78616
390.3922
428.12182
400.82684
402.10014
435.81879
431.05147
440.77446
511.447
454.63671
436.82944
406.13517
440.36389
406.83437
420.74183
420.55483
507.00794
761.89779
763.04103
739.70661
742.15558
506.52031
751.70793
729.29342
737.98369
762.04381
599.92543
562.24086
427.32778
399.30608
566.16706
621.06682
434.03569
400.40454
411.78438
411.9733
468.58057
663.31715
709.04425
702.96918
662.61078
1826.7305
1823.0587
468.95037
662.5742
662.8041
707.7124
705.49269
1832.7187
1817.6322
656.52311
516.13058
416.54263
393.85755
597.46856
523.03443
421.28284
394.51827
590.85501
590.50495
552.75717
554.1136
1444.7162
1108.888
1096.3488
1435.8238
4255.7363
4322.1014
4553.0424
4481.039
4362.6245
4268.0465
4483.6713
4563.7947
591.93722
592.16984
555.02412
555.40776
1438.2254
1099.5361
1107.002
1448.6471
4307.9549
4255.8154
4462.3869
4533.2921
4348.1107
4290.3013
4507.7038
4549.4087
628.64676
457.94526
405.26157
568.20048
478.98281
405.87658
552.8247
463.85172
589.51815
468.69387
490.05171
555.73438
10221.062
9751.7108
9917.1402
10398.162
9720.0386
10222.396
10205.784
9724.6628
10276.355
10274.079
9540.6239
9559.4629
10308.45
10467.03
9745.4737
9594.5432
14257.28
14259.736
14825.719
14902.632
14298.628
14127.52
14752.878
14833.117
14653.76
14717.388
14141.21
13991.871
14720.086
14101.623
14162.822
14735.105
10405.075
10392.272
9904.8685
9904.23
9723.4355
10464.766
10461.287
9734.7289
9577.3288
10295.772
10207.134
10312.923
9834.8421
9734.7902
14947.746
14860.029
14220.563
14391.511
14938.48
14385.062
14319.272
14948.127
5040.5516
4898.3773
5002.0305
5141.4498
10042.188
8926.4826
8991.9491
10110.232
10275.893
10212
9090.5266
9148.0803
9365.3519
9322.6659
8274.799
8231.5141
8142.967
8081.2607
9153.1529
9220.5151
5022.1959
4863.9795
4977.7702
5144.1504
9965.9395
8845.6973
8943.7445
10078.637
10180.403
9033.3252
9052.5447
10193.315
9267.2089
9259.6945
8151.7952
8171.2737
9069.457
8080.9336
7997.373
9167.9712
10502.094
10479.875
9731.4471
9733.4036
9924.9458
9945.9416
10460.891
10422.956
10255.952
9763.8605
9750.5074
10222.556
10328.108
10302.154
9597.3452
9597.587
14842.858
14935.86
14345.005
14171.422
14372.885
12768.716
12881.209
14533.846
12882.787
14542.273
12870.469
14482.008
14942.665
14360.312
14296.134
14937.428
14862.643
14882.745
14330.075
14217.404
14416.886
12787.547
12856.024
14516.091
12687.648
14305.882
14275.844
12698.915
14691.426
14119.586
14084.89
14730.684
11007.124
12119.387
12078.124
11043.22
11964.093
12921.92
12979.988
12013.006
12816.479
11873.423
11898.178
12826.347
11958.2
12902.361
13006.712
12041.982
12153.108
11069.817
11087.603
12151.713
12069.303
12148.155
11064.749
11000.221
13010.052
12043.75
12046.396
12993.766
10412.122
9950.0641
9928.3439
10384.464
10204.557
9727.9111
9806.324
10282.94
10289.991
9577.1548
9647.7327
10355.328
10519.226
9798.6523
9778.9841
10488.495
14949.832
14999.332
14473.65
14329.865
14522.8
14651.302
13013.366
12921.207
14965.15
14436.63
14371.882
14973.906
14301.963
14157.164
14787.586
14846.065
14730.697
14126.5
14160.785
14764.045
2139.0453
2171.9041
4973.7296
5139.2401
5092.9087
4952.4966
10267.571
10191.44
10187.008
9058.2166
9059.6266
10173.317
5133.0231
4988.365
4886.338
5021.1076
10008.072
8896.6969
8931.667
10041.946
10322.607
9174.7815
9093.6778
10200.448
8061.6842
9128.3652
9150.3721
8089.8449
9405.0306
9322.5453
2099.6263
2138.8179
632.35411
514.27541
511.75561
632.33272
486.48798
486.57318
527.38634
523.91067
512.01996
510.39205
628.17231
628.39407
465.6182
462.40629
486.10529
483.43811
523.36259
523.88703
12026.556
11971.224
12963.41
13003.638
18112.004
18334.648
18843.458
18577.653
17416.071
17671.757
18106.319
17820.94
19252.294
19452.59
19187.065
19025.985
18781.047
18615.987
18365.033
18568.293
18309.567
18648.384
18456.848
18135.184
12331.93
11361.208
11913.034
12947.474
11673.787
11726.071
11400.992
12437.901
12757.867
641.72346
654.67336
872.73096
1306.9751
1040.9438
1039.2959
1293.9552
1354.9828
1062.3633
1066.1467
1349.6714
1348.9102
1056.4321
1055.9605
1337.0745
862.02118
866.04414
1367.6
1082.6298
1079.7309
1354.8161
1433.2682
1136.5462
1145.0532
1429.0265
880.84009
940.25422
642.35009
668.05252
637.33352
661.95927
2280.7338
2242.895
3902.0905
3979.4987
5128.2305
6229.2032
2269.2302
2234.6049
3790.3978
3940.1959
2275.8304
2322.5101
4001.3173
3948.8704
5082.3754
5110.3271
6162.3948
6177.3252
5939.0856
4861.4634
5094.4508
6218.5796
8244.9924
7187.2821
7260.493
8373.8873
7320.9911
7007.5804
8111.3444
8443.5932
9482.3149
10589.269
10323.19
9211.2565
9555.7667
10655.23
8259.803
7155.1495
7446.7056
8589.2706
7795.2239
7600.6813
8743.3294
8887.9388
9716.4723
9318.4688
10357.508
10831.383
10931.672
9841.487
9956.4415
11006.067
2512.8593
2423.8777
4140.764
4358.3799
2287.1974
2301.9654
3904.3473
3983.9273
6085.6238
5001.9136
5170.0278
6317.7318
6475.9439
5324.1671
5570.2489
6700.2435
976.62154
1190.6836
1185.9935
1789.9196
1769.4909
1152.5381
1143.7936
1689.0925
1694.2872
971.07677
1023.1482
1002.6694
978.23386
1022.4004
949.8262
987.69084
1134.069
1135.6511
1161.2527
1170.5204
1666.4953
1669.2364
1730.3719
1739.2205
721.46763
723.44484
803.59909
803.40777
739.91005
818.67265
742.21436
831.9002
971.3745
975.52793
942.77945
944.08967
1000.8328
1093.818
973.13955
1043.2808
1141.369
1147.8492
1130.569
1145.1894
1170.3611
1176.1699
1232.5073
1255.7817
723.92624
727.83912
808.4568
805.01943
722.77277
798.97579
723.61352
806.43903
1702.7656
1705.552
1686.896
1701.9401
1860.3666
1883.2484
1729.4802
1735.6485
13491.703
13779.512
13484.786
13265.296
12837.815
13166.373
12746.061
12524.396
12616.294
12791.166
12708.088
12534.29
13647.672
13827.642
13749.407
13591.579
11615.111
12094.121
12040.216
11694.695
5047.6439
7259.2877
4895.8267
6992.3953
6767.1914
4673.2202
6797.3305
4651.4946
11596.133
11386.952
11344.028
11495.335
4311.0004
6085.4995
6414.6979
4398.5471
4377.1141
6313.4375
6203.7814
4298.4662
10777.637
10630.136
10339.063
10557.39
10294.189
10125.603
10813.049
10901.976
12865.397
13081.651
13035.535
12866.315
11911.689
11902.115
11685.016
11740.433
11965.052
11435.374
11507.254
11876.6
12941.786
12650.382
12672.394
12851.898
16727.732
17002.095
17352.923
17061.745
15988.635
16234.881
16444.841
16236.209
17241.415
17497.296
17302.805
17056.145
18272.179
18517.825
18269.777
18051.392
15169.115
15385.027
15447.948
15271.239
14314.698
14541.084
14395.665
14270.938
14840.004
14995.408
14961.461
14801.705
16185.33
16262.188
16089.008
15965.139
14031.955
13894.101
13900.82
13956.811
14093.456
14263.873
14201.613
14083.091
15354.843
15452.108
15350.981
15270.34
15127.049
15164.089
15180.006
15063.179
17446.48
17683.618
17687.319
17519.985
16462.837
16584.15
16534.256
16425.928
16282.202
16391.8
16307.246
16147.5
17413.84
17547.076
17329.461
17147.131
17045.413
17318.738
17531.521
17244.411
16186.909
16350.681
16520.864
16337.415
16655.514
17172.624
17023.966
16559.011
18064.366
18298.834
17819.511
17639.433
15106.603
15240.282
15334.182
15213.558
13975.982
13998.279
14053.308
14033.904
14024.302
14450.109
14484.6
14065.836
15810.371
15836.447
15367.352
15340.37
14498.662
14530.401
14512.258
14436.023
14751.634
14347.567
14305.37
14745.068
15567.735
15618.019
16151.234
16064.985
15800.864
15844.298
15706.137
15587.881
17753.51
17965.274
18598.319
18371.835
16731.523
16817.699
17406.516
17275.279
16840.689
17118.776
16985.561
16695.302
18075.258
18260.753
17910.223
17710.991
4435.4306
4607.6455
6344.5348
6581.7683
6270.3619
4256.4603
6141.4077
4310.8888
10305.398
10545.285
10773.225
10463.796
10899.461
10560.841
10791.584
11035.12
4201.2962
4206.1565
6177.5925
6053.9692
4302.8389
6172.2509
6141.6488
4239.4229
10284.457
10483.144
10343.946
10486.932
10765.781
10530.167
10165.07
10355.386
11471.432
11886.63
11916.597
11571.026
11635.842
11601.337
11607.848
11657.727
12794.097
12783.857
12768.446
12806.704
12713.449
13076.418
13130.306
12770.083
13341.4
13071.048
13078.025
13391.118
11862.712
11728.448
11980.535
12113.3
12170.616
11987.634
12078.93
12198.231
13324.992
13259.038
13248.096
13267.618
13188.149
13316.685
13210.89
13157.177
12193.24
12246.987
11978.194
12020.644
11751.157
12111.944
12135.505
11867.399
13056.266
13295.419
13325.893
13125.715
11054.579
10854.724
10610.046
10805.353
4467.0871
6449.2694
6351.792
4418.8906
4307.5388
6298.9423
4313.2259
6198.4058
10378.184
10943.283
10677.41
10587.603
4315.8844
4453.1458
6364.7805
6187.8408
4180.327
6039.1156
4185.943
6088.6724
10518.96
10300.636
10101.394
10341.051
10341.02
10584.927
10565.824
10720.407
12814.886
12858.623
12854.158
12889.518
11698.473
11640.339
11489.487
11632.577
11875.411
11773.865
11880.672
11942.674
13105.078
13068.772
13091.132
13094.14
15451.667
15580.316
15764.914
15661.392
14352.665
14422.25
14444.792
14432.577
16044.413
16070.801
15785.084
15715.313
14411.963
14632.211
14678.211
14447.252
17386.769
17617.529
18113.301
17907.15
16470.933
16642.115
16952.419
16837.699
17009.345
17415.783
17277.533
16901.993
18371.059
18567.383
18154.997
17984.652
14171.865
14080.031
14050.369
14208.14
15263.431
15316.522
15533.936
15494.399
15687.538
15719.011
15607.904
15521.995
14326.9
14362.956
14363.762
14302.404
16788.852
17040.393
16881.037
16658.852
16447.368
16520.076
16818.185
16743.654
17525.788
17684.07
18040.625
17891.098
14834.871
14985.403
14819.621
14587.577
15143.599
14728.682
14698.901
15065.775
15905.427
16086.287
15711.798
15457.326
15940.352
16004.788
16390.334
16276.264
14998.7
14522.68
14555.859
14993.019
13924.652
14015.822
14501.24
14454.661
15069.248
15199.393
15799.634
15691.383
15946.575
15928.782
16384.106
16303.769
17679.889
17320.422
17237.079
17548.971
16090.436
16217.246
16979.824
16845.335
6482.5357
4382.67
6266.3442
4456.0939
6311.9051
4299.6881
6134.8709
4359.5782
10519.07
10194.324
10418.607
10766.061
10723.839
10438.609
11148.679
10837.632
11912.869
12011.588
12445.348
12364.417
13213.413
12885.408
12830.201
13205.37
11714.482
11593.057
11957.359
12043.262
13656.187
13181.452
13211.158
13649.082
13981.844
13540.791
13442.588
13842.85
12450.508
12424.43
12864.654
12942.226
13070.635
12909.505
12977.896
13225.203
14025.487
13991.658
13800.34
13746.745
11518.278
11749.056
11048.383
11268.153
4616.5756
4755.8852
6638.3198
6911.7541
7421.5515
4973.6129
7118.7885
5224.9543
11759.292
11901.411
12172.034
12088.642
827.23984
832.29151
1108.8189
1101.4012
825.7347
826.30471
1094.8827
1099.8623
1364.0751
1187.4564
1191.4457
1380.5738
1427.7809
1239.0616
1215.673
1402.5715
1543.7766
1489.4315
1821.8501
1769.6851
1428.1159
1478.8583
1724.5425
1760.5724
1385.3543
1198.3628
1200.8171
1404.0346
1171.5926
1178.4595
1355.8864
1356.6273
1412.0987
1687.6112
1671.5234
1381.8319
1430.4765
1709.4609
1517.4775
1802.3109
2928.7438
2869.2334
4024.8486
3955.9667
3765.5502
3757.2819
2777.8014
2786.783
2669.9653
3560.182
3556.8117
2658.511
2664.0424
3572.313
2700.3813
3615.9132
3467.2908
2607.2973
2597.5653
3475.654
3396.2231
3420.4018
2541.3769
2573.7109
2626.5551
3497.464
2637.8398
3547.6928
3670.9235
2712.6748
2794.7007
3809.8539
1175.6323
1178.2739
1357.3231
1359.8188
1164.2908
1167.7757
1340.4107
1363.8093
1426.8892
1409.1272
1684.2385
1674.5924
1368.6309
1453.2716
1631.1076
1714.2182
3589.1209
2659.1045
3599.7267
2638.1078
3512.3276
2585.9789
3499.5253
2613.3788
2544.5475
3415.0165
3441.3227
2548.3078
2596.0409
3537.7079
2650.1831
3627.3528
1450.7506
1442.964
1204.1705
1204.8318
1405.7315
1410.6168
827.80175
829.18848
1099.7836
1097.9148
847.49576
846.94946
1132.8658
9116.7952
14435.656
15005.737
9523.8011
9283.2565
14700.325
14298.675
9018.1054
34474.884
20901.242
21433.884
35040.072
34710.183
21112.504
20645.77
33927.496
15871.665
9731.6041
15357.737
9957.3278
15914.214
10538.345
16777.843
10057.249
21866.958
22503.492
35699.094
36379.534
24022.794
38363.215
36605.709
22545.349
40175.028
41434.306
43783.473
43086.044
45797.282
46022.247
48389.211
48548.322
45110.422
45486.344
48468.758
47949.522
39717.206
39420.908
42546.144
42453.728
41562.546
38373.884
37463.657
40538.681
43426.682
44567.181
47459.299
46270.658
44594.774
44325.752
47215.69
47376.383
38650.246
38179.724
41356.417
41742.221
50269.931
50223.467
53096.159
53019.335
49239.971
50467.834
53373.611
52135.364
59144.636
56317.185
55135.304
57998.965
58909.138
56038.83
55804.366
58468.137
51042.215
51627.822
54655.651
54036.191
53722.929
51044.386
51413.449
54308.523
59067.603
56481.657
57249.7
60033.411
60691.974
57753.201
57072.536
59860.068
62641.86
63592.416
66241.847
65212.807
61186.223
61783.825
64445.191
63733.644
64599.062
61942.443
60946.622
63700.141
69566.173
67231.055
66463.848
68973.958
69551.558
67142.23
66288.317
68589.445
50964.933
50384.598
53302.259
53693.283
51126.342
51067.758
54116.171
54136.845
60186.875
57240.588
57258.638
60184.446
59143.873
56254.146
56463.129
59022.832
49711.001
49310.145
52197.898
52685.06
52758.751
49872.218
49997.365
52907.389
58463.155
55766.039
55851.765
58624.429
58098.578
55241.999
55782.332
58603.839
68360.745
66151.497
66714.602
68997.148
63637.902
61152.966
61447.225
64062.473
61473.895
60961.704
63621.174
64176.151
68814.835
66334.019
66897.868
69377.984
70942.775
68581.763
68786.989
71212.602
65858.39
63139.116
63183.206
65949.689
61564.568
61956.893
64520.008
63905.401
69408.832
67071.128
66227.64
68327.322
8640.5845
14022.897
14174.863
8857.1022
9005.9578
14329.122
14222.556
8783.9233
34164.81
20818.228
20774.099
34211.454
33969.387
20625.402
20597.965
33861.051
40884.002
37707.459
37805.723
40941.356
43982.262
43925.99
46841.121
46934.552
43595.277
43391.949
46288.866
46585.944
37439.582
37452.641
40472.867
40568.988
34433.391
20860.82
20987.302
34717.334
8950.6961
14357.759
14486.475
9021.3811
9376.4454
14830.88
15697.76
10154.009
22068.827
34817.436
21232.172
35833.549
39476.124
38454.089
41584.641
42555.994
41508.856
38247.308
38559.089
41807.244
44927.923
44719.625
47810.842
47961.527
45393.668
44516.485
47424.272