/*--------------------------------*- C++ -*----------------------------------*\
  =========                 |
  \\      /  F ield         | OpenFOAM: The Open Source CFD Toolbox
   \\    /   O peration     | Website:  https://openfoam.org
    \\  /    A nd           | Version:  7
     \\/     M anipulation  |
\*---------------------------------------------------------------------------*/
FoamFile
{
    version     2.0;
    format      ascii;
    class       surfaceScalarField;
    location    "10000";
    object      phi;
}
// * * * * * * * * * * * * * * * * * * * * * * * * * * * * * * * * * * * * * //

dimensions      [0 3 -1 0 0 0 0];

internalField   nonuniform List<scalar> 
101481
(
-2.6581574e+53
-3.0133824e+54
-3.0886951e+55
-7.3528779e+53
-3.1662301e+54
-3.0766088e+55
-7.9742603e+53
-2.9732764e+54
-3.0465521e+55
-3.7469401e+54
-2.992682e+55
-2.5666041e+53
-9.3272099e+53
3.5245287e+53
-2.9685093e+55
-7.2612443e+53
-2.8458234e+55
-3.0428058e+53
-1.4926692e+54
-3.2185589e+55
-9.0828068e+53
-1.0920326e+54
-3.2393149e+55
1.0140921e+54
-1.1825139e+54
-3.273953e+55
-1.3979256e+54
1.344976e+54
1.4819401e+54
-1.3646934e+54
-3.3262211e+55
-1.5005672e+54
1.390012e+54
1.0540479e+54
-5.1960019e+53
-2.6772365e+55
-9.9660102e+53
-2.9085821e+55
-1.2210716e+54
-1.6121304e+54
-3.219242e+55
-1.1802429e+54
-2.526834e+54
-3.1421972e+55
2.3570793e+53
-1.6172027e+54
1.5921513e+54
-2.2734908e+55
-2.8649464e+53
-1.150985e+54
1.2880218e+54
-3.0627661e+55
2.3643672e+53
-2.1075917e+55
1.8484571e+52
-2.9377643e+55
-1.2013404e+53
-4.8917694e+52
-3.2812581e+55
-8.7014361e+53
5.3045741e+53
-3.3231903e+55
-5.6876019e+53
5.0228003e+53
5.0329445e+53
-3.1657489e+55
3.2595045e+53
-3.1436085e+55
8.2908085e+53
-1.2216647e+54
-3.3043795e+55
-1.3824386e+54
1.4418216e+54
1.5106437e+54
-1.3174889e+54
-3.2196676e+55
-1.3504221e+54
1.4291384e+54
1.537525e+54
-1.2225937e+54
2.6109671e+55
7.4524311e+53
-2.9095041e+55
-1.134151e+54
-4.8037137e+54
1.2725982e+54
-1.3625655e+54
1.6010348e+54
1.7322687e+54
-1.4406495e+54
-1.4736243e+54
-2.60985e+55
-1.529408e+54
1.6584296e+54
-2.9370035e+55
-4.7346519e+54
5.4102598e+54
7.0954552e+52
-1.3922628e+53
-6.7384505e+54
-3.3839981e+53
-3.3526013e+53
3.304851e+53
3.4171439e+53
9.3245746e+52
-1.2865864e+53
-4.4451281e+53
-4.382567e+53
2.9292807e+53
-5.4953409e+54
7.5045096e+52
-4.4606209e+53
-4.5023404e+53
3.0912542e+53
2.9542751e+53
1.13414e+53
-6.8600661e+54
-3.5764577e+53
3.3511304e+53
-3.4307137e+53
3.2317824e+53
5.5427248e+54
-7.0136717e+54
-3.7032068e+53
-3.5484859e+53
3.2316335e+53
3.2294682e+53
2.8646966e+53
-4.5606994e+53
2.9026398e+53
-4.729809e+53
3.3175153e+52
-2.3194547e+53
4.3030125e+53
3.0653187e+55
5.1402178e+53
3.0384007e+55
1.5909216e+54
-2.4568571e+54
-3.0554656e+55
-1.8416977e+54
-3.1288554e+55
8.9479806e+53
1.5417595e+54
-2.1906282e+55
1.8907473e+54
-1.345333e+54
-2.3717028e+53
-2.9607434e+55
1.215783e+54
-2.1520246e+55
7.6967395e+52
-3.0035152e+55
-1.4177566e+54
1.3304975e+54
1.2308567e+53
-3.3098383e+55
1.763314e+54
-1.5196013e+54
-5.4109736e+53
-3.2542341e+55
9.3754606e+53
-1.1228148e+54
-3.125968e+55
-8.8380666e+53
-9.4009092e+53
-3.1286729e+55
-9.2173875e+53
-9.8059532e+53
-1.9841218e+52
-7.6446069e+52
1.4848709e+54
-1.8019698e+54
-1.7734459e+53
-1.5075168e+54
2.5316082e+54
-2.2293629e+55
-4.4377149e+53
-9.2653409e+53
1.8265708e+54
-3.0553463e+55
5.3806204e+53
-2.1501416e+54
1.7057821e+54
-2.1663835e+55
9.1941303e+53
-2.975222e+55
-5.4289762e+52
6.2217089e+53
-3.2423215e+55
-7.6728334e+53
1.188444e+54
-3.2798314e+55
2.8826199e+53
5.0665384e+53
-3.1642785e+55
-6.1034679e+51
6.2313615e+53
-3.1673686e+55
-5.8171139e+53
5.6534856e+53
1.1051381e+54
-3.0845475e+55
6.4949374e+53
-3.0254672e+55
-2.4909966e+53
-3.1285123e+55
1.1137646e+53
3.922384e+53
-3.1036731e+55
4.1998664e+53
2.4735358e+55
2.4882686e+55
-8.6122033e+54
-3.776811e+54
-3.2505341e+55
-1.3708776e+54
1.4928976e+54
1.588737e+54
-1.2329654e+54
-2.6018676e+55
9.3772759e+53
-1.4051003e+54
1.6601989e+54
-1.3935866e+54
-1.4475622e+54
1.7429561e+54
-7.6265732e+53
2.5714954e+55
-2.9114422e+55
-4.7540011e+54
-2.883779e+55
-1.2098021e+54
-4.8319592e+54
1.6652188e+54
1.7066939e+54
-1.4713076e+54
-1.2853645e+54
5.4320912e+54
5.5824258e+52
-1.4285781e+53
-6.8058703e+54
3.3907468e+53
-3.1154656e+53
-3.1696699e+53
3.6781338e+53
1.2123123e+53
-1.4459257e+53
3.0001083e+53
-4.1039705e+53
-4.1258763e+53
3.0730195e+53
-5.3964971e+54
1.3321654e+53
3.1438918e+53
-4.4758845e+53
-4.2712335e+53
3.0025734e+53
1.3646692e+53
-6.8040613e+54
-3.1706192e+53
-3.3533992e+53
3.3139361e+53
3.3044187e+53
5.4194871e+54
1.3983293e+53
-6.8057668e+54
3.5152858e+53
-3.2811937e+53
-3.3411201e+53
3.4319536e+53
1.7449588e+53
-4.2783389e+53
2.922032e+53
-4.4140048e+53
2.945741e+53
-5.3354007e+54
-4.0388616e+53
-4.4391425e+53
3.1018374e+53
-6.6036924e+54
-3.3663805e+53
3.3883865e+53
3.5746726e+53
-3.1336284e+53
5.9381987e+54
6.2014944e+54
8.4568407e+53
-1.1262949e+54
-2.1836706e+54
5.055837e+54
5.2004054e+54
1.5593425e+53
-5.3309076e+54
-2.1363678e+53
3.7689887e+53
3.9906622e+53
-2.5752067e+53
-2.6724745e+53
-5.4427506e+54
2.7686238e+53
3.7515791e+53
-2.9353022e+53
-2.6302779e+53
3.7542699e+53
1.9322501e+53
-2.3545795e+53
-7.9112335e+53
2.8204976e+53
-8.0370444e+53
5.5284996e+54
-6.1114387e+54
-8.2110204e+53
3.6552082e+53
3.8283827e+53
-2.8749329e+53
-2.9321113e+53
5.0893765e+54
-2.2140098e+54
-6.092216e+50
1.2818726e+54
9.2178992e+51
-1.5830449e+54
-9.4552292e+52
-9.7025678e+52
7.050638e+52
7.5235837e+52
1.2586489e+54
-8.7354055e+51
-1.5488465e+54
-9.3366267e+52
-9.1942089e+52
7.4140567e+52
7.4231714e+52
-9.1994792e+51
1.6455954e+54
3.2366627e+51
-9.6673747e+52
7.1631082e+52
7.4327611e+52
-9.9783352e+52
1.6733733e+54
-1.0673122e+51
-1.0156273e+53
7.3711751e+52
7.0787036e+52
-1.008542e+53
4.209599e+51
1.2912902e+54
4.5363638e+51
-1.0062068e+53
-1.0473364e+53
6.7504307e+52
6.6674522e+52
1.4093808e+51
-1.0104973e+53
-1.0086339e+53
6.5322794e+52
6.9418096e+52
4.8422032e+51
-1.0081913e+53
-1.0450927e+53
6.3548125e+52
6.2074622e+52
3.9330396e+50
1.293858e+54
-1.6591212e+54
-5.3037171e+51
-1.0375603e+53
-1.0741581e+53
6.9497752e+52
6.5786095e+52
1.3125414e+54
-1.691625e+54
-1.0454344e+53
-1.0435398e+53
6.7344942e+52
7.5331953e+52
2.2784004e+51
6.3942776e+52
-1.0140839e+53
-1.0175575e+53
6.7079959e+52
7.4253996e+51
6.539848e+52
-1.0404705e+53
-1.0052507e+53
6.2240005e+52
1.2966572e+54
9.110474e+51
-1.6014022e+54
-9.9170772e+52
-9.6862575e+52
7.1237286e+52
7.2003278e+52
3.4741656e+51
-1.0236077e+53
7.0561592e+52
7.2680691e+52
-1.0527761e+53
1.2680109e+54
5.2549395e+51
-1.5586263e+54
7.4457295e+52
-9.662807e+52
-9.5541797e+52
6.9112538e+52
-9.7553346e+50
-1.0225203e+53
-1.0366008e+53
7.3745226e+52
6.8684779e+52
2.6806801e+51
1.2813585e+54
-1.5916916e+54
-9.9931741e+52
-9.9594351e+52
7.1761081e+52
6.4665636e+52
1.2842473e+54
-1.5799405e+54
-9.9490032e+52
-9.585108e+52
7.3009003e+52
7.1112574e+52
-7.6063679e+51
1.6760323e+54
7.2070917e+52
-1.0062911e+53
-1.0537009e+53
7.1937935e+52
1.6846153e+54
-1.0499715e+53
-1.0408379e+53
7.2029339e+52
6.5959186e+52
-1.3042403e+54
-5.9536809e+51
7.0698957e+52
-9.8478025e+52
-1.0516181e+53
6.5272265e+52
-1.3421188e+52
6.6747938e+52
-1.0150855e+53
-1.0728359e+53
6.5884081e+52
-1.3090308e+54
7.2827036e+52
-1.036254e+53
-1.0455931e+53
6.0716568e+52
6.6261819e+52
-1.0665663e+53
-1.0627312e+53
6.0834114e+52
3.3504624e+53
-4.6424555e+53
1.4051223e+53
3.0736103e+55
2.6959992e+53
3.0597544e+55
7.8997126e+52
-3.4797633e+53
4.2387095e+53
3.1698026e+55
5.8684776e+53
3.0629215e+55
2.6965002e+52
-1.547539e+53
-2.0529068e+53
2.4715379e+52
1.5825312e+54
-5.9225801e+53
-2.7350957e+55
7.033313e+53
-2.8599826e+55
1.7432545e+54
2.1442473e+54
-1.7201067e+54
-1.1258456e+54
-3.1596221e+55
1.9610349e+54
-8.6891458e+53
-3.2157016e+55
-1.2968297e+54
-3.1028351e+55
-9.0646244e+53
-8.5519324e+53
-3.0827858e+55
-7.7340859e+53
-9.0199912e+53
2.3622815e+52
1.2257464e+54
-1.2362512e+54
1.7078351e+54
-9.6255757e+53
8.3230358e+53
-2.3721028e+55
1.8965697e+54
-2.1340109e+54
4.9778775e+53
-3.0408873e+55
9.6245677e+53
-1.7889763e+54
1.50143e+54
-2.2744389e+55
1.0100145e+54
-2.9952043e+55
-1.4687887e+54
-7.6527406e+53
9.3511991e+53
-3.256672e+55
-3.4841046e+53
-1.7571859e+54
6.53595e+53
-3.2559132e+55
9.7412683e+53
-1.2227148e+54
-3.149006e+55
-1.5414385e+54
-1.5461482e+54
1.6512169e+54
1.5669277e+54
-8.0785591e+52
6.1284357e+52
5.0248701e+53
-6.616576e+54
5.209194e+53
-8.0128759e+52
-6.8359394e+54
-3.1507816e+55
-1.6135299e+54
-1.6051595e+54
1.5117872e+54
1.5995916e+54
-7.3065256e+52
-6.6099807e+54
-6.8344524e+54
9.6810682e+50
-5.7514429e+52
-1.8900248e+54
3.2700795e+51
-1.0681054e+53
2.3459525e+54
-1.5127692e+54
-5.4768303e+53
-9.78022e+53
3.2147488e+54
-2.2156099e+55
-3.7779773e+53
-7.3476737e+53
2.0293454e+54
-3.0281796e+55
-2.2567302e+54
1.501631e+54
-1.849452e+54
2.5562381e+54
-2.2248539e+55
1.2060154e+54
-3.0024791e+55
-2.3371893e+53
4.8854998e+53
-3.1612615e+55
-7.1030858e+53
6.6178662e+53
-3.1743189e+55
-3.4305418e+53
-6.6074018e+52
1.304847e+54
-3.0566566e+55
1.0321808e+54
-3.0288407e+55
-1.0451779e+53
-3.1243446e+55
4.5214199e+53
-3.1310936e+55
-3.653445e+53
4.4796034e+53
-5.4631591e+53
6.054046e+53
1.3527246e+54
-2.4480652e+55
-1.2042237e+53
-3.1205936e+55
1.5988377e+53
7.1324549e+53
9.8005261e+53
-2.4319015e+55
-3.0364422e+55
8.0660292e+53
7.3068645e+52
-4.5384548e+52
-6.7813098e+54
-2.3478786e+53
-2.4394891e+53
4.9728622e+53
5.0287065e+53
-6.6034291e+54
-2.4472397e+53
-2.4315648e+53
2.4194639e+55
2.4358389e+55
1.0496941e+55
2.6598001e+55
2.6432947e+55
-3.6987966e+54
2.4711737e+55
2.4464203e+55
-8.5014494e+54
-4.3136341e+54
-1.6183948e+54
-1.5831876e+52
6.8612276e+52
-9.163105e+52
6.9963543e+52
-9.7742358e+52
-2.5552331e+55
1.7238254e+54
1.7788987e+54
-1.4223446e+54
-1.2388436e+54
-2.8793354e+55
-4.7666435e+54
5.4706207e+54
1.4401684e+53
-6.9230478e+54
-3.2032667e+53
-3.1319866e+53
3.5736821e+53
3.5976627e+53
1.4094954e+53
-4.1834356e+53
-4.2975601e+53
2.9447658e+53
2.9768632e+53
-5.3626615e+54
-4.1248769e+53
-3.9494962e+53
3.2611635e+53
3.1607186e+53
-6.6999141e+54
-2.9636254e+53
-3.1772474e+53
3.6252013e+53
3.5701287e+53
-5.3490754e+54
1.028428e+53
-2.0666011e+53
-2.4141555e+53
3.8673103e+53
4.1202712e+53
-2.5012058e+53
1.6495532e+53
-5.8800289e+54
-2.2794402e+53
-7.9964419e+53
5.4233091e+54
-6.1275766e+54
2.1862679e+53
-7.9696503e+53
2.07325e+53
3.865804e+53
3.8757212e+53
-2.734103e+53
-2.4302004e+53
-8.6527507e+53
6.007684e+54
5.854186e+54
-2.1164115e+54
5.0093248e+54
4.9419346e+54
-1.1775929e+54
4.9908476e+54
5.1150623e+54
-2.1689604e+54
2.0429563e+53
-5.393053e+54
3.8077065e+53
3.9619941e+53
-2.5688234e+53
-2.6455232e+53
-5.2104576e+54
3.8984531e+53
-2.5677033e+53
3.9119295e+53
-2.2014941e+53
1.3030153e+53
-7.6835058e+53
-7.4679212e+53
-1.2157506e+54
-1.4513279e+52
1.6026428e+54
-9.300555e+51
8.0733932e+52
-9.0551922e+52
-9.3424717e+52
7.9239036e+52
1.1016272e+50
-4.0400408e+51
-1.5034055e+54
7.3319933e+52
-8.4533901e+52
-8.5249985e+52
7.650221e+52
1.2668287e+54
5.5745035e+51
-1.5631073e+54
-8.6284907e+52
-8.849009e+52
7.5774634e+52
7.2847774e+52
1.6497815e+54
6.8222117e+51
7.6388807e+52
-9.3419553e+52
-9.2453025e+52
7.300889e+52
-1.2564181e+54
3.7320537e+51
-1.1014529e+52
7.0523317e+52
-9.4817957e+52
-9.8304056e+52
6.791532e+52
-1.1564112e+52
-1.8115943e+51
7.0097974e+52
-9.2537149e+52
-9.8344792e+52
6.9987177e+52
1.2597964e+54
1.8012054e+52
-9.4747959e+52
-9.5921709e+52
7.0860565e+52
6.7630451e+52
2.1176742e+52
6.3532994e+52
-9.8744564e+52
-9.5980517e+52
6.1455329e+52
-1.2942172e+54
4.1539617e+51
7.2014259e+52
-9.4415945e+52
-1.0152517e+53
7.1774929e+52
5.0745553e+51
-1.6545393e+54
6.6349355e+52
-1.0332926e+53
-1.0535919e+53
6.8010449e+52
1.2671641e+54
-1.624672e+54
-4.0453163e+51
-1.0128805e+53
-1.0043716e+53
7.5480311e+52
6.5749502e+52
4.3969124e+51
6.6025797e+52
-9.9841116e+52
-9.8537743e+52
6.2101338e+52
-1.233207e+52
1.2437595e+54
1.5647572e+52
-1.5279269e+54
-8.9899586e+52
-9.1098951e+52
7.5106874e+52
6.9681784e+52
1.2630366e+54
-1.5653762e+54
-9.3541037e+52
-9.1082064e+52
7.3185108e+52
7.168023e+52
8.3947844e+51
-1.0255356e+53
-9.9591983e+52
6.9292791e+52
7.1171124e+52
1.2493634e+52
7.3836193e+52
-9.8908327e+52
-9.8444562e+52
6.8947337e+52
-1.2727705e+54
-1.6170888e+51
1.6733162e+54
8.1070663e+52
-9.496601e+52
-9.9058458e+52
7.8047666e+52
6.7121293e+51
-1.5571218e+54
7.4351324e+52
-9.0883364e+52
-9.3066751e+52
7.4766299e+52
1.2758466e+54
1.5921481e+52
-1.5761866e+54
-9.3412959e+52
-9.4668744e+52
7.534018e+52
6.9760201e+52
1.6606515e+54
1.7053769e+52
7.3126721e+52
-1.0118521e+53
-1.005784e+53
6.835654e+52
1.3011535e+54
-2.0747595e+51
7.0339557e+52
-9.6042347e+52
7.0153851e+52
-1.0209277e+53
1.112545e+52
6.3529695e+52
-9.799682e+52
-9.9630105e+52
6.6511262e+52
1.2813813e+54
1.0081955e+52
-1.0280199e+53
6.7780417e+52
6.331055e+52
-1.0257603e+53
1.0661217e+52
-1.0060722e+53
-1.0337074e+53
6.322769e+52
-9.9446132e+51
-1.6630119e+54
-9.6899003e+52
-9.5112895e+52
7.4156099e+52
7.9999865e+52
1.2989348e+54
-1.6744868e+54
-1.0748298e+53
-1.0205814e+53
7.2960533e+52
6.8355672e+52
-1.0367653e+53
-9.9391914e+52
1.2775202e+54
2.0656729e+52
-1.5759553e+54
-9.4927033e+52
-9.306177e+52
7.114085e+52
7.3909834e+52
2.2698788e+52
-1.0396866e+53
7.0034461e+52
-1.0192115e+53
7.2082336e+52
-1.2495167e+54
8.4225463e+52
-9.5372876e+52
-9.4873046e+52
7.5927951e+52
-1.5190187e+54
7.9695492e+52
-9.2163712e+52
-9.037887e+52
7.0907487e+52
7.4273093e+53
2.0380821e+54
-1.1311849e+54
5.2731421e+54
5.355455e+54
4.8345442e+54
4.898205e+54
1.595014e+53
1.2970246e+54
1.3559477e+54
-2.2111565e+53
-5.9657607e+53
1.1160643e+54
1.15387e+54
1.3460927e+54
1.3171664e+54
2.6670889e+53
-6.1910033e+53
1.1286385e+54
1.1166996e+54
1.234293e+52
-1.1690282e+54
-2.4413529e+52
6.9292465e+52
-6.6144218e+52
-6.8322253e+52
7.4325487e+52
-1.2001574e+54
3.1584683e+52
6.9751739e+52
-7.4444701e+52
-6.7861958e+52
6.9492404e+52
3.5884633e+52
-3.1868582e+52
-1.3353992e+53
5.6960731e+52
-1.3253284e+53
-1.2136218e+54
2.8134014e+52
-7.5319921e+52
-7.2752198e+52
6.8217132e+52
7.0683563e+52
3.2868007e+52
-1.3696645e+53
1.1808894e+54
4.5613969e+52
-1.3949633e+53
3.1891589e+52
-6.8420215e+52
-7.4524994e+52
7.0182626e+52
6.6695233e+52
1.3150583e+54
1.3630348e+54
-6.3898606e+53
1.11961e+54
1.1449348e+54
2.1704611e+52
-1.19262e+54
6.766143e+52
-7.2081062e+52
-7.6771264e+52
6.9578505e+52
-1.2134405e+54
6.802197e+52
-7.9374455e+52
-7.4793421e+52
6.3958993e+52
2.8261643e+52
-1.4770253e+53
-1.5292514e+53
2.0462e+54
4.7924794e+54
4.7731083e+54
5.2377547e+54
5.1756666e+54
6.4683084e+50
3.1050257e+53
-1.0120918e+51
-3.6975815e+53
-3.4931351e+52
3.1636011e+53
3.4293832e+50
-3.777367e+53
-3.5345128e+52
3.3287015e+51
4.015361e+53
-3.7084385e+51
-2.0147354e+52
4.7637485e+51
4.0969269e+53
-1.953177e+52
2.338693e+51
3.1064646e+53
-3.7176379e+53
-3.4244695e+52
3.0581376e+53
1.0070965e+51
-3.6217125e+53
-3.4253046e+52
5.0322264e+51
4.0311898e+53
-1.8600424e+52
3.9843551e+53
3.5405598e+51
-1.689843e+52
3.2045925e+53
-3.6548405e+51
3.33392e+51
-1.8376598e+52
-1.8129905e+51
4.0607981e+53
1.3016317e+51
-1.3478099e+52
-3.2349326e+53
-2.8365565e+51
4.1300097e+53
-1.4156509e+52
-3.7229064e+51
-2.0089536e+52
3.2736731e+53
-2.2095032e+51
-2.0750728e+52
-2.5338466e+51
4.1581156e+53
-1.5035206e+52
-3.2304917e+53
4.0876776e+53
-3.1253179e+51
-1.434005e+52
-3.9109957e+51
-2.0665738e+52
1.2600226e+51
3.2293167e+53
-2.2806177e+51
-1.3763981e+52
3.268915e+53
1.837241e+51
-1.6390791e+52
-1.6261021e+51
7.0466245e+50
4.0831033e+53
-1.2993064e+52
4.0132788e+53
-1.926479e+51
-1.1421306e+52
2.1009647e+51
3.2519107e+53
-1.3503516e+52
3.2161097e+53
3.086109e+50
-1.4602205e+52
-1.4494175e+50
-1.6871116e+51
-1.1610051e+52
4.0637045e+53
-1.1201542e+52
4.9653912e+50
-1.2803319e+52
5.8763774e+49
3.1511104e+53
-1.4592862e+51
-1.3201753e+52
3.1886958e+53
-1.4513211e+52
-3.3033754e+50
-1.4169243e+52
-6.3402938e+50
-1.4082893e+52
5.1272958e+50
3.229614e+53
-4.0885282e+53
-2.3874025e+51
-1.5989919e+52
3.3142474e+53
2.8996629e+51
-4.2317085e+53
-1.8056623e+52
-3.6448584e+50
1.5324255e+51
4.1245153e+53
-1.2696975e+52
4.0084899e+53
-1.0113043e+51
-1.1454667e+52
2.5542771e+51
3.2961035e+53
-4.1876807e+53
-1.5040293e+52
3.2571815e+53
-4.1273804e+53
-1.7060403e+52
-1.3511808e+51
4.0424012e+53
-1.1752293e+52
4.1124793e+53
-6.1243631e+51
-3.1713473e+53
-2.6381637e+50
-1.3737357e+52
-2.0992566e+51
-1.3663017e+52
3.2059215e+53
-9.9026977e+50
-1.220895e+52
-1.3879672e+50
-1.3711287e+52
-3.2121427e+53
-4.2068017e+50
-1.4505155e+52
7.7620383e+50
-1.4576254e+52
3.1437808e+53
9.0778348e+49
-1.3368726e+52
3.4079167e+50
-1.4707447e+52
1.589329e+51
3.1954955e+53
-1.5424194e+51
-3.8329106e+53
-3.5476048e+52
3.1620708e+53
-3.7710164e+53
-3.5390728e+52
-2.7170432e+51
4.0794625e+53
-2.1493159e+52
4.1220737e+53
-1.1570799e+51
-2.2214417e+52
3.2728774e+53
-3.5708092e+51
-2.2042395e+52
-2.1103347e+51
-1.590365e+52
-3.2924357e+53
-2.8461161e+51
-1.6107973e+52
-2.8640388e+51
-2.3020524e+52
-3.1850971e+53
-2.1521292e+51
4.1610909e+53
-2.2146995e+52
-1.1679093e+51
-3.7919298e+53
-3.6319253e+52
3.0933513e+53
-2.6374206e+51
-3.6602376e+53
-3.7383676e+52
4.0182145e+53
-3.8487723e+51
-2.167708e+52
2.2124464e+51
3.2356448e+53
-4.3413548e+51
-2.1866086e+52
3.3412506e+53
-2.2327609e+52
-1.7372936e+51
-1.6409361e+52
-2.8308979e+51
-1.5509927e+52
4.1965715e+51
3.0712418e+53
-3.6679415e+53
-3.8074655e+52
3.175602e+53
3.710866e+51
-3.7978054e+53
-3.6888296e+52
-4.4948832e+51
4.1491025e+51
4.1140636e+53
-2.1739199e+52
3.9888048e+53
-2.2366356e+52
3.7472374e+51
3.1648133e+53
-3.7946573e+53
-3.6542018e+52
3.144115e+53
-3.7282953e+53
-3.6323192e+52
-4.0658213e+51
4.0760334e+53
-1.9965758e+52
4.1003012e+53
-2.2352902e+52
-3.274958e+53
-2.8991615e+51
4.1365779e+53
-1.4022747e+52
-4.2953152e+51
-2.0567579e+52
3.282179e+53
-5.0245383e+51
-2.2828576e+52
-3.910988e+51
4.172872e+53
-1.6119445e+52
4.8425642e+51
3.2124581e+53
-2.1334399e+52
3.2899899e+53
-2.1858333e+52
-4.9494302e+51
4.1759819e+53
-1.5531298e+52
4.0591118e+53
-1.5147375e+52
-3.1852725e+53
-7.6560447e+50
-6.7382822e+51
-2.1014581e+51
-4.0458971e+53
-1.0223319e+52
3.1833466e+53
-4.0823675e+53
-1.5215409e+51
-1.5839556e+52
-5.6977945e+50
-1.5243012e+52
-3.2644687e+53
-1.2922372e+51
-1.1113914e+52
-3.0903477e+51
-1.3594648e+52
3.2718155e+53
-3.1333413e+51
-1.713485e+52
-2.4010155e+51
-1.4062262e+52
-3.2039715e+53
-3.4603463e+51
-6.6865977e+51
-2.7164084e+51
-4.0906121e+53
-1.3766391e+52
3.1217983e+53
-3.9742097e+53
-1.555328e+52
-3.2777676e+53
-3.9723611e+51
-1.345118e+52
-3.3601672e+51
-1.6608305e+52
3.1983106e+53
-1.6477443e+52
-1.3867986e+52
-3.135591e+54
-2.0200825e+54
-2.3070312e+54
9.1435621e+54
9.1686718e+54
2.867106e+55
2.7968164e+55
2.816538e+55
2.8908313e+55
5.998791e+53
-8.3592923e+53
2.9895009e+53
3.041736e+55
3.0603674e+53
3.0461198e+55
4.2518907e+53
-3.2343591e+53
7.3675918e+52
3.08651e+55
1.0310211e+53
3.0513274e+55
3.2339303e+53
-5.0333337e+53
-3.4697252e+53
-2.9729276e+53
-1.8112589e+52
-2.8162111e+53
2.4484114e+55
-2.9427793e+53
2.1357287e+53
-1.8422055e+53
2.5745244e+53
-1.7038445e+53
2.3333957e+55
8.877865e+53
-1.775227e+54
-1.4271423e+54
-3.1158524e+55
-1.3949785e+54
-3.0628016e+55
2.0849716e+54
-5.3299093e+53
-2.2391188e+55
1.8954204e+54
-1.6384276e+54
4.6461271e+53
-2.9198407e+55
1.7990215e+54
-2.1843369e+55
9.4857369e+51
-2.9716816e+55
1.781874e+54
1.7847112e+53
-1.8299617e+54
1.1152667e+53
-3.1838135e+55
4.1478739e+52
5.5374795e+52
-3.2229179e+55
-1.368682e+54
-3.119449e+55
-1.4201439e+54
-1.54981e+54
1.5931816e+54
1.730355e+54
4.3397754e+52
-8.1463336e+52
5.1925509e+53
-6.7467191e+54
5.3361557e+53
-6.8024634e+54
-1.352092e+54
-3.0932081e+55
-1.5223642e+54
1.5941368e+54
1.6471875e+54
-1.4528562e+54
-1.061113e+53
5.573162e+53
-6.7471023e+54
5.3630191e+53
-6.7155835e+54
3.4557658e+52
-1.5500685e+54
7.867214e+52
-8.9747738e+51
8.4242662e+53
-1.316061e+54
1.9213356e+54
-2.0793989e+54
9.0959201e+53
-2.3974766e+55
1.5515432e+54
-2.2504651e+54
1.2308309e+54
-3.0287184e+55
-1.6171028e+54
1.2204781e+54
-1.53616e+54
1.915291e+54
-2.2706352e+55
1.4070211e+54
-2.9607167e+55
-1.133229e+54
-1.1210615e+54
2.4958077e+53
-3.1272329e+55
-1.0027365e+54
-1.5451515e+54
3.9433099e+53
-3.1538798e+55
9.4671674e+53
-1.231509e+54
-3.1300267e+55
1.2613742e+54
-1.7372945e+54
-1.6865321e+54
1.2547106e+54
-2.6411788e+52
5.210542e+54
9.2362654e+52
-6.7258869e+54
-9.204083e+52
5.3930343e+54
-8.0734202e+52
-6.8943288e+54
9.4682333e+51
5.9249524e+52
2.4393496e+53
-9.4872156e+52
9.3941753e+52
1.2620219e+53
-3.1297837e+55
1.2282206e+54
-1.7833378e+54
-1.7217441e+54
1.2296351e+54
4.405901e+51
5.4222035e+54
-6.9400239e+54
-7.7521681e+51
5.237154e+54
-6.7960053e+54
-5.8728301e+52
-5.1746208e+52
1.4716398e+53
2.2953914e+53
1.3920735e+52
-9.2604128e+52
-1.7537676e+54
-1.3463975e+52
-1.0812742e+53
3.0776158e+54
-1.254042e+54
-6.2509421e+53
-6.0327782e+53
3.4479733e+54
-2.2346355e+55
1.2434766e+53
-6.6243149e+53
1.1955627e+54
-3.0277488e+55
-2.036134e+54
2.1540218e+54
-1.3447303e+54
2.3294276e+54
-2.3047454e+55
7.4113395e+53
-3.0219102e+55
-4.6817217e+53
-3.1110859e+55
6.6080071e+51
-3.1018084e+55
-5.447102e+53
-3.2634877e+53
-3.9699803e+53
-1.2481978e+53
1.6356466e+54
-2.4005881e+55
1.9278121e+53
-3.0537218e+55
-6.6888419e+53
8.9471752e+53
1.143652e+54
-2.4029747e+55
-3.0288641e+55
8.0504338e+53
-4.45353e+52
4.3750938e+52
1.0180457e+54
-1.3576809e+54
9.6161086e+51
-2.484691e+55
3.7088817e+53
6.9900301e+53
6.9488928e+53
-1.8161579e+54
-2.4292025e+55
1.1718851e+54
5.3624241e+52
-1.3676007e+52
-6.6854886e+54
-3.5572538e+53
-3.5112505e+53
3.995919e+53
3.9623176e+53
-6.5227541e+54
-3.4824735e+53
3.9091472e+53
3.9565377e+53
-3.5160281e+53
1.7639702e+52
-6.734077e+52
-6.6218742e+54
-2.4670639e+53
-2.3918807e+53
4.919556e+53
4.8994204e+53
-6.7684105e+54
-2.4445019e+53
-2.3386545e+53
5.0320962e+53
4.9987801e+53
6.4634317e+52
-6.6727407e+54
-3.9381867e+52
4.0506764e+53
-3.492283e+53
-3.4855053e+53
4.0282562e+53
2.1937029e+51
1.2852e+54
-8.5211404e+50
-1.6488866e+54
-5.2739135e+52
1.1684106e+53
1.1878821e+53
-5.5332708e+52
1.2766057e+54
4.5885031e+51
-1.6450102e+54
-5.5935556e+52
1.1756629e+53
1.1444303e+53
-5.4012566e+52
-1.81771e+51
1.2023817e+53
-3.513029e+52
-3.3311602e+52
7.1877431e+50
-3.3570087e+52
1.2029353e+53
1.1827093e+53
-3.506641e+52
-6.4740019e+54
-3.6320048e+53
-3.5428286e+53
3.8403484e+53
3.811831e+53
-3.0226276e+51
-1.6228585e+54
-5.458934e+52
1.1251886e+53
-5.6908867e+52
-1.6339279e+54
-5.5598795e+52
-5.4025272e+52
9.1209104e+52
-6.5935281e+54
-2.3199711e+53
-2.3712225e+53
-6.5951147e+54
-2.3250328e+53
-2.46475e+53
4.9714235e+53
4.8869875e+53
-8.6271106e+53
5.1623834e+54
5.911254e+54
5.8508555e+54
5.7739054e+54
5.8585443e+54
5.1440369e+54
-1.2227117e+54
5.7994888e+54
5.971255e+54
6.0358539e+54
5.8803994e+54
2.4235386e+55
2.3983395e+55
1.0619841e+55
2.656002e+55
-4.361147e+54
2.6322862e+55
2.4483105e+55
-8.4910777e+54
-6.3379007e+51
-1.6049998e+54
-9.3162786e+52
-9.365119e+52
7.310176e+52
6.4733032e+52
-3.0754888e+53
3.3267682e+51
-2.8792592e+51
-6.4081108e+51
1.3241881e+51
-3.9101423e+53
-1.937741e+51
-7.5521378e+51
-3.0760829e+53
3.7556856e+51
-3.9356046e+53
-1.4221622e+52
2.2773947e+51
-3.896834e+53
-1.3001638e+52
-3.8141933e+53
-1.471184e+52
2.3662908e+51
-1.6434777e+54
6.6913693e+52
-9.3642655e+52
-9.7610843e+52
6.6821234e+52
-1.6259638e+54
-9.7528537e+52
-9.7266273e+52
6.9784649e+52
5.9663754e+52
2.3899907e+53
-5.4305565e+54
3.9743094e+53
4.1629137e+53
-2.3992018e+53
-2.4781422e+53
-5.2599005e+54
4.1152834e+53
4.0634e+53
-2.4081766e+53
-2.0582719e+53
1.4757574e+53
-5.9366331e+54
-7.7289996e+53
-5.8161169e+54
-7.6299664e+53
4.9383291e+54
4.8896208e+54
-2.1778729e+54
-1.1545964e+51
-1.565835e+54
-8.4318561e+52
-8.1884603e+52
8.2774138e+52
7.2561828e+52
3.2295384e+51
1.2531089e+54
4.7012219e+51
-1.5602952e+54
-8.6751917e+52
-8.474262e+52
8.1277792e+52
6.9145063e+52
1.2483374e+54
-1.5432476e+54
-8.7587559e+52
-8.2336307e+52
8.0561324e+52
7.3148875e+52
-6.2111413e+51
1.6355253e+54
-9.5847049e+52
-9.0197571e+52
7.482976e+52
7.449588e+52
1.6429687e+54
3.9430502e+51
7.6668315e+52
-9.2975949e+52
-9.4357004e+52
7.0416593e+52
-9.4271491e+51
1.2606945e+54
6.8267316e+52
-9.4507467e+52
-9.8741788e+52
6.8908633e+52
1.2615065e+54
-2.4335845e+51
-9.6615765e+52
-9.4996557e+52
7.0975961e+52
6.5348826e+52
-4.6114979e+50
-9.8590813e+52
6.517714e+52
1.7595338e+51
6.5230475e+52
-9.7476641e+52
-9.735873e+52
6.0613173e+52
6.2893048e+50
1.2722931e+54
-1.6497237e+54
7.9672569e+52
-9.124202e+52
-9.8529972e+52
7.1979483e+52
1.2480377e+54
-1.6125242e+54
-9.2911155e+52
-9.1156544e+52
8.1512845e+52
7.0908864e+52
2.8365188e+51
-9.6536263e+52
-8.6942103e+52
7.0118114e+52
6.7214966e+52
6.9940491e+52
-9.1900268e+52
-9.2001587e+52
6.4893096e+52
-1.2046505e+52
1.2251041e+54
-1.4987088e+54
-8.2970931e+52
-8.3866452e+52
8.1278572e+52
7.080714e+52
1.2537389e+54
-1.5586019e+54
-8.8717028e+52
-8.3274991e+52
8.020197e+52
7.1582889e+52
9.1395116e+51
7.48251e+52
-9.0838864e+52
-9.6269139e+52
7.3621665e+52
7.7934286e+52
-9.0542208e+52
-9.0359564e+52
7.239925e+52
1.1485996e+54
3.6294863e+52
-1.2728283e+54
-2.7905842e+52
-1.2557575e+53
1.3336688e+52
-1.417304e+52
-5.7788571e+52
7.2563113e+52
7.7674231e+52
-5.9687291e+52
-1.1833728e+54
2.6380514e+52
-6.0048271e+52
-6.6618955e+52
7.2891993e+52
7.3024274e+52
-1.3294757e+54
5.5927163e+52
-1.2364976e+53
1.4766311e+53
-2.1625574e+53
1.0986277e+54
1.1337922e+54
-5.7492805e+53
1.3192083e+54
1.2897562e+54
2.4510413e+53
-5.9694888e+53
1.1129158e+54
1.0957263e+54
2.8212248e+52
-1.1929961e+54
7.1537634e+52
-6.5502161e+52
-6.7537783e+52
7.3871055e+52
-1.1604422e+54
3.3265182e+52
7.3202834e+52
-6.7113081e+52
-6.0797279e+52
6.9742267e+52
3.3450924e+52
-1.2472171e+53
4.4723773e+52
-1.2497873e+53
-8.6134065e+53
2.1772912e+54
5.1741821e+54
5.1285291e+54
4.6881346e+54
4.6809918e+54
1.9665591e+53
1.2936005e+54
1.3382318e+54
-5.8408991e+53
1.1101362e+54
1.1315451e+54
1.3046231e+54
1.2542476e+54
-5.5621026e+53
1.1060513e+54
1.0619718e+54
2.1563395e+54
-1.2108507e+54
4.7513644e+54
4.7954701e+54
5.1973975e+54
5.2633671e+54
2.2873421e+52
-1.1801603e+54
-6.7802919e+52
-6.4423971e+52
7.1567161e+52
7.4860801e+52
-1.1975713e+54
3.7564273e+52
7.1962962e+52
-7.1467633e+52
-6.666348e+52
6.9061502e+52
2.6727018e+52
-1.2544525e+53
2.8966951e+52
-1.261317e+53
-3.3421262e+52
-1.1347365e+54
7.2200479e+52
-6.6138941e+52
-5.9906258e+52
6.8415639e+52
1.1880232e+54
1.0524651e+52
-1.2172801e+53
-6.6451358e+52
7.1159842e+52
7.2371723e+52
-6.9676382e+52
-1.219821e+53
-3.1934003e+53
-5.2435038e+51
4.0647728e+53
4.3636219e+51
-5.5234288e+51
-7.8724872e+51
-3.8879957e+53
2.9029253e+51
-1.6122824e+52
3.1842576e+53
-3.9463174e+53
-7.5576956e+51
-1.7533518e+52
-4.8471835e+51
4.07572e+53
-1.0303532e+52
-2.9356801e+53
-7.9765305e+51
1.8762128e+51
-1.5811286e+52
-3.0688689e+51
1.3630689e+51
-3.4688968e+53
-2.9506431e+52
3.0135905e+53
-3.0882011e+51
-3.5816136e+53
-2.8428312e+52
-9.5865646e+51
-1.5160442e+52
1.3533057e+51
2.979527e+53
-4.518431e+50
-3.5644105e+53
-2.8697997e+52
3.0184736e+53
-3.6285433e+53
-2.9217993e+52
-5.4863977e+51
3.9053505e+53
-1.701321e+52
3.8467442e+53
-3.5664778e+51
-1.5793859e+52
-3.1272428e+53
-2.8978331e+51
4.0043662e+53
-1.3272888e+52
-3.7784228e+51
-1.9388049e+52
3.0918972e+53
-2.762102e+51
-1.798464e+52
3.9279388e+53
-8.8053766e+50
-1.2612551e+52
-3.1431016e+53
1.2906149e+51
-8.5787853e+50
-6.6134726e+51
-9.2352665e+50
-3.9848449e+53
2.0035736e+50
-9.9204553e+51
3.1422697e+53
-4.0122844e+53
8.0045325e+50
-1.3026547e+52
2.4060633e+51
-1.2533594e+52
-3.207452e+53
-1.2871977e+51
2.4431205e+51
-8.7972236e+51
-4.0777049e+51
5.1322653e+51
-7.8596329e+51
3.2048393e+53
-1.8783751e+51
-1.3456038e+52
-7.8561593e+50
-1.1258901e+52
6.3066544e+50
3.1119316e+53
2.9572985e+50
-1.4073629e+52
3.1647122e+53
-1.3204011e+52
-1.6989795e+50
3.9735229e+53
-1.0636223e+52
3.8900087e+53
1.2410703e+51
-1.1588219e+52
-3.1093091e+53
8.1513984e+50
-1.3628551e+52
1.3411204e+51
-1.2863838e+52
3.0602502e+53
1.6865283e+51
-1.3350049e+52
1.8202312e+51
-1.4944043e+52
-3.1684515e+53
1.4041857e+51
-6.8372104e+51
-1.2358097e+51
-4.0130836e+53
-7.0303757e+51
3.1746038e+53
-4.0547535e+53
-3.6661525e+50
-1.4379375e+52
1.9027406e+51
-9.9194336e+51
-3.2238132e+53
-4.4299528e+50
-1.089359e+52
-1.9369942e+51
-4.0710395e+53
-1.6373887e+52
3.2404643e+53
-2.4827251e+51
-4.1153706e+53
-1.732281e+52
-1.2928531e+51
-1.2568594e+52
2.4811625e+51
3.1858888e+53
-4.0122474e+53
-4.8339436e+51
-1.6299378e+52
3.2517122e+53
-4.1174238e+53
-1.3867546e+52
-1.8478891e+51
4.0650278e+53
-5.2962052e+51
3.965296e+53
-2.5909218e+51
-1.1448172e+52
-3.1751509e+53
7.7571108e+50
-1.322175e+52
5.5892145e+50
-1.1778943e+52
3.1186545e+53
-3.3371508e+50
-1.2980929e+52
1.5217882e+51
-1.4244945e+52
8.7674246e+50
3.0099222e+53
-1.5036662e+51
-3.5634625e+53
-3.3918611e+52
3.0902428e+53
2.1707031e+51
-3.6883231e+53
-3.2584859e+52
-1.4006179e+51
3.292472e+51
4.0234463e+53
-2.0105326e+52
3.9201636e+53
-1.9712962e+51
-2.0771635e+52
2.2481861e+51
3.1067133e+53
-3.7282508e+53
-3.1464754e+52
3.0920824e+53
-3.6744008e+53
-3.1053853e+52
-3.3903023e+51
4.0074162e+53
-1.8524425e+52
4.025099e+53
-2.0256174e+52
3.3291835e+51
3.2303092e+53
-4.6074245e+51
-2.1796313e+52
3.220876e+53
-2.0370862e+52
-1.486088e+51
-1.5117988e+52
-2.9620601e+51
-1.5859026e+52
-3.2272665e+53
-3.4914082e+51
-1.4650168e+52
-2.4410813e+51
-2.1456678e+52
3.1627853e+53
-3.3548366e+51
-2.1792949e+52
-4.2535383e+51
-1.5236725e+52
-3.2815935e+53
-2.50999e+51
4.1481054e+53
-7.3240297e+51
-5.0717699e+51
-4.0347825e+53
-1.7930112e+52
3.2435179e+53
-4.0466175e+53
-2.9141796e+51
-2.0906049e+52
-4.6356916e+50
4.1360161e+53
-1.3248547e+52
-3.0854664e+53
-4.201055e+51
-1.8350491e+52
-2.4524706e+51
-3.6636778e+53
-3.2113348e+52
3.1206265e+53
-1.0590269e+51
-3.7431511e+53
-3.2207725e+52
-2.4602695e+51
-1.9573579e+52
3.5369369e+50
3.0669969e+53
2.80925e+49
-3.6580303e+53
-3.4691399e+52
3.1457579e+53
-3.7671605e+53
-3.323383e+52
-4.572347e+50
4.0753827e+53
-1.962529e+52
3.9654101e+53
4.1242841e+50
-2.0950818e+52
-3.2536318e+53
-5.6144077e+50
4.1403197e+53
-1.5444185e+52
-5.8401956e+50
-2.1340278e+52
3.1868803e+53
-1.4922287e+51
-2.1817187e+52
4.0319091e+53
-5.2365978e+50
-1.6184113e+52
-3.25198e+53
4.3972925e+50
4.0274173e+53