/*--------------------------------*- C++ -*----------------------------------*\
  =========                 |
  \\      /  F ield         | OpenFOAM: The Open Source CFD Toolbox
   \\    /   O peration     | Website:  https://openfoam.org
    \\  /    A nd           | Version:  7
     \\/     M anipulation  |
\*---------------------------------------------------------------------------*/
FoamFile
{
    version     2.0;
    format      ascii;
    class       volScalarField;
    location    "10000";
    object      pMean;
}
// * * * * * * * * * * * * * * * * * * * * * * * * * * * * * * * * * * * * * //

dimensions      [0 2 -2 0 0 0 0];

internalField   nonuniform List<scalar> 
34158
(
-1.5374322e+114
-1.53938e+114
-1.5396327e+114
-1.5416204e+114
-1.5215607e+114
-1.5170391e+114
-1.5118389e+114
-1.5149144e+114
-1.3640682e+114
-1.3645605e+114
-1.5261453e+114
-1.5219369e+114
-1.5169574e+114
-1.5182883e+114
-1.52172e+114
-1.4973041e+114
-1.5165952e+114
-1.4935725e+114
-1.486558e+114
-1.4894979e+114
-1.4083299e+114
-1.40707e+114
-1.3622376e+114
-1.3627139e+114
-1.2977656e+114
-1.3248313e+114
-1.3272316e+114
-1.2985839e+114
-1.3731046e+114
-1.3955835e+114
-1.3968151e+114
-1.3727613e+114
-1.3713998e+114
-1.3954414e+114
-1.265844e+114
-1.2658069e+114
-1.5188948e+114
-1.518797e+114
-1.5267487e+114
-1.5022914e+114
-1.5240628e+114
-1.5004443e+114
-1.4924412e+114
-1.4941019e+114
-1.5090353e+114
-1.5082647e+114
-1.5218563e+114
-1.4940728e+114
-1.4763855e+114
-1.5166745e+114
-1.4905471e+114
-1.4735447e+114
-1.4534215e+114
-1.4557086e+114
-1.4095498e+114
-1.4112918e+114
-1.4012834e+114
-1.4010325e+114
-1.3669766e+114
-1.3661031e+114
-1.2350665e+114
-1.3609944e+114
-1.3266513e+114
-1.2965593e+114
-1.2983274e+114
-1.3238289e+114
-1.3693345e+114
-1.3896389e+114
-1.3931854e+114
-1.3697489e+114
-1.3711141e+114
-1.3941508e+114
-1.395706e+114
-1.3734357e+114
-1.2603761e+114
-1.3570445e+114
-1.356799e+114
-1.332271e+114
-1.3300715e+114
-1.3317987e+114
-1.3566839e+114
-1.2609938e+114
-1.380149e+114
-1.380107e+114
-1.3878632e+114
-1.3891057e+114
-1.3911736e+114
-1.3901334e+114
-1.398629e+114
-1.3906115e+114
-1.3915167e+114
-1.3986294e+114
-1.3978829e+114
-1.3794481e+114
-1.3892279e+114
-1.378994e+114
-1.3884712e+114
-1.378699e+114
-1.3786519e+114
-1.388131e+114
-1.3887564e+114
-1.3983119e+114
-1.3906012e+114
-1.3987341e+114
-1.3910619e+114
-1.2655047e+114
-1.2654941e+114
-1.2580885e+114
-1.2584632e+114
-1.3138527e+114
-1.3137757e+114
-1.5034708e+114
-1.5032128e+114
-1.4943556e+114
-1.4944699e+114
-1.5091991e+114
-1.5088037e+114
-1.5279145e+114
-1.5013675e+114
-1.48168e+114
-1.5254669e+114
-1.4998532e+114
-1.4800083e+114
-1.4579493e+114
-1.45844e+114
-1.4672995e+114
-1.5264311e+114
-1.5247961e+114
-1.4670343e+114
-1.5256998e+114
-1.5247806e+114
-1.5218886e+114
-1.4942268e+114
-1.4717114e+114
-1.4488297e+114
-1.5166262e+114
-1.4882985e+114
-1.471221e+114
-1.4455779e+114
-1.4127859e+114
-1.4141679e+114
-1.4046764e+114
-1.4026366e+114
-1.3681922e+114
-1.3690842e+114
-1.4019326e+114
-1.3564065e+114
-1.4022654e+114
-1.3565047e+114
-1.5491706e+114
-1.5501096e+114
-1.2241694e+114
-1.2349603e+114
-1.4063906e+114
-1.3260219e+114
-1.2973456e+114
-1.3675147e+114
-1.3886413e+114
-1.3891019e+114
-1.3689561e+114
-1.3563305e+114
-1.3341458e+114
-1.3307818e+114
-1.3555792e+114
-1.2600088e+114
-1.2614734e+114
-1.3556398e+114
-1.3565269e+114
-1.3295533e+114
-1.3313043e+114
-1.3826653e+114
-1.3746291e+114
-1.3752907e+114
-1.383415e+114
-1.3939985e+114
-1.386862e+114
-1.3870667e+114
-1.3951002e+114
-1.3958252e+114
-1.388939e+114
-1.3887016e+114
-1.3955202e+114
-1.3770071e+114
-1.3763818e+114
-1.385874e+114
-1.3860911e+114
-1.3862744e+114
-1.3780244e+114
-1.3788762e+114
-1.387793e+114
-1.3886481e+114
-1.3961543e+114
-1.3898367e+114
-1.3974873e+114
-1.3897363e+114
-1.390265e+114
-1.3972903e+114
-1.3799887e+114
-1.3888561e+114
-1.3880454e+114
-1.3812478e+114
-1.2465266e+114
-1.3287586e+114
-1.3257897e+114
-1.3767055e+114
-1.3781171e+114
-1.3812305e+114
-1.3779998e+114
-1.3774377e+114
-1.3773297e+114
-1.378376e+114
-1.3758805e+114
-1.3263559e+114
-1.3755538e+114
-1.3754169e+114
-1.3787049e+114
-1.3767837e+114
-1.245406e+114
-1.3858766e+114
-1.386669e+114
-1.3852518e+114
-1.3857773e+114
-1.3871245e+114
-1.3856992e+114
-1.3859016e+114
-1.3836731e+114
-1.3815388e+114
-1.3836471e+114
-1.3850138e+114
-1.3835232e+114
-1.3834919e+114
-1.3853447e+114
-1.3850932e+114
-1.3835788e+114
-1.391686e+114
-1.3919135e+114
-1.3962206e+114
-1.3961874e+114
-1.39164e+114
-1.3909079e+114
-1.3954808e+114
-1.3960501e+114
-1.401841e+114
-1.4020533e+114
-1.4020351e+114
-1.4056876e+114
-1.4059014e+114
-1.391538e+114
-1.3912618e+114
-1.3957222e+114
-1.3960403e+114
-1.3918285e+114
-1.3916828e+114
-1.3959371e+114
-1.3958229e+114
-1.4058501e+114
-1.4021135e+114
-1.4019615e+114
-1.4055485e+114
-1.4057116e+114
-1.4021063e+114
-1.4022502e+114
-1.4059394e+114
-1.386476e+114
-1.3858348e+114
-1.3855973e+114
-1.386822e+114
-1.3838535e+114
-1.3853809e+114
-1.3856815e+114
-1.3845655e+114
-1.3874676e+114
-1.3868126e+114
-1.3852165e+114
-1.3850671e+114
-1.3835591e+114
-1.3847718e+114
-1.385504e+114
-1.3851109e+114
-1.3845903e+114
-1.3854132e+114
-1.3857979e+114
-1.38444e+114
-1.38592e+114
-1.3850918e+114
-1.3846326e+114
-1.3861733e+114
-1.3849674e+114
-1.3833076e+114
-1.3844543e+114
-1.3858897e+114
-1.3836747e+114
-1.3840828e+114
-1.3857562e+114
-1.3854144e+114
-1.405941e+114
-1.4024737e+114
-1.4024532e+114
-1.4058782e+114
-1.3962301e+114
-1.3915057e+114
-1.3921242e+114
-1.3963463e+114
-1.4056623e+114
-1.4024112e+114
-1.4022715e+114
-1.4058416e+114
-1.3961654e+114
-1.3918988e+114
-1.3919218e+114
-1.3961851e+114
-1.2603e+114
-1.2659792e+114
-1.265275e+114
-1.2579145e+114
-1.2585111e+114
-1.3150781e+114
-1.3148377e+114
-1.2616576e+114
-1.3027261e+114
-1.2620893e+114
-1.3034577e+114
-1.4935491e+114
-1.4930302e+114
-1.5021952e+114
-1.4817106e+114
-1.5056798e+114
-1.4823958e+114
-1.458565e+114
-1.458373e+114
-1.4674203e+114
-1.5270841e+114
-1.5247077e+114
-1.4670716e+114
-1.5278991e+114
-1.5268657e+114
-1.5279606e+114
-1.5041263e+114
-1.4784576e+114
-1.4501931e+114
-1.525592e+114
-1.5001121e+114
-1.4755507e+114
-1.4506013e+114
-1.4153288e+114
-1.4149108e+114
-1.4163486e+114
-1.471865e+114
-1.4724755e+114
-1.5005688e+114
-1.5004952e+114
-1.4164792e+114
-1.4727827e+114
-1.4712977e+114
-1.499401e+114
-1.5008227e+114
-1.4941576e+114
-1.4705239e+114
-1.4499537e+114
-1.4089117e+114
-1.4881575e+114
-1.4718065e+114
-1.4468529e+114
-1.4061728e+114
-1.3695003e+114
-1.3698169e+114
-1.4053691e+114
-1.3588696e+114
-1.4029094e+114
-1.3583002e+114
-1.4023072e+114
-1.3571308e+114
-1.4029383e+114
-1.3572484e+114
-1.5255569e+114
-1.5253646e+114
-1.5509613e+114
-1.5493196e+114
-1.5257541e+114
-1.5671785e+114
-1.567282e+114
-1.5741234e+114
-1.5739856e+114
-1.526015e+114
-1.5677694e+114
-1.5671451e+114
-1.5514098e+114
-1.5514727e+114
-1.2563403e+114
-1.2571742e+114
-1.2242025e+114
-1.2352627e+114
-1.405693e+114
-1.4137341e+114
-1.4097558e+114
-1.4137965e+114
-1.4101892e+114
-1.4102137e+114
-1.4102573e+114
-1.4059654e+114
-1.4057191e+114
-1.3551026e+114
-1.3557154e+114
-1.3303044e+114
-1.3331498e+114
-1.2611963e+114
-1.3712662e+114
-1.3723438e+114
-1.3717566e+114
-1.3805222e+114
-1.3815783e+114
-1.3846313e+114
-1.3853306e+114
-1.392987e+114
-1.393738e+114
-1.3858537e+114
-1.3853497e+114
-1.3938204e+114
-1.3931145e+114
-1.3743856e+114
-1.3733019e+114
-1.382074e+114
-1.3816317e+114
-1.3784868e+114
-1.3714254e+114
-1.3743092e+114
-1.3761907e+114
-1.3284001e+114
-1.3255584e+114
-1.3741851e+114
-1.3738631e+114
-1.375283e+114
-1.3768168e+114
-1.2465057e+114
-1.325471e+114
-1.328542e+114
-1.2478398e+114
-1.3744764e+114
-1.3759532e+114
-1.377424e+114
-1.3759003e+114
-1.3765188e+114
-1.3771517e+114
-1.3763685e+114
-1.3808363e+114
-1.37896e+114
-1.377859e+114
-1.379202e+114
-1.3810797e+114
-1.379367e+114
-1.380441e+114
-1.382126e+114
-1.3812653e+114
-1.3804711e+114
-1.3808804e+114
-1.3807859e+114
-1.3805768e+114
-1.3819388e+114
-1.3802272e+114
-1.3803884e+114
-1.3821769e+114
-1.4020394e+114
-1.3981659e+114
-1.3987733e+114
-1.4025894e+114
-1.3923794e+114
-1.3871763e+114
-1.3886206e+114
-1.393191e+114
-1.3891149e+114
-1.3889352e+114
-1.3932398e+114
-1.3933395e+114
-1.4028607e+114
-1.3990332e+114
-1.399316e+114
-1.4031648e+114
-1.403082e+114
-1.3995928e+114
-1.3995602e+114
-1.4029007e+114
-1.3932147e+114
-1.3891363e+114
-1.3894205e+114
-1.3934953e+114
-1.3893528e+114
-1.3894668e+114
-1.3935632e+114
-1.3937696e+114
-1.4031135e+114
-1.3995708e+114
-1.399799e+114
-1.4036175e+114
-1.3830385e+114
-1.3836615e+114
-1.3836996e+114
-1.3826566e+114
-1.3831405e+114
-1.3822179e+114
-1.3819593e+114
-1.3833716e+114
-1.3816408e+114
-1.3806536e+114
-1.3827017e+114
-1.3833244e+114
-1.3833003e+114
-1.3819381e+114
-1.381331e+114
-1.3827378e+114
-1.3814942e+114
-1.3810281e+114
-1.3823605e+114
-1.3834361e+114
-1.3833156e+114
-1.383783e+114
-1.3850614e+114
-1.385018e+114
-1.3850788e+114
-1.3850143e+114
-1.3850554e+114
-1.3847548e+114
-1.3841857e+114
-1.3828213e+114
-1.3827734e+114
-1.3842018e+114
-1.3941049e+114
-1.3894201e+114
-1.3946733e+114
-1.3907355e+114
-1.4038064e+114
-1.399953e+114
-1.4005283e+114
-1.4041663e+114
-1.3906095e+114
-1.3950026e+114
-1.3948847e+114
-1.3906726e+114
-1.4008702e+114
-1.4007374e+114
-1.4043598e+114
-1.3907616e+114
-1.3907953e+114
-1.3948907e+114
-1.394929e+114
-1.3908487e+114
-1.3906632e+114
-1.394612e+114
-1.3949083e+114
-1.4007379e+114
-1.4006231e+114
-1.3871485e+114
-1.3859023e+114
-1.3852167e+114
-1.3858358e+114
-1.382795e+114
-1.3843277e+114
-1.3828796e+114
-1.3843961e+114
-1.3831638e+114
-1.3816772e+114
-1.381417e+114
-1.3829301e+114
-1.3851649e+114
-1.3875452e+114
-1.3856525e+114
-1.383799e+114
-1.3188177e+114
-1.3148302e+114
-1.3196297e+114
-1.3149371e+114
-1.3914687e+114
-1.3882749e+114
-1.3875527e+114
-1.3886128e+114
-1.3828699e+114
-1.3989589e+114
-1.396925e+114
-1.3848112e+114
-1.384393e+114
-1.3963496e+114
-1.3980369e+114
-1.3834612e+114
-1.3952025e+114
-1.3981853e+114
-1.3835791e+114
-1.3836203e+114
-1.3971002e+114
-1.3951541e+114
-1.3834246e+114
-1.382074e+114
-1.315393e+114
-1.3883979e+114
-1.3861165e+114
-1.3820936e+114
-1.3972326e+114
-1.3940121e+114
-1.3826644e+114
-1.3818167e+114
-1.3933412e+114
-1.3943878e+114
-1.3806129e+114
-1.3198204e+114
-1.3148431e+114
-1.3186796e+114
-1.3956192e+114
-1.3960197e+114
-1.3956677e+114
-1.3957185e+114
-1.396145e+114
-1.3950819e+114
-1.3956801e+114
-1.3942031e+114
-1.3891685e+114
-1.3887128e+114
-1.3892091e+114
-1.3902676e+114
-1.3905204e+114
-1.3895926e+114
-1.389641e+114
-1.3906692e+114
-1.3942233e+114
-1.3940966e+114
-1.3984419e+114
-1.3985573e+114
-1.3939159e+114
-1.3935735e+114
-1.3981796e+114
-1.3983057e+114
-1.4032532e+114
-1.4035248e+114
-1.4034488e+114
-1.4080419e+114
-1.4081185e+114
-1.3940145e+114
-1.3937829e+114
-1.3984499e+114
-1.3986824e+114
-1.393902e+114
-1.3941309e+114
-1.3985801e+114
-1.3986936e+114
-1.407982e+114
-1.4035901e+114
-1.4037502e+114
-1.4078268e+114
-1.4078889e+114
-1.4036289e+114
-1.4037315e+114
-1.4080775e+114
-1.3961738e+114
-1.3955884e+114
-1.3958018e+114
-1.3965407e+114
-1.3907374e+114
-1.3897934e+114
-1.389644e+114
-1.3910866e+114
-1.3964905e+114
-1.3963621e+114
-1.3954568e+114
-1.3957329e+114
-1.3907295e+114
-1.391609e+114
-1.3897618e+114
-1.3896808e+114
-1.3954202e+114
-1.3955799e+114
-1.3959533e+114
-1.3954425e+114
-1.3956298e+114
-1.3949611e+114
-1.3953226e+114
-1.3961896e+114
-1.3897121e+114
-1.3905893e+114
-1.3911234e+114
-1.3900353e+114
-1.3905695e+114
-1.3909179e+114
-1.389911e+114
-1.3898666e+114
-1.4081527e+114
-1.4038207e+114
-1.4036766e+114
-1.4081451e+114
-1.3986476e+114
-1.3942811e+114
-1.3943389e+114
-1.3986733e+114
-1.4081427e+114
-1.4036024e+114
-1.40357e+114
-1.3985527e+114
-1.3942374e+114
-1.3942931e+114
-1.3986603e+114
-1.2598241e+114
-1.2780998e+114
-1.2785454e+114
-1.2765576e+114
-1.2762247e+114
-1.2877763e+114
-1.2656271e+114
-1.2649218e+114
-1.2871794e+114
-1.2580985e+114
-1.2579776e+114
-1.3151478e+114
-1.3149945e+114
-1.26185e+114
-1.3043774e+114
-1.2625768e+114
-1.3045245e+114
-1.3061947e+114
-1.2634829e+114
-1.263899e+114
-1.3070874e+114
-1.4805226e+114
-1.4814909e+114
-1.4578255e+114
-1.4571431e+114
-1.4664102e+114
-1.4658077e+114
-1.5030253e+114
-1.4788893e+114
-1.4494764e+114
-1.5105203e+114
-1.4826087e+114
-1.4490344e+114
-1.4146526e+114
-1.4148145e+114
-1.4162659e+114
-1.4724878e+114
-1.4720223e+114
-1.5010169e+114
-1.5005277e+114
-1.4155113e+114
-1.4711397e+114
-1.500124e+114
-1.5011418e+114
-1.4719865e+114
-1.504242e+114
-1.4792963e+114
-1.4498117e+114
-1.408379e+114
-1.5001143e+114
-1.4745033e+114
-1.4507222e+114
-1.4095039e+114
-1.3706376e+114
-1.3705701e+114
-1.3693833e+114
-1.4437273e+114
-1.4187587e+114
-1.4189282e+114
-1.4437703e+114
-1.4932502e+114
-1.4940377e+114
-1.3692927e+114
-1.4445061e+114
-1.4192271e+114
-1.4173068e+114
-1.4430022e+114
-1.4941392e+114
-1.4926195e+114
-1.4697716e+114
-1.4521262e+114
-1.4142257e+114
-1.358505e+114
-1.4719822e+114
-1.4506902e+114
-1.407066e+114
-1.3593391e+114
-1.4069006e+114
-1.3596643e+114
-1.4026898e+114
-1.3592521e+114
-1.4022987e+114
-1.3577192e+114
-1.4029414e+114
-1.3578697e+114
-1.5381738e+114
-1.5378083e+114
-1.5520299e+114
-1.5521581e+114
-1.5786553e+114
-1.5789024e+114
-1.5789243e+114
-1.579043e+114
-1.5384494e+114
-1.552482e+114
-1.552354e+114
-1.5388651e+114
-1.578679e+114
-1.5788489e+114
-1.5265201e+114
-1.5687081e+114
-1.5687148e+114
-1.5752127e+114
-1.5751877e+114
-1.5257799e+114
-1.5678969e+114
-1.5673078e+114
-1.5740814e+114
-1.5748438e+114
-1.5526373e+114
-1.5389423e+114
-1.5391732e+114
-1.5530046e+114
-1.5795079e+114
-1.5825556e+114
-1.5832011e+114
-1.5798285e+114
-1.5798196e+114
-1.5832623e+114
-1.5825776e+114
-1.5795405e+114
-1.5918922e+114
-1.5892784e+114
-1.5887758e+114
-1.5886968e+114
-1.5918448e+114
-1.59118e+114
-1.5892175e+114
-1.5395745e+114
-1.5385848e+114
-1.5527354e+114
-1.5534173e+114
-1.5795397e+114
-1.5826952e+114
-1.5796038e+114
-1.5794548e+114
-1.5791111e+114
-1.5267843e+114
-1.5693735e+114
-1.5695335e+114
-1.5268912e+114
-1.5687272e+114
-1.5694922e+114
-1.5751071e+114
-1.5757484e+114
-1.3261973e+114
-1.3228185e+114
-1.3233026e+114
-1.3280451e+114
-1.2574376e+114
-1.3245956e+114
-1.322724e+114
-1.326391e+114
-1.3283441e+114
-1.2248384e+114
-1.2582282e+114
-1.4095441e+114
-1.4093433e+114
-1.4134257e+114
-1.4135843e+114
-1.415488e+114
-1.4104177e+114
-1.4103676e+114
-1.4106517e+114
-1.4106961e+114
-1.4133024e+114
-1.4092293e+114
-1.4093182e+114
-1.4133426e+114
-1.4092129e+114
-1.4093784e+114
-1.4093202e+114
-1.4132424e+114
-1.4134509e+114
-1.2493078e+114
-1.3677749e+114
-1.3730519e+114
-1.3690469e+114
-1.370498e+114
-1.3748447e+114
-1.3743015e+114
-1.371252e+114
-1.3714649e+114
-1.375447e+114
-1.378436e+114
-1.3245911e+114
-1.3280212e+114
-1.2477594e+114
-1.3765461e+114
-1.3775438e+114
-1.3788768e+114
-1.3776861e+114
-1.3787595e+114
-1.3805886e+114
-1.3772114e+114
-1.3772345e+114
-1.3773696e+114
-1.3775967e+114
-1.3766226e+114
-1.3762436e+114
-1.3761034e+114
-1.3780516e+114
-1.3789054e+114
-1.3773783e+114
-1.3804771e+114
-1.3813162e+114
-1.3811332e+114
-1.3783148e+114
-1.3786611e+114
-1.3810398e+114
-1.3921333e+114
-1.387783e+114
-1.3881166e+114
-1.3922834e+114
-1.3880045e+114
-1.3880453e+114
-1.3923813e+114
-1.3921251e+114
-1.3983791e+114
-1.4020879e+114
-1.4021549e+114
-1.398385e+114
-1.3982747e+114
-1.4023417e+114
-1.3917874e+114
-1.3881169e+114
-1.3880582e+114
-1.3920159e+114
-1.3874056e+114
-1.3880281e+114
-1.392016e+114
-1.3919381e+114
-1.3982718e+114
-1.398158e+114
-1.4023371e+114
-1.4020765e+114
-1.4020199e+114
-1.3982781e+114
-1.3982221e+114
-1.4021727e+114
-1.3788661e+114
-1.3796456e+114
-1.3777271e+114
-1.3775262e+114
-1.3783823e+114
-1.3779626e+114
-1.3770368e+114
-1.3785086e+114
-1.3807855e+114
-1.3779072e+114
-1.3789125e+114
-1.3811988e+114
-1.3809005e+114
-1.3782027e+114
-1.3778137e+114
-1.3799758e+114
-1.3877547e+114
-1.3931985e+114
-1.3777031e+114
-1.3798035e+114
-1.3917313e+114
-1.3937782e+114
-1.3915062e+114
-1.379183e+114
-1.3788087e+114
-1.3853084e+114
-1.3195426e+114
-1.3150584e+114
-1.3848602e+114
-1.3866759e+114
-1.3799513e+114
-1.3943387e+114
-1.3919376e+114
-1.3804223e+114
-1.380637e+114
-1.3924152e+114
-1.3949126e+114
-1.3799686e+114
-1.3147189e+114
-1.3189743e+114
-1.3153488e+114
-1.3195923e+114
-1.3871702e+114
-1.3859535e+114
-1.3868887e+114
-1.3911441e+114
-1.3184646e+114
-1.3146999e+114
-1.3930944e+114
-1.3952753e+114
-1.3804146e+114
-1.3817574e+114
-1.3816545e+114
-1.3933311e+114
-1.3957471e+114
-1.3817771e+114
-1.3836173e+114
-1.3958228e+114
-1.3986401e+114
-1.3824688e+114
-1.3964469e+114
-1.382332e+114
-1.3831744e+114
-1.3942784e+114
-1.3848911e+114
-1.3853035e+114
-1.3864018e+114
-1.3859331e+114
-1.3897921e+114
-1.3905926e+114
-1.3914526e+114
-1.3910684e+114
-1.3913589e+114
-1.3913478e+114
-1.3914746e+114
-1.3917706e+114
-1.3865206e+114
-1.3872704e+114
-1.3875505e+114
-1.3868718e+114
-1.4046622e+114
-1.3999813e+114
-1.3999434e+114
-1.4047306e+114
-1.395019e+114
-1.3909987e+114
-1.3908927e+114
-1.3950036e+114
-1.3913436e+114
-1.3912211e+114
-1.395337e+114
-1.3955835e+114
-1.405037e+114
-1.4003143e+114
-1.4006326e+114
-1.4052344e+114
-1.4054436e+114
-1.4013733e+114
-1.4010193e+114
-1.4054007e+114
-1.3958797e+114
-1.3915616e+114
-1.3917388e+114
-1.3960949e+114
-1.392117e+114
-1.3918616e+114
-1.3965264e+114
-1.3964922e+114
-1.405503e+114
-1.4014105e+114
-1.4013386e+114
-1.405771e+114
-1.3929595e+114
-1.3930456e+114
-1.3933586e+114
-1.3931792e+114
-1.3925073e+114
-1.3917714e+114
-1.3922487e+114
-1.3933235e+114
-1.3884662e+114
-1.3878247e+114
-1.3872724e+114
-1.3875379e+114
-1.3874848e+114
-1.3885139e+114
-1.3882828e+114
-1.3874997e+114
-1.3873181e+114
-1.3882346e+114
-1.3893898e+114
-1.3884497e+114
-1.3931019e+114
-1.3932623e+114
-1.3940714e+114
-1.3945659e+114
-1.3947547e+114
-1.3942371e+114
-1.3948109e+114
-1.3951815e+114
-1.3886832e+114
-1.3897752e+114
-1.3898339e+114
-1.3888733e+114
-1.3967924e+114
-1.3929898e+114
-1.3967361e+114
-1.3929251e+114
-1.4061328e+114
-1.4017485e+114
-1.4018215e+114
-1.4062794e+114
-1.3930544e+114
-1.397194e+114
-1.397438e+114
-1.393165e+114
-1.402374e+114
-1.402083e+114
-1.4065974e+114
-1.3934623e+114
-1.3939173e+114
-1.3980316e+114
-1.3980503e+114
-1.3933054e+114
-1.3931984e+114
-1.3978158e+114
-1.397566e+114
-1.4023697e+114
-1.4026909e+114
-1.3961069e+114
-1.3954402e+114
-1.3954313e+114
-1.395777e+114
-1.3900296e+114
-1.3888516e+114
-1.3899444e+114
-1.3888889e+114
-1.3883064e+114
-1.3890501e+114
-1.3889038e+114
-1.3886633e+114
-1.3947344e+114
-1.3964148e+114
-1.3956715e+114
-1.3943246e+114
-1.3590526e+114
-1.3621067e+114
-1.3652831e+114
-1.3625961e+114
-1.3588769e+114
-1.3582449e+114
-1.3621978e+114
-1.362878e+114
-1.3617412e+114
-1.3649839e+114
-1.3770851e+114
-1.3732008e+114
-1.3622584e+114
-1.3610537e+114
-1.3724628e+114
-1.3736696e+114
-1.4028599e+114
-1.4016048e+114
-1.4014813e+114
-1.402562e+114
-1.4028043e+114
-1.4001099e+114
-1.3993411e+114
-1.4009424e+114
-1.3879459e+114
-1.3884356e+114
-1.3883225e+114
-1.3878614e+114
-1.3878896e+114
-1.3874426e+114
-1.3870706e+114
-1.3868675e+114
-1.362342e+114
-1.3598064e+114
-1.3740184e+114
-1.371354e+114
-1.4010646e+114
-1.3986596e+114
-1.3976396e+114
-1.3986729e+114
-1.3867213e+114
-1.3865596e+114
-1.3860559e+114
-1.3862731e+114
-1.3717766e+114
-1.3600476e+114
-1.3593396e+114
-1.357931e+114
-1.3612785e+114
-1.3628777e+114
-1.3591642e+114
-1.3625836e+114
-1.3654143e+114
-1.3614885e+114
-1.4004052e+114
-1.4044902e+114
-1.4037426e+114
-1.3996223e+114
-1.4003096e+114
-1.4039898e+114
-1.4041773e+114
-1.4003205e+114
-1.3986706e+114
-1.4048007e+114
-1.4045625e+114
-1.398401e+114
-1.3986678e+114
-1.4046547e+114
-1.4046582e+114
-1.3989094e+114
-1.4036294e+114
-1.4005436e+114
-1.4036011e+114
-1.4004577e+114
-1.4037285e+114
-1.3991447e+114
-1.4018875e+114
-1.4004298e+114
-1.4042418e+114
-1.4045249e+114
-1.3982639e+114
-1.3987133e+114
-1.4030074e+114
-1.3969461e+114
-1.3973747e+114
-1.4039259e+114
-1.39446e+114
-1.3940537e+114
-1.3932582e+114
-1.3937348e+114
-1.394621e+114
-1.3943808e+114
-1.39508e+114
-1.3953373e+114
-1.3949027e+114
-1.3947397e+114
-1.3954571e+114
-1.3954499e+114
-1.3953122e+114
-1.395026e+114
-1.3939798e+114
-1.3941622e+114
-1.3940675e+114
-1.3953382e+114
-1.3956622e+114
-1.3945377e+114
-1.3951757e+114
-1.3948378e+114
-1.3955248e+114
-1.3956796e+114
-1.3951135e+114
-1.3950421e+114
-1.3955491e+114
-1.395598e+114
-1.3955071e+114
-1.3956194e+114
-1.3944205e+114
-1.3944197e+114
-1.3981074e+114
-1.3980991e+114
-1.3990402e+114
-1.3990049e+114
-1.3980618e+114
-1.3979231e+114
-1.3989433e+114
-1.3990463e+114
-1.402849e+114
-1.4015951e+114
-1.4016676e+114
-1.4029111e+114
-1.402852e+114
-1.401614e+114
-1.4016033e+114
-1.402798e+114
-1.3979782e+114
-1.3979913e+114
-1.3990249e+114
-1.3989538e+114
-1.3985974e+114
-1.3975234e+114
-1.3977781e+114
-1.3988342e+114
-1.4024665e+114
-1.4013162e+114
-1.4014858e+114
-1.4027274e+114
-1.4028886e+114
-1.4015956e+114
-1.4015502e+114
-1.4028368e+114
-1.4056847e+114
-1.4057078e+114
-1.4071681e+114
-1.4071442e+114
-1.4056271e+114
-1.4057291e+114
-1.4071833e+114
-1.4070604e+114
-1.4071514e+114
-1.4057249e+114
-1.4057749e+114
-1.4072139e+114
-1.4116492e+114
-1.4100485e+114
-1.4100892e+114
-1.4116886e+114
-1.411645e+114
-1.4100552e+114
-1.4099425e+114
-1.4115467e+114
-1.3981423e+114
-1.3980848e+114
-1.3990706e+114
-1.3990761e+114
-1.3981637e+114
-1.3980227e+114
-1.3989763e+114
-1.3991442e+114
-1.4028176e+114
-1.4017728e+114
-1.4019135e+114
-1.403e+114
-1.4028987e+114
-1.4018227e+114
-1.4018263e+114
-1.4029311e+114
-1.3981423e+114
-1.3981346e+114
-1.398988e+114
-1.3989344e+114
-1.3988911e+114
-1.3980471e+114
-1.3981238e+114
-1.3990473e+114
-1.4028282e+114
-1.4016611e+114
-1.4017435e+114
-1.4028001e+114
-1.4028552e+114
-1.4018865e+114
-1.4018959e+114
-1.4028434e+114
-1.4113649e+114
-1.4098445e+114
-1.4097764e+114
-1.411352e+114
-1.4069889e+114
-1.4055659e+114
-1.4055288e+114
-1.4069129e+114
-1.4054339e+114
-1.4054391e+114
-1.4069164e+114
-1.4068455e+114
-1.4113452e+114
-1.4096964e+114
-1.4096527e+114
-1.4112981e+114
-1.4111897e+114
-1.4096775e+114
-1.409849e+114
-1.4113751e+114
-1.4068783e+114
-1.405516e+114
-1.4057241e+114
-1.4070586e+114
-1.4057317e+114
-1.4056683e+114
-1.4070416e+114
-1.4070575e+114
-1.4113459e+114
-1.4098134e+114
-1.4098408e+114
-1.4113693e+114
-1.4001038e+114
-1.4046936e+114
-1.4046883e+114
-1.4006061e+114
-1.3992404e+114
-1.4031258e+114
-1.4046711e+114
-1.400027e+114
-1.3984006e+114
-1.4041157e+114
-1.4048827e+114
-1.3986743e+114
-1.3989666e+114
-1.4051364e+114
-1.4053363e+114
-1.3990595e+114
-1.3943924e+114
-1.3955324e+114
-1.3958649e+114
-1.3947823e+114
-1.3953669e+114
-1.3951378e+114
-1.3957295e+114
-1.3958018e+114
-1.3954236e+114
-1.3953247e+114
-1.3957335e+114
-1.395741e+114
-1.3962104e+114
-1.3960259e+114
-1.3948509e+114
-1.3949722e+114
-1.3983527e+114
-1.4052231e+114
-1.4052454e+114
-1.3984168e+114
-1.4009596e+114
-1.4050563e+114
-1.4050261e+114
-1.400841e+114
-1.4003885e+114
-1.4042473e+114
-1.4031116e+114
-1.3995099e+114
-1.4042813e+114
-1.3985093e+114
-1.4048414e+114
-1.3981109e+114
-1.3956208e+114
-1.3959971e+114
-1.3947563e+114
-1.3945266e+114
-1.3949509e+114
-1.3961612e+114
-1.3963291e+114
-1.3951591e+114
-1.395508e+114
-1.3952654e+114
-1.3957817e+114
-1.3958967e+114
-1.395293e+114
-1.3953031e+114
-1.3957641e+114
-1.3957725e+114
-1.4032892e+114
-1.3999213e+114
-1.3998739e+114
-1.4040639e+114
-1.4002613e+114
-1.4000712e+114
-1.404339e+114
-1.4044241e+114
-1.4047214e+114
-1.398567e+114
-1.4045984e+114
-1.3987087e+114
-1.3979761e+114
-1.4040465e+114
-1.4039816e+114
-1.3979244e+114
-1.400197e+114
-1.4042928e+114
-1.4042656e+114
-1.4004864e+114
-1.3989782e+114
-1.3999141e+114
-1.4025526e+114
-1.4037717e+114
-1.3981258e+114
-1.4037686e+114
-1.4044264e+114
-1.3987078e+114
-1.4046949e+114
-1.4046379e+114
-1.3985792e+114
-1.3987195e+114
-1.3953616e+114
-1.3950766e+114
-1.3956472e+114
-1.3958863e+114
-1.3942589e+114
-1.395413e+114
-1.3957963e+114
-1.3946489e+114
-1.3946055e+114
-1.3957725e+114
-1.3959384e+114
-1.3948141e+114
-1.3954856e+114
-1.395352e+114
-1.3959628e+114
-1.3958989e+114
-1.3954573e+114
-1.3954586e+114
-1.3943462e+114
-1.3944141e+114
-1.3959121e+114
-1.3956977e+114
-1.3945419e+114
-1.3946821e+114
-1.3953191e+114
-1.3951655e+114
-1.3956897e+114
-1.3957881e+114
-1.3952051e+114
-1.3950542e+114
-1.3955754e+114
-1.3956149e+114
-1.4112171e+114
-1.4097607e+114
-1.4098913e+114
-1.4112757e+114
-1.4069792e+114
-1.4057359e+114
-1.4058918e+114
-1.4070693e+114
-1.405866e+114
-1.4058441e+114
-1.4071369e+114
-1.4072108e+114
-1.41142e+114
-1.4099964e+114
-1.4100262e+114
-1.4114355e+114
-1.4027542e+114
-1.4016919e+114
-1.4017484e+114
-1.4029291e+114
-1.3991139e+114
-1.3982113e+114
-1.3983242e+114
-1.3992069e+114
-1.3982429e+114
-1.3982558e+114
-1.3992263e+114
-1.3991939e+114
-1.4030314e+114
-1.4017992e+114
-1.4018142e+114
-1.4030155e+114
-1.4112412e+114
-1.4099174e+114
-1.4100052e+114
-1.4113073e+114
-1.4070046e+114
-1.405731e+114
-1.4057885e+114
-1.4070372e+114
-1.405528e+114
-1.4055693e+114
-1.406933e+114
-1.4069441e+114
-1.4028109e+114
-1.4016376e+114
-1.4017068e+114
-1.4028995e+114
-1.3981312e+114
-1.3980326e+114
-1.3990444e+114
-1.3991041e+114
-1.3980287e+114
-1.3979457e+114
-1.398935e+114
-1.3989142e+114
-1.4027554e+114
-1.4015425e+114
-1.4015774e+114
-1.4027159e+114
-1.2597602e+114
-1.2767333e+114
-1.2773409e+114
-1.2773155e+114
-1.2764134e+114
-1.2884648e+114
-1.2668554e+114
-1.2661651e+114
-1.287959e+114
-1.2710292e+114
-1.2716658e+114
-1.2576386e+114
-1.2581983e+114
-1.2575072e+114
-1.258316e+114
-1.3324686e+114
-1.3155267e+114
-1.3151251e+114
-1.3319179e+114
-1.2612012e+114
-1.3029104e+114
-1.2619197e+114
-1.3044278e+114
-1.2637239e+114
-1.3087831e+114
-1.3087957e+114
-1.2640668e+114
-1.3069144e+114
-1.2636478e+114
-1.2640693e+114
-1.3085812e+114
-1.4767028e+114
-1.4489777e+114
-1.4778912e+114
-1.449145e+114
-1.4141227e+114
-1.4129577e+114
-1.4149853e+114
-1.4703046e+114
-1.4712706e+114
-1.4999946e+114
-1.4995015e+114
-1.413581e+114
-1.4706564e+114
-1.4994531e+114
-1.5000367e+114
-1.4711165e+114
-1.5031153e+114
-1.4778943e+114
-1.4489941e+114
-1.4079602e+114
-1.5113241e+114
-1.4854246e+114
-1.4484786e+114
-1.4071082e+114
-1.369813e+114
-1.3704436e+114
-1.3690943e+114
-1.4180496e+114
-1.4437372e+114
-1.4435126e+114
-1.4186792e+114
-1.4942833e+114
-1.4937034e+114
-1.3681312e+114
-1.4164774e+114
-1.4178498e+114
-1.4433795e+114
-1.4424791e+114
-1.4931873e+114
-1.4934984e+114
-1.4793451e+114
-1.449932e+114
-1.4108904e+114
-1.3594989e+114
-1.4741921e+114
-1.4515308e+114
-1.4139756e+114
-1.3595804e+114
-1.3944507e+114
-1.3937935e+114
-1.3641132e+114
-1.3645482e+114
-1.4560657e+114
-1.4239409e+114
-1.4234237e+114
-1.455781e+114
-1.5013982e+114
-1.5014249e+114
-1.520488e+114
-1.5199577e+114
-1.501608e+114
-1.5011626e+114
-1.5203761e+114
-1.5201264e+114
-1.3929904e+114
-1.3939779e+114
-1.3641272e+114
-1.3638338e+114
-1.4561202e+114
-1.4239334e+114
-1.4227023e+114
-1.4555095e+114
-1.5011179e+114
-1.5012734e+114
-1.5195794e+114
-1.5196943e+114
-1.5010806e+114
-1.5005298e+114
-1.5196718e+114
-1.5197728e+114
-1.452557e+114
-1.4232228e+114
-1.3598371e+114
-1.4511384e+114
-1.4074195e+114
-1.360404e+114
-1.4069015e+114
-1.3603377e+114
-1.402585e+114
-1.3596775e+114
-1.357749e+114
-1.3579072e+114
-1.5462346e+114
-1.5535548e+114
-1.5533951e+114
-1.5463213e+114
-1.5534073e+114
-1.5463599e+114
-1.5461763e+114
-1.5534802e+114
-1.5632628e+114
-1.5631748e+114
-1.5696408e+114
-1.5698032e+114
-1.5632512e+114
-1.5631494e+114
-1.5694467e+114
-1.5697577e+114
-1.5849851e+114
-1.5854645e+114
-1.5830934e+114
-1.582824e+114
-1.5855041e+114
-1.5851417e+114
-1.5829197e+114
-1.5831756e+114
-1.5830082e+114
-1.5833269e+114
-1.5857563e+114
-1.5852806e+114
-1.5832948e+114
-1.5851468e+114
-1.5857481e+114
-1.5829536e+114
-1.5464148e+114
-1.5465899e+114
-1.5538035e+114
-1.5535311e+114
-1.5694916e+114
-1.563206e+114
-1.5633654e+114
-1.5697312e+114
-1.5696356e+114
-1.5635064e+114
-1.5468089e+114
-1.546847e+114
-1.5538154e+114
-1.5540007e+114
-1.5830977e+114
-1.5826854e+114
-1.584951e+114
-1.5854636e+114
-1.5830958e+114
-1.5854619e+114
-1.584952e+114
-1.5828247e+114
-1.5403582e+114
-1.5543017e+114
-1.5541914e+114
-1.5402803e+114
-1.5809244e+114
-1.5839506e+114
-1.5843516e+114
-1.5810682e+114
-1.5804656e+114
-1.5808264e+114
-1.5842429e+114
-1.5835886e+114
-1.5895622e+114
-1.5900301e+114
-1.5919368e+114
-1.5925246e+114
-1.5926648e+114
-1.5921612e+114
-1.5898909e+114
-1.590196e+114
-1.539142e+114
-1.553369e+114
-1.5526488e+114
-1.5389368e+114
-1.5803405e+114
-1.5834229e+114
-1.583746e+114
-1.5804219e+114
-1.5801193e+114
-1.5835586e+114
-1.5826531e+114
-1.5796702e+114
-1.5887511e+114
-1.58949e+114
-1.5921628e+114
-1.5912349e+114
-1.5894853e+114
-1.5923541e+114
-1.5918856e+114
-1.5897262e+114
-1.5638864e+114
-1.5640283e+114
-1.5705401e+114
-1.5701702e+114
-1.5543955e+114
-1.5541958e+114
-1.5471178e+114
-1.5472206e+114
-1.5472579e+114
-1.554472e+114
-1.5542644e+114
-1.5472516e+114
-1.564073e+114
-1.5639592e+114
-1.5703246e+114
-1.5706386e+114
-1.5836229e+114
-1.5840008e+114
-1.5864257e+114
-1.5858836e+114
-1.5887269e+114
-1.591442e+114
-1.592308e+114
-1.589268e+114
-1.5922979e+114
-1.5892211e+114
-1.5916031e+114
-1.5887616e+114
-1.5840234e+114
-1.5864693e+114
-1.585997e+114
-1.583786e+114
-1.5837926e+114
-1.5841352e+114
-1.5865398e+114
-1.5860452e+114
-1.5887907e+114
-1.5917321e+114
-1.5924268e+114
-1.5892524e+114
-1.5923813e+114
-1.5892549e+114
-1.5885851e+114
-1.5914411e+114
-1.5840781e+114
-1.5865117e+114
-1.5858721e+114
-1.5837402e+114
-1.600972e+114
-1.6016229e+114
-1.6011585e+114
-1.6016433e+114
-1.5976002e+114
-1.5958588e+114
-1.5963716e+114
-1.5983159e+114
-1.5962848e+114
-1.5982573e+114
-1.5972973e+114
-1.5956192e+114
-1.5973575e+114
-1.5956095e+114
-1.5962657e+114
-1.5982582e+114
-1.6016503e+114
-1.6017523e+114
-1.6010059e+114
-1.6011754e+114
-1.6009963e+114
-1.6016682e+114
-1.6017839e+114
-1.6009447e+114
-1.5962626e+114
-1.5983031e+114
-1.5975772e+114
-1.5958066e+114
-1.5473327e+114
-1.554367e+114
-1.5543834e+114
-1.5472067e+114
-1.5468516e+114
-1.5541351e+114
-1.553638e+114
-1.5466025e+114
-1.563829e+114