# Probe 0 (0.65 0.078 0)
# Probe 1 (0.65 0.1 0)
# Probe 2 (0.05 0.06 0)
# Probe 3 (1.02 0.01 0)
#         Probe               0               1               2               3
#          Time
           0.25       104535.72       104535.72       105991.23       103988.53
            0.5       115099.52       115099.52       120833.22       111795.56
           0.75       114315.19       114315.19       118420.16       111934.77
              1       110083.38       110083.38       114277.12        107457.1
           1.25       115965.18       115965.18       118610.96       114219.37
            1.5        103015.9        103015.9       105973.01       100941.72
           1.75       191081.63       191081.63       191948.12       190451.46
              2       167320.98       167320.98       169240.09        165846.9
           2.25       204013.34       204013.34       204198.75       203853.66
            2.5       161140.66       161140.66       162449.09       160053.91
           2.75       198583.21       198583.21       198900.88       198305.88
              3       155796.11       155796.11       156922.81       154849.71
           3.25        204393.2        204393.2       205015.78       203835.37
            3.5       151231.75       151231.75       152344.27       150286.74
           3.75       232659.15       232659.15       233120.86       232109.46
              4       140601.58       140601.58       141163.05       139996.32
           4.25       313524.75       313524.75       313713.58       313106.57
            4.5       134490.44       134490.44        134924.4          133898
           4.75       534101.77       534101.77        533848.4       534168.17
              5       110930.62       110930.62       111296.82       110306.82
           5.25       1076153.8       1076153.8       1074902.5         1077190
            5.5        137728.1        137728.1       137785.73       137431.24
           5.75       1931075.3       1931075.3       1929080.8       1932586.4
              6       185388.08       185388.08       185343.49       184605.36
           6.25       3444475.6       3444475.6       3441009.5       3446602.6
            6.5       238615.62       238615.62       238781.42       236928.36
           6.75       5606449.8       5606449.8       5597488.6       5611633.8
              7       639262.61       639262.61       640454.91       636961.97
           7.25       6969662.8       6969662.8       6936624.2       6995266.2
            7.5       899148.62       899148.62       912662.43       888876.01
           7.75       7670507.9       7670507.9       7612966.5       7713753.9
              8       1070030.7       1070030.7       1087420.9       1056805.3
           8.25       7963941.3       7963941.3       7892778.5       8010507.6
            8.5       1266127.3       1266127.3         1266925       1263926.1
           8.75       7768177.1       7768177.1       7713496.4       7796165.1
              9       1559099.1       1559099.1       1540111.7       1570902.9
           9.25       7092377.1       7092377.1       7054407.5       7098573.1
            9.5       1525563.2       1525563.2       1471146.3       1568137.4
           9.75       6345309.6       6345309.6       6308795.1       6340417.5
             10       1293284.9       1293284.9       1176115.5       1381985.8
          10.25       6070301.5       6070301.5       6073598.9       6025003.1
           10.5       940711.44       940711.44       740846.11       1074544.1
          10.75       5262168.5       5262168.5       5256156.1       5213394.6
             11       450073.25       450073.25       119319.23        645796.1
          11.25       4505177.5       4505177.5       4490711.1       4439214.3
           11.5      -232762.62      -232762.62       -730728.5       51318.153
          11.75       3931140.6       3931140.6       3931557.9       3822738.1
             12      -987012.84      -987012.84      -1716481.6       -594281.7
          12.25       3459140.4       3459140.4       3445614.6       3299400.4
           12.5      -1888702.5      -1888702.5      -2924327.1      -1375697.4
          12.75       3479552.4       3479552.4       3469694.7       3225163.8
             13      -3214443.3      -3214443.3      -4637087.8      -2556193.6
          13.25       4718161.4       4718161.4       4889740.8       4218125.4
           13.5      -4054542.8      -4054542.8      -5871029.5      -3318827.4
          13.75       3856781.3       3856781.3       4007511.4       3330957.8
             14      -5747532.1      -5747532.1      -8256116.9        -4790225
          14.25       1770217.8       1770217.8       1607136.2       1382438.9
           14.5        -7673565        -7673565       -10987908      -6446018.2
          14.75       1671676.3       1671676.3       2231078.5       1074553.7
             15       -10921845       -10921845       -15893291      -9194527.6
          15.25      -357970.09      -357970.09       567000.74      -927257.86
           15.5       -14250255       -14250255       -20296547       -12105665
          15.75      -3678410.3      -3678410.3      -2586726.6      -4054619.1
             16       -17267491       -17267491       -24066420       -14821183
          16.25      -5956811.3      -5956811.3      -4499649.6      -6296804.2
           16.5       -21210521       -21210521       -28825578       -18309553
          16.75      -6292569.3      -6292569.3      -5140809.6      -6807380.1
             17       -25292264       -25292264       -33824620       -21986439
          17.25      -5621560.6      -5621560.6        -4509659      -6509853.6
           17.5       -27787688       -27787688       -36999568       -24286536
          17.75      -5080354.9      -5080354.9      -3443030.3      -6367892.8
             18       -28309521       -28309521       -37085622       -24958862
          18.25        -3102407        -3102407        564611.2      -5175037.7
           18.5       -32845388       -32845388       -42482988       -28971074
          18.75      -2855702.9      -2855702.9       2190807.2      -5432800.7
             19       -35357917       -35357917       -45756011       -31198407
          19.25      -4438826.1      -4438826.1       875778.38        -7178755
           19.5       -37929704       -37929704       -49475129       -33499432
          19.75      -9240500.2      -9240500.2      -5588863.1       -11428706
             20       -44719028       -44719028       -58646819       -39395338
          20.25       -14359363       -14359363       -11882218       -16084335
           20.5       -47819372       -47819372       -63382396       -42214880
          20.75       -16212480       -16212480       -13753037       -18118305
             21       -53512452       -53512452       -70036027       -47427213
          21.25       -15553007       -15553007       -10351188       -18318912
           21.5       -59497113       -59497113       -77935229       -52758263
          21.75        -7866271        -7866271       2079918.9       -12544337
             22       -62590195       -62590195       -80551162       -55812924
          22.25      -9359110.1      -9359110.1       1693463.5       -14451252
           22.5       -67224000       -67224000       -86639632       -59871904
          22.75       -18214723       -18214723       -10014706       -22246692
             23       -74010800       -74010800       -94531836       -66022166
          23.25       -23121236       -23121236       -17456625       -26830601
           23.5       -81516822       -81516822  -1.0393622e+08       -72725679
          23.75       -18411965       -18411965      -9342550.3       -23751206
             24       -88028786       -88028786  -1.1347349e+08       -78412253
          24.25       -22962429       -22962429       -12928555       -28454538
           24.5       -99287553       -99287553  -1.2845088e+08       -88368207
          24.75       -17566040       -17566040      -3019465.1       -24756851
             25       -98352909       -98352909  -1.2669008e+08       -88071766
          25.25       -27750456       -27750456       -14169889       -34177451
           25.5  -1.0816494e+08  -1.0816494e+08  -1.3775939e+08       -96920431
          25.75       -35830286       -35830286       -25350423       -41566129
             26  -1.1106125e+08  -1.1106125e+08  -1.4226672e+08       -99691872
          26.25       -44162707       -44162707       -32378321       -49852810
           26.5  -1.2190028e+08  -1.2190028e+08  -1.5424837e+08  -1.0972743e+08
          26.75       -49036057       -49036057       -36921162       -54977634
             27  -1.3151615e+08  -1.3151615e+08  -1.6590798e+08  -1.1861214e+08
          27.25       -48547634       -48547634       -35022930       -55451437
           27.5  -1.3772716e+08  -1.3772716e+08  -1.7201845e+08  -1.2495214e+08
          27.75       -60165697       -60165697       -50929178       -65909385
             28  -1.5287343e+08  -1.5287343e+08  -1.9125982e+08  -1.3854329e+08
          28.25       -56581603       -56581603       -45323641       -63947477
           28.5  -1.6514219e+08  -1.6514219e+08  -2.0569535e+08   -1.499215e+08
          28.75       -50531811       -50531811       -35326887       -60347573
             29  -1.8191949e+08  -1.8191949e+08  -2.2857918e+08  -1.6450664e+08
          29.25       -46732720       -46732720       -23338375       -59289750
           29.5  -1.9498348e+08  -1.9498348e+08  -2.4707066e+08  -1.7618778e+08
          29.75       -57171903       -57171903       -36414962       -69428159
             30  -2.0422983e+08  -2.0422983e+08  -2.6292023e+08   -1.842829e+08
          30.25       -65857907       -65857907       -44881880       -78115876
           30.5  -2.1676864e+08  -2.1676864e+08  -2.7819942e+08  -1.9583067e+08
          30.75       -71601679       -71601679       -50388622       -84773340
             31  -2.3000417e+08  -2.3000417e+08  -2.9340893e+08  -2.0814898e+08
          31.25       -65899541       -65899541       -34705571       -82450059
           31.5   -2.533279e+08   -2.533279e+08  -3.2356812e+08  -2.2871176e+08
          31.75       -87599198       -87599198       -54444206  -1.0287353e+08
             32   -2.819871e+08   -2.819871e+08  -3.5981427e+08  -2.5384712e+08
          32.25  -1.2261547e+08  -1.2261547e+08  -1.0215409e+08  -1.3344904e+08
           32.5  -3.0505061e+08  -3.0505061e+08  -3.8984945e+08  -2.7491664e+08
          32.75  -1.3642402e+08  -1.3642402e+08    -1.19134e+08  -1.4708218e+08
             33  -3.3697793e+08  -3.3697793e+08  -4.2700867e+08  -3.0416264e+08
          33.25  -1.2908461e+08  -1.2908461e+08  -1.0711224e+08  -1.4374656e+08
           33.5  -3.7578642e+08  -3.7578642e+08  -4.7666319e+08  -3.3846308e+08
          33.75  -1.3868447e+08  -1.3868447e+08  -1.1056876e+08  -1.5598329e+08
             34  -3.9876882e+08  -3.9876882e+08   -5.058244e+08  -3.5979208e+08
          34.25  -1.5015388e+08  -1.5015388e+08  -1.2060752e+08  -1.6881273e+08
           34.5  -4.3747207e+08  -4.3747207e+08  -5.6144316e+08  -3.9378655e+08
          34.75  -1.6764438e+08  -1.6764438e+08  -1.4480863e+08  -1.8643887e+08
             35  -4.7235417e+08  -4.7235417e+08  -6.1167827e+08    -4.24719e+08
          35.25  -1.3543978e+08  -1.3543978e+08       -89493193  -1.6454252e+08
           35.5  -4.8154719e+08  -4.8154719e+08  -6.2177364e+08  -4.3472172e+08
          35.75  -1.3111975e+08  -1.3111975e+08       -60767743  -1.6604051e+08
             36  -5.5667357e+08  -5.5667357e+08  -7.1766763e+08  -4.9943788e+08
          36.25       -71886509       -71886509        38889163  -1.2160901e+08
           36.5   -5.699268e+08   -5.699268e+08   -7.193379e+08   -5.137655e+08
          36.75  -1.7255161e+08  -1.7255161e+08       -87731665  -2.0949211e+08
             37  -6.1708766e+08  -6.1708766e+08  -7.9103194e+08  -5.5411726e+08
          37.25  -2.8483005e+08  -2.8483005e+08  -2.4781813e+08  -3.0561299e+08
           37.5  -6.9591556e+08  -6.9591556e+08  -9.0236896e+08  -6.2242077e+08
          37.75  -2.7066843e+08  -2.7066843e+08  -2.2608185e+08   -3.000561e+08
             38  -7.2833516e+08  -7.2833516e+08  -9.3122951e+08  -6.5570347e+08
          38.25  -2.1119519e+08  -2.1119519e+08   -1.175718e+08  -2.5917042e+08
           38.5  -8.0734839e+08  -8.0734839e+08  -1.0269875e+09   -7.259078e+08
          38.75  -2.1673469e+08  -2.1673469e+08       -95988313  -2.7217802e+08
             39  -9.4313238e+08  -9.4313238e+08  -1.2139223e+09  -8.4310296e+08
          39.25  -1.8538785e+08  -1.8538785e+08       -33021983  -2.5296649e+08
           39.5  -9.9946815e+08  -9.9946815e+08  -1.2767068e+09  -8.9593995e+08
          39.75  -2.0641201e+08  -2.0641201e+08       -63589326  -2.7739034e+08
             40  -1.0126955e+09  -1.0126955e+09  -1.2854144e+09  -9.0963288e+08
          40.25  -3.0793283e+08  -3.0793283e+08  -1.7403612e+08  -3.7433307e+08
           40.5   -1.085423e+09   -1.085423e+09  -1.3984478e+09  -9.7205326e+08
          40.75  -3.1052828e+08  -3.1052828e+08  -1.5165191e+08  -3.8554534e+08
             41  -1.1946051e+09  -1.1946051e+09  -1.5258387e+09  -1.0708924e+09
          41.25  -2.0233084e+08  -2.0233084e+08        12147606  -3.0479629e+08
           41.5  -1.3156618e+09  -1.3156618e+09  -1.6952472e+09  -1.1734373e+09
          41.75  -3.7451853e+08  -3.7451853e+08  -1.9241807e+08  -4.5675661e+08
             42  -1.4471139e+09  -1.4471139e+09  -1.8479794e+09   -1.293105e+09
          42.25  -6.0470093e+08  -6.0470093e+08  -4.3469221e+08  -6.6404125e+08
           42.5  -1.5762919e+09  -1.5762919e+09  -2.0021788e+09  -1.4130645e+09
          42.75  -6.0245011e+08  -6.0245011e+08  -4.1728882e+08  -6.7595248e+08
             43  -1.8003814e+09  -1.8003814e+09   -2.280752e+09  -1.6127709e+09
          43.25  -6.2411638e+08  -6.2411638e+08  -4.4707067e+08  -7.0992915e+08
           43.5   -1.948811e+09   -1.948811e+09  -2.4462358e+09  -1.7485913e+09
          43.75  -5.6290433e+08  -5.6290433e+08  -3.3224811e+08  -6.7865565e+08
             44  -2.0306881e+09  -2.0306881e+09   -2.566092e+09  -1.8278028e+09
          44.25  -7.4536901e+08  -7.4536901e+08  -5.3581501e+08  -8.4684587e+08
           44.5  -2.1432556e+09  -2.1432556e+09   -2.681436e+09  -1.9366178e+09
          44.75  -8.8603279e+08  -8.8603279e+08  -7.0636876e+08  -9.8216062e+08
             45  -2.3922266e+09  -2.3922266e+09  -3.0355527e+09  -2.1521102e+09
          45.25  -8.2636447e+08  -8.2636447e+08  -6.1834922e+08  -9.5231677e+08
           45.5  -2.6821058e+09  -2.6821058e+09  -3.4240255e+09  -2.4054058e+09
          45.75  -8.8396927e+08  -8.8396927e+08  -6.4651605e+08  -1.0259266e+09
             46  -3.0132449e+09  -3.0132449e+09  -3.8739017e+09  -2.6942282e+09
          46.25  -6.7019935e+08  -6.7019935e+08  -2.2262699e+08  -8.7883345e+08
           46.5  -3.3836362e+09  -3.3836362e+09  -4.3353543e+09  -3.0226961e+09
          46.75  -6.0892935e+08  -6.0892935e+08       1976254.2  -8.6702812e+08
             47  -3.7506679e+09  -3.7506679e+09  -4.8470874e+09  -3.3349972e+09
          47.25  -7.5465603e+08  -7.5465603e+08   -1.014421e+08  -1.0237933e+09
           47.5  -4.0860878e+09  -4.0860878e+09  -5.2457341e+09  -3.6344508e+09
          47.75  -1.0820621e+09  -1.0820621e+09  -4.6688613e+08  -1.3319004e+09
             48   -4.440361e+09   -4.440361e+09  -5.6666737e+09  -3.9524185e+09
          48.25  -1.5534137e+09  -1.5534137e+09  -9.8658249e+08   -1.767765e+09
           48.5   -4.983295e+09   -4.983295e+09  -6.3005056e+09  -4.4317996e+09
          48.75  -1.9667228e+09  -1.9667228e+09  -1.5168449e+09   -2.157484e+09
             49  -5.6644427e+09  -5.6644427e+09  -7.2289808e+09   -5.031071e+09
          49.25  -1.8464211e+09  -1.8464211e+09  -1.3560579e+09  -2.1056339e+09
           49.5  -6.0753626e+09  -6.0753626e+09  -7.7479486e+09  -5.4182731e+09
          49.75  -1.4349835e+09  -1.4349835e+09  -7.7517263e+08  -1.8159526e+09
             50  -6.8977593e+09  -6.8977593e+09  -8.8088801e+09  -6.1441112e+09
          50.25  -1.0406437e+09  -1.0406437e+09       -53580773  -1.5498436e+09
           50.5   -7.124157e+09   -7.124157e+09  -9.0732249e+09  -6.3610249e+09
          50.75  -1.5748208e+09  -1.5748208e+09  -4.4073618e+08  -2.0838624e+09
             51  -8.1529021e+09  -8.1529021e+09  -1.0542926e+10  -7.2296386e+09
          51.25  -1.6911396e+09  -1.6911396e+09  -2.7207346e+08  -2.2689759e+09
           51.5  -9.0087998e+09  -9.0087998e+09  -1.1663292e+10  -7.9808052e+09
          51.75   -2.342854e+09   -2.342854e+09  -1.0581256e+09  -2.8962057e+09
             52  -1.0187328e+10  -1.0187328e+10   -1.313495e+10  -9.0096942e+09
          52.25  -2.8920995e+09  -2.8920995e+09  -1.4404562e+09  -3.4602326e+09
           52.5  -1.1078024e+10  -1.1078024e+10  -1.4328381e+10   -9.806706e+09
          52.75   -2.502638e+09   -2.502638e+09  -6.9330336e+08  -3.2401441e+09
             53  -1.2553594e+10  -1.2553594e+10  -1.6091982e+10  -1.1137805e+10
          53.25  -3.0221351e+09  -3.0221351e+09  -1.4741952e+09  -3.7627981e+09
           53.5  -1.4582504e+10  -1.4582504e+10  -1.8812416e+10  -1.2881137e+10
          53.75  -4.3954632e+09  -4.3954632e+09  -3.4278941e+09   -5.002448e+09
             54  -1.5041681e+10  -1.5041681e+10  -1.9383269e+10  -1.3345161e+10
          54.25  -4.6128205e+09  -4.6128205e+09  -3.2515253e+09   -5.361348e+09
           54.5  -1.6552494e+10  -1.6552494e+10   -2.146881e+10  -1.4692603e+10
          54.75  -3.3347213e+09  -3.3347213e+09  -1.0168245e+09  -4.4789834e+09
             55  -1.8208872e+10  -1.8208872e+10  -2.3372201e+10   -1.617425e+10
          55.25  -3.8843514e+09  -3.8843514e+09  -9.8950823e+08  -5.1564296e+09
           55.5  -2.0643236e+10  -2.0643236e+10   -2.688708e+10  -1.8247998e+10
          55.75  -6.3349366e+09  -6.3349366e+09  -3.9033548e+09  -7.3862384e+09
             56  -2.2031491e+10  -2.2031491e+10  -2.8881894e+10  -1.9510382e+10
          56.25  -6.3576742e+09  -6.3576742e+09  -3.9014059e+09  -7.5328458e+09
           56.5  -2.3691777e+10  -2.3691777e+10  -3.1249143e+10  -2.1019668e+10
          56.75  -5.0780723e+09  -5.0780723e+09  -2.3276301e+09  -6.6076146e+09
             57   -2.629933e+10   -2.629933e+10  -3.4490143e+10  -2.3303816e+10
          57.25  -5.2749082e+09  -5.2749082e+09  -1.4873325e+09   -7.063988e+09
           57.5  -2.9473153e+10  -2.9473153e+10  -3.8503384e+10  -2.6080578e+10
          57.75  -5.1225117e+09  -5.1225117e+09        28730658   -7.311796e+09
             58  -3.1526403e+10  -3.1526403e+10  -4.1249485e+10  -2.7927166e+10
          58.25  -8.6365982e+09  -8.6365982e+09  -3.8209291e+09  -1.0529669e+10
           58.5  -3.4994833e+10  -3.4994833e+10  -4.5549483e+10  -3.1037976e+10
          58.75  -1.2679573e+10  -1.2679573e+10  -9.4026265e+09  -1.4171463e+10
             59  -3.9196175e+10  -3.9196175e+10  -5.1187551e+10  -3.4721825e+10
          59.25  -1.6444338e+10  -1.6444338e+10  -1.3988735e+10  -1.7673529e+10
           59.5  -4.3694872e+10  -4.3694872e+10  -5.7204391e+10  -3.8747351e+10
          59.75  -1.5923988e+10  -1.5923988e+10  -1.2217925e+10    -1.76828e+10
             60  -5.0207891e+10  -5.0207891e+10  -6.5288472e+10   -4.454171e+10
          60.25  -1.2306045e+10  -1.2306045e+10  -6.7472938e+09  -1.5072057e+10
           60.5  -5.2607539e+10  -5.2607539e+10  -6.8139794e+10   -4.687301e+10
          60.75  -2.0631283e+10  -2.0631283e+10  -1.7515785e+10  -2.2482926e+10
             61  -5.9830793e+10  -5.9830793e+10  -7.8297613e+10  -5.3140213e+10
          61.25  -2.6413164e+10  -2.6413164e+10  -2.3441271e+10   -2.796829e+10
           61.5  -6.5301796e+10  -6.5301796e+10  -8.6025547e+10  -5.7977469e+10
          61.75  -2.5474002e+10  -2.5474002e+10  -2.1190831e+10  -2.7877782e+10
             62  -7.1767218e+10  -7.1767218e+10  -9.3399746e+10  -6.3866048e+10
          62.25   -2.122108e+10   -2.122108e+10  -1.5386523e+10  -2.4964002e+10
           62.5  -7.9852273e+10  -7.9852273e+10  -1.0570855e+11  -7.0807822e+10
          62.75  -1.8564193e+10  -1.8564193e+10  -9.4341805e+09  -2.3567774e+10
             63   -8.729241e+10   -8.729241e+10  -1.1469411e+11  -7.7532089e+10
          63.25  -3.0281007e+10  -3.0281007e+10  -2.0966097e+10   -3.423718e+10
           63.5  -9.7404135e+10  -9.7404135e+10  -1.2714433e+11  -8.6523691e+10
          63.75  -4.2792598e+10  -4.2792598e+10  -3.6967769e+10  -4.5412162e+10
             64  -1.0899676e+11  -1.0899676e+11  -1.4198996e+11  -9.6907383e+10
          64.25   -4.028587e+10   -4.028587e+10  -3.2943283e+10  -4.4363578e+10
           64.5  -1.2220042e+11  -1.2220042e+11  -1.5883509e+11  -1.0850033e+11
          64.75  -3.2087117e+10  -3.2087117e+10  -1.7906787e+10  -3.9029057e+10
             65  -1.2802577e+11  -1.2802577e+11   -1.642437e+11  -1.1422345e+11
          65.25  -3.6897291e+10  -3.6897291e+10  -1.9907737e+10  -4.4443002e+10
           65.5  -1.4380163e+11  -1.4380163e+11  -1.8564209e+11  -1.2805431e+11
          65.75  -4.0717056e+10  -4.0717056e+10  -2.3369355e+10  -4.8619179e+10
             66  -1.5880451e+11  -1.5880451e+11   -2.031013e+11  -1.4169904e+11
          66.25  -3.8503981e+10  -3.8503981e+10  -1.7425307e+10   -4.840244e+10
           66.5  -1.5999256e+11  -1.5999256e+11  -2.0646757e+11  -1.4310397e+11
          66.75  -4.5923316e+10  -4.5923316e+10  -2.3458712e+10  -5.6436223e+10
             67  -1.7799335e+11  -1.7799335e+11  -2.3047265e+11  -1.5878713e+11
          67.25  -3.7631492e+10  -3.7631492e+10  -1.2089613e+10  -5.0704951e+10
           67.5  -1.9786249e+11  -1.9786249e+11  -2.5619311e+11  -1.7631946e+11
          67.75  -5.4058239e+10  -5.4058239e+10  -3.3676696e+10  -6.5556621e+10
             68  -2.2802824e+11  -2.2802824e+11   -3.000881e+11  -2.0178397e+11
          68.25  -7.2305935e+10  -7.2305935e+10  -5.3893195e+10  -8.2916487e+10
           68.5  -2.2492974e+11  -2.2492974e+11  -2.9604927e+11   -2.003755e+11
          68.75  -8.7531251e+10  -8.7531251e+10  -6.5613993e+10  -9.8017201e+10
             69   -2.507151e+11   -2.507151e+11  -3.2868678e+11  -2.2368143e+11
          69.25  -8.4413629e+10  -8.4413629e+10  -4.9679176e+10  -9.8305563e+10
           69.5  -2.7646298e+11  -2.7646298e+11  -3.5909203e+11  -2.4651415e+11
          69.75  -8.5208248e+10  -8.5208248e+10  -4.6229005e+10  -1.0174361e+11
             70  -3.1155203e+11  -3.1155203e+11  -4.0376823e+11  -2.7713689e+11
          70.25   -1.143803e+11   -1.143803e+11  -8.4504239e+10  -1.2823297e+11
           70.5  -3.4801991e+11  -3.4801991e+11   -4.583332e+11  -3.0895112e+11
          70.75  -1.3118558e+11  -1.3118558e+11  -1.1067874e+11  -1.4409035e+11
             71   -3.840583e+11   -3.840583e+11  -5.0033681e+11  -3.4261269e+11
          71.25  -1.2520531e+11  -1.2520531e+11  -9.0379878e+10  -1.4341641e+11
           71.5  -4.3774943e+11  -4.3774943e+11   -5.742972e+11  -3.8926745e+11
          71.75  -7.5000817e+10  -7.5000817e+10  -2.6063321e+09  -1.0781396e+11
             72  -4.8628799e+11  -4.8628799e+11  -6.3115988e+11  -4.3205809e+11
          72.25  -1.5053933e+11  -1.5053933e+11  -9.1865973e+10  -1.7546963e+11
           72.5   -5.234176e+11   -5.234176e+11  -6.8096597e+11  -4.6536729e+11
          72.75  -2.4696237e+11  -2.4696237e+11  -2.0792234e+11  -2.6121251e+11
             73  -5.8700097e+11  -5.8700097e+11  -7.6557347e+11  -5.2217738e+11
          73.25  -2.3846142e+11  -2.3846142e+11   -1.907655e+11    -2.59329e+11
           73.5  -6.4394183e+11  -6.4394183e+11  -8.2400131e+11   -5.753274e+11
          73.75  -2.4675937e+11  -2.4675937e+11  -2.0682202e+11  -2.7166965e+11
             74  -7.4612301e+11  -7.4612301e+11  -9.5586647e+11  -6.6435304e+11
          74.25  -2.4900035e+11  -2.4900035e+11  -2.0791265e+11  -2.7911518e+11
           74.5  -7.7931618e+11  -7.7931618e+11   -1.008438e+12  -6.9565301e+11
          74.75  -2.8617764e+11  -2.8617764e+11  -2.3221978e+11  -3.1854086e+11
             75  -8.5950047e+11  -8.5950047e+11  -1.1171587e+12   -7.673271e+11
          75.25  -2.3968775e+11  -2.3968775e+11  -1.2973984e+11  -2.9083895e+11
           75.5  -8.7982714e+11  -8.7982714e+11   -1.124109e+12  -7.9094695e+11
          75.75  -2.0799279e+11  -2.0799279e+11  -6.0744915e+10  -2.7474067e+11
             76  -9.8700095e+11  -9.8700095e+11  -1.2617217e+12  -8.8350864e+11
          76.25   -2.673355e+11   -2.673355e+11  -1.1949634e+11  -3.3384845e+11
           76.5  -1.0849376e+12  -1.0849376e+12  -1.4012575e+12  -9.6795186e+11
          76.75  -2.6674206e+11  -2.6674206e+11  -9.1268532e+10   -3.433951e+11
             77  -1.1941924e+12  -1.1941924e+12  -1.5319296e+12  -1.0668241e+12
          77.25  -3.0544029e+11  -3.0544029e+11  -1.5111752e+11  -3.8129083e+11
           77.5  -1.3353528e+12  -1.3353528e+12  -1.7042698e+12  -1.1923457e+12
          77.75  -4.2874583e+11  -4.2874583e+11  -2.9051723e+11  -4.9692996e+11
             78   -1.411154e+12   -1.411154e+12  -1.8045575e+12  -1.2627343e+12
          78.25  -5.7147603e+11  -5.7147603e+11  -4.6704334e+11  -6.2788111e+11
           78.5  -1.5504501e+12  -1.5504501e+12  -1.9820308e+12  -1.3879107e+12
          78.75  -6.6884886e+11  -6.6884886e+11   -6.090392e+11  -7.2098715e+11
             79  -1.6832871e+12  -1.6832871e+12  -2.1631826e+12  -1.5096459e+12
          79.25  -6.6787154e+11  -6.6787154e+11   -5.469262e+11  -7.3821489e+11
           79.5  -1.7503501e+12  -1.7503501e+12   -2.269837e+12  -1.5728761e+12
          79.75  -5.9955707e+11  -5.9955707e+11  -3.8172247e+11  -7.0052326e+11
             80  -1.9306077e+12  -1.9306077e+12  -2.4815586e+12  -1.7378794e+12
          80.25  -6.2464545e+11  -6.2464545e+11  -4.0171199e+11  -7.3582155e+11
           80.5  -2.1671875e+12  -2.1671875e+12  -2.7983769e+12  -1.9452736e+12
          80.75  -9.3470078e+11  -9.3470078e+11  -8.0277457e+11  -1.0116295e+12
             81  -2.4052571e+12  -2.4052571e+12  -3.1064929e+12  -2.1549193e+12
          81.25  -8.7120084e+11  -8.7120084e+11  -6.7601542e+11   -9.770404e+11
           81.5  -2.7917744e+12  -2.7917744e+12  -3.5672613e+12  -2.4935607e+12
          81.75  -9.3517703e+11  -9.3517703e+11  -6.8061366e+11  -1.0608411e+12
             82  -3.1262623e+12  -3.1262623e+12  -4.0222903e+12  -2.7838036e+12
          82.25   -1.285487e+12   -1.285487e+12  -1.0834543e+12  -1.3850423e+12
           82.5  -3.4637822e+12  -3.4637822e+12  -4.4676412e+12  -3.0850981e+12
          82.75   -1.550851e+12   -1.550851e+12  -1.4110885e+12  -1.6374231e+12
             83  -3.9476452e+12  -3.9476452e+12  -5.1219422e+12  -3.5092586e+12
          83.25  -1.5496584e+12  -1.5496584e+12  -1.3336189e+12  -1.6782931e+12
           83.5  -4.5661874e+12  -4.5661874e+12  -5.9513301e+12  -4.0481641e+12
          83.75  -1.3772257e+12  -1.3772257e+12  -9.5292032e+11   -1.585572e+12
             84  -5.0325878e+12  -5.0325878e+12  -6.4950161e+12  -4.4720385e+12
          84.25  -1.0787617e+12  -1.0787617e+12  -4.0730212e+11  -1.3930605e+12
           84.5  -5.3425844e+12  -5.3425844e+12  -6.8624855e+12  -4.7603103e+12
          84.75  -1.1732402e+12  -1.1732402e+12  -5.1871957e+11  -1.5141653e+12
             85  -5.7537939e+12  -5.7537939e+12  -7.3666104e+12   -5.130619e+12
          85.25  -1.0062141e+12  -1.0062141e+12  -1.3598169e+11  -1.4387152e+12
           85.5  -6.2895994e+12  -6.2895994e+12  -8.1095796e+12  -5.5881808e+12
          85.75  -9.3653959e+11  -9.3653959e+11   6.5768342e+10  -1.4404952e+12
             86  -6.3062022e+12  -6.3062022e+12   -8.111111e+12  -5.6224843e+12
          86.25  -9.7311788e+11  -9.7311788e+11   3.1946316e+11  -1.5483805e+12
           86.5  -7.0139445e+12  -7.0139445e+12  -9.1045998e+12  -6.2278832e+12
          86.75  -1.2015308e+12  -1.2015308e+12   1.7850233e+11  -1.7834226e+12
             87  -7.4702346e+12  -7.4702346e+12  -9.7062582e+12  -6.6373728e+12
          87.25  -2.4700582e+12  -2.4700582e+12  -1.4636486e+12  -2.8872712e+12
           87.5  -8.3611936e+12  -8.3611936e+12  -1.0838719e+13  -7.4243769e+12
          87.75  -2.9385579e+12  -2.9385579e+12  -1.9878706e+12  -3.3539964e+12
             88  -9.5986752e+12  -9.5986752e+12  -1.2387384e+13  -8.5203643e+12
          88.25  -3.1947777e+12  -3.1947777e+12  -1.9710621e+12  -3.6841864e+12
           88.5  -1.0769343e+13  -1.0769343e+13  -1.4035258e+13  -9.5530652e+12
          88.75  -3.8175484e+12  -3.8175484e+12  -2.4665472e+12  -4.3291297e+12
             89  -1.1791321e+13  -1.1791321e+13  -1.5225188e+13  -1.0506531e+13
          89.25  -3.7323962e+12  -3.7323962e+12  -2.3181206e+12  -4.3330234e+12
           89.5  -1.2834752e+13  -1.2834752e+13  -1.6466631e+13  -1.1464309e+13
          89.75  -3.9440068e+12  -3.9440068e+12  -2.3682749e+12  -4.6292669e+12
             90  -1.3221318e+13  -1.3221318e+13  -1.6965101e+13  -1.1857791e+13
          90.25  -3.5682084e+12  -3.5682084e+12  -1.8056182e+12  -4.4341666e+12
           90.5  -1.4735806e+13  -1.4735806e+13  -1.8901166e+13  -1.3194143e+13
          90.75  -3.9719043e+12  -3.9719043e+12  -2.0092087e+12  -4.9086084e+12
             91  -1.5830969e+13  -1.5830969e+13  -2.0328028e+13  -1.4189212e+13
          91.25  -5.1040005e+12  -5.1040005e+12  -3.4216888e+12  -5.9931326e+12
           91.5  -1.7080663e+13  -1.7080663e+13  -2.2175212e+13  -1.5289092e+13
          91.75  -5.8241227e+12  -5.8241227e+12  -4.2116418e+12  -6.7369619e+12
             92  -1.8593354e+13  -1.8593354e+13  -2.4300568e+13  -1.6626023e+13
          92.25  -6.2068433e+12  -6.2068433e+12  -4.0339653e+12  -7.2525351e+12
           92.5  -1.9312062e+13  -1.9312062e+13  -2.5354905e+13  -1.7317799e+13
          92.75  -6.6349192e+12  -6.6349192e+12  -3.8905747e+12  -7.8185236e+12
             93  -2.2152394e+13  -2.2152394e+13  -2.9140124e+13  -1.9799995e+13