/*--------------------------------*- C++ -*----------------------------------*\
  =========                 |
  \\      /  F ield         | OpenFOAM: The Open Source CFD Toolbox
   \\    /   O peration     | Website:  https://openfoam.org
    \\  /    A nd           | Version:  7
     \\/     M anipulation  |
\*---------------------------------------------------------------------------*/
FoamFile
{
    version     2.0;
    format      ascii;
    class       volScalarField;
    location    "2000";
    object      nut;
}
// * * * * * * * * * * * * * * * * * * * * * * * * * * * * * * * * * * * * * //

dimensions      [0 2 -1 0 0 0 0];

internalField   nonuniform List<scalar> 
33730
(
2.0919181e-13
8.7188941e-15
8.0482005e-13
1.1402574e-13
1.1709554e-14
4.8345242e-14
1.4611126e-14
9.700631e-14
1.4915729e-14
5.072689e-15
8.6886087e-15
8.5556028e-15
8.2438123e-15
8.2514153e-15
1.4490251e-14
1.7829212e-14
4.0263895e-13
5.0136142e-13
1.7254087e-14
2.8031951e-14
2.4593052e-13
5.0020114e-14
5.4531738e-14
1.314947e-14
1.1401013e-14
2.1492806e-14
2.0480257e-14
9.9636667e-15
1.0779641e-14
4.3812264e-14
4.9031015e-14
1.0339618e-14
1.1215328e-14
7.3598991e-15
4.8981601e-15
5.4922615e-15
8.6662774e-15
2.9525539e-15
3.5754076e-15
2.9272187e-15
3.6503986e-15
2.4769067e-15
5.6858707e-15
5.4122521e-15
6.2377904e-15
2.830857e-15
2.8200722e-15
8.2902099e-15
8.4181406e-15
7.2698407e-15
7.6895024e-15
7.4675273e-15
7.9172158e-15
5.2605519e-15
4.9026025e-15
1.6722948e-14
1.8127376e-14
7.5306604e-15
1.9943806e-14
1.8733511e-14
6.2360556e-15
2.6363413e-14
2.879693e-14
2.6864168e-13
2.2141047e-13
3.3300583e-14
3.2762758e-14
3.2394548e-13
2.7985319e-13
9.2139617e-15
1.273203e-14
1.2063967e-14
1.7643077e-14
1.7960675e-14
2.8625668e-14
2.9697707e-14
1.0666017e-13
1.2171294e-13
1.0811747e-14
2.1224433e-14
2.057871e-14
9.8586737e-15
1.9898367e-14
2.0720255e-14
9.5302667e-15
1.0179773e-14
1.0209347e-14
1.0123427e-14
7.2037829e-15
6.6969571e-15
9.031567e-15
9.4683868e-15
5.976651e-15
6.5453451e-15
1.7942445e-14
1.9169374e-14
8.4968394e-15
9.7269049e-15
2.2287051e-14
1.1584196e-14
2.1772857e-14
1.0130296e-14
2.269029e-15
2.6241246e-15
2.0307455e-15
1.7190792e-15
5.9646934e-15
5.2811253e-15
5.1243879e-15
5.2995915e-15
3.2995492e-15
2.6003577e-15
2.8280357e-15
3.1784075e-15
3.8873447e-15
3.0191123e-15
2.9728095e-15
2.4106595e-15
3.4113288e-15
2.9247466e-15
5.7952273e-15
4.985453e-15
5.2853559e-15
5.6672372e-15
2.442688e-15
2.3502271e-15
2.6401831e-15
1.9980352e-15
2.6403656e-15
3.6072938e-15
3.5490276e-15
3.379083e-15
3.4579328e-15
2.4771718e-15
2.4033908e-15
2.6796134e-15
2.7353434e-15
1.8991456e-15
3.6124185e-15
3.4718911e-15
3.4006519e-15
3.4310348e-15
1.8316429e-15
1.669694e-15
5.0228017e-15
4.9534081e-15
5.2965125e-15
4.7281297e-15
5.0336848e-15
4.7854099e-15
4.7248835e-15
6.643336e-15
5.5539445e-15
6.1521309e-15
5.5091736e-15
6.3057854e-15
4.2396656e-15
1.5585992e-15
1.4312858e-15
1.1268168e-15
1.1314594e-15
1.5867898e-15
1.5287309e-15
1.2407907e-15
7.3138718e-15
7.2775256e-15
7.4499758e-15
7.0132333e-15
4.67636e-15
4.9620302e-15
5.1383073e-15
5.2642817e-15
6.437324e-15
6.9134589e-15
7.4770539e-15
7.6187544e-15
6.391917e-15
6.2024775e-15
5.0513353e-15
4.633728e-15
9.4990203e-15
9.9957908e-15
5.0689901e-15
9.8760296e-15
9.6950112e-15
4.8267136e-15
1.2402208e-14
1.1755001e-14
1.7218792e-14
1.7192783e-14
1.8650654e-14
1.2265338e-14
1.1489121e-14
1.8287642e-14
3.16732e-14
3.2136815e-14
1.1175343e-13
1.1377358e-13
2.7106094e-14
2.8157589e-14
9.5247744e-14
1.0748842e-13
1.3034152e-14
1.271159e-14
1.8352171e-14
1.7896695e-14
1.1483333e-14
1.2400673e-14
1.8763595e-14
1.8170445e-14
3.2477958e-14
1.1517407e-13
1.1383008e-13
3.2625185e-14
2.8721729e-14
3.0177266e-14
1.0432854e-13
1.1691904e-13
1.0654954e-14
1.17548e-14
1.2020439e-14
9.5984195e-15
9.3603463e-15
1.439943e-14
1.3276862e-14
1.0912293e-14
1.1562299e-14
1.4193542e-14
1.2374734e-14
1.1778646e-14
1.1861887e-14
1.076619e-14
2.5248139e-14
1.2660616e-14
2.7000684e-14
1.2913062e-14
1.401013e-14
2.7671335e-14
2.722787e-14
5.9278472e-15
8.8762643e-15
9.030585e-15
6.0855172e-15
9.5184991e-15
9.1068558e-15
6.6833338e-15
6.0914839e-15
8.9806149e-15
9.207685e-15
5.9315028e-15
6.3391104e-15
9.8084931e-15
1.0037182e-14
6.9280199e-15
6.5450193e-15
9.9274662e-15
9.6299282e-15
2.6200787e-15
2.6049514e-15
9.7845871e-15
1.0416189e-14
2.7522327e-15
2.5862371e-15
9.6557021e-15
8.5983561e-15
2.3802767e-15
2.4957012e-15
2.6165123e-15
1.0028803e-14
9.4145215e-15
2.5804627e-15
7.8835826e-15
8.3882641e-15
5.3497035e-15
5.6924952e-15
6.3314714e-15
9.2509289e-15
9.1161804e-15
6.111403e-15
9.2578283e-15
9.3614674e-15
6.4641628e-15
6.4014233e-15
6.9518043e-15
9.929344e-15
9.5599683e-15
6.3702256e-15
1.832374e-15
2.0837815e-15
2.2659806e-15
1.664034e-15
2.3473902e-15
2.133969e-15
2.9033133e-15
2.769086e-15
3.2458032e-15
1.6185783e-15
1.7981758e-15
1.4459808e-15
1.1990024e-15
1.1681579e-15
1.3682651e-15
6.3636544e-15
5.9951736e-15
5.3153054e-15
5.4274832e-15
5.3863052e-15
6.130702e-15
5.9965707e-15
5.1056274e-15
4.9175686e-15
4.8200617e-15
4.9410343e-15
4.6678288e-15
4.6090203e-15
4.9760516e-15
4.7161861e-15
4.6118819e-15
3.0448484e-15
3.3005367e-15
3.1625779e-15
3.0899834e-15
2.3957778e-15
2.2068585e-15
2.4554796e-15
2.3134793e-15
2.6123964e-15
1.9018079e-15
2.6496921e-15
3.4807525e-15
3.3421187e-15
3.3480595e-15
3.3029568e-15
1.7812577e-15
3.4534949e-15
3.6966385e-15
3.510112e-15
3.4667898e-15
2.6923855e-15
2.6780104e-15
2.3228192e-15
2.4721253e-15
1.9432996e-15
2.4243081e-15
2.3184514e-15
2.6131856e-15
1.8289484e-15
2.612231e-15
1.7060738e-15
1.7326695e-15
3.4251105e-15
3.2890653e-15
3.3371754e-15
3.3561105e-15
4.2524364e-15
3.9765733e-15
1.4789156e-15
1.4838772e-15
1.1833661e-15
1.2337453e-15
1.4913366e-15
1.1854911e-15
1.4257634e-15
5.8547535e-15
5.4250716e-15
4.8660845e-15
5.0117411e-15
4.2070611e-15
4.1916899e-15
4.1035335e-15
4.4543515e-15
5.0363709e-15
4.8330852e-15
4.7730133e-15
4.7152039e-15
6.2070689e-15
5.2233969e-15
5.9921769e-15
5.4587778e-15
2.3576157e-15
2.5309814e-15
1.7169577e-15
2.6376753e-15
2.4418479e-15
2.2917755e-15
2.3195243e-15
1.7257594e-15
2.3994724e-15
2.3494215e-15
3.119259e-15
2.9291041e-15
3.2696254e-15
2.9864126e-15
1.7022056e-15
1.6848876e-15
3.1766226e-15
3.0277166e-15
3.4586385e-15
3.1422769e-15
4.3513232e-15
4.4119513e-15
4.0610861e-15
3.9822519e-15
4.1565225e-15
3.8242233e-15
4.3758358e-15
3.8967684e-15
4.6054558e-15
3.7757024e-15
4.6395978e-15
4.4527929e-15
3.6617479e-15
4.6802167e-15
3.7365151e-15
2.4051495e-15
2.4632853e-15
1.6149534e-15
2.543783e-15
2.4631711e-15
2.2952443e-15
2.3777573e-15
1.6223417e-15
2.4383986e-15
2.3444168e-15
3.2474789e-15
3.1276214e-15
3.3610852e-15
3.0957013e-15
3.1701518e-15
3.0600413e-15
3.3678559e-15
3.1226373e-15
1.5040974e-15
1.5821612e-15
4.2464053e-15
3.9116261e-15
4.5393152e-15
4.0154737e-15
4.0149266e-15
3.6678551e-15
4.2050206e-15
3.7202476e-15
4.3105079e-15
3.4864339e-15
4.5140835e-15
3.5570867e-15
4.4927695e-15
3.656713e-15
4.756742e-15
3.7457302e-15
1.110178e-15
1.1357692e-15
1.228784e-15
1.2697805e-15
1.1315294e-15
1.173125e-15
1.3322351e-15
1.2682424e-15
4.4236284e-15
4.6519305e-15
3.8593818e-15
3.9008331e-15
4.2756678e-15
3.4896463e-15
4.4687058e-15
3.5128321e-15
4.6122953e-15
4.0499492e-15
4.1037027e-15
4.287118e-15
3.2479247e-15
3.3133796e-15
4.5546087e-15
3.9720895e-15
4.8546169e-15
4.0556961e-15
4.2734722e-15
3.7092552e-15
4.4788155e-15
3.7314141e-15
4.2773656e-15
4.5334879e-15
3.4541605e-15
3.4987096e-15
4.6126195e-15
4.236998e-15
4.9164013e-15
4.2334826e-15
4.7195703e-15
3.4877751e-15
4.9588911e-15
3.4471424e-15
4.2425675e-15
3.8441649e-15
4.4822112e-15
3.8555175e-15
4.4040687e-15
3.285754e-15
4.6863562e-15
3.3855442e-15
4.1163977e-15
4.5020217e-15
4.7147641e-15
1.4767275e-15
7.0272946e-16
1.0514822e-15
1.0509759e-15
7.0993266e-16
7.9107482e-16
6.8764811e-16
5.7423535e-16
5.7684037e-16
7.6411616e-16
7.2997055e-16
7.7985244e-16
7.349325e-16
7.6241286e-16
7.3642382e-16
7.538447e-16
7.0392293e-16
7.5784618e-16
7.5992004e-16
5.9766182e-16
5.702672e-16
8.2544605e-16
5.7300534e-16
6.2218004e-16
7.9043145e-16
6.9585163e-16
7.5440539e-16
7.4921668e-16
4.8472923e-15
4.8019142e-15
4.5726029e-15
4.6455215e-15
5.0104797e-15
5.1111365e-15
4.6481337e-15
4.8498973e-15
2.3626326e-15
2.4367488e-15
2.5048327e-15
2.592605e-15
2.5085208e-15
2.4663392e-15
2.5857726e-15
2.5435806e-15
4.1119122e-15
4.3488677e-15
4.5661772e-15
4.6584395e-15
4.79691e-15
4.8126461e-15
4.9864545e-15
5.0062713e-15
9.4108105e-15
1.0217248e-14
8.287762e-15
4.1409466e-15
3.9028283e-15
1.0948948e-14
1.2094819e-14
1.1783264e-14
1.0782214e-14
1.2469867e-14
1.2240774e-14
4.392238e-15
1.1440125e-14
1.2340828e-14
1.2517529e-14
1.0455545e-14
1.2233184e-14
1.172842e-14
3.9516752e-15
9.7054404e-15
9.4368459e-15
9.6812545e-15
1.000863e-14
1.4670422e-14
1.3479002e-14
1.1072889e-14
1.1586407e-14
1.4493648e-14
1.2655763e-14
1.1707893e-14
1.1857143e-14
1.1140468e-14
2.4284867e-14
1.2883113e-14
2.5579755e-14
1.3086575e-14
2.5899763e-14
1.3777511e-14
2.4961865e-14
1.4268135e-14
1.3155583e-14
1.0890707e-14
1.1398534e-14
1.4029611e-14
1.2395557e-14
1.1668613e-14
1.154235e-14
1.0703388e-14
1.2291792e-14
2.3809766e-14
2.2341798e-14
2.449913e-14
2.4182191e-14
1.267624e-14
1.3449832e-14
1.0186527e-14
9.5486903e-15
9.541218e-15
9.8017386e-15
1.4385209e-14
1.1881395e-14
1.1706502e-14
1.2438044e-14
1.2909991e-14
1.1179802e-14
2.5047181e-14
2.6106002e-14
1.2790286e-14
2.6274815e-14
2.5148049e-14
1.3372327e-14
1.3432687e-14
1.4674404e-14
1.1151085e-14
1.1660008e-14
1.4624645e-14
1.3345201e-14
1.1144309e-14
1.1701597e-14
1.4590439e-14
1.2778795e-14
1.2043909e-14
1.1981786e-14
1.1216246e-14
1.3000645e-14
2.5707559e-14
2.4497863e-14
1.4125996e-14
2.6381611e-14
2.576651e-14
1.3209081e-14
5.4514385e-15
5.7872191e-15
9.1914099e-15
6.8709465e-15
6.7759004e-15
7.0147605e-15
7.2576866e-15
8.3210386e-15
8.9049511e-15
9.9239524e-15
9.7603506e-15
7.5234778e-15
7.2051045e-15
9.8767992e-15
8.2786181e-15
9.3861471e-15
1.0171825e-14
1.0152721e-14
1.0660677e-14
5.0965107e-15
5.2981114e-15
5.6441105e-15
1.0829954e-14
1.0075258e-14
5.6779032e-15
5.1548081e-15
1.0746946e-14
5.3420433e-15
1.0247812e-14
1.0569593e-14
9.7265147e-15
5.4537931e-15
5.4440858e-15
3.5337904e-15
3.3718251e-15
3.151225e-15
3.5892751e-15
3.5454988e-15
2.7744641e-15
2.9565293e-15
3.882989e-15
3.6879856e-15
3.4736644e-15
3.4990527e-15
3.8248587e-15
3.1037868e-15
3.1396978e-15
3.9099961e-15
3.8995769e-15
3.3168097e-15
3.4187817e-15
3.5921599e-15
3.6554127e-15
3.6109015e-15
3.4720424e-15
3.4441911e-15
3.671691e-15
3.7729458e-15
2.9414381e-15
3.0975742e-15
4.084596e-15
3.0702043e-15
3.1529352e-15
3.9978579e-15
3.9468677e-15
8.942131e-15
8.6533064e-15
2.3380661e-15
2.4491623e-15
8.7865203e-15
9.4002314e-15
2.5126069e-15
2.4013515e-15
9.0675435e-15
8.5305492e-15
2.361978e-15
2.4676062e-15
8.6099274e-15
9.2935938e-15
2.5250541e-15
2.3693023e-15
9.0129275e-15
8.5723872e-15
2.363648e-15
2.4798286e-15
8.8587627e-15
9.4429862e-15
2.520157e-15
2.4080577e-15
9.881194e-15
9.3268555e-15
2.6975035e-15
2.521498e-15
8.9995684e-15
2.5035059e-15
2.5383296e-15
9.3526778e-15
4.8818516e-15
4.6938531e-15
4.8058285e-15
4.8714787e-15
4.5501576e-15
4.250167e-15
4.6445565e-15
4.689484e-15
2.1026524e-15
7.1442755e-15
7.646398e-15
2.1633703e-15
8.0727958e-15
8.3949449e-15
2.2512408e-15
2.1763656e-15
8.2456703e-15
8.560527e-15
2.2566604e-15
2.3148659e-15
2.4074177e-15
9.0395239e-15
8.5138961e-15
2.3522929e-15
9.1837731e-15
8.7181821e-15
2.4551627e-15
2.5241019e-15
8.951002e-15
9.5482409e-15
2.5827659e-15
2.4287798e-15
8.8066601e-15
9.1949368e-15
2.5217239e-15
2.4999778e-15
9.6665358e-15
8.9154484e-15
2.6461762e-15
2.4614241e-15
3.6995792e-15
1.7141089e-15
1.8497739e-15
2.0494718e-15
1.8045388e-15
8.9438102e-15
9.4490951e-15
6.0563022e-15
6.2392661e-15
7.0258182e-15
7.0775445e-15
9.9343122e-15
1.0603997e-14
1.4289498e-15
1.5821742e-15
1.715978e-15
1.5243075e-15
6.0183066e-15
5.2959685e-15
4.653865e-15
5.8165105e-15
4.7030971e-15
5.8283008e-15
4.7102819e-15
3.5659723e-15
3.569692e-15
4.7755709e-15
5.3159245e-15
6.6341704e-15
5.3832768e-15
6.5465014e-15
1.347837e-15
1.3934016e-15
1.4957317e-15
1.4124099e-15
1.7404113e-15
1.6587113e-15
1.6014197e-15
1.6967406e-15
1.0657983e-15
1.1971281e-15
1.2633243e-15
1.1143997e-15
9.8373319e-16
9.254461e-16
1.0107691e-15
1.0218029e-15
1.0344787e-15
1.0733841e-15
1.0789607e-15
1.1067579e-15
1.1982274e-15
1.2478859e-15
1.3716117e-15
1.2374963e-15
4.5431105e-15
4.717549e-15
4.2277326e-15
4.120406e-15
4.2062667e-15
3.7607099e-15
4.3275777e-15
3.717631e-15
4.3846394e-15
3.2716238e-15
4.5054939e-15
3.3153503e-15
4.6396972e-15
3.4876859e-15
4.7538633e-15
3.4191763e-15
4.3734301e-15
4.4534047e-15
3.2978916e-15
3.2662974e-15
4.44342e-15
4.445204e-15
4.1752668e-15
3.9274216e-15
4.191192e-15
3.8013369e-15
4.269718e-15
3.6670188e-15
4.5455925e-15
4.5397229e-15
3.4435401e-15
3.2861279e-15
4.0903693e-15
3.3279081e-15
4.1569593e-15
3.2706265e-15
4.2146135e-15
4.2851628e-15
3.7010223e-15
3.6108367e-15
4.4296328e-15
4.3967182e-15
3.8978689e-15
3.7527286e-15
4.1496062e-15
4.1423555e-15
3.4074763e-15
3.2573783e-15
4.0355395e-15
3.2019721e-15
4.1228867e-15
3.1937108e-15
4.5706566e-15
4.7380438e-15
3.9926002e-15
3.9651593e-15
4.2474337e-15
3.6467183e-15
4.3645285e-15
3.6187628e-15
4.2368131e-15
4.3557075e-15
3.424993e-15
3.3730056e-15
3.8285356e-15
3.0533834e-15
4.0076836e-15
3.1425049e-15
3.9421514e-15
4.1305878e-15
3.5983437e-15
3.653683e-15
3.795119e-15
3.3369534e-15
4.0922265e-15
4.2486447e-15
3.317896e-15
3.330313e-15
3.0100749e-15
2.8155042e-15
3.2121975e-15
2.8694231e-15
2.2172109e-15
2.3210475e-15
1.5072315e-15
2.3720797e-15
2.2651253e-15
2.4648111e-15
2.5066652e-15
1.6266689e-15
2.5662991e-15
2.493661e-15
2.3654942e-15
2.3430295e-15
1.5784333e-15
2.3725713e-15
2.3917104e-15
3.2321289e-15
3.103381e-15
3.2658571e-15
3.0104798e-15
1.4844407e-15
1.6322988e-15
3.2947814e-15
3.1491e-15
3.3873139e-15
3.0937138e-15
4.3272801e-15
3.9985612e-15
4.3685003e-15
3.9020651e-15
4.4804522e-15
3.681673e-15
4.4517386e-15
3.5637345e-15
4.1523361e-15
3.8557535e-15
4.1559959e-15
3.7175292e-15
4.5341457e-15
3.7438212e-15
4.5576781e-15
3.6511334e-15
1.1051931e-15
1.0947412e-15
1.2589501e-15
1.277231e-15
4.2956481e-15
3.4777838e-15
4.4058629e-15
3.4833896e-15
4.2822133e-15
4.4312747e-15
3.9533713e-15
3.9586957e-15
3.998057e-15
3.6521704e-15
4.1062581e-15
3.6406208e-15
4.4990041e-15
4.6212945e-15
3.6742998e-15
3.6478966e-15
3.2788098e-15
3.0959738e-15
3.4787572e-15
3.1202368e-15
3.1715592e-15
2.9512181e-15
3.2733968e-15
2.9543335e-15
2.2875887e-15
2.2904245e-15
1.6512573e-15
2.315299e-15
2.3876873e-15
2.4112052e-15
2.517401e-15
1.7233175e-15
2.6290727e-15
2.5041631e-15
1.6063769e-15
1.6738625e-15
2.2996946e-15
2.3211426e-15
1.6404129e-15
2.3556454e-15
2.3294921e-15
2.1876373e-15
2.1921055e-15
1.6219638e-15
2.2258819e-15
2.2114481e-15
3.0391887e-15
2.9505365e-15
3.1114099e-15
2.898459e-15
1.5257719e-15
1.6234901e-15
3.1136385e-15
3.0055849e-15
3.1554794e-15
2.9164096e-15
1.2929492e-15
1.1128853e-15
1.0894811e-15
1.287572e-15
1.0972538e-15
1.0990397e-15
1.2347763e-15
1.2852562e-15
4.1354561e-15
3.8427488e-15
4.1117943e-15
3.6910399e-15
4.3987039e-15
3.6287247e-15
4.3401663e-15
3.479814e-15
3.9368917e-15
3.6663728e-15
3.9973151e-15
3.588758e-15
4.2796529e-15
3.5565034e-15
4.3284919e-15
3.4850804e-15
1.4304671e-15
7.1768895e-16
1.1378105e-15
1.1899265e-15
1.3115613e-15
6.7576603e-16
6.5299626e-16
1.3709969e-15
6.5241598e-16
8.0177327e-16
6.2646864e-16
7.6360416e-16
7.2517073e-16
6.8320236e-16
7.2030055e-16
7.0980727e-16
7.9509645e-16
7.456264e-16
7.6008609e-16
7.4679775e-16
6.1993881e-16
7.3567713e-16
6.1415785e-16
7.8229991e-16
8.0000485e-16
7.540961e-16
8.0032848e-16
7.5579039e-16
6.4880503e-16
7.595929e-16
6.3991788e-16
7.2062331e-16
4.150209e-15
3.7975553e-15
4.3596201e-15
3.7386442e-15
3.7484552e-15
3.4148893e-15
3.9547052e-15
3.4219993e-15
3.9442207e-15
4.0946278e-15
2.9636994e-15
3.0531266e-15
4.2210543e-15
4.2638424e-15
3.2081341e-15
3.1433138e-15
3.7329121e-15
3.9308448e-15
3.2080905e-15
3.2706716e-15
3.8777083e-15
3.1042254e-15
4.0119742e-15
3.1071727e-15
3.5767726e-15
2.8572292e-15
3.7546968e-15
2.91678e-15
4.1343743e-15
4.3145327e-15
3.5811045e-15
3.5862513e-15
4.5580551e-15
4.6209309e-15
4.0022205e-15
3.904901e-15
4.348039e-15
4.3613326e-15
3.8061138e-15
3.6804985e-15
4.2129158e-15
4.2104725e-15
3.4767272e-15
3.3579411e-15
4.2741905e-15
4.320188e-15
3.507254e-15
3.4235564e-15
4.5795561e-15
4.2695819e-15
4.6719061e-15
4.0895575e-15
4.7394983e-15
3.6034834e-15
4.7768137e-15
3.4849415e-15
4.4233363e-15
4.1041035e-15
4.4436497e-15
3.9191671e-15
4.6719744e-15
4.6897602e-15
3.5808608e-15
3.4840974e-15
9.915118e-15
1.033362e-14
6.9477615e-15
7.0527473e-15
7.5282471e-15
7.5541938e-15
1.0420936e-14
1.0946444e-14
1.5999528e-15
1.7342722e-15
1.8970382e-15
1.656894e-15
6.3021254e-15
5.9874809e-15
9.4659665e-15
1.0082182e-14
6.522554e-15
6.6393728e-15
7.1144788e-15
7.1715816e-15
9.995316e-15
1.0639383e-14
1.7841531e-15
1.7654031e-15
1.5726e-15
1.5669667e-15
6.0252924e-15
5.4825058e-15
6.2182843e-15
6.1589133e-15
4.932762e-15
5.0427496e-15
5.080816e-15
5.0754097e-15
3.8393344e-15
3.7989444e-15
5.3725083e-15
6.7452782e-15
5.4409991e-15
6.6582366e-15
4.0404778e-15
5.3312106e-15
5.3585651e-15
3.9581792e-15
1.6206568e-15
1.5707031e-15
1.4962022e-15
1.5641386e-15
1.5197624e-15
1.5070971e-15
1.4623959e-15
1.4453172e-15
5.2515754e-15
6.5190714e-15
5.3150569e-15
6.5490874e-15
4.0901705e-15
5.3207453e-15
5.3378328e-15
4.0013698e-15
5.6542156e-15
7.0563061e-15
5.7675374e-15
6.9269541e-15
4.3459287e-15
5.6456289e-15
5.6310478e-15
4.2445645e-15
4.5464749e-15
3.9167264e-15
3.8926305e-15
4.5322542e-15
4.6623723e-15
4.6701158e-15
4.0644033e-15
3.9670464e-15
3.0662376e-15
3.8880923e-15
3.1593132e-15
3.9099095e-15
3.9152017e-15
3.1115574e-15
3.9299103e-15
3.1954418e-15
3.7569615e-15
4.4249145e-15
3.787213e-15
4.4570654e-15
3.7808541e-15
3.0181116e-15
2.9202892e-15
3.7635344e-15
4.0494253e-15
4.6324469e-15
3.9915623e-15
4.7305749e-15
3.8900556e-15
3.1044496e-15
3.9524667e-15
3.0336139e-15
3.4658222e-15
3.1038995e-15
3.016455e-15
3.4598788e-15
2.5507132e-15
3.085624e-15
3.1123907e-15
2.4850364e-15
3.592845e-15
3.5639469e-15
3.237257e-15
3.1350837e-15
2.9220469e-15
3.4027039e-15
3.0409852e-15
3.3535029e-15
2.4910442e-15
3.0638607e-15
3.001571e-15
2.3954284e-15
3.5502282e-15
3.1194948e-15
3.5348873e-15
3.1610681e-15
2.5231707e-15
3.0946462e-15
3.1084642e-15
2.4843973e-15
1.0160628e-14
1.0497386e-14
7.1362618e-15
7.2008947e-15
7.2118549e-15
7.2698934e-15
9.9561142e-15
1.0616863e-14
1.6301838e-15
1.7394453e-15
1.8400013e-15
1.6335734e-15
6.0377526e-15
6.0928675e-15
9.6403058e-15
1.0026562e-14
6.689474e-15
6.8031618e-15
7.2302068e-15
7.3161704e-15
1.0045877e-14
1.0707616e-14
1.5829123e-15
1.7295127e-15
1.7909803e-15
1.6042351e-15
6.2134481e-15
5.7187832e-15
6.6409018e-15
6.6386599e-15
5.4449311e-15
5.3253743e-15
5.4586852e-15
4.2232593e-15
4.1367941e-15
5.459455e-15
6.7827975e-15
6.6049588e-15
5.4334974e-15
5.6041418e-15
5.4773692e-15
5.4259358e-15
4.237908e-15
4.1478025e-15
5.1112021e-15
6.3354777e-15
5.1845248e-15
6.3438704e-15
5.2240296e-15
4.012313e-15
3.9524606e-15
5.2380874e-15
5.5063329e-15
6.8119543e-15
5.5652585e-15
6.7402581e-15
5.4492969e-15
4.1601615e-15
5.4932581e-15
4.1139409e-15
1.4698158e-15
1.5049418e-15
1.5027729e-15
1.4392548e-15
1.5624456e-15
1.5537361e-15
1.5029135e-15
1.530565e-15
3.7316118e-15
4.4393899e-15
3.8115974e-15
4.4436271e-15
3.8207588e-15
3.0816714e-15
3.0184686e-15
3.7942276e-15
4.8371098e-15
4.0806155e-15
4.833559e-15
4.1611478e-15
4.0619017e-15
3.2640094e-15
4.0576232e-15
3.2071987e-15
3.5889151e-15
4.2790172e-15
3.6487437e-15
4.3057311e-15
3.6716549e-15
3.6824838e-15
2.9072803e-15
2.8713687e-15
3.8386789e-15
4.5604631e-15
3.8868208e-15
4.5860338e-15
3.0265281e-15
3.8121703e-15
3.8298537e-15
2.9637615e-15
2.8802984e-15
3.311247e-15
2.9361216e-15
3.3195878e-15
2.9393567e-15
2.9488618e-15
2.3706364e-15
2.3463184e-15
3.5034031e-15
3.0452786e-15
3.4908405e-15
3.0932059e-15
2.4495186e-15
3.0258092e-15
3.0287958e-15
2.401413e-15
2.9667689e-15
3.4276812e-15
3.0533931e-15
3.4126441e-15
2.502096e-15
3.0540033e-15
3.0299037e-15
2.4337545e-15
3.7321652e-15
3.2778128e-15
3.7116604e-15
3.3330962e-15
2.6777658e-15
3.2577832e-15
3.2634161e-15
2.6318084e-15
9.4967636e-16
1.0065635e-15
1.0124137e-15
1.0083804e-15
9.6103061e-16
9.4150865e-16
9.523872e-16
9.7586086e-16
1.0870713e-15
1.1423714e-15
1.169488e-15
1.073103e-15
1.1216408e-15
1.1703223e-15
1.2206767e-15
1.1156206e-15
9.731363e-16
1.0238605e-15
1.0225413e-15
1.0248071e-15
9.6910768e-16
9.638752e-16
1.0011349e-15
9.9317841e-16
1.233275e-15
1.2332841e-15
1.119388e-15
1.1079718e-15
1.1255352e-15
1.1809206e-15
1.2646816e-15
1.1354251e-15
2.348711e-15
2.7034258e-15
2.4431634e-15
2.642251e-15
2.7693821e-15
2.7913949e-15
2.506092e-15
2.4805754e-15
2.4521584e-15
2.0156497e-15
2.4066541e-15
1.951264e-15
2.4678229e-15
2.028601e-15
1.9975981e-15
2.4531841e-15
2.2489452e-15
2.2153613e-15
1.988816e-15
2.0656029e-15
2.0297191e-15
1.6556783e-15
1.6082535e-15
2.0019916e-15
2.0804988e-15
2.3005464e-15
2.1158977e-15
2.3151684e-15
2.0263756e-15
2.0264885e-15
1.6529195e-15
1.6292019e-15
2.3879331e-15
2.7045286e-15
2.4535984e-15
2.6880719e-15
2.4605438e-15
2.0562445e-15
2.1634166e-15
1.969223e-15
1.9686063e-15
2.195282e-15
2.265986e-15
2.2474697e-15
2.0583996e-15
2.0251932e-15
1.5458112e-15
1.9046764e-15
1.5485096e-15
1.9621711e-15
1.9521811e-15
1.56521e-15
1.9570509e-15
1.5970446e-15
2.6764198e-15
2.6596883e-15
2.4239102e-15
2.3620524e-15
2.4123237e-15
1.9824081e-15
2.4256338e-15
2.0226673e-15
2.6287649e-15
2.9287778e-15
2.6670639e-15
2.9430348e-15
2.5951846e-15
2.1610181e-15
2.1334605e-15
2.6002982e-15
2.3010252e-15
2.5853104e-15
2.3352809e-15
2.6036064e-15
2.3355605e-15
1.921306e-15
1.9065144e-15
2.3549573e-15
2.4096029e-15
2.712371e-15
2.4438756e-15
2.7239422e-15
2.391812e-15
1.9650192e-15
2.395651e-15
1.9285765e-15
2.2302151e-15
2.0480257e-15
2.0041494e-15
2.2340245e-15
2.4404959e-15
2.2454147e-15
2.4531264e-15
2.1948852e-15
1.6363731e-15
2.0072695e-15
1.6617845e-15
2.007261e-15
2.1269213e-15
2.1347909e-15
1.7552771e-15
1.7277446e-15
1.7598995e-15
1.6618297e-15
1.7672693e-15
1.6189763e-15
1.7023322e-15
1.4979099e-15
1.7012568e-15
1.5290951e-15
1.9179688e-15
1.9002335e-15
1.8110404e-15
1.7828245e-15
1.8072365e-15
1.5829515e-15
1.7864208e-15
1.5869258e-15
1.852976e-15
1.7930613e-15
1.8652343e-15
1.7391226e-15
1.9417959e-15
1.587042e-15
1.5402286e-15
1.9267355e-15
1.9808119e-15
1.9035398e-15
2.0347357e-15
1.8904044e-15
2.041762e-15
1.5789802e-15
2.0067844e-15
1.6105267e-15
1.6898126e-15
1.7208699e-15
1.5947429e-15
1.5642432e-15
1.6473279e-15
1.4229305e-15
1.6354276e-15
1.4433241e-15
1.7660796e-15
1.6659593e-15
1.636605e-15
1.7775262e-15
1.4482149e-15
1.6644339e-15
1.4703449e-15
1.6668924e-15
1.8234595e-15
1.8270357e-15
1.7731892e-15
1.7153904e-15
1.9402183e-15
1.5358059e-15
1.9147046e-15
1.5546058e-15
1.8830293e-15
1.8153455e-15
1.7965527e-15
1.9212638e-15
1.5283566e-15
1.9355292e-15
1.5546453e-15
1.9710548e-15
1.5147982e-15
1.7318234e-15
1.6892803e-15
1.4578746e-15
1.6793844e-15
1.7845994e-15
1.7588471e-15
1.6088948e-15
1.808653e-15
1.7005258e-15
1.8269403e-15
1.3692155e-15
8.0362047e-16
7.6749624e-16
3.0981115e-16
5.1419757e-16
5.7685388e-16
3.2176463e-16
3.0605465e-16
3.0439734e-16
5.6485412e-16
6.3933158e-16
3.0887463e-16
4.5899293e-16
6.478213e-16
5.8447865e-16
5.8775526e-16
6.5063662e-16
6.9155051e-16
5.561185e-16
5.9823048e-16
6.4735827e-16
4.9396884e-16
4.3906549e-16
4.2885076e-16
4.3915278e-16
4.3626125e-16
4.5413244e-16
4.6611093e-16
4.1946802e-16
5.5719639e-16
5.7884536e-16
6.2062479e-16
5.9910636e-16
5.8899278e-16
5.7790935e-16
6.4108801e-16
6.3616018e-16
7.6608728e-16
7.6176299e-16
7.2804476e-16
7.1860032e-16
7.1914008e-16
7.368883e-16
7.2648783e-16
6.919053e-16
6.9561336e-16
7.2795704e-16
7.5310744e-16
6.9551882e-16
6.3767971e-16
6.0800284e-16
5.7075104e-16
6.0887865e-16
5.6448548e-16
6.1241539e-16
6.1678083e-16
6.2024734e-16
7.0526288e-16
6.8524794e-16
7.0504135e-16
6.7248684e-16
6.3453609e-16
5.9525064e-16
6.3532007e-16
5.997826e-16
7.1361206e-16
6.5152697e-16
6.7881288e-16
6.2004879e-16
4.3330607e-16
4.6794691e-16
4.720248e-16
4.1877424e-16
4.3783191e-16
4.5695431e-16
4.7135138e-16
4.223908e-16
7.4380054e-16
6.1850461e-16
6.679845e-16
6.4869796e-16
4.1258973e-16
4.3296357e-16
4.5394397e-16
4.0147985e-16
4.5784286e-16
4.8457741e-16
5.0535048e-16
4.4038851e-16
7.3688891e-16
7.9783425e-16
7.6787423e-16
7.1630123e-16
6.3175393e-16
5.7789179e-16
5.7025341e-16
6.1360415e-16
5.7057933e-16
5.6028588e-16
6.0849388e-16
6.2219621e-16
7.474976e-16
7.5481837e-16
7.6975749e-16
7.3473842e-16
2.2975626e-15
2.4420797e-15
2.3942601e-15
2.3586312e-15
2.2687609e-15
2.4231937e-15
2.357361e-15
2.3217035e-15
2.4169221e-15
2.4372665e-15
2.555551e-15
2.4815467e-15
2.3473452e-15
2.4246527e-15
2.4058925e-15
2.3546565e-15
2.0323176e-15
2.1422278e-15
2.1713889e-15
2.1418668e-15
2.1776158e-15
2.2744545e-15
2.3073739e-15
2.3452552e-15
2.3569901e-15
2.4865899e-15
2.4669907e-15
2.3882254e-15
2.4301974e-15
2.4497698e-15
2.5548129e-15
2.4911166e-15
8.4819518e-15
4.3135331e-15
4.9150877e-15
8.5832016e-15
4.6162411e-15
4.9781133e-15
4.0976469e-15
7.4299843e-15
6.4732858e-15
6.3328806e-15
5.1981718e-15
9.4162456e-15
5.6938527e-15
6.0122302e-15
6.9885373e-15
7.0752857e-15
1.0171307e-14
5.9704863e-15
6.1725537e-15
7.0598357e-15
7.2550411e-15
5.9191744e-15
6.0047131e-15
9.9588579e-15
7.2396885e-15
6.9380671e-15
5.6596481e-15
6.003181e-15
9.7658374e-15
6.930611e-15
7.045603e-15
6.7952064e-15
7.0301082e-15
8.1561523e-15
8.7188833e-15
1.0156367e-14
1.0033422e-14
7.2833771e-15
7.1360633e-15
8.0173737e-15
9.0454919e-15
1.0048274e-14
1.0409946e-14
7.6260351e-15
7.470497e-15
8.315448e-15
9.3597141e-15
1.0157356e-14
1.0523526e-14
7.1349807e-15
7.484901e-15
8.4051542e-15
8.9350455e-15
1.023528e-14
1.0056926e-14
1.0106705e-14
1.0632571e-14
5.0854193e-15
5.2572608e-15
1.0071505e-14
1.0784933e-14
5.5873052e-15
5.6207849e-15
1.0416033e-14
9.6715308e-15
5.3876431e-15
5.3882025e-15
1.020381e-14
1.0760495e-14
5.1556498e-15
5.3057561e-15
3.6243443e-15
3.4677894e-15
2.8245123e-15
3.1807455e-15
3.6367462e-15
2.8053662e-15
2.9758082e-15
3.9046298e-15
3.5993599e-15
3.5752175e-15
3.2341463e-15
3.3853603e-15
3.1115628e-15
3.1114263e-15
3.9065296e-15
3.9377096e-15
3.5461102e-15
3.6871677e-15
3.2145195e-15
2.9615297e-15
2.9449808e-15
3.0446266e-15
4.0104741e-15
3.7753572e-15
3.129196e-15
3.51141e-15
3.4971214e-15
3.2123402e-15
3.8886433e-15
3.053535e-15
2.9628837e-15
3.8271096e-15
9.920738e-15
1.0440776e-14
5.0332063e-15
5.1771163e-15
9.9340498e-15
1.0652673e-14
5.5246011e-15
5.5433652e-15
1.0051881e-14
1.0563569e-14
5.0918005e-15
5.2288909e-15
1.0266009e-14
5.3366577e-15
9.5526571e-15
5.3195484e-15
3.6098197e-15
3.4791868e-15
2.9542998e-15
2.6196107e-15
3.5709256e-15
3.562071e-15
3.2326252e-15
3.0159148e-15
3.0169136e-15
3.728358e-15
3.7320829e-15
3.01145e-15
2.8774081e-15
2.7333839e-15
3.4102942e-15
3.672344e-15
2.9027638e-15
2.9961344e-15
3.9311763e-15
3.7056204e-15
3.8130717e-15
3.025852e-15
2.956446e-15
3.7444091e-15
3.6474437e-15
3.5047772e-15
3.0760451e-15
2.8298243e-15
3.469711e-15
3.496489e-15
3.1595734e-15
3.0341952e-15
7.3030112e-15
7.6183479e-15
9.176129e-15
8.5400499e-15
1.022549e-14
1.0206107e-14
7.3728726e-15
7.1659166e-15
9.1372141e-15
8.2102392e-15
1.0088996e-14
1.0403207e-14
7.6627529e-15
7.3550496e-15
9.4194928e-15
8.3015953e-15
1.0425566e-14
1.0064196e-14
7.0706783e-15
7.4381407e-15
8.4574825e-15
9.7914556e-15
1.0081191e-14
8.9393735e-15
1.0834058e-14
1.0316466e-14
5.3730887e-15
5.1856141e-15
5.4532061e-15
1.0458456e-14
9.6501802e-15
5.4279251e-15
3.5672459e-15
3.5937486e-15
3.6448924e-15
3.4865752e-15
3.0164993e-15
3.4344206e-15
3.624958e-15
3.3850369e-15
3.6327218e-15
2.7905937e-15
2.9540673e-15
3.8844007e-15
3.8466842e-15
3.0990521e-15
3.0951667e-15
3.8772044e-15
3.4966436e-15
3.6511745e-15
3.4508945e-15
3.1681863e-15
3.669793e-15
2.8849216e-15
3.0081289e-15
3.9267583e-15
3.7794148e-15
3.0324936e-15
2.9399476e-15
3.7091173e-15
3.4652079e-15
3.4445468e-15
3.4925307e-15
3.4070268e-15
5.1911755e-15
1.07526e-14
1.0238245e-14
5.380768e-15
5.6987266e-15
1.0910335e-14
1.0164618e-14
5.7180554e-15
1.0138055e-14
1.0639411e-14
5.0957278e-15
5.284847e-15
1.0957963e-14
1.0126659e-14
5.6633587e-15
5.682719e-15
5.2251426e-15
1.0932476e-14
1.0341187e-14
5.3788147e-15
9.9205186e-15
1.0689277e-14
5.5176372e-15
5.5349736e-15
2.8950632e-15
3.4513572e-15
3.6350793e-15
3.270584e-15
3.5875044e-15
3.5796156e-15
3.5877626e-15
3.3342428e-15
3.0899945e-15
3.8762692e-15
3.8678196e-15
3.0810957e-15
3.6163097e-15
2.791613e-15
2.9437594e-15
3.882154e-15
3.5372651e-15
3.5338475e-15
3.4428036e-15
3.3644393e-15
2.954904e-15
3.069356e-15
4.0409953e-15
3.7744108e-15
3.906594e-15
3.0674481e-15
2.9693644e-15
3.8859601e-15
3.6627592e-15
3.5129144e-15
3.387952e-15
3.1003901e-15
7.5485329e-15
7.406432e-15
7.6144819e-15
7.6665145e-15
1.0283432e-14
5.922031e-15
5.9836434e-15
4.7778267e-15
5.1817904e-15
5.5621196e-15
5.3841073e-15
5.1676292e-15
5.5694777e-15
5.1699286e-15
5.1552125e-15
5.3222005e-15
5.6321721e-15
9.4465941e-15
5.8192755e-15
5.1743697e-15
6.3466814e-15
5.1208593e-15
6.6993679e-15
7.067533e-15
7.0262008e-15
7.0726301e-15
6.8641268e-15
6.9685166e-15
6.2923339e-15
6.9952991e-15
5.2262927e-15
7.0161227e-15
5.3550497e-15
7.3052848e-15
7.1629418e-15
4.3409846e-15
4.6147424e-15
4.4644401e-15
4.6127213e-15
4.4388589e-15
4.6594816e-15
4.3352097e-15
4.4589548e-15
1.4783991e-15
1.4630027e-15
9.0185622e-16
1.0718645e-15
7.7306356e-16
1.2156582e-15
1.2844203e-15
8.166017e-16
1.0358001e-15
1.4844753e-15
1.4753079e-15
1.0784867e-15
1.2166712e-15
1.1687301e-15
7.9917481e-16
8.3203755e-16
9.4196977e-16
1.4914933e-15
1.4880519e-15
1.1174936e-15
1.0032687e-15
1.4498642e-15
1.4342816e-15
1.0191219e-15
8.0003334e-16
1.240757e-15
1.2197724e-15
8.4896644e-16
1.186953e-15
1.1254864e-15
8.1767599e-16
8.3461542e-16
3.6960648e-15
1.7456981e-15
4.5346572e-15
4.3867e-15
4.5534778e-15
4.5512044e-15
4.7142185e-15
4.437358e-15
4.25496e-15
4.4334859e-15
4.5727535e-15
4.3780674e-15
4.5378494e-15
4.5475173e-15
4.8259121e-15
4.7505947e-15
4.6407045e-15