/*--------------------------------*- C++ -*----------------------------------*\
  =========                 |
  \\      /  F ield         | OpenFOAM: The Open Source CFD Toolbox
   \\    /   O peration     | Website:  https://openfoam.org
    \\  /    A nd           | Version:  7
     \\/     M anipulation  |
\*---------------------------------------------------------------------------*/
FoamFile
{
    version     2.0;
    format      ascii;
    class       volScalarField;
    location    "2000";
    object      p;
}
// * * * * * * * * * * * * * * * * * * * * * * * * * * * * * * * * * * * * * //

dimensions      [0 2 -2 0 0 0 0];

internalField   nonuniform List<scalar> 
33730
(
-5.2943539e+29
-5.0623384e+29
-5.3449795e+29
-5.2166288e+29
-5.1534794e+29
-5.2088099e+29
-5.1434346e+29
-5.1211131e+29
-5.0521577e+29
-4.7311119e+29
-4.897926e+29
-4.9881103e+29
-5.0564465e+29
-4.906475e+29
-5.1620441e+29
-5.2579601e+29
-5.1589873e+29
-5.2561231e+29
-5.2402387e+29
-5.2495617e+29
-5.240203e+29
-5.1683511e+29
-5.1236776e+29
-5.0720925e+29
-5.1149214e+29
-5.1798002e+29
-5.1579884e+29
-5.1200281e+29
-5.1416756e+29
-5.0373786e+29
-5.0821661e+29
-4.9870938e+29
-5.0307137e+29
-4.8331159e+29
-4.6135533e+29
-4.6746786e+29
-4.7616526e+29
-4.7234128e+29
-4.8303593e+29
-4.754057e+29
-4.7971647e+29
-4.5730058e+29
-4.9081797e+29
-4.8732177e+29
-4.964507e+29
-4.3942147e+29
-4.4425726e+29
-5.0211195e+29
-4.9802334e+29
-5.0619361e+29
-5.0826171e+29
-4.9019058e+29
-4.9425229e+29
-5.0935487e+29
-5.0489373e+29
-5.0681626e+29
-5.1133951e+29
-5.1348426e+29
-5.1547572e+29
-5.1999168e+29
-5.1789197e+29
-5.0753887e+29
-5.1208248e+29
-5.1110135e+29
-5.0656691e+29
-5.1628972e+29
-5.2085217e+29
-5.1987747e+29
-5.1534624e+29
-5.1662454e+29
-5.1881504e+29
-5.2099193e+29
-5.2192747e+29
-5.1971334e+29
-5.1958256e+29
-5.2179914e+29
-5.18113e+29
-5.203069e+29
-5.0804431e+29
-5.1166531e+29
-5.1384145e+29
-5.1014682e+29
-5.0744675e+29
-5.0962714e+29
-5.0389383e+29
-5.0600804e+29
-5.1491489e+29
-5.1595642e+29
-5.1246584e+29
-5.1352104e+29
-5.1283283e+29
-5.139114e+29
-5.1037787e+29
-5.1144422e+29
-4.9922263e+29
-5.0132326e+29
-4.9581196e+29
-4.9783151e+29
-5.0335425e+29
-4.9987689e+29
-5.0552132e+29
-5.0203245e+29
-4.7803616e+29
-4.8145186e+29
-4.7086443e+29
-4.6271827e+29
-4.8938005e+29
-4.931636e+29
-4.8430548e+29
-4.8074846e+29
-4.6749144e+29
-4.610334e+29
-4.6387074e+29
-4.7058574e+29
-4.7360004e+29
-4.6658195e+29
-4.6967849e+29
-4.5240548e+29
-4.7689019e+29
-4.3523625e+29
-4.8214855e+29
-4.7410355e+29
-4.7752234e+29
-4.858819e+29
-4.7386219e+29
-4.7237289e+29
-4.7557e+29
-4.6523843e+29
-4.7711161e+29
-4.8359078e+29
-4.8195123e+29
-4.8742325e+29
-4.8575489e+29
-4.7674835e+29
-4.7521815e+29
-4.8012118e+29
-4.7854848e+29
-4.6812654e+29
-4.8046722e+29
-4.7887792e+29
-4.8258528e+29
-4.8422222e+29
-4.6015251e+29
-4.5740449e+29
-4.8964219e+29
-4.9407949e+29
-4.9136339e+29
-4.9066673e+29
-4.8807511e+29
-4.8638616e+29
-4.9244651e+29
-4.970992e+29
-5.0265974e+29
-4.9523683e+29
-5.0068694e+29
-4.9877069e+29
-4.0389563e+29
-4.2242435e+29
-4.3931253e+29
-4.4923371e+29
-4.5179427e+29
-4.4144076e+29
-4.4380042e+29
-4.5425741e+29
-5.0442462e+29
-5.0233225e+29
-5.004217e+29
-4.9838241e+29
-5.0682111e+29
-5.0787324e+29
-5.0884624e+29
-5.099275e+29
-4.906921e+29
-4.9261717e+29
-4.9452711e+29
-4.9665765e+29
-5.0091018e+29
-5.0915881e+29
-5.0238302e+29
-4.9819061e+29
-5.0046162e+29
-5.0459363e+29
-5.0618876e+29
-5.0853515e+29
-5.1269541e+29
-5.1037819e+29
-5.0221764e+29
-5.0435967e+29
-5.0515173e+29
-5.029722e+29
-5.0715217e+29
-5.0639833e+29
-5.0854831e+29
-5.0935463e+29
-5.0693481e+29
-5.0913847e+29
-5.0550826e+29
-5.0768187e+29
-5.0273857e+29
-5.0491941e+29
-5.0133073e+29
-5.0347448e+29
-5.1049983e+29
-5.1269534e+29
-5.1356748e+29
-5.1132497e+29
-5.1687819e+29
-5.1473074e+29
-5.1557063e+29
-5.1776829e+29
-5.1760295e+29
-5.1393579e+29
-5.1611642e+29
-5.1540364e+29
-5.1114357e+29
-5.1338964e+29
-5.0967798e+29
-5.1189394e+29
-5.089478e+29
-5.1750092e+29
-5.1540662e+29
-5.1868769e+29
-5.1661407e+29
-5.1703536e+29
-5.1810373e+29
-5.1697645e+29
-5.180713e+29
-5.191231e+29
-5.201645e+29
-5.1904838e+29
-5.2012631e+29
-5.1623215e+29
-5.1456574e+29
-5.1732585e+29
-5.1565262e+29
-5.1830397e+29
-5.1936605e+29
-5.1664174e+29
-5.1768498e+29
-5.0630737e+29
-5.086802e+29
-5.0976465e+29
-5.0736035e+29
-5.107877e+29
-5.1186592e+29
-5.0839902e+29
-5.0946745e+29
-5.0461088e+29
-5.0565106e+29
-5.0229664e+29
-5.0329909e+29
-5.0771492e+29
-5.066499e+29
-5.0431096e+29
-5.0537369e+29
-5.1325176e+29
-5.1270541e+29
-5.1136135e+29
-5.1190547e+29
-5.1423658e+29
-5.1374407e+29
-5.1241868e+29
-5.1293874e+29
-5.112026e+29
-5.1065603e+29
-5.0932314e+29
-5.0985737e+29
-5.1037139e+29
-5.1170369e+29
-5.1221875e+29
-5.108998e+29
-4.9658637e+29
-4.975892e+29
-4.9437421e+29
-4.953452e+29
-4.9631483e+29
-4.9855483e+29
-4.9959107e+29
-4.97334e+29
-5.0055761e+29
-5.0164744e+29
-4.9827917e+29
-4.9936567e+29
-5.0040405e+29
-5.0265725e+29
-5.0369445e+29
-5.0143516e+29
-4.7625408e+29
-4.7928003e+29
-4.800296e+29
-4.7475859e+29
-4.7836574e+29
-4.7763708e+29
-4.8094375e+29
-4.826841e+29
-4.8169734e+29
-4.7145464e+29
-4.7293782e+29
-4.6820916e+29
-4.6486491e+29
-4.6632162e+29
-4.6966969e+29
-4.8991462e+29
-4.8805546e+29
-4.9321094e+29
-4.9514049e+29
-4.969945e+29
-4.9364487e+29
-4.91693e+29
-4.9899131e+29
-4.8726049e+29
-4.8306354e+29
-4.8493141e+29
-4.891488e+29
-4.8372744e+29
-4.8135375e+29
-4.7968234e+29
-4.8548603e+29
-4.6999455e+29
-4.6826158e+29
-4.6687751e+29
-4.7145674e+29
-4.6535708e+29
-4.6252225e+29
-4.6521194e+29
-4.6377775e+29
-4.6667235e+29
-4.5739193e+29
-4.6818679e+29
-4.7127121e+29
-4.7297013e+29
-4.6964389e+29
-4.7470048e+29
-4.5027872e+29
-4.7612791e+29
-4.7422397e+29
-4.7265366e+29
-4.7772208e+29
-4.7103338e+29
-4.6949445e+29
-4.6642378e+29
-4.6790749e+29
-4.5990669e+29
-4.7104458e+29
-4.6936866e+29
-4.7253618e+29
-4.6273592e+29
-4.7422517e+29
-4.5263441e+29
-4.552612e+29
-4.7750612e+29
-4.811642e+29
-4.7575428e+29
-4.793504e+29
-3.9783835e+29
-4.0084552e+29
-4.1880919e+29
-4.332744e+29
-4.427195e+29
-4.4493187e+29
-4.3527593e+29
-4.4741097e+29
-4.3762158e+29
-4.8281402e+29
-4.8104529e+29
-4.8587752e+29
-4.8769182e+29
-4.732464e+29
-4.7867519e+29
-4.7698366e+29
-4.7481804e+29
-4.7823646e+29
-4.7643233e+29
-4.8036688e+29
-4.8223214e+29
-4.8649573e+29
-4.9156652e+29
-4.8453388e+29
-4.895129e+29
-4.7512846e+29
-4.7586731e+29
-4.7069668e+29
-4.7430157e+29
-4.7358701e+29
-4.7367119e+29
-4.7444332e+29
-4.6925413e+29
-4.7290931e+29
-4.7214458e+29
-4.7523089e+29
-4.7685376e+29
-4.7600292e+29
-4.7762277e+29
-4.6751974e+29
-4.6610959e+29
-4.7669139e+29
-4.7833808e+29
-4.7745614e+29
-4.7911982e+29
-4.8300346e+29
-4.8380652e+29
-4.8479805e+29
-4.8560187e+29
-4.8149369e+29
-4.8325972e+29
-4.8226324e+29
-4.8404461e+29
-4.8663524e+29
-4.8860242e+29
-4.8745778e+29
-4.8508436e+29
-4.870209e+29
-4.8588291e+29
-4.8782786e+29
-4.7791395e+29
-4.7867393e+29
-4.7347517e+29
-4.7703702e+29
-4.7628946e+29
-4.7648212e+29
-4.7721715e+29
-4.7198355e+29
-4.7559979e+29
-4.7489955e+29
-4.7954903e+29
-4.8126399e+29
-4.8032694e+29
-4.8205307e+29
-4.7809521e+29
-4.7978184e+29
-4.7884852e+29
-4.8053775e+29
-4.6871676e+29
-4.7020173e+29
-4.8002321e+29
-4.8177213e+29
-4.8082315e+29
-4.8258244e+29
-4.7851097e+29
-4.8022672e+29
-4.792928e+29
-4.8102507e+29
-4.8201841e+29
-4.8391202e+29
-4.8282966e+29
-4.8473136e+29
-4.8357488e+29
-4.8549615e+29
-4.8440154e+29
-4.8632902e+29
-4.6362772e+29
-4.6223502e+29
-4.6552541e+29
-4.6695893e+29
-4.6107694e+29
-4.597571e+29
-4.6297212e+29
-4.6434597e+29
-4.8897867e+29
-4.8980547e+29
-4.9105346e+29
-4.9190359e+29
-4.932148e+29
-4.9561931e+29
-4.9408199e+29
-4.9649183e+29
-4.9059255e+29
-4.9270273e+29
-4.8990864e+29
-4.9078447e+29
-4.9222332e+29
-4.931112e+29
-4.8743437e+29
-4.8948192e+29
-4.8828259e+29
-4.9034191e+29
-4.8581941e+29
-4.8782015e+29
-4.8665692e+29
-4.8868385e+29
-4.9158877e+29
-4.9248227e+29
-4.9395066e+29
-4.9486873e+29
-4.9636501e+29
-4.9912204e+29
-4.9730562e+29
-5.0008248e+29
-5.0200225e+29
-5.0541957e+29
-5.0301586e+29
-5.0647066e+29
-4.9457963e+29
-4.9724978e+29
-4.9549886e+29
-4.9822271e+29
-5.000962e+29
-5.0345073e+29
-5.0109763e+29
-5.0447589e+29
-5.0085775e+29
-4.9806295e+29
-4.9894591e+29
-4.0018515e+29
-4.2877673e+29
-4.1601942e+29
-4.1734913e+29
-4.3053861e+29
-4.427358e+29
-4.4208745e+29
-4.479197e+29
-4.4881352e+29
-4.5341443e+29
-4.5236971e+29
-4.5625702e+29
-4.5748474e+29
-4.5864989e+29
-4.545165e+29
-4.5587903e+29
-4.5998092e+29
-4.4510768e+29
-4.4367578e+29
-4.4980494e+29
-4.5117156e+29
-4.462018e+29
-4.5230047e+29
-4.5384661e+29
-4.6119357e+29
-4.5700056e+29
-4.5855143e+29
-4.6266414e+29
-5.0484725e+29
-5.0594463e+29
-5.0281933e+29
-5.0384818e+29
-5.0084474e+29
-5.0192876e+29
-4.989292e+29
-4.9988837e+29
-5.071725e+29
-5.0769645e+29
-5.0818763e+29
-5.0872931e+29
-5.0917884e+29
-5.0971956e+29
-5.1022214e+29
-5.1076545e+29
-4.9125594e+29
-4.9218188e+29
-4.9308606e+29
-4.9411632e+29
-4.9502029e+29
-4.9609778e+29
-4.9709258e+29
-4.9813258e+29
-4.8632689e+29
-4.9351744e+29
-4.8316777e+29
-4.9548856e+29
-4.9157924e+29
-4.939149e+29
-4.9936343e+29
-5.0141508e+29
-4.9771466e+29
-5.0333745e+29
-5.0544247e+29
-4.9906461e+29
-5.0140765e+29
-5.0735378e+29
-5.0948066e+29
-5.0527656e+29
-5.1142158e+29
-5.1351498e+29
-5.0297343e+29
-5.0243086e+29
-5.0039283e+29
-5.043874e+29
-5.0647697e+29
-5.04626e+29
-5.056909e+29
-5.0451566e+29
-5.0560887e+29
-5.06717e+29
-5.0777492e+29
-5.0768527e+29
-5.0659397e+29
-5.0376023e+29
-5.0216455e+29
-5.048532e+29
-5.0325703e+29
-5.0583989e+29
-5.0425421e+29
-5.0691107e+29
-5.0529847e+29
-5.0057571e+29
-5.0161876e+29
-5.0045271e+29
-5.0151841e+29
-5.0262959e+29
-5.0366417e+29
-5.024881e+29
-5.0356075e+29
-4.9969756e+29
-5.0075234e+29
-4.9917244e+29
-4.9814188e+29
-5.0013936e+29
-5.0118302e+29
-5.0172097e+29
-5.0278443e+29
-5.1058606e+29
-5.0847141e+29
-5.1256947e+29
-5.1465109e+29
-5.1501755e+29
-5.1492477e+29
-5.1601538e+29
-5.1606881e+29
-5.1317223e+29
-5.1207655e+29
-5.1039893e+29
-5.1149707e+29
-5.1416458e+29
-5.1250412e+29
-5.135769e+29
-5.1524695e+29
-5.1399564e+29
-5.1292281e+29
-5.1283758e+29
-5.1393872e+29
-5.0875342e+29
-5.0984517e+29
-5.0865387e+29
-5.097691e+29
-5.1088646e+29
-5.1194916e+29
-5.1076804e+29
-5.11871e+29
-5.078877e+29
-5.089933e+29
-5.0733381e+29
-5.062574e+29
-5.1109027e+29
-5.0833604e+29
-5.0940695e+29
-5.099961e+29
-5.1384848e+29
-5.1183731e+29
-5.0121893e+29
-5.0799014e+29
-5.0992455e+29
-5.1631608e+29
-5.1528721e+29
-5.1590045e+29
-5.1691618e+29
-5.1764135e+29
-5.1865602e+29
-5.1430954e+29
-5.1330037e+29
-5.1561832e+29
-5.1391759e+29
-5.1492641e+29
-5.1664624e+29
-5.1624602e+29
-5.1569904e+29
-5.1565203e+29
-5.1620241e+29
-5.1669942e+29
-5.1675277e+29
-5.172582e+29
-5.1722576e+29
-5.176928e+29
-5.1773404e+29
-5.1823461e+29
-5.1827927e+29
-5.1877502e+29
-5.1926736e+29
-5.1871927e+29
-5.192357e+29
-5.1588983e+29
-5.1533696e+29
-5.1470057e+29
-5.1525314e+29
-5.1194765e+29
-5.1364676e+29
-5.1420332e+29
-5.1249801e+29
-5.1574793e+29
-5.1638134e+29
-5.1691394e+29
-5.1628145e+29
-5.1522772e+29
-5.1470806e+29
-5.1299277e+29
-5.1351481e+29
-5.1675665e+29
-5.1738336e+29
-5.1792074e+29
-5.1729209e+29
-5.1776807e+29
-5.1839667e+29
-5.1892053e+29
-5.1828608e+29
-5.1400589e+29
-5.1571269e+29
-5.1624766e+29
-5.1454436e+29
-5.172283e+29
-5.1673254e+29
-5.1502445e+29
-5.1551755e+29
-5.0705551e+29
-5.0653676e+29
-5.0523968e+29
-5.0574504e+29
-5.0809007e+29
-5.0755623e+29
-5.0624474e+29
-5.0679032e+29
-5.0913709e+29
-5.085835e+29
-5.0727302e+29
-5.0781986e+29
-5.1017826e+29
-5.0964693e+29
-5.083365e+29
-5.0887803e+29
-5.0304924e+29
-5.0255451e+29
-5.0129221e+29
-5.0177118e+29
-5.0402671e+29
-5.0351851e+29
-5.0224154e+29
-5.0275385e+29
-5.0554282e+29
-5.0606717e+29
-5.0426776e+29
-5.0479516e+29
-5.0450166e+29
-5.0321415e+29
-5.0375304e+29
-5.0504277e+29
-5.1057093e+29
-5.100413e+29
-5.1157899e+29
-5.1107162e+29
-5.0854517e+29
-5.0802219e+29
-5.0904493e+29
-5.0955679e+29
-4.9346633e+29
-4.9467653e+29
-4.9515508e+29
-4.9393351e+29
-4.9610149e+29
-4.9561064e+29
-4.9438416e+29
-4.9487633e+29
-4.9656271e+29
-4.9708035e+29
-4.9532543e+29
-4.9583568e+29
-4.9633186e+29
-4.9756356e+29
-4.9807111e+29
-4.9684611e+29
-4.9908103e+29
-4.9854211e+29
-4.9729491e+29
-4.9783147e+29
-5.0012256e+29
-4.995851e+29
-4.9834136e+29
-4.9889286e+29
-5.0060687e+29
-5.0114215e+29
-4.9989874e+29
-4.9936656e+29
-5.0162597e+29
-5.0211581e+29
-5.0039394e+29
-5.0088904e+29
-3.7844594e+29
-4.77611e+29
-4.7614563e+29
-4.769556e+29
-4.7841034e+29
-4.7900399e+29
-4.7934008e+29
-4.7990987e+29
-4.8026757e+29
-4.8063942e+29
-4.810192e+29
-4.7971551e+29
-4.8010079e+29
-4.7617777e+29
-4.7472786e+29
-4.7542539e+29
-4.7688673e+29
-4.7861244e+29
-4.7787941e+29
-4.8193317e+29
-4.8073284e+29
-4.8155494e+29
-4.8111231e+29
-4.8240771e+29
-4.8326944e+29
-4.8364076e+29
-4.8278265e+29
-4.8266703e+29
-4.8147431e+29
-4.8228736e+29
-4.8185021e+29
-4.7330308e+29
-4.719003e+29
-4.7257398e+29
-4.7399003e+29
-4.7409351e+29
-4.7329873e+29
-4.7471923e+29
-4.7552046e+29
-4.7049439e+29
-4.6910752e+29
-4.6977917e+29
-4.711509e+29
-4.6776937e+29
-4.6640752e+29
-4.6706278e+29
-4.6843371e+29
-4.6854364e+29
-4.6774539e+29
-4.691228e+29
-4.6990394e+29
-4.7186355e+29
-4.7047364e+29
-4.7124999e+29
-4.7265494e+29
-4.8905977e+29
-4.9007259e+29
-4.9165338e+29
-4.926691e+29
-4.8735884e+29
-4.8990196e+29
-4.881885e+29
-4.9076211e+29
-4.9258973e+29
-4.9574796e+29
-4.9347644e+29
-4.9666148e+29
-4.9436873e+29
-4.9758955e+29
-4.9541371e+29
-4.9865377e+29
-4.9628317e+29
-4.972865e+29
-4.9953833e+29
-5.0053707e+29
-4.9280784e+29
-4.9381279e+29
-4.9544786e+29
-4.9645721e+29
-4.9091555e+29
-4.9351739e+29
-4.9188496e+29
-4.9450661e+29
-4.9822135e+29
-4.9926943e+29
-5.0151183e+29
-5.0259143e+29
-4.8634897e+29
-4.8861484e+29
-4.8733099e+29
-4.8957368e+29
-4.8233111e+29
-4.8330103e+29
-4.8429806e+29
-4.8528034e+29
-4.8418424e+29
-4.8511331e+29
-4.8617006e+29
-4.8709978e+29
-4.8820997e+29
-4.8916987e+29
-4.9047974e+29
-4.9147069e+29
-4.8291812e+29
-4.851082e+29
-4.8371412e+29
-4.8590793e+29
-4.8059226e+29
-4.8151212e+29
-4.8252561e+29
-4.8346751e+29
-4.7904991e+29
-4.8094102e+29
-4.7981071e+29
-4.8172228e+29
-4.8452533e+29
-4.8549983e+29
-4.8675665e+29
-4.8776162e+29
-4.6949167e+29
-4.7107461e+29
-4.7016777e+29
-4.7175839e+29
-4.6784809e+29
-4.6857642e+29
-4.6930925e+29
-4.7006143e+29
-4.6720528e+29
-4.6864727e+29
-4.7084088e+29
-4.7163601e+29
-4.7247009e+29
-4.7330898e+29
-4.6501739e+29
-4.6641062e+29
-4.6570911e+29
-4.6711659e+29
-4.6364012e+29
-4.6431487e+29
-4.5970449e+29
-4.6295019e+29
-4.6228749e+29
-4.6625808e+29
-4.6697516e+29
-4.6230176e+29
-4.6550711e+29
-4.6482741e+29
-4.6489908e+29
-4.6559764e+29
-4.6092038e+29
-4.6418338e+29
-4.6352153e+29
-4.6630709e+29
-4.6774855e+29
-4.6702974e+29
-4.6849838e+29
-4.5803879e+29
-4.5940743e+29
-4.6770918e+29
-4.6921775e+29
-4.6846462e+29
-4.7000414e+29
-4.7076092e+29
-4.7235045e+29
-4.7156611e+29
-4.7317082e+29
-4.7236142e+29
-4.7406095e+29
-4.7321282e+29
-4.749259e+29
-4.6923123e+29
-4.7075115e+29
-4.7001213e+29
-4.7157452e+29
-4.74001e+29
-4.7574478e+29
-4.7484261e+29
-4.7660811e+29
-4.5358136e+29
-4.5232628e+29
-4.5519322e+29
-4.565213e+29
-4.7548282e+29
-4.7724989e+29
-4.7622465e+29
-4.7798857e+29
-4.736457e+29
-4.7446841e+29
-4.7527066e+29
-4.7610154e+29
-4.7219615e+29
-4.7380266e+29
-4.7292211e+29
-4.7453908e+29
-4.7695424e+29
-4.7781919e+29
-4.7874777e+29
-4.7964389e+29
-4.7050383e+29
-4.7205924e+29
-4.7131442e+29
-4.7286911e+29
-4.6907948e+29
-4.7062804e+29
-4.6980715e+29
-4.7134557e+29
-4.6755894e+29
-4.6827926e+29
-4.6344985e+29
-4.6606806e+29
-4.6675843e+29
-4.6897547e+29
-4.6977609e+29
-4.6485879e+29
-4.6824853e+29
-4.6745311e+29
-4.6047859e+29
-4.618227e+29
-4.7212355e+29
-4.7299462e+29
-4.679263e+29
-4.7145375e+29
-4.7058268e+29
-4.7047085e+29
-4.7132141e+29
-4.6627278e+29
-4.6977481e+29
-4.6894356e+29
-4.720182e+29
-4.7359948e+29
-4.7287965e+29
-4.7447463e+29
-4.6316221e+29
-4.6480978e+29
-4.7367838e+29
-4.7529713e+29
-4.7455935e+29
-4.7617983e+29
-4.575685e+29
-4.5459134e+29
-4.5583669e+29
-4.5884515e+29
-4.5858514e+29
-4.570945e+29
-4.6014083e+29
-4.6172273e+29
-4.7694337e+29
-4.7865079e+29
-4.7783472e+29
-4.7954457e+29
-4.804176e+29
-4.8229502e+29
-4.8132874e+29
-4.8321287e+29
-4.7521073e+29
-4.7686854e+29
-4.7610526e+29
-4.7779528e+29
-4.7861373e+29
-4.8046086e+29
-4.7956178e+29
-4.8141947e+29
-3.9439839e+29
-4.2310071e+29
-4.1069268e+29
-3.9723907e+29
-4.1224983e+29
-4.2491755e+29
-4.2709238e+29
-4.1438388e+29
-4.4147554e+29
-4.3574824e+29
-4.4267014e+29
-4.3693004e+29
-4.4912894e+29
-4.4560574e+29
-4.4681377e+29
-4.5034794e+29
-4.5139891e+29
-4.4786166e+29
-4.4911453e+29
-4.5260961e+29
-4.4363025e+29
-4.3783759e+29
-4.4486565e+29
-4.3895099e+29
-4.538503e+29
-4.5030849e+29
-4.5160524e+29
-4.5521517e+29
-4.4602787e+29
-4.4011675e+29
-4.472823e+29
-4.4144502e+29
-4.820917e+29
-4.8451855e+29
-4.8302576e+29
-4.8544281e+29
-4.8043586e+29
-4.8281637e+29
-4.8127162e+29
-4.8368737e+29
-4.8534951e+29
-4.8622863e+29
-4.8830466e+29
-4.8919568e+29
-4.8705665e+29
-4.8802041e+29
-4.900607e+29
-4.9105373e+29
-4.7271105e+29
-4.7342361e+29
-4.7444131e+29
-4.751905e+29
-4.7784307e+29
-4.7993917e+29
-4.7875526e+29
-4.8086221e+29
-4.7628148e+29
-4.7832169e+29
-4.7705966e+29
-4.7913196e+29
-4.7416628e+29
-4.7503215e+29
-4.759615e+29
-4.7684549e+29
-4.7751994e+29
-4.7839839e+29
-4.7939465e+29
-4.8028387e+29
-4.7579153e+29
-4.7668054e+29
-4.7762e+29
-4.7853678e+29
-4.7954539e+29
-4.8048287e+29
-4.8166868e+29
-4.8262563e+29
-4.8134255e+29
-4.8224905e+29
-4.8351175e+29
-4.8443489e+29
-4.8572376e+29
-4.8824094e+29
-4.8666516e+29
-4.8919622e+29
-4.9087672e+29
-4.939833e+29
-4.9186274e+29
-4.9499227e+29
-4.8383472e+29
-4.8627796e+29
-4.8481545e+29
-4.8730375e+29
-4.8888657e+29
-4.8993545e+29
-4.9194835e+29
-4.9300929e+29
-4.7495774e+29
-4.7528138e+29
-4.7579726e+29
-4.7614371e+29
-4.7649507e+29
-4.7684033e+29
-4.7562839e+29
-4.7596794e+29
-4.7219665e+29
-4.7083018e+29
-4.7152388e+29
-4.7290331e+29
-4.7458294e+29
-4.7392269e+29
-4.7349898e+29
-4.7388267e+29
-4.743413e+29
-4.7473501e+29
-4.7511153e+29
-4.7548065e+29
-4.7426645e+29
-4.7463283e+29
-4.7017894e+29
-4.694277e+29
-4.7077633e+29
-4.7152827e+29
-4.7326712e+29
-4.7250696e+29
-4.7510853e+29
-4.7552024e+29
-4.7627465e+29
-4.7586824e+29
-4.7665834e+29
-4.7706366e+29
-4.7745801e+29
-4.7785799e+29
-4.7701628e+29
-4.7588807e+29
-4.7663878e+29
-4.7625606e+29
-4.7822332e+29
-4.7742519e+29
-4.7781118e+29
-4.7861452e+29
-4.687817e+29
-4.6813418e+29
-4.6948296e+29
-4.701511e+29
-4.6749919e+29
-4.6676322e+29
-4.680875e+29
-4.688345e+29
-4.7771015e+29
-4.765671e+29
-4.7733526e+29
-4.7693813e+29
-4.7894655e+29
-4.7813679e+29
-4.7851699e+29
-4.7932743e+29
-4.7842017e+29
-4.7728675e+29
-4.7805789e+29
-4.7763632e+29
-4.7968443e+29
-4.78865e+29
-4.7923909e+29
-4.8006644e+29
-4.8267354e+29
-4.835323e+29
-4.8392036e+29
-4.8306368e+29
-4.8383148e+29
-4.8343242e+29
-4.8429413e+29
-4.8469946e+29
-4.8569828e+29
-4.8440345e+29
-4.853036e+29
-4.8479479e+29
-4.8557559e+29
-4.8648217e+29
-4.8516086e+29
-4.8606958e+29
-4.8244905e+29
-4.8122865e+29
-4.8208196e+29
-4.8159682e+29
-4.8294398e+29
-4.8382829e+29
-4.8419296e+29
-4.8330862e+29
-4.8320201e+29
-4.8194512e+29
-4.8279779e+29
-4.8234203e+29
-4.8366195e+29
-4.8455432e+29
-4.8406694e+29
-4.8496161e+29
-4.862129e+29
-4.8715357e+29
-4.8755804e+29
-4.8661108e+29
-4.8911445e+29
-4.885223e+29
-4.8811449e+29
-4.8952738e+29
-4.8698648e+29
-4.8740137e+29
-4.879387e+29
-4.8835132e+29
-4.8602789e+29
-4.8472665e+29
-4.8565092e+29
-4.8509608e+29
-4.8757619e+29
-4.865951e+29
-4.8697507e+29
-4.8795978e+29
-4.8587077e+29
-4.8680798e+29
-4.8545948e+29
-4.8639509e+29
-4.8833188e+29
-4.8733863e+29
-4.8776122e+29
-4.8875737e+29
-4.7763813e+29
-4.7797423e+29
-4.7852397e+29
-4.7888305e+29
-4.7924874e+29
-4.7961128e+29
-4.7833803e+29
-4.7869999e+29
-4.7483699e+29
-4.7340002e+29
-4.741483e+29
-4.7558339e+29
-4.7723793e+29
-4.7653375e+29
-4.762624e+29
-4.7658064e+29
-4.7713228e+29
-4.7747388e+29
-4.7783387e+29
-4.7820199e+29
-4.7693953e+29
-4.7730836e+29
-4.7348825e+29
-4.7208695e+29
-4.7273382e+29
-4.7415787e+29
-4.7586736e+29
-4.7518333e+29
-4.7933178e+29
-4.79715e+29
-4.8013755e+29
-4.805228e+29
-4.8136263e+29
-4.8181696e+29
-4.8220597e+29
-4.8097272e+29
-4.8007455e+29
-4.8043755e+29
-4.8125142e+29
-4.808797e+29
-4.8171756e+29
-4.8210044e+29
-4.8256894e+29
-4.8296044e+29
-4.7908864e+29
-4.7792837e+29
-4.7872066e+29
-4.7829432e+29
-4.7954439e+29
-4.8037766e+29
-4.8074404e+29
-4.799138e+29
-4.7981446e+29
-4.7864862e+29
-4.7943832e+29
-4.7901632e+29
-4.8025989e+29
-4.8109365e+29
-4.806447e+29
-4.814831e+29
-4.7068839e+29
-4.6929052e+29
-4.6990253e+29
-4.7131565e+29
-4.7133342e+29
-4.7057525e+29
-4.7198713e+29
-4.7272974e+29
-4.8099668e+29
-4.7977343e+29
-4.8060485e+29
-4.8015981e+29
-4.8145744e+29
-4.8233885e+29
-4.8273327e+29
-4.8185296e+29
-4.8091217e+29
-4.8176149e+29
-4.8052274e+29
-4.8136399e+29
-4.8221919e+29
-4.83105e+29
-4.8262299e+29
-4.8351065e+29
-4.7949688e+29
-4.7827473e+29
-4.7909384e+29
-4.7867686e+29
-4.7993307e+29
-4.8033639e+29
-4.808014e+29
-4.8120393e+29
-4.8026825e+29
-4.7904419e+29
-4.7986668e+29
-4.7944062e+29
-4.815791e+29
-4.8070544e+29
-4.811146e+29
-4.8199264e+29
-4.8300087e+29
-4.8168234e+29
-4.8258815e+29
-4.8209005e+29
-4.8351003e+29
-4.8392451e+29
-4.8446528e+29
-4.8488152e+29
-4.8288353e+29
-4.8379865e+29
-4.8246793e+29
-4.8338154e+29
-4.8526583e+29
-4.8430155e+29
-4.8472715e+29
-4.856941e+29
-4.8454987e+29
-4.8323022e+29
-4.8414729e+29
-4.8362655e+29
-4.8605127e+29
-4.8508219e+29
-4.8548745e+29
-4.8645914e+29
-4.8440891e+29
-4.8533259e+29
-4.8399995e+29
-4.8492586e+29
-4.8683929e+29
-4.858595e+29
-4.862733e+29
-4.8725394e+29
-4.6580348e+29
-4.6501432e+29
-4.6638633e+29
-4.6717131e+29
-4.6435349e+29
-4.6379025e+29
-4.6513633e+29
-4.6570938e+29
-4.6786919e+29
-4.6647648e+29
-4.6706647e+29
-4.6846018e+29
-4.6913775e+29
-4.6774062e+29
-4.6852076e+29
-4.699108e+29
-4.6333222e+29
-4.627193e+29
-4.6407219e+29
-4.6467785e+29
-4.6213188e+29
-4.6144218e+29
-4.62762e+29
-4.6347147e+29
-4.6478868e+29
-4.6406832e+29
-4.6540666e+29
-4.6612617e+29
-4.6674809e+29
-4.6539385e+29
-4.660068e+29
-4.673805e+29
-4.8995789e+29
-4.8855319e+29
-4.8955839e+29
-4.8894372e+29
-4.893213e+29
-4.8975044e+29
-4.9034076e+29
-4.9077182e+29
-4.9057034e+29
-4.9164475e+29
-4.909739e+29
-4.9205251e+29
-4.9179803e+29
-4.9244539e+29
-4.9289215e+29
-4.9135711e+29
-4.9272632e+29
-4.9314442e+29
-4.9431863e+29
-4.9389201e+29
-4.9506675e+29
-4.9634157e+29
-4.9677205e+29
-4.9549662e+29
-4.9516753e+29
-4.9354213e+29
-4.9472067e+29
-4.9399098e+29
-4.9589455e+29
-4.9634482e+29
-4.971748e+29
-4.9762218e+29
-4.9155252e+29
-4.9010739e+29
-4.9113115e+29
-4.905278e+29
-4.9216396e+29
-4.9326314e+29
-4.8945115e+29
-4.9058132e+29
-4.9102105e+29
-4.8988979e+29
-4.9074277e+29
-4.9028894e+29
-4.9141825e+29
-4.9187442e+29
-4.9336798e+29
-4.9171043e+29
-4.9292657e+29
-4.9214679e+29
-4.9301388e+29
-4.9425693e+29
-4.9254326e+29
-4.9378037e+29
-4.8701322e+29
-4.8742719e+29
-4.8800301e+29
-4.8842541e+29
-4.8942798e+29
-4.904887e+29
-4.8899968e+29
-4.9005643e+29
-4.8923235e+29
-4.8781259e+29
-4.8881522e+29
-4.8822982e+29
-4.8981718e+29
-4.9088639e+29
-4.9131302e+29
-4.9024058e+29
-4.8681335e+29
-4.8541265e+29
-4.863803e+29
-4.8583572e+29
-4.8735745e+29
-4.8839761e+29
-4.8883454e+29
-4.877935e+29
-4.8764249e+29
-4.862249e+29
-4.8720832e+29
-4.8665628e+29
-4.8818807e+29
-4.8923548e+29
-4.8863207e+29
-4.8968452e+29
-4.9111548e+29
-4.9225281e+29
-4.9270729e+29
-4.9155653e+29
-4.9196326e+29
-4.9311979e+29
-4.9239221e+29
-4.9355275e+29
-4.9512009e+29
-4.9340365e+29
-4.9465423e+29
-4.9386548e+29
-4.9472216e+29
-4.9427654e+29
-4.9554065e+29
-4.9599353e+29
-4.9588434e+29
-4.9722754e+29
-4.9635347e+29
-4.977093e+29
-4.9907335e+29
-5.0061845e+29
-4.9858269e+29
-5.001204e+29
-4.9724092e+29
-4.9677857e+29
-4.9814446e+29
-4.9860847e+29
-4.9998905e+29
-5.0157183e+29
-4.9951046e+29
-5.0107375e+29
-5.0163618e+29
-5.0338198e+29
-5.0214711e+29
-5.0390777e+29
-5.0568955e+29
-5.0718374e+29
-5.0771607e+29
-5.0515545e+29
-5.0261771e+29
-5.0439201e+29
-5.0312978e+29
-5.0490898e+29
-5.0670822e+29
-5.0875481e+29
-5.0617376e+29
-5.0821135e+29
-4.9412511e+29
-4.9457439e+29
-4.9542629e+29
-4.9589474e+29
-4.9722202e+29
-4.9873181e+29
-4.9674279e+29
-4.9824157e+29
-4.9499582e+29
-4.963305e+29
-4.9681973e+29
-4.9548169e+29
-4.9969736e+29
-4.9766174e+29
-4.9918696e+29
-4.981652e+29
-4.9973615e+29
-5.0023629e+29
-5.014525e+29
-5.019683e+29
-5.0372338e+29
-5.0572467e+29
-5.032051e+29
-5.0520748e+29
-5.0070285e+29
-5.0244354e+29
-5.0295492e+29
-5.0121501e+29
-5.0673733e+29
-5.0419376e+29
-5.0620322e+29
-5.0471872e+29
-5.0193279e+29
-5.003468e+29
-5.0078088e+29
-5.023472e+29
-4.9896272e+29
-4.9759283e+29
-4.9802537e+29
-4.9940045e+29
-4.9842997e+29
-4.9980796e+29
-4.9888003e+29
-3.9881693e+29
-4.1480615e+29
-4.1606925e+29
-4.3513182e+29
-4.264241e+29
-4.2668079e+29
-4.3563328e+29
-4.3650476e+29
-4.3785678e+29
-4.2740459e+29
-4.2872272e+29
-4.3896534e+29
-4.298084e+29
-4.4583632e+29
-4.4537107e+29
-4.4910763e+29
-4.4954857e+29
-4.4517799e+29
-4.4514926e+29
-4.4866802e+29
-4.4886519e+29
-4.5158066e+29
-4.5130448e+29
-4.5357221e+29
-4.5395483e+29
-4.5433177e+29
-4.5188385e+29
-4.5234364e+29
-4.5484979e+29
-4.5697915e+29
-4.5641842e+29
-4.581632e+29
-4.5877313e+29
-4.5597957e+29
-4.5551901e+29
-4.5711696e+29
-4.5767214e+29
-4.5920422e+29
-4.5858935e+29
-4.6002259e+29
-4.6067816e+29
-4.6124151e+29
-4.5973422e+29
-4.60359e+29
-4.6187004e+29
-4.6234892e+29
-4.608618e+29
-4.6141372e+29
-4.6288961e+29
-4.5927867e+29
-4.5747056e+29
-4.5805648e+29
-4.5983651e+29
-4.5945273e+29
-4.5869602e+29
-4.604609e+29
-4.6120226e+29
-4.6351924e+29
-4.6202617e+29
-4.627878e+29
-4.6430968e+29
-4.4845731e+29
-4.4752978e+29
-4.5126665e+29
-4.5212208e+29
-4.4680954e+29
-4.4623159e+29
-4.4996031e+29
-4.5060622e+29
-4.5531869e+29
-4.5279459e+29
-4.534169e+29
-4.5591608e+29
-4.5655934e+29
-4.5406503e+29
-4.5488526e+29
-4.573378e+29
-4.4940003e+29
-4.4897651e+29
-4.5265966e+29
-4.5326853e+29
-4.5791044e+29
-4.5543877e+29
-4.5610445e+29
-4.5859151e+29
-4.5929242e+29
-4.5677931e+29
-4.5762009e+29
-4.6011447e+29
-4.6493405e+29
-4.6340123e+29
-4.6405637e+29
-4.655711e+29
-4.6178502e+29
-4.600218e+29
-4.607004e+29
-4.6245853e+29
-4.6221592e+29
-4.6138783e+29
-4.6312956e+29
-4.6397717e+29
-4.6624219e+29
-4.6471488e+29
-4.65557e+29
-4.6707024e+29
-5.0512729e+29
-5.0567571e+29
-5.0617783e+29
-5.0673901e+29
-5.0313007e+29
-5.0362388e+29
-5.041002e+29
-5.0465737e+29
-5.0111938e+29
-5.0164958e+29
-5.0215177e+29
-5.0270228e+29
-4.9926308e+29
-4.9971779e+29
-5.0015924e+29
-5.0067511e+29
-4.9159292e+29
-4.9204224e+29
-4.9246754e+29
-4.9296095e+29
-4.9338698e+29
-4.9389183e+29
-4.9436981e+29
-4.9489946e+29
-4.9532809e+29
-4.9585482e+29
-4.9635243e+29
-4.9691566e+29
-4.9737775e+29
-4.9790227e+29
-4.9837836e+29
-4.9888226e+29
-4.7083749e+29
-4.8432897e+29
-4.8797805e+29
-4.7701605e+29
-4.9493145e+29
-4.9129973e+29
-4.6420086e+29
-4.843657e+29
-4.8124356e+29
-4.9018461e+29
-4.935854e+29
-4.8723508e+29
-4.9833791e+29
-4.9638255e+29
-4.9316538e+29
-4.9503947e+29
-4.9078993e+29
-5.0220453e+29
-5.0017377e+29
-4.967698e+29
-4.9872446e+29
-5.061142e+29
-5.0406658e+29
-4.9422911e+29
-5.0249414e+29
-5.0051075e+29
-5.100109e+29
-5.0800207e+29
-4.9782733e+29
-5.043168e+29
-5.0625044e+29
-5.0051969e+29
-4.9951252e+29
-5.0004023e+29
-5.0104173e+29
-5.0142779e+29
-5.0243597e+29
-4.9856036e+29
-4.9757684e+29
-4.9811278e+29
-4.9908977e+29
-4.9944363e+29
-5.0044533e+29
-5.0241913e+29
-5.0140722e+29
-5.019547e+29
-5.0296264e+29
-5.0340235e+29
-5.0442896e+29
-5.0446113e+29
-5.0341128e+29
-5.0395048e+29
-5.0499731e+29
-5.0543569e+29
-5.0647759e+29
-5.0392314e+29
-5.0337521e+29
-5.0329278e+29
-5.0383942e+29
-5.0493974e+29
-5.044292e+29
-5.0433738e+29
-5.0486704e+29
-5.064785e+29
-5.0699152e+29
-5.0638621e+29
-5.0692049e+29
-5.0596834e+29
-5.0541677e+29
-5.0533673e+29
-5.0588655e+29
-5.0350366e+29
-5.0295716e+29
-5.0233055e+29
-5.028754e+29
-4.9972705e+29
-5.0131727e+29
-5.0186581e+29
-5.002703e+29
-5.0453334e+29
-5.0399786e+29
-5.0337135e+29
-5.0391015e+29
-5.0289918e+29
-5.0237047e+29
-5.0076967e+29
-5.013045e+29
-5.0500668e+29
-5.0555336e+29
-5.0493278e+29
-5.0439143e+29
-5.0338881e+29
-5.0392945e+29
-5.0233199e+29
-5.0179441e+29
-5.0541732e+29
-5.0604402e+29
-5.0658239e+29
-5.0594816e+29
-5.0281364e+29
-5.0441626e+29
-5.049228e+29
-5.0331032e+29
-4.9991659e+29
-4.9938896e+29
-4.9929625e+29
-4.9982288e+29
-5.0091266e+29
-5.0041208e+29
-5.0030864e+29
-5.0082634e+29
-5.0191564e+29
-5.0138188e+29
-5.0128672e+29
-5.0181917e+29
-5.0241225e+29
-5.0230698e+29
-5.0290946e+29
-5.0282734e+29
-4.9948118e+29
-4.9895632e+29
-4.9885869e+29
-4.9834214e+29
-5.0048054e+29
-4.9995976e+29
-4.9984848e+29
-4.9933252e+29
-4.9834113e+29
-4.9676898e+29
-4.9726738e+29
-4.9884148e+29
-4.9786601e+29
-4.9735478e+29
-4.9581142e+29
-4.9630631e+29
-4.9931227e+29
-4.9983637e+29
-4.9825673e+29
-4.9773541e+29
-4.9873432e+29
-5.0031744e+29
-5.0083211e+29
-4.9924483e+29
-5.014732e+29
-5.0094213e+29
-5.0083975e+29
-5.0031313e+29
-5.0248333e+29
-5.0195478e+29
-5.0184915e+29
-5.0131965e+29
-5.084765e+29
-5.0741472e+29
-5.0904286e+29
-5.0799287e+29
-5.0955131e+29
-5.1059177e+29
-5.064184e+29
-5.0537666e+29
-5.0699299e+29
-5.0595528e+29
-5.0747602e+29
-5.0853065e+29
-5.1039463e+29
-5.0938008e+29
-5.1099191e+29
-5.0997521e+29
-5.1260975e+29
-5.1157384e+29
-5.1241213e+29
-5.113731e+29
-5.1197089e+29
-5.1464253e+29
-5.1361389e+29
-5.1300055e+29
-5.1365912e+29
-5.1421134e+29
-5.1414875e+29
-5.1359844e+29
-5.1464465e+29
-5.1471559e+29
-5.1522606e+29
-5.1517876e+29
-5.1226151e+29
-5.1279237e+29
-5.1214374e+29
-5.1161133e+29
-5.1057179e+29
-5.1122283e+29
-5.1177165e+29
-5.111178e+29
-5.0780338e+29
-5.0950707e+29
-5.1004841e+29
-5.0833499e+29
-5.0883416e+29
-5.1055376e+29
-5.1107912e+29
-5.0936698e+29
-5.1326939e+29
-5.1381969e+29
-5.1317318e+29
-5.126264e+29
-5.0986717e+29
-5.1157139e+29
-5.1212184e+29
-5.1042128e+29
-5.1092452e+29
-5.1262173e+29
-5.1314864e+29
-5.114543e+29
-5.143106e+29
-5.1485258e+29
-5.1420741e+29
-5.136651e+29
-5.1154815e+29
-5.1160846e+29
-5.1216173e+29
-5.1209961e+29
-5.12597e+29
-5.1267141e+29