/*--------------------------------*- C++ -*----------------------------------*\
  =========                 |
  \\      /  F ield         | OpenFOAM: The Open Source CFD Toolbox
   \\    /   O peration     | Website:  https://openfoam.org
    \\  /    A nd           | Version:  7
     \\/     M anipulation  |
\*---------------------------------------------------------------------------*/
FoamFile
{
    version     2.0;
    format      ascii;
    class       volVectorField;
    location    "2000";
    object      U;
}
// * * * * * * * * * * * * * * * * * * * * * * * * * * * * * * * * * * * * * //

dimensions      [0 1 -1 0 0 0 0];

internalField   nonuniform List<vector> 
33730
(
(-1.3183558e+14 -5.4295815e+12 1.0458765e+13)
(-1.226928e+14 9.5566864e+12 2.4543531e+12)
(-1.3023593e+14 -1.855654e+13 -1.5858545e+10)
(-1.0299873e+14 -5.956999e+12 1.44778e+13)
(-1.0789514e+14 8.7314094e+12 1.8223166e+13)
(-9.2574928e+13 -9.3466477e+12 1.2268959e+13)
(-1.1862992e+14 1.0777126e+13 1.8982073e+13)
(-1.1638813e+14 -1.7633854e+13 1.4899978e+13)
(-1.2426148e+14 9.430937e+12 1.7815054e+13)
(-1.2066974e+14 7.6927066e+12 -1.0080838e+13)
(-1.2212922e+14 1.4087717e+13 8.2599599e+12)
(-1.2216048e+14 8.1521211e+12 4.92797e+12)
(-1.0682403e+14 6.7639048e+12 7.7257039e+12)
(-1.2556523e+14 4.955982e+12 4.089815e+12)
(-1.1832693e+14 -1.4612998e+13 -1.5084736e+13)
(-1.0640632e+14 -2.2901634e+12 -1.1763456e+13)
(-9.69615e+13 -1.8973106e+13 5.1442675e+12)
(-8.1181836e+13 -1.4747902e+12 1.1852854e+12)
(-9.7345438e+13 1.3224369e+12 -7.9255869e+12)
(-8.2719132e+13 -3.4737002e+12 -1.3059642e+13)
(-6.4342961e+13 -4.6733795e+12 3.5272167e+12)
(-8.6508006e+13 -5.215233e+12 1.2500619e+13)
(-9.3153858e+13 -1.0729072e+13 1.1877474e+13)
(-1.097626e+14 5.3886914e+12 1.6693616e+13)
(-1.0589843e+14 6.0062177e+12 1.7162873e+13)
(-7.1506586e+13 -3.7940823e+12 1.0498305e+13)
(-7.5814018e+13 -7.0248348e+12 1.1347672e+13)
(-9.0683132e+13 5.0309168e+12 1.5479574e+13)
(-8.8599748e+13 4.0898227e+12 1.4711042e+13)
(-9.4107199e+13 -1.1833798e+13 1.3558424e+13)
(-8.653788e+13 -7.3019386e+12 1.3086658e+13)
(-1.0951458e+14 4.5977053e+12 1.8847219e+13)
(-1.0531934e+14 4.8318531e+12 1.8048084e+13)
(-1.2818613e+14 5.3202256e+12 9.3381002e+12)
(-1.2349055e+14 5.0697977e+12 -9.5294584e+12)
(-1.1917505e+14 8.2950219e+12 -9.5627256e+12)
(-1.2453028e+14 1.0074719e+13 7.8423439e+12)
(-1.044921e+14 3.0588245e+12 -8.2677486e+12)
(-1.0964644e+14 2.1997429e+12 2.3398486e+12)
(-1.0357052e+14 3.7030433e+12 -9.2669779e+12)
(-1.0792168e+14 6.6139224e+12 2.3216916e+12)
(-1.1637852e+14 1.3056234e+13 3.6754416e+12)
(-1.0671392e+14 4.5406165e+12 -3.3400519e+12)
(-1.0797015e+14 4.3894908e+12 -3.4476461e+12)
(-1.0894599e+14 9.8548059e+12 8.8966421e+12)
(-1.1003341e+14 1.0023456e+13 -6.3199429e+12)
(-1.0575532e+14 1.3394687e+13 -5.1840377e+12)
(-1.0576373e+14 4.9112619e+12 7.2359117e+12)
(-1.0895145e+14 3.2551976e+12 7.6426454e+12)
(-8.9380261e+13 4.2834604e+12 9.2257683e+12)
(-8.8074662e+13 3.0672571e+12 8.1935204e+12)
(-1.0905348e+14 2.8893122e+12 9.4226342e+12)
(-1.0632056e+14 3.1899834e+12 8.1708431e+12)
(-1.0128775e+14 4.0911081e+12 -1.488665e+13)
(-1.0463656e+14 3.9860553e+12 -1.4995501e+13)
(-9.8830739e+13 -1.7688634e+12 -9.8224118e+12)
(-9.3670892e+13 2.5329124e+12 -9.4215179e+12)
(-1.0399237e+14 5.5200323e+12 -1.4505949e+13)
(-9.8416274e+13 -1.0326709e+10 -8.3505001e+12)
(-9.2804987e+13 4.6630565e+12 -8.3805485e+12)
(-1.0061624e+14 5.949714e+12 -1.4336249e+13)
(-8.4775786e+13 -7.5437312e+12 -1.4169118e+13)
(-7.7987246e+13 -1.6735622e+12 -1.2199803e+13)
(-5.7426162e+13 -1.048392e+12 1.6754786e+11)
(-6.7676777e+13 -1.1019559e+13 3.222513e+12)
(-8.35516e+13 -5.1286496e+12 -1.3510014e+13)
(-7.6860194e+13 1.1335376e+12 -1.1674591e+13)
(-5.5290017e+13 3.5018467e+12 9.4326354e+10)
(-6.5619429e+13 -6.9465076e+12 3.1183853e+12)
(-1.0151667e+14 2.3912056e+12 -1.2551273e+13)
(-7.9283546e+13 5.5044006e+12 -1.5463436e+13)
(-7.7416732e+13 5.1772173e+12 -1.5299991e+13)
(-6.3900819e+13 2.9558081e+12 -1.1353026e+13)
(-6.7000196e+13 4.8994223e+11 -1.1504206e+13)
(-5.0806602e+13 -6.6108107e+11 -1.0231222e+13)
(-4.6727315e+13 3.0508897e+12 -9.1793589e+12)
(-4.5160427e+13 -3.5330227e+12 5.4607636e+12)
(-3.8307993e+13 3.959371e+12 2.6930428e+12)
(-9.1867387e+13 2.9207945e+12 1.4089961e+13)
(-7.5915883e+13 -7.3413969e+12 1.0529793e+13)
(-7.211204e+13 -3.9569846e+12 1.0882842e+13)
(-8.902464e+13 3.6558548e+12 1.395915e+13)
(-7.6262444e+13 -7.6324043e+12 1.1090604e+13)
(-7.2242216e+13 -4.6282649e+12 1.0927368e+13)
(-9.1792927e+13 3.0751734e+12 1.5118561e+13)
(-8.9904891e+13 2.4875337e+12 1.4814703e+13)
(-6.3304985e+13 -4.5151185e+12 9.7401224e+12)
(-6.0870435e+13 -2.1103832e+12 9.7831938e+12)
(-7.5587701e+13 1.7811486e+12 1.1920414e+13)
(-7.4249087e+13 2.0903066e+12 1.174603e+13)
(-6.3612565e+13 -4.746946e+12 1.0757269e+13)
(-6.1526197e+13 -2.732692e+12 1.0457907e+13)
(-7.5518366e+13 2.5593696e+12 1.3467757e+13)
(-7.4587953e+13 1.8375614e+12 1.3088318e+13)
(-7.6849728e+13 -7.5720895e+12 1.1666017e+13)
(-7.3304148e+13 -5.5811501e+12 1.1722865e+13)
(-9.22276e+13 2.4464097e+12 1.5881819e+13)
(-9.0574663e+13 1.2293705e+12 1.5790717e+13)
(-7.6104475e+13 -7.9692437e+12 1.063683e+13)
(-9.1248687e+13 2.471722e+12 1.3588973e+13)
(-7.2166188e+13 -4.8217244e+12 1.0755203e+13)
(-8.8835784e+13 2.7275212e+12 1.3547195e+13)
(-8.6459817e+13 1.2491679e+12 -5.6155573e+12)
(-8.8319529e+13 3.1777389e+12 -2.9296552e+11)
(-1.0440052e+14 6.5711358e+12 -3.6140611e+12)
(-1.0142456e+14 3.6874229e+12 -1.3097473e+13)
(-1.1113727e+14 6.6232207e+12 8.0292839e+12)
(-1.1133383e+14 4.2452571e+12 8.4002028e+12)
(-1.0649383e+14 4.9559203e+12 -4.7299434e+12)
(-1.0911993e+14 1.5511712e+12 -3.6608691e+12)
(-1.0864349e+14 4.1413242e+12 2.2018873e+12)
(-1.0536189e+14 1.3272703e+12 -7.4031192e+12)
(-1.0325829e+14 2.0301331e+12 -8.2021637e+12)
(-1.0960377e+14 2.7797515e+11 2.3529481e+12)
(-1.0867484e+14 4.4377695e+12 4.791751e+11)
(-1.0580485e+14 1.3637725e+12 -8.9603789e+12)
(-1.0400658e+14 3.5834905e+12 -9.3542164e+12)
(-1.2224134e+14 5.8697387e+12 3.8845987e+12)
(-1.0949108e+14 2.2322397e+12 8.7863651e+11)
(-1.0887567e+14 1.2154282e+13 -6.2210483e+12)
(-1.1067623e+14 6.1915035e+12 9.254745e+12)
(-1.0898549e+14 1.0191287e+12 -2.0001048e+12)
(-1.0670736e+14 2.4551256e+12 -3.1563795e+12)
(-1.1140039e+14 2.4264558e+12 9.2885481e+12)
(-8.6005407e+13 1.2899322e+12 -5.9316543e+12)
(-8.6528112e+13 1.2247208e+12 -5.3133387e+12)
(-8.865204e+13 2.9955387e+12 -2.3595419e+11)
(-1.0567003e+14 6.1028369e+12 -2.8768646e+12)
(-8.9439369e+13 4.3491616e+11 -3.4493538e+11)
(-8.5451247e+13 3.0071229e+12 -6.0090166e+12)
(-8.654045e+13 1.291516e+12 -5.6521298e+12)
(-8.8480411e+13 2.4559204e+12 -4.3335632e+11)
(-8.8213425e+13 3.7785294e+12 -5.491455e+11)
(-8.5908911e+13 2.1039056e+12 -6.8388472e+12)
(-8.6899681e+13 5.2071191e+11 -6.4051474e+12)
(-8.9162511e+13 1.1641379e+12 -1.382191e+12)
(-8.8819607e+13 2.3130202e+12 -1.5165248e+12)
(-1.0852298e+14 1.5278314e+12 -2.272928e+12)
(-8.5730027e+13 2.1844445e+12 -5.1204477e+12)
(-8.6378241e+13 1.9732925e+12 -4.5692782e+12)
(-8.7903543e+13 4.6539551e+12 3.1933449e+11)
(-8.868163e+13 2.0684089e+12 1.5049842e+11)
(-1.0232735e+14 3.73409e+12 -1.3157734e+13)
(-1.0312402e+14 3.5336817e+12 -1.2521901e+13)
(-8.7268005e+13 2.3763434e+12 -3.8738295e+12)
(-9.0232089e+13 4.6176801e+12 2.5076753e+12)
(-8.611422e+13 3.7561575e+12 -4.1898763e+12)
(-8.983239e+13 5.5572591e+12 3.806622e+12)
(-8.6266712e+13 3.0374224e+12 -3.5850628e+12)
(-8.6915341e+13 3.1598587e+12 -2.9261217e+12)
(-9.0721564e+13 2.3623203e+12 3.5861476e+12)
(-8.8928333e+13 3.1624704e+12 6.1271841e+11)
(-9.2781273e+13 2.9409484e+12 1.0116761e+13)
(-8.9861931e+13 3.2430926e+12 1.3899219e+12)
(-9.1923748e+13 6.7638935e+12 1.0229721e+13)
(-8.9983834e+13 2.7215304e+12 7.2953506e+10)
(-9.228907e+13 1.9404597e+13 -1.5117784e+13)
(-1.1477908e+14 1.3669558e+13 6.666943e+12)
(-9.8606591e+13 7.9948844e+12 -7.0558546e+12)
(-1.0749199e+14 7.2850929e+12 -5.9889803e+11)
(-1.0901851e+14 2.4363065e+12 -4.1548389e+11)
(-9.6374399e+13 9.0948134e+12 -7.4239364e+12)
(-9.625893e+13 8.1948923e+12 -6.9634952e+12)
(-1.0569439e+14 6.7910859e+12 -1.3022047e+12)
(-8.837012e+13 3.2932958e+12 7.7717917e+12)
(-9.0471109e+13 2.1222399e+12 8.3700419e+12)
(-8.9379509e+13 1.8539178e+12 8.3145855e+12)
(-9.0298168e+13 2.3603565e+12 9.0477649e+12)
(-7.4373009e+13 2.2303143e+12 9.0995846e+12)
(-7.3848308e+13 1.0259485e+12 8.3914302e+12)
(-7.4184183e+13 1.4518986e+12 7.6700931e+12)
(-7.3319136e+13 1.5367886e+12 7.3521127e+12)
(-9.0709314e+13 2.027332e+12 9.9930682e+12)
(-8.9937114e+13 4.491982e+11 9.509858e+12)
(-8.985389e+13 1.6546663e+12 8.1640242e+12)
(-8.8435025e+13 1.8830856e+12 7.9765707e+12)
(-1.2441232e+14 6.3105489e+10 -8.7181368e+12)
(-1.2291561e+14 2.6788184e+12 -7.5796865e+12)
(-1.0372597e+14 2.8859122e+12 -5.1905096e+12)
(-1.0572048e+14 1.7304495e+12 -5.660813e+12)
(-1.0250068e+14 -9.9347892e+11 -1.3945143e+13)
(-1.0229267e+14 -2.6056697e+11 -1.2515256e+13)
(-1.0510973e+14 3.3070828e+12 -4.5462001e+12)
(-1.0209925e+14 9.0930978e+11 -1.2836711e+13)
(-1.0156762e+14 1.4967559e+12 -1.171201e+13)
(-1.0271292e+14 4.7919213e+12 -3.9851294e+12)
(-8.0991149e+13 3.2463362e+12 -1.6407161e+13)
(-7.9037388e+13 2.922674e+12 -1.6366916e+13)
(-6.5141637e+13 1.0440025e+12 -1.3115883e+13)
(-6.8177372e+13 -9.4126081e+11 -1.3230082e+13)
(-6.7857861e+13 -5.8763774e+11 -1.248286e+13)
(-8.041768e+13 3.6851674e+12 -1.5724056e+13)
(-7.8526219e+13 3.9240663e+12 -1.5713079e+13)
(-6.4814189e+13 1.889919e+12 -1.2480537e+13)
(-5.1521676e+13 -1.7151312e+12 -1.1097071e+13)
(-4.7532825e+13 1.7014088e+12 -1.0128056e+13)
(-4.5491398e+13 -4.5013661e+12 4.4437765e+12)
(-3.9078394e+13 2.4838777e+12 1.7450779e+12)
(-5.1768456e+13 -2.3426761e+12 -1.1397602e+13)
(-4.7814496e+13 8.026311e+11 -1.0305591e+13)
(-4.6417667e+13 -5.2139839e+12 4.2401031e+12)
(-3.9950777e+13 1.1577554e+12 2.0831424e+12)
(-8.0270873e+13 4.5422023e+12 -1.5712319e+13)
(-7.8287375e+13 4.2159556e+12 -1.5532857e+13)
(-6.4351061e+13 2.1437163e+12 -1.2044943e+13)
(-6.7605904e+13 -4.1691441e+10 -1.2234193e+13)
(-7.7553131e+13 5.1228117e+12 -1.5128347e+13)
(-7.9635614e+13 4.7122919e+12 -1.5165759e+13)
(-6.7403529e+13 5.9880233e+10 -1.1558672e+13)
(-6.4181026e+13 2.8843367e+12 -1.1608105e+13)
(-4.7042408e+13 2.5964554e+12 -9.53859e+12)
(-4.5429732e+13 -3.6977503e+12 5.2004975e+12)
(-3.9075296e+13 3.4021049e+12 2.5967809e+12)
(-5.1030546e+13 -8.7576476e+11 -1.0465867e+13)
(-5.1022553e+13 -1.0203333e+12 -1.0763006e+13)
(-4.688845e+13 2.2847331e+12 -9.589025e+12)
(-4.501921e+13 -3.6942366e+12 4.3620142e+12)
(-3.8635406e+13 3.0887814e+12 2.2073989e+12)
(-1.0459178e+14 2.3531725e+12 -1.0716178e+13)
(-7.9558609e+13 3.9759167e+12 -1.0454598e+13)
(-8.0752649e+13 3.9744831e+12 -1.0679243e+13)
(-7.1010708e+13 -1.5844831e+12 -1.5143862e+13)
(-7.0758074e+13 -1.4401188e+12 -1.6071824e+13)
(-4.7113567e+13 4.676281e+12 -1.3815104e+13)
(-4.5708265e+13 4.6067959e+12 -1.4171686e+13)
(-3.8372921e+13 9.4540054e+10 -9.5986726e+12)
(-3.5834799e+13 2.1569414e+12 -9.7603919e+12)
(-4.7133763e+13 4.4361759e+12 -1.3322862e+13)
(-4.5666167e+13 4.830832e+12 -1.3992003e+13)
(-3.8623883e+13 -1.5863047e+11 -8.9902154e+12)
(-3.6083016e+13 2.5657762e+12 -9.6627685e+12)
(-2.847961e+13 -7.6682876e+10 -2.83664e+12)
(-3.9749845e+13 -4.1296872e+12 9.254186e+12)
(-2.5304397e+13 2.1362495e+12 -2.1770635e+12)
(-3.5998397e+13 8.1182434e+11 7.4916422e+12)
(-2.8925278e+13 -2.2367133e+11 -2.2335506e+12)
(-2.5191644e+13 2.8075058e+12 -2.9048008e+12)
(-3.9050002e+13 -3.4748724e+12 8.9956555e+12)
(-3.4998868e+13 1.6743488e+12 6.670695e+12)
(-7.6328927e+13 1.5184757e+12 1.3024879e+13)
(-6.3906592e+13 -4.7386629e+12 1.0385357e+13)
(-6.1642417e+13 -2.6502265e+12 1.0315765e+13)
(-7.5271827e+13 1.179236e+12 1.2806413e+13)
(-6.355864e+13 -4.6465788e+12 9.9006843e+12)
(-6.1735071e+13 -2.6017676e+12 1.0366009e+13)
(-7.5805556e+13 1.7387074e+12 1.2054304e+13)
(-7.4473036e+13 2.0441595e+12 1.2039426e+13)
(-6.3866183e+13 -4.9385442e+12 1.0295994e+13)
(-6.1962354e+13 -3.0156635e+12 1.0231356e+13)
(-7.6023697e+13 1.5677496e+12 1.2985567e+13)
(-7.5249717e+13 1.0749613e+12 1.2786247e+13)
(-6.1600992e+13 -2.6302622e+12 9.9345145e+12)
(-6.3645664e+13 -4.7252301e+12 9.6344661e+12)
(-7.63317e+13 1.1602879e+12 1.1923901e+13)
(-7.4968613e+13 1.3954223e+12 1.1804776e+13)
(-5.0111186e+13 2.6872483e+09 1.0965875e+13)
(-5.1398016e+13 -1.7372111e+12 1.1147639e+13)
(-6.474938e+13 2.2650798e+11 1.1789572e+13)
(-6.4081658e+13 5.3024311e+11 1.1085729e+13)
(-5.0013667e+13 4.7467865e+11 1.0833534e+13)
(-5.0832249e+13 -1.2634672e+12 1.039068e+13)
(-6.4354136e+13 5.8329774e+11 1.080424e+13)
(-6.370335e+13 8.4796848e+11 1.0532678e+13)
(-5.0610058e+13 -4.4914405e+11 1.1376755e+13)
(-5.1774149e+13 -1.7892408e+12 1.1490109e+13)
(-6.458072e+13 8.9854479e+11 1.2101654e+13)
(-6.4132525e+13 4.2630554e+11 1.1803412e+13)
(-6.4834503e+13 3.2615343e+11 1.1271497e+13)
(-5.1499493e+13 -1.606399e+12 1.0741398e+13)
(-5.0864274e+13 3.5306779e+10 1.1157396e+13)
(-6.4422592e+13 1.5474211e+11 1.1366799e+13)
(-6.4443267e+13 -4.7952224e+12 1.0577162e+13)
(-6.2638021e+13 -3.3307342e+12 1.0478359e+13)
(-7.671797e+13 1.123443e+12 1.3202206e+13)
(-7.5951781e+13 4.081859e+11 1.3113141e+13)
(-7.6889666e+13 4.227665e+11 1.2228433e+13)
(-6.4193182e+13 -4.9842525e+12 9.867736e+12)
(-6.230139e+13 -3.2861829e+12 1.0261613e+13)
(-7.5615671e+13 4.176165e+11 1.2239975e+13)
(-6.3952524e+13 -5.2844224e+12 1.0166623e+13)
(-6.1704678e+13 -3.2757922e+12 9.969977e+12)
(-7.609075e+13 1.012809e+12 1.2542055e+13)
(-7.4961906e+13 7.8434208e+11 1.2273731e+13)
(-7.5570372e+13 1.0433541e+12 1.1490147e+13)
(-6.3344444e+13 -4.9615461e+12 9.4523304e+12)
(-6.1547699e+13 -2.965856e+12 9.8925518e+12)
(-7.4183662e+13 1.3488307e+12 1.1466652e+13)
(-8.8645002e+13 7.9577299e+11 -2.4505529e+12)
(-7.2901227e+13 2.0160342e+12 -2.9135729e+11)
(-7.3152674e+13 8.5757381e+11 -7.717924e+11)
(-8.890134e+13 2.3688261e+12 -1.5775151e+12)
(-7.2020747e+13 2.0575302e+12 -4.9403113e+12)
(-7.2471388e+13 1.5642341e+12 -3.8987633e+12)
(-7.0108447e+13 1.3372507e+12 -2.7972688e+12)
(-7.1090901e+13 2.6513134e+12 -6.0211387e+11)
(-6.97181e+13 1.605819e+12 -3.3687825e+12)
(-8.7582095e+13 -2.5133757e+10 -6.4370498e+12)
(-8.5945262e+13 1.8338266e+12 -9.157584e+12)
(-9.0949568e+13 1.0863242e+12 -1.7400887e+12)
(-8.836863e+13 -5.7802363e+11 -9.8688781e+12)
(-8.7745561e+13 9.7017152e+11 -1.1257986e+13)
(-9.0957298e+13 -1.731697e+11 -3.7656283e+12)
(-8.9864454e+13 2.0926374e+12 6.6161494e+11)
(-9.10681e+13 1.080345e+12 1.4244523e+12)
(-9.3463818e+13 4.2364541e+12 1.0069224e+13)
(-9.3970273e+13 1.3578545e+12 9.9527287e+12)
(-9.3005262e+13 4.7270091e+12 8.959241e+12)
(-8.8988835e+13 3.6214983e+12 2.3364925e+10)
(-9.0501232e+13 1.4325714e+12 6.8038804e+11)
(-9.2748204e+13 2.7953243e+12 9.2030972e+12)
(-9.0302331e+13 3.8519422e+12 2.2984931e+12)
(-8.7410547e+13 1.9104788e+12 -4.0382052e+12)
(-8.6171663e+13 3.6619919e+12 -4.3044074e+12)
(-9.0561627e+13 2.6112843e+12 2.4865425e+12)
(-9.1384365e+13 3.0902044e+12 3.8019766e+12)
(-8.6908452e+13 1.8902427e+12 -3.5045131e+12)
(-8.7857167e+13 1.0925124e+12 -2.7364271e+12)
(-9.1757262e+13 8.3740883e+11 3.5928548e+12)
(-8.8699515e+13 2.1207397e+12 8.9756107e+11)
(-8.5701839e+13 2.3373261e+11 -4.2266054e+12)
(-8.6382197e+13 1.5364546e+11 -3.5826766e+12)
(-8.9122997e+13 -3.1574866e+11 7.8027037e+11)
(-8.9074061e+13 -8.3620705e+11 -2.2492552e+11)
(-8.5830888e+13 8.931541e+10 -5.1552483e+12)
(-8.4927021e+13 8.6503958e+11 -6.3245856e+12)
(-8.5556502e+13 -6.2592701e+11 -6.1093568e+12)
(-8.7713214e+13 7.3543299e+11 -1.6120469e+12)
(-1.0756868e+14 9.3146516e+11 -2.8197578e+12)
(-8.8326501e+13 -2.0921071e+11 -1.2907271e+12)
(-8.4899282e+13 1.3099722e+12 -5.4266314e+12)
(-8.7349458e+13 2.1076805e+12 -1.1113566e+12)
(-8.5451489e+13 -3.1819574e+11 -5.4560559e+12)
(-8.7926416e+13 1.1812551e+12 -7.8729076e+11)
(-1.0175713e+14 3.2367188e+12 -1.3295547e+13)
(-8.8844352e+13 2.6058212e+12 2.9608579e+11)
(-8.6187462e+13 1.143885e+12 -5.0473627e+12)
(-8.6878669e+13 4.3866368e+11 -4.4401313e+12)
(-8.9422395e+13 5.7619538e+11 1.5218125e+11)
(-8.9669481e+13 -2.0279687e+11 -8.575977e+11)
(-8.8951439e+13 1.7464639e+12 -6.4174253e+11)
(-8.6927134e+13 1.8992202e+11 -5.5388522e+12)
(-8.6433846e+13 7.5353153e+11 -6.1398748e+12)
(-1.0764842e+14 4.3803114e+12 -3.7925059e+12)
(-8.6070302e+13 1.9159712e+12 -6.5113465e+12)
(-8.7072716e+13 1.6445549e+11 -6.2014668e+12)
(-8.8814384e+13 1.8378448e+12 -1.6909913e+12)
(-1.0850837e+14 1.7380197e+12 -3.3093782e+12)
(-8.920632e+13 1.0316637e+12 -1.4059449e+12)
(-1.0403904e+14 1.9714157e+12 -1.3448213e+13)
(-1.0368226e+14 4.0777082e+12 -1.373828e+13)
(-8.5805846e+13 2.7630858e+12 -5.7569859e+12)
(-8.8375353e+13 2.6972213e+12 -1.0563148e+12)
(-8.6695723e+13 8.4188934e+11 -5.5656891e+12)
(-8.7995059e+13 3.5247592e+12 -1.3258106e+12)
(-9.4589458e+13 1.7879278e+13 -1.4499427e+13)
(-9.7417745e+13 1.4133912e+13 -1.2893144e+13)
(-1.1984876e+14 9.286895e+12 6.9538425e+12)
(-9.7389996e+13 8.4240121e+12 -8.2281144e+12)
(-1.089834e+14 1.4813642e+12 -1.6941046e+12)
(-1.0785533e+14 6.3215547e+12 -2.4701611e+12)
(-9.7984757e+13 7.6942381e+12 -8.2011909e+12)
(-1.0918741e+14 2.60609e+12 -1.7745565e+12)
(-9.6978387e+13 9.6879433e+12 -8.1571735e+12)
(-8.9988959e+13 7.3575682e+11 1.6775327e+12)
(-9.0753729e+13 1.2617465e+12 2.0232394e+12)
(-9.3159324e+13 4.2544746e+12 1.0479995e+13)
(-9.3955657e+13 2.2561758e+11 1.0685179e+13)
(-8.7817363e+13 6.8586143e+11 -1.9707387e+12)
(-9.1446225e+13 2.2131914e+11 3.912891e+12)
(-9.0887661e+13 3.0343992e+12 4.0378318e+12)
(-8.6950654e+13 6.7920556e+11 -2.5687872e+12)
(-8.5924072e+13 2.0216939e+12 -3.8015459e+12)
(-8.6852029e+13 3.7743848e+11 -3.5975639e+12)
(-8.9889946e+13 2.5417069e+12 2.2625625e+12)
(-9.0443215e+13 1.2601294e+12 2.5390939e+12)
(-8.899447e+13 1.951168e+12 4.0950009e+11)
(-9.2525504e+13 1.9054392e+12 8.8670633e+12)
(-8.9860007e+13 7.8828507e+11 4.5252124e+11)
(-9.2093378e+13 4.0945227e+12 8.5071184e+12)
(-7.3158977e+13 1.0392517e+12 -1.0941805e+12)
(-7.3224249e+13 7.8223865e+11 -1.4809482e+12)
(-8.956938e+13 3.4237411e+11 -2.0960655e+12)
(-7.1913426e+13 2.0540596e+12 -5.5036489e+12)
(-7.2453862e+13 7.6683922e+11 -4.5277307e+12)
(-7.2873876e+13 1.7578891e+12 -5.7446489e+11)
(-7.3314017e+13 4.8277152e+11 -7.3888291e+11)
(-8.8810087e+13 2.5294027e+12 -1.8306022e+12)
(-7.2021658e+13 1.7087714e+12 -4.838985e+12)
(-7.223009e+13 1.6443172e+12 -4.3712014e+12)
(-7.0077599e+13 9.452993e+11 -2.8898908e+12)
(-7.1231491e+13 2.2188057e+12 -8.4560449e+11)
(-6.9791579e+13 1.1003901e+12 -3.2618056e+12)
(-7.1695452e+13 8.6626122e+11 -9.9857743e+11)
(-8.6836715e+13 1.185065e+12 -8.6408769e+12)
(-8.7416445e+13 4.219864e+11 -7.693694e+12)
(-7.031142e+13 3.496735e+11 -3.3884076e+12)
(-7.1363883e+13 1.7300194e+12 -1.5232327e+12)
(-6.9782822e+13 1.3439992e+12 -3.7803838e+12)
(-7.1531954e+13 1.1972143e+12 -1.6912933e+12)
(-6.9542203e+13 1.1395892e+12 -4.0890871e+12)
(-6.8873325e+13 2.3877015e+12 -4.4731417e+12)
(-7.0821788e+13 1.9415621e+12 -1.4208969e+12)
(-7.0906746e+13 1.634184e+12 -1.5506892e+12)
(-6.9573857e+13 1.0654277e+12 -3.6459537e+12)
(-7.1028147e+13 1.8856885e+12 -7.4941922e+11)
(-6.9403957e+13 1.5922317e+12 -4.1083402e+12)
(-7.1507054e+13 8.7303533e+11 -9.920297e+11)
(-6.9343127e+13 1.1168621e+12 -3.9793471e+12)
(-7.081398e+13 2.7341812e+12 -1.1101594e+12)
(-6.8695767e+13 2.413027e+12 -4.3595145e+12)
(-6.9339324e+13 1.0543543e+12 -3.6193523e+12)
(-7.0961151e+13 2.5539701e+12 -5.3129601e+11)
(-6.9122732e+13 1.7001894e+12 -4.0470496e+12)
(-7.147086e+13 1.4111488e+12 -7.5283181e+11)
(-7.3061353e+13 1.3648601e+12 -1.4199594e+12)
(-7.2947396e+13 1.3865171e+12 -1.7651609e+12)
(-8.9571101e+13 1.1035349e+12 -3.2095438e+12)
(-7.1720277e+13 2.6322356e+12 -5.7966321e+12)
(-7.2491835e+13 9.9842516e+11 -4.8362519e+12)
(-7.3239975e+13 1.3385294e+12 -8.6674379e+11)
(-7.3590994e+13 6.0293688e+11 -1.2629705e+12)
(-8.9407983e+13 1.9952554e+12 -3.1274551e+12)
(-7.2341966e+13 1.8512405e+12 -5.3868974e+12)
(-7.265305e+13 1.0177048e+12 -4.4718806e+12)
(-7.0290011e+13 6.7699217e+11 -3.682573e+12)
(-7.1138776e+13 2.1411358e+12 -1.828591e+12)
(-6.9581261e+13 2.0179851e+12 -4.0704278e+12)
(-7.1201755e+13 1.8758895e+12 -1.9604604e+12)
(-7.0348013e+13 6.5225812e+11 -3.3259976e+12)
(-7.1362701e+13 1.900106e+12 -1.2602354e+12)
(-7.0085486e+13 1.3294466e+12 -3.7623268e+12)
(-7.1841085e+13 1.0204749e+12 -1.4850769e+12)
(-8.819176e+13 -4.3402911e+11 -8.3384433e+12)
(-8.697866e+13 1.7892043e+12 -9.2783313e+12)
(-6.9666392e+13 7.6556955e+11 -3.7724691e+12)
(-7.0982149e+13 1.7335001e+12 -1.2855615e+12)
(-6.9118178e+13 1.6857563e+12 -4.1666191e+12)
(-7.1144329e+13 1.1830869e+12 -1.4309954e+12)
(-6.9425195e+13 1.3748008e+12 -3.2451546e+12)
(-7.0789802e+13 2.3934737e+12 -5.2754924e+11)
(-6.9230456e+13 1.3509232e+12 -3.6474344e+12)
(-7.1278504e+13 8.9833814e+11 -7.0609818e+11)
(-6.9123498e+13 1.4406293e+12 -3.2056801e+12)
(-7.0733409e+13 2.9842632e+12 -1.1761445e+11)
(-6.8862347e+13 1.5291083e+12 -3.6307762e+12)
(-7.1220795e+13 1.3249273e+12 -3.3087004e+11)
(-6.93597e+13 8.028378e+11 -3.7824847e+12)
(-7.0899747e+13 2.3898411e+12 -9.3793221e+11)
(-6.8791628e+13 1.8457231e+12 -4.2121253e+12)
(-7.1030401e+13 1.687183e+12 -1.134866e+12)
(-8.8997752e+13 7.8972245e+11 -1.1501877e+13)
(-9.03101e+13 -1.7107324e+12 -9.0494021e+12)
(-9.2950737e+13 2.8014541e+11 -2.8585836e+12)
(-9.2333574e+13 -4.8186763e+11 -3.8361609e+12)
(-8.8873241e+13 2.7459784e+11 -1.0814516e+13)
(-8.9252429e+13 -6.1573377e+11 -1.0010681e+13)
(-9.1289011e+13 1.3980377e+12 -3.1981668e+12)
(-9.2006815e+13 -7.1219411e+11 -3.5442443e+12)
(-6.9977369e+13 1.5181379e+12 -3.1958304e+12)
(-6.9794657e+13 1.9164516e+12 -3.6190265e+12)
(-7.20536e+13 2.7098499e+12 9.3967923e+10)
(-7.258961e+13 1.3989112e+12 -1.0212935e+11)
(-7.1463153e+13 1.4734745e+12 -2.825215e+12)
(-7.3696682e+13 3.1575836e+12 1.3945588e+12)
(-7.118775e+13 2.0459998e+12 -3.2192997e+12)
(-7.4191897e+13 1.690047e+12 1.1891072e+12)
(-7.0043532e+13 1.5900677e+12 -3.5596412e+12)
(-7.1958263e+13 2.7643208e+12 -5.442432e+11)
(-7.1260524e+13 1.8271464e+12 -2.2430136e+12)
(-7.0890736e+13 1.7656444e+12 -2.763394e+12)
(-7.3594898e+13 3.4381181e+12 2.0161151e+12)
(-7.4096822e+13 1.4078581e+12 1.7212831e+12)
(-7.0020708e+13 1.1906578e+12 -3.378568e+12)
(-7.1976438e+13 2.316387e+12 -4.0166305e+11)
(-6.9388243e+13 2.1012684e+12 -3.8174256e+12)
(-7.2187351e+13 1.5485397e+12 -5.409617e+11)
(-6.9753043e+13 1.8827276e+12 -2.7213918e+12)
(-7.1782943e+13 3.0986465e+12 4.9416205e+11)
(-6.9515282e+13 1.7076975e+12 -3.1801443e+12)
(-7.2286234e+13 1.2804269e+12 2.6549033e+11)
(-7.1421008e+13 1.0811301e+12 -3.0134918e+12)
(-7.0852166e+13 2.0537748e+12 -3.377429e+12)
(-7.3642136e+13 2.867357e+12 9.4079939e+11)
(-7.3831125e+13 1.8592479e+12 8.2419014e+11)
(-7.3846505e+13 1.3424412e+12 -7.7091474e+11)
(-7.6036747e+13 2.7938417e+12 4.4661962e+12)
(-7.3165784e+13 2.0852996e+12 -1.1161599e+12)
(-7.6352799e+13 1.4526727e+12 4.4900031e+12)
(-7.5491532e+13 1.1880637e+12 3.3029905e+12)
(-7.6768479e+13 3.4981469e+12 9.3271309e+12)
(-7.489874e+13 1.6752657e+12 3.1391481e+12)
(-7.7018115e+13 1.4834933e+12 9.4479806e+12)
(-7.3667222e+13 2.0776374e+12 1.0416723e+11)
(-7.5888984e+13 3.7147049e+12 5.650671e+12)
(-7.3387589e+13 1.5792505e+12 -4.1417928e+11)
(-7.6492635e+13 1.1821284e+12 5.4015714e+12)
(-7.5524038e+13 1.9943081e+12 4.380789e+12)
(-7.6803866e+13 4.2797851e+12 1.0712881e+13)
(-7.506386e+13 1.3380829e+12 3.837666e+12)
(-7.7344246e+13 1.2032564e+12 1.046215e+13)
(-7.6106636e+13 3.4981309e+12 5.1566709e+12)
(-7.3712745e+13 1.8637899e+12 -5.1510561e+11)
(-7.3418428e+13 2.0128368e+12 -9.8147059e+11)
(-9.5332747e+13 2.0831499e+13 -4.5561637e+12)
(-1.0526699e+14 1.2720361e+13 3.0916915e+12)
(-8.5287857e+13 1.8207337e+13 -1.2587595e+13)
(-8.6419384e+13 1.5817981e+13 -1.20076e+13)
(-1.069529e+14 1.0151512e+13 3.868115e+12)
(-8.9296896e+13 5.5556897e+12 -9.5241182e+12)
(-8.9864295e+13 4.9185141e+12 -9.1377424e+12)
(-9.8179416e+13 3.1548418e+12 -2.6252475e+12)
(-9.8878866e+13 -1.2546072e+10 -2.8224137e+12)
(-9.0969978e+13 5.163033e+11 -1.2353442e+13)
(-9.115677e+13 -2.0647201e+11 -1.1754285e+13)
(-9.3907268e+13 7.9684108e+11 -5.2749585e+12)
(-9.4948266e+13 -1.3067384e+12 -5.2974093e+12)
(-9.5672991e+13 8.7241558e+10 -4.9037309e+12)
(-9.1908124e+13 -9.2623668e+11 -1.2154883e+13)
(-9.1145946e+13 1.3100289e+12 -1.2767628e+13)
(-9.567569e+13 -9.7043459e+11 -5.3168938e+12)
(-8.9589896e+13 5.9645957e+12 -9.7206285e+12)
(-9.0405709e+13 4.2499695e+12 -9.5513275e+12)
(-9.884829e+13 2.0005581e+12 -3.0931631e+12)
(-9.9236402e+13 -1.3478121e+11 -2.8524344e+12)
(-8.968244e+13 3.3077149e+12 -8.8676038e+12)
(-9.9271631e+13 2.0063975e+12 -1.456013e+12)
(-9.8183945e+13 -1.0375495e+12 -1.6986119e+12)
(-9.3335261e+13 1.0187986e+12 -4.9258657e+12)
(-9.1107182e+13 -4.0856473e+11 -1.1269275e+13)
(-9.1093545e+13 4.5070798e+10 -1.1604027e+13)
(-9.4236544e+13 -1.1608719e+12 -4.9662035e+12)
(-7.4666341e+13 1.4581399e+12 7.9823142e+12)
(-7.386363e+13 1.649012e+12 7.7878682e+12)
(-7.4873549e+13 1.412487e+12 8.5625694e+12)
(-7.4427779e+13 7.5517485e+11 8.04062e+12)
(-7.5034515e+13 9.4585196e+11 7.9101853e+12)
(-7.4218017e+13 9.824035e+11 7.6667432e+12)
(-7.4704627e+13 1.3149974e+12 8.7953064e+12)
(-7.4603555e+13 4.0959321e+11 8.3361834e+12)
(-6.4228946e+13 1.0465385e+12 7.7801006e+12)
(-6.3910817e+13 7.3717642e+10 7.1872895e+12)
(-6.4220036e+13 4.2036346e+11 6.9272307e+12)
(-6.3940023e+13 7.3055167e+10 6.6759811e+12)
(-6.3903022e+13 7.3274566e+11 6.8586247e+12)
(-6.354611e+13 2.7293208e+11 6.3209548e+12)
(-6.3666974e+13 6.5605161e+11 6.450453e+12)
(-6.3320899e+13 5.9343279e+11 6.1716763e+12)
(-7.5467679e+13 9.2541874e+11 9.364876e+12)
(-7.5295292e+13 -2.579743e+11 8.9687657e+12)
(-7.5636144e+13 1.6363557e+11 8.4712226e+12)
(-7.492662e+13 -8.2949152e+10 8.4311081e+12)
(-7.4759896e+13 6.0713551e+11 8.5049748e+12)
(-7.4274228e+13 5.6883886e+09 8.0811157e+12)
(-7.4396645e+13 5.9932046e+11 7.8205731e+12)
(-7.3604673e+13 7.5903017e+11 7.7262082e+12)
(-1.2511887e+14 1.9896495e+12 -3.8391587e+12)
(-1.2364081e+14 3.6803141e+12 -3.2202241e+12)
(-1.2349685e+14 6.24168e+12 9.812984e+11)
(-1.0759675e+14 2.801427e+12 -8.8471099e+12)
(-1.0665812e+14 5.8404357e+12 -8.8145004e+12)
(-1.0458158e+14 -4.0070145e+11 -1.162532e+13)
(-8.2135364e+13 1.8694516e+12 -1.2202185e+13)
(-8.1142281e+13 1.5967476e+12 -1.2286401e+13)
(-1.0450252e+14 2.9710263e+11 -1.0441173e+13)
(-8.168008e+13 2.1908417e+12 -1.133947e+13)
(-8.0564908e+13 2.6832696e+12 -1.1354615e+13)
(-1.059234e+14 7.3234608e+12 -8.3486614e+12)
(-1.0483075e+14 1.0935669e+12 -1.0789127e+13)
(-8.1518342e+13 3.0846913e+12 -1.1217669e+13)
(-8.0274186e+13 3.0021062e+12 -1.102767e+13)
(-1.0421157e+14 1.7041351e+12 -9.9731277e+12)
(-8.10472e+13 3.2639394e+12 -1.0504261e+13)
(-7.9778839e+13 3.8611649e+12 -1.050865e+13)
(-1.0687257e+14 4.1578742e+12 -8.4384887e+12)
(-7.1161549e+13 -2.8732984e+12 -1.6260581e+13)
(-7.1178609e+13 -2.7358595e+12 -1.7072455e+13)
(-7.1075629e+13 -2.5156015e+12 -1.6551779e+13)
(-7.1068357e+13 -2.4558596e+12 -1.5749542e+13)
(-4.8447526e+13 3.7758904e+12 -1.4490776e+13)
(-4.7092672e+13 3.6839837e+12 -1.4919037e+13)
(-3.9117527e+13 -4.4687163e+11 -1.0216704e+13)
(-3.6682808e+13 1.3664577e+12 -1.0410647e+13)
(-4.8264028e+13 3.7517681e+12 -1.407348e+13)
(-4.6926472e+13 4.0551699e+12 -1.4801444e+13)
(-3.6838128e+13 1.6696881e+12 -1.0407896e+13)
(-3.9098295e+13 -5.6263487e+11 -9.7587152e+12)
(-2.8525116e+13 -3.6305629e+11 -4.1825611e+12)
(-3.9337953e+13 -4.1594364e+12 8.4127899e+12)
(-2.5508169e+13 1.5534205e+12 -3.6701252e+12)
(-3.5777907e+13 3.0868733e+11 6.7448713e+12)
(-2.8630143e+13 -3.4777061e+11 -3.7702081e+12)
(-3.8715103e+13 -3.6359794e+12 8.2325529e+12)
(-2.558327e+13 1.9419806e+12 -4.1213621e+12)
(-3.5550209e+13 6.0676625e+11 6.4891504e+12)
(-4.8931104e+13 3.4020181e+12 -1.4907527e+13)
(-4.7608389e+13 3.3690159e+12 -1.529403e+13)
(-3.9548859e+13 -8.0969317e+11 -1.0712249e+13)
(-3.7106925e+13 9.7334729e+11 -1.0837891e+13)
(-4.8643482e+13 3.3904382e+12 -1.4426254e+13)
(-4.7368792e+13 3.6265591e+12 -1.5129017e+13)
(-3.9280119e+13 -7.1914496e+11 -1.0079454e+13)
(-3.7094906e+13 1.3306729e+12 -1.0690392e+13)
(-2.8935756e+13 -8.4449381e+11 -4.8248019e+12)
(-2.5948024e+13 1.079352e+12 -4.2826424e+12)
(-3.684266e+13 -1.2893185e+11 6.959232e+12)
(-3.9991651e+13 -4.0144587e+12 8.3577426e+12)
(-3.9463226e+13 -3.8010814e+12 8.3409302e+12)
(-3.6106273e+13 2.0879828e+11 6.520757e+12)
(-2.8708236e+13 -4.8275005e+11 -4.2219862e+12)
(-2.5637095e+13 1.6932764e+12 -4.4914794e+12)
(-7.0935364e+13 -2.2102466e+12 -1.543952e+13)
(-7.1015532e+13 -2.1002601e+12 -1.6380042e+13)
(-7.080233e+13 -1.78666e+12 -1.6026225e+13)
(-7.0768865e+13 -1.7001234e+12 -1.5353653e+13)
(-4.7348293e+13 4.3699451e+12 -1.3562612e+13)
(-3.856895e+13 -2.0367301e+11 -9.3683031e+12)
(-3.6193599e+13 2.2678018e+12 -1.0025554e+13)
(-4.5955085e+13 4.7107051e+12 -1.4276175e+13)
(-2.5277603e+13 2.0656214e+12 -2.7868495e+12)
(-2.8547508e+13 -2.0420949e+11 -3.0918205e+12)
(-3.9201899e+13 -3.6433501e+12 8.7536472e+12)
(-3.5722675e+13 9.7616927e+11 7.005349e+12)
(-2.8643265e+13 -6.1173684e+10 -2.9917372e+12)
(-3.8983492e+13 -3.4241778e+12 8.7095878e+12)
(-3.5946041e+13 8.7869546e+11 7.0227487e+12)
(-2.5309365e+13 2.4715899e+12 -3.4246314e+12)
(-4.6142386e+13 4.3079848e+12 -1.4359246e+13)
(-4.7511276e+13 4.4902172e+12 -1.3882937e+13)
(-3.844071e+13 4.6383919e+10 -9.7139499e+12)
(-3.5980922e+13 1.9487311e+12 -9.9615624e+12)
(-4.8101639e+13 4.1872838e+12 -1.4199907e+13)
(-4.6619236e+13 4.0833215e+12 -1.4578302e+13)
(-3.8927972e+13 -2.6096494e+11 -9.9827904e+12)
(-3.6268581e+13 1.6635697e+12 -1.0155197e+13)
(-4.7702454e+13 3.9964356e+12 -1.3611567e+13)
(-4.6308546e+13 4.3760616e+12 -1.434114e+13)
(-3.8612523e+13 -4.2507385e+11 -9.3394858e+12)
(-3.6223851e+13 2.0804696e+12 -1.0053018e+13)
(-2.8545164e+13 -2.4604985e+11 -3.8213924e+12)
(-2.5417601e+13 1.7736449e+12 -3.2179807e+12)
(-3.622593e+13 3.6583994e+11 7.1363795e+12)
(-3.9431597e+13 -4.0706838e+12 8.6238447e+12)
(-2.5265326e+13 2.3225659e+12 -3.500899e+12)
(-3.9197063e+13 -3.5788745e+12 8.6430614e+12)