# Probe 0 (0.65 0.078 0)
# Probe 1 (0.65 0.1 0)
# Probe 2 (0.05 0.06 0)
# Probe 3 (1.02 0.01 0)
#         Probe               0               1               2               3
#          Time
              2       104535.72       104535.72       105991.23       103988.53
              4       115099.52       115099.52       120833.22       111795.56
              6       114315.19       114315.19       118420.16       111934.77
              8       110083.38       110083.38       114277.12        107457.1
             10       115965.18       115965.18       118610.96       114219.37
             12        103015.9        103015.9       105973.01       100941.72
             14       191081.63       191081.63       191948.12       190451.46
             16       167320.98       167320.98       169240.09        165846.9
             18       204013.34       204013.34       204198.75       203853.66
             20       161140.66       161140.66       162449.09       160053.91
             22       198583.21       198583.21       198900.88       198305.88
             24       155796.11       155796.11       156922.81       154849.71
             26        204393.2        204393.2       205015.78       203835.37
             28       151231.75       151231.75       152344.27       150286.74
             30       232659.15       232659.15       233120.86       232109.46
             32       140601.58       140601.58       141163.05       139996.32
             34       313524.75       313524.75       313713.58       313106.57
             36       134490.44       134490.44        134924.4          133898
             38       534101.77       534101.77        533848.4       534168.17
             40       110930.62       110930.62       111296.82       110306.82
             42       1076153.8       1076153.8       1074902.5         1077190
             44        137728.1        137728.1       137785.73       137431.24
             46       1931075.3       1931075.3       1929080.8       1932586.4
             48       185388.08       185388.08       185343.49       184605.36
             50       3444475.6       3444475.6       3441009.5       3446602.6
             52       238615.62       238615.62       238781.42       236928.36
             54       5606449.8       5606449.8       5597488.6       5611633.8
             56       639262.61       639262.61       640454.91       636961.97
             58       6969662.8       6969662.8       6936624.2       6995266.2
             60       899148.62       899148.62       912662.43       888876.01
             62       7670507.9       7670507.9       7612966.5       7713753.9
             64       1070030.7       1070030.7       1087420.9       1056805.3
             66       7963941.3       7963941.3       7892778.5       8010507.6
             68       1266127.3       1266127.3         1266925       1263926.1
             70       7768177.1       7768177.1       7713496.4       7796165.1
             72       1559099.1       1559099.1       1540111.7       1570902.9
             74       7092377.1       7092377.1       7054407.5       7098573.1
             76       1525563.2       1525563.2       1471146.3       1568137.4
             78       6345309.6       6345309.6       6308795.1       6340417.5
             80       1293284.9       1293284.9       1176115.5       1381985.8
             82       6070301.5       6070301.5       6073598.9       6025003.1
             84       940711.44       940711.44       740846.11       1074544.1
             86       5262168.5       5262168.5       5256156.1       5213394.6
             88       450073.25       450073.25       119319.23        645796.1
             90       4505177.5       4505177.5       4490711.1       4439214.3
             92      -232762.62      -232762.62       -730728.5       51318.153
             94       3931140.6       3931140.6       3931557.9       3822738.1
             96      -987012.84      -987012.84      -1716481.6       -594281.7
             98       3459140.4       3459140.4       3445614.6       3299400.4
            100      -1888702.5      -1888702.5      -2924327.1      -1375697.4
            102       3479552.4       3479552.4       3469694.7       3225163.8
            104      -3214443.3      -3214443.3      -4637087.8      -2556193.6
            106       4718161.4       4718161.4       4889740.8       4218125.4
            108      -4054542.8      -4054542.8      -5871029.5      -3318827.4
            110       3856781.3       3856781.3       4007511.4       3330957.8
            112      -5747532.1      -5747532.1      -8256116.9        -4790225
            114       1770217.8       1770217.8       1607136.2       1382438.9
            116        -7673565        -7673565       -10987908      -6446018.2
            118       1671676.3       1671676.3       2231078.5       1074553.7
            120       -10921845       -10921845       -15893291      -9194527.6
            122      -357970.09      -357970.09       567000.74      -927257.86
            124       -14250255       -14250255       -20296547       -12105665
            126      -3678410.3      -3678410.3      -2586726.6      -4054619.1
            128       -17267491       -17267491       -24066420       -14821183
            130      -5956811.3      -5956811.3      -4499649.6      -6296804.2
            132       -21210521       -21210521       -28825578       -18309553
            134      -6292569.3      -6292569.3      -5140809.6      -6807380.1
            136       -25292264       -25292264       -33824620       -21986439
            138      -5621560.6      -5621560.6        -4509659      -6509853.6
            140       -27787688       -27787688       -36999568       -24286536
            142      -5080354.9      -5080354.9      -3443030.3      -6367892.8
            144       -28309521       -28309521       -37085622       -24958862
            146        -3102407        -3102407        564611.2      -5175037.7
            148       -32845388       -32845388       -42482988       -28971074
            150      -2855702.9      -2855702.9       2190807.2      -5432800.7
            152       -35357917       -35357917       -45756011       -31198407
            154      -4438826.1      -4438826.1       875778.38        -7178755
            156       -37929704       -37929704       -49475129       -33499432
            158      -9240500.2      -9240500.2      -5588863.1       -11428706
            160       -44719028       -44719028       -58646819       -39395338
            162       -14359363       -14359363       -11882218       -16084335
            164       -47819372       -47819372       -63382396       -42214880
            166       -16212480       -16212480       -13753037       -18118305
            168       -53512452       -53512452       -70036027       -47427213
            170       -15553007       -15553007       -10351188       -18318912
            172       -59497113       -59497113       -77935229       -52758263
            174        -7866271        -7866271       2079918.9       -12544337
            176       -62590195       -62590195       -80551162       -55812924
            178      -9359110.1      -9359110.1       1693463.5       -14451252
            180       -67224000       -67224000       -86639632       -59871904
            182       -18214723       -18214723       -10014706       -22246692
            184       -74010800       -74010800       -94531836       -66022166
            186       -23121236       -23121236       -17456625       -26830601
            188       -81516822       -81516822  -1.0393622e+08       -72725679
            190       -18411965       -18411965      -9342550.3       -23751206
            192       -88028786       -88028786  -1.1347349e+08       -78412253
            194       -22962429       -22962429       -12928555       -28454538
            196       -99287553       -99287553  -1.2845088e+08       -88368207
            198       -17566040       -17566040      -3019465.1       -24756851
            200       -98352909       -98352909  -1.2669008e+08       -88071766
            202       -27750456       -27750456       -14169889       -34177451
            204  -1.0816494e+08  -1.0816494e+08  -1.3775939e+08       -96920431
            206       -35830286       -35830286       -25350423       -41566129
            208  -1.1106125e+08  -1.1106125e+08  -1.4226672e+08       -99691872
            210       -44162707       -44162707       -32378321       -49852810
            212  -1.2190028e+08  -1.2190028e+08  -1.5424837e+08  -1.0972743e+08
            214       -49036057       -49036057       -36921162       -54977634
            216  -1.3151615e+08  -1.3151615e+08  -1.6590798e+08  -1.1861214e+08
            218       -48547634       -48547634       -35022930       -55451437
            220  -1.3772716e+08  -1.3772716e+08  -1.7201845e+08  -1.2495214e+08
            222       -60165697       -60165697       -50929178       -65909385
            224  -1.5287343e+08  -1.5287343e+08  -1.9125982e+08  -1.3854329e+08
            226       -56581603       -56581603       -45323641       -63947477
            228  -1.6514219e+08  -1.6514219e+08  -2.0569535e+08   -1.499215e+08
            230       -50531811       -50531811       -35326887       -60347573
            232  -1.8191949e+08  -1.8191949e+08  -2.2857918e+08  -1.6450664e+08
            234       -46732720       -46732720       -23338375       -59289750
            236  -1.9498348e+08  -1.9498348e+08  -2.4707066e+08  -1.7618778e+08
            238       -57171903       -57171903       -36414962       -69428159
            240  -2.0422983e+08  -2.0422983e+08  -2.6292023e+08   -1.842829e+08
            242       -65857907       -65857907       -44881880       -78115876
            244  -2.1676864e+08  -2.1676864e+08  -2.7819942e+08  -1.9583067e+08
            246       -71601679       -71601679       -50388622       -84773340
            248  -2.3000417e+08  -2.3000417e+08  -2.9340893e+08  -2.0814898e+08
            250       -65899541       -65899541       -34705571       -82450059
            252   -2.533279e+08   -2.533279e+08  -3.2356812e+08  -2.2871176e+08
            254       -87599198       -87599198       -54444206  -1.0287353e+08
            256   -2.819871e+08   -2.819871e+08  -3.5981427e+08  -2.5384712e+08
            258  -1.2261547e+08  -1.2261547e+08  -1.0215409e+08  -1.3344904e+08
            260  -3.0505061e+08  -3.0505061e+08  -3.8984945e+08  -2.7491664e+08
            262  -1.3642402e+08  -1.3642402e+08    -1.19134e+08  -1.4708218e+08
            264  -3.3697793e+08  -3.3697793e+08  -4.2700867e+08  -3.0416264e+08
            266  -1.2908461e+08  -1.2908461e+08  -1.0711224e+08  -1.4374656e+08
            268  -3.7578642e+08  -3.7578642e+08  -4.7666319e+08  -3.3846308e+08
            270  -1.3868447e+08  -1.3868447e+08  -1.1056876e+08  -1.5598329e+08
            272  -3.9876882e+08  -3.9876882e+08   -5.058244e+08  -3.5979208e+08
            274  -1.5015388e+08  -1.5015388e+08  -1.2060752e+08  -1.6881273e+08
            276  -4.3747207e+08  -4.3747207e+08  -5.6144316e+08  -3.9378655e+08
            278  -1.6764438e+08  -1.6764438e+08  -1.4480863e+08  -1.8643887e+08
            280  -4.7235417e+08  -4.7235417e+08  -6.1167827e+08    -4.24719e+08
            282  -1.3543978e+08  -1.3543978e+08       -89493193  -1.6454252e+08
            284  -4.8154719e+08  -4.8154719e+08  -6.2177364e+08  -4.3472172e+08
            286  -1.3111975e+08  -1.3111975e+08       -60767743  -1.6604051e+08
            288  -5.5667357e+08  -5.5667357e+08  -7.1766763e+08  -4.9943788e+08
            290       -71886509       -71886509        38889163  -1.2160901e+08
            292   -5.699268e+08   -5.699268e+08   -7.193379e+08   -5.137655e+08
            294  -1.7255161e+08  -1.7255161e+08       -87731665  -2.0949211e+08
            296  -6.1708766e+08  -6.1708766e+08  -7.9103194e+08  -5.5411726e+08
            298  -2.8483005e+08  -2.8483005e+08  -2.4781813e+08  -3.0561299e+08
            300  -6.9591556e+08  -6.9591556e+08  -9.0236896e+08  -6.2242077e+08
            302  -2.7066843e+08  -2.7066843e+08  -2.2608185e+08   -3.000561e+08
            304  -7.2833516e+08  -7.2833516e+08  -9.3122951e+08  -6.5570347e+08
            306  -2.1119519e+08  -2.1119519e+08   -1.175718e+08  -2.5917042e+08
            308  -8.0734839e+08  -8.0734839e+08  -1.0269875e+09   -7.259078e+08
            310  -2.1673469e+08  -2.1673469e+08       -95988313  -2.7217802e+08
            312  -9.4313238e+08  -9.4313238e+08  -1.2139223e+09  -8.4310296e+08
            314  -1.8538785e+08  -1.8538785e+08       -33021983  -2.5296649e+08
            316  -9.9946815e+08  -9.9946815e+08  -1.2767068e+09  -8.9593995e+08
            318  -2.0641201e+08  -2.0641201e+08       -63589326  -2.7739034e+08
            320  -1.0126955e+09  -1.0126955e+09  -1.2854144e+09  -9.0963288e+08
            322  -3.0793283e+08  -3.0793283e+08  -1.7403612e+08  -3.7433307e+08
            324   -1.085423e+09   -1.085423e+09  -1.3984478e+09  -9.7205326e+08
            326  -3.1052828e+08  -3.1052828e+08  -1.5165191e+08  -3.8554534e+08
            328  -1.1946051e+09  -1.1946051e+09  -1.5258387e+09  -1.0708924e+09
            330  -2.0233084e+08  -2.0233084e+08        12147606  -3.0479629e+08
            332  -1.3156618e+09  -1.3156618e+09  -1.6952472e+09  -1.1734373e+09
            334  -3.7451853e+08  -3.7451853e+08  -1.9241807e+08  -4.5675661e+08
            336  -1.4471139e+09  -1.4471139e+09  -1.8479794e+09   -1.293105e+09
            338  -6.0470093e+08  -6.0470093e+08  -4.3469221e+08  -6.6404125e+08
            340  -1.5762919e+09  -1.5762919e+09  -2.0021788e+09  -1.4130645e+09
            342  -6.0245011e+08  -6.0245011e+08  -4.1728882e+08  -6.7595248e+08
            344  -1.8003814e+09  -1.8003814e+09   -2.280752e+09  -1.6127709e+09
            346  -6.2411638e+08  -6.2411638e+08  -4.4707067e+08  -7.0992915e+08
            348   -1.948811e+09   -1.948811e+09  -2.4462358e+09  -1.7485913e+09
            350  -5.6290433e+08  -5.6290433e+08  -3.3224811e+08  -6.7865565e+08
            352  -2.0306881e+09  -2.0306881e+09   -2.566092e+09  -1.8278028e+09
            354  -7.4536901e+08  -7.4536901e+08  -5.3581501e+08  -8.4684587e+08
            356  -2.1432556e+09  -2.1432556e+09   -2.681436e+09  -1.9366178e+09
            358  -8.8603279e+08  -8.8603279e+08  -7.0636876e+08  -9.8216062e+08
            360  -2.3922266e+09  -2.3922266e+09  -3.0355527e+09  -2.1521102e+09
            362  -8.2636447e+08  -8.2636447e+08  -6.1834922e+08  -9.5231677e+08
            364  -2.6821058e+09  -2.6821058e+09  -3.4240255e+09  -2.4054058e+09
            366  -8.8396927e+08  -8.8396927e+08  -6.4651605e+08  -1.0259266e+09
            368  -3.0132449e+09  -3.0132449e+09  -3.8739017e+09  -2.6942282e+09
            370  -6.7019935e+08  -6.7019935e+08  -2.2262699e+08  -8.7883345e+08
            372  -3.3836362e+09  -3.3836362e+09  -4.3353543e+09  -3.0226961e+09
            374  -6.0892935e+08  -6.0892935e+08       1976254.2  -8.6702812e+08
            376  -3.7506679e+09  -3.7506679e+09  -4.8470874e+09  -3.3349972e+09
            378  -7.5465603e+08  -7.5465603e+08   -1.014421e+08  -1.0237933e+09
            380  -4.0860878e+09  -4.0860878e+09  -5.2457341e+09  -3.6344508e+09
            382  -1.0820621e+09  -1.0820621e+09  -4.6688613e+08  -1.3319004e+09
            384   -4.440361e+09   -4.440361e+09  -5.6666737e+09  -3.9524185e+09
            386  -1.5534137e+09  -1.5534137e+09  -9.8658249e+08   -1.767765e+09
            388   -4.983295e+09   -4.983295e+09  -6.3005056e+09  -4.4317996e+09
            390  -1.9667228e+09  -1.9667228e+09  -1.5168449e+09   -2.157484e+09
            392  -5.6644427e+09  -5.6644427e+09  -7.2289808e+09   -5.031071e+09
            394  -1.8464211e+09  -1.8464211e+09  -1.3560579e+09  -2.1056339e+09
            396  -6.0753626e+09  -6.0753626e+09  -7.7479486e+09  -5.4182731e+09
            398  -1.4349835e+09  -1.4349835e+09  -7.7517263e+08  -1.8159526e+09
            400  -6.8977593e+09  -6.8977593e+09  -8.8088801e+09  -6.1441112e+09
            402  -1.0406437e+09  -1.0406437e+09       -53580773  -1.5498436e+09
            404   -7.124157e+09   -7.124157e+09  -9.0732249e+09  -6.3610249e+09
            406  -1.5748208e+09  -1.5748208e+09  -4.4073618e+08  -2.0838624e+09
            408  -8.1529021e+09  -8.1529021e+09  -1.0542926e+10  -7.2296386e+09
            410  -1.6911396e+09  -1.6911396e+09  -2.7207346e+08  -2.2689759e+09
            412  -9.0087998e+09  -9.0087998e+09  -1.1663292e+10  -7.9808052e+09
            414   -2.342854e+09   -2.342854e+09  -1.0581256e+09  -2.8962057e+09
            416  -1.0187328e+10  -1.0187328e+10   -1.313495e+10  -9.0096942e+09
            418  -2.8920995e+09  -2.8920995e+09  -1.4404562e+09  -3.4602326e+09
            420  -1.1078024e+10  -1.1078024e+10  -1.4328381e+10   -9.806706e+09
            422   -2.502638e+09   -2.502638e+09  -6.9330336e+08  -3.2401441e+09
            424  -1.2553594e+10  -1.2553594e+10  -1.6091982e+10  -1.1137805e+10
            426  -3.0221351e+09  -3.0221351e+09  -1.4741952e+09  -3.7627981e+09
            428  -1.4582504e+10  -1.4582504e+10  -1.8812416e+10  -1.2881137e+10
            430  -4.3954632e+09  -4.3954632e+09  -3.4278941e+09   -5.002448e+09
            432  -1.5041681e+10  -1.5041681e+10  -1.9383269e+10  -1.3345161e+10
            434  -4.6128205e+09  -4.6128205e+09  -3.2515253e+09   -5.361348e+09
            436  -1.6552494e+10  -1.6552494e+10   -2.146881e+10  -1.4692603e+10
            438  -3.3347213e+09  -3.3347213e+09  -1.0168245e+09  -4.4789834e+09
            440  -1.8208872e+10  -1.8208872e+10  -2.3372201e+10   -1.617425e+10
            442  -3.8843514e+09  -3.8843514e+09  -9.8950823e+08  -5.1564296e+09
            444  -2.0643236e+10  -2.0643236e+10   -2.688708e+10  -1.8247998e+10
            446  -6.3349366e+09  -6.3349366e+09  -3.9033548e+09  -7.3862384e+09
            448  -2.2031491e+10  -2.2031491e+10  -2.8881894e+10  -1.9510382e+10
            450  -6.3576742e+09  -6.3576742e+09  -3.9014059e+09  -7.5328458e+09
            452  -2.3691777e+10  -2.3691777e+10  -3.1249143e+10  -2.1019668e+10
            454  -5.0780723e+09  -5.0780723e+09  -2.3276301e+09  -6.6076146e+09
            456   -2.629933e+10   -2.629933e+10  -3.4490143e+10  -2.3303816e+10
            458  -5.2749082e+09  -5.2749082e+09  -1.4873325e+09   -7.063988e+09
            460  -2.9473153e+10  -2.9473153e+10  -3.8503384e+10  -2.6080578e+10
            462  -5.1225117e+09  -5.1225117e+09        28730658   -7.311796e+09
            464  -3.1526403e+10  -3.1526403e+10  -4.1249485e+10  -2.7927166e+10
            466  -8.6365982e+09  -8.6365982e+09  -3.8209291e+09  -1.0529669e+10
            468  -3.4994833e+10  -3.4994833e+10  -4.5549483e+10  -3.1037976e+10
            470  -1.2679573e+10  -1.2679573e+10  -9.4026265e+09  -1.4171463e+10
            472  -3.9196175e+10  -3.9196175e+10  -5.1187551e+10  -3.4721825e+10
            474  -1.6444338e+10  -1.6444338e+10  -1.3988735e+10  -1.7673529e+10
            476  -4.3694872e+10  -4.3694872e+10  -5.7204391e+10  -3.8747351e+10
            478  -1.5923988e+10  -1.5923988e+10  -1.2217925e+10    -1.76828e+10
            480  -5.0207891e+10  -5.0207891e+10  -6.5288472e+10   -4.454171e+10
            482  -1.2306045e+10  -1.2306045e+10  -6.7472938e+09  -1.5072057e+10
            484  -5.2607539e+10  -5.2607539e+10  -6.8139794e+10   -4.687301e+10
            486  -2.0631283e+10  -2.0631283e+10  -1.7515785e+10  -2.2482926e+10
            488  -5.9830793e+10  -5.9830793e+10  -7.8297613e+10  -5.3140213e+10
            490  -2.6413164e+10  -2.6413164e+10  -2.3441271e+10   -2.796829e+10
            492  -6.5301796e+10  -6.5301796e+10  -8.6025547e+10  -5.7977469e+10
            494  -2.5474002e+10  -2.5474002e+10  -2.1190831e+10  -2.7877782e+10
            496  -7.1767218e+10  -7.1767218e+10  -9.3399746e+10  -6.3866048e+10
            498   -2.122108e+10   -2.122108e+10  -1.5386523e+10  -2.4964002e+10
            500  -7.9852273e+10  -7.9852273e+10  -1.0570855e+11  -7.0807822e+10
            502  -1.8564193e+10  -1.8564193e+10  -9.4341805e+09  -2.3567774e+10
            504   -8.729241e+10   -8.729241e+10  -1.1469411e+11  -7.7532089e+10
            506  -3.0281007e+10  -3.0281007e+10  -2.0966097e+10   -3.423718e+10
            508  -9.7404135e+10  -9.7404135e+10  -1.2714433e+11  -8.6523691e+10
            510  -4.2792598e+10  -4.2792598e+10  -3.6967769e+10  -4.5412162e+10
            512  -1.0899676e+11  -1.0899676e+11  -1.4198996e+11  -9.6907383e+10
            514   -4.028587e+10   -4.028587e+10  -3.2943283e+10  -4.4363578e+10
            516  -1.2220042e+11  -1.2220042e+11  -1.5883509e+11  -1.0850033e+11
            518  -3.2087117e+10  -3.2087117e+10  -1.7906787e+10  -3.9029057e+10
            520  -1.2802577e+11  -1.2802577e+11   -1.642437e+11  -1.1422345e+11
            522  -3.6897291e+10  -3.6897291e+10  -1.9907737e+10  -4.4443002e+10
            524  -1.4380163e+11  -1.4380163e+11  -1.8564209e+11  -1.2805431e+11
            526  -4.0717056e+10  -4.0717056e+10  -2.3369355e+10  -4.8619179e+10
            528  -1.5880451e+11  -1.5880451e+11   -2.031013e+11  -1.4169904e+11
            530  -3.8503981e+10  -3.8503981e+10  -1.7425307e+10   -4.840244e+10
            532  -1.5999256e+11  -1.5999256e+11  -2.0646757e+11  -1.4310397e+11
            534  -4.5923316e+10  -4.5923316e+10  -2.3458712e+10  -5.6436223e+10
            536  -1.7799335e+11  -1.7799335e+11  -2.3047265e+11  -1.5878713e+11
            538  -3.7631492e+10  -3.7631492e+10  -1.2089613e+10  -5.0704951e+10
            540  -1.9786249e+11  -1.9786249e+11  -2.5619311e+11  -1.7631946e+11
            542  -5.4058239e+10  -5.4058239e+10  -3.3676696e+10  -6.5556621e+10
            544  -2.2802824e+11  -2.2802824e+11   -3.000881e+11  -2.0178397e+11
            546  -7.2305935e+10  -7.2305935e+10  -5.3893195e+10  -8.2916487e+10
            548  -2.2492974e+11  -2.2492974e+11  -2.9604927e+11   -2.003755e+11
            550  -8.7531251e+10  -8.7531251e+10  -6.5613993e+10  -9.8017201e+10
            552   -2.507151e+11   -2.507151e+11  -3.2868678e+11  -2.2368143e+11
            554  -8.4413629e+10  -8.4413629e+10  -4.9679176e+10  -9.8305563e+10
            556  -2.7646298e+11  -2.7646298e+11  -3.5909203e+11  -2.4651415e+11
            558  -8.5208248e+10  -8.5208248e+10  -4.6229005e+10  -1.0174361e+11
            560  -3.1155203e+11  -3.1155203e+11  -4.0376823e+11  -2.7713689e+11
            562   -1.143803e+11   -1.143803e+11  -8.4504239e+10  -1.2823297e+11
            564  -3.4801991e+11  -3.4801991e+11   -4.583332e+11  -3.0895112e+11
            566  -1.3118558e+11  -1.3118558e+11  -1.1067874e+11  -1.4409035e+11
            568   -3.840583e+11   -3.840583e+11  -5.0033681e+11  -3.4261269e+11
            570  -1.2520531e+11  -1.2520531e+11  -9.0379878e+10  -1.4341641e+11
            572  -4.3774943e+11  -4.3774943e+11   -5.742972e+11  -3.8926745e+11
            574  -7.5000817e+10  -7.5000817e+10  -2.6063321e+09  -1.0781396e+11
            576  -4.8628799e+11  -4.8628799e+11  -6.3115988e+11  -4.3205809e+11
            578  -1.5053933e+11  -1.5053933e+11  -9.1865973e+10  -1.7546963e+11
            580   -5.234176e+11   -5.234176e+11  -6.8096597e+11  -4.6536729e+11
            582  -2.4696237e+11  -2.4696237e+11  -2.0792234e+11  -2.6121251e+11
            584  -5.8700097e+11  -5.8700097e+11  -7.6557347e+11  -5.2217738e+11
            586  -2.3846142e+11  -2.3846142e+11   -1.907655e+11    -2.59329e+11
            588  -6.4394183e+11  -6.4394183e+11  -8.2400131e+11   -5.753274e+11
            590  -2.4675937e+11  -2.4675937e+11  -2.0682202e+11  -2.7166965e+11
            592  -7.4612301e+11  -7.4612301e+11  -9.5586647e+11  -6.6435304e+11
            594  -2.4900035e+11  -2.4900035e+11  -2.0791265e+11  -2.7911518e+11
            596  -7.7931618e+11  -7.7931618e+11   -1.008438e+12  -6.9565301e+11
            598  -2.8617764e+11  -2.8617764e+11  -2.3221978e+11  -3.1854086e+11
            600  -8.5950047e+11  -8.5950047e+11  -1.1171587e+12   -7.673271e+11
            602  -2.3968775e+11  -2.3968775e+11  -1.2973984e+11  -2.9083895e+11
            604  -8.7982714e+11  -8.7982714e+11   -1.124109e+12  -7.9094695e+11
            606  -2.0799279e+11  -2.0799279e+11  -6.0744915e+10  -2.7474067e+11
            608  -9.8700095e+11  -9.8700095e+11  -1.2617217e+12  -8.8350864e+11
            610   -2.673355e+11   -2.673355e+11  -1.1949634e+11  -3.3384845e+11
            612  -1.0849376e+12  -1.0849376e+12  -1.4012575e+12  -9.6795186e+11
            614  -2.6674206e+11  -2.6674206e+11  -9.1268532e+10   -3.433951e+11
            616  -1.1941924e+12  -1.1941924e+12  -1.5319296e+12  -1.0668241e+12
            618  -3.0544029e+11  -3.0544029e+11  -1.5111752e+11  -3.8129083e+11
            620  -1.3353528e+12  -1.3353528e+12  -1.7042698e+12  -1.1923457e+12
            622  -4.2874583e+11  -4.2874583e+11  -2.9051723e+11  -4.9692996e+11
            624   -1.411154e+12   -1.411154e+12  -1.8045575e+12  -1.2627343e+12
            626  -5.7147603e+11  -5.7147603e+11  -4.6704334e+11  -6.2788111e+11
            628  -1.5504501e+12  -1.5504501e+12  -1.9820308e+12  -1.3879107e+12
            630  -6.6884886e+11  -6.6884886e+11   -6.090392e+11  -7.2098715e+11
            632  -1.6832871e+12  -1.6832871e+12  -2.1631826e+12  -1.5096459e+12
            634  -6.6787154e+11  -6.6787154e+11   -5.469262e+11  -7.3821489e+11
            636  -1.7503501e+12  -1.7503501e+12   -2.269837e+12  -1.5728761e+12
            638  -5.9955707e+11  -5.9955707e+11  -3.8172247e+11  -7.0052326e+11
            640  -1.9306077e+12  -1.9306077e+12  -2.4815586e+12  -1.7378794e+12
            642  -6.2464545e+11  -6.2464545e+11  -4.0171199e+11  -7.3582155e+11
            644  -2.1671875e+12  -2.1671875e+12  -2.7983769e+12  -1.9452736e+12
            646  -9.3470078e+11  -9.3470078e+11  -8.0277457e+11  -1.0116295e+12
            648  -2.4052571e+12  -2.4052571e+12  -3.1064929e+12  -2.1549193e+12
            650  -8.7120084e+11  -8.7120084e+11  -6.7601542e+11   -9.770404e+11
            652  -2.7917744e+12  -2.7917744e+12  -3.5672613e+12  -2.4935607e+12
            654  -9.3517703e+11  -9.3517703e+11  -6.8061366e+11  -1.0608411e+12
            656  -3.1262623e+12  -3.1262623e+12  -4.0222903e+12  -2.7838036e+12
            658   -1.285487e+12   -1.285487e+12  -1.0834543e+12  -1.3850423e+12
            660  -3.4637822e+12  -3.4637822e+12  -4.4676412e+12  -3.0850981e+12
            662   -1.550851e+12   -1.550851e+12  -1.4110885e+12  -1.6374231e+12
            664  -3.9476452e+12  -3.9476452e+12  -5.1219422e+12  -3.5092586e+12
            666  -1.5496584e+12  -1.5496584e+12  -1.3336189e+12  -1.6782931e+12
            668  -4.5661874e+12  -4.5661874e+12  -5.9513301e+12  -4.0481641e+12
            670  -1.3772257e+12  -1.3772257e+12  -9.5292032e+11   -1.585572e+12
            672  -5.0325878e+12  -5.0325878e+12  -6.4950161e+12  -4.4720385e+12
            674  -1.0787617e+12  -1.0787617e+12  -4.0730212e+11  -1.3930605e+12
            676  -5.3425844e+12  -5.3425844e+12  -6.8624855e+12  -4.7603103e+12
            678  -1.1732402e+12  -1.1732402e+12  -5.1871957e+11  -1.5141653e+12
            680  -5.7537939e+12  -5.7537939e+12  -7.3666104e+12   -5.130619e+12
            682  -1.0062141e+12  -1.0062141e+12  -1.3598169e+11  -1.4387152e+12
            684  -6.2895994e+12  -6.2895994e+12  -8.1095796e+12  -5.5881808e+12
            686  -9.3653959e+11  -9.3653959e+11   6.5768342e+10  -1.4404952e+12
            688  -6.3062022e+12  -6.3062022e+12   -8.111111e+12  -5.6224843e+12
            690  -9.7311788e+11  -9.7311788e+11   3.1946316e+11  -1.5483805e+12
            692  -7.0139445e+12  -7.0139445e+12  -9.1045998e+12  -6.2278832e+12
            694  -1.2015308e+12  -1.2015308e+12   1.7850233e+11  -1.7834226e+12
            696  -7.4702346e+12  -7.4702346e+12  -9.7062582e+12  -6.6373728e+12
            698  -2.4700582e+12  -2.4700582e+12  -1.4636486e+12  -2.8872712e+12
            700  -8.3611936e+12  -8.3611936e+12  -1.0838719e+13  -7.4243769e+12
            702  -2.9385579e+12  -2.9385579e+12  -1.9878706e+12  -3.3539964e+12
            704  -9.5986752e+12  -9.5986752e+12  -1.2387384e+13  -8.5203643e+12
            706  -3.1947777e+12  -3.1947777e+12  -1.9710621e+12  -3.6841864e+12
            708  -1.0769343e+13  -1.0769343e+13  -1.4035258e+13  -9.5530652e+12
            710  -3.8175484e+12  -3.8175484e+12  -2.4665472e+12  -4.3291297e+12
            712  -1.1791321e+13  -1.1791321e+13  -1.5225188e+13  -1.0506531e+13
            714  -3.7323962e+12  -3.7323962e+12  -2.3181206e+12  -4.3330234e+12
            716  -1.2834752e+13  -1.2834752e+13  -1.6466631e+13  -1.1464309e+13
            718  -3.9440068e+12  -3.9440068e+12  -2.3682749e+12  -4.6292669e+12
            720  -1.3221318e+13  -1.3221318e+13  -1.6965101e+13  -1.1857791e+13
            722  -3.5682084e+12  -3.5682084e+12  -1.8056182e+12  -4.4341666e+12
            724  -1.4735806e+13  -1.4735806e+13  -1.8901166e+13  -1.3194143e+13
            726  -3.9719043e+12  -3.9719043e+12  -2.0092087e+12  -4.9086084e+12
            728  -1.5830969e+13  -1.5830969e+13  -2.0328028e+13  -1.4189212e+13
            730  -5.1040005e+12  -5.1040005e+12  -3.4216888e+12  -5.9931326e+12
            732  -1.7080663e+13  -1.7080663e+13  -2.2175212e+13  -1.5289092e+13
            734  -5.8241227e+12  -5.8241227e+12  -4.2116418e+12  -6.7369619e+12
            736  -1.8593354e+13  -1.8593354e+13  -2.4300568e+13  -1.6626023e+13
            738  -6.2068433e+12  -6.2068433e+12  -4.0339653e+12  -7.2525351e+12
            740  -1.9312062e+13  -1.9312062e+13  -2.5354905e+13  -1.7317799e+13
            742  -6.6349192e+12  -6.6349192e+12  -3.8905747e+12  -7.8185236e+12
            744  -2.2152394e+13  -2.2152394e+13  -2.9140124e+13  -1.9799995e+13