# Probe 0 (0.65 0.078 0)
# Probe 1 (0.65 0.1 0)
# Probe 2 (0.05 0.06 0)
# Probe 3 (1.02 0.01 0)
#         Probe               0               1               2               3
#          Time
              2               (43.884351 -0.41963067 1.4598518)               (43.884351 -0.41963067 1.4598518)               (0.12698131 0.00014695188 0.0051798713)               (44.828488 -0.37453838 0.10748432)
              4               (51.899248 -0.45604979 1.9686936)               (51.899248 -0.45604979 1.9686936)               (0.60229365 0.001661967 0.02785745)               (53.670329 -0.385 0.070433872)
              6               (57.92638 -0.50373645 2.3372709)               (57.92638 -0.50373645 2.3372709)               (1.4473074 -0.010486352 0.056138195)               (60.546305 -0.43127723 0.11887588)
              8               (61.764151 -0.5159085 2.4594193)               (61.764151 -0.5159085 2.4594193)               (2.8939673 -0.022434697 0.10768424)               (65.493407 -0.46465809 0.24531567)
             10               (63.714354 -0.49258983 2.3635234)               (63.714354 -0.49258983 2.3635234)               (3.7887169 -0.017363513 0.12325664)               (68.609097 -0.47544715 0.39227203)
             12               (64.90692 -0.46525377 2.0584034)               (64.90692 -0.46525377 2.0584034)               (4.6050218 -0.006231514 0.12078611)               (70.998021 -0.48255658 0.54578166)
             14               (64.227692 -0.59748003 1.6365531)               (64.227692 -0.59748003 1.6365531)               (5.0552714 -0.053040471 0.092559761)               (71.198704 -0.51791994 0.68835009)
             16               (63.532162 -0.87135278 1.0740371)               (63.532162 -0.87135278 1.0740371)               (5.6189566 -0.108633 0.063054518)               (71.171424 -0.69041119 0.76904643)
             18               (62.053248 -1.0057724 0.53942235)               (62.053248 -1.0057724 0.53942235)               (6.1686549 -0.15167471 0.029951381)               (70.04879 -0.69633725 0.79306276)
             20               (61.10502 -1.0656945 0.0019751106)               (61.10502 -1.0656945 0.0019751106)               (6.9150385 -0.18099825 0.009114588)               (69.101239 -0.69665677 0.74667599)
             22               (60.283288 -1.1935084 -0.41254634)               (60.283288 -1.1935084 -0.41254634)               (7.8108835 -0.22389779 -3.2937999e-06)               (68.24261 -0.73352649 0.65388442)
             24               (60.041828 -1.2935274 -0.7588449)               (60.041828 -1.2935274 -0.7588449)               (8.8531458 -0.26445606 0.0047625676)               (67.742191 -0.7362044 0.50306384)
             26               (60.163115 -1.4450719 -0.9947504)               (60.163115 -1.4450719 -0.9947504)               (10.001264 -0.28585376 0.022410382)               (67.800845 -0.9616771 0.33905808)
             28               (60.593954 -0.88692489 -1.1751871)               (60.593954 -0.88692489 -1.1751871)               (11.223892 -0.23850774 0.052332184)               (68.048734 -0.62454717 0.16091807)
             30               (60.890639 -0.89956906 -1.2983866)               (60.890639 -0.89956906 -1.2983866)               (12.439138 -0.23826386 0.090642005)               (68.35138 -0.93956739 -0.0075478364)
             32               (60.849931 -1.1426679 -1.4011885)               (60.849931 -1.1426679 -1.4011885)               (13.619963 -0.23973692 0.13546747)               (68.110079 -1.4713535 -0.17621177)
             34               (60.685321 -1.8579788 -1.4699139)               (60.685321 -1.8579788 -1.4699139)               (14.765268 -0.2761074 0.18690783)               (67.85633 -2.5024448 -0.33104684)
             36               (60.604985 -2.5824447 -1.5183091)               (60.604985 -2.5824447 -1.5183091)               (15.895225 -0.30219714 0.2450305)               (67.654654 -3.6228175 -0.48161723)
             38               (60.030799 -2.5183625 -1.5437114)               (60.030799 -2.5183625 -1.5437114)               (16.971459 -0.31895323 0.30746793)               (66.54838 -3.6084487 -0.61491832)
             40               (60.085487 -2.88235 -1.5509481)               (60.085487 -2.88235 -1.5509481)               (18.032375 -0.3373996 0.37474318)               (66.471465 -4.1687746 -0.73509867)
             42               (58.698979 -2.3925781 -1.552443)               (58.698979 -2.3925781 -1.552443)               (18.981383 -0.36574348 0.44058664)               (64.032142 -3.252284 -0.86135)
             44               (58.027943 -2.2550155 -1.5253691)               (58.027943 -2.2550155 -1.5253691)               (19.906275 -0.37801209 0.50748459)               (59.958486 -2.3917467 -0.82595531)
             46               (54.932834 -5.5506311 -1.5143898)               (54.932834 -5.5506311 -1.5143898)               (20.73086 -0.52633212 0.57038975)               (53.293137 -5.9075843 -0.7488678)
             48               (52.160663 -6.5800614 -1.4834372)               (52.160663 -6.5800614 -1.4834372)               (21.544212 -0.57336563 0.63085131)               (47.363638 -8.4473182 -0.78873629)
             50               (46.741025 -12.798395 -1.2621505)               (46.741025 -12.798395 -1.2621505)               (22.198506 -0.83018649 0.68376079)               (41.911835 -11.751684 -1.1905481)
             52               (41.370711 -18.305289 -0.98068949)               (41.370711 -18.305289 -0.98068949)               (22.879856 -0.94121615 0.73438859)               (37.729969 -13.938643 -1.8427271)
             54               (34.098713 -25.764224 -0.75574103)               (34.098713 -25.764224 -0.75574103)               (23.051376 -1.6386466 0.7612149)               (28.941095 -19.299257 -2.0728174)
             56               (27.694428 -35.311978 -0.62928734)               (27.694428 -35.311978 -0.62928734)               (23.324413 -2.7749312 0.78897579)               (21.363949 -28.717554 -1.961258)
             58               (15.465926 -47.516936 -0.50952337)               (15.465926 -47.516936 -0.50952337)               (22.458363 -5.3097507 0.75745369)               (6.9577203 -38.884621 -1.7364007)
             60               (5.6427911 -59.473559 -0.32587905)               (5.6427911 -59.473559 -0.32587905)               (21.987849 -7.8215473 0.7370694)               (-5.0282477 -49.47691 -1.5074299)
             62               (-8.2678526 -72.386787 -0.15323376)               (-8.2678526 -72.386787 -0.15323376)               (20.573661 -11.386385 0.69004935)               (-22.056221 -59.291941 -1.2096723)
             64               (-20.43109 -83.839717 0.087517765)               (-20.43109 -83.839717 0.087517765)               (19.359152 -14.93417 0.65222167)               (-37.130722 -67.564961 -0.83287391)
             66               (-34.718105 -94.746529 0.32131557)               (-34.718105 -94.746529 0.32131557)               (17.715337 -18.769002 0.60623432)               (-54.075276 -74.053805 -0.27296295)
             68               (-49.033588 -105.5677 0.58677009)               (-49.033588 -105.5677 0.58677009)               (15.932698 -22.978189 0.55182246)               (-70.866368 -80.29772 0.2733119)
             70               (-62.292828 -113.96867 0.84278932)               (-62.292828 -113.96867 0.84278932)               (14.309926 -26.865796 0.49868611)               (-85.630163 -84.296778 0.98358867)
             72               (-76.20315 -123.14268 1.1070371)               (-76.20315 -123.14268 1.1070371)               (12.48661 -31.042893 0.43745261)               (-101.15309 -89.185262 1.9008065)
             74               (-88.130467 -129.68033 1.372466)               (-88.130467 -129.68033 1.372466)               (10.812136 -34.96841 0.37816572)               (-113.50062 -92.333418 3.2753989)
             76               (-102.49621 -139.09788 1.6248137)               (-102.49621 -139.09788 1.6248137)               (8.7694386 -39.411563 0.30351182)               (-129.80313 -97.309851 5.0289748)
             78               (-115.186 -145.28743 1.8989653)               (-115.186 -145.28743 1.8989653)               (6.7484599 -43.703017 0.22604963)               (-144.31971 -99.210536 6.9779552)
             80               (-131.84967 -155.04786 2.2307379)               (-131.84967 -155.04786 2.2307379)               (4.1182828 -48.687396 0.12462706)               (-166.51608 -103.92808 8.9830281)
             82               (-144.59735 -159.01954 2.6491436)               (-144.59735 -159.01954 2.6491436)               (1.7852214 -53.116642 0.032724274)               (-185.43173 -104.30214 10.647011)
             84               (-162.86161 -168.04971 3.1735456)               (-162.86161 -168.04971 3.1735456)               (-1.2466671 -58.296013 -0.086989022)               (-214.69152 -109.41008 12.164032)
             86               (-180.18161 -173.38476 3.7064457)               (-180.18161 -173.38476 3.7064457)               (-4.4662705 -63.516261 -0.21420079)               (-242.54724 -112.06207 13.34108)
             88               (-204.46585 -184.7355 4.2170446)               (-204.46585 -184.7355 4.2170446)               (-8.5795594 -69.690222 -0.37819836)               (-276.30434 -117.42163 13.761291)
             90               (-227.33801 -192.54686 4.8412522)               (-227.33801 -192.54686 4.8412522)               (-12.766917 -75.872294 -0.54559402)               (-307.5001 -121.03959 13.730636)
             92               (-257.21018 -205.74508 5.4849531)               (-257.21018 -205.74508 5.4849531)               (-17.893053 -83.038463 -0.75218001)               (-343.11945 -127.877 12.871296)
             94               (-284.43369 -214.36101 6.2156574)               (-284.43369 -214.36101 6.2156574)               (-22.995087 -90.017826 -0.95794605)               (-374.74944 -132.80326 11.812637)
             96               (-318.4243 -227.03259 6.5943816)               (-318.4243 -227.03259 6.5943816)               (-29.246549 -97.98309 -1.211033)               (-410.65474 -140.17522 11.276902)
             98               (-349.35681 -234.42678 6.882694)               (-349.35681 -234.42678 6.882694)               (-35.681168 -105.7972 -1.4718148)               (-442.72584 -144.19735 11.191006)
            100               (-387.23779 -246.35313 6.7970434)               (-387.23779 -246.35313 6.7970434)               (-43.457905 -114.59023 -1.7873547)               (-481.42309 -150.96478 11.401443)
            102               (-419.80992 -249.98466 6.8351402)               (-419.80992 -249.98466 6.8351402)               (-51.56691 -122.79998 -2.1162432)               (-513.36201 -152.06798 11.862983)
            104               (-460.99611 -262.27984 6.7344549)               (-460.99611 -262.27984 6.7344549)               (-61.08815 -132.15731 -2.5023145)               (-560.0177 -160.53367 12.840645)
            106               (-491.48429 -259.90595 6.8678653)               (-491.48429 -259.90595 6.8678653)               (-70.779384 -139.67028 -2.8947048)               (-593.41177 -159.7373 14.154755)
            108               (-531.50787 -269.0129 6.7568618)               (-531.50787 -269.0129 6.7568618)               (-82.110859 -147.91123 -3.3470963)               (-639.41435 -166.22897 16.570196)
            110               (-566.42404 -270.61172 6.5918885)               (-566.42404 -270.61172 6.5918885)               (-93.866224 -155.42477 -3.8215836)               (-680.68667 -168.75411 18.77048)
            112               (-619.75056 -285.85635 6.4307801)               (-619.75056 -285.85635 6.4307801)               (-108.44642 -164.01047 -4.4041093)               (-731.82376 -175.18379 20.793642)
            114               (-671.95557 -296.23162 6.5781979)               (-671.95557 -296.23162 6.5781979)               (-124.10704 -171.97747 -5.0351584)               (-782.79836 -179.08515 21.996269)
            116               (-734.60635 -313.8716 6.5857692)               (-734.60635 -313.8716 6.5857692)               (-142.13222 -180.52665 -5.763594)               (-842.98219 -187.35996 22.316507)
            118               (-786.45898 -325.63049 6.7155729)               (-786.45898 -325.63049 6.7155729)               (-157.39683 -187.38358 -6.3972373)               (-893.11571 -193.3205 22.496193)
            120               (-856.01972 -340.40997 6.4428811)               (-856.01972 -340.40997 6.4428811)               (-178.47481 -194.48082 -7.2325159)               (-963.14691 -201.70128 22.943101)
            122               (-917.16947 -338.84727 6.2771201)               (-917.16947 -338.84727 6.2771201)               (-197.72843 -198.17365 -7.9988731)               (-1027.3105 -200.11845 23.499509)
            124               (-997.25765 -344.75583 5.6642248)               (-997.25765 -344.75583 5.6642248)               (-219.34399 -200.33655 -8.843019)               (-1110.4249 -203.10248 24.128525)
            126               (-1070.8386 -338.14308 5.4543462)               (-1070.8386 -338.14308 5.4543462)               (-239.39369 -201.7028 -9.6077176)               (-1190.313 -198.06543 24.563153)
            128               (-1161.3939 -337.98775 4.817211)               (-1161.3939 -337.98775 4.817211)               (-261.4715 -202.23781 -10.449877)               (-1283.5595 -196.79878 24.907879)
            130               (-1242.1886 -325.9 4.6737989)               (-1242.1886 -325.9 4.6737989)               (-281.84973 -202.25614 -11.198121)               (-1369.7547 -188.1364 25.149594)
            132               (-1339.5454 -318.29501 4.0674469)               (-1339.5454 -318.29501 4.0674469)               (-304.36476 -200.43001 -12.013663)               (-1469.8857 -183.19527 25.430194)
            134               (-1424.9239 -310.94064 3.7283117)               (-1424.9239 -310.94064 3.7283117)               (-327.50249 -199.70781 -12.848809)               (-1557.8529 -178.36318 25.566672)
            136               (-1524.8702 -307.60688 3.3242137)               (-1524.8702 -307.60688 3.3242137)               (-352.00973 -198.76521 -13.751828)               (-1659.8776 -176.39519 25.769734)
            138               (-1610.0841 -308.8194 2.9091246)               (-1610.0841 -308.8194 2.9091246)               (-376.4985 -200.85175 -14.664896)               (-1746.2629 -177.22845 25.770164)
            140               (-1706.0124 -310.08462 2.5512319)               (-1706.0124 -310.08462 2.5512319)               (-401.88969 -203.15762 -15.634594)               (-1843.3828 -177.82756 25.849653)
            142               (-1786.8088 -314.2719 2.5166003)               (-1786.8088 -314.2719 2.5166003)               (-426.28653 -206.67064 -16.565743)               (-1924.2112 -180.65783 25.702304)
            144               (-1872.4627 -319.31533 2.1107663)               (-1872.4627 -319.31533 2.1107663)               (-449.75876 -211.17579 -17.484896)               (-2011.3576 -183.9517 25.517131)
            146               (-1936.5341 -323.33644 2.0126699)               (-1936.5341 -323.33644 2.0126699)               (-469.78464 -215.76939 -18.262616)               (-2077.5186 -187.08433 25.064265)
            148               (-2020.8394 -324.27863 1.1363211)               (-2020.8394 -324.27863 1.1363211)               (-492.00334 -219.64362 -19.121146)               (-2164.617 -187.82469 24.507186)
            150               (-2084.7517 -322.75135 0.54737882)               (-2084.7517 -322.75135 0.54737882)               (-512.04822 -222.05815 -19.88428)               (-2232.6242 -187.59658 23.615837)
            152               (-2170.8648 -328.38906 -0.95300166)               (-2170.8648 -328.38906 -0.95300166)               (-534.73026 -225.59588 -20.749624)               (-2319.2821 -191.26434 22.657934)
            154               (-2242.0656 -327.33449 -1.9406868)               (-2242.0656 -327.33449 -1.9406868)               (-558.93075 -228.6055 -21.642944)               (-2390.7988 -190.70895 21.472687)
            156               (-2331.5551 -327.22235 -3.6538104)               (-2331.5551 -327.22235 -3.6538104)               (-585.8654 -231.66198 -22.691175)               (-2479.4243 -190.62591 20.457223)
            158               (-2415.4061 -326.95866 -4.9643553)               (-2415.4061 -326.95866 -4.9643553)               (-615.23658 -235.16185 -23.84294)               (-2560.0926 -190.78201 19.432576)
            160               (-2519.6285 -330.36202 -6.8115792)               (-2519.6285 -330.36202 -6.8115792)               (-648.03186 -238.58375 -25.176685)               (-2663.591 -193.40093 18.760447)
            162               (-2616.9868 -333.21812 -8.119903)               (-2616.9868 -333.21812 -8.119903)               (-680.98493 -242.3544 -26.545469)               (-2759.3177 -195.55736 18.17129)
            164               (-2725.241 -334.55656 -9.5949109)               (-2725.241 -334.55656 -9.5949109)               (-716.78798 -245.13356 -28.062115)               (-2867.208 -196.79135 17.890617)
            166               (-2820.1523 -335.13929 -10.507943)               (-2820.1523 -335.13929 -10.507943)               (-751.67162 -247.34132 -29.552176)               (-2961.2458 -197.53593 17.598757)
            168               (-2928.7482 -334.98286 -11.787557)               (-2928.7482 -334.98286 -11.787557)               (-787.80457 -248.63157 -31.12203)               (-3071.7964 -197.92205 17.517815)
            170               (-3015.2773 -329.21225 -12.622612)               (-3015.2773 -329.21225 -12.622612)               (-819.76647 -247.89486 -32.515949)               (-3162.4199 -195.17712 17.355003)
            172               (-3125.4935 -326.39857 -13.92493)               (-3125.4935 -326.39857 -13.92493)               (-855.93692 -246.8079 -34.048105)               (-3275.576 -193.67851 17.376802)
            174               (-3200.9092 -325.27107 -14.528626)               (-3200.9092 -325.27107 -14.528626)               (-887.62007 -246.38131 -35.360569)               (-3355.6909 -193.341 17.251485)
            176               (-3298.7485 -318.17669 -16.269315)               (-3298.7485 -318.17669 -16.269315)               (-919.31664 -245.7892 -36.690184)               (-3456.946 -188.71127 17.240308)
            178               (-3374.4086 -306.98507 -17.649204)               (-3374.4086 -306.98507 -17.649204)               (-950.96462 -244.40675 -37.94262)               (-3536.9745 -181.08022 16.850565)
            180               (-3476.7185 -300.00734 -19.31449)               (-3476.7185 -300.00734 -19.31449)               (-985.97007 -242.85948 -39.34236)               (-3640.5008 -176.73249 16.717182)
            182               (-3571.9545 -294.19491 -20.275462)               (-3571.9545 -294.19491 -20.275462)               (-1024.3093 -241.80841 -40.84411)               (-3735.3769 -172.74944 16.323605)
            184               (-3686.1162 -287.3814 -21.710162)               (-3686.1162 -287.3814 -21.710162)               (-1063.7414 -240.76334 -42.452548)               (-3851.1445 -168.29472 15.997863)
            186               (-3790.0783 -280.57231 -22.685689)               (-3790.0783 -280.57231 -22.685689)               (-1104.8745 -238.99128 -44.125799)               (-3953.7125 -163.75326 15.408471)
            188               (-3910.3175 -281.32874 -24.010269)               (-3910.3175 -281.32874 -24.010269)               (-1147.7423 -238.48779 -45.927616)               (-4075.0826 -164.58597 14.897566)
            190               (-4004.5408 -280.85565 -24.587928)               (-4004.5408 -280.85565 -24.587928)               (-1186.6523 -238.08948 -47.573899)               (-4168.934 -164.97537 14.22702)
            192               (-4121.9807 -282.36987 -26.3662)               (-4121.9807 -282.36987 -26.3662)               (-1230.3466 -238.4118 -49.418713)               (-4286.044 -166.41933 13.711395)
            194               (-4221.0886 -278.95086 -27.780783)               (-4221.0886 -278.95086 -27.780783)               (-1273.0899 -237.70906 -51.194057)               (-4384.783 -164.92249 13.072993)
            196               (-4348.7051 -281.81828 -29.876386)               (-4348.7051 -281.81828 -29.876386)               (-1320.014 -238.29272 -53.151827)               (-4514.2008 -167.23492 12.945106)
            198               (-4446.5056 -285.28698 -31.120946)               (-4446.5056 -285.28698 -31.120946)               (-1364.0263 -239.60203 -54.929475)               (-4613.0869 -170.23069 12.856016)
            200               (-4558.796 -289.20124 -33.002409)               (-4558.796 -289.20124 -33.002409)               (-1408.2848 -241.19214 -56.756636)               (-4727.6134 -173.32406 13.091083)
            202               (-4656.9466 -281.40203 -34.676893)               (-4656.9466 -281.40203 -34.676893)               (-1451.4668 -241.39627 -58.504214)               (-4828.3237 -168.74926 13.015487)
            204               (-4779.7215 -282.30794 -36.342808)               (-4779.7215 -282.30794 -36.342808)               (-1496.1324 -241.5926 -60.331146)               (-4955.3144 -170.15453 13.117023)
            206               (-4890.6393 -269.09742 -37.293521)               (-4890.6393 -269.09742 -37.293521)               (-1543.1994 -239.60283 -62.190956)               (-5068.0592 -162.25513 12.87998)
            208               (-5015.137 -259.51922 -38.578162)               (-5015.137 -259.51922 -38.578162)               (-1591.8763 -236.97069 -64.172681)               (-5194.3857 -157.54779 12.634913)
            210               (-5123.3567 -255.64715 -39.20152)               (-5123.3567 -255.64715 -39.20152)               (-1637.5838 -235.72182 -66.013188)               (-5305.6823 -156.16729 12.074778)
            212               (-5254.7628 -252.61313 -40.530611)               (-5254.7628 -252.61313 -40.530611)               (-1684.6416 -234.12834 -67.942848)               (-5441.0123 -155.07212 11.581107)
            214               (-5367.0343 -252.40727 -41.3646)               (-5367.0343 -252.40727 -41.3646)               (-1731.5697 -233.36193 -69.806542)               (-5557.398 -155.71932 10.922645)
            216               (-5503.6051 -257.12955 -42.763165)               (-5503.6051 -257.12955 -42.763165)               (-1780.7406 -234.62735 -71.831021)               (-5696.4147 -158.66804 10.493478)
            218               (-5617.782 -263.45515 -43.46049)               (-5617.782 -263.45515 -43.46049)               (-1829.0732 -237.40086 -73.781147)               (-5811.5663 -162.52382 9.9834907)
            220               (-5747.0203 -272.83183 -44.881168)               (-5747.0203 -272.83183 -44.881168)               (-1878.2247 -240.10689 -75.836052)               (-5944.3312 -168.91626 9.6715208)
            222               (-5867.6095 -283.62652 -45.633153)               (-5867.6095 -283.62652 -45.633153)               (-1929.7313 -242.88788 -77.935869)               (-6065.2936 -176.36634 9.2167291)
            224               (-6009.5475 -288.60446 -47.110928)               (-6009.5475 -288.60446 -47.110928)               (-1983.7383 -245.41178 -80.21405)               (-6210.5451 -179.50528 8.9061879)
            226               (-6127.8042 -290.55509 -48.089631)               (-6127.8042 -290.55509 -48.089631)               (-2035.1082 -248.1282 -82.374795)               (-6329.7016 -180.33778 8.3958788)
            228               (-6266.4395 -300.86499 -49.791366)               (-6266.4395 -300.86499 -49.791366)               (-2087.9025 -253.28041 -84.644126)               (-6472.539 -186.74185 7.948698)
            230               (-6377.3529 -309.52926 -51.167106)               (-6377.3529 -309.52926 -51.167106)               (-2138.163 -258.52138 -86.796509)               (-6585.034 -192.34065 7.1643577)
            232               (-6518.6205 -322.51427 -53.033919)               (-6518.6205 -322.51427 -53.033919)               (-2192.0466 -265.05882 -89.127516)               (-6729.2708 -200.53243 6.5021599)
            234               (-6626.9965 -325.04822 -54.734657)               (-6626.9965 -325.04822 -54.734657)               (-2240.708 -269.47481 -91.225767)               (-6841.4442 -202.52351 5.4449203)
            236               (-6769.6954 -337.57126 -57.349589)               (-6769.6954 -337.57126 -57.349589)               (-2292.8708 -275.31124 -93.486861)               (-6986.6161 -210.22012 4.6071796)
            238               (-6893.5986 -331.45608 -59.949909)               (-6893.5986 -331.45608 -59.949909)               (-2347.0055 -278.22604 -95.775429)               (-7110.5951 -206.03857 3.4710818)
            240               (-7046.124 -333.21627 -62.361732)               (-7046.124 -333.21627 -62.361732)               (-2405.7135 -279.20178 -98.291119)               (-7261.6542 -207.4007 2.708276)
            242               (-7176.7878 -330.47167 -63.746351)               (-7176.7878 -330.47167 -63.746351)               (-2464.557 -279.59288 -100.72944)               (-7389.101 -205.62951 1.8249489)
            244               (-7331.7553 -334.45431 -66.067848)               (-7331.7553 -334.45431 -66.067848)               (-2525.6891 -279.8899 -103.32868)               (-7544.0254 -208.07463 1.1573224)
            246               (-7461.5674 -335.16896 -67.992561)               (-7461.5674 -335.16896 -67.992561)               (-2586.3447 -281.15273 -105.88067)               (-7672.7609 -208.52779 0.26237734)
            248               (-7615.5373 -335.11302 -70.326155)               (-7615.5373 -335.11302 -70.326155)               (-2648.403 -280.96665 -108.55725)               (-7829.6761 -208.6688 -0.31690194)
            250               (-7730.4118 -336.2307 -71.892507)               (-7730.4118 -336.2307 -71.892507)               (-2705.6863 -281.26914 -110.98376)               (-7949.2606 -209.44618 -1.069766)
            252               (-7890.4748 -334.28216 -74.740099)               (-7890.4748 -334.28216 -74.740099)               (-2767.7511 -282.42607 -113.63953)               (-8113.3929 -207.53704 -1.4104983)
            254               (-8027.5371 -325.52021 -76.995653)               (-8027.5371 -325.52021 -76.995653)               (-2827.9054 -282.91761 -116.17619)               (-8257.1087 -201.32003 -1.9451348)
            256               (-8210.7355 -318.43542 -79.555474)               (-8210.7355 -318.43542 -79.555474)               (-2892.0972 -283.14143 -118.92368)               (-8443.763 -196.96353 -1.9494044)
            258               (-8386.8582 -314.74041 -80.635028)               (-8386.8582 -314.74041 -80.635028)               (-2962.5172 -283.9541 -121.83192)               (-8620.641 -194.57623 -2.0814853)
            260               (-8590.9885 -308.12915 -82.352785)               (-8590.9885 -308.12915 -82.352785)               (-3036.4293 -284.2493 -124.98042)               (-8826.3959 -190.02612 -1.9897102)
            262               (-8774.8502 -301.31145 -82.954194)               (-8774.8502 -301.31145 -82.954194)               (-3109.9362 -282.71354 -128.08048)               (-9010.3309 -185.96697 -2.1048674)
            264               (-8985.1898 -293.51406 -84.478364)               (-8985.1898 -293.51406 -84.478364)               (-3185.9353 -281.36413 -131.32155)               (-9224.2098 -180.68262 -2.1554636)
            266               (-9163.3532 -300.74503 -84.983512)               (-9163.3532 -300.74503 -84.983512)               (-3259.7294 -281.3583 -134.43194)               (-9403.341 -186.00351 -2.5331013)
            268               (-9377.2952 -308.23642 -86.8802)               (-9377.2952 -308.23642 -86.8802)               (-3338.8062 -282.01222 -137.80354)               (-9620.1248 -190.66371 -2.8280169)
            270               (-9559.2744 -321.805 -88.308754)               (-9559.2744 -321.805 -88.308754)               (-3415.0405 -283.27892 -141.03668)               (-9806.151 -199.44623 -3.5497281)
            272               (-9770.4926 -313.66142 -90.916765)               (-9770.4926 -313.66142 -90.916765)               (-3493.0618 -281.00798 -144.40797)               (-10022.496 -194.09028 -4.0212637)
            274               (-9952.515 -289.53368 -93.025297)               (-9952.515 -289.53368 -93.025297)               (-3569.5972 -273.92051 -147.5942)               (-10207.988 -178.32695 -4.8772264)
            276               (-10171.841 -269.35799 -95.986264)               (-10171.841 -269.35799 -95.986264)               (-3652.7118 -266.49171 -151.05013)               (-10431.593 -165.88012 -5.3617421)
            278               (-10368.301 -241.86608 -98.280284)               (-10368.301 -241.86608 -98.280284)               (-3737.7053 -257.00348 -154.51817)               (-10628.074 -148.0005 -6.2437175)
            280               (-10594.431 -212.10103 -101.35565)               (-10594.431 -212.10103 -101.35565)               (-3827.3575 -245.78997 -158.23708)               (-10857.319 -129.35335 -6.8004068)
            282               (-10771.269 -201.66891 -103.40949)               (-10771.269 -201.66891 -103.40949)               (-3910.0129 -237.73144 -161.61692)               (-11034.638 -122.2153 -7.9146919)
            284               (-10975.325 -198.18616 -106.64844)               (-10975.325 -198.18616 -106.64844)               (-3995.6974 -231.79574 -165.16474)               (-11240.154 -120.30549 -8.7018264)