/*--------------------------------*- C++ -*----------------------------------*\
  =========                 |
  \\      /  F ield         | OpenFOAM: The Open Source CFD Toolbox
   \\    /   O peration     | Website:  https://openfoam.org
    \\  /    A nd           | Version:  7
     \\/     M anipulation  |
\*---------------------------------------------------------------------------*/
FoamFile
{
    version     2.0;
    format      ascii;
    class       volScalarField;
    location    "6000";
    object      omega;
}
// * * * * * * * * * * * * * * * * * * * * * * * * * * * * * * * * * * * * * //

dimensions      [0 0 -1 0 0 0 0];

internalField   nonuniform List<scalar> 
33730
(
2180.8584
834.61868
4550.0201
3962.732
1876.6715
7513.6
807.94858
3964.2298
800.25392
673.58145
738.29068
834.47922
2067.6889
828.94031
1262.2484
1271.5694
9542.0785
9529.5427
2023.7656
4697.6249
18971.896
7375.4062
7593.1165
1879.2467
1859.8935
13078.207
12718.816
4360.7362
4426.229
7323.2156
7623.2895
1821.6862
1873.4304
730.43628
668.81802
675.71234
729.57985
1385.8655
1544.6237
1384.1653
1555.8804
562.11762
1866.6712
1866.3046
1879.0503
487.76515
492.5611
2071.057
2091.8214
4907.7826
5018.024
2017.9571
2083.3437
660.36287
654.61552
2024.0132
2074.842
659.97962
2084.7242
2047.5954
655.55935
4677.3564
4770.7038
19077.4
18800.039
4793.7323
4734.5901
18842.795
19131.706
2171.7928
3602.135
3577.5596
6890.6867
6960.7835
13513.382
13430.789
32918.582
33068.716
4313.4584
12735.858
12693.053
4390.4036
12921.852
13210.423
4438.7936
4500.312
21227.001
21354.97
8139.07
8305.4314
20421.693
20954.18
7962.0158
8061.3067
12361.652
12816.626
4201.2413
4319.3264
13128.485
4413.6593
13088.455
4486.1936
3057.0848
3382.7603
1159.9764
1019.2434
1892.7503
1863.8721
1873.8727
1888.6762
1515.3603
1358.1981
1390.41
1544.7704
1569.1991
1403.3669
1399.2455
558.96723
1549.7127
489.26955
1828.5324
1816.0428
1869.9834
1868.7311
3097.9047
3058.9741
3399.393
1148.5829
3437.5002
4102.7274
4051.7273
4268.584
4237.5959
3141.8009
3088.9846
3460.2907
3424.2414
1139.156
4077.9976
4011.952
4209.0847
4262.4507
999.13475
1002.859
4825.8854
4733.5707
4875.879
4690.0128
4868.2688
4777.3189
4762.1352
5241.2285
4728.334
5129.4267
4656.2126
5197.2004
355.47216
418.56712
708.56636
844.08046
832.02572
700.33299
717.06215
856.2119
4983.4913
4894.1231
5111.4962
5015.9754
8807.1394
8957.8364
9005.8549
9239.3478
4736.1929
4899.4252
4981.7008
5082.0639
528.98697
528.1548
685.04995
671.31624
2176.3217
2232.8184
682.25905
2242.8701
2199.1169
675.97592
3581.4287
3590.6755
6880.5142
6893.6882
7034.1032
3664.4119
3678.9891
7001.9958
13531.799
13443.526
33210.228
32941.16
13310.792
13292.192
32301.835
32791.064
3663.2366
3706.6469
7084.573
7016.9293
3639.7011
3628.178
7003.5263
6944.835
13366.774
32958.552
32566.507
13542.313
13589.65
13583.718
33157.772
33177.248
2228.9718
4101.4216
4113.1059
7555.1605
7633.0114
12932.3
13014.878
19015.535
19194.917
12944.792
12832.991
19169.196
18911.319
29818.911
47010.895
30398.774
47506.433
30336.151
29979.066
47764.64
47589.864
7995.9069
20811.638
21062.802
8073.4548
20882.248
20463.813
8019.8296
8088.1823
20927.456
21311.697
8136.1485
8221.3436
21543.034
21653.167
8311.9706
8407.8764
38570.246
37904.763
11836.727
11931.899
38009.829
38601.135
12031.695
12049.677
37035.639
35995.272
11497.214
11589.18
11715.837
37824.756
37546.535
11770.017
19739.336
20403.278
7649.4546
7785.9792
7943.7749
20884.293
20971.969
8110.2842
21336.348
21575.922
8183.6281
8242.8114
8209.9506
21461.256
21170.075
8302.9679
2730.9178
6965.1677
7357.2281
2646.954
6269.9801
5906.0663
8069.1566
8211.5496
8527.8877
2481.6825
2553.7004
2145.8594
1960.4712
1994.8086
2191.0881
5345.1641
5242.4453
4746.2001
4811.0812
4622.6939
5214.8603
5112.8688
4687.9546
4653.8941
4747.3738
4850.3171
4728.5346
4783.8345
4955.5356
4867.9146
4850.863
4025.122
3955.4888
3840.4227
4129.7296
3327.5717
3001.0239
3121.6382
3045.9541
3383.597
1141.9997
3454.059
4107.1198
4204.0225
4011.2837
4288.2513
1017.0493
4282.9996
4163.2754
4094.9071
4336.9095
3516.7255
3472.9482
3139.8916
3187.5845
1161.702
3143.4213
3073.6006
3382.5585
1152.8718
3443.5931
1018.4055
1017.8336
4080.1466
4239.6127
3995.2703
4169.2592
357.19368
355.27015
419.4105
725.96283
850.70262
855.77206
713.10577
848.45313
720.2949
5101.1744
4926.8311
4481.4562
4606.9085
4576.2274
4625.5696
4498.0884
4723.5191
4909.7342
4795.2584
4712.9436
4802.1452
5297.4243
4778.89
5182.567
4701.401
7255.5616
7560.2433
2648.1915
6439.0509
6157.4595
7135.723
7304.2188
2638.1526
6185.0688
6042.8185
8271.458
8416.9095
8490.4344
8613.827
2464.5627
2459.5639
8423.9856
8558.0076
8779.4012
8899.5094
9483.7552
9597.0716
9304.6448
9404.7375
9438.0012
9281.1462
9691.5969
9493.3911
10031.229
9629.3877
10156.219
9996.7432
9617.4296
10249.336
9817.39
7341.1649
7418.9888
2693.5162
6338.69
6254.9122
7305.4667
7502.4366
2649.8803
6393.7518
6216.5353
8517.6312
8636.2648
8604.3607
8719.2706
8468.5514
8604.5839
8704.5691
8811.9619
2464.7424
2519.9427
9394.3766
9227.4776
9791.0363
9592.317
9225.8242
9072.484
9473.8584
9281.3814
9758.671
9398.4669
10013.798
9599.5884
9941.4353
9565.4904
10360.251
9935.3173
1959.3432
1905.7373
2105.4718
2154.2868
1914.6749
1938.3186
2122.7141
2106.4389
10261.497
10501.858
9828.3304
10014.225
10422.158
9736.4873
10644.4
9895.976
10281.314
9829.3873
10143.486
10386.458
9477.0702
9656.2771
10205.346
9771.9778
10629.831
10135.044
10009.103
9588.5191
10256.814
9781.5037
10362.677
10773.67
9680.2065
10013.899
10128.946
9320.0482
10501.972
9602.1845
9661.3699
8686.576
9968.3407
8901.8538
9903.7678
9121.2891
10122.393
9274.7203
9452.0041
8507.5691
9632.4794
8623.7516
9371.0914
10187.461
10381.261
436.79991
611.96373
503.48736
499.04637
605.13345
1042.9797
1071.7842
1249.3695
1211.9811
1419.6668
1458.2786
1664.1283
1625.6586
1614.6492
1402.7326
1440.3316
1659.9231
1053.3346
1029.804
1205.0775
1226.9196
1088.3821
1261.0632
1257.0648
1674.7921
1471.0137
1486.1246
1697.1181
8894.6297
8982.9503
8869.6708
8972.5994
9211.7732
9338.3481
9015.3925
9136.2422
12259.741
12422.527
12554.103
12590.632
12658.402
12800.012
12886.905
12867.11
8453.7199
8641.9364
8784.6496
9005.84
9048.8462
9128.9356
9098.5272
9222.0398
510.3712
508.96566
482.10835
668.71282
655.41403
2239.613
4092.3965
4122.6336
2297.8709
4198.373
4214.0283
667.43918
2301.173
4172.791
4255.6889
2261.9722
4155.1522
4168.1325
658.6462
7547.9773
7561.8276
7717.2397
7673.6503
12983.365
13053.822
19026.099
19161.733
12966.496
12862.143
18821.044
19085.029
30072.647
47477.497
30531.383
47783.772
30363.414
47530.029
29952.456
47221.786
12755.944
12845.426
18757.077
18927.144
12795.145
12717.01
18894.891
18684.984
29207.848
29985.191
46736.878
46134.01
47226.928
47102.305
30035.923
29709.261
7768.4531
7680.1918
7687.5092
7616.1797
12922.95
19077.287
18795.291
12802.916
30507.487
30249.638
47347.715
47606.893
30157.177
47274.098
46942.024
29569.206
13065.425
12998.927
19097.979
19218.398
12978.054
13069.728
19055.701
19219.271
13106.562
13025.739
19231.731
19014.53
30166.143
30692.595
47685.515
47263.115
30126.32
47909.679
47471.928
30654.841
4051.6196
4081.9929
2198.3289
4744.5784
4709.5321
6293.383
6241.9965
10629.009
10556.539
16360.997
16095.316
6344.0855
6328.6483
16226.912
10646.194
10745.537
16397.054
19615.26
19509.273
23975.15
24208.019
24364.523
19785.933
19801.757
24291.052
24273.483
19734.618
24395.496
19785.691
19464.322
19451.259
24035.188
23893.899
28436.949
28172.128
42980.824
43744.863
53326.164
65744.512
66540.65
53746.297
44301.615
28618.03
28475.974
43675.455
66596.304
67332.238
54147.973
54045.371
43599.657
28485.55
28606.068
43866.334
43621.544
28271.086
28058.354
42990.855
54162.137
66503.38
66943.258
54501.865
66285.354
66988.286
54271.925
53899.374
37711.816
37094.923
11636.608
11694.98
37693.312
38290.456
11763.758
11785.951
37798.724
37583.531
11664.977
11706.78
36012.793
37122.662
11614.426
11608.276
37854.582
37010.743
11754.25
11833.262
38143.804
38554.93
11925.298
11970.47
39160.097
38140.889
12177.085
12119.364
38695.79
12081.122
12170.275
39257.146
41048.052
40399.835
40582.604
41197.636
39483.043
38320.303
40324.883
40005.545
11026.686
34894.076
35986.13
11128.261
36853.414
37065.782
11312.474
11362.789
37521.247
38075.872
11537.885
11618.557
11694.258
37999.532
37430.04
11743.029
38758.072
38085.871
11859.536
11941.463
38630.789
39116.804
11976.089
11998.628
38502.183
38887.179
11977.66
11923.539
38313.748
37389.444
11936.015
11930.595
324.90534
5648.2983
5575.2525
5714.4892
5797.0083
19787.685
19864.188
17991.185
18147.981
19041.931
19169.812
20935.754
20970.382
5279.7425
5209.9536
5523.6284
5584.4121
20156.441
19069.556
16829.95
18189.201
16552.181
18457.695
16868.782
15560.523
15885.36
17230.575
17778.039
19285.919
17547.962
19481.764
4764.4764
4721.4113
4974.0394
5023.2191
5101.5694
5005.21
5067.5253
5188.2839
4298.0404
4210.9687
4399.1506
4501.0263
3773.0587
3628.1234
3741.6489
3918.2241
3811.2643
3784.1724
3936.1832
3988.7964
4533.5646
4411.3631
4465.7995
4609.7509
10396.998
10585.709
9557.1007
9699.4152
10156.149
9348.3475
10328.457
9469.012
9688.5062
8698.7644
9831.31
8791.1898
9905.1323
8881.0065
10066.827
8995.2599
9521.7648
9651.6808
8547.187
8627.0832
10038.542
10157.296
9222.8869
9310.6408
9968.8344
9176.4147
10126.045
9285.3453
9564.3489
9673.2223
8576.0035
8650.2875
10198.172
9522.2067
10366.735
9644.8087
10049.9
10218.909
9619.9843
9749.3954
10167.816
10265.31
9708.3491
9788.6025
10294.091
10402.951
9589.0741
9673.8295
10398.997
9714.9028
10580.016
9848.084
10475.917
10672.688
10027.065
10192.411
10247.993
9817.642
10429.987
9956.8077
10639.138
10832.789
9934.7007
10091.662
9326.8231
8966.6592
9601.524
9195.4061
9122.0173
9457.1683
8962.207
9267.8934
9058.0197
8883.4606
9666.3432
10020.39
9292.485
9605.3313
8156.1864
8296.0313
8454.4554
8578.8039
7003.2665
7254.8654
2565.207
6151.4623
5913.2916
7315.8457
7430.9005
2667.5298
6325.86
6202.2716
7243.7669
7260.9614
2612.0416
6157.5598
6151.6854
8410.4971
8556.0304
8447.2462
8580.326
2434.9919
2494.5006
8509.9997
8644.3372
8642.3384
8772.5177
9505.16
9333.4832
9665.6127
9482.5639
9962.5498
9595.6436
10029.042
9632.1991
9398.3428
9246.1744
9449.9414
9279.1643
10067.028
9676.8099
10249.125
9837.6139
1953.944
1912.5429
2090.7422
2135.3312
9997.0024
9615.8136
10173.394
9752.5003
9639.4637
9809.8285
9467.5612
9623.056
9446.6886
9288.4583
9607.4718
9421.0431
10209.255
10392.34
9813.1925
9973.3703
8654.6525
8779.271
8795.4211
8916.9644
8475.4718
8614.5674
8613.1973
8732.2401
7319.1352
7420.6933
2707.8581
6236.8774
6324.1029
7472.2028
7589.2638
2733.2121
6493.588
6383.5382
2529.7306
2550.3332
7285.3834
7259.5266
2703.5737
6183.2499
6209.4449
7180.325
7279.3475
2650.2032
6207.3446
6114.4022
8330.9692
8449.7677
8454.2484
8557.3431
2489.5006
2550.7081
8462.331
8568.4672
8443.7863
8563.6175
2176.3475
1981.0902
1981.5071
2181.3923
2012.996
1957.5679
2138.8759
2189.3358
9417.689
9221.1622
9441.1915
9251.6469
9938.7812
9528.2492
9999.9714
9585.9127
9277.6563
9103.2561
9420.1584
9224.8323
9804.617
9422.8474
9962.4786
9548.1264
448.7537
623.63146
514.1478
439.37853
511.54267
619.7208
616.13736
507.67833
1243.4611
1073.1431
1255.0912
1088.4799
1630.1498
1444.2726
1472.1752
1661.7908
1689.0943
1473.9597
1459.853
1680.9801
1262.0012
1082.2048
1241.335
1067.8444
1667.0241
1465.2953
1505.1333
1711.7842
1254.1323
1079.5257
1279.0286
1104.0799
9864.7904
9082.0942
10197.681
9336.5684
9465.5386
8726.5982
9732.2012
8923.1455
9049.4393
9275.6053
8152.643
8308.4351
9419.8794
9699.6639
8466.2154
8668.4106
9555.5363
9834.734
9144.3624
9374.2408
10077.651
9418.7148
10437.243
9710.0753
9683.8218
9048.1157
9963.0491
9268.4676
9920.7489
10283.411
9497.5419
9807.9399
10336.097
10530.712
9892.4687
10056.33
10243.839
10312.45
9819.3807
9861.6976
10420.154
10493.563
9744.0935
9787.8946
10499.647
10692.97
9801.1393
9954.375
10267.466
9435.5252
10447.861
9572.1594
9781.1422
8770.4719
9938.8025
8881.4562
10203.809
9382.9785
10281.65
9436.6441
9722.3024
9803.3896
8727.3734
8777.1528
20691.043
20731.664
18859.237
18947.966
19333.696
19397.267
21153.852
21151.668
5479.4707
5398.4611
5604.7473
5698.093
20304.665
19901.252
20153.797
20229.31
18384.142
18505.301
19008.94
19085.177
20873.245
20887.206
5422.4087
5302.5915
5392.719
5500.1009
20050.943
19377.153
18598.054
18821.66
17174.544
16948.11
17278.488
17588.531
15954.773
16234.549
17693.067
19264.484
17529.74
19402.34
16501.331
17906.638
18113.388
16706.516
4966.0987
4825.6911
4891.7958
5058.829
4852.3106
4758.6058
4836.1274
4924.0171
17593.773
19100.344
17410.371
19278.07
16394.104
17767.126
18022.328
16634.411
18061.092
19622.996
17924.744
19732.953
16945.557
18334.971
18499.166
17112.513
17020.401
16061.859
16216.061
17210.843
17068.088
16988.061
16048.949
16101.655
15796.886
16575.838
15674.316
16742.08
16612.22
15694.225
16581.646
15682.375
16092.765
16817.131
15908.15
17062.624
16415.031
15555.383
15708.106
16621.615
16547.234
17293.191
16318.45
17555.414
16849.799
15929.645
17086.644
16136.446
16187.392
15532.906
15641.809
16325.509
15326.194
16227.21
16100.517
15426.839
16211.557
16205.916
15555.569
15531.836
15574.585
16066.067
15446.202
16238.918
15277.473
16017.094
16162.634
15382.924
16678.353
15977.999
16457.612
15789.272
15589.01
16378.318
16577.508
15758.55
20818.273
20821.228
19005.95
19051.587
18801.335
18844.31
20553.554
20532.856
5570.3879
5499.172
5560.8893
5632.8815
19704.436
19990.216
20514.571
20547.478
18748.331
18827.713
19336.349
19444.05
21215.424
21242.009
5528.6923
5439.8904
5597.0849
5674.7562
20401.971
19705.505
19284.264
19395.487
17596.341
17718.241
18151.719
16597.961
16751.361
17983.607
19109.295
19180.389
17555.719
17464.527
17884.392
17977.727
16536.154
16619.766
17534.019
19005.663
17366.387
19172.696
17740.577
16409.958
16606.754
17970.936
18069.69
19611.526
17874.84
19777.795
18273.398
16860.723
18507.109
17089.613
4940.4365
4864.3968
4993.1832
5069.4461
4974.2924
4925.7489
4990.2105
5048.6677
16105.775
16797.291
15854.22
17090.36
16344.348
15468.315
15705.245
16635.34
17578.869
16595.953
17396.533
16433.882
16968.678
16054.941
17136.901
16200.066
15709.383
16328.928
15415.616
16672.62
15880.049
16220.625
15034.851
15313.507
16142.986
16914.64
15935.494
17148.906
15515.211
16431.905
16658.42
15715.557
15151.026
15503.552
14891.525
15821.11
15417.254
15711.478
14711.531
14947.551
16230.763
15532.973
16009.285
15344.721
15133.653
15898.05
16104.122
15309.582
15557.119
15965.86
15334.937
16236.287
15152.565
15889.944
16143.979
15362.685
16746.477
16058.95
16591.05
15927.64
15738.728
16521.604
16661.112
15857.59
3728.5612
3699.6733
3857.6988
3899.1326
3714.1287
3634.0318
3789.5346
3884.3419
4392.0581
4257.6435
4371.9144
4499.2507
4452.7555
4331.7365
4368.3425
4495.663
3656.0287
3622.697
3770.3923
3835.9437
3652.9973
3620.4305
3773.2507
3812.741
4263.8422
4200.7611
4322.5478
4385.7487
4356.3338
4233.7143
4314.6019
4461.5131
15336.826
15816.512
15242.435
15945.816
16141.671
16326.955
15529.696
15682.403
15805.417
15077.885
15922.711
15164.448
16275.913
15345.571
15485.045
16111.924
15568.625
15688.939
14977.333
14876.811
15238.613
14264.638
14375.657
15377.184
15262.036
15854.327
15141.017
16009.81
15532.537
15654.112
14507.381
14640.947
15364.101
15860.797
15261.396
15988.338
15821.427
15080.428
14900.937
14246.356
14443.723
15161.309
15517.87
15326.966
14635.9
14786.815
13864.386
14567.467
13680.923
14804.458
15159.259
14195.238
14993.629
14030.335
15676.787
15927.102
15102.938
15314.203
15901.395
15139.245
15650.539
14935.289
15798.855
16297.11
15685.883
16432.015
16267.501
15493.653
15593.175
16389.186
14878.019
15203.79
14650.044
15480.452
15162.14
14466.873
14682.338
15429.978
15221.555
15649.931
15053.644
15850.331
15597.209
14859.148
15783.653
15017.221
15419.561
14741.313
14949.681
15666.635
16003.511
15276.571
16112.49
15362.594
14341.243
15099.84
14138.356
15347.015
15746.11
15654.36
14621.495
14731.914
14341.363
13583.846
14578.846
13757.597
13993.964
13070.654
13810.27
12946.388
14964.428
14829.52
14011.322
14125.153
14351.426
13399.462
14221.881
13290.883
13155.226
12470.871
13292.636
12568.433
12816.064
12028.322
12128.585
12701.788
13487.375
12764.259
13611.159
12861.167
13078.82
12311.405
12984.811
12269.158
13905.068
14108.47
13209.33
13352.998
13612.174
12739.495
13457.673
12635.452
14241.814
13489.027
13638.682
14432.044
12978.872
13715.718
12847.976
13879.218
12857.285
12975.96
12191.75
12274.769
12514.817
11813.724
12410.849
11711.578
13055.815
12372.643
12484.192
13201.184
11992.556
12600.665
11928.567
12713.877
13053.475
13927.544
14032.97
13115.398
13696.044
14471.425
14611.724
13794.964
14718.17
13906.857
14872.781
446.17144
620.05114
594.08575
951.14387
756.22023
744.10052
933.17605
919.5114
931.71737
729.04295
733.6041
965.85159
767.34905
1317.9945
1303.2772
1528.9107
1532.5164
1364.8951
1395.4168
1623.1195
1585.7428
1889.953
1933.6786
2149.2538
2114.2165
2050.2404
1824.7204
1827.4524
2060.294
2386.2874
2379.8943
2586.8439
2603.4939
2436.6554
2467.6242
2662.3923
2643.1403
3033.4351
3035.3633
3221.1916
3230.9271
3191.1363
2986.8542
3003.5746
3215.508
3201.7166
3013.1035
3047.5145
3264.4486
2606.0152
2377.2455
2391.0074
2626.3496
2471.6008
2422.7771
2651.1622
2693.0127
3261.2267
3059.5963
3095.2472
3294.8754
1347.1504
1328.2452
1556.3513
1587.096
1280.7068
1281.8563
1505.9564
1498.3781
2042.8388
1800.0702
1798.2213
2051.8626
2087.3527
1856.235
1895.3182
2138.314
1361.7556
1380.2785
1609.6936
1596.355
2128.777
1912.7274
1913.9759
2144.626
2161.5213
1928.4264
1958.0782
2210.0007
3215.313
3046.8754
3091.0796
3297.9261
2651.9793
2453.9906
2471.7343
2684.0996
2551.093
2525.4564
2725.9354
2764.1105
3342.9432
3139.0703
3168.7973
3370.6176
12470.69
12548.283
12420.939
12365.733
12418.897
12528.326
12605.91
12599.311
12918.621
13050.775
13048.644
12929.545
12538.963
12675.059
12772.593
12799.132
11756.434
11933.517
12127.94
12164.608
12345.317
12478.029
12532.56
12556.797
12679.924
12818.515
12841.267
12836.937
12754.378
12841.868
12776.641
12722.121
485.68042
686.79808
706.27237
484.26259
693.6752
703.81674
446.66541
701.62282
697.71962
669.81302
673.29342
2213.3776
4075.8777
4060.9256
4722.2016
4744.844
2266.7695
4167.2217
4167.4874
4838.7424
4848.7025
4210.5089
4140.1374
2266.3929
4899.5926
4788.9415
4119.4485
4122.0587
2233.8523
4788.9397
4801.8709
6326.2202
6261.2128
10597.121
10545.224
16162.188
15938.96
6307.6496
6271.3334
10534.441
10657.649
16006.242
16191.06
6441.422
6413.7764
10741.625
10832.77
16286.476
16418.906
6426.7724
6388.271
10762.86
10657.4
16352.992
16076.127
19636.251
19523.362
23939.626
24179.983
19764.598
19737.41
24258.491
24198.46
19347.651
19373.268
23822.142
23742.904
19707.026
19655.166
24144.6
24236.412
28397.578
28110.033
43176.684
44239.341
53905.005
66034.712
67208.805
54176.781
28377.094
28509.03
44987.01
44340.083
67383.724
67914.435
54647.035
54295.012
28376.437
28415.449
44036.472
44456.727
67374.274
66858.061
54306.786
54371.39
43943.357
28023.332
27860.038
42938.754
53953.344
66848.922
66084.753
53583.707
19339.19
19231.526
23625.866
23858.033
19531.583
19496.701
23989.085
23949.544
19507.363
19446.538
23915.273
24034.35
19201.928
23668.293
19244.57
23638.81
28045.005
27768.077
43060.735
42043.334
28094.854
28186.794
43081.378
43492.143
66562.484
53542.813
53460.65
66008.526
65991.971
65069.07
52298.118
52853.24
66611.6
66728.206
53942.974
53811.034
53776.346
66270.322
66187.116
53467.711
28221.099
28113.316
43626.762
43462.807
27798.394
27858.961
42813.416
43074.921
6509.9827
6457.4879
10808.017
10870.533
16504.869
16281.194
6393.7657
6356.5412
10786.918
10665.705
16267.792
16453.809
6402.8801
6368.0502
10818.825
10715.07
16457.393
16323.337
6374.097
6340.5211
10709.945
16015.327
16322.975
10587.399
19662.78
19712.739
24289.666
24183.369
23864.512
19334.684
19344.914
23775.995
28581.556
28461.88
44280.516
44709.951
43743.079
28236.286
28491.242
44264.276
53376.602
66285.394
66966.697
53990.032
54538.089
67287.458
67232.523
54043.608
28395.36
28492.557
44129.217
44002.344
54305.421
66748.073
66841.494
54093.702
53759.811
66439.381
66230.224
53227.318
28091.698
27947.063
43075.019
43379.811
24061.105
19609.117
19717.06
24290.665
24364.419
19818.696
19842.866
24301.73
19660.913
19529.942
23957.098
24227.474
19801.67
19839.839
24325.168
24291.282
24281.559
19809.484
19867.79
24392.097
19589.179
19567.344
24043.833
23966.577
43416.621
28117.29
28424.818
44000.492
28452.886
28528.577
44119.906
44661.374
67446.52
54460.522
54161.234
66909.161
53271.474
66098.552
66765.361
53946.665
28232.127
28086.855
43676.357
44329.016
67736.358
67437.56
54598.295
54551.483
54754.016
66902.365
66462.77
54093.266
28564.084
28485.335
44534.067
44793.247
7110.4566
7180.7092
7207.9074
7251.614
2013.832
5155.7668
5096.3781
4558.8163
4608.9569
7165.5638
8242.1313
8182.9482
7196.0734
8064.2029
8144.4827
7119.2269
7061.9812
2020.2265
5169.0073
11540.741
17289.254
11460.087
17009.552
22273.27
22151.73
21907.502
21779.742
21865.717
17133.479
22075.065
11561.984
17318.939
11664.64
22243.22
22171.188
26040.75
26348.815
26497.386
26361.406
26363.343
26550.098
26165.997
25948.604
30724.395
30390.639
60527.25
62303.717
57536.852
99411.821
99930.55
58076.002
63043.903
30913.735
30692.839
61730.589
99716.151
99884.562
58303.673
58110.111
61558.707
30726.146
30906.176
62180.862
61926.878
30560.451
30259.391
60835.203
58147.772
99804.578
100033.46
58388.503
99809.796
100037.64
58283.574
57900.006
322.95891
407.41597
40117.141
39567.862
40116.702
40660.595
40248.532
39890.062
38410.392
39593.031
40214.399
39463.342
40602.36
40938.758
41561.313
40566.062
41093.265
41686.544
73144.623
36184.95
72287.821
35551.78
72154.526
35938.252
73021.998
36487.521
71676.34
34682.042
70009.287
33604.747
72436.624
35528.451
71953.68
35211.074
37025.134
38238.702
39141.341
39291.247
39797.878
40508.186
40445.414
39876.692
41146.386
40402.387
41016.381
41417.964
40862.935
41339.012
40842.87
39824.87
18544.753
17531.596
17501.86
18547.769
29466.912
35907.264
26394.991
27038.841
26522.461
27230.291
28360.777
28505.907
28263.623
28338.519
17682.301
16758.977
17616.87
18642.035
30112.685
30258.42
36713.068
36520.365
28568.622
27119.028
33307.677
34873.343
28239
26957.719
27522.982
27673.059
28149.038
28779.041
29493.946
28873.723
29563.276
28874.416
29505.205
28970.428
30193.06
15876.533
14981.894
15634.243
16631.792
15505.44
15575.375
16556.139
16502.415
16023.518
15126.846
11266.198
12292.944
14218.211
13265.684
14077.442
13124.365
13559.869
14619.127
12140.052
11096.095
11325.392
12459.05
11328.284
11391.121
12494.288
12412.081
14586.877
13552.491
13464.925
14498.256
14751.662
13953.481
14123.525
14986.44
15005.922
14974.447
14148.783
14178.809
13384.191
14168.537
13259.404
14347.587
14400.994
13460.028
14365.111
13423.428
13673.348
14331.962
13585.365
14468.466
13820.768
12953.841
13012.144
13917.608
13933.381
14527.783
13749.816
14758.715
13965.671
13071.279
14162.756
13231.56
12517.438
13165.894
12472.737
13234.772
11968.17
12691.692
12752.968
12039.077
13437.808
12699.983
13265.161
12565.965
12107.209
12786.533
12919.876
12187.994
13453.719
12739.828
12840.582
13591.541
12263.279
13076.03
12960.874
12365.115
13620.258
13663.06
12884.968
12919.776
12384.795
13127.087
12365.56
13105.112
13010.043
12326.882
12366.768
13079.11
13230.271
13080.234
12390.52
12505.917
11899.191
12558.057
11843.442
12604.961
12728.334
12006.699
12621.683
11949.925
14189.695
13446.078
13561.346
14354.891
14249.703
14171.708
13443.513
13511.594
12895.746
13683.821
12817.253
13803.019
13760.641
12888.533
13680.603
12817.357
13497.017
14118.289
13390.059
14282.667
13640.324
12787.516
12851.568
13746.287
13687.327
14294.052
13530.214
14488.545
13757.309
12878.263
13924.01
13018.007
13026.327
12335.091
12396.356
13113.274
13023.799
12338.127
13107.043
12404.723
11921.101
12557.064
11861.245
12626.885
12613.656
11868.06
12550.495
11849.048
14605.709
15139.689
14469.274
15310.007
14821.726
13891.1
14039.188
14995.01
14822.9
15331.284
14657.214
15541.237
15043.72
14077.917
15210.465
14248.413
15411.973
14844.107
14989.745
15592.579
15582.022
14999.915
15233.872
15860.645
15389.066
14672.29
14806.493
15555.348
15565.305
14838.103
15035.788
15804.814
15610.405
15004.296
15115.058
15744.43
15567.95
15472.578
14889.312
14959.509
15541.357
14794.263
14901.124
15672.248
15501.067
15432.526
14702.678
14759.07
15263.922
14567.513
14686.31
15397.328
15227.894
15174.142
14489.297
14551.335
13970.229
14110.157
14915.095
15067.266
14895.41
14837.69
13934.246
13992.18
14807.217
15384.411
14707.955
15515.87
15056.772
14115.522
14228.163
15195.112
15840.296
15111.914
15601.764
14919.667
15301.497
14319.607
15508.716
14521.014
16149.754
15556.158
15695.626
16324.893
16330.003
15734.102
15775.497
16395.557
15527.683
16125.634
15378.856
16296.197
15578.561
16331.838
15570.049
16356.802
15184.686
15666.16
15095.089
15796.227
15637.981
14915.287
15005.941
15754.074
15515.753
15873.876
15284.739
16150.656
15849.171
15111.749
16095.962
15320.529
15881.374
15187.427
15361.06
16073.792
16093.801
15380.048
16090.261
15364.993
14554.35
14748.51
15567.613
15782.586
15754.931
15778.017
14753.41
14771.668
14400.171
14198.429
15052.403
14692.206
13994.176
14181.799
14925.789
15570.865
14895.114
15297.937
14660.142
15189.816
14450.655
15450.773
14675.536
16339.274
15417.778
15610.005
16567.275
16995.329
16746.749
15815.881
16039.806
15220.409
15902.86
15045.253
16128.665
16577.254
15665.971
16325.786
15443.184
14573.295
15469.149
16431.768
15711.997
14829.816
15976.962
15067.782
15531.793
14915.622
15077.723
15736.452
15951.79
15317.879
16200.573
15532.568
14735.973
14888.074
15459.197
15650.488
16121.061
15883.785
15134.215
15338.849
18535.749
18662.896
16914.028
17033.363
17462.434
15944.735
16112.818
17279.218
18901.675
19034.989
17420.094
17267.698
17666.62
17867.76
16321.929
16523.519
19996.812
20026.88
18279.708
18323.154
18614.365
18679.556
20342.725
20356.669
5252.1001
5163.1558
5347.5711
5436.7767
19490.547
19167.848
20845.57
20857.467
19046.474
19066.897
18829.724
18889.954
20552.908
20556.445
5509.4753
5425.9085
5506.9158
5598.5886
19688.846
20013.806
20259.824
20266.349
18579.212
18581.019
18643.965
18758.569
20399.947
20444.564
5465.2149
5372.3988
5367.278
5459.1355
19570.852
19409.926
18859.499
18924.806
17313.887
17262.336
17650.194
17752.22
16346.696
16423.634
17484.591
18919.944
17268.195
19110.003
16312.084
17655.575
17936.376
16593.799
4881.0745
4796.2128
4779.2852
4860.4705
4889.2909
4848.5289
4915.1164
4977.8034
17715.172
19325.471
17635.54
19408.898
16638.747
18022.412
18155.974
16761.168
17643.796
19136.121
17505.089
19252.647
16583.634
17920.042
18097.812
16759.588
16243.828
17065.227
16105.615
17230.992
16615.194
15720.326
15852.213
16784.166
17236.927
16283.148
17034.952
16105.381
16633.407
15753.129
16822.479
15909.845
15477.581
16042.127
15435.327
16127.141
15286.64
16011.597
16063.095
15309.282
16303.674
15631.183
15965.355
15340.531
15190.445
15918.674
16232.723
15459.096
15946.666
16769.736
15866.772
16884.955
16375.952
16479.297
15531.383
15593.062
16112.21
16736.356
15807.336
17068.805
15452.679
16317.064
16657.775
15755.032
15709.953
16235.179
15584.771
16392.816
15396.832
16156.081
16304.829
15516.116
16446.992
15771.219
16281.712
15641.069
15472.75
16224.782
16356.344
15572.64
3639.5443
3668.4763
3803.49
3801.9128
3582.8743
3622.1293
3765.176
3740.2944
4191.3283
4214.3348
4334.0725
4310.9534
4379.0897
4262.1123
4262.4245
4399.9717
15457.436
15963.511
15339.014
16136.529
15892.778
15149.141
15247.876
16029.377
16491.612
15795.467
16188.968
15537.682
16108.523
15341.425
16390.117
15583.954
17222.803
16275.254
16449.54
17428.05
17506.234
17317.087
16379.125
16539.516
16062.557
16802.32
15907.961
16999.218
17081.169
16156.834
16926.127
16029.009
16007.121
16764.504
15844.169
16975.412
16340.281
15470.306
15614.241
16532.874
16349.784
17031.284
16071.555
17338.516
16586.578
15681.74
16891.153
15950.722
16433.753
15790.017
15935.447
16612.065
16574.268
15926.869
16696.281
16019.842
15605.381
15744.852
16371.952
16542.342
16613.131
16530.035
15757.969
15821.379
19429.158
19541.23
17765.686
17879.917
18332.041
16788.956
16945.728
18165.893
19425.114
19558.022
17935.455
17781.024
18211.561
18389.572
16855.417
17029.174
17440.549
18951.248
17320.938
19081.402
17698.014
16358.687
16513.839
17878.995
17795.171
19291.854
17596.248
19470.493
17995.183
16605.415
18248.562
16859.731
20431.383
20457.977
18689.188
18730.383
19013.354
19113.054
20840.503
20873.061
5548.9725
5477.6299
5560.9273
5626.7058
19609.652
20015.108
20929.246
20938.744
19148.113
19183.198
19111.768
19190.723
20862.075
20870.772
5686.3692
5603.6888
5678.921
5768.2373
20008.772
20092.615
4993.8864
4938.7107
4973.1754
5037.2099
5060.3072
5012.4155
5084.1321
5148.1289
20787.268
20791.28
18948.974
18974.058
18402
18477.237
20137.776
20144.734
5547.9318
5510.0484
5451.4783
5505.1449
19283.984
19953.781
20352.206
20370.721
18553.315
18608.577
18714.9
18852.181
20551.658
20597.824
5454.1141
5394.1853
5474.8202
5528.7649
19749.704
19553.541
18817.097
18947.753
17284.996
17147.224
17518.387
17714.257
16157.993
16336.505
17540.871
18994.684
17293.91
19208.049
16299.558
17686.416
17990.107
16604.044
4917.1739
4870.6138
4926.1373
4978.6763
4904.7374
4982.496
5014.2188
4957.9726
17610.482
19239.505
17522.269
19324.376
16499.217
17912.365
18046.527
16621.27
17228.933
18710.219
17075.881
18840.585
16152.818
17487.048
17671.128
16326.917
4485.1471
4390.8123
4389.5663
4496.3637
3930.4394
3795.0423
3760.6669
3912.5469
3789.6476
3783.3071
3931.3505
3956.6958
4533.5314
4408.3099
4430.856
4568.9515
3765.4088
3842.3049
3962.882
3896.9992
3762.7287
3731.1938
3855.9826
3897.2503
4417.6386
4312.0666
4359.5127
4460.1755
4518.7161
4432.5293
4345.2489
4444.3758
16063.029
16920.486
15933.963
17076.398
16430.207
15505.762
15621.221
16580.712
16782.281
15819.856
16592.399
15656.916
16164.581
15279.162
16331.352
15416.799
15433.612
16000.809
15327.085
16135.319
15097.476
15874.949
15998.388
15195.788
15923.306
15248.34
15781.074
15136.357
14946.703
15690.441
15801.246
15031.244
15808.544