/*--------------------------------*- C++ -*----------------------------------*\
  =========                 |
  \\      /  F ield         | OpenFOAM: The Open Source CFD Toolbox
   \\    /   O peration     | Website:  https://openfoam.org
    \\  /    A nd           | Version:  7
     \\/     M anipulation  |
\*---------------------------------------------------------------------------*/
FoamFile
{
    version     2.0;
    format      ascii;
    class       volScalarField;
    location    "6000";
    object      p;
}
// * * * * * * * * * * * * * * * * * * * * * * * * * * * * * * * * * * * * * //

dimensions      [0 2 -2 0 0 0 0];

internalField   nonuniform List<scalar> 
33730
(
-2.8597967e+73
-2.6011639e+73
-2.8734695e+73
-2.7558138e+73
-2.6674383e+73
-2.6962658e+73
-2.7167742e+73
-2.7732035e+73
-2.7345243e+73
-2.4095807e+73
-2.5057485e+73
-2.6166548e+73
-2.6101194e+73
-2.6315487e+73
-2.7866924e+73
-2.769749e+73
-2.7896452e+73
-2.7724495e+73
-2.7048819e+73
-2.7128846e+73
-2.7103528e+73
-2.7051803e+73
-2.7136357e+73
-2.6837835e+73
-2.6756146e+73
-2.6687893e+73
-2.6735471e+73
-2.6534328e+73
-2.6487915e+73
-2.7273248e+73
-2.7204874e+73
-2.6977814e+73
-2.6907745e+73
-2.5209479e+73
-2.4376776e+73
-2.4233744e+73
-2.5349441e+73
-2.41727e+73
-2.4518748e+73
-2.4090567e+73
-2.4597807e+73
-2.3185399e+73
-2.494848e+73
-2.5034763e+73
-2.5570077e+73
-2.2179631e+73
-2.2037421e+73
-2.6179148e+73
-2.625014e+73
-2.6194857e+73
-2.6147012e+73
-2.6386333e+73
-2.6315883e+73
-2.7164993e+73
-2.7234488e+73
-2.7376944e+73
-2.7304426e+73
-2.7097308e+73
-2.7234713e+73
-2.7143357e+73
-2.7005939e+73
-2.7458778e+73
-2.7384972e+73
-2.7351028e+73
-2.7425582e+73
-2.731691e+73
-2.7225352e+73
-2.7197631e+73
-2.7283726e+73
-2.6576836e+73
-2.6822366e+73
-2.677367e+73
-2.6839087e+73
-2.6889076e+73
-2.6905061e+73
-2.6854439e+73
-2.6846924e+73
-2.6797723e+73
-2.6615896e+73
-2.6822716e+73
-2.6779866e+73
-2.6574761e+73
-2.6898591e+73
-2.6861731e+73
-2.6688165e+73
-2.6653005e+73
-2.6553458e+73
-2.6527755e+73
-2.6421268e+73
-2.6395768e+73
-2.6599273e+73
-2.6576246e+73
-2.6466606e+73
-2.6443477e+73
-2.7022907e+73
-2.6990642e+73
-2.6817699e+73
-2.6784275e+73
-2.6964774e+73
-2.675601e+73
-2.6932808e+73
-2.6721699e+73
-2.4080687e+73
-2.426501e+73
-2.3609723e+73
-2.3146427e+73
-2.5714636e+73
-2.5647257e+73
-2.510602e+73
-2.5176836e+73
-2.488015e+73
-2.4456582e+73
-2.4375606e+73
-2.4801571e+73
-2.4737566e+73
-2.4307364e+73
-2.4236116e+73
-2.33241e+73
-2.4664195e+73
-2.2317972e+73
-2.5848264e+73
-2.5311832e+73
-2.5236912e+73
-2.5776851e+73
-2.4199558e+73
-2.4242379e+73
-2.4424281e+73
-2.375653e+73
-2.4382689e+73
-2.4487602e+73
-2.4529989e+73
-2.4701832e+73
-2.4743894e+73
-2.4117592e+73
-2.4160377e+73
-2.4301882e+73
-2.4344663e+73
-2.367696e+73
-2.4566214e+73
-2.4608985e+73
-2.4826647e+73
-2.4782595e+73
-2.3214865e+73
-2.3292915e+73
-2.4956121e+73
-2.5206522e+73
-2.4912205e+73
-2.5296083e+73
-2.499782e+73
-2.5043701e+73
-2.5250356e+73
-2.5511554e+73
-2.5832573e+73
-2.5558898e+73
-2.5879715e+73
-2.546905e+73
-2.0158285e+73
-2.1218151e+73
-2.2240677e+73
-2.2818111e+73
-2.2739622e+73
-2.2155766e+73
-2.209009e+73
-2.2669305e+73
-2.6231953e+73
-2.6266991e+73
-2.6298927e+73
-2.6335418e+73
-2.626079e+73
-2.623658e+73
-2.6214871e+73
-2.6190682e+73
-2.6468384e+73
-2.6431772e+73
-2.6402944e+73
-2.6369849e+73
-2.6764028e+73
-2.6628054e+73
-2.6669731e+73
-2.6737592e+73
-2.6885944e+73
-2.6817479e+73
-2.6603326e+73
-2.6747626e+73
-2.6665089e+73
-2.6519451e+73
-2.7133811e+73
-2.7098221e+73
-2.716385e+73
-2.7200133e+73
-2.7133189e+73
-2.7066938e+73
-2.7030495e+73
-2.7097499e+73
-2.7146461e+73
-2.7112057e+73
-2.7081563e+73
-2.7049396e+73
-2.7211792e+73
-2.7174692e+73
-2.7143489e+73
-2.7107725e+73
-2.6996844e+73
-2.6958946e+73
-2.7025854e+73
-2.7064015e+73
-2.6869337e+73
-2.6918833e+73
-2.6986145e+73
-2.6937014e+73
-2.6952757e+73
-2.6939669e+73
-2.689379e+73
-2.700168e+73
-2.7078809e+73
-2.7040543e+73
-2.701602e+73
-2.6978648e+73
-2.6095406e+73
-2.6546977e+73
-2.6594825e+73
-2.6631176e+73
-2.6678575e+73
-2.6771335e+73
-2.6747403e+73
-2.678855e+73
-2.6763534e+73
-2.6724599e+73
-2.670004e+73
-2.6741585e+73
-2.6716083e+73
-2.6761379e+73
-2.6689135e+73
-2.6737244e+73
-2.6665967e+73
-2.6715093e+73
-2.6689532e+73
-2.664342e+73
-2.6617598e+73
-2.6542106e+73
-2.6680276e+73
-2.6661792e+73
-2.6524628e+73
-2.6642911e+73
-2.6621426e+73
-2.650698e+73
-2.6486304e+73
-2.6755102e+73
-2.6737144e+73
-2.6615046e+73
-2.6596394e+73
-2.6699957e+73
-2.6719368e+73
-2.6578944e+73
-2.6559919e+73
-2.6428652e+73
-2.6440448e+73
-2.637311e+73
-2.6361121e+73
-2.640325e+73
-2.6417275e+73
-2.6349355e+73
-2.6335554e+73
-2.6475502e+73
-2.6486644e+73
-2.6419038e+73
-2.6407349e+73
-2.6396214e+73
-2.6464647e+73
-2.6451496e+73
-2.638363e+73
-2.687671e+73
-2.685938e+73
-2.6740796e+73
-2.6721856e+73
-2.6706868e+73
-2.6845742e+73
-2.683191e+73
-2.6692364e+73
-2.6819619e+73
-2.6806646e+73
-2.6679984e+73
-2.666632e+73
-2.6651157e+73
-2.6791531e+73
-2.6773387e+73
-2.6632594e+73
-2.3867461e+73
-2.4185155e+73
-2.4163405e+73
-2.3906994e+73
-2.4076714e+73
-2.4098484e+73
-2.427116e+73
-2.4364901e+73
-2.4249186e+73
-2.3725662e+73
-2.3685288e+73
-2.3549081e+73
-2.3357714e+73
-2.3313626e+73
-2.350739e+73
-2.5653541e+73
-2.5688369e+73
-2.6012938e+73
-2.5977649e+73
-2.5949733e+73
-2.5593966e+73
-2.5627216e+73
-2.591599e+73
-2.5363196e+73
-2.5109726e+73
-2.5077855e+73
-2.5329874e+73
-2.5424574e+73
-2.5137447e+73
-2.5172606e+73
-2.5390963e+73
-2.5097132e+73
-2.484489e+73
-2.4888733e+73
-2.5056198e+73
-2.4663988e+73
-2.4480497e+73
-2.43998e+73
-2.4441328e+73
-2.4624848e+73
-2.3961265e+73
-2.458456e+73
-2.4769578e+73
-2.5023485e+73
-2.4808368e+73
-2.4987843e+73
-2.3496489e+73
-2.4956332e+73
-2.4702457e+73
-2.473905e+73
-2.4920116e+73
-2.4516583e+73
-2.4552558e+73
-2.4363928e+73
-2.4327369e+73
-2.3895567e+73
-2.42719e+73
-2.4299795e+73
-2.4486264e+73
-2.3823048e+73
-2.4454643e+73
-2.3435211e+73
-2.3362575e+73
-2.4640038e+73
-2.4859742e+73
-2.4672578e+73
-2.4891521e+73
-2.04301e+73
-2.0290258e+73
-2.1358518e+73
-2.2448397e+73
-2.3023887e+73
-2.2961298e+73
-2.2376202e+73
-2.2889046e+73
-2.2307166e+73
-2.5785499e+73
-2.5822312e+73
-2.6147872e+73
-2.6110939e+73
-2.5306496e+73
-2.5521464e+73
-2.5556962e+73
-2.5268287e+73
-2.520362e+73
-2.5237672e+73
-2.5490769e+73
-2.5456186e+73
-2.5721127e+73
-2.6048535e+73
-2.5756191e+73
-2.608254e+73
-2.4311358e+73
-2.4289511e+73
-2.4025231e+73
-2.4204889e+73
-2.422758e+73
-2.4352327e+73
-2.4331268e+73
-2.406863e+73
-2.4247241e+73
-2.4268468e+73
-2.4436177e+73
-2.4528572e+73
-2.4415043e+73
-2.4507159e+73
-2.3841076e+73
-2.3885969e+73
-2.4395322e+73
-2.4487429e+73
-2.4374173e+73
-2.4467073e+73
-2.4497438e+73
-2.4476495e+73
-2.4595722e+73
-2.4574374e+73
-2.4540578e+73
-2.4638658e+73
-2.451748e+73
-2.4615931e+73
-2.469562e+73
-2.4804169e+73
-2.4674285e+73
-2.4738828e+73
-2.4848287e+73
-2.4715311e+73
-2.4824361e+73
-2.4225048e+73
-2.4203735e+73
-2.3942849e+73
-2.4117449e+73
-2.4139013e+73
-2.4269152e+73
-2.4245496e+73
-2.3985331e+73
-2.4159304e+73
-2.4183872e+73
-2.4310582e+73
-2.440415e+73
-2.4289648e+73
-2.4383537e+73
-2.4354282e+73
-2.4447669e+73
-2.433086e+73
-2.4424378e+73
-2.3798543e+73
-2.3757463e+73
-2.4579877e+73
-2.467931e+73
-2.4559262e+73
-2.4657964e+73
-2.4621209e+73
-2.4720901e+73
-2.4599645e+73
-2.4699494e+73
-2.4823252e+73
-2.4935029e+73
-2.4801073e+73
-2.4912473e+73
-2.4781198e+73
-2.4892024e+73
-2.4759042e+73
-2.4869635e+73
-2.338682e+73
-2.3426446e+73
-2.3617922e+73
-2.3578239e+73
-2.3465563e+73
-2.3511187e+73
-2.3704959e+73
-2.3660629e+73
-2.4955574e+73
-2.4931103e+73
-2.5071713e+73
-2.5047165e+73
-2.5190718e+73
-2.5326653e+73
-2.5164992e+73
-2.5300312e+73
-2.4910363e+73
-2.5025654e+73
-2.5280602e+73
-2.5257834e+73
-2.5416511e+73
-2.5393992e+73
-2.5000062e+73
-2.5117396e+73
-2.4977044e+73
-2.5093629e+73
-2.5043813e+73
-2.5161098e+73
-2.5020968e+73
-2.5138771e+73
-2.5236885e+73
-2.5212842e+73
-2.5372946e+73
-2.5349297e+73
-2.5507885e+73
-2.5664927e+73
-2.548427e+73
-2.5641004e+73
-2.5828799e+73
-2.6023612e+73
-2.5805013e+73
-2.6000186e+73
-2.5551651e+73
-2.5708148e+73
-2.5528945e+73
-2.568618e+73
-2.5872187e+73
-2.606806e+73
-2.5849173e+73
-2.6044535e+73
-2.5619235e+73
-2.5462243e+73
-2.5435426e+73
-1.9937013e+73
-2.1644084e+73
-2.0914298e+73
-2.0826359e+73
-2.1561916e+73
-2.2361446e+73
-2.241615e+73
-2.2773301e+73
-2.2722323e+73
-2.2998452e+73
-2.3047697e+73
-2.3298887e+73
-2.3252547e+73
-2.3216931e+73
-2.2960617e+73
-2.2916366e+73
-2.3174588e+73
-2.2276997e+73
-2.2316227e+73
-2.2678532e+73
-2.2634141e+73
-2.2245373e+73
-2.2601525e+73
-2.2567531e+73
-2.3141383e+73
-2.2880069e+73
-2.2843052e+73
-2.3098597e+73
-2.6296114e+73
-2.6278492e+73
-2.6328495e+73
-2.6311041e+73
-2.6361301e+73
-2.6344556e+73
-2.6399364e+73
-2.6378142e+73
-2.6295039e+73
-2.6282693e+73
-2.6271723e+73
-2.6260307e+73
-2.6249659e+73
-2.6236833e+73
-2.6225718e+73
-2.621325e+73
-2.6529658e+73
-2.6508045e+73
-2.649212e+73
-2.647805e+73
-2.6465344e+73
-2.6450026e+73
-2.6435337e+73
-2.6417463e+73
-2.5764871e+73
-2.5636919e+73
-2.4493189e+73
-2.6193987e+73
-2.6260248e+73
-2.6390159e+73
-2.689703e+73
-2.6860999e+73
-2.6323225e+73
-2.6829794e+73
-2.6795138e+73
-2.6128769e+73
-2.6255437e+73
-2.6762058e+73
-2.6723995e+73
-2.6177812e+73
-2.6685318e+73
-2.6638435e+73
-2.6049232e+73
-2.694826e+73
-2.6983009e+73
-2.6916204e+73
-2.6882798e+73
-2.7006138e+73
-2.6991196e+73
-2.7021681e+73
-2.7006406e+73
-2.6975296e+73
-2.6957693e+73
-2.697348e+73
-2.6991588e+73
-2.6992534e+73
-2.6916632e+73
-2.6978588e+73
-2.6903869e+73
-2.696389e+73
-2.688903e+73
-2.6945813e+73
-2.6870288e+73
-2.7072232e+73
-2.7054221e+73
-2.7086412e+73
-2.7067307e+73
-2.7038133e+73
-2.7021432e+73
-2.7052261e+73
-2.7035587e+73
-2.7054693e+73
-2.7036151e+73
-2.6957135e+73
-2.6974793e+73
-2.694389e+73
-2.6929175e+73
-2.7021761e+73
-2.7005916e+73
-2.6811646e+73
-2.6848715e+73
-2.6771202e+73
-2.6725253e+73
-2.6820725e+73
-2.6837582e+73
-2.6812246e+73
-2.6795714e+73
-2.6831147e+73
-2.685218e+73
-2.6775747e+73
-2.6756229e+73
-2.6810474e+73
-2.6736552e+73
-2.6712852e+73
-2.6785472e+73
-2.6843136e+73
-2.6864294e+73
-2.6880614e+73
-2.6858635e+73
-2.6940209e+73
-2.6922847e+73
-2.6956534e+73
-2.6938249e+73
-2.6905041e+73
-2.688494e+73
-2.692115e+73
-2.6900425e+73
-2.6928328e+73
-2.6910596e+73
-2.6834661e+73
-2.6851926e+73
-2.6872465e+73
-2.6817046e+73
-2.6796592e+73
-2.6893189e+73
-2.6314724e+73
-2.63614e+73
-2.5620737e+73
-2.6109936e+73
-2.6063683e+73
-2.6432621e+73
-2.6456268e+73
-2.6494807e+73
-2.647069e+73
-2.6617058e+73
-2.6592867e+73
-2.6478751e+73
-2.650351e+73
-2.6663964e+73
-2.6541613e+73
-2.6517724e+73
-2.6640329e+73
-2.6700234e+73
-2.6711263e+73
-2.6718034e+73
-2.6705993e+73
-2.6695103e+73
-2.668902e+73
-2.667595e+73
-2.6682423e+73
-2.667109e+73
-2.6664308e+73
-2.6659292e+73
-2.6653573e+73
-2.664189e+73
-2.6628096e+73
-2.6647893e+73
-2.6634441e+73
-2.6695678e+73
-2.670799e+73
-2.6683792e+73
-2.6672202e+73
-2.6554515e+73
-2.6636777e+73
-2.6625672e+73
-2.6543588e+73
-2.6661501e+73
-2.6685225e+73
-2.6672748e+73
-2.6649422e+73
-2.660229e+73
-2.6615231e+73
-2.6532967e+73
-2.6520049e+73
-2.6637697e+73
-2.6661349e+73
-2.6649178e+73
-2.6625769e+73
-2.6614237e+73
-2.6637955e+73
-2.6624581e+73
-2.6600914e+73
-2.6508319e+73
-2.6590918e+73
-2.6579174e+73
-2.6496645e+73
-2.6553874e+73
-2.6567741e+73
-2.6485532e+73
-2.647151e+73
-2.6551962e+73
-2.656159e+73
-2.649085e+73
-2.6481571e+73
-2.6534621e+73
-2.6543984e+73
-2.6473397e+73
-2.6464505e+73
-2.6516808e+73
-2.6525786e+73
-2.645652e+73
-2.6447584e+73
-2.6496949e+73
-2.6507999e+73
-2.6438739e+73
-2.6428266e+73
-2.6624855e+73
-2.6634473e+73
-2.6563669e+73
-2.6553803e+73
-2.6605818e+73
-2.6616038e+73
-2.6544378e+73
-2.6534263e+73
-2.6580303e+73
-2.6570328e+73
-2.6509381e+73
-2.6499635e+73
-2.6596986e+73
-2.6525924e+73
-2.6517427e+73
-2.6588607e+73
-2.6280898e+73
-2.6292912e+73
-2.6256543e+73
-2.6269128e+73
-2.6327217e+73
-2.633845e+73
-2.6315912e+73
-2.6304227e+73
-2.6688283e+73
-2.6755901e+73
-2.6745509e+73
-2.6677153e+73
-2.6728554e+73
-2.6737348e+73
-2.6668555e+73
-2.6659703e+73
-2.6722045e+73
-2.6715838e+73
-2.6652912e+73
-2.6646105e+73
-2.6640142e+73
-2.6710278e+73
-2.670324e+73
-2.6633432e+73
-2.6691108e+73
-2.6697384e+73
-2.6627833e+73
-2.6621042e+73
-2.6676786e+73
-2.6684709e+73
-2.6614536e+73
-2.6606657e+73
-2.6669114e+73
-2.6661269e+73
-2.6590922e+73
-2.6599279e+73
-2.6653461e+73
-2.6643177e+73
-2.6582546e+73
-2.6572417e+73
-1.9141798e+73
-2.3984959e+73
-2.3909269e+73
-2.389259e+73
-2.3968216e+73
-2.4184743e+73
-2.4174581e+73
-2.4233054e+73
-2.4222266e+73
-2.4212879e+73
-2.4203562e+73
-2.4164807e+73
-2.415551e+73
-2.4022968e+73
-2.3946111e+73
-2.3924656e+73
-2.400104e+73
-2.4094345e+73
-2.4113458e+73
-2.4308652e+73
-2.4276431e+73
-2.4319776e+73
-2.4265165e+73
-2.4364917e+73
-2.4411113e+73
-2.4399725e+73
-2.4353645e+73
-2.4288967e+73
-2.4255786e+73
-2.4298827e+73
-2.42462e+73
-2.3872799e+73
-2.3798975e+73
-2.3778374e+73
-2.3851655e+73
-2.3745956e+73
-2.3763145e+73
-2.3836501e+73
-2.3820015e+73
-2.3726242e+73
-2.3652434e+73
-2.3631856e+73
-2.3705623e+73
-2.3582045e+73
-2.3505725e+73
-2.3482675e+73
-2.3560471e+73
-2.3443946e+73
-2.3463316e+73
-2.3542784e+73
-2.3523041e+73
-2.3689949e+73
-2.3615082e+73
-2.3595603e+73
-2.3672143e+73
-2.563902e+73
-2.5624825e+73
-2.5797078e+73
-2.5781885e+73
-2.5674017e+73
-2.5832077e+73
-2.565403e+73
-2.5812553e+73
-2.5998884e+73
-2.6199888e+73
-2.5977818e+73
-2.6178384e+73
-2.5962631e+73
-2.616236e+73
-2.594728e+73
-2.6146593e+73
-2.593377e+73
-2.5918211e+73
-2.6131569e+73
-2.6115401e+73
-2.5584344e+73
-2.556806e+73
-2.5741001e+73
-2.5724199e+73
-2.5612326e+73
-2.5768736e+73
-2.559768e+73
-2.5754632e+73
-2.5904922e+73
-2.5888373e+73
-2.6101731e+73
-2.6085104e+73
-2.5340434e+73
-2.5476334e+73
-2.5325903e+73
-2.5461849e+73
-2.5102883e+73
-2.5088816e+73
-2.5220602e+73
-2.5206821e+73
-2.5075812e+73
-2.506013e+73
-2.5193182e+73
-2.5176907e+73
-2.5312278e+73
-2.529599e+73
-2.544845e+73
-2.5432365e+73
-2.5400771e+73
-2.5537185e+73
-2.5380951e+73
-2.5517393e+73
-2.5128689e+73
-2.5114651e+73
-2.5246296e+73
-2.5232328e+73
-2.5163925e+73
-2.5280798e+73
-2.5143989e+73
-2.5261584e+73
-2.5365944e+73
-2.5352106e+73
-2.5502447e+73
-2.5488679e+73
-2.508668e+73
-2.5192835e+73
-2.506502e+73
-2.5171883e+73
-2.4852987e+73
-2.4833308e+73
-2.494857e+73
-2.4929945e+73
-2.4872684e+73
-2.4967764e+73
-2.5046891e+73
-2.5029051e+73
-2.5154713e+73
-2.5138105e+73
-2.4673342e+73
-2.4763439e+73
-2.4651845e+73
-2.4743183e+73
-2.4588783e+73
-2.4566874e+73
-2.4305035e+73
-2.4481864e+73
-2.4503779e+73
-2.4505349e+73
-2.4485046e+73
-2.4223965e+73
-2.439693e+73
-2.4418735e+73
-2.4547525e+73
-2.4525044e+73
-2.4266346e+73
-2.4438714e+73
-2.4462175e+73
-2.4632164e+73
-2.4724672e+73
-2.4609836e+73
-2.4702866e+73
-2.4077697e+73
-2.4035932e+73
-2.4590756e+73
-2.4684316e+73
-2.4571764e+73
-2.4666053e+73
-2.477732e+73
-2.4877264e+73
-2.4759063e+73
-2.485871e+73
-2.5014338e+73
-2.5123837e+73
-2.4995728e+73
-2.5106336e+73
-2.4816154e+73
-2.4914133e+73
-2.4795259e+73
-2.4894779e+73
-2.4979402e+73
-2.5090632e+73
-2.4960926e+73
-2.5072582e+73
-2.3661873e+73
-2.3704121e+73
-2.3895247e+73
-2.3854721e+73
-2.4944253e+73
-2.5055134e+73
-2.4923773e+73
-2.503489e+73
-2.4706379e+73
-2.4691149e+73
-2.4805576e+73
-2.4790513e+73
-2.4742996e+73
-2.4842207e+73
-2.4722842e+73
-2.4822312e+73
-2.4907421e+73
-2.4892551e+73
-2.5018963e+73
-2.5004837e+73
-2.4519231e+73
-2.4613409e+73
-2.4504062e+73
-2.4598385e+73
-2.4555908e+73
-2.465003e+73
-2.4535747e+73
-2.4629938e+73
-2.4467256e+73
-2.4446512e+73
-2.4186574e+73
-2.4377238e+73
-2.4355539e+73
-2.4430304e+73
-2.441569e+73
-2.4149266e+73
-2.4326324e+73
-2.4340109e+73
-2.3999766e+73
-2.3961247e+73
-2.4378061e+73
-2.4365715e+73
-2.4097346e+73
-2.4281624e+73
-2.4292596e+73
-2.4402799e+73
-2.4389482e+73
-2.4122742e+73
-2.4302223e+73
-2.4314494e+73
-2.448996e+73
-2.4584724e+73
-2.4475429e+73
-2.4569588e+73
-2.393352e+73
-2.391101e+73
-2.4463084e+73
-2.4556665e+73
-2.4450121e+73
-2.4543197e+73
-2.3821873e+73
-2.3629485e+73
-2.3589383e+73
-2.3782202e+73
-2.3537563e+73
-2.3562326e+73
-2.3752583e+73
-2.372976e+73
-2.4650121e+73
-2.4750616e+73
-2.4635941e+73
-2.473576e+73
-2.4853897e+73
-2.4966449e+73
-2.4838643e+73
-2.4951208e+73
-2.467824e+73
-2.4778213e+73
-2.4663228e+73
-2.4763933e+73
-2.4880801e+73
-2.4993104e+73
-2.4866488e+73
-2.4979159e+73
-2.0192913e+73
-2.1850323e+73
-2.1092754e+73
-2.0059008e+73
-2.1024602e+73
-2.1773483e+73
-2.1712778e+73
-2.0977421e+73
-2.2968769e+73
-2.2610251e+73
-2.2934106e+73
-2.257497e+73
-2.3492936e+73
-2.3239576e+73
-2.3205091e+73
-2.3452848e+73
-2.342421e+73
-2.3182618e+73
-2.31448e+73
-2.3384625e+73
-2.2909603e+73
-2.2544698e+73
-2.2871197e+73
-2.2500232e+73
-2.3359808e+73
-2.3116917e+73
-2.3084518e+73
-2.3330155e+73
-2.2840686e+73
-2.2468876e+73
-2.2808024e+73
-2.2444501e+73
-2.5772184e+73
-2.5930547e+73
-2.5756861e+73
-2.5914777e+73
-2.580803e+73
-2.5966951e+73
-2.578809e+73
-2.5947228e+73
-2.6133772e+73
-2.6112637e+73
-2.6333662e+73
-2.6311919e+73
-2.6096496e+73
-2.6080914e+73
-2.629559e+73
-2.6280961e+73
-2.5298108e+73
-2.527756e+73
-2.5413734e+73
-2.539405e+73
-2.5498329e+73
-2.5635393e+73
-2.548273e+73
-2.5620336e+73
-2.553334e+73
-2.5670672e+73
-2.551339e+73
-2.5650831e+73
-2.5261359e+73
-2.5245287e+73
-2.5378151e+73
-2.5362309e+73
-2.5198677e+73
-2.5180801e+73
-2.5316187e+73
-2.5297796e+73
-2.5231184e+73
-2.5214001e+73
-2.5348276e+73
-2.5331668e+73
-2.5468524e+73
-2.545122e+73
-2.5606305e+73
-2.5589202e+73
-2.5436012e+73
-2.5417591e+73
-2.5573658e+73
-2.5555024e+73
-2.571039e+73
-2.5870262e+73
-2.5691647e+73
-2.585044e+73
-2.6037585e+73
-2.6238298e+73
-2.6018065e+73
-2.6219633e+73
-2.5743082e+73
-2.5901692e+73
-2.5726162e+73
-2.5886082e+73
-2.6068221e+73
-2.6052245e+73
-2.6268104e+73
-2.6252709e+73
-2.4317198e+73
-2.4306117e+73
-2.4363387e+73
-2.4351864e+73
-2.434141e+73
-2.43303e+73
-2.4294753e+73
-2.4282933e+73
-2.4154157e+73
-2.4079653e+73
-2.4055276e+73
-2.4131047e+73
-2.4225101e+73
-2.4248879e+73
-2.4356958e+73
-2.4348165e+73
-2.4403302e+73
-2.4394e+73
-2.4384493e+73
-2.4374309e+73
-2.4338275e+73
-2.4327903e+73
-2.409995e+73
-2.4120963e+73
-2.4195222e+73
-2.4174055e+73
-2.4270591e+73
-2.4289899e+73
-2.4445205e+73
-2.4435474e+73
-2.4477536e+73
-2.4487366e+73
-2.4531635e+73
-2.4521483e+73
-2.457718e+73
-2.4566913e+73
-2.4457656e+73
-2.4426164e+73
-2.4467945e+73
-2.4415922e+73
-2.4557436e+73
-2.4512083e+73
-2.4501691e+73
-2.4546996e+73
-2.3907732e+73
-2.3933956e+73
-2.400753e+73
-2.3982529e+73
-2.3955365e+73
-2.3975873e+73
-2.4049323e+73
-2.4028633e+73
-2.4436e+73
-2.4405513e+73
-2.4447661e+73
-2.4393593e+73
-2.4537201e+73
-2.4491832e+73
-2.4480129e+73
-2.4525602e+73
-2.4414916e+73
-2.4383458e+73
-2.4425683e+73
-2.4372586e+73
-2.4515706e+73
-2.4470142e+73
-2.4459469e+73
-2.4505118e+73
-2.4498058e+73
-2.4544556e+73
-2.453346e+73
-2.4486654e+73
-2.4466304e+73
-2.4476842e+73
-2.4523543e+73
-2.4512775e+73
-2.4629605e+73
-2.4591462e+73
-2.4640699e+73
-2.4580258e+73
-2.4559733e+73
-2.4609049e+73
-2.4570584e+73
-2.4619795e+73
-2.4576364e+73
-2.4541349e+73
-2.4587725e+73
-2.4529694e+73
-2.4634722e+73
-2.4684248e+73
-2.4672053e+73
-2.4622932e+73
-2.4554272e+73
-2.4519084e+73
-2.4565732e+73
-2.4507803e+73
-2.4612632e+73
-2.4661614e+73
-2.4601279e+73
-2.4650511e+73
-2.4689932e+73
-2.4741354e+73
-2.4730274e+73
-2.4678789e+73
-2.4848167e+73
-2.4782039e+73
-2.4793387e+73
-2.483667e+73
-2.466906e+73
-2.4658227e+73
-2.4720552e+73
-2.4709474e+73
-2.4773239e+73
-2.4733765e+73
-2.4785619e+73
-2.4721398e+73
-2.48935e+73
-2.4838125e+73
-2.4825427e+73
-2.4880614e+73
-2.469963e+73
-2.4751127e+73
-2.4710836e+73
-2.4762493e+73
-2.4869729e+73
-2.48148e+73
-2.4803309e+73
-2.4858249e+73
-2.4227056e+73
-2.4216401e+73
-2.4274763e+73
-2.4263609e+73
-2.4253677e+73
-2.4243226e+73
-2.4205647e+73
-2.4194742e+73
-2.4063673e+73
-2.3986242e+73
-2.396498e+73
-2.4042275e+73
-2.4134155e+73
-2.4156178e+73
-2.4271707e+73
-2.4260271e+73
-2.4319182e+73
-2.4307217e+73
-2.4296561e+73
-2.4285793e+73
-2.4248998e+73
-2.4237923e+73
-2.4109529e+73
-2.4033361e+73
-2.4006701e+73
-2.4084008e+73
-2.4178228e+73
-2.4201272e+73
-2.4317859e+73
-2.4306227e+73
-2.4360953e+73
-2.4349483e+73
-2.4394346e+73
-2.4451957e+73
-2.4440514e+73
-2.4405945e+73
-2.4296492e+73
-2.4286099e+73
-2.4328916e+73
-2.4339459e+73
-2.4384562e+73
-2.4374013e+73
-2.4430738e+73
-2.4420296e+73
-2.4392807e+73
-2.4362104e+73
-2.4404961e+73
-2.4349713e+73
-2.4449739e+73
-2.4495521e+73
-2.4483542e+73
-2.4437559e+73
-2.4371051e+73
-2.4339204e+73
-2.4381963e+73
-2.4328401e+73
-2.4426955e+73
-2.4472919e+73
-2.4415911e+73
-2.4461818e+73
-2.3959273e+73
-2.3882684e+73
-2.385454e+73
-2.3931679e+73
-2.3816602e+73
-2.3835404e+73
-2.3911389e+73
-2.3891154e+73
-2.4618083e+73
-2.4582888e+73
-2.4629551e+73
-2.4571296e+73
-2.4677133e+73
-2.4727318e+73
-2.4715579e+73
-2.4665448e+73
-2.4550765e+73
-2.4597233e+73
-2.4561388e+73
-2.4608029e+73
-2.4655437e+73
-2.4705353e+73
-2.4644502e+73
-2.4694325e+73
-2.4659504e+73
-2.46229e+73
-2.4669696e+73
-2.4612598e+73
-2.4717398e+73
-2.4707019e+73
-2.4767874e+73
-2.4757367e+73
-2.4639326e+73
-2.4603127e+73
-2.4649923e+73
-2.4592586e+73
-2.4747811e+73
-2.4697631e+73
-2.4686992e+73
-2.4737263e+73
-2.4860592e+73
-2.4818267e+73
-2.4871129e+73
-2.4807659e+73
-2.492454e+73
-2.4913679e+73
-2.4980858e+73
-2.4969848e+73
-2.4787299e+73
-2.4839805e+73
-2.4797998e+73
-2.4850742e+73
-2.4959962e+73
-2.4903988e+73
-2.4892896e+73
-2.4948894e+73
-2.4818224e+73
-2.4777435e+73
-2.4829872e+73
-2.4765663e+73
-2.4938689e+73
-2.4882841e+73
-2.4870898e+73
-2.492661e+73
-2.4743965e+73
-2.4795982e+73
-2.4755312e+73
-2.4807699e+73
-2.4916116e+73
-2.4860568e+73
-2.4848724e+73
-2.4904281e+73
-2.3519223e+73
-2.3534642e+73
-2.3612045e+73
-2.3596602e+73
-2.3551327e+73
-2.3576963e+73
-2.3654732e+73
-2.3628013e+73
-2.3805787e+73
-2.3727358e+73
-2.3699928e+73
-2.3777395e+73
-2.3759768e+73
-2.368369e+73
-2.3667681e+73
-2.3742753e+73
-2.3601838e+73
-2.3630232e+73
-2.3710166e+73
-2.368146e+73
-2.3652206e+73
-2.3673842e+73
-2.3752972e+73
-2.3731835e+73
-2.3804845e+73
-2.3825535e+73
-2.3901795e+73
-2.388119e+73
-2.3859841e+73
-2.37834e+73
-2.3754901e+73
-2.3832955e+73
-2.4990717e+73
-2.4947358e+73
-2.5003575e+73
-2.4934379e+73
-2.4923315e+73
-2.4911649e+73
-2.4979448e+73
-2.4967489e+73
-2.5059656e+73
-2.5120158e+73
-2.504651e+73
-2.5106852e+73
-2.5023324e+73
-2.5095453e+73
-2.5083428e+73
-2.5035372e+73
-2.5180015e+73
-2.5166535e+73
-2.5231724e+73
-2.524504e+73
-2.5310286e+73
-2.5382018e+73
-2.5368204e+73
-2.5296559e+73
-2.5207002e+73
-2.5154924e+73
-2.5219843e+73
-2.5142637e+73
-2.5284783e+73
-2.52716e+73
-2.5356136e+73
-2.5342754e+73
-2.4945482e+73
-2.4901516e+73
-2.4957218e+73
-2.4889732e+73
-2.5012882e+73
-2.5072837e+73
-2.5269328e+73
-2.5334471e+73
-2.5324423e+73
-2.5258841e+73
-2.5237346e+73
-2.5248832e+73
-2.5314308e+73
-2.5302541e+73
-2.5459996e+73
-2.5399509e+73
-2.5471158e+73
-2.5388768e+73
-2.5367562e+73
-2.5439083e+73
-2.5379288e+73
-2.5450454e+73
-2.4992923e+73
-2.4980693e+73
-2.5049591e+73
-2.5037431e+73
-2.5093537e+73
-2.5154378e+73
-2.5106046e+73
-2.5166963e+73
-2.5014295e+73
-2.497002e+73
-2.5026531e+73
-2.4958054e+73
-2.5082677e+73
-2.5143279e+73
-2.5131035e+73
-2.5070416e+73
-2.5081268e+73
-2.5035326e+73
-2.5092101e+73
-2.5024249e+73
-2.5148443e+73
-2.5209322e+73
-2.5198594e+73
-2.5137545e+73
-2.5059852e+73
-2.5014291e+73
-2.5071209e+73
-2.5003114e+73
-2.5127756e+73
-2.5188676e+73
-2.5116394e+73
-2.5177402e+73
-2.5227017e+73
-2.529225e+73
-2.5279846e+73
-2.5214359e+73
-2.5203147e+73
-2.5268571e+73
-2.5190784e+73
-2.525585e+73
-2.5416527e+73
-2.5357415e+73
-2.5428967e+73
-2.5344771e+73
-2.532114e+73
-2.5333869e+73
-2.5405608e+73
-2.5393004e+73
-2.5497849e+73
-2.5573943e+73
-2.5485474e+73
-2.5561917e+73
-2.5637854e+73
-2.572558e+73
-2.5650275e+73
-2.5737949e+73
-2.5462129e+73
-2.5474631e+73
-2.5551005e+73
-2.5538313e+73
-2.5614853e+73
-2.5702699e+73
-2.5627247e+73
-2.5714852e+73
-2.5823854e+73
-2.5922581e+73
-2.581148e+73
-2.5910699e+73
-2.6010316e+73
-2.6137151e+73
-2.6124592e+73
-2.6022792e+73
-2.5800755e+73
-2.5899904e+73
-2.5788725e+73
-2.5887361e+73
-2.5987666e+73
-2.6102008e+73
-2.6000007e+73
-2.6114084e+73
-2.5540041e+73
-2.5528803e+73
-2.5615966e+73
-2.5605022e+73
-2.5680906e+73
-2.5768506e+73
-2.5692016e+73
-2.5779555e+73
-2.5519166e+73
-2.5595317e+73
-2.5583978e+73
-2.550793e+73
-2.5747992e+73
-2.5671481e+73
-2.5758863e+73
-2.5660331e+73
-2.5865583e+73
-2.5854476e+73
-2.5964978e+73
-2.5954128e+73
-2.6054426e+73
-2.6169533e+73
-2.6066064e+73
-2.6181698e+73
-2.5844585e+73
-2.5943941e+73
-2.5932538e+73
-2.5833661e+73
-2.6147788e+73
-2.6044393e+73
-2.6158965e+73
-2.6032953e+73
-2.5692679e+73
-2.5604353e+73
-2.5590403e+73
-2.5678575e+73
-2.5527582e+73
-2.5451242e+73
-2.5437365e+73
-2.5514019e+73
-2.5425142e+73
-2.5501602e+73
-2.5411547e+73
-1.9863729e+73
-2.0825504e+73
-2.0741118e+73
-2.2020843e+73
-2.1516202e+73
-2.1450148e+73
-2.1965033e+73
-2.1921612e+73
-2.1890505e+73
-2.1410939e+73
-2.1390792e+73
-2.1857973e+73
-2.1358886e+73
-2.2505142e+73
-2.2530348e+73
-2.2759064e+73
-2.2729382e+73
-2.2558206e+73
-2.2588394e+73
-2.281246e+73
-2.2786177e+73
-2.2953918e+73
-2.2980338e+73
-2.3140888e+73
-2.3114145e+73
-2.3090747e+73
-2.2928643e+73
-2.28993e+73
-2.3062645e+73
-2.3198061e+73
-2.3224986e+73
-2.3344098e+73
-2.3317624e+73
-2.3248601e+73
-2.3275022e+73
-2.3392835e+73
-2.3367772e+73
-2.346873e+73
-2.3492697e+73
-2.3588634e+73
-2.3565958e+73
-2.3543803e+73
-2.344581e+73
-2.3419227e+73
-2.3516715e+73
-2.3493526e+73
-2.3399262e+73
-2.3371557e+73
-2.3467258e+73
-2.3298338e+73
-2.3177683e+73
-2.3148531e+73
-2.3269503e+73
-2.3110283e+73
-2.3129328e+73
-2.3250207e+73
-2.3232408e+73
-2.3449459e+73
-2.3352429e+73
-2.3336044e+73
-2.3433973e+73
-2.2418899e+73
-2.2432291e+73
-2.2657709e+73
-2.263966e+73
-2.2450212e+73
-2.2481064e+73
-2.2706638e+73
-2.2677185e+73
-2.3039749e+73
-2.2876706e+73
-2.2847205e+73
-2.3010273e+73
-2.2991279e+73
-2.2827723e+73
-2.2809437e+73
-2.2972297e+73
-2.2371339e+73
-2.2401292e+73
-2.2623769e+73
-2.259914e+73
-2.2955048e+73
-2.2792123e+73
-2.2768385e+73
-2.2930303e+73
-2.2914426e+73
-2.275196e+73
-2.2735221e+73
-2.2898504e+73
-2.3420961e+73
-2.332221e+73
-2.3296007e+73
-2.3395763e+73
-2.3216132e+73
-2.3092882e+73
-2.3067431e+73
-2.3190243e+73
-2.3033758e+73
-2.3049395e+73
-2.3170337e+73
-2.3154226e+73
-2.3375715e+73
-2.3275161e+73
-2.3258235e+73
-2.3357789e+73
-2.632908e+73
-2.632052e+73
-2.6312732e+73
-2.6303847e+73
-2.6361643e+73
-2.635198e+73
-2.6344195e+73
-2.6336564e+73
-2.6394307e+73
-2.6385453e+73
-2.6378177e+73
-2.6369948e+73
-2.6433227e+73
-2.6421814e+73
-2.6412133e+73
-2.6402644e+73
-2.6561879e+73
-2.6549918e+73
-2.6540392e+73
-2.6531436e+73
-2.6523926e+73
-2.6516301e+73
-2.6510212e+73
-2.6504396e+73
-2.6498325e+73
-2.6490745e+73
-2.6483934e+73
-2.6476633e+73
-2.6469117e+73
-2.6460035e+73
-2.6451871e+73
-2.6442384e+73
-2.4748392e+73
-2.5741512e+73
-2.5677882e+73
-2.4627074e+73
-2.5539427e+73
-2.5615808e+73
-2.3474454e+73
-2.4401243e+73
-2.4474757e+73
-2.4989805e+73
-2.4914337e+73
-2.5900891e+73
-2.6620882e+73
-2.6656902e+73
-2.6397931e+73
-2.636182e+73
-2.5836608e+73
-2.6555218e+73
-2.6589255e+73
-2.633004e+73
-2.6296022e+73
-2.6485512e+73
-2.6522527e+73
-2.5772861e+73
-2.6227964e+73
-2.6264293e+73
-2.6403394e+73
-2.6448066e+73
-2.56976e+73
-2.6192666e+73
-2.6149908e+73
-2.6746943e+73
-2.6763577e+73
-2.6802665e+73
-2.6785915e+73
-2.6927643e+73
-2.6911195e+73
-2.6780806e+73
-2.6800169e+73
-2.6838217e+73
-2.6819735e+73
-2.6962234e+73
-2.6944365e+73
-2.671449e+73
-2.6731899e+73
-2.6770181e+73
-2.6753754e+73
-2.6895286e+73
-2.6879815e+73
-2.6682332e+73
-2.6698694e+73
-2.6737999e+73
-2.6721829e+73
-2.6864037e+73
-2.6847431e+73
-2.6935324e+73
-2.694167e+73
-2.6947885e+73
-2.6940776e+73
-2.6919367e+73
-2.6928281e+73
-2.6934091e+73
-2.6925788e+73
-2.689662e+73
-2.6886483e+73
-2.690271e+73
-2.6893081e+73
-2.6904758e+73
-2.6911332e+73
-2.6918146e+73
-2.6910631e+73
-2.6929478e+73
-2.6936564e+73
-2.6910385e+73
-2.6903922e+73
-2.6770138e+73
-2.6859181e+73
-2.685335e+73
-2.676412e+73
-2.691527e+73
-2.6923243e+73
-2.6897632e+73
-2.6890116e+73
-2.6839243e+73
-2.6847131e+73
-2.6758046e+73
-2.6750256e+73
-2.6907716e+73
-2.6899995e+73
-2.68749e+73
-2.6882522e+73
-2.6831919e+73
-2.6824894e+73
-2.6735083e+73
-2.6742642e+73
-2.6867225e+73
-2.6892276e+73
-2.6882788e+73
-2.6857371e+73
-2.6727455e+73
-2.6816767e+73
-2.6806545e+73
-2.6717073e+73
-2.6999702e+73
-2.7007943e+73
-2.7013078e+73
-2.7003547e+73
-2.698155e+73
-2.6991469e+73
-2.6995603e+73
-2.6986278e+73
-2.6966702e+73
-2.6973358e+73
-2.6978572e+73
-2.6971106e+73
-2.6959092e+73
-2.6964026e+73
-2.6949553e+73
-2.6955276e+73
-2.6989751e+73
-2.7000131e+73
-2.6961268e+73
-2.6971482e+73
-2.6973232e+73
-2.6982202e+73
-2.6945267e+73
-2.695346e+73
-2.6900138e+73
-2.6809999e+73
-2.6801333e+73
-2.6891655e+73
-2.6907991e+73
-2.6917739e+73
-2.682704e+73
-2.6817279e+73
-2.6885102e+73
-2.6879446e+73
-2.6789372e+73
-2.6795101e+73
-2.6783777e+73
-2.6873416e+73
-2.6865813e+73
-2.677648e+73
-2.6958525e+73
-2.6965904e+73
-2.6931179e+73
-2.6937944e+73
-2.6943762e+73
-2.6951963e+73
-2.6917266e+73
-2.6924773e+73
-2.661128e+73
-2.6630038e+73
-2.6650657e+73
-2.6669587e+73
-2.6794501e+73
-2.677513e+73
-2.664749e+73
-2.666637e+73
-2.6686946e+73
-2.6705598e+73
-2.6830356e+73
-2.6812528e+73
-2.6569554e+73
-2.6592368e+73
-2.6609029e+73
-2.663093e+73
-2.6733482e+73
-2.6754685e+73
-2.6524674e+73
-2.6547555e+73
-2.6587035e+73
-2.6687545e+73
-2.6711265e+73
-2.6564051e+73
-2.6759449e+73
-2.6749039e+73
-2.6754903e+73
-2.6766357e+73
-2.6743592e+73
-2.6737417e+73
-2.6723617e+73
-2.6730168e+73
-2.6778579e+73
-2.6767066e+73
-2.6742238e+73
-2.6753392e+73
-2.6772639e+73
-2.6798262e+73
-2.6787876e+73
-2.6762547e+73
-2.6634186e+73
-2.6722326e+73
-2.6712694e+73
-2.6624527e+73
-2.6616218e+73
-2.6703446e+73
-2.6692663e+73
-2.6606368e+73
-2.6756325e+73
-2.674459e+73
-2.6720287e+73
-2.6731401e+73
-2.65967e+73
-2.6682422e+73
-2.6672344e+73
-2.6587535e+73
-2.6578059e+73
-2.6661781e+73
-2.6648864e+73
-2.6566224e+73
-2.6733541e+73
-2.672026e+73
-2.6696184e+73
-2.6709039e+73
-2.6808829e+73
-2.6802074e+73
-2.6792743e+73
-2.6798599e+73
-2.6788849e+73
-2.6782725e+73