/*--------------------------------*- C++ -*----------------------------------*\
  =========                 |
  \\      /  F ield         | OpenFOAM: The Open Source CFD Toolbox
   \\    /   O peration     | Website:  https://openfoam.org
    \\  /    A nd           | Version:  7
     \\/     M anipulation  |
\*---------------------------------------------------------------------------*/
FoamFile
{
    version     2.0;
    format      ascii;
    class       surfaceScalarField;
    location    "6000";
    object      phi;
}
// * * * * * * * * * * * * * * * * * * * * * * * * * * * * * * * * * * * * * //

dimensions      [0 3 -1 0 0 0 0];

internalField   nonuniform List<scalar> 
100335
(
3.1338196e+32
-1.9460805e+33
-1.8738912e+33
-1.9480469e+33
-1.9344332e+33
1.3187843e+32
-1.9817816e+33
-2.6439944e+32
-4.5320178e+31
-1.8082086e+33
-1.7867979e+33
-1.5609101e+33
-1.5536497e+33
-3.5067453e+32
-4.5077943e+31
1.7777618e+32
-3.9379311e+32
-4.0679887e+32
-4.7540587e+32
-4.3982242e+32
6.0344393e+31
-3.5198401e+32
-5.4809896e+31
3.3867447e+31
5.2455179e+30
-8.24432e+31
-7.9172595e+31
-9.7555576e+31
-1.0073302e+32
-2.6239913e+32
-1.5787925e+33
-2.997612e+32
1.2631897e+32
-3.9835314e+32
-4.0973558e+32
-4.4623205e+32
-4.4560287e+32
-1.5200017e+33
1.5303231e+33
-2.3846768e+32
-1.0621107e+32
1.0570413e+32
-8.8536595e+31
8.1444038e+31
-1.9637352e+33
-2.5568044e+32
-6.9107813e+31
-9.3054678e+31
1.046151e+32
-2.4272588e+32
1.5999192e+32
1.7295394e+32
-1.9874775e+33
-1.0120312e+31
-3.7841014e+31
2.865013e+31
3.3580196e+31
-4.3549928e+32
-4.0971672e+31
-1.0181812e+31
-6.6004317e+30
1.3354515e+32
1.5949547e+32
-1.9276434e+33
-4.7338558e+31
-2.2197362e+31
5.3498189e+31
9.5381776e+31
-4.1131263e+32
-4.118577e+32
-3.9283704e+32
-3.9691012e+32
9.1170992e+31
-4.2709659e+32
-4.0480619e+32
-3.8718258e+32
-3.987951e+32
6.8551375e+31
-3.5315493e+32
-3.6169247e+32
-2.9485965e+32
-2.877001e+32
-3.5917964e+32
-3.4905838e+32
-2.7494674e+32
-2.8113729e+32
4.9414384e+31
-2.4599799e+31
-3.9411984e+32
2.0098397e+31
-1.2514759e+28
-8.5492849e+31
-8.683581e+31
-7.2661798e+31
-7.1029812e+31
-2.1257153e+30
-5.5014964e+31
-5.7721251e+31
-4.4837153e+31
-4.8669003e+31
9.2159114e+30
-7.4887572e+31
4.6985172e+31
-1.0648957e+32
-8.3615416e+31
-8.0946728e+31
-9.8809324e+31
-7.1301007e+31
5.1320802e+30
4.1864903e+31
-8.194076e+31
-8.4601246e+31
-1.0207261e+32
-1.0466425e+32
3.3404022e+31
-4.9390682e+31
-3.7072826e+32
-3.6316191e+32
-3.825406e+29
-1.3158946e+31
1.0440871e+31
-1.7164658e+31
-1.6744477e+31
-2.2777014e+31
-2.1701274e+31
-1.2084778e+31
8.3664641e+30
1.4146082e+30
-1.6459142e+31
-1.7052053e+31
-2.1434938e+31
-2.2305285e+31
6.3489993e+30
-7.9892853e+31
-7.4463647e+30
-8.156795e+31
8.921995e+30
-6.3106341e+31
3.8037302e+31
-8.2214569e+31
-8.4854855e+31
-1.0009371e+32
-1.0321344e+32
-6.8713319e+31
4.3765073e+31
-8.4645955e+31
-1.0479534e+32
-8.2470983e+31
-9.8820942e+31
4.3683776e+31
-3.5632957e+32
-3.6052762e+32
-1.4949602e+33
-2.3707724e+32
1.1603831e+32
1.3622431e+32
-6.2171409e+31
-8.898739e+31
1.9698021e+32
1.469782e+33
8.6926381e+31
-9.7895357e+31
-7.6463664e+31
1.0948482e+32
9.2428823e+31
-1.0444342e+32
-7.61227e+31
-1.9032074e+33
1.1299649e+32
1.0271381e+32
-8.9574371e+31
-6.8394086e+31
1.2822153e+32
2.498014e+31
3.2125454e+32
-3.5676426e+31
-2.3541693e+31
-2.5631029e+31
1.4942155e+31
-4.0078188e+32
1.824314e+31
-3.2875279e+32
-2.9444722e+31
4.3635271e+32
-2.1776496e+31
-2.5616168e+31
2.0172636e+31
1.7586937e+31
-2.2212212e+31
-2.5634233e+31
1.9381777e+31
1.719358e+31
-4.1360197e+32
4.2824598e+32
-3.9889826e+31
-2.3487083e+31
-2.5793636e+31
1.5323486e+31
1.8854932e+31
-1.5062208e+33
-2.423859e+32
6.7159404e+31
9.1310339e+31
-9.6545493e+31
-1.1920933e+32
-2.4893032e+31
-2.2193826e+31
2.261761e+31
-1.8311061e+31
3.4422122e+32
-3.4362379e+31
1.9965358e+31
-2.0479952e+31
-2.2805982e+31
2.3760003e+31
-4.4677383e+31
-1.4898146e+31
2.9480642e+31
-1.8013309e+31
2.4897286e+31
2.0278324e+32
-2.5262327e+32
-1.97134e+33
-9.4330155e+31
6.3819668e+31
8.8286197e+31
-6.9306553e+31
-1.0021701e+32
6.8693085e+31
-3.0173455e+31
3.569728e+31
3.617265e+31
-4.447706e+32
-3.6821799e+30
-7.4975563e+30
-3.571835e+31
3.2439962e+31
3.6248162e+31
-4.5698998e+32
-5.9293734e+30
-8.7931236e+30
4.8663641e+30
6.3862911e+30
7.197262e+30
-9.8311928e+31
-6.2956511e+30
-2.1948139e+30
-1.722184e+30
7.0102511e+30
7.240751e+30
-1.0009904e+32
-2.1317051e+30
-1.4481506e+30
3.2695217e+31
3.0199903e+31
3.5062531e+31
-4.3933138e+32
-9.8225789e+30
-6.3122519e+30
3.3475195e+31
3.4881835e+31
-4.408115e+32
-8.5774294e+30
-4.7161963e+30
-4.0153395e+31
5.7741775e+31
5.3249663e+31
-1.5432312e+32
-3.2782754e+32
5.255733e+31
-1.297809e+32
-3.2442315e+32
2.2158512e+31
5.5331709e+31
-3.9304084e+32
2.3835062e+31
5.7004092e+31
-3.9784896e+32
5.1097646e+31
3.5785282e+31
-1.339045e+32
-3.2682529e+32
1.4642844e+31
5.1908667e+31
-3.9642498e+32
-5.6709087e+31
5.525293e+31
-3.9568332e+32
-1.5022299e+32
-3.2509372e+32
7.5224585e+30
1.5912089e+31
-8.4507912e+31
-8.5829307e+31
-7.2482147e+31
-7.0962175e+31
1.5499374e+31
3.7289683e+30
-7.3569884e+31
-8.7873706e+31
-8.3951552e+31
-7.0999075e+31
-1.9689987e+31
7.37183e+30
-6.0590485e+31
-5.8372938e+31
-5.2724792e+31
-5.1588767e+31
-5.9055814e+31
-6.0562995e+31
-5.1223022e+31
-5.3749091e+31
-4.5087855e+30
1.6989437e+31
-8.5383985e+31
-8.6322736e+31
-7.2822155e+31
-7.1493763e+31
1.743352e+31
-8.3854967e+31
-8.823889e+31
-7.3193755e+31
-7.0472644e+31
8.6977399e+29
-5.6664792e+31
-4.9494919e+31
-4.9283576e+31
-5.8080227e+31
-5.6479928e+31
-5.8498519e+31
-4.8094796e+31
-5.0968098e+31
2.728362e+31
3.0743914e+31
-1.7379702e+31
-3.9503744e+32
-2.5226883e+30
-5.6722416e+30
5.7671133e+30
1.3177986e+31
-6.4777344e+30
-7.0676586e+31
1.4178529e+31
-7.1322997e+31
-2.89946e+30
1.3288679e+31
-7.1792453e+31
1.2764633e+31
-2.4748018e+30
-7.1041107e+31
1.3076625e+30
2.7740741e+30
-6.2230497e+29
-1.2855952e+31
-1.3057286e+31
-9.7363053e+30
-1.0060199e+31
1.7572999e+30
-1.3480554e+31
-1.2864975e+31
-1.0211565e+31
-9.8580408e+30
7.5640682e+29
6.8673258e+29
-8.0872418e+30
-8.95871e+30
-8.5383328e+30
-9.5554553e+30
-8.6321144e+30
-8.4175061e+30
-9.789076e+30
-9.6982323e+30
1.4696638e+31
3.8659724e+30
-5.1667681e+30
-8.4188121e+31
-2.3111175e+30
2.385308e+30
1.0565989e+31
-2.2289233e+31
-1.6885907e+31
-1.7363398e+31
-2.3020404e+31
-1.5028428e+31
1.1388942e+31
-1.7139022e+31
-1.6646496e+31
-2.2879218e+31
-2.1539005e+31
-8.1245492e+31
-3.9630183e+29
-1.4244157e+31
1.5350851e+30
1.0326681e+31
-1.6840477e+31
-1.7374745e+31
-2.2010916e+31
-2.2935915e+31
-1.4796753e+31
1.1713193e+31
-1.6970479e+31
-1.7346397e+31
-2.3141764e+31
-2.2070029e+31
4.587661e+30
-5.8506025e+30
-8.2613854e+31
-8.3791947e+31
-2.5026458e+29
-2.8142866e+30
4.6307174e+28
2.9740872e+30
-3.4891833e+30
-3.4133815e+30
-5.0272708e+30
-5.1906611e+30
-3.0143633e+30
3.2521719e+30
-3.3963507e+30
-3.4797043e+30
-5.2041139e+30
-4.9409141e+30
6.2997928e+29
-1.0599402e+30
-1.8151088e+31
-1.78733e+31
1.6084375e+29
-2.7509037e+30
2.7871945e+30
2.3725919e+29
-3.457207e+30
-3.3754247e+30
-4.9249476e+30
-5.1359535e+30
-2.8604959e+30
3.1255446e+30
-5.203678e+30
-3.482728e+30
-3.417921e+30
-5.0056222e+30
9.4186953e+29
-1.7696418e+31
-1.0450022e+30
-1.8086589e+31
1.6589719e+30
-1.3185807e+31
9.3239637e+30
-1.7059114e+31
-1.748579e+31
-2.1956139e+31
-2.277366e+31
-1.4291102e+31
5.4341465e+28
1.1117695e+31
-2.3252559e+31
-1.7636861e+31
-1.7092468e+31
-2.2094909e+31
6.1800863e+30
-8.09621e+31
6.8661114e+30
-8.3128035e+31
-1.4019184e+31
-1.5181306e+30
1.0391054e+31
-1.6993012e+31
-1.7434412e+31
-2.2151063e+31
-2.2866847e+31
3.9522802e+30
-8.242549e+31
-1.5058977e+31
1.1578359e+31
-2.2987812e+31
-1.7370227e+31
-1.6897097e+31
-2.1718264e+31
-8.0896404e+31
7.6254117e+31
-2.7838156e+30
3.0976863e+30
3.4743163e+30
-9.567753e+31
-5.9986216e+30
-6.0631396e+30
-3.6244099e+30
-5.6575532e+30
3.3117188e+30
-5.4466735e+30
-3.1178878e+32
-3.9626376e+31
1.734116e+31
1.5583335e+31
-2.5748855e+31
-2.5506585e+31
-3.8976713e+31
-4.0926542e+32
1.6954687e+31
-2.6047224e+31
-2.4928936e+31
1.7247683e+31
3.5224077e+31
-3.5744068e+32
-4.4339791e+31
-1.4987482e+31
-1.7551282e+31
2.7185375e+31
3.0958137e+31
-3.4957495e+32
2.8866329e+31
-1.2365953e+31
-1.6298859e+31
3.1373842e+31
-2.5795005e+31
-4.3045922e+32
2.3379697e+31
-2.1691691e+31
-1.7617569e+31
2.6075056e+31
-4.4154587e+32
-3.392148e+31
2.146128e+31
-2.0464564e+31
-2.2422083e+31
2.466964e+31
-3.1636697e+32
2.8859729e+31
4.2702363e+32
1.6497979e+31
-2.2474524e+31
-2.4740244e+31
1.9876967e+31
2.507304e+31
1.8854196e+31
-2.244447e+31
3.1686164e+32
3.2031731e+31
-2.0901261e+31
-2.4433812e+31
1.7106163e+31
-3.9131714e+32
1.9262084e+31
3.8254117e+31
4.2678145e+32
-2.1186972e+31
1.6977465e+31
-2.4883246e+31
1.9263371e+31
-3.2835428e+32
2.9178687e+31
1.6711656e+31
-2.3066812e+31
-2.5419833e+31
2.008766e+31
2.5298116e+31
1.8305918e+31
1.5345752e+31
-2.6112568e+31
-2.409924e+31
-4.0950393e+32
3.2220636e+32
-2.0724806e+31
-2.4250816e+31
1.8100961e+31
-4.0201853e+32
2.0185835e+31
-1.4487572e+33
7.3752922e+31
9.3659897e+31
-1.1362538e+32
-8.2760527e+31
-2.0416855e+31
2.0514358e+31
-2.4213909e+31
1.8148899e+31
-1.9118588e+33
7.0520848e+31
-8.535463e+31
9.7960307e+31
-5.3788496e+31
-3.4730426e+32
3.7025973e+31
-1.5091089e+31
-1.8369214e+31
2.5177386e+31
3.0061372e+31
2.5677669e+31
-2.250966e+31
2.40199e+31
2.0291788e+31
-2.0352457e+31
3.4460438e+32
-1.8504725e+31
-2.2186605e+31
2.1852323e+31
2.4378186e+31
-1.3486908e+31
2.9246959e+31
-1.7566274e+31
2.6506811e+31
-1.9121085e+30
7.6241321e+31
2.1200811e+30
3.4887742e+30
3.5866153e+30
-9.5429285e+31
-5.6376103e+30
-5.9994819e+30
7.4880136e+31
-3.4385776e+30
2.9812579e+30
3.4745681e+30
-9.3345357e+31
-5.9362757e+30
-6.1588866e+30
2.5637029e+30
9.5518089e+31
-4.2630975e+30
-5.6540153e+30
3.2677114e+30
-5.4000017e+30
3.7899071e+30
3.0842424e+31
-3.0525752e+32
-4.0901053e+31
1.8068642e+31
1.4773045e+31
-2.4306561e+31
-2.6841453e+31
2.93402e+30
9.7471355e+31
-5.6371275e+30
3.6170239e+30
-5.1550628e+30
3.8179557e+30
-2.377326e+30
7.5907983e+31
-9.7129798e+31
-5.2826402e+30
-4.7168995e+30
3.9431131e+30
4.2021907e+30
7.6808132e+31
-9.8767799e+31
-3.0559404e+30
-5.4055085e+30
3.5639925e+30
-5.1718535e+30
4.0354815e+30
-3.2589745e+30
9.6029541e+31
-5.1643716e+30
3.9272027e+30
-4.5467013e+30
-4.2480829e+30
9.7812942e+31
-5.2613724e+30
3.6386073e+30
-4.9693755e+30
4.1633862e+30
-1.7697127e+30
7.6221421e+31
3.562337e+30
3.6738355e+30
-9.5204098e+31
-5.5288514e+30
-5.9509654e+30
7.7235886e+31
3.1928641e+30
3.558546e+30
-9.7219194e+31
-5.9628007e+30
-6.089168e+30
-2.3340499e+30
-5.5365935e+30
3.7497401e+30
-4.9938145e+30
3.9637075e+30
-5.6499345e+30
3.4277676e+30
-5.4053799e+30
3.8891837e+30
-3.1360107e+32
1.7906212e+31
1.6055672e+31
-2.7398812e+31
-2.4037593e+31
-2.3644398e+30
7.5789188e+31
-5.3908619e+30
3.7699109e+30
-4.8917724e+30
4.0163095e+30
7.4791816e+31
-4.1262632e+30
-5.4265799e+30
3.3847573e+30
-5.1831978e+30
3.9194827e+30
3.7155867e+30
9.4707934e+31
-5.3925866e+30
-5.3356678e+30
3.4164761e+30
-5.0129374e+30
4.0165009e+30
9.6437779e+31
-5.3176228e+30
3.7198604e+30
-4.7595594e+30
4.0311694e+30
-3.1077544e+31
-4.0651032e+32
-2.333681e+31
-2.5645777e+31
1.8241502e+31
1.9205686e+31
-3.9716619e+32
-3.9515072e+31
-2.4287223e+31
-2.674117e+31
1.4521781e+31
1.764351e+31
7.7188664e+31
3.133101e+30
-3.6642681e+30
-4.9190336e+30
-4.6241927e+30
3.9782888e+30
4.5265612e+30
-5.0021447e+30
1.0034598e+32
-4.7176016e+30
4.3631419e+30
-4.3443987e+30
4.9944206e+30
-4.8241389e+30
4.3136184e+30
-7.512874e+31
4.2745746e+30
9.7163287e+31
-6.2412783e+30
-4.7703347e+30
-4.3755054e+30
4.1781664e+30
4.8651921e+30
-3.2098792e+30
7.6196052e+31
-4.9547765e+30
4.1428668e+30
-4.377914e+30
4.497212e+30
-4.9546676e+30
-4.9830955e+30
3.7710759e+30
-4.6612575e+30
4.3912812e+30
9.8727995e+31
-4.7485445e+30
-4.1158072e+30
4.4850093e+30
4.8798361e+30
7.8811225e+31
-3.6279841e+30
4.7187391e+30
-4.1192939e+30
5.5375273e+30
-3.4626839e+30
5.9723232e+30
-5.59706e+30
-3.3677029e+30
6.12342e+30
-2.6516737e+30
6.6121105e+30
7.7867383e+31
-5.4427352e+30
-4.1379183e+30
5.1586921e+30
-3.770308e+30
5.8468825e+30
-7.2559582e+30
-3.3843392e+30
5.8134587e+30
-2.9163316e+30
6.5988543e+30
5.30822e+30
-4.141489e+30
-3.7813025e+30
1.5719951e+33
-3.0573459e+32
-3.0011921e+32
-2.288337e+32
7.4484649e+31
-1.2008682e+32
-1.0251326e+32
1.0406177e+32
3.1089102e+32
4.6137369e+31
-6.114092e+31
-4.0250643e+32
-1.2086179e+31
-1.7156579e+31
1.8591361e+31
2.2940247e+31
3.6676721e+31
-4.6645314e+31
-2.1333754e+31
-2.440429e+31
1.4815405e+31
1.8435742e+31
-3.1627435e+32
4.706141e+31
1.7038325e+31
-2.6412576e+31
-2.1953442e+31
1.899323e+31
6.3357158e+31
-4.1140934e+32
-1.3374418e+31
-1.9715471e+31
1.8583662e+31
2.3114888e+31
3.2175917e+32
-1.906321e+31
1.8275933e+31
2.3143677e+31
1.5424583e+31
-2.4797692e+31
-2.1490458e+31
1.8562651e+31
-4.0323114e+30
7.583521e+30
7.5523431e+30
-9.9530937e+31
-1.7088253e+30
-1.0871054e+30
-4.2649496e+30
7.1637366e+30
7.7512093e+30
-1.0296647e+32
-1.8617024e+30
-1.5397993e+30
-3.4557524e+30
7.5080494e+30
7.5308892e+30
-1.0232255e+32
-1.8838904e+30
-1.3630053e+30
-4.5788699e+30
6.9766914e+30
7.6648393e+30
-1.0143026e+32
-1.9071273e+30
-1.5880037e+30
6.5107712e+29
1.4125809e+30
1.5605021e+30
-2.1469591e+31
-9.271399e+29
-5.8873154e+29
-5.2992752e+29
7.9709188e+29
1.5211663e+30
1.5560017e+30
-2.1939236e+31
-6.0056793e+29
-4.9215168e+29
6.4122963e+29
1.4532566e+30
1.5672007e+30
-2.1992014e+31
-6.0800768e+29
-5.4736484e+29
1.5665223e+30
1.5525983e+30
-2.1640977e+31
-5.6355382e+29
-4.5644625e+29
4.5624987e+30
6.6989335e+30
7.5524842e+30
-9.9289021e+31
-2.0713144e+30
-1.6048931e+30
5.1650892e+30
7.4061281e+30
7.5387559e+30
-1.0163463e+32
-1.9791945e+30
-1.3739366e+30
3.8807818e+30
6.9351374e+30
7.5872194e+30
-1.0068222e+32
-1.959074e+30
-1.5996758e+30
7.6094831e+30
7.5641453e+30
-9.8662622e+31
-1.6957845e+30
-1.1259084e+30
2.1464505e+32
-6.8098783e+30
-3.1466744e+31
-1.7386832e+33
-3.3707486e+31
-8.1220747e+30
-1.7543405e+33
-3.3382727e+31
5.9876294e+31
4.3307869e+31
-4.0443875e+32
5.4441461e+31
-4.0316969e+32
1.6940184e+31
2.8351992e+31
3.1245195e+31
-3.9250514e+32
-4.2434467e+30
-1.7567604e+30
1.7145945e+31
2.9649839e+31
3.10989e+31
-3.9358258e+32
-3.9690319e+30
-1.3755164e+30
5.1196915e+31
3.411633e+31
-4.0253811e+32
1.4978571e+31
2.7796775e+31
3.0609598e+31
-3.9411386e+32
-5.0031466e+30
-2.3500029e+30
-5.9109479e+31
3.0937391e+31
2.9476145e+31
-3.9335184e+32
-4.419652e+30
-1.6169741e+30
-4.0335687e+32
4.6945931e+30
1.4154848e+31
-6.9491743e+31
1.4945726e+31
5.298037e+30
-7.0133262e+31
-2.6145347e+30
2.2735952e+30
1.4598212e+31
-7.179365e+31
1.4527589e+31
-7.1209717e+31
-1.4093232e+31
8.3595967e+29
1.4002903e+31
-7.204189e+31
3.1266092e+30
-7.0145662e+31
1.4664808e+31
5.4749523e+30
-6.986579e+31
1.4054184e+31
1.9268799e+30
-7.1479357e+31
-1.884064e+29
1.8863955e+30
-1.7792606e+30
-1.2992083e+31
-1.316885e+31
-1.0029762e+31
-1.0315581e+31
1.3518529e+30
2.1783877e+29
-1.3278626e+31
-1.2676136e+31
-9.8900678e+30
-1.0232009e+31
-7.6405074e+29
-1.6888744e+30
-8.8371909e+30
-9.7893195e+30
-9.1849642e+30
-1.0182923e+31
-1.2495491e+30
-9.0198259e+30
-1.01793e+31
-8.8863811e+30
-1.0087541e+31
2.3075958e+30
2.6080036e+30
-1.2989527e+31
-1.3187764e+31
-9.9616104e+30
-1.0242441e+31
1.3323072e+30
-1.3465102e+31
-1.2865212e+31
-1.0432654e+31
-1.0005775e+31
3.5084694e+30
-8.9509864e+30
-9.2463631e+30
-1.0371984e+31
-9.8952956e+30
-1.0671674e+31
-1.0272115e+31
-9.4724546e+30
-9.0632467e+30
4.5971761e+30
1.3247338e+31
-6.9956765e+31
1.4038139e+31
5.1562955e+30
-7.0310386e+31
-2.0298884e+30
1.6114309e+30
1.3331978e+31
-7.1697525e+31
1.303567e+31
-7.1385099e+31
-3.4327821e+30
1.4556266e+31
-7.0518786e+31
1.3700808e+31
-7.0740034e+31
7.7566802e+29
1.317724e+31
-7.1834417e+31
1.3599147e+31
-7.1214652e+31
1.5677031e+30
5.5013517e+29
-1.3294505e+31
-1.0085968e+31
-9.7457243e+30
-1.2679581e+31
-1.0786919e+30
-1.8329926e+30
1.0188964e+30
-8.9298449e+30
-8.5105186e+30
-9.5946008e+30
-1.0001164e+31
-8.6989576e+30
-9.8511343e+30
-9.7170498e+30
-8.4517449e+30
-1.926724e+29
-1.3068622e+31
-1.2871556e+31
-9.8606412e+30
-1.0192347e+31
5.4123124e+29
1.8933534e+30
-1.2743269e+31
-1.2990607e+31
-9.7898934e+30
-1.0137229e+31
1.0747341e+30
-1.3217977e+31
-1.2665729e+31
-1.0147602e+31
-9.861402e+30
-3.2652705e+29
-8.4709054e+30
-8.9141899e+30
-9.9540338e+30
-9.4586494e+30
-8.657884e+30
-1.006042e+31
-9.9514232e+30
-8.818071e+30
-1.585219e+31
3.3152506e+31
3.0325321e+31
-4.0454926e+32
-1.1177474e+31
-8.5207253e+30
-3.8021387e+30
1.6415196e+31
-9.107419e+31
1.523884e+31
-4.5645133e+30
-9.0825281e+31
1.0122453e+29
6.2000553e+30
6.4422652e+30
-1.9833594e+31
-2.0491225e+31
-1.5316163e+31
-1.5101812e+31
1.225206e+30
1.4190587e+30
5.8911197e+30
6.3441588e+30
3.5095416e+29
-2.0190836e+31
-2.0090901e+31
1.1770677e+30
-1.5296799e+31
-1.5155575e+31
1.2697815e+30
9.1201897e+29
3.4209686e+30
-1.0003735e+30
-1.0297441e+31
3.4560766e+30
1.0677394e+30
-1.0324921e+31
4.3153214e+29
2.2820954e+30
-3.868022e+29
-2.5727824e+30
-2.543443e+30
-1.7701331e+30
-1.7557986e+30
4.758355e+29
2.023162e+30
-1.8169436e+30
-2.64702e+30
-2.4971519e+30
-1.7104663e+30
7.204421e+29
3.4555015e+30
-1.0388698e+31
3.526342e+30
-1.0326809e+31
2.3084906e+29
2.1646155e+30
-1.7765091e+30
-2.5540972e+30
-1.7642183e+30
-2.5808665e+30
2.0759219e+30
-2.6653499e+30
-2.5032179e+30
-1.8256283e+30
-1.7118174e+30
-7.7179503e+29
3.7605992e+29
-2.0941518e+29
-1.5618734e+30
-1.5874153e+30
-1.0207724e+30
-1.029932e+30
1.5639104e+29
2.5339996e+29
-2.4510668e+30
-1.1861684e+30
-1.1915469e+30
-2.5243173e+30
-1.2343661e+30
3.8375059e+29
-1.1128579e+30
-1.6405385e+30
-1.5284672e+30
-1.0066303e+30
4.8410898e+28
-1.1563277e+30
-1.2558834e+30
-2.6097639e+30
-2.5343196e+30
1.8515586e+29
-9.7207988e+29
-1.0559089e+30
-1.6010106e+30
-1.5799871e+30
-1.0599131e+30
-1.2615468e+30
-1.1079e+30
-1.6427544e+30
-1.5329927e+30
-1.0140812e+30
-1.2366318e+29
-2.5360738e+30
-1.2434623e+30
-1.2319254e+30
-2.6035307e+30
-1.2006335e+30
-1.3028915e+30
-2.6682102e+30
-2.603471e+30
3.1167673e+30
5.6979672e+29
-6.2634652e+29
-1.8185711e+31
-8.1917197e+28
3.9551971e+29
3.2120928e+30
-3.5682886e+30
-3.4425837e+30
-5.0179055e+30
-5.2660533e+30
-3.1709665e+30
-4.2554915e+29
3.4156982e+30
-3.4496618e+30
-3.5145361e+30
-5.2584114e+30
-5.0418839e+30
5.8949988e+29
-1.8459863e+31
-4.5959097e+29
-3.1321206e+30
3.2808183e+30
-3.5475035e+30
-3.4137957e+30
-5.0445164e+30
-5.247859e+30
-3.2238853e+30
3.3696931e+30
-3.3944907e+30
-3.4802977e+30
-5.2046093e+30
-4.9352356e+30
4.3354872e+29
-1.8271865e+31
-1.7822e+31
9.3221486e+28
-3.0846984e+30
2.7605895e+29
3.1960111e+30
-3.5794878e+30
-3.4683376e+30
-5.0283929e+30
-5.2448487e+30
-3.1644647e+30
-1.6722708e+29
3.4359655e+30
-3.4736975e+30
-3.5579504e+30
-5.28999e+30
-5.0641564e+30
7.1152308e+29
-7.7455919e+29
-1.8055886e+31
7.1403049e+29
-1.8438047e+31
3.6220601e+29
-3.2746952e+30
3.5432909e+30
-3.523352e+30
-3.4359773e+30
-5.2555759e+30
-4.9908531e+30
-3.134188e+30
3.3660873e+30
-3.4648866e+30
-5.0844235e+30
-5.2605089e+30
-3.5734966e+30
3.5882494e+29
-1.8412696e+31
-1.8081356e+31
-9.8318907e+28
-5.3071216e+29
5.3885251e+28
1.2716731e+30
-4.1857093e+30
-5.1272355e+29
-9.1444936e+28
1.2351521e+30
-4.1426833e+30
1.2434533e+29
-1.4382023e+29
-4.0672627e+30
1.0695904e+29
-4.1367859e+30
1.6307293e+28
-5.760134e+29
1.3263872e+30
-4.1983552e+30
-5.4105522e+29
1.3178661e+30
-4.1863216e+30
4.884063e+28
-4.120528e+30
-4.0504052e+30
-1.0060073e+29
-5.3204535e+29
9.9329207e+28
1.2535039e+30
-4.1773933e+30
-5.1540897e+29
1.2363716e+30
-3.7821715e+28
-4.1591657e+30
1.4698777e+29
-4.0276274e+30
-1.471358e+29
1.5229024e+29
-4.112799e+30
5.1639037e+29
7.1534501e+28
-4.1181461e+30
2.4857667e+28
1.2666962e+30
-4.1585617e+30
-5.5869772e+29
1.2737249e+30
-4.199535e+30
-4.080604e+30
4.6299135e+29
-2.8740337e+30
2.9380854e+30
-5.0406938e+30
-3.5117181e+30
-3.6012406e+30
-5.2728252e+30
-3.0950226e+30
2.4459107e+29
3.4350382e+30
-3.5303703e+30
-3.6379474e+30
-5.3444923e+30
-5.0945927e+30
9.5192222e+29
-1.796305e+31
1.0134599e+30
-1.8377734e+31
3.0802667e+30
5.2764137e+29
-1.8440877e+31
-9.5037928e+28
3.3997287e+30
-3.5377841e+30
-3.623344e+30
-5.130851e+30
-5.3247126e+30
-3.2472032e+30
-9.7932256e+27
3.5449939e+30
-5.3086836e+30
-3.6081136e+30
-3.5108054e+30
-5.0478975e+30
8.7024373e+29
-1.8145958e+31
1.2826181e+29
-3.011184e+30
3.2107898e+30
-3.5860612e+30
-3.4672138e+30
-5.0173911e+30
-5.2600037e+30
-3.112498e+30
-2.2680034e+29
3.4594865e+30
-3.4936364e+30
-3.5795267e+30
-5.2927797e+30
-5.0603922e+30
6.7575716e+29
-1.8032623e+31
6.3141222e+29
-1.8347779e+31
3.1773661e+30
3.5664002e+29
-1.8280921e+31
-3.978221e+29
3.4296516e+30
-3.4900026e+30
-3.6037552e+30
-5.2678521e+30
-5.089878e+30
-3.3251165e+30
3.580175e+30
-3.5604667e+30
-3.4659515e+30
-5.259881e+30
-4.9876173e+30
-1.7897154e+31
-2.0520703e+30
-7.4525221e+31
3.4910906e+30
-5.8196605e+30
-5.5166261e+30
3.5723165e+30
3.0622207e+29
-1.687995e+31
2.1067204e+31
-4.9426173e+29
-1.2008911e+30
-1.1730035e+30
6.8809286e+29
7.8427499e+29
-1.7054146e+31
2.1419883e+31
7.3785747e+29
7.8089267e+29
-1.2346225e+30
-1.1496109e+30
-7.4801978e+31
-3.1573892e+30
3.354642e+30
-5.6273059e+30
-5.6291624e+30
3.7149267e+30
-2.6412339e+29
-2.1793412e+31
-1.2855921e+30
-4.6434697e+29
-2.1457115e+31
-1.2857523e+30
1.622588e+31
2.5535541e+29
-4.6827893e+29
8.3700082e+29
-1.1084599e+30
7.4732545e+29
-1.0791715e+30
-5.8903734e+29
-1.1196635e+30
7.2986068e+29
8.2518303e+29
-1.0835897e+30
8.4863876e+29
-1.1091368e+30
8.0967348e+29
-1.026893e+30
1.0953155e+30
-9.5391221e+31
-2.5803528e+30
3.6537616e+30
-5.5760166e+30
-5.6708135e+30
3.918499e+30
-9.5771859e+31
-5.6589341e+30
-5.8616665e+30
3.7958029e+30
3.6184317e+30
-7.3236021e+31
1.4507753e+30
-3.3370447e+30
3.7833392e+30
-5.4643355e+30
-5.6533034e+30
4.0200581e+30
1.3884996e+30
-3.5066024e+30
-9.339662e+31
3.8446662e+30
-5.5875568e+30
-5.9556036e+30
3.9299732e+30
7.4036761e+31
-9.548022e+31
-5.8123774e+30
-5.9934441e+30
4.1379166e+30
3.6579174e+30
3.5775472e+30
-5.8041956e+30
-5.69535e+30
3.4612584e+30
-2.7809061e+30
8.0107031e+31
4.0776335e+30
-1.0036069e+32
-4.0937761e+30
-3.5504505e+30
5.6637462e+30
5.9499373e+30
7.9929829e+31
-9.9671057e+31
-4.1177107e+30
-4.0497155e+30
5.4182081e+30
-3.8103033e+30
5.9685607e+30
4.301933e+30
-5.4771865e+30
-3.2251865e+30
6.1869153e+30
-2.9116817e+30
6.8101576e+30
5.8360622e+30
-3.2363859e+30
6.405871e+30
-2.6703004e+30
6.7093039e+30
-8.0403581e+31
4.9480635e+30
-3.2061483e+30
-2.8527879e+30
6.3246948e+30
6.9256788e+30
-3.5905739e+30
7.8608634e+31
-9.7833667e+31
-3.8813108e+30
-3.2003717e+30
5.8553603e+30
6.233245e+30
-1.0011486e+32
-3.9746632e+30
5.5246512e+30
-3.7026984e+30
6.0521873e+30
-3.0242531e+30
-2.3279854e+30
6.5598517e+30
6.9360314e+30
-7.688724e+31
4.2129345e+30
-4.7284255e+30
-4.6177683e+30
4.5029149e+30
-4.289118e+30
5.0715444e+30
3.3464768e+30
-3.6591783e+30
-9.7398769e+31
-4.8529889e+30
-4.5855715e+30
4.0334717e+30
4.5376278e+30
7.5522285e+31
-9.5155628e+31
-4.7084533e+30
-4.0732842e+30
4.4139039e+30
4.7754187e+30
-4.4540921e+30
-3.7754983e+30
4.7948124e+30
5.1701087e+30
-7.686225e+31
3.466284e+30
-5.0152655e+30
-4.7106484e+30
4.3835873e+30
-4.4300214e+30
4.9585373e+30
-2.7014736e+30
7.7456605e+31
-9.8197919e+31
-4.9520661e+30
-4.4287613e+30
4.2090632e+30
4.4908105e+30
-9.6736966e+31
-4.0997425e+30
-4.9081386e+30
3.9440533e+30
-4.6686448e+30
4.4836334e+30
-4.7327768e+30
-4.1899547e+30
4.5736799e+30
4.8524612e+30
-7.5390189e+31
3.5170793e+30
9.592211e+31
-5.2817026e+30
3.5776018e+30
-4.9742265e+30
4.1651847e+30
-2.1785971e+30
7.6214312e+31
-9.7210938e+31
2.8572183e+30
-5.3370255e+30
-4.8212319e+30
3.8779088e+30
4.1238459e+30
-5.1139375e+30
4.0539837e+30
4.4402225e+30
9.7251043e+31
-5.2802842e+30
-4.7082779e+30
3.7985444e+30
4.1071166e+30
-7.5699656e+31
2.9135976e+30
-5.5864741e+30
3.7005748e+30
-5.0725454e+30
3.9172101e+30
2.3463963e+30
3.4911753e+30
3.6364883e+30
-9.4250335e+31
-5.5283383e+30
-5.9452023e+30
-1.9011943e+30
7.4296543e+31
2.8358344e+30
3.5239189e+30
3.6558552e+30
-9.2103578e+31
-5.380091e+30
-5.8285437e+30
7.525425e+31
3.1156608e+30
3.5147086e+30
-9.4056448e+31
-5.8338234e+30
-5.9829577e+30
2.3376391e+30
9.6632609e+31
-5.5660156e+30
3.357655e+30
-5.3157925e+30
3.8279182e+30
-2.9229663e+32
4.0872557e+31
1.7905711e+31
1.5904426e+31
-2.5412462e+31
-2.1852816e+31
9.4865959e+31
3.7767035e+30
-5.4392431e+30
3.6928411e+30
-4.8929233e+30
3.8929336e+30
-2.2914403e+30
7.4278989e+31
3.585603e+30
-5.1984863e+30
3.8615136e+30
-4.6547435e+30
4.0975554e+30
-7.5348517e+31
3.2840978e+30
9.6151378e+31
-5.2739545e+30
3.5118918e+30
-4.9558939e+30
4.0486905e+30
-5.3470231e+30
3.4696618e+30
-5.1070074e+30
3.9509948e+30
4.5714176e+30
9.4027403e+31
-5.124861e+30
3.8158304e+30
-4.5439525e+30
4.0806221e+30
4.2287874e+31
-3.7838423e+32
-2.0182437e+31
-2.346143e+31
1.8476433e+31
1.9093606e+31
-7.609199e+31
3.1769405e+30
-5.2697457e+30
3.601995e+30
-5.0152251e+30
4.1441345e+30
-1.9750222e+30
7.695942e+31
-9.8259927e+31
2.4875258e+30
-5.33849e+30
-4.8941219e+30
3.8789615e+30
4.0748468e+30
-9.6905202e+31
-5.3560048e+30
3.5196046e+30
-5.1674045e+30
4.0077664e+30
4.1564783e+30
-5.2773197e+30
-4.7718226e+30
3.8302647e+30
4.0885015e+30
-2.4017733e+30
-7.6934508e+31
2.7040245e+30
-5.641443e+30
3.6730607e+30
-5.1967689e+30
3.8434076e+30
-7.639344e+31
-5.6310517e+30
3.3754863e+30
-5.4072103e+30
3.871698e+30
1.8312009e+30
3.0249817e+30
3.5022392e+30
-9.5868921e+31
-6.1749031e+30
-5.9847686e+30
2.0368664e+30
3.4047777e+30
3.5127065e+30
-9.6360796e+31
-5.7230966e+30
-6.0730038e+30
3.008178e+31
-3.060073e+32
1.5262208e+31
1.7401917e+31
-2.6211277e+31
-2.5405747e+31
-2.0756438e+30
7.5268242e+31
3.6951658e+30
3.8353969e+30
-9.3796464e+31
-5.3442366e+30
-5.7458413e+30
7.6596464e+31
3.3056721e+30
3.6529229e+30
-9.610182e+31
-5.8326022e+30
-5.9102266e+30
2.5997634e+30
9.8045625e+31
-5.4772306e+30
3.5391992e+30
-5.2724059e+30
3.9665025e+30
-3.0629536e+32
1.8684009e+31
1.6701944e+31
-2.5949412e+31
-2.2319064e+31
9.6013219e+31
-5.3568349e+30
3.8642699e+30
-4.8199998e+30
4.0900909e+30
3.0227861e+31
-3.903902e+32
1.6251627e+31
-2.5707126e+31
-2.5319582e+31
1.759263e+31
-3.9206703e+32
-2.1628185e+31
-2.3856738e+31
1.9133159e+31
2.0075712e+31
7.5255613e+31
-2.4540732e+30
-5.1178268e+30
4.0387875e+30
-4.5680889e+30
4.3156903e+30
-3.6020974e+30
-5.046981e+30
3.9872749e+30
-4.4312966e+30
4.3148563e+30
7.6421044e+31
-5.2453552e+30
3.6556528e+30
-5.0567357e+30
4.0905629e+30
-5.1895839e+30
3.6581111e+30
-4.9103232e+30
4.1673513e+30
2.2601995e+32
-1.6972983e+33
-3.2170735e+32
1.5111815e+33
-1.7604178e+33
-2.9465577e+32
-1.1345952e+32
7.793319e+31
1.0810304e+32
-7.7964329e+31
2.9251017e+32
6.1730481e+31
-3.8591976e+32
2.1496113e+31
-1.3712459e+31
2.5994446e+31
-6.6569161e+30
5.0834901e+31
1.643723e+31
-2.1693421e+31
-1.6947297e+31
1.8646841e+31
-2.9856163e+32
3.882028e+31
1.6621444e+31
-2.4277036e+31
-2.1158014e+31
1.9520523e+31
5.0027137e+31
-3.8805273e+32
1.8779573e+31
-1.6067542e+31
2.3783502e+31
-1.0655685e+31
-2.9922448e+32
1.8881346e+31
-2.3233935e+31
-1.8829635e+31
2.0474954e+31
-3.8328924e+32
2.1155333e+31
-1.6439208e+31
2.4686245e+31
-1.0239867e+31
-3.5632276e+30
7.9722491e+31
-9.9642031e+31
4.314558e+30
-4.1093751e+30
5.6727202e+30
-3.5100707e+30
6.023854e+30
7.8652741e+31
-9.8323108e+31
-4.1230188e+30
5.270898e+30
-3.7874643e+30
5.919351e+30
5.1971759e+30
-3.3178457e+30
-2.8962452e+30
5.9741219e+30
6.7316987e+30
6.2965626e+30
-3.2930996e+30
-2.6726049e+30
6.3151837e+30
6.700372e+30
7.6203951e+31
3.1228305e+30
-4.9432395e+30
-4.6385669e+30
3.8829728e+30
4.489137e+30
-4.349379e+30
-7.6812394e+31
5.0568254e+30
-4.7700364e+30
4.5244815e+30
-4.1510745e+30
4.8794519e+30
-4.7648219e+30
4.2482208e+30
-4.3894668e+30
4.9073716e+30
3.8920023e+30
-4.9647878e+30
-4.3850036e+30
4.1624711e+30
4.5043448e+30
-3.0108254e+30
7.4628713e+31
-4.7743184e+30
-4.1871433e+30
4.2377698e+30
4.5287433e+30
7.6060812e+31
-4.9055973e+30
-4.6208516e+30
3.8941493e+30
4.4174402e+30
3.8804269e+30
9.8962616e+31
-4.6871798e+30
-4.3533831e+30
4.2988201e+30
4.86866e+30
9.6793621e+31
-4.5390903e+30
-3.9203571e+30
4.6195241e+30
4.9183637e+30
7.7858333e+31
-3.2429951e+30
-3.9024078e+30
5.7393842e+30
-3.2941061e+30
6.0307935e+30
-4.6390588e+30
-3.0821629e+30
6.4239761e+30
-2.4620472e+30
6.7247774e+30
7.9064329e+31
-4.0506936e+30
5.3378002e+30
-3.7628848e+30
5.8793533e+30
-3.2775529e+30
-2.9022301e+30
6.0510067e+30
6.6752042e+30
2.3882267e+29
-1.7131724e+31
-3.3623987e+29
2.1554137e+31
-1.2019271e+30
-1.1652434e+30
7.2103937e+29
8.0991247e+29
-1.684581e+31
2.1103075e+31
3.9711002e+29
7.4701868e+29
7.8987126e+29
-1.2324769e+30
-1.1333521e+30
-2.5037921e+30
-7.392315e+31
2.8078742e+30
3.5926176e+30
-5.7229357e+30
-5.3389274e+30
3.7276653e+30
-2.7351916e+29
4.160743e+29
-2.1383905e+31
-1.2420678e+30
-3.5210003e+29
-2.1885818e+31
-1.1668084e+30
3.8734944e+29
-1.6708802e+31
2.0946202e+31
-6.9145858e+29
-1.227186e+30
-1.1947579e+30
6.8231352e+29
7.8759912e+29
-1.7001207e+31
2.1394051e+31
7.4245971e+29
7.9218391e+29
-1.2460317e+30
-1.1557781e+30
-7.2607104e+31
-3.9526402e+30
-5.5813918e+30
-5.82864e+30
3.1794508e+30
3.7142217e+30
-3.5476885e+29
-2.1690033e+31
-1.2447801e+30
-6.2913144e+29
-2.1202826e+31
-1.3905008e+30
1.6185163e+31
3.1177587e+29
-6.0643647e+29
-1.1141515e+30
-1.0781835e+30
8.4465088e+29
7.4936888e+29
4.5344337e+29
2.034064e+31
-6.9422557e+29
-1.1245729e+30
-1.0865553e+30
7.3343932e+29
8.3070651e+29
1.6437904e+31
3.1797172e+29
8.6260526e+29
-1.1108294e+30
8.1810316e+29
-1.0199288e+30
4.4361945e+29
2.0779671e+31
7.9233992e+29
-1.1326991e+30
-1.0384323e+30
8.3675672e+29
-1.6630208e+30
1.7287648e+30
-9.4873981e+31
-5.4507559e+30
-5.7383618e+30
3.9407311e+30
3.8269118e+30
-9.29633e+31
-3.3317519e+30
-5.7585742e+30
-5.9565489e+30
3.2049366e+30
3.6936637e+30
1.651002e+31
2.6846079e+29
8.588469e+29
-1.1075062e+30
7.7696441e+29
-1.0718042e+30
3.1483691e+29
2.0843341e+31
7.6091977e+29
-1.1157742e+30
-1.0769161e+30
8.4425671e+29
1.6272429e+31
3.792809e+29
8.5694081e+29
-1.1042171e+30
8.1804348e+29
-1.0060038e+30
4.8216118e+29
2.0440184e+31
7.9647656e+29
-1.1217635e+30
-1.023192e+30
8.3135626e+29
3.496454e+29
1.6065876e+31
-3.602528e+29
-2.0846872e+31
-1.0774563e+30
7.8178063e+29
8.5132794e+29