/*--------------------------------*- C++ -*----------------------------------*\
  =========                 |
  \\      /  F ield         | OpenFOAM: The Open Source CFD Toolbox
   \\    /   O peration     | Website:  https://openfoam.org
    \\  /    A nd           | Version:  7
     \\/     M anipulation  |
\*---------------------------------------------------------------------------*/
FoamFile
{
    version     2.0;
    format      ascii;
    class       volScalarField;
    location    "6000";
    object      pMean;
}
// * * * * * * * * * * * * * * * * * * * * * * * * * * * * * * * * * * * * * //

dimensions      [0 2 -2 0 0 0 0];

internalField   nonuniform List<scalar> 
33730
(
-1.0251228e+70
-1.0092586e+70
-1.0421811e+70
-1.0178819e+70
-1.0330041e+70
-1.032113e+70
-1.0122107e+70
-1.0194567e+70
-1.0145255e+70
-9.6102102e+69
-9.8031247e+69
-1.0083227e+70
-1.0300881e+70
-1.0102309e+70
-1.0214964e+70
-1.0205012e+70
-1.0235559e+70
-1.0230189e+70
-1.0270992e+70
-1.0248098e+70
-1.0317154e+70
-1.0307906e+70
-1.031375e+70
-1.032229e+70
-1.0315736e+70
-1.0377176e+70
-1.0378329e+70
-1.0390493e+70
-1.0397274e+70
-1.0328885e+70
-1.0321503e+70
-1.0338932e+70
-1.0337718e+70
-9.8117386e+69
-9.6092564e+69
-9.6071644e+69
-9.8194543e+69
-9.61528e+69
-9.7553438e+69
-9.605335e+69
-9.7587084e+69
-9.3030507e+69
-9.9093758e+69
-9.9083136e+69
-1.0082677e+70
-9.0281977e+69
-9.0214787e+69
-1.0292982e+70
-1.0293664e+70
-1.0412507e+70
-1.0415467e+70
-1.0300545e+70
-1.0296739e+70
-1.022996e+70
-1.0234236e+70
-1.0274539e+70
-1.0263509e+70
-1.0230698e+70
-1.0262187e+70
-1.0260443e+70
-1.0225464e+70
-1.0249857e+70
-1.0235939e+70
-1.0301912e+70
-1.0315306e+70
-1.0239799e+70
-1.0236133e+70
-1.030458e+70
-1.0304979e+70
-1.0275956e+70
-1.0284575e+70
-1.0284508e+70
-1.0330544e+70
-1.033418e+70
-1.0314464e+70
-1.0309472e+70
-1.0344098e+70
-1.0339613e+70
-1.039152e+70
-1.0377884e+70
-1.0372886e+70
-1.0382735e+70
-1.0381254e+70
-1.0379979e+70
-1.0388804e+70
-1.0394358e+70
-1.0425216e+70
-1.0422882e+70
-1.0434435e+70
-1.0428722e+70
-1.0421866e+70
-1.0423973e+70
-1.0426997e+70
-1.043488e+70
-1.0384897e+70
-1.0386465e+70
-1.0395021e+70
-1.0403938e+70
-1.038595e+70
-1.0399957e+70
-1.0380353e+70
-1.038886e+70
-9.598716e+69
-9.6700565e+69
-9.4396373e+69
-9.2980277e+69
-1.0084667e+70
-1.0077325e+70
-9.9076177e+69
-9.9149579e+69
-9.756541e+69
-9.6124148e+69
-9.6113454e+69
-9.7547178e+69
-9.7573172e+69
-9.6044061e+69
-9.600335e+69
-9.303248e+69
-9.753717e+69
-9.0269649e+69
-1.008684e+70
-9.9102566e+69
-9.9077369e+69
-1.0085011e+70
-9.6010933e+69
-9.6022396e+69
-9.6714335e+69
-9.4372458e+69
-9.6712175e+69
-9.7602223e+69
-9.7629074e+69
-9.8360733e+69
-9.8389563e+69
-9.5965396e+69
-9.6000191e+69
-9.6668588e+69
-9.6704864e+69
-9.4359367e+69
-9.7610628e+69
-9.7610496e+69
-9.8386022e+69
-9.839139e+69
-9.2998337e+69
-9.2934867e+69
-9.9583331e+69
-1.0058037e+70
-9.9573842e+69
-1.0055531e+70
-9.957625e+69
-9.9580532e+69
-1.0057342e+70
-1.0184721e+70
-1.0282794e+70
-1.0182373e+70
-1.0277958e+70
-1.0185719e+70
-8.6171103e+69
-8.8212186e+69
-9.085337e+69
-9.2159947e+69
-9.2262598e+69
-9.0809764e+69
-9.0876144e+69
-9.2198793e+69
-1.0405355e+70
-1.0408893e+70
-1.0407999e+70
-1.0405599e+70
-1.0453181e+70
-1.0457584e+70
-1.0458558e+70
-1.0454924e+70
-1.0407488e+70
-1.0411019e+70
-1.0411304e+70
-1.0405496e+70
-1.0083227e+70
-1.0087719e+70
-1.0204547e+70
-1.0204439e+70
-1.0271745e+70
-1.0268663e+70
-1.0213112e+70
-1.0273699e+70
-1.0269161e+70
-1.0206579e+70
-1.0284219e+70
-1.0283701e+70
-1.0331575e+70
-1.033555e+70
-1.0330642e+70
-1.028316e+70
-1.0280817e+70
-1.0330032e+70
-1.0312662e+70
-1.0310091e+70
-1.0344915e+70
-1.0341117e+70
-1.0318901e+70
-1.0311475e+70
-1.0348899e+70
-1.0342686e+70
-1.028483e+70
-1.0285154e+70
-1.0331642e+70
-1.0333032e+70
-1.0278611e+70
-1.0280623e+70
-1.0329025e+70
-1.032975e+70
-1.0309309e+70
-1.0342375e+70
-1.0340141e+70
-1.0310456e+70
-1.0314261e+70
-1.0310801e+70
-1.0344644e+70
-1.0342258e+70
-1.0260814e+70
-1.0338518e+70
-1.033783e+70
-1.0387343e+70
-1.0388454e+70
-1.0355957e+70
-1.0355564e+70
-1.0365207e+70
-1.0362566e+70
-1.0355054e+70
-1.0354816e+70
-1.036252e+70
-1.0362619e+70
-1.0390847e+70
-1.0417248e+70
-1.0389389e+70
-1.0417901e+70
-1.0389195e+70
-1.0388821e+70
-1.041933e+70
-1.0416574e+70
-1.0426667e+70
-1.0423275e+70
-1.0424135e+70
-1.0432276e+70
-1.0422247e+70
-1.0418777e+70
-1.042947e+70
-1.0422088e+70
-1.0426059e+70
-1.0428406e+70
-1.0429704e+70
-1.043573e+70
-1.0423224e+70
-1.0428534e+70
-1.0433043e+70
-1.0425455e+70
-1.0427519e+70
-1.0426705e+70
-1.0455337e+70
-1.045929e+70
-1.042567e+70
-1.0428953e+70
-1.045864e+70
-1.045273e+70
-1.0425401e+70
-1.0420669e+70
-1.044884e+70
-1.0455415e+70
-1.0456737e+70
-1.0427192e+70
-1.0423866e+70
-1.0453083e+70
-1.042419e+70
-1.0429154e+70
-1.0429076e+70
-1.0436881e+70
-1.0436942e+70
-1.0430958e+70
-1.0427498e+70
-1.043144e+70
-1.0429268e+70
-1.0429586e+70
-1.0433297e+70
-1.0437731e+70
-1.0434743e+70
-1.0428144e+70
-1.0423543e+70
-1.0427354e+70
-9.4934831e+69
-9.6094813e+69
-9.6077689e+69
-9.4951376e+69
-9.5822225e+69
-9.5835213e+69
-9.6635955e+69
-9.6931668e+69
-9.6630197e+69
-9.4265277e+69
-9.423878e+69
-9.3545276e+69
-9.296856e+69
-9.2852801e+69
-9.3488742e+69
-1.0179943e+70
-1.0177387e+70
-1.0270422e+70
-1.0275032e+70
-1.0277316e+70
-1.0179167e+70
-1.0183448e+70
-1.0271286e+70
-1.0054694e+70
-9.9570428e+69
-9.9556642e+69
-1.0051859e+70
-1.0052814e+70
-9.9565921e+69
-9.9567863e+69
-1.0054403e+70
-9.8331072e+69
-9.758298e+69
-9.7588975e+69
-9.8343558e+69
-9.6679363e+69
-9.5991166e+69
-9.5949913e+69
-9.5982606e+69
-9.6677733e+69
-9.4375519e+69
-9.6647863e+69
-9.7554898e+69
-9.8353032e+69
-9.7581615e+69
-9.8326476e+69
-9.2956992e+69
-9.8360309e+69
-9.7603485e+69
-9.7601462e+69
-9.8366803e+69
-9.6670633e+69
-9.6668312e+69
-9.5955937e+69
-9.5965066e+69
-9.4385653e+69
-9.5972164e+69
-9.5975922e+69
-9.6678704e+69
-9.42872e+69
-9.6666325e+69
-9.3023284e+69
-9.2924924e+69
-9.7581983e+69
-9.8354733e+69
-9.7603976e+69
-9.8377985e+69
-8.6561363e+69
-8.6383462e+69
-8.8334046e+69
-9.0845819e+69
-9.2116556e+69
-9.227269e+69
-9.0967917e+69
-9.2209523e+69
-9.0923425e+69
-1.0179691e+70
-1.0175294e+70
-1.0271529e+70
-1.0277471e+70
-9.9503319e+69
-1.0052589e+70
-1.0048848e+70
-9.9523587e+69
-9.952343e+69
-9.9538027e+69
-1.0053145e+70
-1.004977e+70
-1.0176639e+70
-1.0271379e+70
-1.0180841e+70
-1.0278274e+70
-9.6112492e+69
-9.6108679e+69
-9.4989116e+69
-9.5862965e+69
-9.586048e+69
-9.6115674e+69
-9.6110456e+69
-9.4994053e+69
-9.5864033e+69
-9.5871251e+69
-9.6648668e+69
-9.6940966e+69
-9.6647543e+69
-9.6938498e+69
-9.4305146e+69
-9.4321649e+69
-9.6643127e+69
-9.6935069e+69
-9.6644238e+69
-9.6931518e+69
-9.755381e+69
-9.7550741e+69
-9.786388e+69
-9.7855861e+69
-9.757233e+69
-9.7874632e+69
-9.7559308e+69
-9.7865579e+69
-9.8464555e+69
-9.8829503e+69
-9.8456374e+69
-9.8473582e+69
-9.8834699e+69
-9.8467173e+69
-9.8829238e+69
-9.6091667e+69
-9.6084109e+69
-9.4909764e+69
-9.5834509e+69
-9.5836243e+69
-9.6114868e+69
-9.6096323e+69
-9.4958619e+69
-9.5848133e+69
-9.5863802e+69
-9.6626845e+69
-9.6920261e+69
-9.6624577e+69
-9.6914306e+69
-9.664737e+69
-9.6937915e+69
-9.6636758e+69
-9.6924719e+69
-9.4265146e+69
-9.4237258e+69
-9.7560665e+69
-9.787204e+69
-9.7560928e+69
-9.7865896e+69
-9.7564848e+69
-9.7874749e+69
-9.7561382e+69
-9.7872582e+69
-9.8470714e+69
-9.8846514e+69
-9.8471399e+69
-9.8846179e+69
-9.8471852e+69
-9.8844551e+69
-9.8465619e+69
-9.8831686e+69
-9.2886614e+69
-9.2957257e+69
-9.3554323e+69
-9.3491537e+69
-9.2936121e+69
-9.2935227e+69
-9.3556602e+69
-9.3548612e+69
-9.9565122e+69
-9.9559178e+69
-9.9991615e+69
-9.9990328e+69
-1.0072894e+70
-1.0130458e+70
-1.0072787e+70
-1.0130668e+70
-9.9556087e+69
-9.9988693e+69
-1.0072254e+70
-1.0073193e+70
-1.0129574e+70
-1.0131615e+70
-9.9565897e+69
-1.0000019e+70
-9.9559254e+69
-9.998463e+69
-9.9571419e+69
-9.9997942e+69
-9.9569429e+69
-1.0000294e+70
-1.0073328e+70
-1.0072093e+70
-1.0131971e+70
-1.0129775e+70
-1.0219914e+70
-1.0277696e+70
-1.0218917e+70
-1.0274817e+70
-1.0350724e+70
-1.0381588e+70
-1.0348496e+70
-1.0377036e+70
-1.0217849e+70
-1.0274116e+70
-1.0219426e+70
-1.0277268e+70
-1.0346336e+70
-1.0375138e+70
-1.0349717e+70
-1.0380925e+70
-1.0276769e+70
-1.0220226e+70
-1.0219978e+70
-8.4075556e+69
-9.011712e+69
-8.8737203e+69
-8.8615294e+69
-9.0075064e+69
-9.1350979e+69
-9.1404403e+69
-9.1816045e+69
-9.1871642e+69
-9.1903766e+69
-9.184913e+69
-9.2314094e+69
-9.2344369e+69
-9.2357521e+69
-9.1977877e+69
-9.18807e+69
-9.2271688e+69
-9.1311289e+69
-9.1382467e+69
-9.1921078e+69
-9.1841689e+69
-9.1315086e+69
-9.1804412e+69
-9.1850045e+69
-9.2299483e+69
-9.1840848e+69
-9.1827872e+69
-9.2261937e+69
-1.0452153e+70
-1.0448306e+70
-1.0449422e+70
-1.0451687e+70
-1.0452511e+70
-1.0448238e+70
-1.0450841e+70
-1.0453026e+70
-1.046824e+70
-1.0472883e+70
-1.0474127e+70
-1.0472527e+70
-1.0474488e+70
-1.0476545e+70
-1.0475653e+70
-1.0471442e+70
-1.0449111e+70
-1.0452954e+70
-1.0453862e+70
-1.0451297e+70
-1.0453491e+70
-1.0455319e+70
-1.0453969e+70
-1.0449408e+70
-9.9521461e+69
-9.9587701e+69
-9.713426e+69
-1.0117188e+70
-1.0115301e+70
-1.025611e+70
-1.033345e+70
-1.0333754e+70
-1.0254602e+70
-1.0336572e+70
-1.0333957e+70
-1.0123841e+70
-1.0258455e+70
-1.0337168e+70
-1.0337804e+70
-1.0257221e+70
-1.0337453e+70
-1.0333208e+70
-1.01189e+70
-1.0385299e+70
-1.0385756e+70
-1.0387295e+70
-1.0385413e+70
-1.0357423e+70
-1.0357335e+70
-1.0367466e+70
-1.0365957e+70
-1.0355194e+70
-1.0354631e+70
-1.036373e+70
-1.0364347e+70
-1.0395039e+70
-1.0424888e+70
-1.0395081e+70
-1.0426764e+70
-1.039371e+70
-1.0425767e+70
-1.0392059e+70
-1.041894e+70
-1.0357134e+70
-1.0357124e+70
-1.0368143e+70
-1.0365368e+70
-1.035647e+70
-1.0355515e+70
-1.036508e+70
-1.0364784e+70
-1.0392563e+70
-1.0392039e+70
-1.0421673e+70
-1.0416871e+70
-1.0424973e+70
-1.0420685e+70
-1.0393063e+70
-1.0392009e+70
-1.0386936e+70
-1.0387552e+70
-1.0387219e+70
-1.0385501e+70
-1.0354396e+70
-1.0362944e+70
-1.0363178e+70
-1.0353632e+70
-1.0392581e+70
-1.0393403e+70
-1.0421139e+70
-1.0422601e+70
-1.0391164e+70
-1.0421007e+70
-1.0415174e+70
-1.0389267e+70
-1.0356641e+70
-1.0356169e+70
-1.0364903e+70
-1.0363768e+70
-1.0356368e+70
-1.0357217e+70
-1.0365573e+70
-1.0364337e+70
-1.0356151e+70
-1.0355847e+70
-1.0363905e+70
-1.0364422e+70
-1.0394137e+70
-1.0394683e+70
-1.0425579e+70
-1.0421424e+70
-1.0393602e+70
-1.0427986e+70
-1.0422712e+70
-1.0394968e+70
-1.0336883e+70
-1.0336049e+70
-1.0189899e+70
-1.0367359e+70
-1.0366791e+70
-1.0412925e+70
-1.0417346e+70
-1.0450121e+70
-1.0449755e+70
-1.0413028e+70
-1.041278e+70
-1.0417179e+70
-1.0411205e+70
-1.0413004e+70
-1.0448429e+70
-1.0449986e+70
-1.0412978e+70
-1.0398621e+70
-1.0397201e+70
-1.0405131e+70
-1.0405197e+70
-1.0404979e+70
-1.0398129e+70
-1.0397171e+70
-1.0404877e+70
-1.0405728e+70
-1.0397894e+70
-1.0405748e+70
-1.0399197e+70
-1.0398015e+70
-1.0397234e+70
-1.0405001e+70
-1.0405017e+70
-1.0395011e+70
-1.0396098e+70
-1.038635e+70
-1.0387736e+70
-1.0361122e+70
-1.0380446e+70
-1.0385587e+70
-1.0365303e+70
-1.0388866e+70
-1.0395553e+70
-1.039595e+70
-1.0388547e+70
-1.0385084e+70
-1.0387059e+70
-1.0367059e+70
-1.0364773e+70
-1.0389348e+70
-1.039698e+70
-1.0396294e+70
-1.0389903e+70
-1.0389092e+70
-1.0395398e+70
-1.0395727e+70
-1.0388412e+70
-1.0366829e+70
-1.0385911e+70
-1.0387909e+70
-1.036794e+70
-1.0385007e+70
-1.038764e+70
-1.0368295e+70
-1.0365155e+70
-1.0422399e+70
-1.0423671e+70
-1.0450355e+70
-1.0454675e+70
-1.0421312e+70
-1.0421024e+70
-1.0453165e+70
-1.044941e+70
-1.0421396e+70
-1.041835e+70
-1.0449485e+70
-1.0453792e+70
-1.0419895e+70
-1.0421893e+70
-1.0451621e+70
-1.0446215e+70
-1.0424204e+70
-1.0425345e+70
-1.0453188e+70
-1.0457959e+70
-1.0424724e+70
-1.0422592e+70
-1.045732e+70
-1.045341e+70
-1.0419562e+70
-1.0419915e+70
-1.0453973e+70
-1.0448658e+70
-1.0421581e+70
-1.0454033e+70
-1.0457196e+70
-1.0424089e+70
-1.0471632e+70
-1.0471322e+70
-1.0469101e+70
-1.0471847e+70
-1.0468128e+70
-1.0465234e+70
-1.0470335e+70
-1.0468927e+70
-1.0448136e+70
-1.0420794e+70
-1.0423184e+70
-1.0454688e+70
-1.0424664e+70
-1.042275e+70
-1.0455641e+70
-1.0453108e+70
-1.0424203e+70
-1.0427318e+70
-1.0454688e+70
-1.0459356e+70
-1.045779e+70
-1.0426541e+70
-1.0425134e+70
-1.0453432e+70
-1.042563e+70
-1.0424133e+70
-1.0455004e+70
-1.045987e+70
-1.0424091e+70
-1.0422518e+70
-1.0457955e+70
-1.0454229e+70
-1.0421361e+70
-1.0424738e+70
-1.0458547e+70
-1.0454612e+70
-1.0425155e+70
-1.0423142e+70
-1.0456963e+70
-1.0451138e+70
-8.2098758e+69
-9.5328845e+69
-9.5084145e+69
-9.5089441e+69
-9.5338228e+69
-9.6328942e+69
-9.633398e+69
-9.6342692e+69
-9.6341854e+69
-9.6341261e+69
-9.632795e+69
-9.6332519e+69
-9.631538e+69
-9.5349062e+69
-9.5090899e+69
-9.5078547e+69
-9.5329334e+69
-9.5787594e+69
-9.5792771e+69
-9.6710484e+69
-9.6649775e+69
-9.6716185e+69
-9.6647351e+69
-9.7013702e+69
-9.7114031e+69
-9.7110251e+69
-9.7011174e+69
-9.6706187e+69
-9.6646012e+69
-9.6711487e+69
-9.6640268e+69
-9.4643432e+69
-9.4413741e+69
-9.440053e+69
-9.4624294e+69
-9.4402622e+69
-9.439761e+69
-9.4627735e+69
-9.463046e+69
-9.396655e+69
-9.3779534e+69
-9.3769539e+69
-9.3947583e+69
-9.337876e+69
-9.3177697e+69
-9.315901e+69
-9.3358887e+69
-9.3090385e+69
-9.3115288e+69
-9.3331595e+69
-9.331673e+69
-9.3947756e+69
-9.3751384e+69
-9.3742214e+69
-9.3950855e+69
-1.0213662e+70
-1.0213253e+70
-1.027118e+70
-1.0268891e+70
-1.0212037e+70
-1.026798e+70
-1.0213011e+70
-1.0270458e+70
-1.0340581e+70
-1.0369693e+70
-1.0343047e+70
-1.0373571e+70
-1.0344238e+70
-1.0374035e+70
-1.0341948e+70
-1.036939e+70
-1.0342516e+70
-1.0344656e+70
-1.0370063e+70
-1.0373992e+70
-1.0216058e+70
-1.021526e+70
-1.0273199e+70
-1.0270888e+70
-1.0214927e+70
-1.027062e+70
-1.0216446e+70
-1.0273547e+70
-1.0345424e+70
-1.0343064e+70
-1.0375309e+70
-1.0370729e+70
-1.0069994e+70
-1.0126513e+70
-1.0070976e+70
-1.012851e+70
-9.954119e+69
-9.9546841e+69
-9.9968151e+69
-9.9978974e+69
-9.9549073e+69
-9.9549972e+69
-9.9981299e+69
-9.9972877e+69
-1.0070814e+70
-1.0069933e+70
-1.0128875e+70
-1.0126962e+70
-1.0067422e+70
-1.0123206e+70
-1.0068503e+70
-1.0124892e+70
-9.9522495e+69
-9.9526706e+69
-9.9954742e+69
-9.9952659e+69
-9.9520928e+69
-9.9943517e+69
-9.9521174e+69
-9.9951186e+69
-1.0069127e+70
-1.0068875e+70
-1.0126018e+70
-1.0124865e+70
-9.8395409e+69
-9.8750499e+69
-9.8401463e+69
-9.875948e+69
-9.7512097e+69
-9.751302e+69
-9.7817904e+69
-9.7816504e+69
-9.7514857e+69
-9.7817306e+69
-9.8406137e+69
-9.8408004e+69
-9.8768886e+69
-9.8768005e+69
-9.6600678e+69
-9.6892499e+69
-9.6602396e+69
-9.6889597e+69
-9.6074613e+69
-9.6072486e+69
-9.4958214e+69
-9.5823951e+69
-9.5817863e+69
-9.6067557e+69
-9.6063803e+69
-9.4912549e+69
-9.5811027e+69
-9.580832e+69
-9.6083612e+69
-9.6071657e+69
-9.4959614e+69
-9.5815417e+69
-9.5827481e+69
-9.6607641e+69
-9.6902383e+69
-9.6599625e+69
-9.6892511e+69
-9.4266059e+69
-9.4230368e+69
-9.6592676e+69
-9.6888506e+69
-9.6592943e+69
-9.688521e+69
-9.7507858e+69
-9.7822097e+69
-9.7507369e+69
-9.7815809e+69
-9.8421334e+69
-9.8787664e+69
-9.8416489e+69
-9.8789196e+69
-9.7523396e+69
-9.7832367e+69
-9.7511604e+69
-9.7825108e+69
-9.8414707e+69
-9.8790701e+69
-9.8406873e+69
-9.8778511e+69
-9.2792772e+69
-9.28987e+69
-9.3524627e+69
-9.3457881e+69
-9.8426561e+69
-9.878794e+69
-9.842803e+69
-9.8788623e+69
-9.752584e+69
-9.7532544e+69
-9.7830706e+69
-9.7834562e+69
-9.7528555e+69
-9.7831262e+69
-9.7524484e+69
-9.7829161e+69
-9.8429827e+69
-9.8434107e+69
-9.8792758e+69
-9.879413e+69
-9.6601192e+69
-9.6893305e+69
-9.6610347e+69
-9.6898042e+69
-9.6609504e+69
-9.6897721e+69
-9.6603275e+69
-9.6892788e+69
-9.6069402e+69
-9.605688e+69
-9.4924907e+69
-9.5816002e+69
-9.5803022e+69
-9.6061434e+69
-9.6069105e+69
-9.4920137e+69
-9.5821785e+69
-9.5805221e+69
-9.4237187e+69
-9.4239432e+69
-9.6082329e+69
-9.6089626e+69
-9.4931147e+69
-9.5849176e+69
-9.5832278e+69
-9.6073791e+69
-9.6075724e+69
-9.4935738e+69
-9.5829792e+69
-9.5823018e+69
-9.6613268e+69
-9.6908078e+69
-9.6619144e+69
-9.6909877e+69
-9.4254712e+69
-9.4268963e+69
-9.6620589e+69
-9.6913888e+69
-9.6627417e+69
-9.6916474e+69
-9.3494862e+69
-9.2820454e+69
-9.2795154e+69
-9.347685e+69
-9.2836863e+69
-9.2857364e+69
-9.3507541e+69
-9.3493916e+69
-9.7540156e+69
-9.7851797e+69
-9.7542388e+69
-9.7849815e+69
-9.8452929e+69
-9.8826684e+69
-9.8448848e+69
-9.8822298e+69
-9.7541876e+69
-9.7848013e+69
-9.7540012e+69
-9.7849207e+69
-9.8446621e+69
-9.8812725e+69
-9.844972e+69
-9.8819809e+69
-8.4338698e+69
-9.0370684e+69
-8.9030019e+69
-8.4117091e+69
-8.8859739e+69
-9.0351246e+69
-9.0196792e+69
-8.881766e+69
-9.1782007e+69
-9.1383585e+69
-9.1731215e+69
-9.136404e+69
-9.2253917e+69
-9.1811522e+69
-9.1742852e+69
-9.2172704e+69
-9.2219503e+69
-9.1879998e+69
-9.1887635e+69
-9.2254033e+69
-9.190185e+69
-9.1524622e+69
-9.193987e+69
-9.1520112e+69
-9.2262431e+69
-9.1892977e+69
-9.1809893e+69
-9.2226163e+69
-9.192798e+69
-9.1538628e+69
-9.1814921e+69
-9.1427244e+69
-1.0211664e+70
-1.0269852e+70
-1.0211446e+70
-1.0267977e+70
-1.0208842e+70
-1.0265815e+70
-1.0210529e+70
-1.026885e+70
-1.033893e+70
-1.0342054e+70
-1.036937e+70
-1.0374292e+70
-1.0343347e+70
-1.0341825e+70
-1.0375184e+70
-1.0371802e+70
-9.9468617e+69
-9.9477119e+69
-9.9893542e+69
-9.9909298e+69
-1.0065506e+70
-1.0123606e+70
-1.0065116e+70
-1.0122566e+70
-1.0062353e+70
-1.0119778e+70
-1.0064113e+70
-1.0122281e+70
-9.9486114e+69
-9.9489565e+69
-9.9920157e+69
-9.9916168e+69
-9.9507776e+69
-9.9503249e+69
-9.9942245e+69
-9.9928662e+69
-9.9506771e+69
-9.9507178e+69
-9.9933731e+69
-9.9941514e+69
-1.0066127e+70
-1.0066665e+70
-1.0124265e+70
-1.0125432e+70
-1.00667e+70
-1.006526e+70
-1.0125216e+70
-1.0122298e+70
-1.0212686e+70
-1.0270858e+70
-1.0210841e+70
-1.0267154e+70
-1.0343744e+70
-1.0375571e+70
-1.033989e+70
-1.0369505e+70
-1.0212911e+70
-1.0269956e+70
-1.0213503e+70
-1.0271825e+70
-1.0343154e+70
-1.0344473e+70
-1.0373538e+70
-1.0376489e+70
-9.6368133e+69
-9.6367224e+69
-9.6366264e+69
-9.6361972e+69
-9.63629e+69
-9.635465e+69
-9.6360125e+69
-9.6346907e+69
-9.5385841e+69
-9.5150091e+69
-9.514359e+69
-9.5384422e+69
-9.5830429e+69
-9.5841421e+69
-9.6364627e+69
-9.6373663e+69
-9.6365306e+69
-9.6369305e+69
-9.6368936e+69
-9.6359759e+69
-9.6373115e+69
-9.6360887e+69
-9.5155724e+69
-9.5163305e+69
-9.5406183e+69
-9.5395848e+69
-9.5844529e+69
-9.5850254e+69
-9.667356e+69
-9.6673873e+69
-9.6734768e+69
-9.6736091e+69
-9.7028437e+69
-9.7029135e+69
-9.7127656e+69
-9.7126472e+69
-9.6732443e+69
-9.6672591e+69
-9.6736308e+69
-9.6668467e+69
-9.7128123e+69
-9.7029471e+69
-9.7027291e+69
-9.7125404e+69
-9.4469272e+69
-9.4477396e+69
-9.4704237e+69
-9.4690981e+69
-9.4483586e+69
-9.4494147e+69
-9.4722038e+69
-9.4709278e+69
-9.6728769e+69
-9.6672697e+69
-9.6737404e+69
-9.6665874e+69
-9.7130488e+69
-9.7033456e+69
-9.7027335e+69
-9.7125419e+69
-9.6728011e+69
-9.6664723e+69
-9.6730818e+69
-9.6662049e+69
-9.7126253e+69
-9.7025066e+69
-9.7022541e+69
-9.7123729e+69
-9.7455704e+69
-9.7582997e+69
-9.7579108e+69
-9.7452779e+69
-9.7449102e+69
-9.7449127e+69
-9.7579276e+69
-9.7577811e+69
-9.8017907e+69
-9.7888928e+69
-9.802095e+69
-9.7887733e+69
-9.7881607e+69
-9.801359e+69
-9.7884034e+69
-9.8017267e+69
-9.7585218e+69
-9.7467269e+69
-9.7591945e+69
-9.7463248e+69
-9.7896014e+69
-9.8026888e+69
-9.8023616e+69
-9.7893464e+69
-9.7578979e+69
-9.7458497e+69
-9.7584539e+69
-9.7455286e+69
-9.7891541e+69
-9.8023029e+69
-9.7888258e+69
-9.8019644e+69
-9.8356555e+69
-9.852154e+69
-9.8519633e+69
-9.8353841e+69
-9.9018441e+69
-9.8842922e+69
-9.8843803e+69
-9.9017766e+69
-9.8350794e+69
-9.834972e+69
-9.8519174e+69
-9.8515621e+69
-9.8525681e+69
-9.8364409e+69
-9.8529711e+69
-9.836144e+69
-9.9027862e+69
-9.8852667e+69
-9.8851354e+69
-9.902567e+69
-9.8356197e+69
-9.8519232e+69
-9.8358593e+69
-9.8523712e+69
-9.9023426e+69
-9.8848168e+69
-9.8843603e+69
-9.9016484e+69
-9.6340353e+69
-9.6334392e+69
-9.6345843e+69
-9.6340298e+69
-9.6340966e+69
-9.6335807e+69
-9.6326936e+69
-9.6320227e+69
-9.5346719e+69
-9.5100785e+69
-9.5091176e+69
-9.5342092e+69
-9.5795617e+69
-9.5803851e+69
-9.6354337e+69
-9.6356221e+69
-9.636142e+69
-9.6356329e+69
-9.6353988e+69
-9.6344241e+69
-9.6353388e+69
-9.6341509e+69
-9.5386203e+69
-9.5140677e+69
-9.511398e+69
-9.5359971e+69
-9.581458e+69
-9.5822261e+69
-9.6652886e+69
-9.6646204e+69
-9.6718627e+69
-9.6711597e+69
-9.7010695e+69
-9.7115454e+69
-9.7110504e+69
-9.7016551e+69
-9.6643145e+69
-9.6642836e+69
-9.6710838e+69
-9.671156e+69
-9.700607e+69
-9.7005559e+69
-9.711024e+69
-9.7107985e+69
-9.6722686e+69
-9.6668326e+69
-9.6732313e+69
-9.666158e+69
-9.7029862e+69
-9.712801e+69
-9.7120894e+69
-9.7023667e+69
-9.6716558e+69
-9.66576e+69
-9.6720888e+69
-9.6653447e+69
-9.7018677e+69
-9.711828e+69
-9.7014638e+69
-9.7113277e+69
-9.4684653e+69
-9.4462335e+69
-9.4425131e+69
-9.4651387e+69
-9.4412731e+69
-9.4416506e+69
-9.4646016e+69
-9.4637501e+69
-9.7589655e+69
-9.7468363e+69
-9.7594442e+69
-9.7464968e+69
-9.7897509e+69
-9.8029903e+69
-9.8025616e+69
-9.7894836e+69
-9.7463257e+69
-9.7589212e+69
-9.7463718e+69
-9.7591069e+69
-9.7893253e+69
-9.8026568e+69
-9.7891404e+69
-9.8022924e+69
-9.7590154e+69
-9.7464451e+69
-9.7591014e+69
-9.7464735e+69
-9.7892863e+69
-9.7894536e+69
-9.8026147e+69
-9.8026498e+69
-9.7589115e+69
-9.7464427e+69
-9.7591686e+69
-9.7463626e+69
-9.8028477e+69
-9.7895352e+69
-9.7893507e+69
-9.8025543e+69
-9.8531044e+69
-9.8362784e+69
-9.8530537e+69
-9.836401e+69
-9.8853923e+69
-9.8856845e+69
-9.9032727e+69
-9.9034956e+69
-9.8363714e+69
-9.8529337e+69
-9.8364446e+69
-9.8533002e+69
-9.9036644e+69
-9.8857666e+69
-9.8854468e+69
-9.903055e+69
-9.853112e+69
-9.8367907e+69
-9.8534378e+69
-9.8365661e+69
-9.903504e+69
-9.8858061e+69
-9.8856201e+69
-9.9033059e+69
-9.836108e+69
-9.852605e+69
-9.8363363e+69
-9.8530805e+69
-9.9032866e+69
-9.885419e+69
-9.8848931e+69
-9.9025169e+69
-9.3162432e+69
-9.3165064e+69
-9.3367834e+69
-9.3365259e+69
-9.3179824e+69
-9.3190096e+69
-9.340158e+69
-9.3370055e+69
-9.4003365e+69
-9.3801062e+69
-9.3776781e+69
-9.3965643e+69
-9.3967979e+69
-9.3783439e+69
-9.3781528e+69
-9.3967104e+69
-9.3183384e+69
-9.3207637e+69
-9.3417987e+69
-9.3396724e+69
-9.3207151e+69
-9.3210406e+69
-9.3435391e+69
-9.3423992e+69
-9.3839406e+69
-9.3848689e+69
-9.406119e+69
-9.4045928e+69
-9.4033675e+69
-9.3830058e+69
-9.3811839e+69
-9.4021303e+69
-9.9603296e+69
-9.9407118e+69
-9.9606461e+69
-9.9405022e+69
-9.94e+69
-9.9395823e+69
-9.9600322e+69
-9.9594031e+69
-9.9954811e+69
-1.0017559e+70
-9.9953902e+69
-1.0017459e+70
-9.9944915e+69
-1.0017282e+70
-1.0016454e+70
-9.9950527e+69
-1.0060965e+70
-1.0060782e+70
-1.0093283e+70
-1.0093365e+70
-1.0136464e+70
-1.0170717e+70
-1.0171064e+70
-1.0136668e+70
-1.0092141e+70
-1.0060385e+70
-1.0093056e+70
-1.0059889e+70
-1.0136409e+70
-1.0135479e+70
-1.0170886e+70
-1.0169382e+70
-9.9595522e+69
-9.939601e+69
-9.9595991e+69
-9.9395328e+69
-9.9944077e+69
-1.0016387e+70
-1.005995e+70
-1.0092174e+70
-1.0092924e+70
-1.0060805e+70
-1.0060717e+70
-1.0060935e+70
-1.0093558e+70
-1.0093017e+70
-1.0170004e+70
-1.0134602e+70
-1.0168751e+70
-1.0135604e+70
-1.0136089e+70
-1.0170081e+70
-1.0136564e+70
-1.0171065e+70
-9.9411779e+69
-9.9410066e+69
-9.9612103e+69
-9.9609595e+69
-9.9958175e+69
-1.0018037e+70
-9.9959639e+69
-1.0018208e+70
-9.9602526e+69
-9.9407838e+69
-9.960878e+69
-9.9403696e+69
-9.9955175e+69
-1.0017912e+70
-1.0017055e+70
-9.9949663e+69
-9.9611317e+69
-9.9408745e+69
-9.9609483e+69
-9.941116e+69
-9.9953819e+69
-1.0017305e+70
-1.001795e+70
-9.9958554e+69
-9.9607002e+69
-9.9410788e+69
-9.9612651e+69
-9.9407658e+69
-9.9959671e+69
-1.0018251e+70
-9.9955647e+69
-1.0017674e+70
-1.006134e+70
-1.0093808e+70
-1.0093825e+70
-1.0061249e+70
-1.006084e+70
-1.0093607e+70
-1.0060405e+70
-1.0092784e+70
-1.0171459e+70
-1.0136888e+70
-1.0171082e+70
-1.0137044e+70
-1.0135742e+70
-1.0136721e+70
-1.0171392e+70
-1.0169964e+70
-1.0220439e+70
-1.0255884e+70
-1.0220843e+70
-1.0256749e+70
-1.0299658e+70
-1.0334231e+70
-1.0298992e+70
-1.033323e+70
-1.021994e+70
-1.0220732e+70
-1.0256741e+70
-1.0255207e+70
-1.0298102e+70
-1.0331512e+70
-1.0299533e+70
-1.0334072e+70
-1.0379336e+70
-1.0403705e+70
-1.0380039e+70
-1.0405454e+70
-1.0433431e+70
-1.0434259e+70
-1.043666e+70
-1.0432118e+70
-1.037972e+70
-1.0405287e+70
-1.0378035e+70
-1.0402368e+70
-1.04307e+70
-1.043229e+70
-1.0433417e+70
-1.0436521e+70
-1.0218272e+70
-1.0219209e+70
-1.0253554e+70
-1.0255218e+70
-1.0298133e+70
-1.0332441e+70
-1.0296319e+70
-1.0329976e+70
-1.0219959e+70
-1.0255992e+70
-1.0254729e+70
-1.021943e+70
-1.0332001e+70
-1.029896e+70
-1.0333383e+70
-1.0298037e+70
-1.0375691e+70
-1.0377717e+70
-1.0400195e+70
-1.0403258e+70
-1.0431327e+70
-1.0434232e+70
-1.0428407e+70
-1.0429727e+70
-1.0378518e+70
-1.0404066e+70
-1.0402342e+70
-1.0377988e+70
-1.043316e+70
-1.0432294e+70
-1.0435158e+70
-1.0431239e+70
-1.0333355e+70
-1.0299815e+70
-1.030053e+70
-1.0334998e+70
-1.0256405e+70
-1.0220847e+70
-1.0220985e+70
-1.0257105e+70
-1.0220495e+70
-1.0256806e+70
-1.0219404e+70
-8.3458571e+69
-8.8768548e+69
-8.8572886e+69
-9.1132106e+69
-9.1665293e+69
-9.1464215e+69
-9.113057e+69
-9.1162736e+69
-9.1076918e+69
-9.1399265e+69
-9.1555146e+69
-9.1209551e+69
-9.1702167e+69
-9.1647637e+69
-9.1681882e+69
-9.1705224e+69
-9.1659946e+69
-9.169355e+69
-9.1641166e+69
-9.155281e+69
-9.1673769e+69
-9.1451738e+69
-9.1344501e+69
-9.1467912e+69
-9.15461e+69
-9.15817e+69
-9.1489488e+69
-9.1459422e+69
-9.1545956e+69
-9.1946819e+69
-9.1968939e+69
-9.2229799e+69
-9.2199862e+69
-9.1952645e+69
-9.1915777e+69
-9.2208579e+69
-9.2224348e+69
-9.2584194e+69
-9.2577176e+69
-9.2807275e+69
-9.2803089e+69
-9.2789422e+69
-9.257393e+69
-9.2554439e+69
-9.2768784e+69
-9.2757331e+69
-9.2560238e+69
-9.2548782e+69
-9.2732393e+69
-9.2193889e+69
-9.1980717e+69
-9.1962788e+69
-9.2189162e+69
-9.1898079e+69
-9.1934981e+69
-9.2167826e+69
-9.2148699e+69
-9.2730261e+69
-9.2535485e+69
-9.2532298e+69
-9.273491e+69
-9.1515475e+69
-9.1652034e+69
-9.1685403e+69
-9.154301e+69
-9.1651799e+69
-9.1671514e+69
-9.1706486e+69
-9.1719623e+69
-9.15768e+69
-9.1519488e+69
-9.1528538e+69
-9.1576697e+69
-9.1551136e+69
-9.150928e+69
-9.1433395e+69
-9.1491241e+69
-9.1463294e+69
-9.1444362e+69
-9.1467557e+69
-9.1547891e+69
-9.1484136e+69
-9.1411186e+69
-9.1439627e+69
-9.1485945e+69
-9.1404943e+69
-9.1384478e+69
-9.1332394e+69
-9.1362976e+69
-9.2750454e+69
-9.2550398e+69
-9.2508925e+69
-9.2715651e+69
-9.2166336e+69
-9.1901177e+69
-9.1893713e+69
-9.2142662e+69
-9.1823034e+69
-9.1850624e+69
-9.2120928e+69
-9.2077109e+69
-9.2675027e+69
-9.2459543e+69
-9.2436288e+69
-9.2657286e+69
-1.0467371e+70
-1.047054e+70
-1.0468575e+70
-1.046545e+70
-1.0466591e+70
-1.0469831e+70
-1.0469321e+70
-1.0467205e+70
-1.0469588e+70
-1.0471435e+70
-1.0469293e+70
-1.0465645e+70
-1.0468517e+70
-1.0471802e+70
-1.0471576e+70
-1.0468737e+70
-1.0463969e+70
-1.0468991e+70
-1.0469743e+70
-1.0468092e+70
-1.0469719e+70
-1.0473097e+70
-1.0471631e+70
-1.0469201e+70
-1.0470118e+70
-1.047417e+70
-1.0473298e+70
-1.0470739e+70
-1.0470739e+70
-1.0472864e+70
-1.0471222e+70
-1.0467009e+70
-9.7121872e+69
-1.0038463e+70
-1.0038443e+70
-9.7124442e+69
-1.0041245e+70
-1.0046975e+70
-9.4043672e+69
-9.7520424e+69
-9.7539474e+69
-9.9121223e+69
-9.9116493e+69
-1.0185768e+70
-1.0331443e+70
-1.0330429e+70
-1.0358971e+70
-1.0359376e+70
-1.0183184e+70
-1.0331954e+70
-1.0333798e+70
-1.0361888e+70
-1.0361721e+70
-1.0335384e+70
-1.0334592e+70
-1.0187836e+70
-1.036471e+70
-1.0364459e+70
-1.0332906e+70
-1.0336324e+70
-1.0186e+70
-1.0366541e+70
-1.036427e+70
-1.0408635e+70
-1.0412555e+70
-1.0446767e+70
-1.044649e+70
-1.0411652e+70
-1.0411295e+70
-1.0412635e+70
-1.0406461e+70
-1.0444322e+70
-1.0446277e+70
-1.0410847e+70
-1.0411419e+70
-1.0415315e+70
-1.0410429e+70
-1.0446664e+70
-1.0447966e+70
-1.0412203e+70
-1.0412427e+70
-1.0409446e+70
-1.0414133e+70
-1.0447217e+70
-1.044701e+70
-1.0412242e+70
-1.0412042e+70
-1.0400012e+70
-1.0398564e+70
-1.0406869e+70
-1.0406886e+70
-1.0398485e+70
-1.0399298e+70
-1.0406506e+70
-1.0406298e+70
-1.0398278e+70
-1.03975e+70
-1.0405834e+70
-1.040595e+70
-1.0399849e+70
-1.0398138e+70
-1.0406404e+70
-1.0406898e+70
-1.0397836e+70
-1.0398786e+70
-1.0390536e+70
-1.0391362e+70
-1.0363925e+70
-1.0384252e+70
-1.0387141e+70
-1.0365634e+70
-1.0397986e+70
-1.0398873e+70
-1.0392279e+70
-1.0390998e+70
-1.0385862e+70
-1.0385292e+70
-1.0362387e+70
-1.0364428e+70
-1.0399086e+70
-1.0398677e+70
-1.0391143e+70
-1.0391508e+70
-1.0383809e+70
-1.0387336e+70
-1.0365988e+70
-1.0361833e+70
-1.0390301e+70
-1.0398052e+70
-1.0397937e+70
-1.038944e+70
-1.0364468e+70
-1.0385785e+70
-1.0383902e+70
-1.036321e+70
-1.0399268e+70
-1.0397545e+70
-1.0405863e+70
-1.0406036e+70
-1.039815e+70
-1.0399112e+70
-1.0406289e+70
-1.0406054e+70
-1.0399714e+70
-1.0398708e+70
-1.0406794e+70
-1.0406621e+70
-1.0398662e+70
-1.0406104e+70
-1.0397261e+70
-1.0405511e+70
-1.0395784e+70
-1.0396806e+70
-1.0388193e+70
-1.0388181e+70
-1.0397314e+70
-1.0397755e+70
-1.0389484e+70
-1.039023e+70
-1.0384181e+70
-1.0363264e+70
-1.0365411e+70
-1.0385061e+70
-1.0383619e+70
-1.0380766e+70
-1.0360687e+70
-1.0362816e+70
-1.0384125e+70
-1.0386702e+70
-1.0367298e+70
-1.0364321e+70
-1.0365432e+70
-1.0385221e+70
-1.0383996e+70
-1.0364583e+70
-1.0398121e+70
-1.0398876e+70
-1.0390383e+70
-1.0390661e+70
-1.039714e+70
-1.0397895e+70
-1.0388965e+70
-1.0389836e+70
-1.0411465e+70
-1.0415833e+70
-1.0448273e+70
-1.0448617e+70
-1.0413371e+70
-1.0413021e+70
-1.0415688e+70
-1.0410834e+70
-1.0448004e+70
-1.0447858e+70
-1.0413028e+70
-1.0413298e+70
-1.0416111e+70
-1.0411104e+70
-1.0449247e+70
-1.0447832e+70
-1.0413454e+70
-1.0413072e+70
-1.0409202e+70
-1.0414377e+70
-1.0448381e+70
-1.0412123e+70
-1.0412888e+70
-1.0447816e+70
-1.0397548e+70
-1.039873e+70
-1.0405239e+70
-1.0405497e+70
-1.0404386e+70
-1.0397296e+70
-1.0396434e+70
-1.0404152e+70
-1.0397713e+70
-1.039629e+70
-1.0388346e+70
-1.0390232e+70
-1.0390111e+70
-1.0398301e+70
-1.0397244e+70
-1.0390157e+70
-1.0364168e+70
-1.0386393e+70
-1.0386856e+70
-1.036386e+70
-1.036213e+70
-1.0385153e+70
-1.0384837e+70
-1.0363138e+70
-1.0397293e+70
-1.0395935e+70
-1.0387314e+70
-1.0387957e+70
-1.036049e+70
-1.0381684e+70
-1.0384574e+70
-1.0363508e+70
-1.0362282e+70
-1.0381723e+70
-1.0379314e+70
-1.0360349e+70
-1.0395227e+70
-1.0394801e+70
-1.0384652e+70
-1.0385599e+70
-1.040618e+70
-1.0397827e+70
-1.0399327e+70
-1.0406234e+70
-1.0405634e+70
-1.039867e+70