/*--------------------------------*- C++ -*----------------------------------*\
  =========                 |
  \\      /  F ield         | OpenFOAM: The Open Source CFD Toolbox
   \\    /   O peration     | Website:  https://openfoam.org
    \\  /    A nd           | Version:  7
     \\/     M anipulation  |
\*---------------------------------------------------------------------------*/
FoamFile
{
    version     2.0;
    format      ascii;
    class       volScalarField;
    location    "1000";
    object      k;
}
// * * * * * * * * * * * * * * * * * * * * * * * * * * * * * * * * * * * * * //

dimensions      [0 2 -2 0 0 0 0];

internalField   nonuniform List<scalar> 
33730
(
1.5220925
1.521835
1.5214234
1.5219977
1.5215671
1.5215021
1.5225615
1.5217621
1.5224028
1.5215597
1.5218454
1.5223863
1.5214548
1.522244
1.5211215
1.5209724
1.521489
1.5212258
1.521933
1.5219973
1.5218496
1.5217803
1.5218061
1.5221198
1.5220701
1.5215218
1.5215166
1.5214554
1.5214198
1.5215619
1.5217563
1.5218351
1.5220305
1.5224292
1.5221738
1.5222528
1.5223352
1.5212143
1.5212288
1.521152
1.52129
1.5215849
1.5212317
1.5213029
1.5214417
1.5212602
1.5212139
1.5219758
1.5220369
1.5214337
1.5213962
1.5217716
1.5219765
1.5208731
1.5210351
1.5212649
1.5209325
1.5208449
1.5208955
1.521085
1.5209556
1.5213605
1.5209682
1.5211529
1.521551
1.5209248
1.5211225
1.5212413
1.5211078
1.5220307
1.5220118
1.522098
1.5221508
1.5219951
1.5219489
1.5221644
1.521728
1.5219524
1.5218468
1.5216504
1.521646
1.5218197
1.5216556
1.5216529
1.5218722
1.5218738
1.5216046
1.5216151
1.5214588
1.5214597
1.5215257
1.5215846
1.521482
1.5214776
1.5214999
1.5215702
1.521576
1.5216906
1.5216282
1.521822
1.5216353
1.5218329
1.5211274
1.5211504
1.5211226
1.5210311
1.5220519
1.5219941
1.5218908
1.5219587
1.5217921
1.5217614
1.5219181
1.5219417
1.5219814
1.5219457
1.5218716
1.5222948
1.5219156
1.5220799
1.5218283
1.5217401
1.5219182
1.5219945
1.5212007
1.521235
1.5212592
1.5212093
1.5212279
1.5212212
1.5212258
1.5212511
1.5212554
1.5211695
1.5211737
1.5211923
1.5211963
1.5211532
1.5212552
1.5212891
1.5213188
1.5212889
1.5210616
1.5211237
1.5212819
1.5212942
1.5212772
1.5213623
1.5213135
1.5213461
1.5213323
1.5213502
1.5213855
1.5213842
1.5214165
1.521314
1.520874
1.5212718
1.5210728
1.5211161
1.5210554
1.5210075
1.5209743
1.5210247
1.5217723
1.5218019
1.5218234
1.5218225
1.5214851
1.5214842
1.5214702
1.5214717
1.5215528
1.5216733
1.5217803
1.5217906
1.5208828
1.5208593
1.5208554
1.5210425
1.5212245
1.5209206
1.5208367
1.5208906
1.5210879
1.5209791
1.5213336
1.5211785
1.5211462
1.5214217
1.5209719
1.5209521
1.5209365
1.5209468
1.5209824
1.5209502
1.5211638
1.5211331
1.5215114
1.5211322
1.5216482
1.5212653
1.5209065
1.5209152
1.5209264
1.5209186
1.5211635
1.5210462
1.5210197
1.5211924
1.521207
1.5211667
1.5212969
1.5210073
1.5209242
1.5209314
1.5211238
1.5211223
1.522111
1.5221418
1.5220457
1.5221716
1.5220247
1.5219474
1.5220584
1.5218762
1.5220674
1.5221747
1.5221906
1.5221691
1.5221948
1.5217822
1.5215776
1.5220206
1.5217981
1.5221226
1.5221578
1.5218959
1.5219388
1.5217096
1.5215237
1.521527
1.5217112
1.5215286
1.5215564
1.5216965
1.5216945
1.5215244
1.5215229
1.5217196
1.5217234
1.5215166
1.5215173
1.5217208
1.521719
1.5217803
1.5217603
1.5215117
1.5215117
1.5217925
1.5217921
1.5215153
1.5215147
1.521599
1.5215109
1.5215108
1.5215057
1.5215152
1.5216855
1.5217328
1.5215183
1.5215574
1.5215049
1.5214833
1.5215284
1.5216097
1.5215011
1.5214921
1.5216165
1.5215156
1.5215126
1.521686
1.5216928
1.5216981
1.5215122
1.5215126
1.5216978
1.5211117
1.5213047
1.5213056
1.5211134
1.5212598
1.5212566
1.5213604
1.5213697
1.5213594
1.5210999
1.5210981
1.5210924
1.5210937
1.5210909
1.521091
1.5217684
1.5217692
1.521831
1.5218309
1.5218062
1.5217195
1.5217486
1.5217795
1.5217575
1.5217355
1.5217034
1.5217297
1.5217824
1.5217533
1.5217548
1.5217812
1.5215749
1.5216559
1.5215565
1.5216656
1.5216733
1.5216762
1.5217419
1.5217398
1.5217494
1.5219382
1.5217513
1.5217307
1.5217482
1.521728
1.521751
1.5218956
1.5217736
1.5217476
1.5217498
1.5217718
1.521769
1.5217712
1.5217598
1.5217578
1.5219662
1.521692
1.5217392
1.5217462
1.5218933
1.5217064
1.521917
1.5218359
1.5216908
1.5217168
1.5217296
1.5217495
1.5218426
1.5218434
1.5220971
1.5218834
1.521905
1.5219298
1.5219056
1.5218513
1.5218249
1.5216453
1.5215361
1.5215827
1.5216818
1.5215489
1.5216564
1.521563
1.5216508
1.5217334
1.5217294
1.5217529
1.5217574
1.521745
1.5217981
1.5217385
1.5217913
1.5213772
1.5213843
1.5211854
1.5213399
1.5213338
1.5213858
1.5213926
1.5212152
1.5213502
1.5213533
1.5214259
1.5214298
1.52144
1.5214479
1.5211665
1.5211971
1.5214284
1.5214355
1.5214362
1.521444
1.5214646
1.5214651
1.5214553
1.521457
1.5214689
1.5214599
1.5214686
1.52146
1.5214865
1.5214672
1.5214877
1.5214907
1.5214717
1.5214904
1.5214715
1.521362
1.5213618
1.5211536
1.5213158
1.5213166
1.5213668
1.5213672
1.5211571
1.521322
1.5213215
1.5214167
1.5214225
1.5214161
1.5214234
1.5214212
1.5214272
1.5214212
1.5214274
1.5211426
1.5211394
1.5214738
1.5214667
1.5214828
1.5214758
1.5214597
1.5214549
1.5214829
1.521478
1.5214781
1.5214677
1.5215041
1.5214909
1.5214959
1.5214805
1.5215052
1.5214893
1.5211288
1.5211317
1.5211324
1.52113
1.5211516
1.521181
1.5211847
1.5211576
1.5214949
1.5214942
1.5214727
1.5214722
1.5214906
1.521463
1.5214895
1.521462
1.5214908
1.5214682
1.5214888
1.5215093
1.5214738
1.5214893
1.5215025
1.5214835
1.5215111
1.5214913
1.5214858
1.5214741
1.5215102
1.5214944
1.5215004
1.5215078
1.5214777
1.521484
1.5214899
1.5214669
1.5214956
1.5214713
1.5214765
1.5214609
1.5214801
1.5214633
1.5214851
1.5214717
1.5214995
1.5214808
1.5214816
1.5214745
1.5214885
1.5214767
1.5214492
1.5214762
1.5214745
1.5209419
1.5210577
1.5209819
1.5209547
1.5210046
1.5210875
1.5211325
1.5211457
1.5211077
1.521126
1.5211621
1.5211703
1.5211411
1.5211192
1.5211082
1.5211051
1.5211168
1.5210631
1.5210662
1.521086
1.5210836
1.5210312
1.5210521
1.5210482
1.5210834
1.5210736
1.5210697
1.5210806
1.5216685
1.5216689
1.5216782
1.5216805
1.5216868
1.5216852
1.5216864
1.5216906
1.5215127
1.5215089
1.5215224
1.521526
1.521521
1.5215213
1.5215259
1.5215247
1.521481
1.5215239
1.5215924
1.5215991
1.5216585
1.5216655
1.5216683
1.5216681
1.5208532
1.5208493
1.5214112
1.520846
1.5210123
1.5211832
1.5213177
1.5211476
1.5209086
1.5209508
1.5209349
1.520832
1.5208833
1.5209066
1.5209158
1.5210854
1.5210342
1.521176
1.5209689
1.5211276
1.5213808
1.5209681
1.5209463
1.5209802
1.5209674
1.5209844
1.5209625
1.5209516
1.5209474
1.5209435
1.5209501
1.5210027
1.5211852
1.5209761
1.5211573
1.5209648
1.5211513
1.5209577
1.521145
1.5215055
1.521322
1.5216086
1.5212859
1.5211264
1.5211006
1.5211194
1.521077
1.5217197
1.5213034
1.5214735
1.521856
1.5212959
1.5212204
1.5211357
1.5210768
1.5209253
1.5209182
1.5210136
1.5211887
1.5211396
1.5211074
1.521264
1.5212417
1.521014
1.5209833
1.5211584
1.5211751
1.5210999
1.5212172
1.5213245
1.5212747
1.5210114
1.5209943
1.5209783
1.5210047
1.5209238
1.5209207
1.520924
1.5209184
1.5209243
1.5209309
1.5209203
1.5209299
1.5209414
1.5209363
1.5211335
1.5211428
1.5209468
1.5211335
1.5211333
1.5209383
1.5221533
1.5220736
1.5221809
1.5220936
1.5221884
1.52218
1.5221691
1.5221901
1.5222059
1.5221845
1.5222046
1.5220808
1.5220195
1.5219316
1.5219828
1.5220989
1.5220882
1.5219342
1.5218674
1.5218108
1.5219324
1.5220626
1.5220757
1.5220933
1.5220944
1.5221632
1.5221748
1.5221763
1.5221823
1.5221993
1.5222032
1.5221912
1.5221976
1.5219246
1.5217699
1.5217085
1.521894
1.5214626
1.5215865
1.5217684
1.5216145
1.5220184
1.5220501
1.5220909
1.522074
1.5219824
1.5219001
1.5217496
1.5218436
1.5221311
1.5221524
1.5221689
1.5221514
1.5221648
1.5221831
1.5221906
1.5221738
1.5218977
1.5220381
1.5220688
1.5219341
1.5220976
1.5220849
1.5219541
1.5219643
1.5213231
1.5213227
1.5216311
1.5216325
1.5213326
1.521324
1.5216339
1.5216348
1.5213497
1.5213424
1.5216254
1.5216263
1.5214398
1.5213856
1.5216333
1.5216338
1.5213149
1.5213244
1.521635
1.5216373
1.5213105
1.5213074
1.5216388
1.5216402
1.5212968
1.5213063
1.5216326
1.5216337
1.5213049
1.5216344
1.5216345
1.5212965
1.521807
1.5217867
1.5218201
1.5218195
1.5216138
1.5215156
1.5217068
1.5217562
1.5214541
1.5217894
1.5216568
1.5214895
1.5214414
1.5215286
1.5215128
1.5215116
1.5214026
1.5213721
1.521562
1.5215664
1.5215695
1.5213552
1.521349
1.5215708
1.5213318
1.5213473
1.5216118
1.5216158
1.5213181
1.5213204
1.5216191
1.5216203
1.5213177
1.5213102
1.5216216
1.5216208
1.5213112
1.5213185
1.5216205
1.5216219
1.5218944
1.5212316
1.5212325
1.521233
1.5212328
1.5218425
1.5218418
1.5217695
1.5217699
1.5217607
1.5217644
1.5218306
1.5218306
1.5212261
1.5212266
1.5212325
1.5212305
1.5218038
1.5218149
1.5217264
1.5217901
1.521726
1.5217885
1.5217454
1.5216889
1.5216889
1.5217442
1.5217241
1.5217812
1.5217184
1.5217835
1.5212095
1.5212185
1.5212255
1.5212157
1.5212235
1.5212238
1.5212152
1.5212161
1.5212079
1.5212234
1.5212302
1.5212149
1.521216
1.5212337
1.5212386
1.5212222
1.5212347
1.5212363
1.5212197
1.5212188
1.521213
1.5212277
1.5212262
1.5212133
1.5216184
1.5216151
1.5216496
1.5216467
1.52162
1.5216507
1.5216235
1.5216539
1.5216463
1.5216912
1.5216501
1.5216946
1.5216455
1.5216911
1.521643
1.5216888
1.5216397
1.5216426
1.5216814
1.5216835
1.5216088
1.5216217
1.5216335
1.521641
1.5216145
1.5216429
1.5216179
1.5216455
1.5216315
1.5216377
1.5216703
1.5216721
1.5215893
1.5216198
1.5215929
1.5216227
1.5215746
1.5215781
1.5215975
1.5216005
1.5215714
1.5215971
1.5215913
1.5216112
1.521585
1.521605
1.5216126
1.5216263
1.5215928
1.5216267
1.5215957
1.5216294
1.5215743
1.5215701
1.5215998
1.5215957
1.5215769
1.5216021
1.5215792
1.5216044
1.5215906
1.5215867
1.5216249
1.5216211
1.5215057
1.521513
1.5214881
1.5214994
1.5215323
1.5215289
1.5215423
1.5215391
1.5214899
1.5214943
1.5215315
1.5215284
1.5215481
1.5215457
1.5215415
1.5215475
1.521539
1.5215444
1.5215642
1.5215625
1.5216912
1.5215799
1.5215801
1.5215945
1.5215903
1.5217595
1.5216104
1.521614
1.5215935
1.5215942
1.5217581
1.5216133
1.5216118
1.5215657
1.5215753
1.521566
1.5215756
1.5217414
1.5217431
1.5215656
1.5215756
1.521561
1.5215705
1.5215559
1.5215711
1.5215506
1.5215659
1.5215566
1.5215806
1.5215576
1.5215821
1.5215562
1.5215706
1.5215565
1.5215712
1.5215569
1.5215821
1.5215517
1.521577
1.5217588
1.5217568
1.5217594
1.5217606
1.5215614
1.5215891
1.5215631
1.5215908
1.521558
1.5215537
1.5215744
1.5215699
1.5215609
1.5215772
1.521562
1.5215784
1.5215587
1.5215543
1.5215865
1.521582
1.521569
1.5215798
1.5215648
1.5215753
1.5215722
1.5215828
1.5215727
1.5215834
1.5216037
1.5216037
1.5217776
1.5216242
1.5216241
1.5216001
1.5215957
1.5217755
1.5216158
1.5216201
1.521758
1.5217569
1.5215865
1.521594
1.521706
1.5215991
1.521603
1.5216024
1.5216019
1.5217522
1.5216205
1.5216222
1.5215737
1.5215816
1.5215743
1.5215827
1.5217367
1.5216853
1.5215638
1.5215717
1.5215806
1.5215917
1.521775
1.5217711
1.521771
1.5217741
1.521695
1.5217497
1.5217493
1.5217001
1.5215563
1.5215686
1.5215826
1.5215935
1.5215576
1.5215797
1.5215863
1.5216037
1.5215617
1.5215758
1.5215639
1.521578
1.5215614
1.5215855
1.5215644
1.5215883
1.5217978
1.5218596
1.5217881
1.5217944
1.5218208
1.5218942
1.5218279
1.521775
1.5217954
1.5217965
1.5217977
1.5218004
1.5217765
1.5217771
1.5217795
1.5217781
1.5217907
1.5217909
1.5217906
1.5217903
1.5218095
1.5218126
1.5218085
1.5218119
1.5217645
1.5217667
1.521704
1.5217101
1.5217803
1.5217851
1.5217176
1.5217197
1.5215605
1.5215765
1.5215625
1.5215792
1.5214951
1.521494
1.5215076
1.5215119
1.521483
1.5215104
1.5214957
1.5215264
1.5215725
1.5215767
1.5215971
1.5216017
1.5215068
1.521495
1.5215076
1.5215017
1.5215477
1.5215657
1.5215475
1.5215664
1.5215005
1.5215048
1.5214989
1.5215098
1.5215396
1.5215377
1.5215545
1.5215534
1.5215708
1.5215661
1.5215937
1.5215895
1.5215694
1.5215716
1.521591
1.5215936
1.5215822
1.5215855
1.5216113
1.5216149
1.5215849
1.5215811
1.5216155
1.5216121
1.5216091
1.521637
1.5216063
1.5216348
1.5216328
1.5216728
1.5216312
1.5216717
1.5216046
1.5216308
1.5216091
1.5216353
1.5216259
1.5216315
1.5216642
1.5216697
1.5218799
1.5218806
1.5218095
1.5218117
1.521818
1.5218223
1.5218862
1.5218869
1.5213043
1.5213048
1.5213094
1.5213094
1.5218645
1.5218591
1.5217361
1.5217464
1.5216816
1.5216984
1.5217872
1.5217942
1.5218524
1.521855
1.5213212
1.5213265
1.5213265
1.521322
1.5218354
1.5217319
1.5216884
1.5217094
1.521667
1.5216461
1.5216539
1.5216775
1.5216184
1.5216403
1.5217546
1.5218014
1.5217452
1.5218085
1.5217114
1.521759
1.5217684
1.5217204
1.5212967
1.521294
1.5212864
1.5212903
1.5213082
1.5213134
1.5213081
1.521303
1.5217681
1.5218259
1.5217655
1.5218271
1.5217297
1.5217815
1.5217832
1.5217303
1.521781
1.5218352
1.5217753
1.5218382
1.5217408
1.5217923
1.5217969
1.5217452
1.5217603
1.5217182
1.5217175
1.5217584
1.521755
1.5217552
1.5217147
1.5217153
1.5216896
1.5217323
1.5216908
1.5217306
1.5217285
1.5216887
1.5217294
1.5216889
1.5217167
1.5217576
1.5217171
1.5217573
1.5217308
1.5216906
1.5216888
1.5217291
1.5217237
1.5217605
1.521719
1.5217643
1.5217331
1.521692
1.5217365
1.5216955
1.5217026
1.5216719
1.5216701
1.5217004
1.5216483
1.5216798
1.5216826
1.5216458
1.521701
1.5216994
1.521671
1.5216698
1.5216697
1.5217021
1.5216726
1.5216991
1.5216495
1.5216828
1.5216789
1.5216457
1.5217061
1.521676
1.5217037
1.5216735
1.52165
1.5216839
1.5216856
1.5216519
1.5219047
1.5219045
1.5218293
1.5218308
1.5218185
1.5218205
1.5218892
1.5218878
1.5212857
1.5212879
1.5212865
1.5212849
1.5218639
1.5218811
1.5219003
1.5219007
1.5218264
1.5218281
1.5218306
1.5218347
1.521905
1.5219053
1.5212896
1.521291
1.5212936
1.5212911
1.521882
1.5218776
1.5218474
1.5218473
1.5217823
1.521783
1.5217996
1.5217436
1.5217428
1.5218
1.5218375
1.5218372
1.5217763
1.5217745
1.5217932
1.5217932
1.5217377
1.5217392
1.521782
1.5218439
1.5217803
1.5218444
1.5217973
1.5217414
1.5217425
1.521798
1.521789
1.5218486
1.5217834
1.5218513
1.521801
1.5217439
1.5218054
1.521749
1.5212714
1.52128
1.5212842
1.5212747
1.5212764
1.5212784
1.5212692
1.5212682
1.5217062
1.5217439
1.5217055
1.5217439
1.5217184
1.5216808
1.5216812
1.5217185
1.5217593
1.5217216
1.5217558
1.5217176
1.5217312
1.5216934
1.5217344
1.521697
1.5216247
1.5216258
1.5216014
1.5216503
1.5216079
1.5216341
1.5215845
1.5216085
1.5216984
1.5217237
1.5216887
1.5217328
1.5216662
1.5216996
1.5217097
1.5216756
1.5215983
1.52159
1.5215739
1.5216167
1.5215785
1.5216055
1.5215607
1.5215843
1.5216849
1.5216597
1.521675
1.5216502
1.5216308
1.5216578
1.5216679
1.5216401
1.5216638
1.5216916
1.521664
1.5216913
1.5216431
1.5216735
1.5216728
1.5216423
1.5217075
1.5216798
1.5217046
1.5216767
1.5216555
1.5216865
1.5216891
1.5216582
1.5212836
1.521286
1.52127
1.5212681
1.5212917
1.5212854
1.5212692
1.521275
1.5212662
1.5212801
1.5212859
1.5212711
1.5212657
1.5212805
1.5212778
1.5212643
1.5212965
1.5212973
1.5212829
1.5212832
1.5213068
1.5213122
1.5213001
1.5212948
1.5213052
1.5213104
1.5213003
1.5212954
1.5212811
1.5212934
1.521294
1.5212834
1.5216289
1.5216577
1.5216327
1.5216532
1.5216582
1.5216596
1.5216329
1.5216345
1.52164
1.5216115
1.5216356
1.5216078
1.5216414
1.5216115
1.521613
1.5216403
1.5216171
1.5216131
1.5215917
1.5215948
1.5215982
1.5215696
1.5215669
1.5215949
1.5215959
1.5216172
1.5215948
1.5216182
1.5215984
1.521599
1.5215692
1.5215703
1.5216288
1.5216568
1.5216311
1.5216538
1.5216387
1.5216095
1.5215445
1.5215352
1.521551
1.5215645
1.5216122
1.5216028
1.5215856
1.5215938
1.5215362
1.5215371
1.5215253
1.5215527
1.5215958
1.5215731
1.5215874
1.5215659
1.5216507
1.5216497
1.5216279
1.5216273
1.5216339
1.5216086
1.5216346
1.5216089
1.5216426
1.5216633
1.5216401
1.5216657
1.521647
1.5216204
1.5216228
1.5216492
1.5215745
1.5215645
1.5215525
1.52159
1.5215555
1.5215418
1.5215613
1.521579
1.5216258
1.5216367
1.5216166
1.5216466
1.5216215
1.5215992
1.5216314
1.5216082
1.521614
1.5215939
1.521594
1.5216137
1.5216258
1.521605
1.5216277
1.5216067
1.521572
1.5215969
1.5215719
1.5215971
1.5216095
1.5216082
1.5215816
1.5215831
1.5215732
1.5215555
1.521573
1.5215552
1.5215565
1.5215364
1.521557
1.5215369
1.5215838
1.5215826
1.5215637
1.5215648
1.5215658
1.5215442
1.5215649
1.5215434
1.5215387
1.5215252
1.5215381
1.5215247
1.5215271
1.5215144
1.5215143
1.5215276
1.5215451
1.5215305
1.5215456
1.521531
1.5215331
1.5215186
1.5215328
1.5215189
1.5215274
1.521537
1.5215201
1.5215263
1.5215274
1.5215154
1.5215225
1.521513
1.5215663
1.5215516
1.5215574
1.5215735
1.5215407
1.5215522
1.5215358
1.5215582
1.5215161
1.5215169
1.5215108
1.5215099
1.5215118
1.5215051
1.5215142
1.5215082
1.5215369
1.5215261
1.5215301
1.5215419
1.5215209
1.5215278
1.5215176
1.5215319
1.5215298
1.5215532
1.5215498
1.521527
1.5215512
1.5215712
1.521568
1.5215483
1.5215704
1.5215496
1.5215711
1.5220673
1.5210657
1.5210466
1.5211146
1.5210986
1.5210764
1.5210765
1.5210461
1.521043
1.5210465
1.5210432
1.5210046
1.5209941
1.5212353
1.5212366
1.5212589
1.5212577
1.521248
1.5212736
1.5212896
1.52127
1.5212964
1.5213135
1.5213075
1.5212951
1.5212859
1.5212887
1.5212863
1.5212842
1.5213011
1.5213032
1.5212929
1.5212913
1.5213104
1.5213208
1.5213099
1.5213017
1.5213126
1.5213198
1.5213053
1.5212993
1.5212892
1.5213048
1.521303
1.5212887
1.5212773
1.5212967
1.5213008
1.5212829
1.5212849
1.5212975
1.5212995
1.5212886
1.521295
1.5212961
1.5212842
1.5212831
1.5212781
1.5212967
1.5212944
1.5212768
1.521226
1.5212278
1.5212514
1.5212511
1.5212272
1.5212288
1.5212526
1.5212524
1.52128
1.5212838
1.5212837
1.5212814
1.5212789
1.5212833
1.5212816
1.5212785
1.5211888
1.5211943
1.5212168
1.5212135
1.5212397
1.5212468
1.5212438
1.5212388
1.5212355
1.5212417
1.5212399
1.521236
1.5212283
1.5212487
1.5212508
1.5212325
1.5212397
1.521255
1.521255
1.5212417
1.5212521
1.5212527
1.5212397
1.5212391
1.5212307
1.5212497
1.5212482
1.5212303
1.5216104
1.5216115
1.5216205
1.5216219
1.5216152
1.5216166
1.5216178
1.5216194
1.5216171
1.521617
1.5216145
1.5216164
1.5216185
1.5216207
1.5216215
1.5216236
1.5214582
1.5214949
1.5215101
1.5215079
1.5215542
1.5215583
1.52156
1.5215616
1.5215983
1.5216019
1.5216042
1.521606
1.5216056
1.5216064
1.5216045
1.5216067
1.520825
1.5210311
1.5208333
1.5208349
1.5209914
1.5208243
1.5213589
1.5220027
1.5218968
1.5217879
1.5218801
1.5211517
1.5211394
1.5212783
1.5212723
1.5211087
1.5208977
1.5209295
1.5209418
1.5209436
1.52093
1.5209095
1.5209018
1.5208752
1.5209111
1.5209027
1.5211628
1.5210364
1.5210803
1.5210186
1.5211766
1.5211125
1.52113
1.5211179
1.5210917
1.5211153
1.5210823
1.5212801
1.5213776
1.5214534
1.5212695
1.5215283
1.5212743
1.5209562
1.5209634
1.5209765
1.5209641
1.5209824
1.5209655
1.5209409
1.520944
1.5209526
1.5209475
1.5209535
1.5209476
1.5209782
1.520986
1.5209859
1.5209718
1.5209615
1.5209633
1.5209584
1.5209556
1.5209456
1.5209441
1.5209414
1.5209389
1.5209506
1.5209518
1.5209477
1.5209456
1.5209664
1.5209843
1.5209838
1.5209621
1.521174
1.5210424
1.5210175
1.5211487
1.52095
1.5209539
1.5209504
1.5209448
1.5209956
1.5210048
1.5211339
1.5211239
1.5209434
1.5209407
1.5209355
1.5209392
1.5209905
1.5209852
1.5211125
1.5211207
1.5209325
1.5209369
1.5209341
1.5209287
1.5211152
1.5209869
1.5209804
1.5211149
1.5215037
1.5216168
1.5216876
1.521479
1.5212503
1.5212752
1.5212691
1.5212249
1.5211043
1.5211158
1.5211112
1.5210905
1.5210766
1.5210667
1.5210698
1.5210559
1.5214673
1.5217365
1.521482
1.5218223
1.5212078
1.5212659
1.5211979
1.5212808
1.521422
1.5216036
1.5214288
1.5212854
1.5216448
1.5219859
1.5221157
1.5218389
1.521186
1.5211311
1.5212538
1.5213233
1.5212159
1.5211013
1.5210749
1.5211896
1.5210805
1.5211073
1.5210736
1.521109
1.5210451
1.5210586
1.5210346
1.521052
1.5209243
1.5209178
1.5209308
1.5209232
1.5209234
1.5209319
1.5209132
1.5209146
1.5209202
1.5209232
1.5209257
1.5209212
1.5210203
1.5210071
1.5210099
1.5209912
1.5210063
1.5209845
1.5212235
1.5211368
1.5211202
1.5212595
1.5211141
1.521248
1.5210935
1.5211101
1.5211032
1.5210751
1.5212139
1.521233
1.5212872
1.5213046
1.520982
1.520997
1.5209925
1.5209746
1.5209488
1.5209581
1.5209686
1.5209618
1.5211174
1.5209938
1.5210032
1.5211212
1.5211289
1.5210168
1.521031
1.5211388
1.5210625
1.5210982
1.5210908
1.5210478
1.5211573
1.5210701
1.5211068
1.5211768
1.5212282
1.5211877
1.521311
1.5213151
1.521203
1.5213155
1.5213203
1.521189
1.5209659
1.5209756
1.5209803
1.5209742
1.5209889
1.5209978
1.5210054
1.5210012
1.5209234
1.5209256
1.5209232
1.5209194
1.5209191
1.5209189
1.5209153
1.5209148
1.5209158
1.5209204
1.5209209
1.5209167
1.5209316
1.5209278
1.5209227
1.5209289
1.5209174
1.5209203
1.5209154
1.5209115
1.5209108
1.5209116
1.520907
1.5209086
1.520963
1.5210989
1.5210982
1.520963
1.521118
1.5209768
1.5209669
1.5211053
1.5209181
1.5209259
1.5209227
1.5209139
1.5209601
1.5209595
1.5210888
1.5210949
1.5210915
1.520966
1.5209707
1.5210974
1.5209127
1.5209117
1.5209093
1.5209082
1.5221864
1.5221982
1.5220235
1.5220961
1.5222301
1.5221254
1.5222189
1.5221989
1.522119
1.5220404
1.5221175
1.522041
1.5221024
1.5222033
1.5222144
1.522202
1.5221925
1.5223388
1.5222843
1.5221988
1.5221901
1.5222139
1.5222096
1.5221834
1.5221745
1.5221989
1.5222038
1.521855
1.5219416
1.5219443
1.5219911
1.522101
1.5221083
1.5220782
1.5221006
1.5218132
1.5219399
1.5220669
1.5220983
1.5221642
1.5221768
1.5221908
1.5221971
1.5219306
1.5217778
1.5217063
1.521891
1.5214401
1.5215499
1.5217378
1.521618
1.5220163
1.5220547
1.5220931
1.522069
1.5219702
1.5218783
1.5217755
1.5218852
1.5221252
1.5221534
1.5221683
1.522144
1.5221563
1.522182
1.5221891
1.5221655
1.5219547
1.5220332
1.5220666
1.5219957
1.5220979
1.5220822
1.5220206
1.5220336
1.5209448
1.5220596
1.521294
1.5212933
1.5213043
1.5212952
1.5213239
1.5213158
1.521422
1.521363
1.5212851
1.5212949
1.5212798
1.5212771
1.5212658
1.5212758
1.5212742
1.5212658
1.5219378
1.5217983
1.5219057
1.5217802
1.5219657
1.5218094
1.5219582
1.52181
1.5216221
1.5216234
1.5214637
1.52153
1.5217629
1.521711
1.5218527
1.5217533
1.5218222
1.5216682
1.5214333
1.5215249
1.521387
1.5213539
1.5213356
1.5213287
1.5213062
1.5213231
1.5212914
1.521294
1.5212905
1.5212825
1.5212828
1.5212904
1.5217629
1.5217346
1.5217149
1.5217413
1.5218951
1.521937
1.5218876
1.5218869
1.5219026
1.5219012
1.5218955
1.5218946
1.5218796
1.5218789
1.521781
1.5217521
1.5217431
1.5217698
1.5218982
1.521902
1.5219444
1.5219415
1.5219006
1.5219042
1.5219454
1.5219431
1.5219306
1.5219176
1.5219315
1.5219158
1.5219436
1.5219533
1.5219525
1.5219423
1.5219248
1.5219105
1.5219245
1.5219096
1.5219368
1.5217273
1.5217085
1.5217026
1.5217195
1.5216769
1.5216943
1.5217111
1.5216923
1.5216121
1.5215947
1.5216004
1.5215891
1.5215849
1.5215837
1.5216969
1.5216932
1.5216895
1.5216925
1.5216971
1.5217075
1.5217041
1.5216945
1.5216863
1.5216969
1.5216867
1.5216744
1.5216842
1.5216823
1.5216682
1.5216688
1.5215368
1.5215566
1.5215576
1.5215379
1.5215328
1.5215324
1.5215527
1.5215528
1.5215817
1.5215573
1.5215808
1.5215584
1.5215538
1.5215775
1.5215536
1.5215776
1.521563
1.5215405
1.5215595
1.5215445
1.5215598
1.5215826
1.521586
1.5215636
1.5215641
1.5215438
1.5215633
1.5215448
1.521564
1.521587
1.5215649
1.5215876
1.5216023
1.5215828
1.5215992
1.5215865
1.5216223
1.5215992
1.5216025
1.5216246
1.5215884
1.5216047
1.5215876
1.5216041
1.5216263
1.5216042
1.521605
1.5216273
1.5215814
1.5215983
1.5215991
1.5215824
1.5216215
1.5215993
1.5215987
1.5216216
1.5215784
1.5215785
1.5215957
1.5215957
1.5216191
1.5215962
1.5216195
1.521596
1.5215808
1.5215965
1.5215991
1.5215841
1.5215868
1.5215862
1.5216013
1.5216017
1.5216202
1.5215968
1.5216185
1.5215995
1.5216022
1.5216225
1.5216016
1.5216219
1.5215412
1.5215578
1.5215609
1.5215449
1.5215746
1.5215662
1.5215792
1.521585
1.5215805
1.5215585
1.5215781
1.5215617
1.5215845
1.5215981
1.5215789
1.5215948
1.5215615
1.5215398
1.521558
1.521544
1.5215586
1.5215802
1.5215833
1.5215623
1.521564
1.5215454
1.5215633
1.5215463
1.5215642
1.5215853
1.521565
1.5215857
1.5215788
1.5215932
1.521595
1.5215813
1.5215949
1.5216064
1.521598
1.521608
1.5216146
1.5215937
1.5216135
1.5215955
1.5216077
1.5216238
1.5216064
1.5216234
1.521519
1.5214967
1.5215152
1.5215012
1.5215144
1.521539
1.5215427
1.5215185
1.5215215
1.5215029
1.5215207
1.5215038
1.5215198
1.5215443
1.521521
1.5215447
1.521461
1.5214805
1.5214846
1.5214657
1.5214679
1.5214869
1.5214871
1.5214683
1.5214767
1.5214993
1.5215033
1.5214812
1.5214833
1.5215054
1.5215057
1.5214839
1.5214698
1.5214874
1.5214929
1.5214764
1.5215387
1.5215207
1.5215325
1.5215476
1.5214839
1.5215042
1.5215092
1.5214899
1.5215447
1.5215281
1.5215424
1.521556
1.5215018
1.5215186
1.5215228
1.5215071
1.5215536
1.521539
1.521551
1.5215626
1.5215403
1.5215438
1.5215179
1.5215223
1.5215611
1.5215491
1.5215666
1.521575
1.5215185
1.5214958
1.521515
1.5214997
1.5215142
1.52154
1.5215435
1.5215177
1.5214986
1.5215178
1.5214978
1.5215171
1.5215162
1.5215429
1.5215172
1.5215434
1.5214519
1.5214729
1.5214751
1.5214545
1.5214483
1.5214689
1.5214686
1.5214482
1.5214951
1.5214689
1.5214932
1.5214712
1.5214889
1.5214647
1.5214889
1.5214649
1.5214822
1.5214581
1.5214785
1.521462
1.5214747
1.5214985
1.5215021
1.5214787
1.5214803
1.5214593
1.5214801
1.5214595
1.5214762
1.5215004
1.5214768
1.5215007
1.5214903
1.52151
1.5215113
1.5214921
1.5214858
1.5215054
1.5214863
1.5215057
1.5215359
1.5215367
1.521509
1.52151
1.5215048
1.521504
1.5215314
1.5215314
1.5215165
1.5215488
1.5215189
1.5215521
1.5215449
1.5215165
1.5215173
1.5214321
1.5214418
1.5214464
1.5214549
1.5214556
1.521465
1.5214408
1.5214519
1.5213998
1.5214224
1.521422
1.5213991
1.5213855
1.5213873
1.5214114
1.5214095
1.5214407
1.5214195
1.5214407
1.5214191
1.5214062
1.521429
1.521408
1.5214308
1.5215182
1.5214212
1.5214064
1.5214333
1.5214457
1.5214199
1.5214332
1.521438
1.5214534
1.5214538
1.5214381
1.5214279
1.5214446
1.5214261
1.521443
1.5214682
1.5214688
1.5214507
1.5214511
1.5214402
1.5214418
1.5214606
1.5214591
1.5213369
1.5213357
1.5213736
1.5213726
1.5213699
1.5214026
1.5214019
1.5213709
1.5213226
1.5213209
1.5213589
1.521361
1.5213574
1.5213556
1.5213908
1.5213888
1.5212948
1.5212937
1.5213393
1.5213379
1.5213259
1.5213238
1.5212799
1.5212791
1.5215934
1.5215844
1.5215852
1.5215937
1.5212829
1.5212965
1.5212367
1.5212365
1.521294
1.5212936
1.5212913
1.5212892
1.5212345
1.5212343
1.5216297
1.5216158
1.5216138
1.5216268
1.5212397
1.5212414
1.5212552
1.5212545
1.5213091
1.5213084
1.5213012
1.5212993
1.521245
1.5212446
1.5216279
1.5216145
1.5216155
1.5216291
1.5212494
1.5212589
1.5213054
1.5213052
1.5213506
1.5213504
1.5213461
1.5213465
1.5213857
1.5213865
1.5213421
1.5212969
1.5213441
1.5212957
1.5213806
1.5213392
1.5213377
1.5213788
1.5216256
1.5216148
1.5216151
1.5216265
1.5216143
1.5216149
1.5216265
1.5216248
1.521338
1.5212896
1.5213376
1.5212901
1.5213748
1.5213326
1.5213335
1.5213759
1.521332
1.5212865
1.5213342
1.5212853
1.5213706
1.5213287
1.5213272
1.5213688
1.5214022
1.5213699
1.5214006
1.5213715
1.5213955
1.5214252
1.5214271
1.5213975
1.5213642
1.5213944
1.5213654
1.5213959
1.5213906
1.5214203
1.5213896
1.5214191
1.5214508
1.5214285
1.5214487
1.5214306
1.521468
1.5214445
1.5214468
1.5214703
1.5214248
1.521446
1.5214258
1.5214472
1.5214675
1.5214429
1.521442
1.5214664
1.5214112
1.5213813
1.5214098
1.5213824
1.5214052
1.5214068
1.5214327
1.5214345
1.5214044
1.5213759
1.521406
1.5213746
1.52143
1.5214012
1.5214
1.5214287
1.5214448
1.5214206
1.5214426
1.521423
1.5214633
1.521438
1.5214405
1.5214655
1.5214149
1.5214368
1.5214157
1.5214376
1.5214585
1.5214331
1.5214326
1.5214578
1.521616
1.5216137
1.5216242
1.5216255
1.5216154
1.5216147
1.5216249
1.5216254
1.5216123
1.5216124
1.5216258
1.5216261
1.5216255
1.5216118
1.5216129
1.5216253
1.521443
1.5214164
1.5214398
1.5214198
1.5214349
1.5214622
1.5214657
1.5214386
1.5214162
1.5214399
1.5214164
1.5214403
1.5214354
1.5214632
1.5214354
1.521463
1.5213565
1.5213893
1.521391
1.5213585
1.5213557
1.5213564
1.5213881
1.521387
1.5214173
1.5213832
1.5214152
1.5213855
1.5213813
1.5214121
1.5213818
1.5214131
1.5213977
1.5213632
1.5213957
1.5213651
1.52139
1.5214216
1.5214243
1.5213926
1.5213936
1.5213616
1.5213949
1.5213606
1.5213892
1.5214215
1.5213885
1.5214207
1.5214099
1.5214335
1.5214359
1.5214125
1.5214076
1.5214307
1.5214072
1.52143
1.5214562
1.5214584
1.5214284
1.521431
1.5214251
1.5214254
1.5214527
1.5214521
1.5212739
1.5212748
1.5213243
1.5213251
1.5213192
1.5213628
1.5213642
1.5213179
1.5212766
1.5212765
1.5213244
1.5213258
1.5213191
1.5213185
1.521363
1.5213616
1.5213307
1.5212797
1.5213304
1.5212803
1.5213243
1.5213692
1.5213703
1.5213253
1.5213258
1.5212758
1.5213278
1.5212749
1.5213216
1.5213677
1.5213203
1.5213659
1.5212256
1.5212253
1.5212859
1.5212854
1.5212821
1.52128
1.5212203
1.5212201
1.5216255
1.5216267
1.5216417
1.5216409
1.5212316
1.5212264
1.5212204
1.5212206
1.5212802
1.52128
1.5212832
1.5212817
1.5212252
1.5212257
1.521637
1.5216219
1.5216189
1.5216331
1.5212321
1.5212271
1.5216379
1.5216245
1.521623
1.5216365
1.5216186
1.5216205
1.5216332
1.5216304
1.5212811
1.5212848
1.5213294
1.5213338
1.521431
1.5214471
1.5214012
1.5214144
1.5216133
1.5216012
1.5215919
1.5216056
1.5214091
1.5212885
1.5212442
1.5212447
1.5213011
1.5213014
1.5213087
1.5213077
1.5212527
1.5212535
1.5216369
1.5216237
1.5216211
1.5216346
1.5212592
1.5212511
1.5212953
1.5212969
1.5213447
1.5213432
1.521337
1.5213394
1.5213792
1.5213814
1.5213494
1.5213031
1.5213505
1.5213034
1.521386
1.5213445
1.5213442
1.5213851
1.521633
1.521621
1.5216183
1.5216303
1.5215863
1.5215985
1.5216075
1.5215968
1.5213714
1.5213243
1.5213658
1.5213308
1.521397
1.5213603
1.5213672
1.5214031
1.5214737
1.5214279
1.5214551
1.521449
1.521477
1.521452
1.5214734
1.5214953
1.521635
1.5216182
1.5216173
1.5216338
1.5216303
1.5216173
1.5216174
1.5216301
1.5216165
1.5216162
1.5216281
1.5216277
1.5216312
1.5216158
1.5216153
1.5216296
1.5215787
1.5215949
1.5216022
1.5215881
1.5216123
1.5216153
1.521627
1.5216242
1.5216301
1.5216164
1.5216132
1.5216273
1.5216048
1.5215937
1.5215797
1.5215922
1.5214252
1.5213919
1.521419
1.5213991
1.5214138
1.52144
1.5214463
1.5214209
1.5214943
1.5215097
1.5214739
1.521492
1.521488
1.5215056
1.521508
1.5215229
1.5214614
1.5214354
1.5214551
1.5214426
1.5214735
1.5214506
1.5214577
1.5214795
1.521521
1.5215313
1.5215015
1.5215143
1.5215251
1.5215097
1.5215287