/*--------------------------------*- C++ -*----------------------------------*\
  =========                 |
  \\      /  F ield         | OpenFOAM: The Open Source CFD Toolbox
   \\    /   O peration     | Website:  https://openfoam.org
    \\  /    A nd           | Version:  7
     \\/     M anipulation  |
\*---------------------------------------------------------------------------*/
FoamFile
{
    version     2.0;
    format      ascii;
    class       volScalarField;
    location    "1000";
    object      omega;
}
// * * * * * * * * * * * * * * * * * * * * * * * * * * * * * * * * * * * * * //

dimensions      [0 0 -1 0 0 0 0];

internalField   nonuniform List<scalar> 
33730
(
2156.2546
857.76066
4630.821
4022.2247
1949.003
7821.8019
814.02391
3976.8016
798.73718
683.77347
755.85971
849.54959
2125.4436
839.95894
1254.867
1261.1547
9445.8376
9483.9062
1968.0769
4544.501
18914.934
7546.0145
7722.5403
1900.5548
1878.919
13652.642
13204.179
4528.777
4604.9894
7347.8041
7697.6757
1811.2192
1873.8908
754.71853
681.2422
686.49792
746.14127
1377.991
1550.2058
1366.1565
1558.1925
578.17998
1878.0479
1890.4764
1917.2918
505.62671
508.79153
2082.2494
2108.7456
5074.507
5134.2521
2016.6835
2074.3006
671.45888
666.74528
1973.3137
2015.8802
671.24834
2027.8337
1999.259
666.8995
4552.7088
4632.8708
18884.145
18687.388
4645.6811
4599.1245
18797.669
18920.49
2121.2737
3507.9987
3475.3283
6666.2445
6745.2078
13204.636
13177.286
32995.799
33239.035
4382.4172
13011.897
13013.116
4427.9995
13161.791
13486.229
4494.1152
4546.1325
22068.425
22446.559
8386.0987
8534.049
21227.001
21808.624
8223.504
8247.9545
12414.029
12911.564
4192.9708
4274.573
13249.128
4419.0662
13352.48
4473.9632
2992.173
3335.2371
1145.4281
1007.6015
1910.8695
1892.7462
1873.7336
1893.245
1506.236
1346.5156
1371.2753
1541.3309
1563.5982
1387.066
1381.7266
583.35709
1553.9909
508.7878
1828.2716
1812.6776
1861.2455
1879.6334
3045.0839
3040.4436
3391.4415
1142.3902
3411.1999
4114.9329
4059.214
4326.9581
4268.833
3073.8264
3028.444
3437.6949
3387.2566
1134.4332
4091.6186
4061.9212
4268.6956
4308.477
987.23155
1000.9635
4900.3872
4834.0051
4953.2942
4822.114
4947.571
4898.6461
4876.5474
5361.0862
4857.1362
5297.7014
4798.7707
5321.1004
385.60754
441.03365
711.21577
835.72084
826.95255
698.8317
716.37602
841.41623
4998.7476
4952.8015
5129.7713
5074.9689
9071.2037
9086.7119
9221.0152
9391.9057
4754.1605
4853.9567
4999.0362
5065.4502
551.08378
551.44109
692.36511
683.17281
2129.1874
2179.3933
692.55226
2189.359
2159.8368
685.27582
3502.932
3497.5813
6682.7391
6710.2255
6819.6136
3568.7147
3577.0177
6790.963
13283.847
13266.741
32984.534
32952.671
13142.243
13133.33
32410.477
32771.15
3569.3003
3605.5892
6867.35
6801.2914
3547.847
3541.1345
6794.4644
6737.2828
13194.844
32951.276
32718.509
13279.113
13306.661
13374.861
32963.519
33175.14
2186.961
3983.3049
4019.6055
7330.4478
7414.9332
12540.251
12636.611
18475.667
18665.962
12559.43
12465.953
18648.524
18412.461
29214.399
48309.18
29753.567
48876.344
29794.183
29534.083
48992.222
49040.205
8118.7482
21304.059
21513.94
8070.3283
21402.225
21246.423
8098.3224
8135.6151
21394.008
21694.119
8249.5034
8205.5894
22275.969
22044.539
8375.332
8461.7235
39889.946
39136.34
12083.621
12111.435
39957.293
40424.394
12314.188
12265.646
38200.88
37265.678
11736
11751.548
11923.067
39246.844
38946.765
11867.983
19962.52
20689.342
7653.5976
7698.2706
7913.6899
21241.381
21479.525
8007.2648
21701.309
21972.468
8221.7404
8194.694
8261.7419
21952.16
21887.166
8312.1904
2658.9415
6852.1707
7246.2342
2564.2329
6046.7241
5716.3823
8059.0066
8236.1575
8518.5751
2412.3853
2482.0722
2097.2037
1938.1047
1970.6456
2148.7293
5384.5413
5309.4684
4804.0108
4863.1723
4686.2737
5249.2964
5176.1419
4746.3371
4712.8009
4785.0119
4876.3965
4793.3723
4835.3487
4987.9436
4915.7719
4904.2289
4019.2609
3906.006
3840.3314
4093.6476
3256.9353
2916.467
3028.4971
2979.2291
3331.7029
1145.7882
3391.6689
4065.149
4195.6672
3988.6327
4277.5519
1011.9831
4287.945
4146.2195
4086.8152
4351.2047
3463.7164
3416.1702
3068.8588
3101.5127
1153.567
3065.5303
2992.7232
3329.6225
1157.1991
3408.3193
1013.9133
1017.2185
4065.2113
4266.8806
3975.8416
4176.1778
386.4746
386.11872
443.58985
727.16324
852.70998
846.48893
719.77413
853.29197
724.87834
5077.1916
4963.3167
4495.7778
4589.9999
4603.5246
4614.54
4518.234
4699.2337
4907.4831
4814.6992
4743.3269
4828.6987
5305.7336
4800.5843
5216.947
4726.4718
7208.4726
7480.4959
2593.3805
6255.5906
6029.5421
7114.1908
7263.6143
2599.0614
6058.2473
5959.7775
8352.9715
8531.1454
8522.7088
8682.9922
2414.783
2437.3067
8467.3708
8632.4388
8782.0332
8966.8053
9635.9123
9815.8086
9483.6433
9677.2932
9546.9522
9419.4532
9759.1279
9605.1943
10264.295
9851.9492
10456.702
10207.226
9822.5193
10383.628
9966.6838
7273.8464
7401.9037
2624.8908
6197.201
6088.5428
7198.0642
7379.9684
2581.8373
6174.607
6040.7099
8538.1706
8700.0135
8679.331
8870.0969
8441.9277
8613.82
8656.9395
8823.1862
2405.4796
2446.3599
9566.8137
9425.9353
9931.5514
9789.1765
9463.1994
9336.8235
9602.3643
9449.3718
10114.572
9719.4459
10212.455
9800.6668
10210.69
9810.8862
10596.981
10182.525
1932.3759
1893.8693
2074.0802
2114.7352
1906.269
1952.726
2117.009
2086.2006
10524.671
10651.738
10080.078
10181.065
10706.696
9998.0895
10790.568
10061.463
10544.34
10081.001
10537.796
10589.544
9813.1668
9864.3531
10503.488
10045.882
10888.552
10403.068
10400.023
9940.3665
10468.697
10002.176
10659.495
11023.819
9941.6002
10266.315
10405.69
9576.6317
10724.496
9836.3315
9912.9314
8896.0852
10159.853
9086.9626
10264.71
9439.5205
10305.979
9473.4321
9768.9096
8762.1681
9792.1745
8780.5745
9642.305
10475.225
10520.129
440.01411
619.21084
507.2978
505.99523
616.28993
1029.0319
1064.8199
1247.7053
1209.3461
1429.0659
1481.898
1683.5986
1636.9877
1623.2487
1417.2989
1445.0604
1660.8016
1033.6266
1015.8601
1192.257
1218.808
1066.953
1244.6627
1253.808
1671.6528
1475.5317
1487.7473
1696.6072
8958.882
8990.2193
8991.6269
8914.9929
9262.4732
9358.7027
9134.3666
9069.5576
12431.452
12475.881
12684.958
12589.182
12822.154
12862.453
13103.106
12998.87
8492.69
8558.7108
8793.1156
8900.3623
9118.4554
9059.6657
9159.7887
9204.0665
534.41634
533.4679
504.59631
683.08568
672.25192
2196.3773
4006.2553
4005.5433
2250.2853
4091.2853
4086.9528
681.62523
2254.1447
4073.3809
4133.3249
2230.7442
4062.5464
4057.4279
675.28035
7351.3884
7377.1527
7505.9258
7467.1288
12628.764
12709.447
18570.042
18730.066
12637.971
12530.835
18407.621
18670.931
29321.612
48618.266
29751.411
48918.858
29745.558
48816.414
29466.061
48729.461
12463.366
12549.856
18395.624
18571.113
12502.288
12408.976
18535.542
18311.474
28879.063
29414.866
48122.646
47403.561
48454.115
48556.614
29420.927
29184.51
7552.5066
7466.3591
7476.9585
7410.1314
12569.01
18592.96
18316.443
12453.434
29856.258
29479.351
48392.21
48689.728
29613.264
48480.032
48305.4
29204.365
12700.836
12626.055
18582.228
18716.745
12613.268
12707.015
18573.293
18754.236
12752.802
12677.192
18769.434
18557.767
29416.41
29853.437
48775.467
48438.417
29616.871
48958.785
48922.582
29931.208
3958.3506
3988.5462
2163.3022
4659.4319
4603.1883
6113.618
6079.1324
10301.507
10216.435
15834.628
15627.898
6183.7957
6172.9826
15694.586
10321.496
10420.897
15911.335
18956.256
18915.042
23161.208
23306.007
23574.552
19197.519
19160.875
23449.446
23473.734
19150.758
23543.81
19159.038
18914.01
18839.235
23319.906
23092.621
27358.691
27158.13
41365.873
42452.898
53689.843
65804.642
66461.836
54105.975
43204.326
27649.377
27498.172
42945.449
66696.341
66954.231
54644.774
54596.854
42288.916
27510.548
27617.178
43156.181
43015.133
27423.87
27138.204
42558.334
54642.182
66527.845
67033.818
54967.527
66573.42
66892.066
55069.607
54785.517
38105.927
37939.46
11761.055
11660.868
38449.957
38827.727
11735.673
11679.963
38578.681
38104.624
11730.613
11707.802
37387.915
38450.717
11717.412
11621.309
38125.406
37704.304
11867.162
11809.19
38582.115
38955.345
11903.56
11821.423
40124.781
39458.529
12257.772
12168.597
38989.221
12113.072
12117.301
39725.295
42258.857
41527.563
42384.348
42860.125
40571.728
39549.207
41636.375
41336.429
11029.071
34823.719
35719.434
11031.27
37038.793
37028.624
11263.477
11216.948
37647.792
38386.062
11557.224
11549.495
11685.812
38719.385
38194.016
11622.799
38952.442
38287.457
11903.08
11888.397
39155.35
39456.258
11959.267
11878
38925.784
39446.147
11967.2
12004.509
39413.4
38535.855
12023.279
11924.582
356.577
5449.9856
5356.3017
5515.6398
5636.4412
19445.174
19497.408
17789.033
17890.292
19062.577
19222.148
20856.943
20896.274
5040.9962
4968.1274
5242.6822
5318.8796
19906.91
18571.461
16711.59
18186.263
16622.646
18257.569
17092.507
15806.678
15873.741
17158.13
17976.66
19486.893
17781.404
19623.676
4507.4182
4454.3874
4672.0388
4735.4319
4854.2985
4754.5884
4842.0105
4973.2416
4050.6629
3993.1967
4148.8073
4227.2019
3611.7397
3509.8928
3589.0296
3725.5804
3689.0962
3664.2474
3796.273
3836.7676
4305.5436
4209.5284
4258.4008
4383.7214
10497.878
10694.127
9650.7687
9813.9803
10335.721
9506.1275
10279.516
9453.9855
9841.7948
8822.7232
9775.6264
8765.8396
9986.5797
8946.0046
10137.294
9063.1852
9675.3901
9600.4915
8675.432
8611.6738
10156.072
10236.503
9332.5743
9409.0903
10145.461
9335.676
10089.117
9282.969
9658.1813
9720.6035
8653.0467
8707.0226
10397.919
9689.6707
10369.713
9659.5234
10254.401
10262.988
9801.5701
9799.1245
10347.831
10438.304
9866.0207
9967.2713
10447.261
10537.508
9716.1842
9812.21
10610.457
9879.8126
10572.871
9842.3916
10641.283
10883.103
10162.962
10390.81
10480.925
10009.885
10465.801
9989.3516
10775.35
11003.001
10035.89
10242.608
9441.6052
9049.9618
9641.1667
9219.6576
9156.2361
9409.2317
9009.3595
9254.1511
9081.5057
8912.1819
9757.9177
10021.734
9356.9835
9602.3921
8097.5853
8253.6082
8317.4044
8482.7211
6871.8616
7057.0642
2491.6517
5871.9954
5713.8399
7207.139
7275.6302
2588.8835
6058.0818
6000.9849
7126.2035
7103.5027
2548.4207
5919.6026
5971.9139
8357.8851
8531.9256
8346.3238
8522.3628
2384.1494
2419.223
8477.6536
8646.1168
8555.9657
8754.3898
9580.3917
9431.4178
9702.2803
9571.7363
10101.897
9717.4912
10068.855
9676.1299
9450.3273
9325.1358
9435.9905
9301.8831
10212.43
9803.0609
10361.214
9958.7758
1935.4991
1908.3379
2071.847
2102.7738
10211.548
9798.6984
10224.492
9801.5311
9729.692
9956.6
9578.9085
9811.7122
9566.8064
9426.1132
9611.2635
9455.9242
10367.422
10612.626
9948.1305
10187.551
8626.7176
8783.487
8811.8708
8991.8259
8457.5019
8623.4666
8525.5506
8682.945
7198.9249
7259.6181
2625.5134
6042.5755
6071.165
7354.6923
7509.9771
2646.4599
6294.542
6176.6884
2463.1206
2468.1015
7187.939
7227.8257
2636.2721
6037.591
6010.2526
7049.5033
7119.1392
2568.7266
5943.8768
5904.8305
8278.9892
8440.3148
8362.3782
8525.7524
2414.1514
2480.3726
8444.5804
8598.2226
8480.4463
8664.7366
2137.0953
1968.7419
1955.883
2136.3535
2001.6584
1940.8289
2100.5112
2163.841
9519.3416
9352.2852
9583.0466
9439.073
10111.261
9686.1618
10193.845
9787.8374
9351.6088
9210.0313
9431.6835
9276.9661
9972.0477
9580.7332
10023.088
9615.7487
446.52991
634.49818
514.36495
447.72303
510.22095
628.51202
632.37335
512.32651
1235.6824
1057.6341
1256.9038
1070.5958
1649.291
1460.6813
1482.5837
1677.0201
1696.0184
1491.4709
1469.6967
1681.773
1257.5923
1072.4306
1244.062
1058.5442
1676.9514
1483.1845
1526.2591
1732.9255
1253.141
1071.8403
1289.6682
1092.5701
9913.4096
9118.3341
10113.727
9278.442
9545.731
8789.8699
9676.2556
8888.2987
9112.5829
9208.4716
8189.1216
8254.7826
9452.3842
9608.7123
8475.9715
8595.5272
9676.7705
9854.1792
9233.9838
9385.9074
10157.43
9459.4378
10393.564
9663.8577
9788.231
9113.9527
9948.9059
9246.1311
10017.504
10274.325
9566.3375
9796.7207
10492.998
10645.542
10025.984
10171.443
10404.728
10349.748
9956.9232
9897.0209
10569.005
10497.1
9856.7872
9787.4967
10639.674
10777.845
9908.9826
10036.645
10375.748
9533.4927
10491.472
9630.2319
9869.9825
8840.0632
9953.8489
8906.6121
10320.987
9486.6142
10242.221
9419.1456
9821.5339
9748.3397
8801.8952
8743.14
20504.237
20518.233
18789.853
18837.641
19316.285
19398.502
21017.584
21011.66
5313.9572
5227.9728
5373.7403
5488.287
20021.121
19571.013
19734.454
19787.211
18159.698
18246.309
18990.011
19090.988
20768.324
20780.7
5249.2762
5160.5067
5246.8728
5333.6034
19839.896
18810.064
18599.357
18649.049
17134.827
17082.524
17592.205
17618.15
16323.541
16350.34
17812.209
19395.484
17702.392
19460.51
16794.26
18186.42
18264.454
16890.745
4723.059
4640.6134
4723.549
4838.3668
4660.3805
4585.1498
4666.286
4740.7599
17607.128
19206.215
17575.063
19222.274
16723.345
18071.461
18078.04
16725.227
18222.227
19767.936
18125.881
19806.718
17296.761
18661.307
18726.225
17389.431
17406.989
16433.961
16403.529
17361.292
17542.008
17553.656
16602.901
16618.016
16023.57
17011.023
16082.708
16945.075
17168.881
16268.865
17194.671
16270.92
16139.856
17149.483
16247.593
17051.383
16845.766
15973.486
15816.906
16689.416
16769.236
17605.106
16624.498
17734.917
17206.832
16267.287
17329.133
16398.451
16650.032
15973.112
15893.873
16557.653
15761.909
16474.974
16580.8
15680.247
16842.558
16799.911
16163.385
16136.907
15735.419
16559.977
15922.033
16360.327
15754.254
16543.787
16321.489
15556.884
16950.029
16273.615
16835.89
16153.404
15932.631
16761.571
16868.395
16051.196
20736.936
20729.498
19001.172
19034.692
18968.926
19021.644
20612.205
20582.001
5368.0077
5276.7074
5339.7577
5452.3401
19589.36
19780.439
20212.707
20217.796
18561.697
18586.735
19256.057
19391.149
21042.059
21072.873
5316.6004
5226.0978
5332.0551
5428.1574
20100.305
19282.455
19417.306
19411.336
17759.785
17775.033
18240.732
16883.276
16873.87
18256.761
19424.761
19415.338
17858.679
17817.684
18350.41
18343.086
17003.889
17036.798
17396.865
18978.987
17406.49
18962.895
17909.894
16608.375
16558.868
17862.656
18137.956
19675.741
17981.941
19780.667
18483.571
17078.542
18614.289
17234.224
4720.1467
4635.9399
4719.9367
4807.596
4717.2251
4688.6692
4773.4723
4825.3376
16278.009
17242.837
16294.075
17220.375
16874.273
15965.992
15930.895
16833.827
17919.528
16983.567
17848.27
16886.535
17496.125
16562.467
17576.667
16667.25
15964.382
16847.545
15954.274
16852.253
16521.017
16513.564
15648.971
15644.561
16411.955
17300.61
16324.643
17371.205
15962.014
16890.186
16955.897
16042.215
15531.024
16191.091
15541.367
16172.71
16105.776
16088.406
15320.08
15315.852
16572.619
15896.588
16508.465
15822.758
15582.703
16401.597
16461.936
15658.463
15810.529
16531.021
15860.808
16472.778
15651.738
16457.171
16389.668
15599.808
17244.696
16571.961
17151.401
16463.292
16246.738
17082.054
17183.184
16365.406
3591.6694
3591.2101
3732.543
3740.1436
3590.6217
3541.9781
3666.1092
3727.0076
4184.8451
4081.7301
4158.9095
4259.4986
4245.95
4147.8461
4153.3488
4268.7161
3549.9708
3562.1154
3694.7198
3705.2417
3596.0541
3576.5733
3691.1567
3720.3544
4128.0135
4076.6216
4159.0938
4216.9487
4197.9404
4102.6561
4128.2763
4255.557
15525.777
16335.116
15720.651
16109.875
16502.151
16606.659
15866.004
15973.788
16316.924
15543.163
16100.622
15367.534
16549.486
15663.785
15770.631
16456.142
16064.197
15873.406
15199.281
15344.783
15733.975
14699.267
14575.721
15588.508
15543.4
16186.22
15467.526
16275.351
15872.597
15924.446
14802.254
14878.198
15619.021
16329.19
15694.716
16229.726
16282.955
15504.965
15489.516
14788.791
14800.29
15499.562
15813.782
15775.481
15066.025
15099.796
14158.802
15125.145
14180.766
15140.042
15445.517
14431.967
15437.509
14399.758
16209.333
16149.211
15582.458
15544.037
16113.417
15363.019
16155.774
15385.127
16296.813
16826.022
16181.451
16937.567
16775.153
15968.761
16078.851
16882.677
15242.565
15848.64
15239.789
15839.85
15777.728
15022.235
15037.292
15782.176
15559.466
16125.853
15496.423
16187.971
16057.019
15284.156
16107.801
15346.516
15889.626
15174.874
15167.537
15865.262
16490.239
15746.807
16583.638
15830.426
14534.056
15549.785
14540.698
15552.389
16194.947
16137.787
15041.213
15123.8
14771.719
13981.718
14744.495
13949.983
14163.275
13255.292
14205.51
13292.469
15317.827
15250.453
14393.504
14456.782
14649.667
13677.179
14595.295
13621.272
13481.611
12756.389
13436.125
12721.035
12928.452
12250.323
12266.146
12958.312
13793.601
13031.22
13838.038
13069.638
13253.274
12497.742
13228.48
12508.36
14418.184
14363.827
13673.201
13620.594
13839.915
12968.991
13905.749
13024.817
14613.602
13821.242
13827.111
14621.863
13130.338
14038.246
13124.092
14033.925
13219.162
13151.567
12512.04
12457.907
12650.731
11961.362
12703.242
11958.89
13306.724
12583.994
12580.65
13301.115
12066.682
12786.366
12102.032
12771.859
13445.281
14379.027
14234.074
13332.111
14140.935
14940.574
14794.106
14014.071
15025.11
14189.252
15081.286
429.41493
582.81271
578.83466
940.50702
717.68669
709.52932
922.658
909.66018
923.98916
696.52839
704.4313
950.76863
724.356
1321.1786
1316.9482
1564.3
1559.19
1381.836
1412.8131
1675.2936
1632.9628
1938.1518
1999.0544
2246.1417
2191.8201
2128.3032
1869.2516
1854.632
2112.1861
2432.6247
2456.5021
2676.1023
2653.869
2518.9196
2566.8571
2761.4212
2728.652
3080.5499
3097.821
3236.7691
3234.7573
3196.0294
3027.9567
3004.344
3182.5279
3176.8973
3025.7947
3029.1496
3206.9177
2664.5873
2441.4728
2428.818
2661.5206
2494.2233
2459.1257
2686.517
2711.3566
3220.2297
3050.0611
3062.7927
3231.2699
1332.2774
1325.1892
1565.6349
1592.3722
1291.0388
1297.8055
1542.0443
1531.6455
2111.4219
1846.466
1827.7884
2096.8322
2131.9964
1871.0312
1903.5201
2170.3659
1364.4675
1374.5716
1627.9989
1617.765
2194.3003
1943.3972
1924.1746
2180.4512
2210.0794
1950.2067
1982.6054
2253.9442
3169.6718
3042.615
3058.6924
3219.9808
2705.7792
2513.9772
2504.1959
2712.6935
2590.5086
2558.5432
2774.0717
2805.0832
3296.0281
3133.6334
3161.0952
3325.2842
12444.139
12431.101
12452.685
12305.744
12472.122
12374.13
12489.822
12382.872
12850.228
12872.489
13049.741
12901.156
12565.692
12523.795
12657.824
12532.021
11630.367
11676.848
11954.495
11875.74
12239.073
12262.906
12422.969
12320.788
12610.543
12631.561
12722.937
12590.809
12728.848
12698.121
12781.78
12623.918
509.07026
693.1917
705.79429
508.54003
695.305
705.32876
469.77397
688.78239
687.17778
669.34726
672.43413
2173.3636
3981.5427
3979.3355
4644.862
4635.0478
2226.8963
4066.8794
4066.3738
4737.1799
4730.5527
4111.378
4041.5668
2224.6751
4784.8361
4693.541
4037.635
4034.217
2210.4284
4701.9906
4705.3525
6152.851
6112.1408
10308.164
10234.564
15765.058
15557.715
6161.2545
6138.473
10250.224
10366.735
15608.312
15819.702
6275.8745
6258.8862
10424.448
10514.993
15809.712
15988.659
6255.1259
6230.6634
10456.529
10349.222
15909.657
15668.435
19067.658
19022.302
23272.337
23432.258
19222.408
19269.939
23655.768
23516.134
18913.69
18832.717
23287.015
23059.092
19190.023
19194.013
23509.22
23561.602
27512.208
27282.244
42060.505
42891.962
53693.06
66203.398
66350.215
54130.879
27580.926
27748.675
43654.82
43520.091
66690.31
66791.068
54372.588
54412.202
27569.593
27641.027
43522.393
43285.511
66832.44
66843.028
54455.079
54209.116
43459.362
27386.252
27082.033
42472.177
54262.427
66851.504
65984.153
54061.013
18849.73
18818.774
23078.803
23216.099
19052.696
19093.111
23476.831
23353.121
19042.003
19039.29
23357.93
23430.992
18801.143
23182.642
18736.41
22995.033
27295.139
27100.4
41962.469
41323.515
27409.603
27560.176
42343.218
42671.497
66202.679
53199.385
53300.66
66100.689
65715.854
65532.084
51911.366
52470.006
66349.006
66591.423
54123.226
53713.023
54033.803
66431.206
65777.958
53889.975
27531.716
27415.765
42806.12
42348.384
27053.373
27276.113
42004.24
42537.276
6337.9841
6295.1384
10493.92
10548.834
16023.995
15846.515
6223.9566
6208.3486
10456.414
10357.767
15778.109
15995.707
6243.3409
6219.9782
10495.541
10397.439
15985.209
15813.126
6209.789
6189.9301
10401.809
15574.888
15837.732
10274.239
19124.263
19124.154
23484.953
23419.562
23191.49
18823.981
18746.652
22978.396
27685.349
27529.871
43448.228
43199.416
42138.114
27274.706
27463.241
42793.377
53715.806
66129.623
66224.471
54014.379
54408.603
66520.625
66687.583
54394.521
27435.38
27542.691
43176.283
42449.249
54205.152
66419.359
66759.059
54338.083
54248.687
66421.857
66135.64
53733.01
27265.389
27003.148
42126.968
42372.051
23293.872
19052.575
19086.819
23428.813
23638.056
19274.517
19229.074
23500.12
19061.229
19009.641
23255.846
23430.688
19297.673
19256.256
23678.607
23551.321
23577.602
19300.623
19298.245
23634.542
19011.598
19090.507
23430.404
23211.798
42264.503
27246.409
27491.679
42970.972
27593.195
27732.092
43411.847
43533.454
66693.12
54353.163
54322.908
66458.335
53513.894
66183.607
66261.568
53879.383
27479.397
27198.838
42589.018
43295.156
66899.917
67007.083
54730.193
54397.871
54865.572
66675.711
66067.035
54643.079
27677.458
27595.774
43603.047
43316.053
6942.6273
6973.9856
7054.0011
7069.2002
1983.6515
5081.0431
5002.136
4466.7433
4514.0154
7007.3809
8049.8985
8020.5821
7032.8713
7888.3736
7928.3496
6937.5787
6894.1436
1982.1629
5057.4659
11204.298
16716.846
11116.543
16481.322
21567.077
21464.821
21284.297
21112.345
21178.001
16564.402
21331.872
11228.867
16782.985
11337.453
21578.069
21471.255
25091.438
25304.693
25584.263
25396.564
25421.564
25554.559
25326.726
25024.613
29505.429
29244.404
56801.014
58393.111
59236.416
97569.074
97554.275
59498.649
59553.533
29827.021
29589.914
58960.266
97656.373
98740.715
59860.258
59734.902
58219.512
29606.992
29766.57
59492.251
59634.316
29588.577
29209.975
58441.734
59841.395
98183.982
97730.052
59905.379
97721.187
98929.652
59946.551
59669.84
350.97456
419.1557
40442.299
40268.179
40786.157
41202.851
40931.869
40406.68
39689.379
40812.015
40404.811
39992.28
40933.556
41286.381
42571.863
41858.526
41333.078
42097.426
75570.538
37171.691
74789.773
36501.798
75319.832
37526.893
75991.596
37924.78
73879.436
35574.352
72544.295
34657.926
75043.113
36626.75
74657.005
36356.092
36918.874
37910.426
39336.712
39292.136
39885.931
40699.87
41086.711
40544.989
41267.025
40614.677
41452.777
41757.918
41211.727
41774.801
41806.589
40843.946
18268.478
17083.04
17197.626
18430.282
29610.54
36060.283
25959.355
26380.58
26287.956
26670.185
28432.643
28554.673
28120.462
28245.769
17070.647
16023.977
17026.478
18214.678
30107.709
29931.075
36364.071
36658.664
27593.786
26668.968
32739.923
33876.492
27862.556
26830.635
27485.92
27201.06
28191.967
28885.595
29257.999
28567.435
29927.73
29033.561
29764.345
29172.668
30544.71
15045.997
14098.855
14815.618
15900.694
14939.936
14902.641
15969.775
16037.988
15132.954
14179.519
10776.045
11586.254
13277.886
12408.923
13203.84
12332.564
12764.004
13777.771
11508.628
10690.27
10843.091
11797.543
11056.313
11036.747
11965.174
11964.685
13889.13
12907.134
12904.591
13899.868
14892.044
14092.945
14062.95
14866.669
15212.7
15213.377
14367.428
14375.645
13354.535
14315.816
13389.637
14278.81
14576.685
13617.339
14578.243
13607.436
13684.069
14602.598
13845.173
14416.886
14087.036
13188.002
13039.75
13912.45
13765.262
14572.912
13796.186
14531.676
14024.583
13115.668
13985.093
13093.337
12533.774
13387.517
12665.419
13226.557
12092.719
12858.292
12726.472
12021.845
13270.817
12559.293
13304.357
12584.047
12086.681
12784.855
12748.364
12037.045
13576.546
12843.005
12807.87
13534.901
12305.239
13007.325
13036.016
12310.76
13783.609
13780.714
13020.268
13020.899
12473.448
13196.683
12432.446
13212.626
13243.399
12527.112
12363.881
13045.729
13093.027
13097.524
12389.916
12390.437
11867.718
12734.334
11982.033
12559.801
12586.772
11888.309
12599.569
11918.882
14373.715
13620.557
13572.147
14326.656
14382.868
14431.82
13673.384
13645.506
12911
13856.738
12967.191
13794.025
13864.419
12984.148
13902.23
13000.295
13484.036
14421.025
13670.588
14205.527
13923.219
13032.925
12857.894
13714.847
13574.767
14336.171
13569.01
14339.879
13798.53
12906.478
13793.417
12915.449
13164.515
12452.143
12394.749
13095.288
13187.277
12467.858
13158.486
12450.275
11902.496
12651.36
11927.691
12593.361
12629.555
11890.824
12661.822
11938.273
14600.866
15475.103
14776.97
15274.411
15138.483
14170.13
13991.85
14950.166
14771.048
15430.655
14745.675
15476.934
15119.334
14114.042
15117.778
14143.882
15809.182
15194.583
15024.881
15613.952
15794.89
15171.428
15263.432
15882.38
15751.766
14989.859
14816.673
15554.889
15714.997
14952.866
15025.693
15791.565
15908.456
15260.83
15240.073
15870.255
15872.456
15949.619
15320.842
15270.011
15795.231
15012.897
14993.334
15766.054
15778.184
15857.467
15084.417
15031.299
15481.823
14769.166
14751.145
15452.981
15462.216
15550.482
14841.755
14778.35
14138.505
14119.998
15113.839
15099.443
15102.171
15186.548
14200.803
14173.337
14823.576
15698.368
14986.61
15507.809
15332.6
14358.643
14199.79
15171.412
15691.428
14986.001
15713.618
15007.855
15374.584
14349.906
15330.376
14333.721
16421.848
15775.001
15704.84
16336.277
16768.031
16126.15
16185.69
16825.213
15495.973
16341.488
15548.13
16266.93
15943.008
16712.905
15909.106
16750.024
15260.562
16072.951
15446.664
15869.343
15997.274
15222.665
15044.851
15793.736
15480.106
16100.468
15465.495
16114.878
16017.162
15235.099
16013.303
15238.073
16045.083
15320.825
15300.656
15998.741
16424.198
15690.026
16431.601
15696.331
14665.381
14659.554
15692.574
15691.285
16059.882
16083.798
14999.474
15017.129
14378.804
14441.351
15005.367
14949.194
14191.098
14135.393
14884.724
15630.61
14969.548
15566.905
14896.466
15431.922
14632.427
15511.386
14719.302
16557.046
15626.489
15538.971
16463.35
16949.767
16915.002
15977.126
16024.806
15180.573
16172.772
15287.788
16067.07
16580.709
15687.103
16539.018
15633.597
14523.835
15508.933
16456.703
15975.099
15058.902
16026.107
15125.819
15817.644
15168.334
15050.23
15694.071
16174.017
15511.661
16223.925
15567.807
14950.371
14834.389
15733.461
15605.818
16142.073
16086.71
15283.461
15347.796
18471.3
18430.12
16898.437
16849.991
17306.76
16059.587
15982.684
17371.408
18809.862
18824.827
17272.86
17228.449
17728.634
17756.828
16395.419
16444.471
19670.327
19670.979
18052.617
18043.077
18362.971
18410.943
19979.134
19978.007
5029.7194
4943.4293
5050.144
5149.9928
19007.951
18730.452
20670.713
20674.979
18955.928
18967.305
18793.711
18825.715
20406.367
20386.228
5282.7853
5188.4471
5199.4452
5318.3726
19389.105
19718.579
19924.259
19917.428
18354.189
18324.235
18493.969
18584.744
20143.786
20174.641
5256.1262
5165.968
5105.0914
5204.5531
19201.416
18982.18
18772.932
18705.437
17164.234
17250.416
17746.132
17635.563
16473.925
16355.02
17406.979
18907.706
17309.726
18975.034
16480.182
17798.797
17879.605
16566.863
4669.1438
4582.6245
4524.2469
4609.767
4584.2979
4610.4419
4693.3409
4694.9831
17708.907
19369.413
17721.759
19351.136
16846.122
18214.05
18182.02
16805.438
17687.192
19243.963
17657.735
19228.676
16869.209
18186.472
18181.722
16881.234
16334.07
17354.704
16385.039
17298.619
16956.197
16031.412
15969.615
16890.308
17393.181
16476.885
17408.087
16471.881
17065.953
16157.535
17044.919
16154.806
15581.856
16382.969
15749.092
16206.604
15563.972
16343.997
16160.153
15392.989
16366.554
15718.144
16302.033
15645.521
15437.967
16228.818
16297.055
15515.002
15961.401
16991.352
16101.998
16850.843
16677.742
16518.127
15817.603
15660.154
16142.431
16986.906
16058.561
17060.315
15746.04
16627.033
16700.272
15822.713
15830.659
16587.54
15903.771
16509.504
15677.642
16493.864
16409.45
15603.272
16698.8
16035.381
16726.314
16051.601
15835.47
16648.155
16608.174
15810.371
3503.6224
3564.8675
3690.7576
3639.9889
3474.3446
3540.9098
3658.739
3603.5965
4004.7615
4058.5875
4148.1212
4095.5198
4178.4609
4086.6436
4032.8769
4147.4238
15600.247
16438.875
15772.919
16260.089
16350.02
15536.238
15355.718
16152.136
16542.478
15861.265
16510.088
15824.464
16398.562
15568.934
16422.56
15601.831
17532.487
16565.087
16510.324
17465.264
17865.344
17808.336
16852.577
16930.923
16147.605
17146.843
16219.879
17069.511
17516.23
16605.422
17453.864
16525.817
16085.512
17127.991
16201.745
17013.89
16778.59
15880.339
15734.156
16630.109
16398.977
17306.984
16330.378
17362.893
16896.215
15961.905
16944.653
16015.861
16782.927
16102.317
16021.753
16691.76
17104.576
16423.621
17168.872
16496.857
15868.613
15793.827
16697.611
16605.849
17094.07
17033.719
16198.973
16273.405
19488.577
19464.721
17859.259
17841.494
18325.4
17000.395
16956.457
18366.336
19698.393
19721.87
18152.361
18082.902
18616.655
18661.412
17252.197
17331.389
17343.697
18947.699
17385.504
18901.551
17903.268
16587.285
16510.232
17829.087
17779.047
19364.492
17690.255
19417.354
18185.372
16787.152
18249.472
16867.868
20096.383
20100.167
18481.709
18481.554
18922.693
19010.335
20667.103
20686.111
5265.1384
5239.4199
5318.3013
5347.342
19134.446
19715.813
20733.322
20733.166
19042.815
19056.637
19218.477
19287.303
20861.684
20855.82
5446.1149
5354.3814
5410.2323
5528.7455
19840.099
19767.534
4740.0253
4673.3017
4686.9499
4757.0487
4764.3446
4751.5631
4839.9257
4878.9098
20685.981
20695.306
18917.377
18962.813
18631.37
18673.032
20283.254
20253.636
5319.2021
5254.087
5244.0463
5335.1072
19274.331
19729.104
20054.134
20054.336
18376.855
18385.537
18660.47
18778.442
20392.893
20422.11
5212.2841
5143.9162
5164.4084
5243.9285
19435.555
19119.527
18793.333
18755.261
17154.242
17193.193
17682.805
17609.235
16348.685
16276.593
17552.766
19081.802
17418.945
19169.994
16530.924
17909.87
18019.908
16657.788
4662.5757
4600.812
4605.2014
4674.5933
4678.66
4709.8066
4771.2662
4760.4505
17682.475
19335.372
17653.061
19344.225
16744.208
18145.569
18150.581
16750.739
17491.387
19070.675
17457.911
19051.627
16627.66
17968.557
17955.431
16640.315
4236.537
4166.707
4165.0331
4242.7978
3762.1583
3659.2907
3636.3757
3750.1617
3639.4581
3661.8118
3792.9246
3778.1052
4301.9329
4205.7355
4189.8458
4305.629
3693.2354
3711.1488
3820.4795
3798.8958
3609.2155
3603.1505
3701.4426
3708.7211
4172.0689
4096.4729
4105.101
4178.7265
4286.1674
4218.586
4183.3081
4262.3947
16238.947
17240.805
16242.108
17227.445
16791.334
15836.733
15821.839
16769.724
17112.832
16181.229
17138.992
16183.639
16744.637
15821.474
16704.309
15805.767
15632.362
16364.456
15659.185
16330.794
15388.435
16219.729
16178.783
15363.017
16304.222
15637.802
16355.448
15672.563
15425.904
16235.772
16167.697
15383.798
15817.577
16853.924
15920.81