/*--------------------------------*- C++ -*----------------------------------*\
  =========                 |
  \\      /  F ield         | OpenFOAM: The Open Source CFD Toolbox
   \\    /   O peration     | Website:  https://openfoam.org
    \\  /    A nd           | Version:  7
     \\/     M anipulation  |
\*---------------------------------------------------------------------------*/
FoamFile
{
    version     2.0;
    format      ascii;
    class       volVectorField;
    location    "1000";
    object      UMean;
}
// * * * * * * * * * * * * * * * * * * * * * * * * * * * * * * * * * * * * * //

dimensions      [0 1 -1 0 0 0 0];

internalField   nonuniform List<vector> 
33730
(
(-1.1689617e+45 -1.1072806e+44 1.1822486e+44)
(-1.1537491e+45 -2.9539848e+41 7.6420617e+43)
(-1.0741724e+45 -1.6793046e+44 3.1222586e+42)
(-1.0609796e+45 -4.9547459e+43 1.520804e+44)
(-1.1011915e+45 -2.7608667e+42 1.2045713e+44)
(-8.9704943e+44 -3.4868168e+43 1.0817494e+44)
(-1.1742688e+45 -3.429412e+43 1.3100585e+44)
(-1.0790578e+45 -9.0412354e+43 1.4763456e+44)
(-1.1648672e+45 -2.3096331e+43 1.2695174e+44)
(-1.1544737e+45 5.591771e+42 -3.0993463e+43)
(-1.2146241e+45 4.3869771e+42 4.0082117e+43)
(-1.1567068e+45 -2.0619159e+43 8.6695742e+43)
(-1.0463418e+45 5.7451995e+42 7.6555681e+43)
(-1.1458461e+45 -8.2099895e+42 8.3198197e+43)
(-1.0421768e+45 -5.7036874e+43 -1.1810935e+44)
(-1.0261505e+45 -1.978266e+43 -1.1459854e+44)
(-8.3854316e+44 -1.3039248e+44 -1.5230918e+42)
(-8.1790586e+44 -5.8340528e+43 -4.1308527e+42)
(-9.8080917e+44 -9.5778106e+42 -1.139905e+44)
(-8.0287578e+44 -2.035014e+43 -1.493502e+44)
(-6.0626907e+44 -7.0051027e+43 -3.1283734e+41)
(-8.9693769e+44 -3.1618236e+43 1.2232543e+44)
(-9.0453026e+44 -3.8148495e+43 1.153264e+44)
(-1.1102167e+45 -7.1793133e+42 1.3170154e+44)
(-1.1015443e+45 -3.1175806e+43 1.3494397e+44)
(-7.4723823e+44 -1.6964103e+43 8.3937624e+43)
(-7.5645474e+44 -2.2589369e+43 8.9170554e+43)
(-9.6366235e+44 -1.2677519e+42 1.0670645e+44)
(-9.6098966e+44 -1.4910018e+43 1.0320466e+44)
(-9.056913e+44 -5.0097811e+43 1.1620951e+44)
(-8.8545965e+44 -3.3622673e+43 1.1278792e+44)
(-1.0964096e+45 -1.1093469e+43 1.2848049e+44)
(-1.0800525e+45 -2.5801551e+43 1.2173154e+44)
(-1.2139982e+45 -1.9148714e+43 4.5492747e+43)
(-1.1542619e+45 1.6448162e+42 -2.6889175e+43)
(-1.1497813e+45 -3.7173852e+42 -2.9339857e+43)
(-1.2004994e+45 -1.7695003e+42 4.3264727e+43)
(-1.04585e+45 4.128384e+42 -5.0460787e+43)
(-1.0829194e+45 -4.9740769e+42 -2.3447416e+43)
(-1.0548631e+45 -4.2701395e+41 -5.1736215e+43)
(-1.0755686e+45 4.6056569e+42 -2.311235e+43)
(-1.1689682e+45 1.3692936e+43 -2.703917e+43)
(-1.064929e+45 -5.9844819e+42 -2.8316123e+42)
(-1.0616294e+45 2.6293245e+42 -2.8485501e+42)
(-1.0956834e+45 5.2772812e+42 5.7210079e+43)
(-1.0615831e+45 1.6549314e+43 -6.1890617e+43)
(-1.0610508e+45 7.5639251e+42 -6.254164e+43)
(-1.0502108e+45 -1.6447853e+43 8.5451852e+43)
(-1.0568637e+45 1.5808614e+42 8.3030891e+43)
(-9.1303735e+44 3.1161241e+42 7.305429e+43)
(-9.136301e+44 -1.1798939e+43 7.0383564e+43)
(-1.0437063e+45 2.5197799e+41 8.5350528e+43)
(-1.0359571e+45 -1.637029e+43 8.2309624e+43)
(-1.010225e+45 -5.5346037e+42 -1.0095186e+44)
(-1.0176106e+45 5.6200417e+42 -1.0361618e+44)
(-9.6607774e+44 -1.2850946e+43 -1.1425503e+44)
(-9.6294199e+44 -4.8519979e+42 -1.1210271e+44)
(-1.0203689e+45 7.8916752e+42 -1.0268331e+44)
(-9.734806e+44 -8.6649475e+42 -1.1084325e+44)
(-9.6782053e+44 -7.5882306e+42 -1.1381468e+44)
(-1.0117469e+45 -8.8258503e+42 -1.003782e+44)
(-7.9076271e+44 -2.4683133e+43 -1.4581894e+44)
(-7.8276768e+44 -6.4400697e+42 -1.449087e+44)
(-5.8798732e+44 -3.8557467e+43 -2.1473426e+42)
(-5.9701999e+44 -8.2371285e+43 -1.5032041e+42)
(-7.9449025e+44 -1.8525475e+43 -1.4622498e+44)
(-7.8560743e+44 -9.1505828e+42 -1.472288e+44)
(-5.941214e+44 -3.6558626e+43 3.2780961e+42)
(-6.0517016e+44 -7.2016752e+43 5.2267551e+42)
(-1.0364576e+45 -3.6127016e+41 -1.3090078e+44)
(-8.3919662e+44 8.9872655e+42 -1.3576613e+44)
(-8.3768268e+44 1.1212562e+42 -1.35135e+44)
(-7.0367848e+44 -3.9880622e+42 -1.5818245e+44)
(-7.0498444e+44 -5.3641316e+42 -1.5867627e+44)
(-4.8857929e+44 -1.477214e+43 -1.4232284e+44)
(-4.8710519e+44 -5.6636609e+42 -1.4092734e+44)
(-4.2162505e+44 -4.3543937e+43 3.0370363e+43)
(-4.1713424e+44 -1.4509837e+43 3.0386773e+43)
(-9.7243976e+44 -6.5684122e+42 1.165682e+44)
(-7.6333963e+44 -2.226955e+43 9.4750663e+43)
(-7.5493305e+44 -2.00972e+43 9.6632632e+43)
(-9.6162841e+44 -2.2432705e+43 1.1544803e+44)
(-7.6223856e+44 -2.5821565e+43 9.3968482e+43)
(-7.5389746e+44 -2.0060955e+43 9.1152029e+43)
(-9.6873551e+44 -3.6134595e+42 1.1163619e+44)
(-9.6627632e+44 -1.8118796e+43 1.0950871e+44)
(-6.5294967e+44 -1.6216804e+43 8.2631954e+43)
(-6.4748549e+44 -1.2225313e+43 8.4002149e+43)
(-8.2989262e+44 -6.5557433e+42 9.7843145e+43)
(-8.2601259e+44 -1.6134916e+43 9.8575266e+43)
(-6.5608316e+44 -1.8757083e+43 8.760347e+43)
(-6.515873e+44 -1.5618088e+43 8.4212133e+43)
(-8.2929228e+44 -4.1286698e+42 1.0202538e+44)
(-8.2889799e+44 -1.2675108e+43 9.9582734e+43)
(-7.621793e+44 -3.1449854e+43 9.367774e+43)
(-7.5727137e+44 -2.6615273e+43 9.3033677e+43)
(-9.6278909e+44 -7.4912467e+42 1.1194078e+44)
(-9.6138463e+44 -2.0612391e+43 1.1102632e+44)
(-7.5729255e+44 -2.7124278e+43 8.9663283e+43)
(-9.5522394e+44 -8.2459453e+42 1.0799003e+44)
(-7.4985735e+44 -2.2441423e+43 9.3331063e+43)
(-9.4856146e+44 -2.2709862e+43 1.0897632e+44)
(-9.177688e+44 2.4889254e+42 -4.2631674e+43)
(-9.2682065e+44 3.8158623e+42 -3.5721598e+43)
(-1.0605566e+45 7.083406e+42 -5.146497e+43)
(-1.0287828e+45 9.2272171e+42 -7.3200284e+43)
(-1.1086532e+45 -1.461325e+41 6.2323697e+43)
(-1.0967022e+45 -1.489796e+43 6.337392e+43)
(-1.0635993e+45 -7.1475584e+42 4.1074361e+41)
(-1.06711e+45 -1.3584944e+42 -3.019244e+42)
(-1.068073e+45 1.0188583e+42 -1.657887e+43)
(-1.0370427e+45 1.3841058e+42 -4.3154338e+43)
(-1.0266624e+45 -2.0619707e+42 -4.6891879e+43)
(-1.0603815e+45 -8.1547674e+42 -1.835055e+43)
(-1.0803502e+45 1.2140832e+42 -2.2772281e+43)
(-1.0528399e+45 1.8658082e+42 -5.1538178e+43)
(-1.0496907e+45 -1.1479941e+42 -4.673767e+43)
(-1.1695542e+45 -2.4157866e+42 -2.7300699e+43)
(-1.073427e+45 -6.6425678e+42 -2.011337e+43)
(-1.0538635e+45 8.8045716e+42 -6.3573124e+43)
(-1.091337e+45 3.6146088e+41 6.3308303e+43)
(-1.0547346e+45 -2.068066e+42 3.7074024e+42)
(-1.0469386e+45 -1.0198097e+43 1.3595947e+42)
(-1.0809232e+45 -1.5660056e+43 6.0325895e+43)
(-9.172374e+44 3.7137903e+42 -4.5516263e+43)
(-9.1453353e+44 6.3826449e+41 -4.4843202e+43)
(-9.2390413e+44 1.2563308e+42 -3.7023302e+43)
(-1.0584133e+45 7.13379e+42 -5.1923825e+43)
(-9.2602261e+44 1.3099865e+42 -3.7628622e+43)
(-9.0812285e+44 1.3525366e+42 -3.7915135e+43)
(-9.1206151e+44 7.2486408e+41 -3.8841901e+43)
(-9.2038267e+44 -7.5728809e+41 -2.3690594e+43)
(-9.2557717e+44 1.905162e+42 -2.4407149e+43)
(-9.1915252e+44 3.366971e+42 -4.659606e+43)
(-9.2440713e+44 9.1563253e+41 -4.6342881e+43)
(-9.2727069e+44 9.6916004e+41 -3.8067908e+43)
(-9.3190584e+44 1.7392541e+42 -3.872391e+43)
(-1.0762399e+45 -8.8612881e+41 -5.2153645e+43)
(-9.0606925e+44 9.2641854e+41 -3.7833319e+43)
(-9.0482102e+44 -2.7535156e+41 -3.7248857e+43)
(-9.1766975e+44 1.3210041e+42 -2.3772592e+43)
(-9.1859032e+44 -9.8976098e+41 -2.4574862e+43)
(-1.040365e+45 1.1836474e+42 -7.7037682e+43)
(-1.0344623e+45 9.1229143e+42 -7.170132e+43)
(-9.1277063e+44 1.4289678e+42 -1.9455933e+43)
(-9.4435622e+44 2.0583745e+42 7.5570762e+42)
(-9.0865692e+44 -1.4874329e+42 -1.8341514e+43)
(-9.3687588e+44 2.1284945e+42 9.323664e+42)
(-9.0736399e+44 -2.3024208e+42 -1.8880354e+43)
(-9.056602e+44 6.1002779e+41 -1.8060702e+43)
(-9.3679036e+44 -5.733098e+42 7.8951009e+42)
(-9.2502799e+44 -7.9233544e+42 2.7743728e+43)
(-9.6322767e+44 -1.0631083e+43 7.1090915e+43)
(-9.2419903e+44 1.196945e+42 2.9403825e+43)
(-9.6256332e+44 3.494515e+42 7.2842228e+43)
(-9.3085475e+44 2.3642668e+42 2.6215133e+43)
(-1.0319937e+45 2.5242963e+43 -1.1469337e+44)
(-1.1616505e+45 2.2114077e+43 -4.3579288e+43)
(-9.7893052e+44 1.7908035e+43 -9.1590916e+43)
(-1.0695366e+45 1.3364354e+43 -6.7990916e+43)
(-1.0784638e+45 1.7791053e+42 -7.3594e+43)
(-9.7389581e+44 6.5239082e+42 -9.6200002e+43)
(-9.6815881e+44 1.4027785e+43 -9.3575968e+43)
(-1.0658092e+45 9.6664348e+42 -7.013317e+43)
(-9.1500001e+44 -1.377737e+43 7.864161e+43)
(-9.2195518e+44 1.8910203e+42 7.8054742e+43)
(-9.195002e+44 -1.3370579e+43 7.4016416e+43)
(-9.1910106e+44 1.8715075e+42 7.5715024e+43)
(-7.8506465e+44 -1.1746075e+42 7.6891218e+43)
(-7.867025e+44 -1.1813603e+43 7.4953525e+43)
(-7.8595073e+44 -1.6922783e+42 7.2227414e+43)
(-7.8354472e+44 -1.1934252e+43 7.3264478e+43)
(-9.1308962e+44 -1.0519389e+42 7.817995e+43)
(-9.1508933e+44 -1.6277656e+43 7.7134747e+43)
(-9.0683154e+44 -7.3746744e+41 7.3230068e+43)
(-9.0382699e+44 -1.4719435e+43 7.5379751e+43)
(-1.1913124e+45 -1.839925e+43 -1.0118515e+44)
(-1.1951683e+45 -1.7278816e+43 -9.9776959e+43)
(-9.9798722e+44 1.5408715e+42 -7.7937348e+43)
(-1.0011993e+45 1.6242345e+43 -8.021268e+43)
(-1.0185904e+45 -4.4912578e+42 -1.2972922e+44)
(-1.022684e+45 -7.3735344e+42 -1.2867407e+44)
(-1.0021916e+45 1.7178479e+43 -7.7593668e+43)
(-1.029377e+45 -2.231999e+42 -1.264173e+44)
(-1.0295584e+45 -6.2266557e+42 -1.3087372e+44)
(-9.9903577e+44 1.905464e+42 -7.7682622e+43)
(-8.2736255e+44 7.5569495e+42 -1.3450477e+44)
(-8.236672e+44 2.4082882e+41 -1.3320382e+44)
(-6.8986691e+44 -6.3648199e+42 -1.5668422e+44)
(-6.9404646e+44 -7.0461034e+42 -1.5689357e+44)
(-6.9522585e+44 -4.5967144e+42 -1.5611914e+44)
(-8.2942224e+44 9.4436829e+42 -1.3410104e+44)
(-8.2536627e+44 -1.7408684e+42 -1.333541e+44)
(-6.9095575e+44 -7.6888714e+42 -1.5802832e+44)
(-4.8370599e+44 -1.401673e+43 -1.3965822e+44)
(-4.7531016e+44 -8.9929596e+42 -1.3966513e+44)
(-4.2401872e+44 -4.6216324e+43 3.3836349e+43)
(-4.1311491e+44 -1.9066899e+43 3.1689666e+43)
(-4.8155115e+44 -1.6563542e+43 -1.4004234e+44)
(-4.7782535e+44 -8.2825497e+42 -1.3805189e+44)
(-4.1688081e+44 -4.8732887e+43 2.6910041e+43)
(-4.153492e+44 -2.3598633e+43 3.2484726e+43)
(-8.3401719e+44 9.8195453e+42 -1.3268793e+44)
(-8.3010164e+44 1.3429843e+42 -1.3141944e+44)
(-6.9364309e+44 -4.7426838e+42 -1.5590031e+44)
(-6.9884723e+44 -4.8829226e+42 -1.5664857e+44)
(-8.2974171e+44 -2.7429561e+42 -1.3544969e+44)
(-8.3529057e+44 1.041817e+43 -1.3557626e+44)
(-7.0047987e+44 -2.6801348e+42 -1.5801337e+44)
(-6.9636559e+44 -8.1462112e+42 -1.6080497e+44)
(-4.7888783e+44 -1.0232554e+43 -1.4180696e+44)
(-4.2730865e+44 -4.10388e+43 3.6817993e+43)
(-4.1826444e+44 -1.9183962e+43 3.5188873e+43)
(-4.8456089e+44 -1.1243166e+43 -1.4068247e+44)
(-4.8280089e+44 -1.3662874e+43 -1.3994073e+44)
(-4.7687971e+44 -5.9452411e+42 -1.3759866e+44)
(-4.2061254e+44 -4.3818762e+43 3.1515412e+43)
(-4.1476118e+44 -1.6803908e+43 3.371828e+43)
(-1.0613887e+45 4.9894251e+42 -1.1092473e+44)
(-8.4219494e+44 4.5505581e+41 -1.3963391e+44)
(-8.4266215e+44 1.3166703e+43 -1.3916386e+44)
(-7.3183957e+44 -4.1469212e+42 -1.7132889e+44)
(-7.3111572e+44 -1.9580044e+42 -1.7091367e+44)
(-5.0689669e+44 1.3094655e+42 -1.4699524e+44)
(-5.0603882e+44 -1.3793525e+42 -1.4479617e+44)
(-3.6753369e+44 -7.1735204e+42 -1.5688213e+44)
(-3.6327535e+44 -7.2367775e+42 -1.5446325e+44)
(-5.084544e+44 2.1242846e+42 -1.4561696e+44)
(-5.0697283e+44 -2.3141012e+42 -1.4686622e+44)
(-3.6765802e+44 -4.9368789e+42 -1.5432386e+44)
(-3.635695e+44 -7.3881231e+42 -1.575067e+44)
(-2.8093381e+44 -1.9266457e+43 -5.3979866e+43)
(-3.9684961e+44 -2.4291258e+43 5.7621081e+43)
(-2.8273032e+44 -1.5938273e+43 -4.2842866e+43)
(-3.9648966e+44 -1.172277e+43 5.9194898e+43)
(-2.8732584e+44 -1.7033739e+43 -4.5842295e+43)
(-2.8098418e+44 -1.3840585e+43 -4.8345797e+43)
(-4.0165028e+44 -2.129468e+43 6.1453078e+43)
(-3.9522161e+44 -6.7843267e+42 5.894813e+43)
(-8.3551373e+44 -4.1874836e+42 1.0542198e+44)
(-6.6170746e+44 -1.7728184e+43 9.0790147e+43)
(-6.5507286e+44 -1.3913545e+43 8.7337868e+43)
(-8.338776e+44 -1.253265e+43 1.0359664e+44)
(-6.5852846e+44 -1.6132441e+43 8.742275e+43)
(-6.5399439e+44 -1.4608366e+43 9.0369538e+43)
(-8.3200439e+44 -7.1433034e+42 1.0471692e+44)
(-8.2724246e+44 -1.7761718e+43 1.0580158e+44)
(-6.5939532e+44 -2.0645707e+43 8.8864566e+43)
(-6.5597267e+44 -1.7965225e+43 8.6395091e+43)
(-8.3164004e+44 -4.986983e+42 1.0385619e+44)
(-8.3211645e+44 -1.4139147e+43 1.0210061e+44)
(-6.5279038e+44 -1.4378679e+43 8.7523991e+43)
(-6.5798746e+44 -1.8626724e+43 8.5406055e+43)
(-8.3324036e+44 -8.3471786e+42 1.011241e+44)
(-8.2884218e+44 -1.7001571e+43 1.0153624e+44)
(-5.6358908e+44 -1.1873366e+43 8.3755357e+43)
(-5.6533324e+44 -1.9169269e+43 8.5936346e+43)
(-7.2311223e+44 -5.5651984e+42 8.9488245e+43)
(-7.22128e+44 -1.0589538e+43 8.7161226e+43)
(-5.635575e+44 -9.0690392e+42 8.7100921e+43)
(-5.6292547e+44 -1.4015894e+43 8.3472155e+43)
(-7.197958e+44 -6.0106977e+42 8.9288862e+43)
(-7.1760102e+44 -1.4009545e+43 8.8858548e+43)
(-5.6618188e+44 -1.6282956e+43 8.5343639e+43)
(-5.688019e+44 -1.9801665e+43 8.7656768e+43)
(-7.2096304e+44 -5.6114051e+42 9.206665e+43)
(-7.2137533e+44 -1.2785489e+43 9.1198904e+43)
(-7.2246441e+44 -8.7773917e+42 8.9408322e+43)
(-5.6515192e+44 -1.7924288e+43 8.3557145e+43)
(-5.6777762e+44 -1.2878767e+43 8.766112e+43)
(-7.2296344e+44 -1.5284451e+43 9.0521089e+43)
(-6.6038292e+44 -2.4519208e+43 8.8639516e+43)
(-6.5713382e+44 -2.2437511e+43 8.6923118e+43)
(-8.2949346e+44 -7.8814522e+42 1.0342055e+44)
(-8.2958389e+44 -1.7143522e+43 1.0211011e+44)
(-8.3073323e+44 -1.1893774e+43 1.0164351e+44)
(-6.591061e+44 -2.3394646e+43 8.544603e+43)
(-6.5558893e+44 -1.9674173e+43 8.8404203e+43)
(-8.2721463e+44 -2.0910096e+43 1.0254627e+44)
(-6.5622975e+44 -2.238199e+43 8.6366246e+43)
(-6.5012841e+44 -1.7776896e+43 8.3277246e+43)
(-8.2485623e+44 -8.1183262e+42 1.0004743e+44)
(-8.2366884e+44 -1.5335949e+43 9.8177619e+43)
(-8.235155e+44 -9.0684858e+42 1.0165112e+44)
(-6.5303485e+44 -1.8959802e+43 8.4440448e+43)
(-6.4930036e+44 -1.6794339e+43 8.7771608e+43)
(-8.1888343e+44 -1.8976947e+43 1.0252695e+44)
(-9.2939882e+44 7.1514314e+42 -4.3889775e+43)
(-7.9072155e+44 5.120195e+42 -2.6972386e+43)
(-7.8928991e+44 3.4875079e+42 -2.9505797e+43)
(-9.359755e+44 3.2701016e+42 -3.724017e+43)
(-7.9731002e+44 4.0392007e+42 -3.8114072e+43)
(-7.9826607e+44 5.8396662e+42 -3.5351481e+43)
(-7.6560982e+44 4.1460927e+42 -2.8012733e+43)
(-7.7421757e+44 3.9115094e+42 -2.4755857e+43)
(-7.6461309e+44 3.7987498e+42 -3.017112e+43)
(-9.2680389e+44 1.3833572e+42 -4.6012799e+43)
(-9.234586e+44 8.0181816e+42 -5.2994257e+43)
(-9.5090649e+44 1.9436483e+42 -4.6209326e+43)
(-9.4306498e+44 9.9420341e+41 -6.0283761e+43)
(-9.4627882e+44 7.3636154e+42 -6.4187143e+43)
(-9.428752e+44 7.3675459e+42 -5.5599525e+43)
(-9.2795415e+44 -9.3439488e+42 2.7047508e+43)
(-9.295811e+44 -1.5302589e+42 2.8584187e+43)
(-9.7022736e+44 1.3521193e+42 7.4682545e+43)
(-9.6831277e+44 -1.315547e+43 7.2786341e+43)
(-9.7125252e+44 6.4439714e+41 7.6549662e+43)
(-9.2523531e+44 -8.8729809e+42 3.2328544e+43)
(-9.2815096e+44 9.9985269e+41 2.9883746e+43)
(-9.6169402e+44 -1.3886512e+43 7.6806094e+43)
(-9.4000798e+44 9.0515972e+41 1.0315652e+43)
(-9.0996755e+44 4.4820771e+41 -1.698154e+43)
(-9.065499e+44 -3.5764804e+42 -1.527153e+43)
(-9.3515147e+44 -7.757534e+42 1.1988771e+43)
(-9.4476864e+44 -7.5606355e+41 1.0148105e+43)
(-9.0945607e+44 -3.4623567e+42 -1.9358365e+43)
(-9.0964623e+44 -2.0341959e+42 -1.7897471e+43)
(-9.4178554e+44 -7.649945e+42 8.4924053e+42)
(-9.1674414e+44 -8.9520918e+41 -1.7919321e+43)
(-8.982991e+44 -2.46552e+42 -3.3980922e+43)
(-9.001614e+44 -1.6398847e+42 -3.3012514e+43)
(-9.1435113e+44 -5.1077875e+42 -1.9120324e+43)
(-9.185466e+44 -2.2651649e+42 -3.3313174e+43)
(-9.0798814e+44 4.2549129e+41 -4.1601115e+43)
(-9.0000378e+44 6.6734328e+41 -4.4863624e+43)
(-9.0312548e+44 -2.8329316e+42 -4.5324485e+43)
(-9.1114019e+44 -2.3533897e+42 -3.7562684e+43)
(-1.0412786e+45 -2.5242668e+42 -4.7570534e+43)
(-9.0873342e+44 -2.0212977e+42 -3.6217149e+43)
(-8.9114804e+44 -2.4577413e+42 -3.6168098e+43)
(-9.0573668e+44 -2.3153654e+42 -2.4204559e+43)
(-8.9279937e+44 -3.3745919e+42 -3.789765e+43)
(-9.0215806e+44 -4.5064316e+42 -2.3133308e+43)
(-1.0057021e+45 -4.1152475e+40 -6.8786621e+43)
(-9.2340325e+44 -8.1467057e+41 -2.2281244e+43)
(-9.0647234e+44 1.7568506e+41 -3.8953727e+43)
(-9.0756604e+44 -1.901195e+42 -3.7186058e+43)
(-9.2247868e+44 -2.7260654e+42 -2.3561855e+43)
(-9.273176e+44 2.1716216e+41 -3.8735594e+43)
(-9.2789216e+44 1.2074164e+41 -3.6897081e+43)
(-9.1908924e+44 -8.0955651e+41 -4.5008766e+43)
(-9.1764342e+44 3.308978e+42 -4.7995199e+43)
(-1.0714305e+45 3.0144756e+42 -5.321725e+43)
(-9.1651667e+44 1.4809883e+42 -4.1878192e+43)
(-9.2027306e+44 1.0478894e+42 -4.2109359e+43)
(-9.2799377e+44 1.1603817e+42 -3.4658046e+43)
(-1.0683887e+45 -8.2530745e+40 -4.8386632e+43)
(-9.2435345e+44 -1.2633678e+42 -3.363897e+43)
(-1.0312691e+45 5.1995024e+42 -7.8945754e+43)
(-1.038217e+45 5.4587805e+42 -7.0530079e+43)
(-9.0663982e+44 -1.0800094e+42 -3.3477338e+43)
(-9.1611893e+44 -2.5717181e+42 -2.1278469e+43)
(-9.0881975e+44 2.9737832e+41 -3.4928395e+43)
(-9.2050413e+44 1.0666575e+42 -2.2390364e+43)
(-1.0345199e+45 2.6486792e+43 -1.1120617e+44)
(-1.0378403e+45 6.7116724e+42 -1.1351569e+44)
(-1.1693581e+45 7.7475891e+42 -4.4259326e+43)
(-9.4511779e+44 7.8465188e+42 -9.0523628e+43)
(-1.0416302e+45 2.3740339e+42 -6.4537654e+43)
(-1.0685026e+45 7.218688e+42 -7.5775654e+43)
(-9.5644966e+44 1.1917866e+43 -9.7638354e+43)
(-1.0734499e+45 5.8956502e+42 -6.5875452e+43)
(-9.6418827e+44 9.6871116e+42 -9.6232625e+43)
(-9.2298691e+44 -1.2672355e+43 3.1481416e+43)
(-9.2403606e+44 -3.0051992e+42 3.2933138e+43)
(-9.6050081e+44 -5.2237986e+41 7.6238517e+43)
(-9.6166258e+44 -1.5488094e+43 7.541566e+43)
(-9.039273e+44 -2.4288563e+42 -1.3215761e+43)
(-9.3400774e+44 -1.0488487e+43 1.251238e+43)
(-9.3577169e+44 -1.4239319e+42 1.4099188e+43)
(-9.028551e+44 -6.6948975e+42 -1.4640903e+43)
(-8.9349478e+44 -6.2070773e+42 -1.7065534e+43)
(-8.9632734e+44 -3.4121453e+42 -1.8662734e+43)
(-9.2600986e+44 -2.9539953e+42 8.5979255e+42)
(-9.2206167e+44 -1.0528572e+43 9.9249341e+42)
(-9.1411048e+44 -1.1685234e+43 3.0237446e+43)
(-9.4739055e+44 -1.4894154e+43 7.1855675e+43)
(-9.1594359e+44 -2.8754215e+42 2.7877681e+43)
(-9.5271047e+44 -2.16701e+42 7.0791541e+43)
(-7.9191079e+44 1.9427408e+42 -3.0698421e+43)
(-7.8761621e+44 2.329219e+42 -3.2893862e+43)
(-9.3471364e+44 3.4457008e+42 -4.1284143e+43)
(-7.9551272e+44 3.1543867e+42 -4.1920746e+43)
(-7.9897603e+44 2.6619606e+42 -3.9615843e+43)
(-7.8877139e+44 1.0933947e+42 -3.0865042e+43)
(-7.8954124e+44 9.4652716e+41 -3.0498115e+43)
(-9.3115141e+44 1.7937885e+42 -4.0553988e+43)
(-7.9727777e+44 1.9505339e+42 -3.879714e+43)
(-7.9630539e+44 2.0022056e+42 -3.9554412e+43)
(-7.6411253e+44 3.0406878e+40 -3.1465915e+43)
(-7.728258e+44 -1.5384133e+41 -2.7357881e+43)
(-7.6472326e+44 8.9320262e+41 -3.1209652e+43)
(-7.7368004e+44 -2.8524012e+41 -2.7298676e+43)
(-9.2853461e+44 4.1646197e+42 -5.0439385e+43)
(-9.2590608e+44 4.198428e+41 -4.8642593e+43)
(-7.666522e+44 7.7137326e+41 -3.170732e+43)
(-7.7498473e+44 8.4138849e+41 -2.7921335e+43)
(-7.6292671e+44 2.0511183e+42 -3.3360605e+43)
(-7.712142e+44 1.0423827e+42 -2.9249831e+43)
(-7.5741804e+44 1.8153296e+42 -3.0529566e+43)
(-7.5412231e+44 2.3468781e+42 -3.1132523e+43)
(-7.6757963e+44 1.7171032e+42 -2.683074e+43)
(-7.6423699e+44 1.0760222e+42 -2.7070302e+43)
(-7.5817343e+44 4.0194272e+41 -3.1374987e+43)
(-7.6899677e+44 3.0891519e+41 -2.749352e+43)
(-7.594914e+44 1.6789379e+42 -3.1678236e+43)
(-7.6989673e+44 4.632996e+41 -2.7832287e+43)
(-7.513202e+44 1.2819427e+42 -2.7317232e+43)
(-7.6868954e+44 1.9207288e+42 -2.0126045e+43)
(-7.4854944e+44 6.535684e+41 -2.7460158e+43)
(-7.5203587e+44 -3.6338001e+41 -2.8216552e+43)
(-7.6984375e+44 5.0822967e+41 -2.0797733e+43)
(-7.5320801e+44 5.3856055e+40 -2.8436759e+43)
(-7.7073103e+44 -9.693976e+41 -2.1169726e+43)
(-7.9155104e+44 3.6579184e+42 -3.0643329e+43)
(-7.8703922e+44 3.8269178e+42 -3.2426943e+43)
(-9.3618747e+44 2.5354921e+42 -4.3467255e+43)
(-7.9522874e+44 4.5051992e+42 -4.1550582e+43)
(-7.9906324e+44 4.2486732e+42 -3.9441047e+43)
(-7.9346147e+44 2.6272735e+42 -3.0992674e+43)
(-7.9381214e+44 2.6104552e+42 -3.2198035e+43)
(-9.425672e+44 9.4558189e+41 -4.2844252e+43)
(-8.0204502e+44 3.3507044e+42 -4.0906491e+43)
(-8.010841e+44 3.3481442e+42 -3.9685484e+43)
(-7.6626803e+44 2.8366734e+42 -3.1320499e+43)
(-7.746437e+44 2.7954879e+42 -2.7656297e+43)
(-7.6264386e+44 3.7522817e+42 -3.2481483e+43)
(-7.7088602e+44 2.6279953e+42 -2.8461986e+43)
(-7.6763159e+44 1.6676422e+42 -3.1935907e+43)
(-7.7595758e+44 1.4536984e+42 -2.8280111e+43)
(-7.6834177e+44 2.8782124e+42 -3.2689271e+43)
(-7.7712911e+44 1.708456e+42 -2.8762551e+43)
(-9.3865348e+44 -8.6627377e+41 -5.1879851e+43)
(-9.3177864e+44 3.9602662e+42 -5.3021482e+43)
(-7.5762801e+44 -4.144768e+41 -3.0753357e+43)
(-7.6792687e+44 -4.4876553e+41 -2.7034068e+43)
(-7.540682e+44 5.143979e+41 -3.1963059e+43)
(-7.6428835e+44 -6.0720722e+41 -2.7926119e+43)
(-7.5553719e+44 -1.2690976e+42 -3.0188854e+43)
(-7.6625652e+44 -1.3768602e+42 -2.6153217e+43)
(-7.5649951e+44 -6.0775184e+41 -3.0114726e+43)
(-7.6678042e+44 -1.7925705e+42 -2.6409375e+43)
(-7.5011267e+44 -2.1897467e+42 -2.6699998e+43)
(-7.6654584e+44 -1.1789813e+42 -1.9635805e+43)
(-7.5084248e+44 -2.4919634e+42 -2.6917024e+43)
(-7.6723863e+44 -3.3083163e+42 -2.0091476e+43)
(-7.5172025e+44 -1.2387235e+42 -2.7629944e+43)
(-7.6822707e+44 -4.6923077e+41 -2.0809375e+43)
(-7.4853607e+44 -1.2853471e+42 -2.84464e+43)
(-7.6429524e+44 -2.0680389e+42 -2.1663873e+43)
(-9.5601434e+44 5.1458377e+42 -6.5039839e+43)
(-9.5875085e+44 -2.1266106e+42 -6.4840102e+43)
(-9.6389235e+44 -1.1106238e+42 -5.167247e+43)
(-9.5382442e+44 3.4443041e+42 -5.5103876e+43)
(-9.5117733e+44 4.9236758e+42 -6.2941653e+43)
(-9.4745963e+44 1.5758419e+42 -6.0113902e+43)
(-9.4449444e+44 1.5744858e+42 -5.1811354e+43)
(-9.4795113e+44 3.9383653e+42 -5.3870102e+43)
(-7.5759567e+44 -4.257204e+41 -2.4099882e+43)
(-7.5903934e+44 -1.0804987e+42 -2.4397784e+43)
(-7.7835583e+44 -2.0531048e+40 -1.7231846e+43)
(-7.790596e+44 -1.9675126e+42 -1.7697308e+43)
(-7.6840173e+44 -7.4837382e+41 -1.5761169e+43)
(-7.9757364e+44 4.7799956e+41 1.4607923e+42)
(-7.6941574e+44 -2.4491444e+42 -1.620228e+43)
(-7.9834185e+44 -3.4856677e+42 8.8570428e+41)
(-7.5722358e+44 1.0691007e+42 -2.3462786e+43)
(-7.7720627e+44 1.035359e+42 -1.6860657e+43)
(-7.6530963e+44 -2.7125644e+42 -1.3977877e+43)
(-7.6616489e+44 -5.395924e+42 -1.4624543e+43)
(-7.941188e+44 -1.2103204e+42 3.5464198e+42)
(-7.9495913e+44 -6.3334676e+42 2.6916531e+42)
(-7.5675152e+44 -1.5135937e+42 -2.3884947e+43)
(-7.7626788e+44 -1.4515776e+42 -1.7251096e+43)
(-7.5343191e+44 -2.4032339e+42 -2.461904e+43)
(-7.7290523e+44 -3.5918548e+42 -1.7682826e+43)
(-7.5487805e+44 -2.2051993e+42 -2.2728813e+43)
(-7.7483368e+44 -1.8096013e+42 -1.5871035e+43)
(-7.5603905e+44 -3.6356799e+42 -2.3149869e+43)
(-7.7540741e+44 -4.3851247e+42 -1.6539133e+43)
(-7.6685677e+44 -2.0884016e+42 -1.5625296e+43)
(-7.6432146e+44 -4.2046737e+42 -1.5880757e+43)
(-7.9539056e+44 -1.4533812e+42 1.3269671e+42)
(-7.9193386e+44 -5.6103246e+42 1.090344e+42)
(-7.882609e+44 -1.8629862e+42 8.6822579e+42)
(-8.1792815e+44 -1.9863662e+42 3.3930582e+43)
(-7.8547517e+44 -6.5936161e+42 8.7985852e+42)
(-8.1536498e+44 -9.315816e+42 3.4554561e+43)
(-7.9807857e+44 -1.579619e+42 4.9926922e+43)
(-8.3134524e+44 -1.8748709e+42 7.9813145e+43)
(-7.9645158e+44 -1.050707e+43 5.1042418e+43)
(-8.2833739e+44 -1.264334e+43 8.0685488e+43)
(-7.8658582e+44 -1.7978493e+42 1.1267871e+43)
(-8.1685241e+44 -7.5154013e+41 3.6995531e+43)
(-7.8804984e+44 -7.7388392e+42 1.0281987e+43)
(-8.1751663e+44 -9.0049578e+42 3.5671686e+43)
(-7.973802e+44 -1.2360066e+42 5.3983148e+43)
(-8.2979734e+44 1.1573905e+41 8.4068998e+43)
(-7.9819522e+44 -1.1026135e+43 5.2294899e+43)
(-8.3108991e+44 -1.1319115e+43 8.2214301e+43)
(-8.2124723e+44 1.2228624e+42 3.4556593e+43)
(-7.8981738e+44 4.1866496e+40 8.8830146e+42)
(-7.9118633e+44 -4.250004e+42 8.2505208e+42)
(-9.9034366e+44 1.4257621e+43 -1.0786599e+44)
(-1.0576446e+45 1.8480174e+43 -5.4124931e+43)
(-9.4098376e+44 1.5455711e+43 -7.5675866e+43)
(-9.424668e+44 1.4013596e+43 -7.7577084e+43)
(-1.0623192e+45 9.5153375e+42 -5.6865225e+43)
(-9.5273463e+44 1.2340011e+43 -1.0837217e+44)
(-9.5123361e+44 1.5019917e+43 -1.0770555e+44)
(-1.0060271e+45 1.1201227e+43 -7.3188315e+43)
(-1.0100838e+45 9.4165294e+42 -7.7711629e+43)
(-9.6972638e+44 6.1836128e+42 -8.4042603e+43)
(-9.6671586e+44 6.547598e+42 -7.9616021e+43)
(-9.6946229e+44 3.811313e+42 -6.640265e+43)
(-9.7557521e+44 6.6933736e+42 -6.786513e+43)
(-9.901014e+44 -1.5638819e+42 -6.5587551e+43)
(-9.7765003e+44 1.7930287e+42 -8.570916e+43)
(-9.7629918e+44 8.6027883e+42 -8.4134152e+43)
(-9.8294128e+44 5.7084843e+42 -6.7635066e+43)
(-9.5851914e+44 1.0933303e+43 -1.1036496e+44)
(-9.6040018e+44 8.1269938e+42 -1.103722e+44)
(-1.018733e+45 3.5030632e+42 -7.9682811e+43)
(-1.0178014e+45 7.9356269e+42 -7.8244861e+43)
(-9.5215744e+44 5.694618e+42 -1.0381602e+44)
(-1.0092975e+45 3.6433486e+42 -6.434888e+43)
(-1.0104017e+45 5.704429e+42 -7.1027526e+43)
(-9.6969051e+44 1.5814792e+42 -6.2911291e+43)
(-9.6546156e+44 2.7269476e+42 -7.4621593e+43)
(-9.6403166e+44 5.6052987e+42 -8.3235868e+43)
(-9.7286245e+44 6.3789495e+42 -6.6234512e+43)
(-7.8829078e+44 -8.4018523e+41 7.8017843e+43)
(-7.8585364e+44 -1.2631105e+43 7.9845156e+43)
(-7.9023381e+44 9.0483922e+40 7.7862007e+43)
(-7.9138613e+44 -1.0107862e+43 7.6320685e+43)
(-7.8875068e+44 -2.5960267e+42 7.4527587e+43)
(-7.8651785e+44 -1.1808702e+43 7.5772873e+43)
(-7.8685898e+44 -1.7448417e+42 7.8009409e+43)
(-7.9018855e+44 -1.2992187e+43 7.6616728e+43)
(-6.9034509e+44 -2.4450296e+42 7.4223734e+43)
(-6.9027834e+44 -1.2492255e+43 7.2494e+43)
(-6.8921459e+44 -4.6953351e+42 6.9341059e+43)
(-6.9043556e+44 -1.3042238e+43 7.0123284e+43)
(-6.8849002e+44 -2.4032915e+42 6.8434369e+43)
(-6.8867656e+44 -1.0258395e+43 6.7261107e+43)
(-6.8601813e+44 -1.7716205e+42 6.9171258e+43)
(-6.8649146e+44 -1.2034526e+43 7.0323323e+43)
(-7.8677496e+44 -4.3412666e+42 7.9331046e+43)
(-7.8890443e+44 -1.5509677e+43 7.7964622e+43)
(-7.880804e+44 -6.1624567e+42 7.5665181e+43)
(-7.8636081e+44 -1.6068629e+43 7.7382169e+43)
(-7.8090258e+44 -4.3162697e+42 7.4903501e+43)
(-7.8205147e+44 -1.3209942e+43 7.3307208e+43)
(-7.7971575e+44 -3.3829103e+42 7.5419128e+43)
(-7.7762859e+44 -1.4040529e+43 7.7360692e+43)
(-1.2024841e+45 -5.1409528e+42 -5.7015935e+43)
(-1.2045047e+45 -6.1704756e+42 -5.4548497e+43)
(-1.2084975e+45 9.628904e+42 -1.3313472e+43)
(-1.0372937e+45 3.6843519e+42 -6.0913088e+43)
(-1.0430261e+45 1.5079232e+43 -6.3160527e+43)
(-1.042803e+45 1.8582525e+42 -1.1104136e+44)
(-8.3023038e+44 1.2481164e+43 -1.3772255e+44)
(-8.2971315e+44 -2.8582359e+41 -1.3841693e+44)
(-1.0469541e+45 -1.1719779e+42 -1.0782977e+44)
(-8.3259847e+44 1.2990475e+43 -1.3660952e+44)
(-8.3100711e+44 -4.1436398e+41 -1.3773716e+44)
(-1.0448234e+45 1.4759889e+43 -6.0738189e+43)
(-1.0550062e+45 3.240932e+42 -1.0617444e+44)
(-8.3782516e+44 1.354365e+43 -1.3600258e+44)
(-8.3467009e+44 1.1520852e+42 -1.3587189e+44)
(-1.0546336e+45 1.9730936e+41 -1.1034465e+44)
(-8.3913694e+44 1.4357125e+43 -1.3850188e+44)
(-8.3787248e+44 -6.4832077e+41 -1.4068569e+44)
(-1.0402859e+45 3.7109449e+42 -6.0332301e+43)
(-7.1890936e+44 -6.3428302e+42 -1.7032687e+44)
(-7.2048826e+44 -3.5646511e+42 -1.6922029e+44)
(-7.2269441e+44 -2.9637094e+42 -1.6825773e+44)
(-7.1996123e+44 -5.9920023e+42 -1.699635e+44)
(-5.0017184e+44 2.3210086e+42 -1.4482091e+44)
(-4.9904246e+44 -6.5626715e+41 -1.4293971e+44)
(-3.6254824e+44 -6.7380471e+42 -1.5484844e+44)
(-3.5649238e+44 -6.6280153e+42 -1.5367251e+44)
(-5.003222e+44 2.4864858e+42 -1.4502618e+44)
(-4.9882139e+44 -3.2835031e+42 -1.4638816e+44)
(-3.5597267e+44 -9.3078718e+42 -1.5773199e+44)
(-3.6007618e+44 -4.4516715e+42 -1.5434265e+44)
(-2.7732608e+44 -1.9775483e+43 -5.2483234e+43)
(-3.9689268e+44 -2.4807032e+43 5.6031954e+43)
(-2.7683537e+44 -1.6262021e+43 -4.39596e+43)
(-3.9458207e+44 -1.2136887e+43 5.6410206e+43)
(-2.8055205e+44 -1.6473591e+43 -4.658626e+43)
(-4.0067204e+44 -2.0049554e+43 5.9710464e+43)
(-2.7574646e+44 -1.6384832e+43 -4.7512013e+43)
(-3.936764e+44 -8.793145e+42 5.7785834e+43)
(-5.0036393e+44 1.4225575e+42 -1.4564433e+44)
(-4.9907472e+44 -1.3264984e+42 -1.4343609e+44)
(-3.6329718e+44 -7.8337674e+42 -1.5480923e+44)
(-3.5708422e+44 -7.9516175e+42 -1.5318258e+44)
(-4.9822849e+44 2.1621487e+42 -1.4442605e+44)
(-4.9759544e+44 -3.0492922e+42 -1.4571255e+44)
(-3.6011018e+44 -5.6554193e+42 -1.5275887e+44)
(-3.5588699e+44 -9.3321718e+42 -1.5633685e+44)
(-2.7490455e+44 -2.0977463e+43 -5.5676514e+43)
(-2.7696319e+44 -1.9408652e+43 -4.4163918e+43)
(-3.9698577e+44 -1.8666087e+43 5.7692215e+43)
(-3.9325125e+44 -2.7211109e+43 5.4265585e+43)
(-4.031943e+44 -2.6432871e+43 6.0203762e+43)
(-3.96776e+44 -1.3376389e+43 5.8538834e+43)
(-2.8025578e+44 -1.9562017e+43 -4.6052881e+43)
(-2.7459417e+44 -1.78547e+43 -4.7318728e+43)
(-7.2269799e+44 -4.6166101e+42 -1.6853792e+44)
(-7.2614327e+44 -2.4952808e+42 -1.6844117e+44)
(-7.2776666e+44 -7.2702387e+41 -1.6976475e+44)
(-7.2545494e+44 -5.1097739e+42 -1.7277615e+44)
(-5.0479417e+44 2.2581037e+42 -1.4682098e+44)
(-3.6206028e+44 -4.6466305e+42 -1.5644175e+44)
(-3.5996337e+44 -9.8078064e+42 -1.5936763e+44)
(-5.0336622e+44 -3.7591768e+42 -1.4867295e+44)
(-2.8106604e+44 -1.5899953e+43 -4.1200922e+43)
(-2.8127322e+44 -1.7827133e+43 -4.9931395e+43)
(-4.0338742e+44 -2.1043621e+43 5.9591642e+43)
(-4.0111745e+44 -1.0033801e+43 5.990988e+43)
(-2.8333232e+44 -1.6399813e+43 -4.7327194e+43)
(-4.0371332e+44 -1.9100429e+43 6.1274722e+43)
(-3.9755939e+44 -9.4253361e+42 6.0893054e+43)
(-2.7884857e+44 -1.6706107e+43 -5.0548639e+43)
(-5.0314215e+44 -3.6990026e+41 -1.4425456e+44)
(-5.042164e+44 3.4550245e+42 -1.4592598e+44)
(-3.6275477e+44 -4.7411574e+42 -1.5702127e+44)
(-3.5803708e+44 -6.6632295e+42 -1.5529845e+44)
(-5.0364863e+44 2.1392133e+42 -1.4527261e+44)
(-5.0188015e+44 -8.4119653e+41 -1.4301114e+44)
(-3.6448528e+44 -6.9128273e+42 -1.5605554e+44)
(-3.5757666e+44 -7.0728158e+42 -1.5455702e+44)
(-5.0013327e+44 2.6300216e+42 -1.433157e+44)
(-4.9871168e+44 -1.7286876e+42 -1.4451829e+44)
(-3.586565e+44 -4.6386772e+42 -1.5385435e+44)
(-3.5399013e+44 -7.3069043e+42 -1.5723024e+44)