/*--------------------------------*- C++ -*----------------------------------*\
  =========                 |
  \\      /  F ield         | OpenFOAM: The Open Source CFD Toolbox
   \\    /   O peration     | Website:  https://openfoam.org
    \\  /    A nd           | Version:  7
     \\/     M anipulation  |
\*---------------------------------------------------------------------------*/
FoamFile
{
    version     2.0;
    format      ascii;
    class       surfaceScalarField;
    location    "0";
    object      phi;
}
// * * * * * * * * * * * * * * * * * * * * * * * * * * * * * * * * * * * * * //

dimensions      [0 3 -1 0 0 0 0];

internalField   nonuniform List<scalar> 
102298
(
-2.4991064e-07
0.00022826241
-3.4279255e-06
0.00024287358
0.00022875248
0.00023017802
0.00023060636
0.0002296863
0.00023010647
-3.2971879e-06
3.0983372e-06
9.6055788e-07
-5.7832568e-06
5.3541981e-05
5.5214876e-05
6.2623271e-05
5.9608801e-05
-1.0024286e-06
-2.6048891e-07
0.00022862172
0.00022828321
0.00024287636
0.00024313874
0.00019896958
-9.5727197e-07
-5.7822274e-06
5.509308e-05
6.2526034e-05
-1.3158679e-05
-1.2576782e-05
0.00025020564
1.1599454e-05
1.1061001e-05
-1.0050598e-06
-2.8902352e-06
-9.6105195e-07
5.6165722e-05
6.069088e-05
5.8706098e-05
-9.2258474e-07
5.5341908e-05
5.6749732e-05
-2.8894662e-06
-9.9989057e-07
6.0782853e-05
5.861784e-05
5.4707059e-05
5.6288399e-05
5.5266742e-05
5.6874614e-05
5.3868616e-05
-9.6538318e-07
5.5466506e-05
0.00023004772
0.00023047421
0.00022970838
0.00023012921
-4.4640569e-07
1.7518775e-06
-3.2552481e-06
1.2735958e-05
1.3148664e-05
-2.5093027e-07
1.5331323e-05
1.4526694e-05
1.6304078e-06
3.0059811e-07
-3.2860059e-06
1.3171858e-05
1.2847953e-05
1.4735765e-05
1.5367853e-05
4.184463e-07
2.950955e-07
5.0381431e-05
4.9450149e-05
-2.4779379e-07
-6.6150037e-07
3.0826904e-06
-5.7846827e-06
5.364077e-05
5.9688425e-05
6.2541271e-05
5.5112011e-05
3.0984636e-06
-5.7848439e-06
5.3556629e-05
5.962026e-05
5.5194981e-05
6.260709e-05
5.5594392e-07
0.00019896575
0.00019898194
1.6354978e-06
-3.285494e-06
1.2817637e-05
1.3200994e-05
1.4711051e-05
1.5390647e-05
5.0374166e-05
0.00019991301
-9.4268597e-07
-1.446037e-05
-1.4883006e-05
1.3356256e-05
1.2975372e-05
-8.9661645e-07
-1.3132435e-05
1.3985015e-05
1.4597934e-05
-1.3297667e-05
0.00025091659
-5.0803947e-05
-5.0387751e-05
5.3261117e-05
5.3651896e-05
5.08619e-05
5.1245999e-05
-5.1714596e-05
-5.2124425e-05
-2.997464e-07
-3.6713474e-06
-3.8053951e-06
6.467924e-05
2.346757e-06
2.2323994e-06
-1.052792e-07
-3.6474212e-06
-3.8290402e-06
6.4683262e-05
2.3172413e-06
2.2623098e-06
-3.8182089e-06
-3.6126768e-06
6.3550869e-05
2.3309051e-06
2.206637e-06
-2.5172191e-07
-6.6162373e-07
-1.2496146e-05
-1.3238592e-05
0.00025022424
1.116247e-05
1.1498516e-05
-1.2563616e-05
-1.3172968e-05
0.00025023699
1.1078606e-05
1.1582788e-05
4.1125914e-06
-1.7854444e-06
-2.854633e-07
5.3274774e-05
9.1110449e-07
-3.072214e-07
1.339706e-05
5.0802492e-05
1.2849812e-05
5.0519855e-05
-2.1196961e-07
-2.9045091e-07
1.2784318e-05
1.3146819e-05
1.2700675e-05
1.3065764e-05
-3.043309e-07
1.4307947e-05
1.3816627e-05
1.3198963e-05
1.283574e-05
-2.8897173e-06
-6.6127537e-07
5.6185103e-05
6.0705489e-05
5.8691694e-05
5.4808097e-05
4.7559326e-07
-4.1106097e-06
1.3303473e-05
5.0807077e-05
-4.1184552e-06
1.2944121e-05
-2.5636546e-07
5.052411e-05
-3.9702155e-07
-1.799096e-06
-2.3871686e-07
5.302341e-05
-1.7819479e-06
5.3277197e-05
-4.1445755e-07
2.0981792e-07
-2.5454365e-07
1.4273178e-05
1.373122e-05
1.276833e-05
1.3154057e-05
2.1205072e-07
1.3839356e-05
1.4286293e-05
1.2866807e-05
1.3169324e-05
-4.0167499e-07
1.2716665e-05
1.3100888e-05
1.2631146e-05
-2.4242423e-07
1.301854e-05
-6.3491864e-07
5.5369656e-05
5.3969059e-05
5.536138e-05
5.6769104e-05
1.3116712e-05
1.2816182e-05
1.2731579e-05
1.3035927e-05
-2.8892939e-06
5.4722313e-05
5.8628534e-05
6.0767661e-05
5.6268604e-05
5.5282028e-05
5.6854143e-05
5.5446213e-05
5.3883567e-05
-1.3647217e-07
1.1125204e-06
-1.7572764e-06
-6.2655415e-08
3.0239161e-06
3.1199768e-06
3.8179196e-06
3.6180002e-06
1.0957666e-06
1.9378497e-08
-1.7822461e-06
3.127461e-06
3.049218e-06
3.6734309e-06
3.8291431e-06
1.7475796e-06
-8.4570745e-07
-3.2554364e-06
1.2761046e-05
1.3123688e-05
1.5311609e-05
1.4547002e-05
1.2174149e-07
2.3297727e-08
1.2463822e-05
1.2209893e-05
-6.1616995e-08
1.8474557e-07
1.0948685e-06
-1.7843903e-06
3.0473158e-06
3.1349186e-06
3.672249e-06
3.841509e-06
1.1125735e-06
7.4978028e-08
-1.7667863e-06
3.1178963e-06
3.0340047e-06
3.6357394e-06
3.8242772e-06
-1.6442133e-07
7.383468e-08
1.22915e-05
1.2492562e-05
-7.6315582e-07
4.9455213e-05
-1.6355296e-06
-2.0460292e-07
5.0379683e-05
-2.082752e-07
-3.2863734e-06
1.2823374e-05
1.3197476e-05
1.4716145e-05
1.5388401e-05
1.751711e-06
-5.149198e-07
-3.2557346e-06
1.2740501e-05
1.3144931e-05
1.5328619e-05
1.4530576e-05
-4.7754633e-07
4.9452945e-05
1.6319057e-06
-3.2866092e-06
1.537219e-05
1.3176911e-05
1.2844243e-05
1.4733096e-05
5.0383858e-05
-6.6033229e-08
1.113887e-06
-1.7667022e-06
3.0264633e-06
3.1252908e-06
3.8300507e-06
3.6296613e-06
1.093436e-06
-1.7842135e-06
3.1272451e-06
3.0545551e-06
3.6779651e-06
3.835374e-06
-6.2399096e-08
1.2289823e-05
1.2492871e-05
-0.00019993839
1.4081143e-05
-1.3034875e-05
-1.339766e-05
1.4507154e-05
6.2169533e-07
1.3342323e-05
1.299478e-05
-1.4446191e-05
-1.4902774e-05
1.3256982e-05
-1.4986322e-05
-1.4361125e-05
1.3078562e-05
2.3327379e-07
5.157306e-05
-2.3848254e-07
-4.1349396e-06
3.012285e-06
2.9116831e-06
-4.2664224e-06
5.2232049e-05
2.8288528e-07
2.9671478e-06
2.9915907e-06
-4.140799e-06
-4.2994005e-06
-2.194369e-07
6.5797765e-05
2.7887328e-07
-3.6992356e-06
3.5634696e-06
3.4727816e-06
-3.6059763e-06
6.4787627e-05
-2.363413e-07
-3.5929185e-06
3.5957536e-06
3.4274351e-06
-3.6526255e-06
5.0864009e-05
1.7606139e-07
-2.3136487e-07
-3.2118317e-06
3.7475476e-06
3.6333621e-06
-3.322621e-06
1.607805e-07
-2.2173143e-07
-3.1292791e-06
-3.0766561e-06
3.6761749e-06
3.8426232e-06
6.3597049e-05
-5.1512845e-05
2.6005636e-07
3.7318569e-06
3.8247134e-06
-3.1616063e-06
6.469414e-05
-3.0776592e-06
2.7174747e-07
3.6998424e-06
3.7397694e-06
-3.34357e-06
-3.2045131e-06
7.8310796e-07
0.00019631296
-1.2341005e-05
-1.271062e-05
1.4656753e-05
1.4256833e-05
5.1507653e-05
-6.5791048e-05
-3.232447e-06
3.7681099e-06
3.6705587e-06
-3.314658e-06
3.8511883e-06
3.704379e-06
-3.1331914e-06
-3.1059012e-06
6.468572e-05
0.00019624857
-1.2814086e-05
-1.2231761e-05
1.4546626e-05
1.4358612e-05
7.2372163e-07
1.3806913e-05
-1.2114308e-05
0.00024580716
1.4410687e-05
-1.2265744e-05
0.00024572979
-1.23618e-05
1.4310532e-05
1.389831e-05
-1.2007721e-05
7.3986653e-07
-0.00019949557
-0.00019943227
-8.02702e-07
-5.2228305e-05
-3.6357264e-06
3.5918617e-06
3.4437373e-06
-3.6693345e-06
-4.1703464e-06
3.0211902e-06
2.9364934e-06
-4.2692993e-06
-4.8572116e-08
-1.1497531e-06
-1.2082532e-06
1.6387088e-05
3.8632645e-07
3.7755966e-07
-7.4508633e-08
-1.203452e-06
-1.1427229e-06
1.6137935e-05
3.9148166e-07
3.648944e-07
6.9370436e-08
-5.3851591e-08
-1.1558516e-06
-1.202526e-06
1.6388706e-05
3.701859e-07
3.9373285e-07
-1.136786e-06
-1.2093652e-06
1.6138424e-05
3.840774e-07
3.7229996e-07
-2.4280538e-08
-1.152148e-06
-1.2032548e-06
1.6358708e-05
3.8544604e-07
3.7637093e-07
-1.2008967e-06
-1.1369845e-06
1.6040565e-05
3.630739e-07
3.8889288e-07
-6.2435896e-08
-2.9411015e-07
-3.8381946e-06
-3.5926502e-06
6.3553338e-05
2.2316752e-06
2.3058443e-06
-2.0903995e-07
-3.6681416e-06
-3.8096318e-06
6.4691122e-05
2.2372974e-06
2.3424451e-06
3.757125e-08
-3.8218386e-06
-3.6096682e-06
6.3558209e-05
2.3269099e-06
2.2108916e-06
-3.8260403e-06
-3.6514114e-06
6.4692665e-05
2.3217839e-06
2.2581329e-06
1.0692976e-06
1.1225278e-05
1.1144395e-05
-8.9543218e-07
0.00022092249
1.1104002e-05
1.1263856e-05
0.00022089412
3.5306165e-06
-3.6178391e-06
-3.5442208e-06
-2.6175095e-07
5.3163766e-05
1.8149153e-06
1.7900531e-06
3.7016908e-07
-3.0114983e-07
6.5368023e-05
6.5323312e-05
-5.5232794e-08
3.8554928e-07
4.9486215e-07
-7.6887779e-08
3.0953048e-06
3.2197002e-06
2.8166581e-06
2.9043487e-06
3.8822833e-07
4.9083321e-07
3.2204379e-06
3.1210887e-06
2.9041993e-06
2.8413956e-06
-5.3740957e-08
-7.2098783e-08
2.7210899e-06
2.8059585e-06
3.005068e-06
2.91325e-06
3.0057794e-06
2.938368e-06
2.8063336e-06
2.7452364e-06
7.8261874e-08
-1.325538e-06
1.1810906e-05
-1.3251896e-06
-7.5522402e-08
1.1751369e-05
5.8009273e-08
1.2189491e-05
-7.1578677e-08
1.2134981e-05
4.1125645e-06
7.7547583e-07
-1.7851836e-06
-1.9762132e-07
5.3279844e-05
8.4010272e-07
-2.127904e-07
1.3382851e-05
5.0807871e-05
-4.1171773e-06
1.2866169e-05
5.0526378e-05
-1.796267e-06
5.3023908e-05
-1.11548e-07
-3.5303453e-06
6.5373007e-05
-3.5259578e-06
-2.5241157e-07
6.5335291e-05
1.2482903e-07
-3.6311905e-06
-3.5190911e-06
-2.1929877e-07
5.3142747e-05
1.7926079e-06
1.8068031e-06
-3.5214592e-06
-3.6411381e-06
5.3167222e-05
1.7859362e-06
1.8193257e-06
2.1008506e-07
-8.1859527e-07
1.4254485e-05
1.3750096e-05
1.2794056e-05
1.3128688e-05
1.3756523e-07
-1.3235324e-06
2.4797414e-08
1.1803115e-05
-1.3194201e-06
1.1732303e-05
-6.3181065e-08
-1.1573848e-07
-4.9452156e-07
-5.983195e-08
1.2118964e-05
2.6245643e-08
-4.9144402e-07
1.2179948e-05
-1.8499334e-07
-1.3247196e-06
1.1752071e-05
-1.3262724e-06
1.1811229e-05
-1.7077883e-07
-4.9400275e-07
1.2135267e-05
-4.918091e-07
1.2190307e-05
-1.1637795e-07
3.8176552e-07
-6.4234505e-08
3.0920313e-06
3.2152265e-06
2.8145083e-06
2.8991884e-06
3.8701223e-07
2.8074947e-08
3.2192214e-06
3.1174316e-06
2.9043866e-06
2.8369094e-06
-1.1355856e-07
2.7185621e-06
2.8008146e-06
2.9101132e-06
2.9999475e-06
-6.025203e-08
-7.8632976e-07
1.2742947e-05
1.2656671e-05
1.3075012e-05
1.2992937e-05
2.3887093e-08
2.8063784e-06
3.0055582e-06
2.9334086e-06
2.7405081e-06
-2.1214088e-07
-2.0112716e-07
1.2790228e-05
1.3143057e-05
1.2706504e-05
1.3062118e-05
-2.1069529e-07
1.4305707e-05
1.3821275e-05
1.3195332e-05
1.2841577e-05
1.766197e-07
3.8845356e-07
3.1157149e-06
3.2262798e-06
2.8338319e-06
2.9120578e-06
3.8549702e-07
3.2141386e-06
3.1010157e-06
2.8967467e-06
2.8245033e-06
-1.6748784e-07
2.7983181e-06
2.7289437e-06
2.9976257e-06
2.920791e-06
2.7376173e-06
2.9311089e-06
2.8141838e-06
3.01348e-06
4.1183628e-06
-4.6208131e-07
-1.7989394e-06
5.3025678e-05
-5.3824239e-07
1.2931125e-05
5.0526681e-05
-4.1110985e-06
1.3317486e-05
5.0810177e-05
-1.7827651e-06
5.3280531e-05
-4.8392172e-07
2.0989411e-07
1.4270556e-05
1.3734754e-05
1.3150236e-05
1.2772968e-05
2.121519e-07
1.3836854e-05
1.4290341e-05
1.2862952e-05
1.3174434e-05
4.6773538e-07
1.3121836e-05
1.3041077e-05
1.281216e-05
1.2727768e-05
1.2721351e-05
1.263575e-05
1.309694e-05
1.3014686e-05
-2.3579289e-07
1.1114425e-06
-1.7573096e-06
3.1137328e-06
3.0302089e-06
3.6230579e-06
3.8130272e-06
-3.3654212e-08
5.7807027e-07
-9.6221775e-07
-1.5993227e-08
7.499467e-07
7.2779971e-07
9.6376139e-07
1.0161885e-06
5.794166e-07
2.0651006e-09
-9.7746403e-07
7.3363999e-07
7.5151408e-07
1.0188759e-06
9.7825852e-07
2.7554175e-08
3.3535272e-09
3.1655242e-06
3.10214e-06
-1.5502992e-08
4.1729833e-08
5.7973589e-07
-9.788937e-07
7.5333131e-07
7.3325799e-07
9.7809862e-07
1.0222516e-06
5.8032611e-07
1.2065174e-08
-9.6755848e-07
7.3000841e-07
7.4947446e-07
1.018162e-06
9.6844862e-07
-3.5400355e-08
1.2209571e-08
3.1247936e-06
3.1735795e-06
1.0969982e-06
-1.064038e-07
-1.7823241e-06
3.0430591e-06
3.1338191e-06
3.8341927e-06
3.6685354e-06
2.0697911e-07
-9.9779516e-08
1.2463214e-05
1.2211154e-05
-1.9726868e-08
5.8031083e-07
-9.6786983e-07
7.5115945e-07
7.2870127e-07
9.672696e-07
1.0195162e-06
5.800525e-07
2.6827207e-08
-9.7969979e-07
7.5178148e-07
7.3503426e-07
1.0213374e-06
9.7983763e-07
-1.7034986e-08
3.1259506e-06
2.4871741e-08
3.1771249e-06
5.9165793e-08
5.8010787e-07
-9.7862991e-07
7.5336e-07
7.3225019e-07
9.7749069e-07
1.0209633e-06
5.7856725e-07
1.9072942e-08
-9.6375846e-07
7.2967443e-07
7.4844319e-07
1.0154832e-06
9.6567402e-07
-4.9204998e-08
1.851008e-08
3.108212e-06
3.1706858e-06
-8.4619077e-08
1.1139283e-06
-5.2161617e-08
-1.7670555e-06
3.0279965e-06
3.1245452e-06
3.6310563e-06
3.829657e-06
1.0939272e-06
-1.7846205e-06
3.1288726e-06
3.0538176e-06
3.67757e-06
3.8368661e-06
-7.8352708e-08
-5.1380265e-08
1.2291666e-05
1.2494556e-05
-1.5295241e-07
1.1125164e-06
-1.7574887e-06
-4.2373232e-08
3.025144e-06
3.1191665e-06
3.8173934e-06
3.6190806e-06
1.0961514e-06
-2.0557544e-09
-1.782479e-06
3.1287521e-06
3.0484099e-06
3.6728963e-06
3.8302807e-06
1.3587878e-07
2.340911e-09
1.2464707e-05
1.2210983e-05
-1.094894e-06
1.4940475e-07
1.249399e-05
1.6727198e-07
-1.7846647e-06
3.0486807e-06
3.6734749e-06
3.1341401e-06
3.841044e-06
1.1130049e-06
-1.7670873e-06
3.1193491e-06
3.0332243e-06
3.6352603e-06
3.8255811e-06
1.2292711e-05
-2.880549e-08
5.788343e-07
-9.6372147e-07
7.5036182e-07
7.2774835e-07
1.0169645e-06
9.6414679e-07
5.797986e-07
1.1329344e-08
-9.7859867e-07
7.3413775e-07
7.5141325e-07
1.0194367e-06
9.7896522e-07
2.3627554e-08
1.1967108e-08
3.1708038e-06
3.1079081e-06
5.0179903e-08
5.8027129e-07
-9.7958044e-07
7.3306271e-07
9.7824732e-07
1.0227476e-06
7.5364547e-07
5.7995691e-07
-9.6776147e-07
7.4915064e-07
7.3054898e-07
9.6868772e-07
1.0179113e-06
-4.2716241e-08
3.1258925e-06
3.1766421e-06
-5.0868048e-05
-1.8918107e-07
6.3603476e-05
3.8198559e-06
3.6995117e-06
-3.1536082e-06
-3.0526626e-06
-1.8853143e-07
-6.4792152e-05
3.658215e-06
3.7233391e-06
-3.3471722e-06
-3.1880429e-06
5.1526876e-05
-6.5812161e-05
-3.2292916e-06
3.7652377e-06
-3.3199999e-06
3.6761716e-06
3.8488721e-06
-3.138509e-06
-1.5816099e-07
-5.2243313e-05
1.9684466e-07
-3.695806e-06
3.5685336e-06
-3.6111104e-06
3.4696063e-06
-5.1582059e-05
3.5926293e-06
-3.5894982e-06
-3.6573824e-06
1.7010514e-07
3.0086161e-06
2.9162982e-06
-4.1314327e-06
-4.2711884e-06
1.9847321e-07
2.9965119e-06
-4.2957975e-06
2.963329e-06
-4.1458647e-06
-5.2241539e-05
1.5223491e-07
3.4491431e-06
-3.6321348e-06
-3.6747751e-06
3.5886857e-06
1.4393525e-07
2.9418474e-06
-4.1666326e-06
3.0173597e-06
-4.2747868e-06
5.157537e-05
2.9373554e-06
2.9869882e-06
-4.2919727e-06
-4.1101132e-06
3.4519647e-06
-3.6780497e-06
3.571506e-06
-3.5677888e-06
1.3178095e-05
6.3686843e-08
-5.9030786e-08
5.769532e-07
-1.2069888e-06
5.9789708e-07
-1.2450136e-06
-5.7509096e-08
-1.3369603e-05
6.4071547e-08
1.6956488e-05
7.9489935e-07
7.7392474e-07
-1.0876954e-06
-1.0623282e-06
1.6658675e-05
-5.9044206e-08
7.6208892e-07
-1.0567216e-06
8.0279929e-07
-1.0755661e-06
6.529523e-08
5.9325347e-07
-1.2531345e-06
5.9128942e-07
-1.2103514e-06
-4.3919096e-08
-1.3244774e-05
1.6755704e-05
7.0178847e-08
7.9755001e-07
7.705599e-07
-1.0851518e-06
-1.0530348e-06
-1.3391776e-05
1.6985498e-05
7.6734191e-07
-1.0697511e-06
8.0295353e-07
-1.0825422e-06
-4.1497984e-08
7.0267198e-08
5.9341886e-07
5.8666468e-07
-1.2535077e-06
-1.2025135e-06
-1.2172668e-06
5.848197e-07
6.0177144e-07
-1.2480051e-06
1.3319262e-05
5.6890254e-08
-6.9575712e-08
8.9136833e-07
-9.0061251e-07
9.1448781e-07
-9.2558158e-07
5.6901971e-08
-6.3111782e-08
1.6693762e-05
9.181662e-07
9.5501781e-07
-8.3466898e-07
-8.433616e-07
-1.3168968e-05
1.6436857e-05
6.789443e-08
9.4654619e-07
9.1783553e-07
-8.4911332e-07
-8.2139546e-07
6.9608404e-08
9.0293487e-07
8.8912915e-07
-9.3420254e-07
-8.8983359e-07
1.3106872e-05
4.6619176e-08
-5.8686232e-08
8.8078394e-07
-8.933539e-07
9.081646e-07
-9.2467596e-07
-4.1185085e-08
-1.3298499e-05
1.6674295e-05
9.4795612e-07
9.2501317e-07
-8.4804979e-07
-8.2691712e-07
1.6352157e-05
-5.7368978e-08
9.1017495e-07
-8.2490557e-07
9.5217317e-07
-8.391415e-07
9.071795e-07
8.9856071e-07
-9.3021052e-07
-8.9312932e-07
1.2821891e-05
4.7289265e-08
-5.6908678e-08
9.3913265e-07
-7.7706025e-07
9.691887e-07
-8.0323469e-07
-4.502072e-08
-1.3009469e-05
1.6386111e-05
5.5672448e-08
9.6801369e-07
9.4336087e-07
-7.8509152e-07
-7.6605565e-07
1.6096682e-05
-5.7251294e-08
9.3146457e-07
-7.6178215e-07
9.7476213e-07
-7.736667e-07
6.0108333e-08
9.6552552e-07
9.5422147e-07
-8.1122286e-07
-7.7915122e-07
-3.7759549e-08
1.283879e-05
6.1230788e-08
9.7395981e-07
-7.8738208e-07
9.630663e-07
-7.550885e-07
1.2656375e-05
-5.6658845e-08
9.4588506e-07
-7.5585247e-07
9.7495796e-07
-7.8245915e-07
3.4237215e-08
-5.4567113e-08
-6.7185038e-07
-6.8288812e-07
1.5714124e-05
9.7515769e-07
1.0183161e-06
5.590082e-08
-6.9121401e-07
-6.7315017e-07
1.6019457e-05
9.8982295e-07
1.0148137e-06
1.8875764e-07
4.9838263e-05
-2.150692e-07
-2.9662292e-06
-3.0652995e-06
3.7965944e-06
3.6789955e-06
-5.6383804e-08
-1.2718155e-05
6.4186821e-08
-6.916632e-07
-6.6772516e-07
1.5804103e-05
9.8334572e-07
1.0141184e-06
-1.2860436e-05
-6.8003573e-07
-6.8609523e-07
1.6044631e-05
1.0220854e-06
9.8406892e-07
5.7589027e-08
-1.6413629e-05
9.5719729e-07
-7.6154641e-07
9.8177746e-07
-7.8220548e-07
5.0473827e-05
2.5164685e-07
-2.9697521e-06
-3.0959934e-06
3.7790036e-06
3.7334795e-06
-1.6189768e-05
6.6773085e-08
9.7097686e-07
-7.9015582e-07
9.5513513e-07
-7.512016e-07
-4.8642509e-08
-1.2882055e-05
6.7556941e-08
9.7095829e-07
-7.8162726e-07
9.4062754e-07
-7.5676684e-07
-1.3029498e-05
9.3800458e-07
-7.7235617e-07
9.7606501e-07
-7.7905536e-07
4.9079617e-08
9.4865382e-07
-7.8519225e-07
9.7374955e-07
-8.0549656e-07
6.7224934e-08
9.6557534e-07
-8.1063599e-07
9.4904958e-07
-7.7185657e-07
-1.8044705e-07
2.4708953e-07
6.3616907e-05
3.6745604e-06
3.7719189e-06
-3.0379985e-06
-2.9615778e-06
6.2640667e-05
-2.1225779e-07
3.8005649e-06
3.631595e-06
-2.9498232e-06
-2.9961453e-06
1.2881499e-05
5.7104478e-08
-1.6436065e-05
9.4177042e-07
-7.7879869e-07
9.7276225e-07
-8.0350981e-07
-5.7506668e-08
-1.3027335e-05
1.6410889e-05
9.6892812e-07
9.4481952e-07
-7.8606186e-07
-7.6498077e-07
1.6188859e-05
9.3362391e-07
-7.6394417e-07
9.7793845e-07
-7.7438573e-07
-1.669119e-05
9.6644647e-07
9.557887e-07
-8.1238413e-07
-7.7805179e-07
-4.4843013e-08
-1.2858034e-05
-6.929e-07
-6.7279899e-07
1.6041527e-05
9.9049248e-07
1.0153194e-06
-1.2717381e-05
-6.7475317e-07
-6.8461164e-07
1.5803056e-05
1.0206922e-06
9.7670075e-07
-4.7525616e-08
9.7449721e-07
-7.8902828e-07
9.6418535e-07
-7.5449768e-07
9.4793181e-07
-7.5807106e-07
9.7807211e-07
-7.8310989e-07
2.098096e-07
5.0467213e-05
-3.0690121e-06
-2.9958579e-06
3.7058325e-06
3.8052732e-06
4.9816152e-05
-2.9384943e-06
-3.0909045e-06
3.7679213e-06
3.7045862e-06
2.0806561e-07
6.3606567e-05
-2.9878885e-06
3.6486312e-06
3.7967493e-06
-3.0112843e-06
6.2611968e-05
3.6554616e-06
3.7733085e-06
-3.0212952e-06
-2.9217099e-06
-4.9155642e-05
1.4257533e-07
-1.9556238e-07
3.5758487e-06
-2.9241884e-06
-2.8745214e-06
3.7390286e-06
6.1499228e-05
1.4728189e-07
-2.0497327e-07
3.6394823e-06
3.7500704e-06
-2.928214e-06
-3.0329598e-06
0.00019727961
6.9550303e-07
-1.191322e-05
1.1467951e-05
1.2161533e-05
-1.2274336e-05
-4.9785105e-05
2.2595659e-07
6.2593107e-05
-2.8777999e-06
-2.9534145e-06
3.6282278e-06
3.7221115e-06
2.3716551e-07
3.7454922e-06
3.7023916e-06
-3.0500419e-06
-2.9217524e-06
5.2706091e-07
0.00024140829
1.1017509e-06
-0.00019720074
0.0002411428
1.1155737e-06
1.2088648e-05
-1.2361324e-05
-1.1819957e-05
1.1532309e-05
4.9777671e-05
2.2790138e-07
3.6767795e-06
3.7700572e-06
-3.0245006e-06
-2.946017e-06
2.1363606e-07
6.258274e-05
-2.9021835e-06
3.6040993e-06
3.7447612e-06
-2.9289663e-06
-4.9131405e-05
6.146942e-05
-2.947222e-06
3.7134654e-06
3.5975214e-06
-2.8484376e-06
-3.0566175e-06
3.7231265e-06
3.662998e-06
-2.9018368e-06
1.3168446e-05
5.241405e-08
-1.6755075e-05
8.8173406e-07
9.1022183e-07
-8.969322e-07
-9.2694938e-07
-5.0111973e-08
-1.3317265e-05
9.4784566e-07
9.2507516e-07
-8.504625e-07
-8.271955e-07
9.1077076e-07
-8.2868003e-07
9.5359068e-07
-8.4178847e-07
-1.6983297e-05
9.0707159e-07
8.9860455e-07
-9.3265257e-07
-8.933743e-07
1.3244426e-05
6.9299315e-08
5.7916711e-07
-1.2098291e-06
6.008169e-07
-1.2460402e-06
-6.6092145e-08
-1.3390217e-05
7.9565481e-07
-1.0897774e-06
7.7440007e-07
-1.062192e-06
7.6335833e-07
-1.0604413e-06
8.0473626e-07
-1.0777301e-06
5.9433737e-07
5.9225415e-07
-1.255265e-06
-1.2097788e-06
1.7651975e-08
-1.7089992e-08
-3.7047973e-07
-3.8519604e-07
4.180692e-06
6.6023288e-08
7.1358795e-08
-3.6436117e-07
-3.8687674e-07
4.1156497e-06
6.8812632e-08
6.6855979e-08
-1.0983796e-08
-3.8566759e-07
-3.6916301e-07
4.1740629e-06
6.9090196e-08
6.7849231e-08
-1.8659298e-08
-3.8445426e-07
-3.6461643e-07
4.09476e-06
6.443907e-08
7.0338028e-08
1.2054228e-08
-1.6459848e-08
-3.6591033e-07
-3.8543459e-07
4.1161837e-06
6.5025133e-08
7.0662843e-08
2.0247758e-08
-3.866973e-07
-3.6900007e-07
4.180948e-06
6.7864552e-08
6.9536192e-08
1.8626991e-08
-3.7069005e-07
-3.842201e-07
4.1743482e-06
6.601665e-08
7.091778e-08
-3.859425e-07
-3.6311927e-07
4.0947606e-06
6.6272526e-08
6.8500217e-08
1.391943e-08
-1.2918989e-08
-3.701341e-07
-3.8535889e-07
4.1763111e-06
6.6099644e-08
7.1092472e-08
-3.8661012e-07
-3.6478117e-07
4.1143536e-06
6.8958128e-08
6.6694139e-08
8.3772695e-09
-3.642894e-07
-3.8436365e-07
4.0866342e-06
-1.5668364e-08
6.4443353e-08
7.006645e-08
-3.8514655e-07
-3.6926457e-07
4.1676462e-06
6.9072524e-08
6.755864e-08
-7.4589988e-08
-1.1320026e-06
-1.2058558e-06
1.6040865e-05
3.6928496e-07
3.8266387e-07
-7.1414132e-08
-1.1984322e-06
-1.1572502e-06
1.6359739e-05
3.7015617e-07
3.9164706e-07
3.0269908e-08
-5.2025881e-08
-1.141992e-06
-1.2045465e-06
1.6140757e-05
3.6607196e-07
3.9039962e-07
-1.1509115e-06
-1.2075534e-06
1.6390305e-05
3.8754439e-07
3.7645088e-07
-7.9775751e-09
3.2659138e-08
-1.1531261e-06
-1.2025772e-06
1.6360746e-05
3.8650369e-07
3.7535573e-07
-1.2018252e-06
-1.1362865e-06
1.6042335e-05
-4.2351426e-08
3.6410383e-07
3.8790027e-07
5.2100981e-08
-1.1551357e-06
-1.2035231e-06
1.6390982e-05
3.9270487e-07
3.7128427e-07
-1.1378409e-06
-1.2086647e-06
1.6140944e-05
3.8521896e-07
3.7123958e-07
7.4294868e-07
1.1162336e-05
1.1208846e-05
0.00022095188
1.1124772e-05
1.1245917e-05
0.00022094016
9.853476e-07
-1.5138101e-05
-1.5240917e-05
-8.3124642e-07
0.00022485778
1.1834769e-05
1.1729007e-05
-1.5255036e-05
-1.5119163e-05
0.00022481079
1.1842983e-05
1.171628e-05
3.6969964e-06
-2.456202e-07
-4.9058586e-06
-4.9362908e-06
5.6119317e-05
1.5627613e-06
-4.0392491e-08
-1.3517133e-06
1.4929524e-05
-1.3511545e-06
-6.9175869e-08
1.4921319e-05
2.7332497e-07
-2.9746103e-07
5.3834066e-05
5.3823852e-05
-2.5355556e-08
-3.4483829e-07
1.0354198e-06
-1.8143494e-08
2.4482095e-06
-3.4442756e-07
1.1592872e-08
1.063714e-06
2.4634628e-06
-2.1695927e-08
-9.6478045e-08
-1.9085086e-08
5.7665972e-07
7.0141844e-07
5.9512463e-07
7.3587051e-07
1.3033303e-08
-9.709838e-08
7.3673456e-07
7.0810932e-07
5.9581292e-07
5.8163053e-07
4.370108e-08
-3.4499906e-07
1.0683136e-06
2.4650088e-06
-3.4572026e-07
1.0344794e-06
2.4522438e-06
4.5038761e-08
-9.7111616e-08
5.8050745e-07
7.0730517e-07
5.979065e-07
7.3858503e-07
-9.6665789e-08
7.3524223e-07
7.0403e-07
5.9384192e-07
5.7933521e-07
-1.8302084e-08
4.7435994e-07
-1.7877273e-08
5.3384866e-07
5.4164241e-07
5.5935804e-07
5.5157832e-07
4.7990833e-07
1.2509733e-08
5.4666844e-07
5.5990609e-07
5.3916555e-07
5.524005e-07
2.0826165e-08
1.1390037e-08
5.3452872e-07
7.1751959e-07
7.0072734e-07
5.2139376e-07
-1.737866e-08
6.9483713e-07
5.1651111e-07
5.3369869e-07
7.1705298e-07
4.1657435e-08
-4.8061258e-07
5.2042539e-07
5.3658817e-07
7.1979375e-07
6.9974582e-07
-4.7614463e-07
7.1586874e-07
5.3257402e-07
5.1917451e-07
6.9763745e-07
4.061331e-08
5.621015e-07
5.456234e-07
5.5456202e-07
5.3821792e-07
5.4432391e-07
5.5817092e-07
5.3660203e-07
5.5057821e-07
-5.0210975e-08
-7.9879059e-09
-3.3627199e-10
3.5245494e-06
3.5893131e-06
2.9013395e-06
2.89887e-06
-6.7210138e-08
-5.9034984e-09
-3.0165668e-09
3.5941211e-06
3.5165819e-06
2.8921541e-06
2.9059972e-06
3.5309665e-06
3.1490866e-07
-3.6219256e-06
-3.5410878e-06
-1.8228211e-07
5.3173727e-05
1.7948555e-06
1.8106398e-06
2.9285301e-07
-2.0978782e-07
6.5380506e-05
-3.5257976e-06
6.533848e-05
-3.6506539e-06
-3.5000408e-06
5.3144849e-05
1.7824174e-06
1.8171304e-06
-2.0375396e-07
-3.6971645e-06
5.3838318e-05
-3.6971924e-06
5.3838217e-05
-2.5042972e-07
2.1314673e-07
-2.0673588e-07
-4.9098671e-06
-4.931874e-06
5.6125217e-05
1.5651624e-06
1.5904069e-06
1.6822991e-08
-1.3500301e-06
-5.8040515e-08
1.4916116e-05
5.0363513e-08
-1.3514601e-06
1.4927787e-05
-4.9071641e-06
-4.9356745e-06
5.6124086e-05
1.5641485e-06
1.592136e-06
6.9324928e-08
-1.3518964e-06
1.4930064e-05
-1.351122e-06
1.4922636e-05
2.2690758e-07
-1.3241235e-06
-1.0203588e-07
1.1803093e-05
-1.3190094e-06
1.173279e-05
-2.1009558e-07
-4.9377858e-07
1.2119064e-05
-4.9223036e-07
-9.3632251e-08
1.2180315e-05
2.5079995e-08
-1.0333037e-06
-1.0637625e-06
-5.638745e-08
3.593114e-06
3.5159878e-06
2.8921383e-06
2.9050189e-06
-5.4285218e-09
-3.5756194e-09
4.9825162e-08
-1.0659748e-06
-1.0359487e-06
3.5239358e-06
3.5897523e-06
2.9019051e-06
2.898666e-06
-7.4126004e-09
-1.2210143e-09
-8.4177788e-08
-1.0696067e-06
-1.0296386e-06
3.5223714e-06
3.5884917e-06
2.9006119e-06
2.8977374e-06
-8.5197516e-09
-3.6984744e-10
-1.0403885e-06
-1.0625071e-06
3.5953719e-06
3.519183e-06
2.8936313e-06
2.9070772e-06
-5.8669887e-09
-2.4676069e-09
3.8171196e-07
-2.1792043e-07
3.2105115e-06
3.0967887e-06
2.8927696e-06
2.8210469e-06
-2.926781e-08
-3.4449833e-07
2.4476828e-06
-1.5204789e-08
-3.4409178e-07
3.7921974e-09
2.4624862e-06
-2.5912768e-08
-9.6491146e-08
-1.5993241e-08
7.3556199e-07
7.0133878e-07
5.766802e-07
5.9481068e-07
4.779033e-09
-9.6993933e-08
5.9585774e-07
7.3656536e-07
7.077944e-07
5.8116981e-07
3.7367438e-08
-3.4483728e-07
2.4644989e-06
-3.4561221e-07
1.2596933e-08
2.4518573e-06
3.7664049e-08
-9.7082886e-08
5.8066271e-07
7.0736108e-07
5.9749517e-07
7.3821824e-07
-9.6536449e-08
1.3376279e-08
7.3542484e-07
7.0367352e-07
5.942225e-07
5.7878976e-07
-2.2178264e-08
4.7375041e-07
-1.4979886e-08
5.4162813e-07
5.5892653e-07
5.5111642e-07
5.3379993e-07
4.7945761e-07
4.8469115e-09
5.6001302e-07
5.4617516e-07
5.3865938e-07
5.5248163e-07
-2.4863788e-08
-1.4564117e-08
6.9484263e-07
5.1646177e-07
5.3325756e-07
7.1651505e-07
3.5796003e-09
7.1765888e-07
5.3459718e-07
5.2087304e-07
7.0037315e-07
-2.0872515e-07
2.7251107e-06
2.9164023e-06
2.7943654e-06
2.9936648e-06
3.8719372e-07
-1.0058703e-07
3.1128337e-06
3.2240347e-06
2.8304778e-06
2.9108917e-06
-9.7022113e-08
2.8128835e-06
2.7340373e-06
2.9272387e-06
3.0119387e-06
4.8037775e-07
3.3856054e-08
5.4566489e-07
5.6176538e-07
5.5421686e-07
5.3825256e-07
3.4643531e-08
6.9978337e-07
5.2047661e-07
5.3623802e-07
7.1948617e-07
-4.7606032e-07
1.1729168e-08
7.1614778e-07
5.3282019e-07
5.1866226e-07
6.9719721e-07
1.2536411e-08
5.4385812e-07
5.5841207e-07
5.3622474e-07
5.5072865e-07
-7.4270109e-08
3.8568867e-07
4.9475122e-07
-5.3446274e-08
3.0965424e-06
3.2192207e-06
2.8181983e-06
2.9035233e-06
3.8841871e-07
4.910142e-07
3.2217614e-06
3.1206271e-06
2.9058087e-06
2.8405533e-06
-7.1574625e-08
-5.013098e-08
2.7226191e-06
2.914782e-06
2.8051141e-06
3.0043084e-06
2.8079251e-06
2.7443674e-06
3.0074047e-06
2.9376145e-06
9.4995733e-08
-1.3258044e-06
1.1812555e-05
-1.3252602e-06
-5.2498641e-08
1.1752958e-05
7.5692684e-08
1.2191204e-05
-4.9748029e-08
1.2136498e-05
-1.8530961e-08
-3.459353e-07
2.4523798e-06
-3.4478693e-07
2.4695176e-08
2.4653273e-06
-1.4844335e-08
-9.658039e-08
7.36763e-07
7.0262454e-07
5.7750789e-07
5.9579259e-07
2.5067947e-08
-9.7162014e-08
5.9606752e-07
7.3719958e-07
7.0881899e-07
5.8242531e-07
5.0468999e-08
-3.4465819e-07
2.4634093e-06
-3.4464151e-07
2.4483437e-06
5.180686e-08
-9.7021136e-08
5.7977822e-07
7.0667269e-07
5.9771547e-07
7.3819764e-07
-9.6540345e-08
7.3443207e-07
7.0289711e-07
5.9324467e-07
5.7854635e-07
4.6289811e-08
4.7997066e-07
-2.3176671e-08
5.617962e-07
5.4482462e-07
5.3736879e-07
5.5421444e-07
4.7435474e-07
5.4351575e-07
5.5748574e-07
5.4978117e-07
5.356734e-07
4.812139e-08
-2.3363153e-08
6.9893309e-07
5.1962511e-07
5.3628808e-07
7.1936555e-07
5.182989e-07
5.3194706e-07
7.1522941e-07
6.9666503e-07
4.7622578e-07
-1.2543792e-08
5.6010563e-07
5.425018e-07
5.3483207e-07
5.5244121e-07
-1.4285874e-08
6.9588213e-07
5.1743888e-07
5.3438896e-07
7.1777551e-07
4.8062914e-07
5.4752266e-07
5.6026516e-07
5.5280425e-07
5.4007235e-07
5.2224887e-07
5.3488363e-07
7.1802309e-07
7.0161631e-07
3.5261673e-06
5.0009094e-08
-3.6346877e-06
-3.5161382e-06
5.3149081e-05
1.7967798e-06
1.8028844e-06
4.2819331e-08
6.5343254e-05
-3.5307509e-06
6.5382749e-05
-3.525194e-06
-3.6380896e-06
5.317516e-05
1.7903889e-06
1.8152202e-06
1.5242002e-07
-1.3237412e-06
3.1465651e-09
1.1804028e-05
-1.3194697e-06
1.1733214e-05
1.3141512e-07
5.7786308e-09
-4.9162156e-07
1.2180895e-05
-4.9445121e-07
1.2119783e-05
-1.6925218e-07
-1.3249254e-06
1.1753334e-05
-1.3263043e-06
1.1812466e-05
-1.5414856e-07
-4.9416061e-07
1.213657e-05
-4.9170352e-07
1.2191455e-05
3.8854577e-07
1.5872417e-07
-6.1228532e-09
3.1167974e-06
2.8352053e-06
3.2257532e-06
2.9112098e-06
1.5073134e-07
-3.2688463e-09
2.7389858e-06
2.932473e-06
2.8133258e-06
3.0126937e-06
3.8564114e-07
3.2153064e-06
3.1004922e-06
2.8981902e-06
2.823634e-06
2.9990845e-06
2.9200079e-06
2.7997554e-06
2.7280631e-06
3.8183623e-07
-1.3324231e-07
3.0929962e-06
3.2146544e-06
2.8983148e-06
2.8157438e-06
-1.2935584e-07
-4.0738704e-08
2.7197916e-06
2.7999288e-06
2.9113348e-06
2.9991253e-06
3.871317e-07
2.9056701e-06
2.8360222e-06
3.2202433e-06
3.1168736e-06
2.8076532e-06
3.0068491e-06
2.7396064e-06
2.9325945e-06
5.9122082e-08
5.7966953e-07
-2.9948447e-08
-9.7746663e-07
7.5314233e-07
7.3204693e-07
9.7700759e-07
1.0201472e-06
5.7784333e-07
-9.6223933e-07
7.2941479e-07
7.4833175e-07
1.0149386e-06
9.6504008e-07
-4.8987614e-08
3.1023818e-06
-2.7533434e-08
3.1653863e-06
8.107887e-09
2.4281544e-07
8.8384187e-10
-5.4556589e-07
1.0437036e-06
2.3993052e-07
-5.3568072e-07
-4.4565372e-09
1.0361143e-06
-6.0301066e-09
8.4967412e-07
-4.2443024e-09
1.1776917e-09
8.6743049e-07
-1.0818882e-08
2.4121345e-07
3.0946606e-09
-5.3861287e-07
1.0387608e-06
2.4307324e-07
-5.463108e-07
1.0448171e-06
8.621745e-09
8.6935798e-07
3.1363324e-09
8.5569102e-07
5.2907809e-09
2.4330465e-07
6.3960693e-09
-5.4673625e-07
1.0450701e-06
2.4126779e-07
-5.3877809e-07
1.0391531e-06
-3.9025696e-09
8.5627051e-07
5.9482082e-09
8.7034376e-07
-1.4913509e-08
2.4027797e-07
4.381313e-09
-5.3645068e-07
1.036706e-06
2.4311051e-07
-5.4628155e-07
1.0441255e-06
1.186845e-08
8.6874177e-07
4.2768063e-09
8.5153555e-07
-1.6163228e-08
5.8060401e-07
-2.0097333e-08
-9.6759766e-07
7.5114538e-07
7.2843993e-07
9.6723212e-07
1.0194846e-06
5.7953964e-07
-9.7895486e-07
7.3490216e-07
7.5175146e-07
1.0210456e-06