/*--------------------------------*- C++ -*----------------------------------*\
  =========                 |
  \\      /  F ield         | OpenFOAM: The Open Source CFD Toolbox
   \\    /   O peration     | Website:  https://openfoam.org
    \\  /    A nd           | Version:  7
     \\/     M anipulation  |
\*---------------------------------------------------------------------------*/
FoamFile
{
    version     2.0;
    format      ascii;
    class       volVectorField;
    location    "0";
    object      U;
}
// * * * * * * * * * * * * * * * * * * * * * * * * * * * * * * * * * * * * * //

dimensions      [0 1 -1 0 0 0 0];

internalField   nonuniform List<vector> 
34378
(
(0.089000495 -0.00040901799 -0.0006624851)
(0.088782594 -0.00041046343 0.0002161111)
(0.087828723 -0.00030859272 -0.0019992331)
(0.088961494 -0.00027724161 -0.00066401146)
(0.08886241 -0.00037302837 -0.0023850948)
(0.087827928 -0.0005320126 -0.0019968448)
(0.090831899 -0.00026234101 -0.0019591968)
(0.087994945 -0.00048318192 0.0016781426)
(0.086671829 -0.00057856713 -0.00022410726)
(0.087995346 -0.00035873282 0.0016784878)
(0.086671727 -0.00026293845 -0.00022453075)
(0.088743169 -0.00027784898 0.00021566412)
(0.085843748 -0.0002385072 -0.0045241199)
(0.085969612 -0.00043954974 -0.0044229869)
(0.088240527 -0.0003532509 -0.0043926623)
(0.087807978 -0.00030544344 -0.0044969482)
(0.087818747 -0.00038990536 -0.0019993258)
(0.087817634 -0.00018788669 -0.0020006962)
(0.088851926 -0.00025276914 -0.0023839954)
(0.088858193 -0.00032521472 -0.0023787213)
(0.085966866 -0.00039505699 -0.0044234987)
(0.088231173 -0.00048122226 -0.0043975267)
(0.092287521 -0.00030079998 -0.0011817462)
(0.0923922 -0.00040098757 0.00052445352)
(0.090926197 -0.00034983157 0.00060440343)
(0.091443609 -0.0003079341 -0.0049197138)
(0.09144959 -0.0005185051 -0.0049199519)
(0.091312045 -9.9713476e-05 -0.0050364958)
(0.090835904 -0.00043676353 -0.0019588289)
(0.090837091 -0.00014376508 -0.00195934)
(0.087731373 -0.00044020914 0.0039149904)
(0.088152166 -0.000507904 0.0036757201)
(0.087720011 -0.00055772226 0.0037133452)
(0.082411348 -0.00023055088 -0.0017433544)
(0.084280832 -0.00035395543 0.0028933217)
(0.087985852 -0.00034047682 0.0016774031)
(0.088157872 -0.00032881396 0.0036711239)
(0.087723824 -0.00028406571 0.0037167177)
(0.087653209 -0.00031771096 0.0039847784)
(0.087733338 -0.0003948042 0.0039145601)
(0.084160922 -0.00023191593 0.0028990467)
(0.08428274 -0.00048101705 0.0028925837)
(0.082251441 -9.3302442e-05 -0.0017528711)
(0.086662095 -0.00043597579 -0.00022385872)
(0.082414732 -0.00060469758 -0.0017440177)
(0.087984489 -0.00023766884 0.0016777457)
(0.086660461 -0.00014198693 -0.00022412517)
(0.084025318 -0.00025113498 -0.0099505761)
(0.084128381 -0.00036652374 -0.0098412056)
(0.085843498 -0.00045953332 -0.0045229406)
(0.087105527 -0.00031616975 -0.0087108038)
(0.086694572 -0.00030768962 -0.0087910042)
(0.0841974 -0.00033060461 -0.0098185722)
(0.084070858 -0.00050313528 -0.0099181671)
(0.086759189 -0.00046401545 -0.0087674044)
(0.087158238 -0.00041966333 -0.0086719208)
(0.087814682 -0.00039440539 -0.0044901622)
(0.088236015 -0.00035034244 -0.0043975395)
(0.085970849 -0.00026386944 -0.0044251148)
(0.085843939 -0.00012236463 -0.0045250364)
(0.087809268 -0.00018919574 -0.0044961333)
(0.085970766 -0.00031468127 -0.0044246087)
(0.08824058 -0.00022835678 -0.0043936934)
(0.084067595 -0.00032677625 -0.009919881)
(0.084192161 -0.00049962627 -0.0098159722)
(0.086747466 -0.00036844614 -0.0087754065)
(0.087159401 -0.00041075585 -0.0086653285)
(0.092407888 -0.00025479717 0.00052779043)
(0.092304112 -0.00018766294 -0.0011822241)
(0.092296994 -0.00038321752 -0.0011827533)
(0.094020163 -0.00025319122 -0.0034598099)
(0.094064743 -0.00057582574 -0.0035387484)
(0.094879233 -0.0002928445 -0.00096620587)
(0.094949214 -0.00038959445 -0.0008550186)
(0.094239547 -0.00038828626 0.0011351142)
(0.093113821 -0.00035793484 0.0016107584)
(0.09314488 -0.00025564391 0.0016996693)
(0.094173055 -0.00038210353 0.0012351233)
(0.091707252 -0.00036251142 0.0011544674)
(0.094162966 -0.00039667428 0.0012374865)
(0.093133711 -0.00050149943 0.0016977982)
(0.091681224 -0.00036130285 0.0011513382)
(0.090597691 -0.00036339742 0.0016150411)
(0.090568625 -0.00030305999 0.001619496)
(0.090585878 -0.00031643575 0.00017309433)
(0.090558157 -0.00035470599 0.00016892426)
(0.090849838 -0.00038087288 0.00027688967)
(0.090874792 -0.00034568104 0.00027374628)
(0.094871237 -0.00050509782 -0.00096723839)
(0.09405861 -0.0002388741 -0.0035382031)
(0.092332289 -0.00069296392 -0.0097703204)
(0.092208592 -7.9574313e-05 -0.0098871727)
(0.092338999 -0.00013168035 -0.0097714137)
(0.09221352 -0.00074478086 -0.0098866982)
(0.092318444 -0.00054479368 -0.0097841323)
(0.092185473 1.3097039e-05 -0.0099155975)
(0.091316256 -0.0005948486 -0.0050359975)
(0.091456916 -0.00017962498 -0.0049206783)
(0.091319937 1.4818739e-05 -0.0050369721)
(0.09145943 -0.00039675324 -0.0049208655)
(0.090781877 -0.00037961427 0.0021745705)
(0.090774817 -0.00045703667 0.0021746201)
(0.08865293 -0.00044306113 0.0061643165)
(0.089909169 -0.00031449121 0.0038921681)
(0.089821397 -0.00062351419 0.0038788807)
(0.076199341 -0.00011283008 0.0023478288)
(0.076346978 -0.00072913291 0.0023479975)
(0.075472837 -2.1511185e-05 -0.0065517139)
(0.075655207 -0.0008081465 -0.006536443)
(0.083370524 -0.00040168328 0.0074807608)
(0.082952803 -0.00035396139 0.0075188135)
(0.081514481 -0.00059817627 0.0058667305)
(0.081412438 -0.00024136204 0.0059333859)
(0.087735628 -0.00030873835 0.0039156695)
(0.088156931 -0.00037635207 0.003674869)
(0.087725931 -0.00041491195 0.0037134793)
(0.087653699 -0.00038080549 0.0039847279)
(0.089914567 -0.00051341816 0.0038917207)
(0.089835292 -0.00020937615 0.0038800762)
(0.088620271 -0.00034763929 0.0061779914)
(0.088657502 -0.00038599238 0.0061643353)
(0.084161439 -0.00046669887 0.0028982906)
(0.083328782 -0.00027454486 0.0074915364)
(0.082903891 -0.00027616374 0.0075331165)
(0.081391598 -0.00017086454 0.0059510428)
(0.081464293 -0.00049029872 0.0058751313)
(0.08295863 -0.0004774931 0.0075141076)
(0.083371636 -0.00043112397 0.0074870352)
(0.081415774 -0.00058967432 0.0059326993)
(0.08151989 -0.00023290359 0.0058685565)
(0.07616002 -4.028482e-05 0.0023494212)
(0.076289296 -0.00061665388 0.0023457325)
(0.075416538 5.4692728e-05 -0.0065664885)
(0.082251158 -0.00060469137 -0.0017532577)
(0.075588501 -0.00068150633 -0.0065433683)
(0.082414702 -9.9069888e-05 -0.0017438616)
(0.084284139 -0.00022246904 0.0028929676)
(0.076352119 -0.00010163023 0.0023487418)
(0.076203598 -0.00071834607 0.0023471978)
(0.075476088 -0.00080871842 -0.0065523448)
(0.075658903 -2.2701983e-05 -0.0065371262)
(0.087653896 -0.00020132216 0.0039853348)
(0.087724749 -0.00016773439 0.0037159412)
(0.088158985 -0.00020332806 0.003671388)
(0.087735036 -0.00026957221 0.0039153441)
(0.084160922 -0.00011549737 0.0028987881)
(0.084283552 -0.00035589446 0.0028924271)
(0.082415116 -0.00047962809 -0.0017441816)
(0.082251134 2.2944204e-05 -0.001753069)
(0.084027005 -0.00044484888 -0.0099489821)
(0.084108142 -0.00038566766 -0.019468649)
(0.084168561 -0.00023205815 -0.019352)
(0.086632366 -0.00030475763 -0.015412997)
(0.086254736 -0.00031048333 -0.015493705)
(0.084238058 -0.000421848 -0.019323797)
(0.084141676 -0.00031204373 -0.01942806)
(0.086312711 -0.00041203405 -0.015473487)
(0.086683523 -0.00039721707 -0.015363277)
(0.084131021 -0.00032986918 -0.0098429393)
(0.087102675 -0.00038062178 -0.0087159715)
(0.086703186 -0.0003905769 -0.0087839697)
(0.084174198 -0.00040123146 -0.019420405)
(0.08425595 -0.00031467199 -0.019316664)
(0.086336807 -0.00032145101 -0.015461294)
(0.086714028 -0.0003598283 -0.015363927)
(0.084197201 -0.00051180562 -0.019338427)
(0.084131371 -0.00037253177 -0.019453066)
(0.086289269 -0.00045400467 -0.015479715)
(0.086657584 -0.00045438133 -0.015400464)
(0.084077131 -0.00019911006 -0.0099217471)
(0.084202475 -0.0003672787 -0.0098187112)
(0.086758515 -0.00024056853 -0.0087755969)
(0.087168934 -0.00027844792 -0.008667743)
(0.084030125 -0.00013741093 -0.009951729)
(0.084133652 -0.00024912469 -0.0098429696)
(0.087110052 -0.00019869698 -0.0087125168)
(0.08670067 -0.00019369478 -0.0087907657)
(0.087165953 -0.00029968818 -0.00867226)
(0.084204011 -0.00021054642 -0.0098201339)
(0.084078189 -0.00037846392 -0.009920458)
(0.086765478 -0.00033890163 -0.0087698165)
(0.08412874 -0.00045420639 -0.019454666)
(0.084193537 -0.00031382778 -0.019336417)
(0.086659111 -0.00037203198 -0.015395335)
(0.086279692 -0.00037582259 -0.015486891)
(0.084249815 -0.00051126128 -0.019315948)
(0.084167067 -0.00042671834 -0.019415969)
(0.086336667 -0.00050940383 -0.015452261)
(0.086702498 -0.00046674272 -0.015367473)
(0.093122597 -0.00028726818 0.0016130474)
(0.094246802 -0.00027385125 0.0011358428)
(0.094195454 -0.00028156215 0.0012377578)
(0.093171328 -0.00039156402 0.001699157)
(0.094902719 -0.00017814292 -0.00096625878)
(0.094968743 -0.00028095821 -0.0008544063)
(0.094033543 -0.00014128127 -0.0034602946)
(0.094081387 -0.0004572465 -0.0035390235)
(0.094898798 -0.00038519201 -0.00096667536)
(0.094078749 -0.00011428049 -0.003538886)
(0.094024107 -0.00043348115 -0.0034601537)
(0.094954533 -0.0002860521 -0.0008529119)
(0.096410388 -0.00015626753 -0.0076747979)
(0.098777156 -0.00027238739 -0.0042055325)
(0.098848966 -0.00035375174 -0.0041053492)
(0.096450296 -0.00066068219 -0.0077312622)
(0.098849955 -0.00037884219 -0.0041116258)
(0.098785231 -0.00043484107 -0.00420892)
(0.096416152 -0.00060753616 -0.0076608931)
(0.096457013 -0.00011512983 -0.0077189494)
(0.098269543 -0.00040230387 -9.379056e-05)
(0.09668557 -0.00052215137 0.00095177782)
(0.096633804 -0.00031872021 0.00086564396)
(0.098326529 -0.00035628973 -0.00020532359)
(0.098333434 -0.00040038233 -0.00016410855)
(0.096712936 -0.00019522416 0.00099883118)
(0.096681072 -0.00039918555 0.00091002634)
(0.098265549 -0.00040261022 -5.5947541e-05)
(0.095600607 -0.00042473558 0.0019619921)
(0.094391197 -0.00022610427 0.002107112)
(0.094450691 -0.0003675463 0.0022237009)
(0.095635711 -0.00037031629 0.0018556688)
(0.093764718 -0.00037015928 0.0024880877)
(0.093819533 -0.00037776213 0.0023961964)
(0.09309961 -0.00031543801 0.0025425589)
(0.09313601 -0.00024013158 0.0026281678)
(0.092416736 -0.00039278945 0.001933336)
(0.093094268 -0.00036536774 0.0025429427)
(0.093133926 -0.00041786796 0.002622415)
(0.09376821 -0.00035855154 0.002493212)
(0.092449041 -0.0003730601 0.0018330936)
(0.093818632 -0.00033798674 0.0024047239)
(0.094441843 -0.00033009533 0.0022608704)
(0.094393539 -0.0004195418 0.0021418149)
(0.095608387 -0.00036191325 0.001896635)
(0.095553799 -0.00031088362 0.001999428)
(0.091511973 -0.00026769901 0.0019943309)
(0.091578721 -0.00033994258 0.0021033036)
(0.095549513 -0.00047252858 0.0019999184)
(0.094377501 -0.00035409967 0.0021426031)
(0.094437366 -0.00044333721 0.0022591486)
(0.095593028 -0.00042257329 0.0018967887)
(0.093116473 -0.00033346279 0.0026234224)
(0.093087969 -0.00038575718 0.0025412568)
(0.093752259 -0.00040404115 0.0024915705)
(0.093812782 -0.00042512252 0.0024038548)
(0.092436981 -0.00036081821 0.0018338314)
(0.092378627 -0.00034339357 0.0019313711)
(0.091498489 -0.00043916322 0.0019919607)
(0.091537283 -0.00036938213 0.0021055107)
(0.090240506 -0.00030611317 0.0025842068)
(0.091100764 -0.00033822295 0.0022060136)
(0.08962728 -0.00034919473 0.0010075966)
(0.090288339 -0.00022098783 0.0026745439)
(0.091037061 -0.00034379671 0.002307434)
(0.088360045 -0.00025144361 0.0018134373)
(0.088336714 -0.00029289469 0.0018224595)
(0.089597759 -0.00025727247 0.0010038151)
(0.091022162 -0.00033493993 0.0023103181)
(0.090273807 -0.00042823111 0.0026718965)
(0.090196642 -0.00034499591 0.002585802)
(0.091058196 -0.00034365485 0.0022050772)
(0.098322535 -0.00044621266 -0.0002061418)
(0.096670966 -0.0002716429 0.00095286522)
(0.096629385 -0.00047421226 0.0008643707)
(0.098256246 -0.00040011102 -9.4968838e-05)
(0.096413322 -0.00021025743 -0.0076609366)
(0.098772417 -0.00037574838 -0.0042085284)
(0.098847193 -0.00043184923 -0.0041137743)
(0.096446797 -0.0007033957 -0.0077182523)
(0.093920479 -0.00012851668 -0.016391933)
(0.093799688 -0.00087900469 -0.01651626)
(0.093904849 -0.0006818025 -0.016405685)
(0.093781098 1.6592157e-05 -0.016546823)
(0.093808356 5.4474276e-05 -0.016518954)
(0.093928423 -0.00069426726 -0.016393101)
(0.093908805 -0.0001405873 -0.016406249)
(0.093784203 -0.00084001319 -0.016545919)
(0.093914088 -2.4313317e-05 -0.016400588)
(0.093798315 -0.00075642085 -0.016520093)
(0.09376731 8.8866209e-05 -0.016553108)
(0.093892477 -0.00059090261 -0.016409339)
(0.092188928 -0.00070612683 -0.0099149577)
(0.092322232 -0.00014827376 -0.0097845346)
(0.092223406 4.6418765e-05 -0.0098887827)
(0.092348364 -0.00056297186 -0.0097723703)
(0.092328217 -0.00042888709 -0.0097854782)
(0.092194543 0.00012584116 -0.0099166573)
(0.092350481 -1.2853296e-05 -0.0097728447)
(0.092225931 -0.00062207361 -0.0098884864)
(0.09078668 -0.00025959567 0.002174636)
(0.090784812 -0.00032148132 0.002174772)
(0.092324847 -0.00037221352 0.0021046106)
(0.092309247 -0.00043950515 0.0021045435)
(0.09221245 -0.0004290106 0.0082750846)
(0.08542098 -0.00064760837 0.009108202)
(0.085347194 -0.0001999568 0.0090957932)
(0.091870417 -0.00028570588 0.0048078732)
(0.091842587 -0.00061052765 0.0048107293)
(0.072262078 -0.00034111896 0.010258235)
(0.072683437 -0.00034126868 0.010210384)
(0.068275035 -4.7365491e-06 0.0043924598)
(0.068392468 -0.00077535296 0.0043057062)
(0.072726221 -0.00048431714 0.010206388)
(0.072319412 -0.00053722548 0.01023643)
(0.068444895 -6.6166445e-05 0.0042987928)
(0.068319725 -0.00087708935 0.0043746408)
(0.062987671 0.00032525559 -0.0043986413)
(0.063180534 -0.0011069944 -0.0043811973)
(0.06872556 -0.00069253295 -0.018297974)
(0.068566975 -5.4296981e-05 -0.018353368)
(0.06878363 -0.00013066995 -0.018289089)
(0.068622563 -0.00082612828 -0.018325453)
(0.063245109 0.00026635996 -0.0043764369)
(0.063054618 -0.0012083952 -0.0043914452)
(0.080323453 -0.0004408875 0.011227678)
(0.080283913 -0.00041402172 0.011243509)
(0.088665385 -0.00031348959 0.0061650776)
(0.089922698 -0.0001856211 0.0038923331)
(0.089838432 -0.00048550599 0.003879639)
(0.088622949 -0.000348069 0.0061780485)
(0.091876974 -0.00053056732 0.0048089679)
(0.091863323 -0.00021018065 0.0048104899)
(0.092213887 -0.00035532458 0.0082788496)
(0.085332146 -0.00012333446 0.0091046974)
(0.085412629 -0.00054372213 0.0091150558)
(0.092219338 -0.00038798503 0.0082755652)
(0.085427167 -0.00017925813 0.009109536)
(0.085350677 -0.00062608214 0.009094971)
(0.083328359 -0.0004238411 0.0074967329)
(0.082908261 -0.00042102687 0.0075291199)
(0.081393465 -0.00052576536 0.0059503306)
(0.081467285 -0.0002065108 0.0058764124)
(0.080271592 -0.00033946034 0.01124879)
(0.080311877 -0.00034681623 0.011231661)
(0.080286537 -0.00041297283 0.011243463)
(0.080329975 -0.00038695497 0.011228812)
(0.076162315 -0.00065626911 0.0023487699)
(0.072240824 -0.00027164307 0.010258817)
(0.072663487 -0.00026078865 0.010212639)
(0.068254331 6.4073991e-05 0.0043948086)
(0.068367215 -0.00069488359 0.0043068744)
(0.07271075 -0.00039710988 0.010206029)
(0.072302813 -0.00042620252 0.010237758)
(0.068433608 2.1000176e-05 0.0043003575)
(0.068294789 -0.00076670108 0.0043747426)
(0.062958652 0.00039404849 -0.0044060066)
(0.063147005 -0.001025024 -0.0043895357)
(0.068539904 1.5510348e-05 -0.018366373)
(0.068695131 -0.00060615146 -0.018309753)
(0.075418097 -0.00075055731 -0.0065668172)
(0.076291708 -7.9898939e-05 0.0023462298)
(0.075589872 -1.5175395e-05 -0.0065436051)
(0.06322987 0.00035486849 -0.0043818976)
(0.068768826 -3.5863646e-05 -0.018297402)
(0.068595435 -0.00070491466 -0.018330159)
(0.063024081 -0.0010943385 -0.0043961423)
(0.076207475 1.5312847e-05 0.0023473471)
(0.076355588 -0.00059650115 0.0023477184)
(0.075481014 0.00010641384 -0.0065532146)
(0.075663726 -0.00067553387 -0.0065380687)
(0.083379736 -0.00026864806 0.0074823428)
(0.08296228 -0.00022591082 0.0075187652)
(0.081524022 -0.00046543536 0.0058677543)
(0.081421232 -0.00011325669 0.0059339673)
(0.072323824 -0.00029414487 0.010241072)
(0.072733517 -0.00034599946 0.010201828)
(0.068324071 4.7522491e-05 0.0043743086)
(0.06844911 -0.00076112319 0.0042987818)
(0.072684466 -0.00048883944 0.010215505)
(0.072265948 -0.00048940613 0.010254377)
(0.068395925 -5.157276e-05 0.0043054406)
(0.068278265 -0.00082378779 0.0043925739)
(0.063183458 0.00028045124 -0.0043816496)
(0.062990846 -0.0011534192 -0.0043989033)
(0.068727473 -0.00013389029 -0.018299493)
(0.06856951 -0.00077280427 -0.018353334)
(0.063058101 0.00037896835 -0.004392459)
(0.068627527 -2.2076858e-06 -0.018328261)
(0.063248803 -0.0010933166 -0.0043772834)
(0.068789184 -0.00069609529 -0.018290338)
(0.088627486 -0.0002322809 0.0061785182)
(0.089843299 -9.4549492e-05 0.0038801135)
(0.089924805 -0.00039117515 0.0038921439)
(0.088666926 -0.00026388592 0.0061650472)
(0.083333373 -0.00015651517 0.0074928301)
(0.082908953 -0.00016212278 0.0075329911)
(0.081469204 -0.0003726154 0.005875972)
(0.081396017 -5.6869689e-05 0.005951588)
(0.082965238 -0.00035225874 0.0075153415)
(0.083378509 -0.00031055536 0.0074867544)
(0.081422428 -0.00046455314 0.005933509)
(0.081525861 -0.00011251235 0.005869002)
(0.076357339 1.8683546e-05 0.0023483349)
(0.075664508 9.7540756e-05 -0.006538222)
(0.076209323 -0.00059330928 0.0023469091)
(0.075482151 -0.00068390357 -0.0065535105)
(0.076163866 7.3678407e-05 0.0023491825)
(0.075420379 0.00016847558 -0.0065673586)
(0.076293458 -0.00049912176 0.0023456249)
(0.075592598 -0.00056401328 -0.0065442611)
(0.084170734 -0.00046139212 -0.019353287)
(0.084109797 -0.00030866551 -0.019467152)
(0.086262245 -0.00038659146 -0.015487493)
(0.086630085 -0.00038951305 -0.015417183)
(0.090269352 4.0801084e-05 -0.032454148)
(0.090318421 -0.00070061713 -0.032545795)
(0.088249089 -0.000324871 -0.023909663)
(0.08857716 -0.00029898825 -0.023836689)
(0.090323415 2.1476511e-05 -0.032506645)
(0.090322103 -0.00069161945 -0.032422878)
(0.088620622 -0.00038193908 -0.023787736)
(0.088290986 -0.0003712809 -0.023891042)
(0.090337596 1.6105946e-06 -0.032417627)
(0.090358178 -0.0006903548 -0.032497309)
(0.088320718 -0.00031416095 -0.023875468)
(0.088648577 -0.0003266273 -0.023794215)
(0.090341587 -2.1438295e-06 -0.032534056)
(0.090299046 -0.000736223 -0.032443534)
(0.088607139 -0.00041131942 -0.02382037)
(0.088282501 -0.00038511662 -0.023901355)
(0.084145651 -0.00038319755 -0.01943085)
(0.084241505 -0.00027181616 -0.019323729)
(0.086691463 -0.00029713126 -0.015359822)
(0.086310769 -0.00028581283 -0.015480573)
(0.090308687 8.3205259e-06 -0.032442028)
(0.090354593 -0.00071648336 -0.032534126)
(0.088292329 -0.00033849351 -0.023901317)
(0.088621329 -0.00032276059 -0.023822063)
(0.090353294 -0.00073398043 -0.032417879)
(0.090368607 -4.6290786e-05 -0.032495894)
(0.08866213 -0.00041026537 -0.023790731)
(0.088336054 -0.00042783014 -0.023873758)
(0.090338261 -5.5731591e-05 -0.032420429)
(0.090343871 -0.00076163997 -0.032507148)
(0.088308847 -0.00037478963 -0.02389136)
(0.088640699 -0.00036966728 -0.023786744)
(0.090334233 -5.6515657e-05 -0.032542446)
(0.090286703 -0.00079190883 -0.032454979)
(0.088594207 -0.00045388882 -0.023835168)
(0.088269017 -0.0004351189 -0.023904941)
(0.084140829 -0.00032839606 -0.019457567)
(0.084206019 -0.00018589721 -0.01934006)
(0.086293042 -0.00024966069 -0.015488239)
(0.086671038 -0.00024407863 -0.015398562)
(0.08426329 -0.00038182225 -0.019319587)
(0.084181063 -0.00029466055 -0.01942048)
(0.086349759 -0.00037698827 -0.015456387)
(0.086717073 -0.00033738963 -0.015369588)
(0.084030428 -0.00033347322 -0.0099506211)
(0.084115073 -0.00027321481 -0.019470542)
(0.084175705 -0.00011800124 -0.019354368)
(0.086638976 -0.00019058 -0.015415329)
(0.086262789 -0.000197639 -0.015494362)
(0.084245805 -0.00030662282 -0.019325969)
(0.084149747 -0.00019474784 -0.019430762)
(0.086319957 -0.00029428079 -0.015476418)
(0.086692205 -0.00028194612 -0.015364469)
(0.084183333 -0.00028270079 -0.019422658)
(0.086347113 -0.00020252807 -0.015462278)
(0.084265357 -0.00019421393 -0.019319455)
(0.086722884 -0.00023924437 -0.015366673)
(0.084207418 -0.00038993156 -0.019341062)
(0.084141988 -0.0002481915 -0.019456341)
(0.086299049 -0.00032920151 -0.015483115)
(0.086668784 -0.00033244848 -0.015402051)
(0.090283471 -3.1713187e-05 -0.032452159)
(0.090333287 -0.00076832023 -0.032544799)
(0.088592658 -0.00037018276 -0.02383376)
(0.088264793 -0.00039206283 -0.023908659)
(0.090338653 -6.2704751e-05 -0.032502451)
(0.090335187 -0.00076774487 -0.032420927)
(0.088636128 -0.00045418917 -0.023787142)
(0.088307097 -0.00045158664 -0.02388652)
(0.090362545 -0.00077809128 -0.032495477)
(0.088326816 -0.00039867094 -0.023875587)
(0.088655676 -0.00041418611 -0.023787395)
(0.090345103 -9.0109845e-05 -0.032412348)
(0.090300707 -0.00083290365 -0.032439781)
(0.090344388 -0.00010990868 -0.032526764)
(0.088285662 -0.00049017078 -0.023894527)
(0.088611971 -0.0005022237 -0.02382039)
(0.08858644 -0.00022801174 0.00053272254)
(0.095582245 -0.00019818125 0.0020007313)
(0.092425886 -0.00023429648 0.0019326818)
(0.09158859 -0.00026686791 0.002105971)
(0.093149241 -0.00039998514 0.0026279458)
(0.093104466 -0.00032454573 0.0025442833)
(0.093776809 -0.00027842404 0.002489887)
(0.093824045 -0.00027137717 0.0023973114)
(0.0944541 -0.0002895267 0.0022257096)
(0.094403388 -0.00043079941 0.0021073421)
(0.095647078 -0.00029470346 0.0018563611)
(0.09560367 -0.00023982092 0.001962355)
(0.09558001 -0.00035742137 0.0020008972)
(0.09441313 -0.0002384348 0.0021435478)
(0.095626161 -0.00030427126 0.0018978893)
(0.094470355 -0.00033057182 0.0022606783)
(0.093156488 -0.00022319935 0.0026244729)
(0.093789756 -0.00029108626 0.0024931167)
(0.098290945 -0.00028871983 -9.3440775e-05)
(0.096709646 -0.00041051441 0.00095280918)
(0.098350052 -0.00023918069 -0.00020487492)
(0.096660091 -0.00020385356 0.00086619948)
(0.09673528 -8.5917914e-05 0.00099938466)
(0.098351298 -0.00029215512 -0.00016358366)
(0.098285234 -0.00029155332 -5.5217052e-05)
(0.098794567 -0.00015954823 -0.0042060269)
(0.098864425 -0.00024391461 -0.0041053929)
(0.096422366 -4.486926e-05 -0.0076757746)
(0.096463812 -0.00054619909 -0.0077323215)
(0.09880407 -0.00031941277 -0.0042092756)
(0.096471934 2.2078983e-06 -0.0077201372)
(0.098871009 -0.00025975792 -0.0041124691)
(0.096432886 -0.00048661661 -0.0076621115)
(0.096657815 -0.00035682235 0.00086545793)
(0.098348068 -0.00032645089 -0.00020555274)
(0.098284198 -0.00027694119 -9.4127774e-05)
(0.096701927 -0.00015084589 0.00095349731)
(0.098869904 -0.00030994865 -0.0041138671)
(0.096431785 -8.623271e-05 -0.0076622844)
(0.098797711 -0.00025017866 -0.0042091993)
(0.096467458 -0.00057550954 -0.0077195968)
(0.098850684 -0.0003301685 -0.00410365)
(0.098786115 -0.00041126979 -0.0042057952)
(0.096457082 -2.8413419e-05 -0.0077318652)
(0.096412194 -0.00053244878 -0.0076746169)
(0.096684218 -0.0002722956 0.0009114424)
(0.098274883 -0.00027530257 -5.4713167e-05)
(0.096723533 -0.00047662053 0.0009984975)
(0.098336141 -0.00027792193 -0.0001630383)
(0.09111201 -0.00024745706 0.0022064963)
(0.090252586 -0.00025544826 0.0025872401)
(0.10301529 -0.00029273757 -0.0098205859)
(0.099075177 -9.3764224e-05 -0.013496072)
(0.10293564 -0.00029720256 -0.0099179561)
(0.099113117 -0.00071556458 -0.013550336)
(0.10249104 -0.00052199318 -0.0022895848)
(0.10244217 -0.00028099632 -0.0023847167)
(0.10341845 -0.00032570653 -0.0044447243)
(0.10349209 -0.00040858605 -0.0045782135)
(0.10248495 -0.00040616625 -0.00233884)
(0.10348992 -0.00033682153 -0.0045399364)
(0.10251907 -0.0001596945 -0.002237216)
(0.10341126 -0.0004753174 -0.0044060659)
(0.10294745 -0.00035367723 -0.0099183589)
(0.099120649 -2.9745344e-05 -0.013531406)
(0.10302675 -0.00039137293 -0.0098189296)
(0.099086594 -0.00063887795 -0.013473534)
(0.10251761 -0.0005766709 -0.0022521143)
(0.10248114 -0.0003357244 -0.0023494469)
(0.10341754 -0.00028433845 -0.0044127805)
(0.10349412 -0.00041439782 -0.0045448936)
(0.10244374 -0.00044824684 -0.0023907688)
(0.10349388 -0.00035737524 -0.004580441)
(0.1024929 -0.00020969128 -0.0022917116)
(0.10342291 -0.00043742821 -0.0044470769)
(0.10294484 -0.00043380964 -0.0099139275)
(0.10302129 -0.00045473546 -0.0098152995)
(0.099121066 -3.7299319e-05 -0.013538484)
(0.099081053 -0.0006616071 -0.01348537)
(0.099090769 -0.00011222737 -0.013469801)
(0.10302995 -0.00032628632 -0.0098207848)
(0.10295286 -0.00036925319 -0.0099155954)
(0.099127725 -0.00072280298 -0.013526873)
(0.099445336 -0.00046990771 0.0016122366)
(0.10122876 -0.00046988167 0.00067791603)
(0.099379081 -0.0002669063 0.0014773114)
(0.10127895 -0.000402979 0.00056070859)
(0.096840359 -0.00039576802 0.0025505367)
(0.09687137 -0.00027375655 0.0026332162)
(0.098220587 -0.00044860694 0.0023529848)
(0.098155179 -0.00036696733 0.0024449678)
(0.096863256 -0.00051430379 0.0026330085)
(0.096816425 -0.00037223171 0.0025513174)
(0.098143263 -0.00038764559 0.0024400928)
(0.098197614 -0.00032160724 0.0023423339)
(0.099371118 -0.0005681204 0.0014384944)
(0.099432635 -0.0003142284 0.0015746628)
(0.10130287 -0.00037470042 0.00051669896)
(0.10126129 -0.00030465424 0.00063454448)
(0.099447451 -0.00042130599 0.0015878993)
(0.10126919 -0.00043991528 0.00064527606)
(0.099379395 -0.00015978154 0.0014531298)
(0.10130647 -0.00037947191 0.00052589288)
(0.096891945 -0.00044333472 0.0026417123)
(0.096849409 -0.00032266925 0.0025622136)
(0.098165139 -0.00038769026 0.002458956)
(0.098223931 -0.00031622153 0.0023625378)
(0.096852064 -0.000354098 0.0025664976)
(0.098217203 -0.00041514501 0.0023580434)
(0.096893007 -0.00020753835 0.002652928)
(0.098157331 -0.00036086223 0.0024569111)
(0.099386178 -0.0004576597 0.0014889222)
(0.099446778 -0.00026073295 0.0016254754)
(0.10127947 -0.00035682879 0.00057166955)
(0.10122686 -0.00029969908 0.00068559269)
(0.095362271 -0.0003517138 0.0028886896)
(0.096172713 -0.00041111132 0.0026929987)
(0.095305082 -0.00024226075 0.0027808541)
(0.096214199 -0.00038802085 0.0025957129)
(0.094390122 -0.00040994816 0.0030635155)
(0.094338631 -0.00034073222 0.0029708987)
(0.094870564 -0.00036676998 0.0029091806)
(0.09492148 -0.00033349388 0.0027987096)
(0.094377276 -0.00031324403 0.0030135164)
(0.094921038 -0.00037337264 0.0028405417)
(0.094415838 -0.0002478618 0.0031112025)
(0.094864713 -0.00039679489 0.002947577)
(0.095312932 -0.00040287872 0.0027759654)
(0.095366572 -0.00031180799 0.0028795739)
(0.096213257 -0.0003518836 0.0026023752)
(0.09616992 -0.00030461612 0.0026919398)
(0.093545429 -0.00035381988 0.0029409578)
(0.094064559 -0.00031573147 0.0028282298)
(0.093595767 -0.00031855499 0.0030553737)
(0.094012789 -0.000305452 0.0029251186)
(0.093594053 -0.00032604303 0.0030168453)
(0.094050577 -0.00038864913 0.0028863294)
(0.093541319 -0.00023940226 0.0029037919)
(0.094090824 -0.00037808184 0.0027842979)
(0.093355317 -0.00036767851 0.0029832956)
(0.093304881 -0.00037173697 0.0030722692)
(0.092686804 -0.00038412815 0.0024618042)
(0.092943924 -0.00028662799 0.0029897236)
(0.092988431 -0.00025180145 0.0030799794)
(0.093309791 -0.00033754703 0.0030757618)
(0.093365471 -0.00032247485 0.002987993)
(0.092723573 -0.00038224359 0.0023705716)
(0.092948107 -0.00035650864 0.0029900491)
(0.092986939 -0.00037180003 0.0030748265)
(0.09207453 -0.00025413309 0.0024961324)
(0.092131715 -0.00032340554 0.0025972535)
(0.093298003 -0.00033488986 0.003070844)
(0.093348917 -0.00033290081 0.0029825689)
(0.092680386 -0.00031463774 0.0024583961)
(0.09293205 -0.00040270772 0.0029879475)
(0.092977243 -0.00043138021 0.0030750696)
(0.093362305 -0.00038992216 0.0029877254)
(0.093309686 -0.00037182632 0.003073346)
(0.092721675 -0.00033751542 0.002373203)
(0.092983535 -0.0003082589 0.0030750079)
(0.092944815 -0.00032137328 0.0029881028)
(0.093594503 -0.000359107 0.0030558435)
(0.094012104 -0.00040529705 0.0029298028)
(0.093544554 -0.00032741391 0.0029439066)
(0.094062359 -0.00039478411 0.0028319253)
(0.092078428 -0.00039427675 0.0024896472)
(0.092127119 -0.00034054719 0.0025862784)
(0.093536508 -0.00044735583 0.0029117652)
(0.094081859 -0.00033117172 0.0027963645)
(0.093586439 -0.00037386896 0.0030254613)
(0.09403822 -0.00032031597 0.0028968786)
(0.094405947 -0.00044922983 0.0031175651)
(0.094852461 -0.00032477808 0.002959413)
(0.09436328 -0.00039541249 0.0030239259)
(0.094903263 -0.00034547782 0.0028533502)
(0.094338015 -0.00033992205 0.0029768268)
(0.094918016 -0.00038415281 0.0028081142)
(0.094386238 -0.0002805525 0.0030752064)
(0.094862192 -0.00035575252 0.0029189501)
(0.095363357 -0.00037702673 0.0028852199)
(0.096161332 -0.00042857549 0.0027011624)
(0.095300773 -0.00029381517 0.0027875938)
(0.096192435 -0.0003821331 0.0026103581)
(0.095289622 -0.00046086006 0.0027953873)
(0.096184291 -0.00034237599 0.002611734)
(0.095339126 -0.00036648271 0.002904491)
(0.096136262 -0.00031721113 0.0027069678)
(0.091507634 -0.00035854021 0.002558265)
(0.091563883 -0.00039234901 0.0026511848)
(0.091800769 -0.00034337864 0.0025253782)
(0.091845738 -0.00033859256 0.0024168078)
(0.09159247 -0.00024877018 0.0026950044)
(0.091557941 -0.0002797513 0.0025985316)
(0.091856697 -0.00034106146 0.0024570852)
(0.091799574 -0.00038511656 0.0025613678)
(0.095337839 -0.00041456473 0.0029025635)
(0.096134865 -0.00046845864 0.0027065169)
(0.095281028 -0.0003193306 0.0027955912)
(0.09617614 -0.00044319684 0.0026119538)
(0.094373335 -0.00049000765 0.0030738747)
(0.09431944 -0.00043128429 0.002977473)
(0.094849812 -0.00041969139 0.0029193618)
(0.094899875 -0.00039288978 0.0028088465)
(0.094360678 -0.00037513198 0.0030226705)
(0.094900961 -0.00043060995 0.0028521176)
(0.094397778 -0.00032113984 0.0031182383)
(0.094844558 -0.00045037867 0.0029585172)
(0.095289523 -0.00048667027 0.002787215)
(0.095344671 -0.00040523316 0.0028869139)
(0.09618123 -0.00040377943 0.0026098611)
(0.096143326 -0.00035836374 0.0027012634)
(0.093292625 -0.0003816231 0.0030741119)
(0.093344323 -0.00036518491 0.0029888352)
(0.092703004 -0.00040208556 0.002372927)
(0.092925447 -0.00042740272 0.0029889067)
(0.092967287 -0.00043973541 0.0030741856)
(0.093343779 -0.00042152934 0.0029811054)
(0.09329192 -0.00041835506 0.0030696597)