/*--------------------------------*- C++ -*----------------------------------*\
  =========                 |
  \\      /  F ield         | OpenFOAM: The Open Source CFD Toolbox
   \\    /   O peration     | Website:  https://openfoam.org
    \\  /    A nd           | Version:  7
     \\/     M anipulation  |
\*---------------------------------------------------------------------------*/
FoamFile
{
    version     2.0;
    format      ascii;
    class       volScalarField;
    location    "2000";
    object      k;
}
// * * * * * * * * * * * * * * * * * * * * * * * * * * * * * * * * * * * * * //

dimensions      [0 2 -2 0 0 0 0];

internalField   nonuniform List<scalar> 
33899
(
1.5194112
1.5198028
1.5199583
1.5197625
1.5198894
1.520126
1.5196107
1.5194433
1.5197914
1.5176653
1.5176529
1.5192536
1.5192414
1.5192961
1.5200569
1.5195108
1.5194608
1.5194387
1.5196515
1.52037
1.520317
1.5206661
1.5200553
1.5198514
1.5197502
1.5198628
1.5215227
1.5201418
1.5201302
1.5196532
1.5197844
1.5195478
1.5207694
1.5205251
1.5171832
1.5172613
1.5170165
1.5169338
1.5176331
1.5169426
1.5170245
1.5172358
1.5171376
1.5176137
1.5168274
1.5168504
1.5169956
1.5172453
1.5189711
1.5189957
1.5192015
1.5192205
1.5193131
1.5193083
1.5191919
1.5189937
1.518994
1.5191953
1.5191825
1.5189684
1.5189886
1.5191956
1.5194729
1.5192788
1.519367
1.5193095
1.5192818
1.5193088
1.5193372
1.5193221
1.519298
1.519326
1.5193024
1.5193983
1.5196468
1.5197309
1.519613
1.5197587
1.5195126
1.519725
1.5171499
1.516726
1.5204127
1.5209221
1.5204091
1.5207018
1.5199155
1.5219687
1.5200094
1.5208598
1.5198265
1.5197404
1.5198383
1.5216629
1.5216143
1.5201606
1.5201668
1.5201721
1.5197932
1.5190865
1.5167271
1.5203335
1.5207651
1.5206005
1.5202224
1.5203354
1.5202999
1.5201335
1.5201935
1.5199384
1.5198998
1.5167096
1.5168601
1.5170906
1.5170914
1.5168647
1.5171473
1.5170808
1.5168365
1.5171021
1.5168716
1.5167252
1.5167467
1.5167151
1.516736
1.516742
1.5167383
1.5169609
1.5167313
1.5167342
1.5168497
1.516942
1.5169516
1.5167625
1.5167502
1.5167524
1.516765
1.5167376
1.5167252
1.5167395
1.5167524
1.5171074
1.5168621
1.5168882
1.5171387
1.5170918
1.517092
1.5168911
1.5168874
1.5170658
1.5169221
1.5168218
1.5167983
1.5168331
1.5167104
1.5167242
1.5167381
1.5171505
1.5168591
1.5168925
1.5171783
1.5187772
1.5187961
1.5190393
1.5190321
1.5188158
1.518787
1.5190562
1.5190616
1.5191609
1.5191835
1.5192182
1.5191956
1.5192385
1.5192012
1.5192203
1.5192538
1.5192928
1.5192795
1.5193022
1.5193148
1.51932
1.5190379
1.5190955
1.519179
1.519194
1.5191288
1.5191078
1.5191075
1.5191299
1.5190213
1.5188063
1.5188032
1.5190105
1.5188271
1.5188378
1.5190337
1.5190274
1.5191457
1.5191304
1.5191219
1.5191397
1.5191283
1.5191025
1.5191134
1.51914
1.5190065
1.5187806
1.5187828
1.5190016
1.5187663
1.5190075
1.5190155
1.5187857
1.5191741
1.5191203
1.5191505
1.5191429
1.5193254
1.5193451
1.5193331
1.5193191
1.5192274
1.5193341
1.519251
1.5192297
1.5192477
1.5192686
1.5192147
1.5192057
1.5192307
1.5192213
1.5192328
1.519259
1.5192713
1.5192433
1.5192836
1.5192606
1.5192882
1.5193095
1.519246
1.5192198
1.5192372
1.5192276
1.5192074
1.5191989
1.5192049
1.5192134
1.5192571
1.5192441
1.5192328
1.5192471
1.5192333
1.5192234
1.5192117
1.5192208
1.5189511
1.5190756
1.5195707
1.5195549
1.5195797
1.5195728
1.5195583
1.5193868
1.5194063
1.5194249
1.5194065
1.5194371
1.520969
1.5197097
1.5198674
1.5198581
1.5197266
1.5197351
1.5197535
1.5197318
1.5197025
1.5198115
1.5166186
1.5172873
1.5170683
1.5166785
1.5167629
1.516468
1.5208871
1.5205173
1.5222048
1.5209634
1.5204969
1.5207422
1.5200444
1.5194313
1.5190443
1.519171
1.5222053
1.5220013
1.5199702
1.5209606
1.5207832
1.5198059
1.5197347
1.5198136
1.5218315
1.5217644
1.5217252
1.520179
1.5201919
1.5202126
1.5186237
1.5190945
1.5159782
1.518982
1.5203489
1.5204722
1.5207183
1.5205702
1.5201678
1.5202938
1.5201703
1.5201563
1.5202657
1.5201099
1.5199476
1.519906
1.5200171
1.520021
1.5201265
1.520108
1.520072
1.5200811
1.5200221
1.5200331
1.5200421
1.5200285
1.5199017
1.5198784
1.5198624
1.5198834
1.5198783
1.5198595
1.51971
1.5197109
1.5194226
1.5194144
1.5197184
1.5195164
1.5197275
1.5194977
1.5165294
1.5165316
1.5165383
1.5169103
1.5166924
1.5167011
1.5166882
1.5166765
1.5170876
1.5168
1.5169956
1.516985
1.5167814
1.5167528
1.5169733
1.516987
1.5167781
1.5166847
1.5166726
1.5166563
1.5166666
1.5170064
1.5169151
1.5169994
1.516985
1.5167606
1.5167881
1.5166498
1.5166718
1.5166795
1.5166569
1.5167687
1.5169994
1.5170183
1.5168014
1.5166765
1.5166629
1.5166361
1.5166507
1.5165766
1.5165757
1.5165685
1.5165664
1.5165637
1.5165549
1.5165455
1.5165568
1.5165617
1.5165654
1.5165659
1.5165634
1.5165419
1.5165445
1.5165533
1.5165516
1.5165928
1.5165877
1.5165853
1.5165797
1.5167645
1.5166029
1.5166112
1.5166063
1.5165968
1.5167582
1.5167697
1.5167654
1.5165956
1.5166025
1.5166037
1.5165936
1.5165759
1.5165795
1.516583
1.5165798
1.5167808
1.5168778
1.516774
1.516784
1.5167612
1.516767
1.5166074
1.5165998
1.5165983
1.5166068
1.5165895
1.5165911
1.5165908
1.5165889
1.5166119
1.5166251
1.5166296
1.5166134
1.5166223
1.5166367
1.5166453
1.5166299
1.5165849
1.5165748
1.5165723
1.5165836
1.5165659
1.5165687
1.5165667
1.5165652
1.5165406
1.5165426
1.5165503
1.5165498
1.5165551
1.5165475
1.5165602
1.5165686
1.5171215
1.5168307
1.516849
1.5171356
1.5166913
1.5166724
1.5166712
1.5166913
1.5166562
1.5166434
1.5166662
1.5166812
1.5168574
1.5168262
1.5171514
1.5171673
1.5169023
1.5170316
1.5168663
1.5169571
1.5170809
1.5168411
1.5168528
1.5171001
1.5167153
1.5166992
1.516699
1.5167156
1.5167274
1.5167479
1.5167654
1.5167438
1.5168699
1.5168838
1.5170468
1.5170624
1.5168863
1.5167671
1.5160089
1.516122
1.5165374
1.5165289
1.5165282
1.5165389
1.5165487
1.5165343
1.516546
1.5165592
1.5165436
1.5165297
1.5171848
1.5168387
1.5171978
1.5168761
1.5166616
1.5166339
1.516678
1.5166505
1.5166328
1.5166632
1.5166917
1.5169037
1.5168608
1.5172151
1.517227
1.5186096
1.5186221
1.5189969
1.5189733
1.5186481
1.5186347
1.5190137
1.5190257
1.5190785
1.5190985
1.5191372
1.5191164
1.5191507
1.5191135
1.5191229
1.5191586
1.5192038
1.5191888
1.5192044
1.5192148
1.5188696
1.5189219
1.5190197
1.5190001
1.5190344
1.5191348
1.5191369
1.5191293
1.5191361
1.5191482
1.5190103
1.5189867
1.5189811
1.5190083
1.5188991
1.5186525
1.518616
1.5188887
1.5186926
1.5187375
1.5189367
1.518915
1.5190521
1.5190342
1.5190036
1.5190241
1.5190185
1.5189881
1.5190049
1.5190381
1.5188901
1.5185925
1.5185834
1.5189025
1.5185857
1.5189226
1.5189467
1.5185941
1.5190908
1.5190278
1.5190628
1.5190527
1.519246
1.5192601
1.5192648
1.5192544
1.5192669
1.5192788
1.5192855
1.5192767
1.5192895
1.519274
1.518786
1.5189046
1.5191475
1.5191247
1.5191456
1.5191691
1.5191133
1.5191009
1.5191338
1.5191207
1.5191437
1.5191667
1.5191823
1.5191573
1.519193
1.5191692
1.5191921
1.5192158
1.5191309
1.5191079
1.5191259
1.51911
1.5190975
1.519087
1.5190876
1.5190991
1.5191658
1.5191538
1.5191205
1.5191353
1.5191431
1.5191331
1.5191001
1.5191102
1.5187939
1.5189065
1.5190671
1.5190659
1.5195028
1.5195179
1.5194845
1.5194764
1.519445
1.5194597
1.5194744
1.5195015
1.5195066
1.5194836
1.5192419
1.5192425
1.5192556
1.5192966
1.5193117
1.5192715
1.5193235
1.5165324
1.5208716
1.5209366
1.5213067
1.5211917
1.5207096
1.5208356
1.5208761
1.5207559
1.5203558
1.5226833
1.5225113
1.5198778
1.5204215
1.5197446
1.5197846
1.5197323
1.520197
1.5182786
1.518798
1.517911
1.5184241
1.5159389
1.5165471
1.5179491
1.5172099
1.5169877
1.5166511
1.5167383
1.516633
1.516262
1.5163601
1.5166997
1.5164741
1.5161198
1.5162625
1.5163163
1.5161857
1.5209174
1.5209974
1.5206051
1.5223131
1.5222941
1.5210064
1.5205929
1.5207868
1.5202085
1.5189813
1.5190869
1.5194358
1.5193455
1.5189862
1.5186245
1.5224637
1.5222784
1.5220324
1.5199315
1.521086
1.5209031
1.5207094
1.5197855
1.5219507
1.5218912
1.5218521
1.5202467
1.5159992
1.5164404
1.5185706
1.5185777
1.5188753
1.516034
1.5159147
1.519097
1.5191249
1.5191212
1.5190954
1.5161193
1.5160116
1.5169319
1.5188501
1.5188578
1.5189519
1.5189544
1.5204561
1.5205167
1.5205751
1.5205595
1.5205324
1.5205212
1.5206422
1.5205704
1.520609
1.5206292
1.5205797
1.5170984
1.5199645
1.5199251
1.5200039
1.5200843
1.5200599
1.5199881
1.520016
1.5200084
1.5199417
1.5199362
1.5198547
1.5198405
1.5197823
1.519774
1.5197081
1.519568
1.5196688
1.5195751
1.5196588
1.5197781
1.5169439
1.5198073
1.5197782
1.5196748
1.5196991
1.5197942
1.5197956
1.519727
1.5197071
1.5197004
1.5196949
1.5196771
1.5196839
1.5196625
1.5196418
1.5196448
1.5196616
1.519537
1.5195534
1.5196403
1.5196503
1.5196288
1.519619
1.5196561
1.5196584
1.519641
1.5196387
1.5195939
1.5196013
1.519614
1.5196045
1.5195954
1.5195835
1.5195712
1.5195813
1.519484
1.5194621
1.5194509
1.5194715
1.5194979
1.5195033
1.5195012
1.5194881
1.5194946
1.519505
1.5194965
1.5194829
1.5194808
1.5194609
1.519442
1.519459
1.5194445
1.5194319
1.5194189
1.5194434
1.5194599
1.5194366
1.5193182
1.5192849
1.5193138
1.5193561
1.5193395
1.5193094
1.519326
1.5188656
1.5191787
1.5191704
1.5188706
1.5191368
1.5191306
1.5187965
1.5188235
1.5193892
1.5193867
1.5193741
1.519367
1.5190778
1.5192553
1.5192416
1.5190282
1.5193301
1.5193564
1.5193706
1.5193458
1.5192137
1.5192109
1.5189482
1.5189446
1.5161734
1.5161675
1.5161701
1.5167431
1.5167822
1.5167761
1.516737
1.516463
1.5164679
1.5163928
1.5163848
1.5170149
1.5169829
1.5169048
1.5168651
1.5165371
1.5166915
1.5166122
1.5164478
1.5164035
1.516576
1.5165491
1.5163709
1.5163211
1.516353
1.5163417
1.5163078
1.5168994
1.516812
1.5165136
1.5165292
1.5163466
1.5163281
1.516281
1.5162962
1.5162766
1.5162598
1.5163135
1.516506
1.5165016
1.5163017
1.5162479
1.5162609
1.516243
1.5162298
1.5162091
1.5162296
1.5162034
1.516224
1.5161829
1.5161942
1.5161882
1.5161773
1.5162252
1.5162224
1.5162018
1.5162052
1.5161905
1.5161863
1.5161752
1.5161802
1.5162558
1.5162888
1.5162506
1.5162841
1.5166501
1.5166531
1.5166354
1.5166309
1.5163283
1.516395
1.5163919
1.5163242
1.5166264
1.5166462
1.5166466
1.5166284
1.5166828
1.5166788
1.5163231
1.5163897
1.516395
1.5163263
1.5162854
1.516283
1.5162496
1.5162521
1.5160267
1.516057
1.5166527
1.5166672
1.5166694
1.5166569
1.5166647
1.5166777
1.5166817
1.5166712
1.5166828
1.5166903
1.5163374
1.5163255
1.5162889
1.5163018
1.5163167
1.5163144
1.5162785
1.5162805
1.5163575
1.5164269
1.5164309
1.5163606
1.5163698
1.5164404
1.5164527
1.516382
1.5162744
1.51626
1.5162384
1.5162545
1.5162519
1.5162496
1.5162277
1.5162306
1.5162157
1.5162124
1.516203
1.5162065
1.5162145
1.5162236
1.5162412
1.5162336
1.5168559
1.5164893
1.516472
1.5168738
1.5163789
1.5163548
1.5163314
1.5163578
1.5163063
1.5163156
1.5163443
1.5163374
1.5164632
1.5164638
1.5168979
1.5169254
1.5167817
1.516791
1.516799
1.5167954
1.5169082
1.5168926
1.516965
1.5170198
1.5167942
1.5168992
1.5168393
1.5165576
1.5165179
1.5168417
1.5164481
1.5164277
1.5163874
1.5164094
1.5164782
1.5165572
1.5165734
1.5164971
1.5166106
1.5166913
1.5168771
1.5168459
1.5162443
1.5161015
1.5160549
1.5160262
1.5161004
1.5162377
1.5161975
1.5161983
1.516202
1.5162011
1.5162307
1.5162107
1.5162104
1.5162313
1.5162344
1.5162126
1.5169527
1.5164674
1.5169775
1.5164753
1.5163358
1.5163034
1.5163382
1.5163046
1.5163087
1.5163432
1.5163494
1.5164958
1.5164851
1.5169989
1.5170176
1.5185514
1.5185309
1.5187619
1.518748
1.5185728
1.5185542
1.5187612
1.5187474
1.5190129
1.5190077
1.5190376
1.5190381
1.5190243
1.5189923
1.5189988
1.5190271
1.5185925
1.5185842
1.5187517
1.5187376
1.5185875
1.5185743
1.5187579
1.5187442
1.5190432
1.5190161
1.5190183
1.5190421
1.5190187
1.5190182
1.5190436
1.5190411
1.5191066
1.5190989
1.519104
1.519111
1.5191134
1.51911
1.5191175
1.5191197
1.5191445
1.5191406
1.5191526
1.5191546
1.5191419
1.5191293
1.519135
1.5191461
1.5191564
1.5191453
1.5191469
1.5191567
1.5191162
1.5191153
1.5191222
1.5191225
1.5191134
1.5191142
1.5191213
1.51912
1.5191445
1.5191446
1.5191553
1.5191542
1.5192156
1.5192141
1.5192178
1.5192194
1.5192055
1.5192008
1.5192046
1.5192089
1.5192097
1.5192076
1.5192123
1.5192136
1.5192088
1.519209
1.5192135
1.519213
1.518786
1.5188754
1.5189428
1.518956
1.5186246
1.5187393
1.5190858
1.5190948
1.519061
1.5190755
1.5189058
1.5188879
1.5189208
1.5189379
1.5188951
1.5188629
1.5188747
1.5189053
1.5189225
1.5189117
1.5189421
1.5189525
1.5189572
1.5189385
1.5189703
1.5189875
1.5187897
1.5187587
1.5187868
1.5188176
1.5186565
1.5183891
1.51841
1.5186612
1.5186715
1.518394
1.5184206
1.5186775
1.5188328
1.5187983
1.5188283
1.5188615
1.5186565
1.5184091
1.5183989
1.518658
1.5184213
1.5184185
1.5186456
1.5186631
1.5187709
1.5187374
1.5187442
1.5187593
1.518756
1.518737
1.5187636
1.5187845
1.5188533
1.5188571
1.5188721
1.5188651
1.5188327
1.5188354
1.5188491
1.5188454
1.5188541
1.518831
1.5188434
1.5188665
1.5188777
1.5188532
1.5188689
1.5188946
1.5190111
1.5189924
1.5190188
1.5190354
1.5189751
1.5189634
1.5189888
1.5189997
1.5190313
1.5190104
1.5190222
1.51904
1.5190619
1.5190405
1.5190583
1.5190757
1.518884
1.5188471
1.518874
1.5189083
1.5184447
1.5184143
1.518697
1.5186996
1.5184711
1.5184428
1.5187228
1.5187199
1.518918
1.518895
1.5189326
1.5189501
1.5184982
1.518472
1.5187426
1.5187347
1.5189725
1.5189371
1.5189515
1.5189837
1.5189791
1.5189674
1.5190022
1.5190086
1.5185248
1.5185009
1.5187548
1.5187431
1.5191191
1.519109
1.5191234
1.5191304
1.5190639
1.5190497
1.5190596
1.5190714
1.5190952
1.5190801
1.5190935
1.5191067
1.5190876
1.5190782
1.5190868
1.5190943
1.5191765
1.5192203
1.5192255
1.519185
1.5191973
1.5192396
1.5192461
1.5192067
1.5189171
1.5189009
1.5186246
1.5187399
1.5189008
1.5189169
1.5191466
1.5191289
1.5191519
1.5191672
1.5191158
1.5191162
1.519138
1.5191381
1.5191737
1.519157
1.5191575
1.519173
1.5191877
1.5191699
1.5191863
1.5192007
1.5191053
1.5191037
1.519126
1.5191276
1.5191127
1.5190886
1.5190965
1.5191182
1.5191625
1.5191454
1.5191473
1.5191627
1.5191485
1.5191317
1.519138
1.5191529
1.5191748
1.5191636
1.519169
1.5191788
1.5191929
1.5191857
1.5191907
1.5191968
1.5192068
1.5191996
1.5192014
1.5192078
1.5191785
1.5191776
1.5191875
1.5191887
1.519216
1.5192015
1.5192126
1.5192255
1.5191991
1.5191883
1.5191884
1.5191986
1.5192162
1.5192093
1.5192096
1.5192161
1.5192306
1.5192223
1.5192366
1.5192426
1.5190942
1.5190752
1.5191057
1.5191224
1.5190429
1.5190082
1.5190091
1.5190422
1.5190529
1.5190169
1.519037
1.5190706
1.5190622
1.5190634
1.5190923
1.5190916
1.5189987
1.5189973
1.5190301
1.5190314
1.5190168
1.5189826
1.5189919
1.5190239
1.5190437
1.5190362
1.5190651
1.5190723
1.5190516
1.5190504
1.5190795
1.5190809
1.5189856
1.5189663
1.5189707
1.5189777
1.5189589
1.5189607
1.518963
1.5189662
1.5189928
1.5189644
1.5189666
1.518995
1.5189727
1.5190014
1.5190198
1.5189892
1.5189488
1.518953
1.5189567
1.518952
1.518935
1.5189395
1.5189504
1.5189454
1.5189685
1.5189406
1.5189508
1.5189781
1.5189569
1.5189822
1.5189545
1.5189845
1.5187546
1.5186482
1.518658
1.5187538
1.5189062
1.5189195
1.5189186
1.5189059
1.519068
1.5190753
1.5190749
1.5190682
1.5190652
1.5190734
1.5190653
1.5190736
1.5194279
1.5194351
1.5194512
1.5194557
1.5193594
1.5193721
1.519386
1.5193932
1.5191355
1.5191208
1.5191564
1.5191703
1.5191888
1.5191746
1.5192039
1.5192165
1.519071
1.5191038
1.5191184
1.5190834
1.5190768
1.5190552
1.5190639
1.5190663
1.5190836
1.5190687
1.519078
1.5190732
1.5190855
1.5191193
1.5191242
1.5190887
1.5190769
1.5190778
1.519086
1.5190873
1.5190924
1.5185263
1.5167162
1.5162321
1.5163333
1.5167505
1.5166881
1.5165674
1.5165273
1.5166356
1.521321
1.5208096
1.5213638
1.5229211
1.522812
1.5211419
1.520428
1.5207071
1.5208274
1.5205667
1.5204064
1.5231633
1.5229952
1.5223075
1.5199012
1.5204848
1.5205252
1.5197647
1.5219957
1.5209656
1.5210719
1.5190977
1.5181813
1.5183034
1.5187344
1.5179672
1.5173068
1.51747
1.5175623
1.5174078
1.518393
1.5176991
1.5181741
1.5182765
1.5178471
1.5159
1.5157974
1.5164921
1.5179879
1.5179649
1.5171353
1.5169057
1.5166375
1.516717
1.516271
1.5162077
1.5165461
1.5165993
1.5164086
1.5159968
1.5164998
1.5162121
1.5162542
1.5161277
1.5160831
1.5159151
1.5160318
1.5209892
1.521035
1.5210795
1.5206781
1.5224804
1.5224206
1.5223792
1.5210467
1.5193478
1.5193569
1.519034
1.5192276
1.5189253
1.5186472
1.5186318
1.5189762
1.5189728
1.519029
1.5190611
1.5185569
1.5188815
1.5188562
1.5185699
1.5225584
1.5223387
1.5220741
1.521039
1.520849
1.5206373
1.5221007
1.5220589
1.5159585
1.5159676
1.5159941
1.5159882
1.516605
1.516249
1.5161986
1.5166132
1.5187359
1.5187088
1.5185232
1.5185216
1.5185169
1.5185131
1.5187158
1.5189149
1.5189061
1.5189416
1.5170455
1.5168624
1.5160469
1.5160462
1.5159437
1.5159594
1.5158956
1.5159003
1.5159052
1.5159013
1.5177827
1.5172272
1.5193476
1.5193815
1.519106
1.5161036
1.5161045
1.5162337
1.5162216
1.5169597
1.5160554
1.5160286
1.5160276
1.5160519
1.521636
1.5170979
1.5190064
1.5187654
1.5189629
1.5192014
1.5214706
1.5206037
1.5205725
1.520622
1.5206137
1.5205893
1.520565
1.5205817
1.5205658
1.5207701
1.5207732
1.5207926
1.5207883
1.5205955
1.5206646
1.5206839
1.5205931
1.5207151
1.5207227
1.5207436
1.5207349
1.520768
1.5207663
1.520757
1.5207588
1.5207047
1.5207047
1.5205875
1.5205779
1.5173129
1.5171788
1.5173201
1.5171801
1.5197308
1.5196894
1.5196249
1.5196175
1.5197832
1.5198185
1.5197739
1.5197583
1.519712
1.5197125
1.5197299
1.519733
1.5196874
1.5196522
1.5196515
1.5196827
1.5196827
1.5196478
1.5196442
1.5196721
1.5194852
1.5194886
1.5195256
1.5195228
1.519524
1.5194786
1.5194761
1.5195135
1.5194573
1.5194503
1.5193612
1.5193674
1.5193998
1.51939
1.5192824
1.5192731
1.5192007
1.5191612
1.5193548
1.5192598
1.5169182
1.5169681
1.5169683
1.5169209
1.5189346
1.5189692
1.518734
1.5186603
1.519002
1.5191174
1.5189686
1.5188053
1.5189425
1.5189289
1.5187584
1.5187617
1.5185895
1.5186717
1.5186635
1.5185727
1.5183961
1.5183612
1.5183765
1.5188664
1.5188644
1.5186698
1.518667
1.5188735
1.5188751
1.5186896
1.5186834
1.5185773
1.5185862
1.5184921
1.5184808
1.5184619
1.5185599
1.5185521
1.5184498
1.5183346
1.5184301
1.5184156
1.5183196
1.5185313
1.5187101
1.5187074
1.5185182
1.518722
1.5187242
1.5185326
1.5185268
1.5183276
1.5184237
1.5184144
1.518316
1.518253
1.5182388
1.5182344
1.5182462
1.5181818
1.5181702
1.5180777
1.5180533
1.5180217
1.5181219
1.5181825
1.5181603
1.5180991
1.517823
1.5180785
1.5180161
1.5177414
1.5179335
1.5179687
1.517676
1.5176253
1.5184566
1.5186322
1.5186225
1.5184378
1.5183941
1.5185367
1.5183572
1.5181805
1.5183323
1.5183524
1.5182599
1.5182386
1.5181586
1.5182528
1.5180472
1.5179278
1.5161348
1.5161262
1.5161361
1.5161437
1.5161188
1.5161221
1.5161312
1.5161284
1.5161367
1.5161452
1.5165708
1.5166878
1.5166836
1.5165679
1.5159763
1.5159798
1.515992
1.5159859
1.5159808
1.5159916
1.515981
1.5159912
1.5160365
1.515982
1.5159776
1.5160316
1.5159751
1.5160272
1.5159749
1.5160268
1.5167912
1.5168603
1.5167963
1.5166682
1.5160099
1.5160132
1.5160129
1.5160179
1.5161341
1.5161494
1.516062
1.5160523
1.5162179
1.5161421
1.516049
1.5161253
1.5160056
1.5160645
1.516007
1.5160625
1.51606
1.5160679
1.5161191
1.5161111
1.5162941
1.5162289
1.5161229
1.5161932
1.5161835
1.5162984
1.5163512
1.5162431
1.5161041
1.5161158
1.5161575
1.5161465
1.5160675
1.5160778
1.5161178
1.5161081
1.5160835
1.5160357
1.5160271
1.5160758
1.5160198
1.5160255
1.5160727
1.5160673
1.5160586
1.516067
1.516105
1.5160979
1.5160951
1.5160589
1.51643
1.5164007
1.5162795
1.516321
1.5163955
1.5163566
1.5162357
1.5162859
1.5161412
1.5161549
1.5161881
1.5161754
1.5162103
1.5161856
1.5161709
1.5161972
1.5160917
1.5161004
1.5161301
1.5161228
1.5161026
1.5161141
1.5161453
1.5161351
1.5161647
1.516142
1.5161308
1.5161554
1.5161483
1.5161263
1.5161182
1.5161418
1.5161931
1.5162074
1.5162253
1.5162126
1.5164561
1.5164368
1.5163166
1.5163497
1.5164724
1.516461
1.5163454
1.5163721
1.5162351
1.5162225
1.5162089
1.5162236
1.5161877
1.5161754
1.5161665
1.5161799
1.5161781
1.5161617
1.5161517
1.5161697
1.5161381
1.5161451
1.5161612
1.5161553
1.5161702
1.5161586
1.5161523
1.5161651
1.5161071
1.5160853
1.5160767
1.5161003
1.5160881
1.5160589
1.5160491
1.5160801
1.5160986
1.5160764
1.5160733
1.5160966
1.5160465
1.5160504
1.5160793
1.5160766
1.5161327
1.5161207
1.5161139
1.5161268
1.5161215
1.5161055
1.5160982
1.5161152
1.5160948
1.5160969
1.516113
1.5161117
1.5161243
1.5161121
1.5161108
1.5161234
1.5160563
1.5160506
1.5160795
1.5160857
1.5160438
1.5160501
1.5160785
1.5160734
1.516097
1.5160756
1.51607
1.5160928
1.516099
1.5160767
1.5160835
1.516106
1.5161052
1.5160974
1.5161142
1.5161216
1.5161111
1.5160952
1.5160907
1.5161075
1.5161223
1.5161102
1.5161064
1.5161191
1.5161262
1.5161135
1.5161218
1.5161339
1.5160157
1.5160251
1.516063
1.5160544
1.5160315
1.5159881
1.5159803
1.5160247
1.5160141
1.5160181
1.5160546
1.5160516
1.5159801
1.5159813
1.5160246
1.5160229
1.516567
1.5165693
1.5164779
1.5164744
1.5159402
1.5159462
1.5159924
1.5159882
1.5159563
1.5159493
1.5159595
1.5159472
1.5159607
1.5159433
1.5159532
1.5159491
1.5159859
1.5159404
1.5159432
1.5159885
1.5164715
1.516564
1.5165656
1.5164763
1.5160108
1.5160124
1.5159392
1.5159884
1.515943
1.5159864
1.5159468
1.5159469
1.5159567
1.5159552
1.515975
1.5159502
1.5159578
1.5159642
1.5159883
1.5159434
1.5159547
1.5159993
1.5159909
1.5159829
1.5160259
1.5160333
1.5160254
1.5159827
1.5159785
1.5160218
1.5160132
1.5160188
1.5160548
1.5160498
1.5160253
1.5160194
1.5160553
1.5160613
1.5160106
1.5160125
1.5160949
1.5160586
1.5165089
1.5165906
1.5165933
1.5165136
1.5165228
1.5166024
1.516607
1.5165316
1.5160879
1.5160994
1.5160609
1.5160475
1.5160859
1.5160979
1.5160782
1.5160415
1.5160399
1.5160774
1.5160671
1.5160699
1.516103
1.5161001
1.5160888
1.5160774
1.516111
1.5161217
1.5160331
1.5160303
1.5160665
1.5160689
1.5160654
1.5160265
1.5160305
1.5160691
1.516059
1.5160572
1.5160914
1.5160925
1.516059
1.5160588
1.5160911
1.5160915
1.5160356
1.5159968
1.5160007
1.5160415
1.5160186
1.5160121
1.5160149
1.5160199
1.5160268
1.516019
1.5160184
1.5160249
1.5160387
1.5160022
1.5160065
1.5160447
1.5160507
1.5160128
1.5160133
1.5160526
1.5160297
1.5160302
1.5160351
1.5160342
1.5160582
1.5160394
1.5160402
1.5160542
1.5160578
1.5160207
1.5160352
1.5160729
1.5161178
1.5161064
1.5161343
1.5161454
1.5160947
1.5160986
1.5161251
1.5161221
1.5161443
1.5161235
1.5161203
1.516142
1.516155
1.5161326
1.5161452
1.5161671
1.5160865
1.516087
1.5161139
1.516114
1.5161138
1.5160869
1.5160869
1.5161144
1.5161331
1.516112
1.5161123
1.5161339
1.516134
1.5161126
1.5161125
1.5161342
1.5161347
1.5161345
1.5161506
1.5161512
1.5161494
1.5161333
1.5161341
1.5161502
1.5161632
1.5161509
1.5161518
1.5161639
1.5161647
1.5161522
1.5161529
1.5161654
1.516175
1.5161624
1.5161609
1.5161734
1.5161606
1.5161446
1.5161424
1.5161588
1.516169
1.5161555
1.5161728
1.5161855
1.5161882
1.5161744
1.5161887
1.516201
1.5169108
1.5165403
1.5165996
1.5169315
1.5163362
1.5163039
1.5163334
1.516365
1.5163567
1.5163307
1.516367
1.5163919
1.5166532
1.516598
1.5169637
1.516979
1.5162202
1.5162078
1.5162351
1.5162474
1.5162159
1.5161895
1.5161958
1.5162221
1.5162356
1.5162139
1.51622
1.516241
1.516256
1.5162333
1.5162471
1.5162694
1.5162704
1.5162569
1.5162616
1.516274
1.5162536
1.5162366
1.516242
1.5162582
1.516272
1.516257
1.516275
1.5162893
1.5162922
1.5162775
1.5162936
1.5163068
1.5164019
1.5163826
1.5164261
1.5164413
1.5163798
1.5163573
1.5163977
1.5164178
1.5170112
1.5166521
1.5167019
1.5170199
1.5167451
1.5167003
1.517048
1.5170502
1.516644
1.5167174
1.5167257
1.5166581
1.51677
1.5168218
1.5169
1.5168978
1.5162187
1.5163443
1.5164906
1.5164313
1.5167669
1.5168107
1.5162927
1.5162592
1.5162877
1.5163213
1.5163097
1.5162794
1.516312
1.516341
1.5168426
1.5164824
1.5165439
1.5168747
1.5161729
1.5161592
1.5161936
1.5162062
1.5161755
1.5161409
1.5161516
1.5161859
1.5161731
1.5161643
1.5161961
1.5162036
1.5161951
1.5161828
1.5162141
1.5162259
1.5161541
1.5161207
1.5161298
1.5161664
1.5161504
1.5161459
1.5161551
1.5161605
1.5161674
1.5161594
1.5161743
1.5161814
1.5161511
1.5161714
1.5161379
1.5161864
1.5162748
1.516244
1.5162691
1.5163029
1.5162905
1.5163084
1.5162744
1.5162986
1.5164415
1.5164264
1.516671
1.5166358
1.5166865
1.5163951
1.5164406
1.5167326
1.516218
1.5163448
1.5160994
1.5160878
1.516054
1.5160882
1.516085
1.5160547
1.5160114
1.5160099
1.5160103
1.516012
1.5160877
1.5160979
1.5160977
1.5160885
1.516213
1.516327
1.5163225
1.5162131
1.5161853
1.5161779
1.5161783
1.5161851
1.5161748
1.5161655
1.5161663
1.5161752
1.5161678
1.5161669
1.516176
1.5161769
1.5161856
1.5161782
1.5161794
1.5161865
1.5162048
1.5161904
1.5162007
1.5162138
1.5161758
1.5161773
1.5161862
1.5161851
1.5161959
1.5161886
1.5161877
1.516195
1.5162116
1.516203
1.5162176
1.5162244
1.5162283
1.5162138
1.5162205
1.5162336
1.5162042
1.5161983
1.5161977
1.5162035
1.5170733
1.5167409
1.5167816
1.5170718
1.516449
1.5164046
1.5164204
1.5164609
1.516812
1.5167759
1.517091
1.517087
1.5164364
1.5164227
1.5164683
1.5164777
1.5163118
1.5162952
1.5163064
1.5163215
1.5162779
1.5162741
1.5162838
1.5162871
1.5163187
1.5163094
1.5163264
1.5163338
1.5162956
1.5162876
1.5162912
1.5162982
1.5163053
1.5162991
1.5163021
1.5163076
1.5163384
1.5163213
1.5163287
1.5163443
1.5163378
1.5163311
1.5163487
1.5163536
1.516461
1.5164504
1.5164988
1.5165051
1.5164496
1.5164379
1.5164845
1.5164921
1.5171032
1.5168041
1.5168378
1.5170993
1.5168602
1.5168294
1.5171152
1.5171132
1.5183546
1.5183628
1.5187814
1.5187753
1.5183271
1.518343
1.5187669
1.5187563
1.5188749
1.5188851
1.5189292
1.5189209
1.5189439
1.5189008
1.5188943
1.5189378
1.5182523
1.5182714
1.5187132
1.5186974
1.5182912
1.5183108
1.518744
1.5187304
1.5189114
1.518865
1.5188538
1.518901
1.518827
1.5188413
1.5188896
1.5188781
1.5190075
1.5189914
1.5189835
1.5190002
1.5189638
1.5189745
1.5189916
1.5189823
1.5189927
1.5190026
1.5190246
1.5190162
1.5190406
1.519019
1.519012
1.5190336
1.5190067
1.5189834
1.5189733
1.5189965
1.5189413
1.5189534
1.5189722
1.5189616
1.5189162
1.5189295
1.5189502
1.5189384
1.5189498
1.5189621
1.5189854
1.5189747
1.5191013
1.5190987
1.5190902
1.5190927
1.5190961
1.5190839
1.5190752
1.5190876
1.5190543
1.5190655
1.5190781
1.519068
1.5190315
1.5190435
1.5190573
1.5190464
1.5185953
1.5184246
1.518414
1.5185137
1.5184968
1.5186512
1.5187092
1.5187301
1.5186596
1.5186034
1.5184855
1.5186013
1.5187517
1.5187663
1.5187676
1.5187539
1.5187884
1.5188216
1.5188347
1.5187939
1.5188068
1.5188426
1.5188531
1.5188102
1.5189006
1.5188788
1.518902
1.5189253
1.518875
1.5188514
1.5188674
1.5188903
1.5189162
1.5188996
1.5189243
1.518942
1.5189525
1.518928
1.5189538
1.5189791
1.5187741
1.5187378
1.5187548
1.5187958
1.5186245
1.5183045
1.5182842
1.5186317
1.518647
1.5182773
1.5182804
1.5186669
1.5188221
1.5187771
1.5188015
1.5188495
1.518635
1.5183357
1.5183797
1.5186234
1.5184056
1.5183948
1.5186235
1.5186368
1.518744
1.5187203
1.5187232
1.5187387
1.5187252
1.5187195
1.5187421
1.5187562
1.5188378
1.5188361
1.5188481
1.5188469
1.5188177
1.5188155
1.5188268
1.5188279
1.5188322
1.5188133
1.5188258
1.5188471
1.5188581
1.5188355
1.5188496
1.5188781
1.5190032
1.5189777
1.5189977
1.519023
1.518966
1.5189477
1.5189676
1.5189859
1.5189962
1.5189837
1.5190014
1.5190119
1.5190249
1.5190132
1.5190379
1.5190477
1.5188766
1.5188269
1.51885
1.5189004
1.5183067
1.518289
1.5186893
1.518712
1.5183354
1.5183179
1.5187329
1.5187507
1.5188875
1.51887
1.5189202
1.5189348
1.5183582
1.5183452
1.5187648
1.5187749
1.5189444
1.5188979
1.518904
1.5189495
1.5189054
1.5189062
1.5189508
1.518949
1.5183676
1.5183631
1.5187808
1.5187829
1.5190257
1.5190303
1.519052
1.5190477
1.5190047
1.5190023
1.5190178
1.5190197
1.5190529
1.5190304
1.5190321
1.5190542
1.5189984
1.519003
1.5190182
1.5190143
1.5189235
1.5189346
1.5189281
1.5189441
1.5189135
1.5189207
1.5189486
1.5189351
1.5189344
1.5189515
1.5189623
1.5189484
1.5189601
1.5189491
1.5189356
1.5189417
1.5189754
1.5189533
1.5189569
1.5189665
1.5189415
1.5189348
1.5189197
1.5189119
1.5186004
1.5184995
1.5186018
1.5185069
1.5187649
1.5187524
1.5187525
1.5187642
1.5189191
1.5189125
1.5189127
1.5189188
1.5189338
1.5189398
1.5189337
1.5189396
1.5191287
1.5191083
1.519121
1.5191412
1.5191002
1.5190991
1.5191127
1.519114
1.5191271
1.5191219
1.5191232
1.519128
1.5191338
1.5191292
1.5191494
1.5191535
1.5190934
1.5190894
1.519104
1.5191076
1.5190873
1.5190709
1.5190838
1.5190982
1.5191201
1.519114
1.5191171
1.5191221
1.5191035
1.5190973
1.5191081
1.5191136
1.5191031
1.5191048
1.5191153
1.519114
1.5190922
1.5190988
1.51911
1.5191043
1.5191072
1.5191141
1.5191162
1.51911
1.5191232
1.5191212
1.5191192
1.5191212
1.5191539
1.519134
1.5191314
1.5191517
1.5191249
1.5191276
1.5191289
1.5191268
1.5191125
1.5191198
1.519122
1.5191158
1.5191199
1.5191266
1.519147
1.5191412
1.519088
1.5190675
1.5190888
1.5191093
1.5190324
1.5190061
1.519008
1.5190321
1.5190414
1.5190154
1.5190367
1.5190612
1.5190567
1.5190566
1.5190786
1.5190792
1.5189994
1.5189952
1.5190196
1.519024
1.5190038
1.5189784
1.5189914
1.5190153
1.5190398
1.5190274
1.5190496
1.5190623
1.5190491
1.5190446
1.5190676
1.519072
1.5189642
1.5189522
1.5189515
1.518962
1.5189445
1.5189456
1.5189435
1.5189444
1.5189823
1.5189475
1.5189487
1.5189841
1.5189559
1.5189913
1.5190116
1.5189714
1.5189349
1.5189339
1.5189354
1.5189362
1.5189216
1.5189204
1.5189297
1.5189302
1.5189554
1.5189229
1.5189336
1.5189675
1.5189397
1.5189712
1.5189375
1.5189749
1.5187736
1.5185769
1.518577
1.5187727
1.5189294
1.5189483
1.5189401
1.5189212
1.5190722
1.5190841
1.5190779
1.519066
1.5190662
1.5190608
1.5190612
1.5190663
1.5190773
1.5190755
1.5190754
1.5190773
1.5190662
1.5190598
1.5190663
1.5190605
1.5190775
1.5190754
1.5190754
1.5190774
1.5190515
1.5190557
1.5190561
1.5190653
1.5190681
1.5190624
1.519063
1.519073
1.5190782
1.5190702
1.5190771
1.5190707
1.5190842
1.5190724
1.5190737
1.5190803
1.5191283
1.5191122
1.5191326
1.5191497
1.5191694
1.5191524
1.5191696
1.5191861
1.5190511
1.5190897
1.519104
1.5190632
1.5190545
1.5190408
1.5190436
1.5190504
1.5190591
1.5190547
1.519058
1.5190556
1.5190659
1.519105
1.5191086
1.5190676
1.51906
1.5190606
1.5190628
1.5190635
1.519071
1.5212712
1.5189726
1.5190591
1.5183369
1.5183494
1.5184566
1.5185636
1.5184646
1.518359
1.5179803
1.5149365
1.515097
1.5163747
1.517961
1.5168547
1.5168111
1.5166114
1.5165192
1.5166847
1.5212729
1.5214225
1.5207468