/*--------------------------------*- C++ -*----------------------------------*\
  =========                 |
  \\      /  F ield         | OpenFOAM: The Open Source CFD Toolbox
   \\    /   O peration     | Website:  https://openfoam.org
    \\  /    A nd           | Version:  7
     \\/     M anipulation  |
\*---------------------------------------------------------------------------*/
FoamFile
{
    version     2.0;
    format      ascii;
    class       volScalarField;
    location    "2000";
    object      nut;
}
// * * * * * * * * * * * * * * * * * * * * * * * * * * * * * * * * * * * * * //

dimensions      [0 2 -1 0 0 0 0];

internalField   nonuniform List<scalar> 
33899
(
4.367508e-91
5.2077843e-91
9.8194253e-92
4.6055092e-91
4.3660274e-91
7.5263684e-91
6.6454474e-91
3.966544e-91
5.925759e-91
9.5777828e-92
9.6524249e-92
6.776655e-92
5.055026e-92
4.1713221e-92
5.7273928e-92
4.2035837e-92
5.4422886e-92
2.3955768e-91
2.3461692e-91
5.7563427e-92
3.887185e-91
4.0014648e-91
6.9020433e-91
6.9716448e-91
4.3415864e-91
4.2045362e-91
5.7994117e-91
8.178694e-91
6.3401329e-91
6.7747692e-91
5.20194e-91
2.7235943e-91
9.8793547e-92
9.8513619e-92
5.3248606e-92
4.1738188e-92
4.1958842e-92
5.5485411e-92
5.7197177e-92
5.3633893e-92
4.2662319e-92
4.1808001e-92
5.1532287e-92
5.6884185e-92
2.2938128e-91
2.3317657e-91
6.6373971e-92
6.6199888e-92
3.7297355e-92
3.9539384e-92
3.8415463e-92
4.0925477e-92
3.5068575e-92
1.7867214e-92
2.2383945e-92
2.3044963e-92
2.7582978e-92
2.8218367e-92
2.8648111e-92
2.6196451e-92
2.58544e-92
2.6556024e-92
1.7459625e-92
3.4633107e-92
3.3716514e-92
2.7883019e-92
2.6441883e-92
2.4264401e-92
2.4869892e-92
2.1587954e-92
2.0559586e-92
2.5857305e-92
2.5365422e-92
5.2265456e-92
4.8618901e-92
1.8801896e-92
4.1019736e-92
4.0132504e-92
2.7508698e-92
4.3679366e-91
3.9184434e-91
4.2288386e-91
6.3913263e-91
6.3476161e-91
4.2718265e-91
4.2450935e-91
3.4300069e-91
7.7688511e-91
7.2565098e-91
5.4977313e-91
7.5761535e-91
6.1483985e-91
5.7579097e-91
9.3237369e-91
4.4687268e-91
1.116031e-90
9.8765522e-91
5.1080295e-91
4.9954409e-91
2.8837501e-91
2.7341211e-91
2.3349814e-91
5.9677101e-92
5.7988894e-92
2.4426204e-91
5.7991937e-92
6.4293034e-92
5.2581017e-92
4.1900345e-92
4.127361e-92
5.2422537e-92
3.6580408e-92
2.8409443e-92
2.696139e-92
2.2518527e-92
2.1803566e-92
1.794806e-92
2.6797369e-92
2.6632462e-92
2.5965689e-92
2.5465689e-92
2.7146838e-92
2.4410001e-92
2.818279e-92
2.5963281e-92
2.242376e-92
2.6177014e-92
1.7647118e-92
2.727055e-92
2.1927489e-92
3.3696377e-92
3.5107985e-92
1.7663409e-92
2.2384053e-92
2.240906e-92
2.7519355e-92
2.8955109e-92
2.6665307e-92
2.5393653e-92
2.5518592e-92
2.5775776e-92
2.9815296e-92
2.804867e-92
2.5095094e-92
2.6201895e-92
1.7408615e-92
2.2566403e-92
2.2691793e-92
2.7417369e-92
2.568102e-92
3.6314171e-92
3.6150519e-92
5.2688506e-92
5.0223982e-92
3.6139912e-92
3.6124182e-92
3.9073616e-92
3.5043444e-92
3.4237793e-92
3.7402623e-92
3.8330443e-92
2.4450444e-92
2.3863793e-92
2.4431066e-92
2.428217e-92
2.5150355e-92
2.8066475e-92
2.8287066e-92
2.4050025e-92
2.558402e-92
2.5248439e-92
2.609307e-92
2.6747684e-92
2.9667075e-92
2.9887677e-92
2.6744443e-92
2.5926932e-92
2.6777032e-92
2.5562943e-92
2.5241024e-92
2.4979339e-92
3.0340225e-92
7.3296618e-93
1.2086485e-92
1.1996725e-92
7.380639e-93
1.8513692e-92
1.7261517e-92
1.6085171e-92
1.6624027e-92
1.575983e-92
1.6197119e-92
1.4602197e-92
1.4767062e-92
2.2462035e-92
1.5567349e-92
1.8743545e-92
2.6641556e-92
1.7266722e-92
1.9269267e-92
2.7027451e-92
1.9167004e-92
1.7822727e-92
1.7912875e-92
1.8665374e-92
1.8456462e-92
1.8193501e-92
1.7982072e-92
1.8361542e-92
1.8060844e-92
2.1511978e-92
2.1180567e-92
1.8813018e-92
1.9214055e-92
2.0283822e-92
2.2101211e-92
2.2143265e-92
2.0035658e-92
7.055209e-93
7.0250176e-93
1.2013381e-92
1.1777846e-92
2.6461219e-92
2.5678843e-92
1.9143046e-92
1.8361732e-92
1.8894979e-92
1.8508921e-92
1.8329007e-92
1.7905059e-92
1.8665929e-92
1.8297293e-92
2.1111385e-92
1.9377591e-92
1.9874958e-92
2.1457956e-92
2.1503584e-92
2.175955e-92
1.9874771e-92
1.9977674e-92
1.6064805e-92
1.4516649e-92
1.6720712e-92
1.4380902e-92
1.6226717e-92
1.4018216e-92
1.3810034e-92
1.4631989e-92
1.6913501e-92
1.4542823e-92
2.3351763e-92
2.5661767e-92
1.9250766e-92
1.4493314e-92
2.3528002e-92
2.3763043e-92
5.139067e-92
4.7133482e-92
2.599092e-92
7.3958436e-93
7.2959274e-93
1.2008701e-92
1.1828253e-92
2.4522623e-92
1.7677674e-92
1.9860331e-92
2.367887e-92
1.6536413e-92
4.3421284e-91
6.2129671e-91
6.0625583e-91
4.8827811e-91
4.4765735e-91
2.9627098e-91
4.7468219e-91
4.4456149e-91
2.6170416e-91
2.803497e-91
6.3972723e-91
6.4209203e-91
4.084901e-91
4.1227671e-91
3.5880013e-91
3.7704488e-91
5.3435734e-91
7.3576518e-91
4.9948062e-91
6.9289707e-91
5.7060807e-91
5.6164034e-91
1.9402066e-91
4.3363684e-91
2.251651e-91
1.98392e-91
7.9332205e-91
5.2464964e-91
1.1679797e-90
1.0383147e-90
4.6702551e-91
1.3237374e-90
6.1500797e-91
5.8415035e-91
1.7665337e-90
1.1586081e-90
4.742835e-91
1.6932402e-90
1.5252681e-90
9.9782474e-91
2.8922815e-91
6.1529187e-92
2.8431204e-91
6.574335e-92
2.7235056e-91
2.6764824e-91
6.099047e-92
5.644737e-92
5.2744478e-92
1.9128099e-92
3.8546003e-92
3.7279099e-92
1.9024901e-92
1.7701826e-92
1.7658299e-92
3.6472696e-92
3.6184329e-92
5.1486655e-92
2.4041279e-92
2.835878e-92
2.8166201e-92
2.326723e-92
2.9191445e-92
2.9141009e-92
2.368054e-92
2.2885797e-92
2.2366722e-92
2.5729092e-92
2.8916312e-92
2.2160617e-92
2.5284341e-92
2.6945197e-92
2.6936512e-92
2.8100677e-92
2.950478e-92
2.6233149e-92
2.6651446e-92
2.6261855e-92
2.2863686e-92
2.2764429e-92
2.5500333e-92
2.4956119e-92
2.5092708e-92
7.2600635e-93
1.9358884e-92
1.5164412e-92
2.2878707e-92
2.7645229e-92
7.4223337e-93
2.1499474e-92
1.6999801e-92
2.8728122e-92
2.5116644e-92
1.6639573e-92
1.5735613e-92
1.4679859e-92
1.4628973e-92
1.3886489e-92
1.3946081e-92
1.5791256e-92
1.4276208e-92
1.2371529e-92
1.1934884e-92
1.8422025e-92
1.8405088e-92
1.8367437e-92
1.7988023e-92
1.7669974e-92
1.7578804e-92
1.7249165e-92
1.7768258e-92
2.0733249e-92
2.1084671e-92
1.8611226e-92
1.8557337e-92
1.8471532e-92
2.0122638e-92
2.1053002e-92
1.9110183e-92
1.764255e-92
1.7174393e-92
1.7888927e-92
1.8312536e-92
1.8515392e-92
2.0264341e-92
2.0162574e-92
1.8052027e-92
1.8729416e-92
1.8044422e-92
1.8489476e-92
1.8899807e-92
2.1666204e-92
2.1146437e-92
1.92884e-92
1.9581012e-92
1.4219682e-92
1.5600663e-92
1.5604454e-92
1.6315645e-92
7.1731528e-93
2.4368404e-92
1.7733177e-92
1.9637365e-92
2.1756954e-92
7.0664807e-93
1.1985066e-92
1.2107159e-92
2.4836244e-92
1.4760269e-92
1.7143599e-92
2.3780449e-92
1.6047815e-92
1.4884014e-92
1.4045024e-92
1.5175784e-92
2.6140201e-92
2.687986e-92
7.2014736e-93
7.1365542e-93
1.1524007e-92
1.1610254e-92
1.6256331e-92
1.489104e-92
1.3716492e-92
1.5109723e-92
1.6229267e-92
1.5604727e-92
1.3655238e-92
1.4742701e-92
2.5393768e-92
1.4957598e-92
2.0393297e-92
2.4524437e-92
2.3079941e-92
1.4389193e-92
1.7934973e-92
2.3696203e-92
1.7669273e-92
1.6705319e-92
1.7540836e-92
1.8032272e-92
1.7872123e-92
1.6786485e-92
1.7479267e-92
1.801143e-92
2.1410623e-92
2.078316e-92
1.8816423e-92
1.9171573e-92
1.9281792e-92
2.1061649e-92
2.1810436e-92
1.9649749e-92
1.9510678e-92
1.8277383e-92
1.878175e-92
1.9304267e-92
1.9030962e-92
1.7667178e-92
1.8194381e-92
1.8927286e-92
1.9111352e-92
2.0905642e-92
2.1506506e-92
1.9444226e-92
1.963488e-92
2.1525104e-92
2.1818481e-92
1.9538202e-92
7.044704e-93
6.97744e-93
1.2173558e-92
1.2722353e-92
1.7522203e-92
1.6041213e-92
1.4732847e-92
1.6377841e-92
1.6347248e-92
1.5569827e-92
1.4170884e-92
1.5336349e-92
2.5829495e-92
1.4890574e-92
1.9906903e-92
2.4974064e-92
2.5074989e-92
1.4818383e-92
1.6525672e-92
2.4619843e-92
2.320638e-92
2.6212703e-92
5.1495666e-92
4.8474258e-92
2.3746796e-92
2.3915577e-92
2.4615842e-92
2.404017e-92
2.5153653e-92
2.455885e-92
2.3888845e-92
2.4607966e-92
2.9893305e-92
2.8923976e-92
2.5139803e-92
2.505988e-92
2.4326717e-92
2.3885602e-92
2.5403571e-92
2.4572599e-92
2.4492537e-92
2.3605449e-92
2.837778e-92
2.9489308e-92
2.5834169e-92
2.5158837e-92
2.844808e-92
2.8996412e-92
2.5522037e-92
6.4913514e-92
6.9801447e-92
7.4169749e-92
6.5713939e-92
8.5567515e-92
8.3162285e-92
9.0083507e-92
8.8202116e-92
6.7881059e-92
7.4994351e-92
7.7639043e-92
7.0372432e-92
8.8246909e-92
9.0338764e-92
9.3765248e-92
9.0085886e-92
6.6887115e-92
6.673168e-92
7.2891485e-92
8.7586399e-92
6.1796341e-93
6.2658766e-93
6.332711e-93
6.4356041e-93
1.2255814e-92
1.2811814e-92
6.3586503e-93
6.2651819e-93
6.1592508e-93
6.1152452e-93
1.869826e-92
1.780285e-92
2.171649e-92
2.322212e-92
1.8275741e-92
1.9325475e-92
2.2608647e-92
2.1514495e-92
1.5616221e-92
3.5190625e-92
2.2521045e-92
1.4237933e-92
1.9612298e-92
2.5933853e-92
1.4662246e-92
1.5191174e-92
3.0786277e-92
2.9237334e-92
3.5809121e-92
3.7155033e-92
2.8533981e-92
3.0041734e-92
3.6133251e-92
3.4328046e-92
4.7081347e-92
4.5780765e-92
5.1589581e-92
5.2271894e-92
5.4875993e-92
4.7571744e-92
4.8756941e-92
5.381342e-92
5.6628241e-93
5.7815452e-93
5.9953091e-93
6.1977115e-93
5.4762858e-93
5.9035009e-93
6.3410727e-93
5.9562221e-93
1.2095615e-92
1.2709555e-92
2.304379e-92
2.1858365e-92
3.427793e-92
3.0059551e-92
3.624978e-92
3.7686316e-92
3.0712638e-92
3.0189399e-92
3.6155036e-92
3.6513375e-92
4.7446888e-92
5.2955932e-92
5.2033218e-92
4.642215e-92
4.8921313e-92
4.6366675e-92
5.1682486e-92
5.5419152e-92
2.5178934e-92
1.8309533e-92
1.9943896e-92
2.2281024e-92
1.8904671e-92
1.7527404e-92
2.1996486e-92
2.268681e-92
1.9814151e-92
2.9571694e-92
1.3781366e-92
1.6434682e-92
2.1424288e-92
2.6543949e-92
1.2970353e-92
1.5370671e-92
2.4897656e-92
2.4114724e-92
2.4560671e-92
2.238958e-92
1.2847697e-92
1.3242355e-92
6.2320872e-93
6.0729074e-93
6.0935638e-93
6.2708422e-93
5.7322577e-93
6.0186752e-93
6.3661976e-93
5.9907895e-93
2.0146856e-92
2.3336108e-92
1.6169465e-92
2.7931634e-92
2.0516397e-92
1.4993037e-92
2.7013436e-92
4.2906002e-91
4.7336762e-91
6.572324e-91
6.2169905e-91
4.4395286e-91
2.9156747e-91
4.517451e-91
4.5478846e-91
2.7336446e-91
1.4037559e-90
1.1901389e-90
8.9554619e-91
1.0936381e-90
5.6897662e-91
1.262014e-90
2.946585e-91
3.1316191e-91
1.0524679e-90
4.0365164e-91
4.3516797e-91
3.9641772e-91
3.9300824e-91
5.0103187e-91
7.0230301e-91
4.9029776e-91
6.8008814e-91
5.4175033e-91
5.8301164e-91
1.9546005e-91
3.3096562e-91
3.3222783e-91
2.3846773e-91
2.4096829e-91
1.9527675e-91
4.2406546e-91
2.1959951e-91
1.9765978e-91
2.22395e-91
6.2410657e-91
4.4351755e-91
1.4335722e-90
7.4911497e-91
4.3718586e-91
1.360139e-90
6.0727294e-91
6.1737112e-91
1.9137297e-91
1.0444971e-91
1.2177327e-91
1.1553827e-91
1.1142354e-91
1.8152546e-91
1.8383913e-91
8.5430754e-91
6.1874807e-91
3.6555164e-91
1.6465078e-90
7.7921956e-91
1.1906459e-90
3.7504361e-91
1.9934553e-90
1.4132474e-90
3.7979791e-90
6.5550318e-91
1.3389531e-90
2.6433025e-91
3.1539443e-91
1.1430122e-91
1.1521332e-91
1.1162556e-91
2.8464702e-91
2.6403261e-91
1.2272466e-91
1.108889e-91
4.9002573e-92
4.9503736e-92
6.2984551e-92
6.5934355e-92
2.8138692e-91
1.0041102e-91
4.6972765e-92
4.6492499e-92
1.06218e-91
2.6967568e-91
5.1502456e-92
1.9165091e-92
1.8910499e-92
4.126703e-92
4.0329522e-92
2.9879427e-92
2.6664785e-92
2.8021566e-92
2.3568226e-92
2.3352702e-92
5.1192663e-92
2.8527752e-92
2.7951725e-92
1.3084444e-92
7.7818684e-93
7.601773e-93
1.2643151e-92
7.4794232e-93
7.3773875e-93
1.2754666e-92
1.2778561e-92
7.2605536e-93
7.2031246e-93
1.1733784e-92
1.1719818e-92
7.1491855e-93
7.0596353e-93
1.2381714e-92
1.2872607e-92
2.4171862e-92
2.718101e-92
4.9156908e-92
1.7215859e-92
2.0319491e-92
1.8675167e-92
1.5799928e-92
3.0659663e-92
2.1688637e-92
2.2146098e-92
2.8257241e-92
1.916241e-92
1.954179e-92
2.6795799e-92
2.5355583e-92
1.5741052e-92
1.6471066e-92
1.771783e-92
1.5687696e-92
1.876059e-92
1.9814581e-92
1.7852661e-92
1.7674583e-92
2.7115746e-92
2.7391819e-92
2.0622918e-92
1.7823356e-92
2.7008993e-92
2.9000583e-92
1.7633596e-92
1.6663148e-92
1.5461984e-92
1.5928581e-92
1.6819001e-92
1.7447413e-92
1.7786782e-92
1.6375817e-92
1.4479808e-92
1.636981e-92
1.629678e-92
1.4349388e-92
2.7922076e-92
1.8798659e-92
2.0008985e-92
2.3270091e-92
1.8749797e-92
1.5057358e-92
2.6050524e-92
2.9439025e-92
1.4120287e-92
1.3895115e-92
1.5811998e-92
1.4589588e-92
1.6701384e-92
1.7132277e-92
1.773909e-92
1.7501161e-92
1.7460872e-92
1.7832712e-92
2.1463638e-92
2.1578767e-92
1.8968186e-92
1.8897195e-92
1.7881464e-92
1.8590598e-92
1.8237847e-92
1.9244647e-92
1.9430805e-92
1.8210685e-92
1.8879721e-92
1.9087868e-92
2.0245708e-92
2.1169296e-92
1.9025335e-92
2.6519886e-92
1.8831012e-92
2.0119888e-92
2.4280173e-92
1.7258447e-92
1.5507268e-92
2.8365164e-92
2.7150278e-92
1.6221189e-92
1.5420548e-92
1.3727024e-92
1.5014324e-92
1.4927871e-92
1.4969751e-92
1.7223934e-92
1.5734771e-92
6.8015595e-92
6.3531641e-92
7.4418729e-92
5.8783289e-93
6.1055668e-93
6.269889e-93
6.2495827e-93
2.3521233e-92
2.7450359e-92
1.3205144e-92
1.5468579e-92
6.3390292e-93
6.4115792e-93
6.5267183e-93
6.6248999e-93
2.5233144e-92
4.3873625e-92
1.6078233e-92
1.5681965e-92
1.808954e-92
1.9465934e-92
2.3289284e-92
2.0999549e-92
2.0675059e-92
1.6525455e-92
1.798454e-92
2.1847727e-92
1.2557638e-92
1.2902844e-92
3.6450779e-92
3.0721224e-92
2.7553879e-92
3.2868626e-92
2.8924396e-92
2.7374886e-92
3.2463204e-92
3.4733929e-92
4.3822201e-92
4.7038424e-92
5.2145711e-92
4.9908824e-92
4.8814883e-92
4.2878075e-92
4.5525604e-92
5.149569e-92
3.4842884e-92
2.9297413e-92
3.3670318e-92
3.0227553e-92
5.0614507e-92
4.558365e-92
4.3335534e-92
4.7489844e-92
3.1754611e-92
2.8692379e-92
3.4705838e-92
3.7451913e-92
4.8150401e-92
4.4823173e-92
5.0440736e-92
5.3856332e-92
2.1873054e-92
1.7909524e-92
2.2766784e-92
1.7907332e-92
6.0545865e-93
5.9631098e-93
6.0241887e-93
6.1909597e-93
1.4951394e-92
3.6332643e-92
2.6621523e-92
1.4848331e-92
5.5420656e-93
5.9948775e-93
6.3918212e-93
5.9564205e-93
1.2774961e-92
1.2031922e-92
1.3598037e-92
3.619907e-92
2.2578301e-92
1.6997575e-92
1.9739855e-92
1.6659476e-92
2.082161e-92
2.4166655e-92
2.2138977e-92
2.317398e-92
5.9053865e-93
5.9973076e-93
6.1258983e-93
6.3293686e-93
5.6218282e-93
5.9085767e-93
6.2300413e-93
6.0445346e-93
1.2781239e-92
1.2880094e-92
1.9652824e-92
1.6321323e-92
1.9820728e-92
2.3752575e-92
1.8693929e-92
1.7786969e-92
2.0934834e-92
2.1911542e-92
1.4257621e-92
3.5177e-92
2.3828871e-92
1.5545147e-92
1.299962e-92
2.8640384e-92
2.1402351e-92
1.6494051e-92
3.0550008e-92
2.6876653e-92
3.2888306e-92
3.5689153e-92
2.8595898e-92
2.7834774e-92
3.3527061e-92
3.3626436e-92
4.4209198e-92
4.3717893e-92
4.8955345e-92
4.9748823e-92
4.9335798e-92
4.3536804e-92
4.6026574e-92
5.1038899e-92
3.4156713e-92
3.0279774e-92
3.6407133e-92
3.9463891e-92
3.0614687e-92
2.9569807e-92
3.5277346e-92
3.5924833e-92
5.0802103e-92
4.5537337e-92
4.6349097e-92
5.173713e-92
5.2348266e-92
4.6819377e-92
4.9749122e-92
5.5150225e-92
5.725506e-93
5.7550698e-93
6.0691441e-93
6.1885733e-93
5.538306e-93
6.0539924e-93
6.3453934e-93
5.9682163e-93
1.2264784e-92
1.1447016e-92
2.2533064e-92
1.8629676e-92
2.219893e-92
2.6133162e-92
1.9327887e-92
1.8337982e-92
2.1868681e-92
2.2754755e-92
1.4675117e-92
4.1327746e-92
2.7140119e-92
1.5564472e-92
1.4513781e-92
3.626567e-92
2.2325051e-92
1.8794276e-92
2.0021445e-92
2.2576769e-92
2.5216418e-92
2.4548079e-92
2.4951273e-92
2.2185323e-92
6.7062582e-92
6.1198712e-92
6.3061266e-92
6.9616555e-92
6.3627446e-92
6.1888039e-92
6.7621947e-92
6.9360572e-92
8.3427126e-92
8.2458149e-92
6.8372866e-92
6.4895664e-92
7.3541396e-92
6.9288309e-92
6.5103452e-92
6.3130231e-92
7.0971462e-92
6.7364786e-92
8.1017767e-92
8.5666899e-92
8.7772858e-92
8.5412035e-92
8.3010365e-92
8.6981236e-92
8.8441832e-92
1.3768375e-92
1.4869282e-92
1.3595984e-92
1.2689726e-92
1.4763187e-92
1.6240499e-92
1.502483e-92
1.4174422e-92
1.4523217e-92
1.508043e-92
1.59784e-92
1.486307e-92
1.3857873e-92
1.3451068e-92
1.2623691e-92
1.3193463e-92
1.6894834e-92
1.8151284e-92
1.8310062e-92
1.7091386e-92
1.5778566e-92
1.7146597e-92
1.6643401e-92
1.5768074e-92
1.7267391e-92
1.6897175e-92
1.5942309e-92
1.638164e-92
1.7491648e-92
1.8449324e-92
1.8974537e-92
1.798096e-92
1.5588788e-92
1.3873266e-92
1.307465e-92
1.4483038e-92
1.4613211e-92
1.5367714e-92
1.7074852e-92
1.5881617e-92
1.4772328e-92
1.6050963e-92
1.6355065e-92
1.4862218e-92
1.5606876e-92
1.5058145e-92
1.3791661e-92
1.4015823e-92
1.6834094e-92
1.673359e-92
1.5396886e-92
1.560404e-92
1.6191961e-92
1.7017214e-92
1.8311081e-92
1.7190355e-92
1.7640126e-92
1.8658991e-92
1.9772127e-92
1.8497238e-92
1.6528715e-92
1.7687817e-92
1.7843232e-92
1.6616085e-92
1.4825939e-92
1.5002248e-92
1.3568782e-92
1.3360677e-92
1.5113927e-92
1.4680539e-92
1.3548233e-92
1.3897824e-92
1.4694202e-92
1.5713844e-92
1.6233527e-92
1.4941648e-92
1.5886074e-92
1.6928622e-92
1.7131751e-92
1.5961674e-92
4.8473277e-93
9.9812264e-93
4.7398154e-93
9.7133591e-93
9.4530667e-93
9.6349093e-93
9.1650494e-93
1.0110283e-92
4.6604798e-93
4.6718335e-93
7.7098336e-93
7.595699e-93
7.0870363e-93
7.3834847e-93
6.6058584e-93
7.0714516e-93
7.1502582e-93
6.7165923e-93
8.2477478e-93
7.7311942e-93
6.8585921e-93
7.4437287e-93
9.1187935e-93
8.4510341e-93
7.6300475e-93
8.1387534e-93
7.2865492e-93
7.7899422e-93
6.9437879e-93
6.707348e-93
7.8284838e-93
8.8874338e-93
7.7113124e-93
6.8762002e-93
8.2620258e-93
9.3369216e-93
8.035321e-93
7.0784234e-93
8.0439013e-93
8.0644155e-93
7.0446079e-93
7.0528662e-93
1.8265451e-92
6.9594734e-93
2.1872737e-92
6.2721964e-93
1.8461903e-92
2.6528907e-92
1.647999e-92
2.2862284e-92
1.9407136e-92
2.0726571e-92
2.1456854e-92
1.135825e-92
6.2552115e-93
1.9647348e-92
1.5532324e-92
5.6320784e-93
1.156091e-92
1.7324882e-92
2.4684434e-92
9.0588513e-93
1.5852854e-92
2.0864266e-92
2.0177984e-92
1.2278879e-92
5.6513637e-93
1.700595e-92
1.6874791e-92
5.5498511e-93
5.9156729e-93
1.6535457e-92
1.7895065e-92
5.72623e-93
1.0256612e-92
9.5056206e-93
8.695545e-93
9.2719732e-93
9.3826111e-93
8.4535452e-93
7.7824794e-93
8.6608877e-93
8.9147281e-93
9.6381457e-93
1.0998049e-92
1.0095692e-92
9.9856461e-93
1.0900219e-92
1.1762445e-92
1.0575439e-92
8.7202255e-93
8.5719503e-93
7.7063308e-93
7.8807849e-93
8.89433e-93
9.9053293e-93
8.7211777e-93
7.8439928e-93
1.0039357e-92
1.1040456e-92
9.7713014e-93
8.8526381e-93
8.6296043e-93
9.4627947e-93
9.8087714e-93
8.9272389e-93
1.121032e-92
1.231449e-92
1.0904953e-92
1.0036605e-92
1.0970808e-92
1.0546873e-92
9.7783736e-93
1.0151348e-92
1.1132648e-92
1.1878812e-92
1.2369738e-92
1.1538186e-92
1.2415711e-92
1.3612781e-92
1.2245834e-92
1.1317826e-92
1.268701e-92
1.3788019e-92
1.4450449e-92
1.3004211e-92
1.0211663e-92
1.0913563e-92
1.258828e-92
1.1603348e-92
1.3102686e-92
1.2326255e-92
1.1291697e-92
1.1841147e-92
1.1526807e-92
1.2373219e-92
1.4228447e-92
1.3048711e-92
4.4796752e-93
8.3943266e-93
8.9295783e-93
4.5870108e-93
4.3945569e-93
8.4219137e-93
1.0689854e-92
4.5802315e-93
9.2219776e-93
9.7866797e-93
9.794753e-93
1.0021346e-92
1.0361193e-92
9.3401156e-93
1.0589573e-92
9.7555405e-93
8.9229616e-93
9.4402905e-93
1.011463e-92
9.7864014e-93
8.9087696e-93
9.188663e-93
1.0194573e-92
1.1147595e-92
1.163595e-92
1.0498255e-92
1.0118116e-92
1.1082142e-92
1.173291e-92
1.0454255e-92
1.0212877e-92
9.9778061e-93
9.1272623e-93
9.1786074e-93
8.3033545e-93
8.962201e-93
9.5549008e-93
8.7289746e-93
1.0426588e-92
1.1427722e-92
1.1439789e-92
1.0260236e-92
9.4554373e-93
1.0436734e-92
1.1080317e-92
1.0104586e-92
1.0854027e-92
1.1818379e-92
1.2583531e-92
1.147426e-92
1.2174427e-92
1.3316815e-92
1.4019173e-92
1.2721093e-92
1.2743988e-92
1.4035079e-92
1.3849148e-92
1.2426543e-92
1.2631893e-92
1.2803914e-92
1.1547227e-92
1.1395949e-92
1.2926221e-92
1.2474329e-92
1.1335947e-92
1.1635237e-92
1.1429649e-92
1.2521824e-92
1.3047251e-92
1.1796117e-92
1.253399e-92
1.3840572e-92
1.4367472e-92
1.2889568e-92
1.2498275e-92
1.371407e-92
1.4092923e-92
1.2738443e-92
9.5999475e-93
9.0761498e-93
7.7758366e-93
8.4051547e-93
7.4166722e-93
7.746731e-93
7.4769076e-93
7.0359893e-93
7.3733715e-93
7.6452117e-93
8.3759367e-93
7.7415385e-93
8.7219809e-93
8.7167356e-93
7.679786e-93
7.8152464e-93
7.6215807e-93
7.3424717e-93
7.0894413e-93
7.3089138e-93
6.8534791e-93
7.2163188e-93
7.0342529e-93
6.7032426e-93
8.260034e-93
8.0237666e-93
7.0860322e-93
7.4228839e-93
9.0272566e-93
8.588001e-93
7.8498228e-93
8.0558932e-93
2.6395178e-92
1.0126633e-92
2.2068698e-92
8.2229633e-93
1.0789153e-92
8.6135768e-93
1.7669893e-92
2.0593437e-92
5.9028177e-93
1.7065304e-92
1.4242991e-92
5.5853047e-93
1.7476421e-92
5.9709503e-93
6.1556848e-93
1.8665628e-92
9.5274625e-93
1.5970154e-92
2.3135081e-92
9.7618175e-93
1.2273708e-92
1.9957375e-92
1.9144683e-92
1.108018e-92
5.4223284e-93
1.7340412e-92
1.6866323e-92
5.1938838e-93
1.6968021e-92
5.597032e-93
1.5596258e-92
5.7291746e-93
2.6520921e-92
2.4466932e-92
2.0404526e-92
2.0166348e-92
2.698122e-92
2.7592759e-92
2.2533137e-92
2.0944766e-92
2.2784951e-92
2.6447574e-92
2.043649e-92
1.9110703e-92
1.0436374e-92
1.0205361e-92
9.7988288e-93
9.9264211e-93
8.9953205e-93
9.0804017e-93
8.4322651e-93
1.0222638e-92
4.6047443e-93
4.6143054e-93
4.4455268e-93
4.547381e-93
7.8807759e-93
8.3357739e-93
7.7567459e-93
7.3035547e-93
8.8208059e-93
9.2935542e-93
8.2145205e-93
7.7827875e-93
2.0203896e-92
6.3637363e-93
6.0224884e-93
1.9183001e-92
2.2062341e-92
1.2035807e-92
2.3580717e-92
1.1609132e-92
2.0309327e-92
1.1001801e-92
1.7179708e-92
1.0017278e-92
1.6917095e-92
5.9087177e-93
5.942415e-93
1.7040171e-92
1.0678004e-92
1.0088884e-92
1.8176436e-92
1.7164842e-92
1.67033e-92
4.2255836e-91
6.2262145e-91
5.9704932e-91
4.7112893e-91
4.3827382e-91
4.619809e-91
4.6503833e-91
2.8745331e-91
2.8012729e-91
9.7385392e-91
1.1373077e-90
1.4881051e-90
1.3168587e-90
6.8660784e-91
1.1060596e-90
1.0988229e-91
3.0170117e-91
3.116927e-91
1.1530082e-91
5.8367426e-91
4.7851981e-91
2.3097506e-91
1.6345683e-90
1.1502074e-90
9.528115e-91
6.7049658e-91
1.1068366e-90
1.0686734e-90
4.2321371e-91
4.383861e-91
7.3993625e-91
7.0669415e-91
5.4234269e-91
5.9138239e-91
1.9396566e-91
3.1551053e-91
2.4412913e-91
1.943552e-91
2.250614e-91
1.9564218e-91
3.6596263e-91
3.1517163e-91
2.0303221e-91
2.4529054e-91
1.1249143e-90
4.5136939e-91
1.3275692e-90
8.1391924e-91
4.5810672e-91
1.2947679e-90
5.929172e-91
6.4705876e-91
1.8935243e-91
1.174404e-91
9.9839933e-92
1.1493191e-91
1.3022873e-91
1.9505356e-91
1.8680969e-91
1.9045061e-91
1.0439211e-91
1.2345327e-91
1.2093654e-91
1.1278924e-91
1.8588769e-91
1.8543688e-91
4.982711e-91
4.9698499e-91
3.1977347e-91
2.1035876e-90
5.6210201e-91
7.36951e-91
3.2813281e-91
1.9610414e-90
7.4053212e-92
6.8244067e-92
6.7041236e-92
7.929752e-92
7.4505255e-92
1.081427e-91
9.8825597e-92
9.333259e-92
1.0267536e-91
8.1188441e-92
7.9270482e-92
8.3748598e-92
8.6804721e-92
8.3185847e-92
8.7976626e-92
6.5165064e-91
6.8497935e-91
3.2528122e-91
9.2485176e-91
2.2485799e-90
4.1890244e-91
9.6820922e-91
1.1546543e-90
1.020407e-91
1.0394506e-91
1.0176971e-91
1.0962415e-91
1.1007668e-91
1.2059963e-91
1.1423035e-91
1.1883512e-91
7.135744e-92
6.647539e-92
6.8263507e-92
7.1621016e-92
6.9356098e-92
7.9615341e-92
7.9813856e-92
6.9797574e-92
6.5426238e-92
7.1237294e-92
2.5045836e-91
2.7778637e-91
1.2097894e-91
1.1764192e-91
1.1519932e-91
1.0427445e-91
1.0531531e-91
1.0650225e-91
1.031848e-91
1.111111e-91
2.5422598e-91
2.8765144e-91
6.7454346e-92
7.3240458e-92
2.5788162e-92
4.8973987e-92
1.2014284e-91
1.151018e-91
4.9459619e-92
6.3935295e-92
1.0141247e-91
1.0729718e-91
4.6810934e-92
4.7763125e-92
2.8155915e-91
6.6185254e-92
7.1382216e-92
2.6572565e-92
2.5950699e-92
7.23222e-92
4.8664504e-92
2.9161505e-92
2.5564084e-92
7.657668e-93
1.2520782e-92
7.4906948e-93
7.4047076e-93
1.3228179e-92
1.3564212e-92
1.9462526e-92
1.9099723e-92
2.8818163e-92
2.7745975e-92
1.8001669e-92
1.8688275e-92
2.8338929e-92
2.8291066e-92
2.0604217e-92
1.8398724e-92
2.8453683e-92
2.8978822e-92
1.6152502e-92
1.6893709e-92
1.7830553e-92
1.6045574e-92
1.6953427e-92
1.7823796e-92
1.878909e-92
1.7078173e-92
2.6048363e-92
2.549138e-92
2.3942348e-92
2.3047136e-92
1.3277282e-92
1.358885e-92
1.3506881e-92
1.2616352e-92
6.695681e-93
6.830443e-93
6.6675857e-93
6.7407152e-93
6.4666003e-93
6.4061019e-93
6.2498581e-93
6.2999712e-93
6.0775842e-93
6.1566748e-93
6.2267329e-93
6.2488917e-93
5.8513758e-93
6.281736e-93
6.5922107e-93
6.0333911e-93
6.120592e-93
6.1485924e-93
6.2050493e-93
6.3146926e-93
5.6624968e-93
5.9561301e-93
6.248625e-93
6.0983232e-93
1.3290768e-92
1.3222451e-92
6.0874016e-93
5.9196181e-93
6.0361181e-93
6.1648283e-93
5.5945971e-93
6.1149351e-93
6.402026e-93
6.0134905e-93
1.2584256e-92
1.1709124e-92
2.0659207e-92
2.3131922e-92
2.5537082e-92
2.2823018e-92
2.2034945e-92
1.9436364e-92
1.742722e-92
2.0276516e-92
1.8265958e-92
4.2659866e-92
2.6841319e-92
1.5535808e-92
2.396882e-92
3.0543205e-92
1.4170662e-92
1.53213e-92
1.9978828e-92
1.6361041e-92
1.7305947e-92
2.122612e-92
2.7404341e-92
2.9654033e-92
2.939164e-92
2.7961996e-92
4.4521043e-92
1.5277121e-92
1.6282555e-92
3.1582949e-92
3.9190246e-92
1.474951e-92
1.5341042e-92
1.7299606e-92
1.7529456e-92
2.1560641e-92
2.0926659e-92
2.2126687e-92
1.7982106e-92
1.8576265e-92
2.2592693e-92
2.1344374e-92
1.7727526e-92
1.7769825e-92
2.0881377e-92
1.5922154e-92
4.4524375e-92
2.7332632e-92
1.501428e-92
2.6942787e-92
3.5748005e-92
1.3377291e-92
1.632665e-92
2.1107734e-92
1.6541324e-92
1.8532942e-92
2.2230909e-92
2.7353449e-92
2.707484e-92
2.8700777e-92
2.7568683e-92
3.2283717e-92
3.353634e-92
4.5466149e-92
4.3590131e-92
4.8522878e-92
3.4306816e-92
2.8397056e-92
2.8619765e-92
3.3056312e-92
3.2313005e-92
3.1177835e-92
3.6182518e-92
3.7583002e-92
5.1620042e-92
4.5314292e-92
4.8140689e-92
5.3429923e-92
1.6202892e-92
5.1370023e-92
3.3729289e-92
1.6191779e-92
2.8457407e-92
4.3765478e-92
1.4872646e-92
1.8677609e-92
1.8947204e-92
1.7503293e-92
2.1315217e-92
2.2297766e-92
2.2912439e-92
1.8300447e-92
2.1298233e-92
2.4828028e-92
1.4610606e-92
1.4034771e-92
1.2942129e-92
1.3393506e-92
1.4600492e-92
1.4616823e-92
1.343318e-92
1.3545195e-92
1.5094795e-92
1.5616767e-92
4.5528635e-93
9.0432865e-93
9.9836454e-93
4.7000921e-93
1.2659415e-92
1.0278123e-92
2.1078932e-92
2.0611321e-92
1.3326241e-92
2.0617196e-92
1.3895284e-92
1.8042373e-92
5.3700624e-93
1.6513256e-92
1.6945149e-92
5.6075135e-93
1.7166451e-92
5.5896479e-93
1.6264116e-92
5.7243632e-93
4.9006875e-93
1.0103899e-92
9.5956693e-93
4.832839e-93
2.23186e-92
2.4646691e-92
1.5511086e-92
1.9942739e-92
2.1367466e-92
3.1190227e-92
2.4276775e-92
1.653231e-92
7.2281469e-93
2.2958766e-92
1.8683539e-92
6.1279266e-93
1.8544638e-92
6.0769119e-93
2.1022278e-92
5.6905271e-93
6.8833857e-93
7.2382965e-93
6.6306545e-93
6.3317798e-93
7.993354e-93
8.9057313e-93
7.6340843e-93
6.9155065e-93
8.3603814e-93
9.5478136e-93
8.0335248e-93
7.2610247e-93
7.5848741e-93
8.0277068e-93
7.0201882e-93
6.6904462e-93
8.0111646e-93
7.739656e-93
6.674534e-93
7.0072191e-93
6.2506435e-93
6.657629e-93
7.0850851e-93
6.5526555e-93
7.2590926e-93
7.0325107e-93
6.6301964e-93
6.7993224e-93
8.251009e-93
8.0497267e-93
7.1119216e-93
7.30431e-93
9.5457845e-93
9.6185443e-93
9.3976108e-93
1.049578e-92
9.7085826e-93
8.6993104e-93
8.5309586e-93
9.6750323e-93
8.827767e-93
7.8826819e-93
8.0825631e-93
8.4203705e-93
7.5111642e-93
7.3202797e-93
8.2134982e-93
9.0971026e-93
8.9128261e-93
8.1076136e-93
9.0316548e-93
8.701027e-93
7.8543867e-93
8.2146622e-93
8.5929348e-93
7.9641089e-93
7.1982513e-93
7.7420434e-93
8.0011318e-93
8.8031866e-93
9.6449071e-93
8.7366681e-93
8.8093598e-93
9.6845753e-93
1.0310837e-92
9.4136014e-93
9.7332222e-93
9.9234473e-93
9.148335e-93
8.9957894e-93
1.0184002e-92
1.1268178e-92
1.0487918e-92
9.567132e-93
1.1291538e-92
1.2241273e-92
1.1481057e-92
1.0629103e-92
1.0206938e-92
1.0941001e-92
1.0741472e-92
1.0073231e-92
1.0152603e-92
1.0847514e-92
1.2060807e-92
1.1119164e-92
8.9712657e-93
9.655115e-93
1.072579e-92
9.8775446e-93
1.1701965e-92
1.0761927e-92
9.8995567e-93
1.0777692e-92
1.1119608e-92
1.1982442e-92
1.3198833e-92
1.2121483e-92
9.5661286e-93
1.0511702e-92
9.7451662e-93
8.7989671e-93
8.2955798e-93
9.0441363e-93
8.7275724e-93
7.8143252e-93
9.0057679e-93
9.9241605e-93
1.0884347e-92
9.7083575e-93
9.5153578e-93
8.8586117e-93
8.0039932e-93
8.5737145e-93
1.1914421e-92
1.3154345e-92
1.2160699e-92
1.1173762e-92
1.0665371e-92
1.1807799e-92
1.0753948e-92
9.9350614e-93
1.1955697e-92
1.094607e-92
9.9088732e-93
1.0757977e-92
1.098309e-92
1.201551e-92
1.3084128e-92
1.1788255e-92
1.0760982e-92
9.2869468e-93
8.4225139e-93
9.4717086e-93
8.8862619e-93
9.0982539e-93
8.3758469e-93
8.1184485e-93
9.7463886e-93
1.0549158e-92
1.02577e-92
9.3712291e-93
9.499012e-93
1.039897e-92
1.1833459e-92
1.0415248e-92
1.2752666e-92
1.1567679e-92
1.0537038e-92
1.1380668e-92
1.1063826e-92
1.2053809e-92
1.1680803e-92
1.0726266e-92
1.2226127e-92
1.3425267e-92
1.320073e-92
1.2085298e-92
1.1724433e-92
1.2717055e-92
1.3691249e-92
1.231634e-92
8.0945284e-93
8.4264543e-93
7.2082092e-93
7.0455202e-93
6.9495709e-93
7.2810474e-93
6.8513224e-93
6.5362884e-93
8.6314995e-93
8.0945041e-93
7.2049379e-93
7.6012529e-93
7.1467205e-93
7.0731544e-93
6.6931205e-93
6.8419887e-93
8.9105762e-93
8.6225047e-93
4.5599932e-93
4.5671076e-93
1.7044673e-92
1.608114e-92
5.591903e-93
5.2228053e-93
2.0594524e-92
1.2384933e-92
2.0150432e-92
1.0669236e-92
2.5335992e-92
9.9734481e-93
1.6826584e-92
9.9506321e-93
5.5046884e-93
1.453581e-92
1.5440583e-92
5.4236242e-93
4.3983738e-93
8.5242383e-93
1.0681625e-92
4.5927378e-93
9.7063467e-93
9.0898598e-93
1.7492951e-92
5.3531725e-93
1.7081158e-92
5.2393857e-93
1.1893066e-92
1.2493046e-92
2.1219969e-92
2.0517903e-92
2.974388e-92
1.0300398e-92
1.9384747e-92
8.2022368e-93
5.7530394e-93
1.6715346e-92
1.8212159e-92
6.3035512e-93
8.456875e-93
7.4152113e-93
7.0306805e-93
8.0363482e-93
6.4153483e-93
6.7575647e-93
6.7445493e-93
6.3665157e-93
7.973463e-93
8.0542893e-93
7.1794009e-93
7.0539576e-93
9.8906512e-93
8.5132598e-93
7.5335557e-93
8.5681176e-93
1.0291137e-92
9.2891977e-93
9.9202058e-93
1.0090694e-92
4.5964801e-93
9.2111467e-93
9.132064e-93
4.6138433e-93
4.4440754e-93
8.6254573e-93
1.0319643e-92
4.6249941e-93
9.7006797e-93
9.7687944e-93
8.624686e-93
7.4856052e-93
7.0536897e-93
8.2159482e-93
5.9751961e-93
6.431173e-93
6.3910834e-93
6.0676369e-93
7.6510165e-93
7.2157104e-93
6.3620255e-93
6.8974757e-93
1.0168914e-92
8.4024525e-93
7.5748128e-93
8.7833e-93
7.2899925e-93
7.3649557e-93
7.0085445e-93
6.9307083e-93
7.0266551e-93
7.7271757e-93
6.7462184e-93
6.1698337e-93
7.5208437e-93
8.4589866e-93
7.2450807e-93