/*--------------------------------*- C++ -*----------------------------------*\
  =========                 |
  \\      /  F ield         | OpenFOAM: The Open Source CFD Toolbox
   \\    /   O peration     | Website:  https://openfoam.org
    \\  /    A nd           | Version:  7
     \\/     M anipulation  |
\*---------------------------------------------------------------------------*/
FoamFile
{
    version     2.0;
    format      ascii;
    class       volScalarField;
    location    "2000";
    object      omega;
}
// * * * * * * * * * * * * * * * * * * * * * * * * * * * * * * * * * * * * * //

dimensions      [0 0 -1 0 0 0 0];

internalField   nonuniform List<scalar> 
33899
(
517.8527
516.52244
618.26103
517.8876
517.34136
494.81825
496.01059
513.22577
512.06145
618.63958
617.63802
1138.4256
858.38685
976.27976
555.37379
958.9095
845.53403
502.83652
502.6923
554.37064
518.03217
518.13505
495.9592
496.29826
513.34547
512.63475
509.11186
490.21716
512.2382
491.46509
507.25014
477.41369
620.31526
617.42651
858.15921
975.98283
959.58931
845.56473
555.49698
845.7415
962.54976
968.13905
851.30194
554.71337
502.92584
502.65803
1122.4318
1129.3968
2138.2068
2300.6122
2108.2587
2280.1601
2089.4569
751.95877
1416.6315
1457.7587
1292.6239
1247.8995
1636.1177
1679.5866
1866.3884
1829.8479
747.41668
629.3944
627.13832
1629.8614
1612.6886
1812.7825
1830.3292
1407.7394
1398.9342
1239.9207
1235.9159
552.42096
553.78958
739.70233
619.7675
620.45226
1243.3762
473.01661
518.94558
519.17904
495.90889
496.99654
513.0653
513.42226
613.05704
513.15922
491.56469
511.2089
491.87687
507.59717
507.11469
547.42324
503.67729
486.25867
561.00652
505.64463
499.93287
474.19888
477.01792
503.44906
555.39782
554.90828
502.97325
855.44693
839.83131
845.11968
961.5879
968.1214
850.79811
2085.0978
1255.405
1299.1817
1465.0729
1413.8914
753.0028
1677.3901
1623.4318
1856.983
1805.4713
1604.1493
1795.872
1623.0957
1814.0501
1395.2406
1236.0361
747.5855
1238.9895
1407.4544
627.46401
629.61593
746.30627
1393.3304
1414.2406
1252.3452
1232.5935
1608.8837
1629.7996
1820.4402
1800.0644
1662.6789
1625.2638
1819.0968
1853.1431
748.73451
1441.433
1410.9281
1247.1665
1269.4173
626.28772
624.78889
552.1205
553.05872
2089.0415
2071.269
2243.8287
2127.2667
2088.5975
2255.0818
2284.5713
3846.8364
3960.3692
3946.088
3834.3858
4411.6548
4356.1271
4359.871
4398.5977
3882.6077
4013.0739
3960.532
3835.5258
4370.1526
4424.3381
4493.9759
4429.4204
3836.686
3839.4339
3982.4489
3959.7633
4405.209
1138.0939
882.72317
872.167
1109.6047
2174.9951
2208.0848
2455.9587
2408.0309
2291.9352
2331.2126
2543.7841
2502.6453
2053.5227
1822.9144
1796.1401
2018.3941
1667.3391
1685.6113
1929.2421
1904.388
2718.2608
2773.0956
2987.2041
2924.8266
2805.7289
2844.262
3018.4781
2982.4907
3351.8088
3327.8714
3465.5221
3488.3875
3449.5813
3343.5193
3279.9406
3508.7202
1100.4457
1100.8089
861.08611
861.10061
708.79789
702.69183
2768.8116
2721.6521
2939.1702
2979.3292
2688.6184
2689.0886
2906.7653
2909.1798
3276.5803
3453.7905
3447.1687
3279.612
3356.1151
3303.6427
3471.1328
3518.5205
2432.9018
2168.6248
2197.2441
2409.6252
2137.8984
2149.897
2385.8422
2375.5016
1649.7487
1657.1244
1887.9392
1901.8906
1626.1928
1653.9273
1880.1985
1859.9866
545.66666
548.08457
696.20561
1100.414
1087.0314
850.28707
856.88328
1936.8227
1682.1909
1664.5636
1904.3162
1627.5511
473.15114
463.09014
463.0676
469.11617
469.30956
487.49333
481.04055
480.97909
487.52284
491.32046
496.41026
497.05794
513.44861
513.50946
611.61121
611.8472
513.70977
490.94919
516.54747
492.20583
507.3312
507.72739
582.52354
802.0652
802.00525
781.2248
579.93955
506.17832
487.17228
553.81922
506.71638
487.39189
499.85816
499.65079
590.63444
537.86901
498.27947
482.19532
614.23564
550.48214
2144.0539
533.65242
473.64123
532.45266
477.48522
502.54887
553.64886
844.54651
552.79068
750.67208
627.15066
624.29415
742.1699
746.48939
748.39148
626.34408
625.10786
552.77221
1473.6142
1305.4247
1257.1541
1419.0633
1234.324
1232.0376
1400.7223
1409.029
1411.1567
1252.6994
1231.8409
1392.5766
1624.7782
1602.7106
1795.0684
1616.1899
1651.9445
1835.1561
1245.8833
1267.2226
1408.6046
1437.6
3771.1655
3767.3163
3910.9729
1118.2145
1671.8937
1703.0778
1915.2582
1887.312
1143.4849
1799.2721
1846.5889
2070.8387
2023.3819
2283.9139
2331.5619
2525.066
2488.1433
2390.8449
2173.9585
2147.7488
2367.5884
886.00853
875.48819
2957.0661
2800.0519
2778.0613
2954.2708
2660.8472
2682.465
2871.4547
2853.3606
3286.4722
3273.7834
3408.0545
3428.1149
3350.7364
3196.701
3187.869
3352.8783
2898.114
2688.271
2857.4493
2657.7041
3429.0196
3265.341
3219.4058
3374.4136
2702.474
2690.6529
2895.0364
2897.8597
3239.5229
3238.3497
3401.3173
3397.0826
2376.6036
2146.6932
2344.5545
2120.2657
1101.3579
1873.714
1643.8622
1627.1034
1854.0557
1100.0257
861.15832
860.92196
1881.8863
1662.3588
1644.4953
1886.1676
2170.2143
2160.5334
2392.6312
2401.5559
702.39543
709.85034
1109.8667
1097.5827
865.96027
860.22736
2145.2312
2133.7837
2370.2219
2377.1759
2176.6195
2192.6625
2415.3781
2405.3484
1926.9632
1702.5814
1674.3769
1904.3816
1866.1371
1648.8157
1630.1419
1867.7645
2682.4206
2678.5935
2889.3808
2880.3744
2710.7863
2712.5081
2903.3433
2903.1847
3248.7421
3237.6416
3397.4188
3404.6666
3407.4618
3238.5549
3226.0821
3390.9193
2823.2794
2785.6472
2984.2443
3003.2898
2738.5306
2705.139
2911.4683
2944.9647
3418.7719
3263.8844
3312.2466
3462.5539
3474.8415
3334.935
3351.5046
3484.0505
1107.8208
1118.8043
864.36793
868.82677
2302.1831
2244.2935
2475.8597
2522.316
2189.1802
2170.3561
2400.8335
2424.575
1898.1556
1676.3405
1662.5644
1903.2366
1959.8741
1728.9112
1740.393
2003.9687
708.2001
699.48713
545.48494
546.68372
3896.7574
3762.3597
3777.8142
3904.5034
3761.2496
3780.3309
3913.9726
3894.2659
4303.1615
4319.9017
3845.714
3832.7364
3945.8253
3931.7815
3838.1105
3783.9877
3947.8313
3901.1103
4295.3721
4356.3823
4416.5236
4364.4927
4313.3997
4338.7582
4395.2028
11691.888
12575.212
12870.981
11905.393
14250.916
13415.498
13779.961
14670.34
11882.803
12870.743
12720.038
11743.228
13632.455
13821.563
14769.547
14525.358
11561.331
11626.424
12594.501
13521.046
1597.8564
1269.0425
1586.764
1257.8783
1014.3637
984.64709
1199.0989
1206.0687
1501.9767
1485.7953
5066.7761
5131.5561
6264.9376
6178.1
5337.0028
5443.3842
6511.7699
6431.5074
4413.4433
3008.0703
2935.2619
4320.3995
2603.3467
2696.3873
4074.0372
4002.6634
7310.617
7420.0553
8596.4648
8468.2864
7548.005
7586.786
8682.4592
8694.6774
9740.4564
9811.2704
10888.192
10749.935
10708.722
9740.0217
9601.3183
10842.092
1468.8844
1182.878
1175.4351
1450.3727
1472.9551
1179.7037
1173.6062
1455.8043
972.4276
966.44439
723.37558
719.63061
7469.7141
7201.603
8342.5991
8656.0185
7174.0684
7212.1983
8325.8831
8377.0885
9509.2498
10600.755
10538.55
9446.0813
9785.5318
9452.8657
10528.849
10859.216
6290.6898
4986.7726
5135.9548
6087.9153
4939.7226
4990.5504
6086.9387
6049.9461
2554.895
2505.2729
3915.1038
4019.9524
2480.0739
2545.9154
3933.158
3866.425
696.16989
690.1319
685.71484
712.59438
969.95002
954.34492
1183.2538
1186.4931
1481.7148
1479.6421
1452.1516
1160.9078
1154.6364
1437.2955
5272.0488
6437.9536
4138.4592
2670.1922
2591.7057
4021.9252
2488.6769
472.47139
468.87999
462.7293
463.37135
469.58324
487.76349
481.34296
481.20221
487.73718
463.54323
464.1216
471.38852
473.67904
470.31651
473.91899
491.24761
490.87904
478.1274
514.4554
513.93506
611.98783
613.32929
516.2563
491.30578
517.83317
491.91092
507.33149
507.07868
581.36707
800.55894
795.92712
773.39392
780.27255
581.97184
795.29647
798.45471
778.05062
773.29281
564.99234
506.54502
486.47022
587.23165
509.32257
487.5577
499.80234
499.99049
547.71443
719.93179
761.58859
761.76162
720.67185
1806.8477
1814.6339
673.11788
564.50622
503.26579
482.68149
603.60381
547.58597
502.42405
482.94162
578.44009
530.69399
492.89788
600.37159
2113.1783
2150.5519
5038.1476
4889.4461
5002.8472
2137.9439
2119.9568
561.42317
562.63821
592.71668
591.61148
532.61896
531.84103
473.82516
564.61145
595.98484
593.92266
562.79838
477.74018
551.86659
740.32112
743.10509
619.6831
621.83669
1228.6498
1261.0849
1238.5973
1398.9063
1430.6175
545.95874
711.271
702.21431
888.67899
1146.7082
1119.619
876.87141
1099.004
1097.6628
860.60234
860.69586
1111.0758
1097.5995
868.31181
862.22648
1106.7
1117.1154
864.41811
868.82998
707.41904
699.78754
546.3641
2612.4239
2401.6751
2336.2713
2564.313
2140.5476
1914.5776
1860.9263
2080.5985
1700.8831
1732.3359
1950.9063
1911.2211
2446.1733
2213.4481
2170.5968
2403.1492
2752.3683
2750.3712
1662.0618
1666.8503
1894.9567
1898.6237
1649.1915
1666.9084
1887.0208
1864.5082
2136.3845
2156.626
2405.5511
2389.6043
2429.9774
2177.4171
2185.1095
2435.3368
2429.8192
2210.8399
2168.4897
2394.0761
1942.4194
1712.5786
1685.8423
1909.5624
1634.6035
1648.5027
1857.879
1857.0393
2342.5167
2116.9316
2122.9713
2352.6218
2741.603
2696.8894
2651.1317
2640.4416
2845.0597
2853.4572
3203.0487
3206.385
3353.4766
2862.4387
2672.4529
2677.1634
2869.8751
2763.5059
2718.8851
2907.4134
2932.3836
3379.9743
3242.021
3258.1785
3392.8467
1889.8212
1668.1351
1657.1871
1886.3486
1737.1692
1724.5638
1945.0507
1984.6987
2157.1266
2159.9473
2383.7096
2380.0785
2431.664
2216.8291
2265.8496
2476.4956
11620.515
11482.613
12591.73
1520.0517
1216.1123
1208.6553
1494.4991
2638.9471
2689.5597
4022.9906
3973.3054
1616.4962
1279.807
1266.2922
1590.049
3024.6766
3107.0913
4526.2413
4407.4309
5374.2035
5502.7233
6529.2909
6423.2143
6056.2008
5009.3593
4976.5658
6029.3886
1021.1141
988.72344
8661.471
7574.9455
7495.5437
8604.6365
7104.988
7121.6707
8203.8382
8208.7879
9702.6446
9721.1713
10744.117
10778.024
10312.501
9263.9144
9301.5686
10376.424
8326.6249
7190.3085
8159.5469
7047.331
10475.226
9414.8169
9227.0646
10264.759
7278.2097
7155.1008
8278.2356
8422.2982
9529.5037
9377.1809
10451.227
10597.163
6076.558
4964.7089
5955.3944
4877.1845
1176.7829
1183.2254
1463.2898
1452.7625
3907.6602
2576.0458
2518.1714
3848.0802
1478.0004
1181.6673
1175.2154
1454.7175
967.59579
973.34691
3911.0432
2556.549
2560.9309
3973.7433
5040.4351
4966.7887
6053.1977
6145.5951
719.191
725.35457
1501.368
1201.3388
1197.3853
1489.502
1467.706
1173.8355
1169.1476
1447.6899
977.65319
962.1978
4944.848
4882.0397
5965.1235
6034.1206
5022.9622
5080.3471
6129.9671
6122.5766
4064.9586
2689.0436
2634.0058
3992.2857
3845.6672
2519.874
2501.4694
3891.4277
7131.3057
7051.7076
8161.4227
8238.8617
7231.958
7173.9213
8239.8721
8359.4768
9458.9515
9283.9831
10301.57
10524.535
10329.819
9253.0923
9312.0703
10347.153
7617.3489
7400.035
8517.5925
8735.0772
7309.5498
7197.0295
8315.0943
8461.3415
10425.303
9389.0671
9570.514
10636.133
10628.744
9591.1113
9801.505
10817.355
1483.78
1189.6131
1185.4409
1471.7877
1528.461
1216.0415
1220.4356
1523.6033
969.86524
995.37277
5368.5989
5180.6676
6290.3677
6493.961
5061.0641
5005.0924
6094.6946
6177.0113
3952.7307
2571.1108
2614.9982
4002.2896
4102.7171
2692.0671
2779.589
4269.5237
723.26016
714.57643
697.29788
690.61307
687.83286
697.39137
12204.413
11265.516
11532.885
12513.364
11322.788
11346.505
12340.172
12265.433
13177.059
13308.556
11759.901
11584.804
12652.683
12501.695
11632.402
11379.523
12592.595
12297.229
13179.093
13518.108
14441.725
14259.17
13380.889
13499.991
14335.94
16837.033
17083.45
17561.019
17308.944
17529.196
17725.923
18264.518
18054.116
18730.806
19024.949
18765.103
18512.592
17986.804
18375.038
18032.333
17755.392
19167.969
19322.208
20007.849
19835.631
18344.957
18443.313
19072.311
18944.243
19555.724
19818.29
19609.206
19391.712
20393.199
20618.701
20405.332
20247.704
18421.391
18160.72
17883.169
18173.599
18759.652
18934.901
19249.136
19030.573
18615.473
18914.408
18626.531
18369.413
17910.708
18195.582
17868.552
17609.041
19386.41
19667.817
19426.978
19197.771
19759.742
19867.978
20135.63
19995.938
20750.259
20903.492
21137.421
20975.446
20245.819
20453.653
20196.036
20033.9
18253.24
18264.846
17950.995
17928.51
18200.69
17808.209
17555.514
17932.819
18435.991
18606.107
19005.449
18777.603
19424.608
19533.649
19874.32
19721.914
2201.5859
1449.8869
2151.6133
1419.828
1130.451
1110.0828
1373.1087
1357.692
2026.5045
1980.5101
11494.411
11668.906
11830.529
11606.851
12143.328
11962.63
11685.161
11889.258
13141.933
13365.843
13335.757
13196.15
12804.246
13015.183
13030.102
12810.757
11774.314
12650.403
12753.416
11963.819
12267.763
12254.31
12151.716
12187.637
13278.301
13173.65
13031.644
13112.45
13179.499
13950.73
13844.222
13169.918
11616.026
11289.582
11467.499
11315.545
7063.2373
8520.4506
7199.1909
8792.3078
7754.2179
7218.4232
9122.5511
6358.1142
11631.39
11984.449
10758.738
10683.021
5855.0281
7464.7743
7107.1768
5577.8541
6425.8177
8192.9122
7453.5436
5888.172
10895.603
11048.002
10622.832
10592.914
10594.661
10608.686
10434.903
10413.438
14055.581
14268.013
14208.279
13988.683
14490.587
14553.274
14449.734
14433.696
15466.733
15651.289
15700.483
15533.959
15322.514
15450.903
15216.657
15058.2
14402.374
15059.268
14875.219
14305.673
13978.231
14088.497
14251.658
14085.43
14858.749
15015.013
15224.464
15002.536
15796.546
16069.181
15512.098
15313.516
15616.059
15832.511
16085.162
15848.349
16444.491
16944.113
16642.184
16216.576
17350.706
17684.987
17260.339
16990.245
16243.68
16489.101
16857.93
16583.689
17145.192
17450.936
17139.598
16877.996
16385.553
16616.014
16737.415
16526.085
16222.255
16522.743
16315.7
16030.235
17146.129
17451.633
17642.286
17358.051
1943.8789
1342.6675
1319.1293
1904.4451
1923.5571
1327.3335
1324.5639
1927.9969
1096.5301
1089.8596
1110.5625
1074.064
1052.3946
1061.7414
14605.847
14554.273
14455.06
14446.704
14094.253
13907.196
13864.082
14066.005
15004.806
15088.606
15360.006
15231.844
15491.722
15691.987
15692.957
15429.989
14281.828
14072.748
14071.651
14210.325
13840.179
13894.534
14154.045
14098.126
15275.468
15355.086
15487.403
15327.197
14964.821
15082.476
15401.856
15255.461
15932.773
16106.58
16483.639
16273.126
16772.739
17013.838
17411.951
17129.783
17197.782
17472.517
17484.575
17191.611
16543.638
16501.456
16331.141
16342.961
16566.679
16632.131
16368.488
16296.501
16046.234
16188.837
16464.566
16281.738
16908.615
17161.874
17421.97
17141.628
17116.451
17418.459
17335.589
17040.139
13354.932
13247.181
13248.065
13274.089
11588.578
11420.14
11267.191
11459.379
11997.369
11796.623
11971.103
12063.16
12709.5
12745.859
12717.788
12775.527
11456.99
11242.183
11493.513
11687.858
11622.22
11510.746
11394.145
11582.782
12814.104
12756.244
12704.527
12840.904
12953.498
12710.831
12795.248
12987.263
7158.3278
5625.6177
7266.6854
5539.8786
5410.8329
5385.129
7012.9804
6847.5319
10340.853
10322.427
10083.806
10145.741
10566.537
10666.469
10768.724
10737.481
5333.5021
6830.3239
6803.2576
5258.6891
5986.0658
7455.7301
6989.111
5530.0962
10426.313
10454.111
10218.559
10254.439
10195.194
10114.01
9994.9159
10268.792
801.24494
806.99024
879.8039
870.13984
790.62107
789.86755
857.45727
858.28431
789.18477
784.02934
850.91427
858.21459
1055.4588
1037.181
1087.2629
1070.8967
1348.4594
1336.3175
1310.9488
1303.8241
1983.7562
1964.5087
1908.5757
1890.8403
12157.555
12261.843
12342.303
12394.966
13721.646
13513.934
13474.934
13707.849
11212.074
11184.072
10865.972
10863.636
7623.0252
6141.6492
7929.8186
5938.941
7107.4753
5772.1818
7484.8842
5488.5823
10675.367
10715.901
10539.102
10494.992
5409.3096
5351.9255
7088.4973
7008.113
10369.287
472.89193
462.64243
462.52512
468.62687
468.86889
480.55797
480.62362
487.20294
487.13672
470.00695
473.41954
463.12922
464.43778
471.87637
474.2404
516.6609
491.48805
491.22578
515.71449
478.34323
478.22453
492.13639
484.49429
478.3405
479.76214
490.10159
478.65033
485.81147
514.36678
611.80112
491.24359
492.12525
507.98422
507.63132
581.9619
796.85983
796.88362
775.33202
778.02494
583.01573
803.51996
796.94638
775.43439
783.8894
567.26996
508.62652
486.45832
563.84691
510.4766
487.05286
499.52059
499.24205
546.64121
757.40658
717.66501
716.94973
759.75629
1817.4227
1793.8303
547.26162
719.47656
760.17261
757.92228
718.96357
1797.9102
1810.3998
619.17277
550.41881
501.75998
482.17321
648.76177
572.20609
503.36706
483.1465
626.00718
665.06425
664.84728
626.94276
627.15386
1151.1369
1455.9936
1448.6705
1140.0529
4238.1189
4210.228
4266.5201
4227.3035
4437.3235
4475.4048
690.21231
556.88325
500.93932
596.8503
541.6987
497.2978
575.14446
523.93158
4893.4845
4748.8763
4847.7349
5004.3928
4905.9757
4912.5912
5049.2776
5060.7144
10129.343
9648.6605
9768.2321
10255.238
9584.7647
10326.088
10220.794
10105.415
9633.0716
10172.752
2104.8436
2130.6549
4904.1077
5058.7521
4968.7498
4826.2074
4965.5124
4819.9266
4832.888
4992.679
2115.8359
2127.4127
590.24589
589.49548
697.74822
591.89081
561.03124
562.10464
593.33518
532.12536
564.23752
562.75309
593.76446
595.7054
474.40695
531.73594
591.25222
702.36167
699.50451
591.16553
545.68644
696.88334
705.16506
1095.5033
857.63219
1102.3165
1113.9563
861.58911
867.06002
1656.5953
1648.3939
1857.8471
1865.8858
1747.5078
1732.5267
1950.0709
1975.256
1667.4255
1675.6665
1883.555
1876.9909
2353.6318
2135.6117
2138.7075
2369.6047
2449.0697
2220.4133
2247.6098
2467.1772
697.21179
689.65507
729.10362
721.18835
1030.6046
995.00564
970.56798
974.32496
1295.3455
1662.475
1639.4079
1281.2968
1216.5753
1224.4883
1542.5654
1519.0659
1485.1878
1186.7595
1180.4123
1472.0001
1483.3243
1180.6073
1176.533
1469.5439
1203.314
1207.1573
1510.1716
1500.3452
1470.8443
1176.1941
1172.4419
1453.2425
980.44349
964.21097
1188.1701
1191.8549
1480.5421
1472.0925
1529.5035
1218.3552
1222.5205
1524.0754
971.48181
996.7925
723.41354
715.80071
687.50835
696.4856
6758.2467
5727.7917
5547.257
6649.2085
4809.7211
3440.2515
3223.9337
4600.5877
2747.7525
2876.4709
4207.1701
4065.9952
6234.9422
5184.5021
5067.2589
6141.5769
7169.6621
7280.6099
7327.8989
2638.8573
2634.8657
4018.0426
4038.1164
2593.6846
2649.0676
3990.8207
3946.3378
4959.3453
5008.7677
6085.2366
6052.8408
6186.5206
5068.9169
5079.5255
6168.4757
6191.4664
5130.6487
4999.1004
6077.1727
4128.4822
2787.375
2675.4781
4006.9255
2547.3646
2530.54
3853.777
3894.1887
5919.877
4854.9392
4910.9142
5971.0577
7267.8388
7170.283
7045.1297
7013.7556
8122.3014
8130.7144
9262.6274
9222.5103
10254.007
8206.6753
7120.9447
7098.6059
8172.7365
7445.8082
7300.8449
8393.7974
8524.6762
10471.501
9442.0165
9561.0699
10555.938
3958.5274
2631.0699
2606.9936
3963.9365
2798.6701
2698.509
4090.5104
4245.3226
4978.321
4984.2594
6050.8825
6038.7617
6216.5349
5133.8461
5295.4955
6368.8305
17610.008
18015.87
17710.859
17379.419
18229.203
17825.176
17612.172
17991.312
18749.821
18363.97
2037.7244
1381.4361
1368.803
2001.4131
6123.8029
5884.8958
7259.8814
7698.1009
6089.4779
7610.7857
6317.3988
7935.1223
10472.498
10776.707
10584.672
10360.316
10658.524
10469.425
10318.559
10221.072
2244.3171
1470.4002
1436.8942
2183.9417
7395.5576
9598.5552
6755.276
8639.3658
7513.377
9191.0223
8965.1214
7404.0135
11729.193
12242.13
11839.784
11430.551
11579.908
11871.393
12459.351
11179.276
12105.529
12840.817
13015.252
12234.567
12449.598
12568.19
12353.846
12363.725
13551.414
13491.159
13292.497
13432.947
13427.73
14328.891
14261.307
13398.518
12662.828
12831.643
12809.304
12670.548
11628.315
11457.269
11344.52
11488.416
11225.961
11453.691
11620.334
11332.187
12448.585
12797.588
12809.499
12441.284
1142.0232
1113.884
14942.184
15179.564
15612.446
15345.795
14123.489
14317.168
14613.042
14408.718
14563.717
15464.817
15221.14
14420.376
16091.704
16411.937
15571.13
15345.709
13583.909
13996.662
13898.877
13524.255
13854.331
13933.43
13754.341
13744.832
14631.938
14837.461
14914.423
14736.354
14914.927
15079.08
14672.193
14554.41
16414.763
17267.282
16945.888
16151.113
15645.68
15912.862
16472.521
16169.433
16238.756
16491.252
17199.237
16874.702
17631.482
17993.755
17125.978
16842.228
16147.804
16438.488
16718.26
16480.165
15456.006
15671.995
15855.327
15654.179
15686.441
16064.268
15862.959
15545.183
16735.68
16949.385
16632.675
16457.082
14854.912
15009.283
15152.946
14946.393
13808.127
13935.824
14094.4
13950.303
14742.636
14918.144
14960.41
14754.341
13825.931
13796.915
13735.029
13730.053
16517.331
16796.275
17014.65
16752.689
15762.149
15968.863
16113.489
15914.841
15899.367
15896.071
15714.288
15671.76
16518.983
16773.846
16733.998
16481.785
14000.534
14340.992
14273.367
13892.598
14187.106
13787.236
13749.243
14122.894
14864.411
14957.379
15388.906
15230.544
15324.205
15506.292
15076.312
14890.872
16009.623
16474.93
16201.534
15796.622
15875.197
16035.266
16441.814
16234.6
16742.438
16976.331
17371.233
17108.271
16966.326
17251.934
16834.971
16588.885
12920.753
12808.681
12751.091
12880.14
11626.393
11451.041
11414.631
11661.533
12577.433
12566.733
12602.095
12584.32
11142.872
11136.341
11384.066
11351.269
1323.858
1345.2971
1953.7338
1918.7957
10241.301
10375.652
10390.094
10241.835
7276.0937
5950.1602
7400.5458
5873.1735
6781.4813
5699.6714
7129.1731
5490.2641
10052.844
10067.011
9988.5696
10046.878
1943.9352
1332.7889
1326.5269
1927.4158
1087.1339
1093.6602
10369.756
10144.424
10123.372
10311.349
5842.1346
5818.9403
7254.1088
7429.449
6980.8922
5937.8499
7500.0281
5443.5494
10448.592
10521.981
10525.725
10430.802
11459.588
11570.86
11796.588
11574.345
11414.841
11233.83
11457.959
11659.396
12898.845
12570.103
12591.034
12921.562
12767.062
13024.408
13071.425
12758.723
1052.4335
1062.2285
1117.471
1077.3897
2004.6025
1361.6336
1345.9334
1975.5582
1917.7458
1319.3575
1315.8963
1899.0318
1091.8117
1073.2781
11323.001
11168.077
11340.951
11455.475
11397.376
11219.103
11106.15
11303.91
12518.74
12536.594
12512.495
12572.024
12676.548
12515.779
12574.436
12684.088
11476.824
11654.671
11966.273
11776.377
11601.784
11596.586
11526.351
11600.45
12729.702
12655.544
12513.212
12647.137
13071.546
13185.556
13205.784
13145.619
10636.655
10844.251
10765.505
10542.669
6208.3699
6265.7518
7856.7157
7960.4982
7322.8951
5955.79
7741.6877
5854.9924
10551.923
10737.937
10384.105
10331.574
10142.296
10205.611
10018.138
10016.489
5848.4569
7513.9608
7035.2378
5532.147
6798.0752
5563.6362
7034.8007
5286.1073
10095.959
10054.471
10360.289
10268.924
13918.212
13798.589
13774.5
13827.478
13827.212
13653.637
13598.053
13799.833
14685.397
14769.888
15055.824
14950.484
14875.689
14986.851
15024.348
14842.707
14436.571
14400.07
14311.148
14361.146
13466.838
13561.266
13781.871
13645.967
14402.971
14535.04
14775.997
14591.048
15302.331
15485.578
15601.226
15401.411
16571.767
16454.056
16232.338
16310.841
15264.775
15442.171
15694.139
15500.369
16020.299
16231.98
16541.208
16299.873
16989.335
17285.929
17376.134
17053.861
16590.812
16858.211
17182.221
16934.285
15741.122
15865.409
16183.049
16023.949
15984.386
16038.155
15841.169
15760.849
16636.261
16911.345
16812.17
16532.797
14463.471
14496.47
14313.905
14220.824
14324.321
13988.238
13885.673
14211.908
14879.534
15022.437
15446.835
15250.333
15222.821
15450.485
15322.297
15055.109
14521.693
14386.956
14358.345
14392.116
13481.34
13549.543
14181.558
14100.895
14497.016
14624.297
15380.671
15193.97
15476.86
15613.894
15618.718
15392.919
16097.683
16372.504
17259.294
16915.629
15382.068
15557.984
16401.604
16150.765
16545.51
16665.354
16434.356
16278.677
17185.287
17508.142
17336.59
17012.227
16435.153
16742.754
17247.578
16921.263
15756.951
15959.435
16416.802
16176.256
16082.727
16287.374
16009.994
15818.747
16682.711
16968.329
16751.596
16476.149
1946.8026
1340.1021
1332.2607
1947.1634
2026.2668
1371.8763
1383.2643
2051.7902
1084.8323
1110.3936
12295.794
12200.121
12239.789
12242.267
11811.307
11718.922
11756.055
11877.741
13102.219
12925.121
12855.945
13066.427
13405.714
13452.782
13342.448
13283.982
11832.528
11603.212
11841.534
12031.057
11412.98
11342.097
11447.271
11581.186
12831.484
12498.915
12429.178
12854.853
13272.831
13055.364
13123.96
13263.676
10336.253
10405.346
10461.588
10366.74
5741.8879
7283.4823
7483.0893
5911.3454
5982.4991
7738.7733
7739.2303
5964.49
10833.696
10502.004
10636.229
10686.391
10673.065
10744.661
10697.489
10630.955
6032.6252
6129.1908
7704.0524
7661.9221
6398.26
8037.6878
7832.5643
6243.3177
11301.935
11275.514
11148.448
11152.769
1055.2973
1091.797
1043.8378
1062.6444
803.73337
809.15165
882.89114
872.75099
791.84053
792.233
860.09309
859.65116
793.65573
789.60298
856.44827
863.34517
795.11266
796.61917
867.30645
862.56966
17604.307
17778.018
18132.273
17966.864
16786.023
16969.433
17302.843
17094.678
18082.035
18020.945
17779.153
17832.176
18654.663
18844.846
18897.549
18687.408
17533.338
17666.193
17424.765
17296.129
18051.609
17652.088
17462.211
17828.002
18414.51
18570.08
18948.804
18741.833
18259.431
18473.441
18305.932
18093.885
19120.719
19352.36
19193.378
18965.107
19434.73
19556.505
19889.222
19740.407
17348.974
17597.373
17322.431
17106.218
17927.951
17376.915
17143.38
17638.986
18018.62
18239.74
17966.118
17769.239
17913.647
18107.826
18642.669
18398.654
18013.594
18217.804
17944.225
17751.182
17965.401
17041.163
16840.747
17666.234
18755.802
18996.347
18774.06
18547.791
17653.034
17818.493
18720.217
18459.173
18550.527
18663.869
19545.027
19355.882
19592.981
19855.819
19676.731
19431.166
20586.459
20788.681
20497.394
20323.095
19614.855
19815.908
20350.191
20188.156
18786.703
18914.81
19437.87
19274.95
18667.736
18986.904
18817.522
18539.311
19665.52
19819.741
19472.481
19358.459
67944.141
66839.448
68384.014
69896.632
71202.606
69409.704
71722.26
73330.064
76294.573
74852.783
73885.782
75523.921
70222.89
71630.247
73079.351
71894.713
78181.531
76663.105
78968.1
80677.993
74909.332
73118.223
75241.162
76981.89
77525.797
78155.67
79839.525
79420.625
83365.454
81746.364
81504.869
83254.507
71055.701
70725.722
72413.178
72880.664
76223.956
74426.617
74939.684
76780.469
76172.831
74511.774
73442.952
74995.433
69993.069
70951.356
72558.175
71616.557
76849.63
78089.054
79882.55
78709.389
80346.889
78402.159
78928.276
80916.641
84513.356
82588.724
83146.786
85126.198
83793.687
81978.2
80836.771
82575.956
70914.708
70737.166
72448.773
72555.2
70936.421
70011.891
71728.37
72688.825
75457.805
73714.01
74691.591
76458.517
79439.248
77590.795
78556.404
80454.729
5661.8245
3599.0405
5704.4282
3506.7056
2165.0098
3384.6181
5545.9521
5095.7919
3318.3314
2060.668
1955.0269
1848.2349
1774.3049
1778.4272
1985.274
2002.3125
3242.1384
5067.9102
4753.6705
3170.4655
3160.3045
4747.0326
4508.1355
3121.1852
37535.043
38034.705
41480.73
40852.263
42140.228
38387.805
37938.296
41409.765
44905.97
45802.335
48936.655
48085.815
44200.149
44926.112
48080.729
47353.737
37989.299
39930.1
43877.559
41718.938
38630.838
38394.631
41672.092
41991.976
45359.932
44954.325
47941.264
48279.926
45415.774
47694.765
50820.648
48612.789
24322.884
35415.116
22981.446
35843.604
15814.929
19833.7
16705.295
21573.355
19303.261
17266.152
22978.46
14795.864
36638.864
25519.221
22843.883
34768.59
13833.391
18534.08
17727.987
13057.702
15927.686
21573.754
18983.876
13983.448
35184.814
24179.199
22730.875
34863.047
34794.689
22247.435
21720.024
34494.606
50434.017
51209.342
54085.721
53322.143
51283.464
52060.678
54830.957
54122.594
60169.866
57661.026
57047.186
59605.201
59678.126
56990.961
56166.707
58848.914
51775.699
53953.726
56588.955
54513.363
53531.712
50836.871
51176.345
53737.431
58234.558
56059.181
56385.874
58717.077
61687.23
59407.151
57369.154
59792.745
62091.197
60241.016
61055.979
63047.245
62324.914
64211.07
66249.015
64444.921
69909.804
68380.98
66627.677
68314.247
65285.544
63817.667
65056.039
66644.9
69001.257
67180.963
66125.794
68009.561
64901.119
62722.939
62287.677
64644.465
61444.411
62357.408
64746.647
63785.896
68889.088
67130.832
67060.747
68977.637
3138.3373
4837.9103
3072.8277
4505.5969
1973.1092
1898.2826
4369.9504
2959.4521
2984.6035
4248.6305
4368.9697
3013.2755
4395.8738
2994.9808
1911.2169
1941.6138
4452.0045
3041.2671
3058.85
4536.4252
1748.9004
1716.9923
1702.7595
1775.9465
1389.5796
1421.2804
1593.6269
1634.3954
1339.8426
1348.7375
1542.9679
1538.1012
1310.2839
1322.3501
1520.2387
1494.2225
1314.4339
1310.4685
1501.5589
1499.9953
52144.596
52034.672
54991.75
55062.644
50306.126
50183.482
52900.012
53193.857
58414.023
55804.418
56217.407
58879.829
60559.949
57959.916
57908.871
60413.158
50965.862
50418.109
53290.847
53757.067
53169.432
50249.505
50661.769
53543.048
59074.879
56341.886
56704.869
59303.517
58968.138
56137.191
56607.297
59309.854
63935.429
61553.75
62080.039
64464.121
68156.286
66169.439
66929.398
68872.608
68705.274
66826.701
66922.151
68872.453
62036.508
61869.207
64302.238
64447.78
62857.87
63117.363
65312.845
65020.544
63494.823
61127.69
61652.449
64077.831
67856.643
65964.536
66533.849
68446.616
69183.697
67484.583
67129.428
68821.64
45872.57
45505.036
48690.376
48937.928
40849.741
37443.266
36874.361
40299.128
41989.926
38420.684
38895.387
42361.016
43783.134
44161.645
47143.08
47008.446
37604.017
36910.98
40425.859
41113.599
40935.601
37497.301
37327.563
40781.36
44227.698
44213.361
47218.944
47390.942
44615.884
43937.165
47143.677
47771.395
17600.25
13400.122
18079.596
12763.636
13003.737
12505.515
17529.37
16802.934
34267.269
21676.42
21022.562
33649
22043.325
34910.775
35560.128
22216.414
12538.022
16811.174
16955.61
12367.077
15214.486
19467.584
17707.935
13376.533
34223.426
22267.253
21582.451
34004.906
21355.201
33563.6
20890.008
34250.872
918.38095
923.69371
1209.9612
1192.6627
907.37961
903.00951
1170.341
1174.6469
902.53472
898.98681
1162.2089
1172.0108
1315.3423
1327.2286
1523.2352
1500.7277
1284.1669
1292.2156
1474.7988
1469.7732
1705.1757
1778.6699
1911.1352
1974.9677
1697.2052
1669.0314
1877.2136
1888.8132
3164.3692
4862.1269
3102.2099
4705.7499
4634.9386
3043.1855
3009.7124
4402.8545
4324.1383
2976.8956
4371.2895
2949.3906
4271.5491
2968.3319
2965.6118
4319.7663
39177.162
39408.569
42742.742
42921.802
46587.538
46073.993
49139.041
49795.632
23000.256
36080.876
35596.709
22735.309
19167.613
14816.45
19743.812
14097.644
17784.586
13822.436
18808.797
12880.399
22568.849
35090.51
35040.686
22046.235
13114.857
12878.512
18003.05
17772.452
21997.675
473.44715
469.26167
463.09035
463.11647
469.38764
480.8904
481.14439
487.66424
487.45931
463.69852
462.73849
469.98838
473.18652
471.47608
473.447
490.70405
490.94419
516.09778
515.15129
479.11714
492.06891
478.00316