/*--------------------------------*- C++ -*----------------------------------*\
  =========                 |
  \\      /  F ield         | OpenFOAM: The Open Source CFD Toolbox
   \\    /   O peration     | Website:  https://openfoam.org
    \\  /    A nd           | Version:  7
     \\/     M anipulation  |
\*---------------------------------------------------------------------------*/
FoamFile
{
    version     2.0;
    format      ascii;
    class       volScalarField;
    location    "2000";
    object      p;
}
// * * * * * * * * * * * * * * * * * * * * * * * * * * * * * * * * * * * * * //

dimensions      [0 2 -2 0 0 0 0];

internalField   nonuniform List<scalar> 
33899
(
-1.3329922e+183
-1.3278077e+183
-1.1548827e+183
-1.3236485e+183
-1.319466e+183
-1.3233647e+183
-1.3285046e+183
-1.2851672e+183
-1.2807808e+183
-1.1485207e+183
-1.1518386e+183
-1.1996216e+183
-1.1572022e+183
-1.1801081e+183
-1.1112119e+183
-1.181764e+183
-1.1580891e+183
-1.0621357e+183
-1.064607e+183
-1.1138437e+183
-1.3107958e+183
-1.315288e+183
-1.3150977e+183
-1.3192598e+183
-1.2768539e+183
-1.2728277e+183
-1.3215901e+183
-1.2761154e+183
-1.3267804e+183
-1.2805385e+183
-1.230811e+183
-1.0047956e+183
-1.1413202e+183
-1.1451674e+183
-1.1506538e+183
-1.1731448e+183
-1.1750117e+183
-1.1520291e+183
-1.1055788e+183
-1.1537845e+183
-1.1766817e+183
-1.1788528e+183
-1.1560544e+183
-1.1084672e+183
-1.0573292e+183
-1.0597306e+183
-1.1959124e+183
-1.1980226e+183
-1.2044435e+183
-1.2131695e+183
-1.2051994e+183
-1.2138863e+183
-1.2057948e+183
-1.1308276e+183
-1.1785917e+183
-1.1782911e+183
-1.1663389e+183
-1.1657715e+183
-1.1878717e+183
-1.1872222e+183
-1.1958377e+183
-1.1965464e+183
-1.131282e+183
-1.096133e+183
-1.0961115e+183
-1.1893069e+183
-1.1883466e+183
-1.197125e+183
-1.1980934e+183
-1.1798236e+183
-1.1789465e+183
-1.1671015e+183
-1.1662425e+183
-1.050977e+183
-1.0536342e+183
-1.132529e+183
-1.0973379e+183
-1.1002903e+183
-1.1674148e+183
-1.008052e+183
-1.3059465e+183
-1.3007466e+183
-1.306233e+183
-1.3108155e+183
-1.2644215e+183
-1.268726e+183
-1.2717073e+183
-1.3134367e+183
-1.2682677e+183
-1.3175495e+183
-1.2722435e+183
-1.2268778e+183
-1.2229263e+183
-1.3214494e+183
-1.2742916e+183
-1.2261177e+183
-1.3266349e+183
-1.2787802e+183
-1.1785746e+183
-9.9890369e+182
-1.0009396e+183
-1.0525786e+183
-1.0992344e+183
-1.1026397e+183
-1.0549811e+183
-1.1424281e+183
-1.1440048e+183
-1.1464249e+183
-1.1693019e+183
-1.1716767e+183
-1.1490959e+183
-1.1996943e+183
-1.1594218e+183
-1.1594091e+183
-1.171181e+183
-1.171657e+183
-1.1246913e+183
-1.1802024e+183
-1.1807569e+183
-1.1889334e+183
-1.1895445e+183
-1.1815825e+183
-1.1902016e+183
-1.1824823e+183
-1.1911979e+183
-1.1724169e+183
-1.159985e+183
-1.1255424e+183
-1.1612102e+183
-1.1733439e+183
-1.0907028e+183
-1.0905531e+183
-1.1271667e+183
-1.1754305e+183
-1.1742733e+183
-1.1621368e+183
-1.1631226e+183
-1.1843359e+183
-1.1832709e+183
-1.1919929e+183
-1.1930016e+183
-1.1867317e+183
-1.185527e+183
-1.1939828e+183
-1.1951339e+183
-1.1295459e+183
-1.1779213e+183
-1.176648e+183
-1.1644743e+183
-1.1660626e+183
-1.0947703e+183
-1.0920694e+183
-1.0461694e+183
-1.0485904e+183
-1.200533e+183
-1.2015317e+183
-1.210259e+183
-1.2035783e+183
-1.2024327e+183
-1.2112e+183
-1.2123369e+183
-1.2078862e+183
-1.2116016e+183
-1.2119701e+183
-1.2082749e+183
-1.2193654e+183
-1.2153739e+183
-1.2157104e+183
-1.2196336e+183
-1.2086151e+183
-1.2123047e+183
-1.2126828e+183
-1.2089928e+183
-1.2163535e+183
-1.2160063e+183
-1.2198996e+183
-1.220221e+183
-1.2093867e+183
-1.2091766e+183
-1.2128507e+183
-1.2130865e+183
-1.2165418e+183
-1.1499076e+183
-1.1267277e+183
-1.1254233e+183
-1.1490324e+183
-1.1867457e+183
-1.1865886e+183
-1.1906729e+183
-1.1909544e+183
-1.1865595e+183
-1.1867295e+183
-1.1904184e+183
-1.1905019e+183
-1.1823914e+183
-1.1759678e+183
-1.1751291e+183
-1.1819966e+183
-1.1745439e+183
-1.1744579e+183
-1.1816822e+183
-1.1817684e+183
-1.1947617e+183
-1.1944272e+183
-1.1978354e+183
-1.1982185e+183
-1.1941824e+183
-1.1939789e+183
-1.1972393e+183
-1.1975431e+183
-1.2005952e+183
-1.2009457e+183
-1.2045343e+183
-1.2041635e+183
-1.2052556e+183
-1.2012604e+183
-1.2016352e+183
-1.2048638e+183
-1.149281e+183
-1.1502058e+183
-1.1267424e+183
-1.1254597e+183
-1.0929402e+183
-1.0929333e+183
-1.1962685e+183
-1.1956374e+183
-1.1990408e+183
-1.1996029e+183
-1.1952332e+183
-1.1949474e+183
-1.198667e+183
-1.198415e+183
-1.2018189e+183
-1.2054202e+183
-1.2056132e+183
-1.202038e+183
-1.202953e+183
-1.2024071e+183
-1.2059758e+183
-1.206567e+183
-1.1924655e+183
-1.187496e+183
-1.1883091e+183
-1.191738e+183
-1.1871985e+183
-1.1867814e+183
-1.1910482e+183
-1.1913831e+183
-1.1761664e+183
-1.1754827e+183
-1.1826241e+183
-1.1833143e+183
-1.1748963e+183
-1.1748211e+183
-1.1819077e+183
-1.1822253e+183
-1.0469103e+183
-1.0496009e+183
-1.0943885e+183
-1.1507016e+183
-1.1512715e+183
-1.127619e+183
-1.1273757e+183
-1.1835816e+183
-1.1763013e+183
-1.1761022e+183
-1.1836619e+183
-1.176415e+183
-1.0037362e+183
-1.0035816e+183
-1.0013578e+183
-1.0339362e+183
-1.036564e+183
-1.0622875e+183
-1.068164e+183
-1.0709917e+183
-1.0650478e+183
-1.1255364e+183
-1.2962394e+183
-1.3014052e+183
-1.2598659e+183
-1.2550952e+183
-1.2670233e+183
-1.2621358e+183
-1.3044395e+183
-1.2597578e+183
-1.309099e+183
-1.2640637e+183
-1.2147812e+183
-1.2188666e+183
-1.2212331e+183
-1.2701009e+183
-1.2675013e+183
-1.2920162e+183
-1.3133648e+183
-1.2665655e+183
-1.2183785e+183
-1.317421e+183
-1.27049e+183
-1.2222539e+183
-1.1749228e+183
-1.1712686e+183
-1.3214409e+183
-1.2740792e+183
-1.2243784e+183
-1.1749781e+183
-1.3266267e+183
-1.2786133e+183
-1.2997339e+183
-1.0522642e+183
-9.9511626e+182
-1.0496278e+183
-9.9752776e+182
-1.0504404e+183
-1.0963629e+183
-1.1406418e+183
-1.0416365e+183
-1.117037e+183
-1.0843522e+183
-1.0846113e+183
-1.1181382e+183
-1.1203419e+183
-1.1230973e+183
-1.0891083e+183
-1.0862463e+183
-1.0439346e+183
-1.1628239e+183
-1.1502787e+183
-1.1502672e+183
-1.1632069e+183
-1.1526347e+183
-1.1509588e+183
-1.1639055e+183
-1.1652736e+183
-1.1665116e+183
-1.154167e+183
-1.1554515e+183
-1.1677319e+183
-1.175742e+183
-1.1768994e+183
-1.1869837e+183
-1.1782297e+183
-1.179591e+183
-1.1882131e+183
-1.1569909e+183
-1.1588209e+183
-1.1691246e+183
-1.1705647e+183
-1.2033576e+183
-1.2026191e+183
-1.2069914e+183
-1.1427798e+183
-1.1679205e+183
-1.1678397e+183
-1.1748207e+183
-1.1751111e+183
-1.1432109e+183
-1.1680282e+183
-1.1687372e+183
-1.1751074e+183
-1.1749628e+183
-1.1795717e+183
-1.1794951e+183
-1.1834454e+183
-1.1835558e+183
-1.1836073e+183
-1.1794657e+183
-1.179933e+183
-1.1840207e+183
-1.1204099e+183
-1.11934e+183
-1.1905903e+183
-1.1872268e+183
-1.187364e+183
-1.1907762e+183
-1.187824e+183
-1.1874783e+183
-1.1909198e+183
-1.1912121e+183
-1.1941639e+183
-1.1939369e+183
-1.1973885e+183
-1.197656e+183
-1.1978596e+183
-1.1943378e+183
-1.1945722e+183
-1.1980885e+183
-1.1913969e+183
-1.1880783e+183
-1.1916722e+183
-1.1883929e+183
-1.1981801e+183
-1.1946956e+183
-1.1949322e+183
-1.1984022e+183
-1.1894198e+183
-1.1887368e+183
-1.1920976e+183
-1.1927675e+183
-1.1961195e+183
-1.1954238e+183
-1.1989284e+183
-1.1996756e+183
-1.1843236e+183
-1.1803525e+183
-1.1846619e+183
-1.1806532e+183
-1.1431278e+183
-1.1754727e+183
-1.1681355e+183
-1.1684746e+183
-1.1757999e+183
-1.1444037e+183
-1.1194996e+183
-1.1209376e+183
-1.1763843e+183
-1.1693152e+183
-1.1702907e+183
-1.177188e+183
-1.1817793e+183
-1.1809533e+183
-1.1849416e+183
-1.1856925e+183
-1.0872939e+183
-1.0872292e+183
-1.1453318e+183
-1.1460805e+183
-1.1217839e+183
-1.1220678e+183
-1.1839591e+183
-1.1830776e+183
-1.1869725e+183
-1.1877935e+183
-1.1827158e+183
-1.1821913e+183
-1.1860778e+183
-1.1865651e+183
-1.1776723e+183
-1.1708613e+183
-1.1707992e+183
-1.1780107e+183
-1.1784797e+183
-1.1713481e+183
-1.1722275e+183
-1.1792806e+183
-1.1913759e+183
-1.1906366e+183
-1.1940266e+183
-1.1947113e+183
-1.1901919e+183
-1.1897621e+183
-1.1931437e+183
-1.1935679e+183
-1.1970005e+183
-1.1965711e+183
-1.2001645e+183
-1.2006052e+183
-1.2010727e+183
-1.1974664e+183
-1.1980887e+183
-1.201676e+183
-1.1937787e+183
-1.1931638e+183
-1.196331e+183
-1.1969411e+183
-1.1926192e+183
-1.1919492e+183
-1.1952374e+183
-1.1958065e+183
-1.2020792e+183
-1.1985413e+183
-1.1990354e+183
-1.2025148e+183
-1.2030352e+183
-1.1995601e+183
-1.2001846e+183
-1.2037005e+183
-1.147491e+183
-1.1494548e+183
-1.1234357e+183
-1.126051e+183
-1.186712e+183
-1.1859628e+183
-1.1896389e+183
-1.1903144e+183
-1.1853945e+183
-1.1845238e+183
-1.1883472e+183
-1.189107e+183
-1.1800156e+183
-1.1731152e+183
-1.1737846e+183
-1.1808146e+183
-1.181614e+183
-1.1748783e+183
-1.1758126e+183
-1.1823215e+183
-1.0915453e+183
-1.0887036e+183
-1.0420712e+183
-1.0444867e+183
-1.2075274e+183
-1.2038671e+183
-1.2043384e+183
-1.2080432e+183
-1.2053936e+183
-1.2048179e+183
-1.2085378e+183
-1.2091243e+183
-1.2129174e+183
-1.2123123e+183
-1.2074076e+183
-1.2067557e+183
-1.2111472e+183
-1.2105014e+183
-1.2062322e+183
-1.2058017e+183
-1.20998e+183
-1.2095367e+183
-1.2133559e+183
-1.2138077e+183
-1.2178431e+183
-1.2183754e+183
-1.2143326e+183
-1.2149558e+183
-1.218991e+183
-1.2105921e+183
-1.2139788e+183
-1.2143806e+183
-1.2110305e+183
-1.2212518e+183
-1.21754e+183
-1.2178473e+183
-1.2215141e+183
-1.2113824e+183
-1.2146907e+183
-1.2149293e+183
-1.2116644e+183
-1.218354e+183
-1.2181472e+183
-1.2217637e+183
-1.2219584e+183
-1.2120289e+183
-1.2118281e+183
-1.2151139e+183
-1.2185647e+183
-1.166309e+183
-1.1518583e+183
-1.1651333e+183
-1.1501478e+183
-1.1285159e+183
-1.1270739e+183
-1.1497907e+183
-1.1494135e+183
-1.1643942e+183
-1.1645323e+183
-1.1941393e+183
-1.1940301e+183
-1.1968692e+183
-1.1970589e+183
-1.1940754e+183
-1.1942058e+183
-1.1965195e+183
-1.1967039e+183
-1.1908753e+183
-1.1842862e+183
-1.1832984e+183
-1.1903268e+183
-1.1826534e+183
-1.1825922e+183
-1.1899927e+183
-1.1900641e+183
-1.1998036e+183
-1.1995505e+183
-1.2021615e+183
-1.2024505e+183
-1.1992645e+183
-1.198985e+183
-1.2014595e+183
-1.2018292e+183
-1.2042478e+183
-1.2046676e+183
-1.2077368e+183
-1.2072937e+183
-1.2083981e+183
-1.2050269e+183
-1.205319e+183
-1.2081002e+183
-1.1647501e+183
-1.1498867e+183
-1.1494947e+183
-1.1646703e+183
-1.1652749e+183
-1.1500688e+183
-1.1516901e+183
-1.1662576e+183
-1.1283802e+183
-1.1270452e+183
-1.0910414e+183
-1.0910108e+183
-1.2011198e+183
-1.200682e+183
-1.2031747e+183
-1.2035633e+183
-1.2003179e+183
-1.2000114e+183
-1.2028628e+183
-1.202619e+183
-1.2054796e+183
-1.2085509e+183
-1.2087491e+183
-1.2056865e+183
-1.2063794e+183
-1.2059795e+183
-1.20904e+183
-1.2094892e+183
-1.1985571e+183
-1.1950468e+183
-1.1956975e+183
-1.1979894e+183
-1.194627e+183
-1.1942842e+183
-1.1972493e+183
-1.1975704e+183
-1.1844831e+183
-1.1836021e+183
-1.1909326e+183
-1.191687e+183
-1.1829383e+183
-1.1828132e+183
-1.1902033e+183
-1.1904825e+183
-1.0907413e+183
-1.090761e+183
-1.0922446e+183
-1.0925256e+183
-1.1292117e+183
-1.1295335e+183
-1.1510821e+183
-1.151982e+183
-1.1664184e+183
-1.165987e+183
-1.1662339e+183
-1.1512551e+183
-1.1525289e+183
-1.167199e+183
-1.1960744e+183
-1.1988381e+183
-1.1920418e+183
-1.1846364e+183
-1.1843607e+183
-1.1920246e+183
-1.1846336e+183
-9.9987883e+182
-1.0293002e+183
-9.9726283e+182
-9.992989e+182
-1.0316388e+183
-1.0569325e+183
-1.0627525e+183
-1.0653842e+183
-1.0595959e+183
-1.0069855e+183
-1.0048395e+183
-1.036944e+183
-1.0712416e+183
-1.0395632e+183
-1.074315e+183
-1.1189318e+183
-1.1221527e+183
-1.1244951e+183
-1.2501718e+183
-1.2451181e+183
-1.2571273e+183
-1.2520532e+183
-1.2945193e+183
-1.2505638e+183
-1.2996303e+183
-1.2552837e+183
-1.2105839e+183
-1.2063076e+183
-1.2168954e+183
-1.2652071e+183
-1.2630131e+183
-1.287227e+183
-1.2897071e+183
-1.2124884e+183
-1.2607263e+183
-1.2579574e+183
-1.2822486e+183
-1.2848814e+183
-1.304302e+183
-1.2580027e+183
-1.2103583e+183
-1.3089765e+183
-1.2623139e+183
-1.2143133e+183
-1.1637083e+183
-1.1674313e+183
-1.1676656e+183
-1.2172396e+183
-1.2437308e+183
-1.2463133e+183
-1.2194789e+183
-1.2794498e+183
-1.2772542e+183
-1.31336e+183
-1.2664729e+183
-1.216768e+183
-1.1677334e+183
-1.3174147e+183
-1.2703393e+183
-1.2206264e+183
-1.1713826e+183
-1.2740657e+183
-1.2241535e+183
-1.1738928e+183
-1.2786021e+183
-1.2947395e+183
-1.297458e+183
-1.2999549e+183
-1.3105681e+183
-1.3007332e+183
-1.2901235e+183
-1.2923605e+183
-1.0984951e+183
-1.1014501e+183
-1.0987565e+183
-1.0956793e+183
-1.0472002e+183
-1.0447681e+183
-9.9181843e+182
-1.0967724e+183
-1.0941292e+183
-1.0942275e+183
-1.0970017e+183
-9.9466833e+182
-1.0397293e+183
-1.1127695e+183
-1.1153901e+183
-1.080343e+183
-1.0829643e+183
-1.1459205e+183
-1.1495356e+183
-1.1474882e+183
-1.1601981e+183
-1.1619247e+183
-1.0376511e+183
-1.0813208e+183
-1.0814248e+183
-1.1128863e+183
-1.1345225e+183
-1.1341959e+183
-1.1119136e+183
-1.1347289e+183
-1.1363159e+183
-1.1121813e+183
-1.1137706e+183
-1.1376738e+183
-1.138741e+183
-1.1148783e+183
-1.1153844e+183
-1.1403219e+183
-1.142517e+183
-1.1168757e+183
-1.119596e+183
-1.0858011e+183
-1.0828941e+183
-1.0398633e+183
-1.1749956e+183
-1.171015e+183
-1.1709266e+183
-1.1751141e+183
-1.1661804e+183
-1.1593488e+183
-1.1587694e+183
-1.1659429e+183
-1.1587686e+183
-1.1584945e+183
-1.1658116e+183
-1.1660407e+183
-1.1752479e+183
-1.1709032e+183
-1.1711578e+183
-1.175605e+183
-1.1817797e+183
-1.1811051e+183
-1.1617531e+183
-1.160384e+183
-1.1676771e+183
-1.1688358e+183
-1.1594486e+183
-1.1590814e+183
-1.1663355e+183
-1.1668835e+183
-1.1719817e+183
-1.1714465e+183
-1.1759259e+183
-1.1764289e+183
-1.1770755e+183
-1.1726899e+183
-1.1737314e+183
-1.1779051e+183
-1.1783955e+183
-1.1744607e+183
-1.1748351e+183
-1.1788425e+183
-1.1696175e+183
-1.1624601e+183
-1.1627308e+183
-1.1699896e+183
-1.1643014e+183
-1.1633908e+183
-1.1704857e+183
-1.1714419e+183
-1.1793244e+183
-1.1751734e+183
-1.1761977e+183
-1.1802558e+183
-1.1821394e+183
-1.1825952e+183
-1.1840877e+183
-1.1831862e+183
-1.1866239e+183
-1.1875295e+183
-1.1915672e+183
-1.1921812e+183
-1.1954899e+183
-1.1882094e+183
-1.1847854e+183
-1.1855699e+183
-1.1889138e+183
-1.1869419e+183
-1.1862382e+183
-1.189558e+183
-1.1902431e+183
-1.1961438e+183
-1.1928066e+183
-1.1935158e+183
-1.1969243e+183
-1.1723264e+183
-1.1651701e+183
-1.1661434e+183
-1.1731635e+183
-1.1684464e+183
-1.1673516e+183
-1.1740317e+183
-1.1749193e+183
-1.1777909e+183
-1.177021e+183
-1.1809507e+183
-1.18177e+183
-1.1824424e+183
-1.1784459e+183
-1.1793405e+183
-1.1832111e+183
-1.2059004e+183
-1.2051498e+183
-1.2091941e+183
-1.1577954e+183
-1.1428956e+183
-1.1433322e+183
-1.1579325e+183
-1.1757789e+183
-1.1756684e+183
-1.1829464e+183
-1.1831503e+183
-1.1591912e+183
-1.1449655e+183
-1.14341e+183
-1.1581525e+183
-1.1760823e+183
-1.1769352e+183
-1.1834796e+183
-1.1831948e+183
-1.1870073e+183
-1.1870315e+183
-1.1897867e+183
-1.1898596e+183
-1.1898984e+183
-1.1868976e+183
-1.1871522e+183
-1.1900977e+183
-1.1220113e+183
-1.1207473e+183
-1.1949952e+183
-1.1924626e+183
-1.1925971e+183
-1.1951944e+183
-1.1928208e+183
-1.1926687e+183
-1.1952772e+183
-1.1953802e+183
-1.1979727e+183
-1.1977041e+183
-1.2005875e+183
-1.2009109e+183
-1.201067e+183
-1.1980914e+183
-1.1981374e+183
-1.2011038e+183
-1.1953353e+183
-1.1928715e+183
-1.1955818e+183
-1.1931795e+183
-1.2010313e+183
-1.1980377e+183
-1.1982566e+183
-1.2012589e+183
-1.1943313e+183
-1.1936777e+183
-1.1961704e+183
-1.1968455e+183
-1.199632e+183
-1.1989115e+183
-1.2019039e+183
-1.2026552e+183
-1.1902944e+183
-1.1874993e+183
-1.1906413e+183
-1.1878583e+183
-1.1431611e+183
-1.143439e+183
-1.1581073e+183
-1.1582574e+183
-1.1835004e+183
-1.1760079e+183
-1.1763572e+183
-1.1838801e+183
-1.1590783e+183
-1.1438776e+183
-1.1456914e+183
-1.160365e+183
-1.1208021e+183
-1.1222362e+183
-1.1845847e+183
-1.1772145e+183
-1.1783397e+183
-1.1853905e+183
-1.1890373e+183
-1.1883018e+183
-1.191011e+183
-1.1917164e+183
-1.0852149e+183
-1.0852299e+183
-1.1608852e+183
-1.146213e+183
-1.145447e+183
-1.1605841e+183
-1.1610112e+183
-1.1457138e+183
-1.1470534e+183
-1.1620529e+183
-1.1231733e+183
-1.1235494e+183
-1.1911801e+183
-1.1904162e+183
-1.1929992e+183
-1.1937509e+183
-1.189991e+183
-1.1895333e+183
-1.1920977e+183
-1.1926132e+183
-1.1859192e+183
-1.1788221e+183
-1.1787703e+183
-1.1861711e+183
-1.1866805e+183
-1.1792769e+183
-1.1802663e+183
-1.1874668e+183
-1.1963012e+183
-1.1956324e+183
-1.1982563e+183
-1.1988593e+183
-1.1951969e+183
-1.1947273e+183
-1.1973248e+183
-1.1977897e+183
-1.2006606e+183
-1.2001808e+183
-1.2032426e+183
-1.2037492e+183
-1.2042412e+183
-1.2011446e+183
-1.2016906e+183
-1.2047592e+183
-1.1987325e+183
-1.198162e+183
-1.2004886e+183
-1.2010461e+183
-1.1976095e+183
-1.1968991e+183
-1.1993787e+183
-1.1999511e+183
-1.2051889e+183
-1.2021543e+183
-1.2026539e+183
-1.2056527e+183
-1.2061791e+183
-1.2031834e+183
-1.203753e+183
-1.2067698e+183
-1.1629436e+183
-1.1478818e+183
-1.1482461e+183
-1.1635692e+183
-1.164756e+183
-1.1494791e+183
-1.1516442e+183
-1.1661772e+183
-1.1250745e+183
-1.1278455e+183
-1.1941128e+183
-1.1934554e+183
-1.1957582e+183
-1.1963952e+183
-1.1927562e+183
-1.1918888e+183
-1.1943533e+183
-1.1951916e+183
-1.188319e+183
-1.1811982e+183
-1.1819936e+183
-1.189136e+183
-1.1900679e+183
-1.1832076e+183
-1.1843208e+183
-1.1908293e+183
-1.0895773e+183
-1.0866421e+183
-1.084895e+183
-1.084878e+183
-1.0862621e+183
-1.0892369e+183
-1.2098596e+183
-1.2065162e+183
-1.2070507e+183
-1.2104322e+183
-1.2080538e+183
-1.2075428e+183
-1.2109444e+183
-1.2114688e+183
-1.2150616e+183
-1.2145105e+183
-1.2100625e+183
-1.2094548e+183
-1.2134935e+183
-1.2128945e+183
-1.2089393e+183
-1.2084702e+183
-1.2123754e+183
-1.2118971e+183
-1.2155223e+183
-1.216012e+183
-1.2197874e+183
-1.2203208e+183
-1.2165372e+183
-1.2171072e+183
-1.2208652e+183
-1.2127341e+183
-1.2111164e+183
-1.2113757e+183
-1.2129807e+183
-1.2160115e+183
-1.2143138e+183
-1.2145551e+183
-1.2162349e+183
-1.2164025e+183
-1.2147529e+183
-1.2149404e+183
-1.2165701e+183
-1.2118048e+183
-1.211589e+183
-1.2131858e+183
-1.2133904e+183
-1.2231472e+183
-1.2212639e+183
-1.2214187e+183
-1.2232847e+183
-1.2194969e+183
-1.2176916e+183
-1.2178902e+183
-1.2196712e+183
-1.2181792e+183
-1.2180187e+183
-1.2197795e+183
-1.2199263e+183
-1.2233958e+183
-1.2215224e+183
-1.2216592e+183
-1.2235255e+183
-1.2121336e+183
-1.2119778e+183
-1.213548e+183
-1.2136891e+183
-1.2167168e+183
-1.215085e+183
-1.2152125e+183
-1.2168339e+183
-1.2168796e+183
-1.2152761e+183
-1.2153684e+183
-1.2169656e+183
-1.2123366e+183
-1.2122464e+183
-1.2137755e+183
-1.2138622e+183
-1.2185652e+183
-1.2184798e+183
-1.22021e+183
-1.2202972e+183
-1.2200684e+183
-1.2183302e+183
-1.2184426e+183
-1.2201742e+183
-1.2236376e+183
-1.2217861e+183
-1.2218856e+183
-1.2237276e+183
-1.223779e+183
-1.2219314e+183
-1.2220183e+183
-1.2238625e+183
-1.2126885e+183
-1.2125725e+183
-1.2141102e+183
-1.2142322e+183
-1.212492e+183
-1.2124076e+183
-1.2139473e+183
-1.2140393e+183
-1.2170763e+183
-1.2154626e+183
-1.2155607e+183
-1.2171784e+183
-1.2204139e+183
-1.2186841e+183
-1.2187931e+183
-1.2205225e+183
-1.1727534e+183
-1.1556598e+183
-1.171301e+183
-1.1538294e+183
-1.1278073e+183
-1.1263156e+183
-1.1530228e+183
-1.1532944e+183
-1.1704597e+183
-1.1705672e+183
-1.1977079e+183
-1.1976293e+183
-1.1986949e+183
-1.1988143e+183
-1.1985609e+183
-1.1975381e+183
-1.1975649e+183
-1.1986548e+183
-1.1996585e+183
-1.1995551e+183
-1.2004829e+183
-1.2006154e+183
-1.1998281e+183
-1.199722e+183
-1.2007029e+183
-1.2008153e+183
-1.19756e+183
-1.1976807e+183
-1.198528e+183
-1.198563e+183
-1.1977902e+183
-1.1978458e+183
-1.1985448e+183
-1.1985653e+183
-1.1993785e+183
-1.199312e+183
-1.2000908e+183
-1.2001841e+183
-1.1995016e+183
-1.1994316e+183
-1.2002779e+183
-1.2003969e+183
-1.1951843e+183
-1.1969659e+183
-1.195619e+183
-1.1967344e+183
-1.1890015e+183
-1.1928676e+183
-1.1882983e+183
-1.1923511e+183
-1.1914395e+183
-1.1875131e+183
-1.1918374e+183
-1.1871633e+183
-1.1964975e+183
-1.1948447e+183
-1.1944263e+183
-1.1962691e+183
-1.1862543e+183
-1.1909897e+183
-1.1913919e+183
-1.1867767e+183
-1.1865721e+183
-1.1910647e+183
-1.1909714e+183
-1.1861865e+183
-1.196179e+183
-1.1943103e+183
-1.1942851e+183
-1.1961881e+183
-1.1962852e+183
-1.1943578e+183
-1.1946335e+183
-1.1964259e+183
-1.2018712e+183
-1.2017692e+183
-1.2028497e+183
-1.2029564e+183
-1.2016606e+183
-1.2015251e+183
-1.2025779e+183
-1.2027318e+183
-1.2049183e+183
-1.2037139e+183
-1.2038701e+183
-1.2050866e+183
-1.2052157e+183
-1.2039971e+183
-1.2040915e+183
-1.2053138e+183
-1.2014036e+183
-1.2012714e+183
-1.2022713e+183
-1.2024359e+183
-1.2019651e+183
-1.2010157e+183
-1.2011419e+183
-1.2021265e+183
-1.2041359e+183
-1.2030045e+183
-1.2032012e+183
-1.2043624e+183
-1.2045488e+183
-1.2033763e+183
-1.2035519e+183
-1.2047474e+183
-1.2067024e+183
-1.2053654e+183
-1.2056095e+183
-1.2069581e+183
-1.2060193e+183
-1.2058133e+183
-1.2071674e+183
-1.2073855e+183
-1.2100734e+183
-1.2085717e+183
-1.2087907e+183
-1.210295e+183
-1.2095912e+183
-1.2080913e+183
-1.2083537e+183
-1.2098569e+183
-1.2107555e+183
-1.2092726e+183
-1.2093695e+183
-1.2108526e+183
-1.2075656e+183
-1.2061994e+183
-1.2063696e+183
-1.2077401e+183
-1.2065965e+183
-1.2065011e+183
-1.2078686e+183
-1.2079679e+183
-1.210472e+183
-1.2089723e+183
-1.2091442e+183
-1.2106364e+183
-1.170717e+183
-1.1533697e+183
-1.153005e+183
-1.1706246e+183
-1.1713592e+183
-1.1536428e+183
-1.1553371e+183
-1.1725545e+183
-1.1276674e+183
-1.1262786e+183
-1.1257237e+183
-1.1243538e+183
-1.1243382e+183
-1.1257421e+183
-1.2031401e+183
-1.2029735e+183
-1.2039156e+183
-1.2040938e+183
-1.2028385e+183
-1.2026326e+183
-1.2036381e+183
-1.2038057e+183
-1.205841e+183
-1.2046981e+183
-1.2048457e+183
-1.2059817e+183
-1.2061036e+183
-1.2049578e+183
-1.205142e+183
-1.2063093e+183
-1.202465e+183
-1.2022661e+183
-1.2033027e+183
-1.2034849e+183
-1.2030317e+183
-1.2019594e+183
-1.2021113e+183
-1.2031632e+183
-1.2055643e+183
-1.2043937e+183
-1.2045565e+183
-1.2057115e+183
-1.2053658e+183
-1.2041508e+183
-1.2042686e+183
-1.205459e+183
-1.2080205e+183
-1.2066505e+183
-1.2067362e+183
-1.208101e+183
-1.2109147e+183
-1.2094263e+183
-1.2095071e+183
-1.2109947e+183
-1.2110736e+183
-1.2095937e+183
-1.2097139e+183
-1.211192e+183
-1.2069674e+183
-1.206832e+183
-1.2081869e+183
-1.208313e+183
-1.2075895e+183
-1.2073717e+183
-1.2087364e+183
-1.2089725e+183
-1.208432e+183
-1.2070896e+183
-1.2072326e+183
-1.2085813e+183
-1.2113198e+183
-1.2098326e+183
-1.209991e+183
-1.2114926e+183
-1.2116804e+183
-1.2101629e+183
-1.2104081e+183
-1.2119424e+183
-1.2013045e+183
-1.2011421e+183
-1.2020265e+183
-1.2021918e+183
-1.1996127e+183
-1.198511e+183
-1.198809e+183
-1.1999233e+183
-1.2001694e+183
-1.1991052e+183
-1.1993315e+183
-1.2003449e+183
-1.2009215e+183
-1.2006361e+183
-1.2015991e+183
-1.2018488e+183
-1.1983154e+183
-1.198091e+183
-1.1991835e+183
-1.1994412e+183
-1.1988622e+183
-1.1977904e+183
-1.1979256e+183
-1.199045e+183
-1.2000732e+183
-1.1999002e+183
-1.2008902e+183
-1.2010556e+183
-1.2004521e+183
-1.2002198e+183
-1.2012068e+183
-1.201425e+183
-1.1934144e+183
-1.1882588e+183
-1.1927647e+183
-1.1890779e+183
-1.1873186e+183
-1.1878557e+183
-1.1918754e+183
-1.1922764e+183
-1.1971627e+183
-1.1951367e+183
-1.1954316e+183
-1.1974685e+183
-1.1959601e+183
-1.1978161e+183
-1.1981357e+183
-1.1964688e+183
-1.186493e+183
-1.1913115e+183
-1.1915918e+183
-1.1868914e+183
-1.1867589e+183
-1.1913544e+183
-1.1913675e+183
-1.1865069e+183
-1.1965254e+183
-1.1946974e+183
-1.1947115e+183
-1.1965971e+183
-1.1949289e+183
-1.1967431e+183
-1.194719e+183
-1.1969584e+183
-1.1253636e+183
-1.1264416e+183
-1.126305e+183
-1.1250438e+183
-1.1254427e+183
-1.1268028e+183
-1.1264292e+183
-1.1250531e+183
-1.1276789e+183
-1.1280969e+183
-1.1277123e+183
-1.1273456e+183
-1.1266803e+183
-1.127005e+183
-1.1285933e+183
-1.1289011e+183
-1.1557337e+183
-1.1548158e+183
-1.154956e+183
-1.1562069e+183
-1.1727408e+183
-1.1721496e+183
-1.1723752e+183
-1.1734134e+183
-1.1995692e+183
-1.199483e+183
-1.2004596e+183
-1.2006032e+183
-1.2015852e+183
-1.2014113e+183
-1.2023201e+183
-1.2025317e+183
-1.1966334e+183
-1.1983029e+183
-1.1983194e+183
-1.1965668e+183
-1.1932103e+183
-1.1889718e+183
-1.1933725e+183
-1.1884701e+183
-1.1929515e+183
-1.1881635e+183
-1.1929275e+183
-1.1882431e+183
-1.1963693e+183
-1.1983515e+183
-1.1984507e+183
-1.1963664e+183
-1.1883436e+183
-1.1885965e+183
-1.1930221e+183
-1.1934011e+183
-1.1964754e+183
-9.9644481e+182
-9.9552753e+182
-9.9379784e+182
-1.0251041e+183
-1.02721e+183
-1.0601809e+183
-1.0577089e+183
-1.0519756e+183
-1.054443e+183
-1.0321843e+183
-1.0658416e+183
-1.000688e+183
-1.0026698e+183
-1.0345784e+183
-1.0686099e+183
-1.1123436e+183
-1.1124227e+183
-1.115574e+183
-1.1155717e+183
-1.0073142e+183
-1.0052272e+183
-1.0374388e+183
-1.0744267e+183
-1.1178946e+183
-1.0776538e+183
-1.0400649e+183
-1.1212728e+183
-1.1250671e+183
-1.2399814e+183
-1.2469297e+183
-1.2405322e+183
-1.2456166e+183
-1.2019789e+183
-1.197578e+183
-1.2080578e+183
-1.2555055e+183
-1.2531171e+183
-1.2770393e+183
-1.2797203e+183
-1.2035819e+183
-1.2505711e+183
-1.2480723e+183
-1.2715767e+183
-1.2744525e+183
-1.2943946e+183
-1.2488765e+183
-1.2021059e+183
-1.2994684e+183
-1.2535796e+183
-1.2062831e+183
-1.1599857e+183
-1.1562787e+183
-1.1638359e+183
-1.2394344e+183
-1.2129366e+183
-1.215174e+183
-1.2415581e+183
-1.2749791e+183
-1.2726085e+183
-1.1600014e+183
-1.2084992e+183
-1.2345175e+183
-1.2372109e+183
-1.2108137e+183
-1.2702552e+183
-1.2677841e+183
-1.304293e+183
-1.2579055e+183
-1.208785e+183
-1.1604351e+183
-1.3089688e+183
-1.2621974e+183
-1.2126894e+183
-1.164046e+183
-1.1645476e+183
-1.1925407e+183
-1.1906255e+183
-1.1625987e+183
-1.1611672e+183
-1.2277671e+183
-1.2532677e+183
-1.2556086e+183
-1.2297735e+183
-1.2804053e+183
-1.281235e+183
-1.2787086e+183
-1.2796714e+183
-1.2905017e+183
-1.2897209e+183
-1.2664671e+183
-1.2166488e+183
-1.1666887e+183
-1.2703303e+183
-1.2204523e+183
-1.1703529e+183
-1.22414e+183
-1.1738502e+183
-1.2942297e+183
-1.3049443e+183
-1.3065331e+183
-1.2958639e+183
-1.3095569e+183
-1.3081029e+183
-1.2974633e+183
-1.2989632e+183
-1.3005214e+183
-1.3056523e+183
-1.305273e+183
-1.300225e+183
-1.3154551e+183
-1.3101681e+183
-1.3105988e+183
-1.3007947e+183
-1.3059669e+183
-1.3010877e+183
-1.2846048e+183
-1.2875165e+183
-1.3011188e+183
-1.2905084e+183
-1.2914162e+183
-1.3020424e+183
-1.2921485e+183
-1.3028296e+183
-1.3038059e+183
-1.2931476e+183
-1.2788109e+183
-1.2818825e+183
-1.1346256e+183
-1.1372475e+183
-1.1364331e+183
-1.0896427e+183
-1.0924178e+183
-1.0952603e+183
-1.0925965e+183
-1.0425711e+183
-1.0908444e+183
-1.0910086e+183
-1.0882746e+183
-1.0882235e+183
-9.8911508e+182
-1.0403675e+183
-1.1319175e+183
-1.1339654e+183
-1.1346496e+183
-1.1328433e+183
-1.0358061e+183
-1.0772501e+183
-1.079966e+183
-1.1299693e+183
-1.1079459e+183
-1.1315353e+183
-1.1337678e+183
-1.1093717e+183
-1.1120368e+183
-1.1545436e+183
-1.1534521e+183
-1.1607147e+183
-1.1617154e+183
-1.1590836e+183
-1.1576798e+183
-1.1646628e+183
-1.165787e+183
-1.1564348e+183
-1.1554772e+183
-1.162566e+183
-1.163608e+183
-1.1719692e+183
-1.1675777e+183
-1.1685498e+183
-1.1728648e+183
-1.1737409e+183
-1.169505e+183
-1.1705277e+183
-1.1746029e+183
-1.0793117e+183
-1.0792444e+183
-1.0794842e+183
-1.0794627e+183
-1.1146994e+183
-1.1135477e+183
-1.1136798e+183
-1.1151944e+183
-1.1364343e+183
-1.1499949e+183
-1.1491134e+183
-1.1349875e+183
-1.1350437e+183
-1.1345293e+183
-1.1487411e+183
-1.149059e+183
-1.1493471e+183
-1.1352385e+183
-1.1350408e+183
-1.1495411e+183
-1.1504487e+183
-1.1358522e+183
-1.1377946e+183
-1.151996e+183
-1.1379251e+183
-1.1384843e+183
-1.1526791e+183
-1.1526768e+183
-1.1532402e+183
-1.1383103e+183
-1.1396902e+183
-1.1543098e+183
-1.1162438e+183
-1.1167592e+183
-1.141053e+183
-1.1405662e+183
-1.155212e+183
-1.1560623e+183
-1.1573825e+183
-1.1423838e+183
-1.1446361e+183
-1.1589325e+183
-1.1183608e+183
-1.1212195e+183
-1.0837903e+183
-1.0808605e+183
-1.0805573e+183
-1.0834618e+183
-1.1808767e+183
-1.1782578e+183
-1.1781995e+183
-1.1810372e+183
-1.1745327e+183
-1.1676125e+183
-1.1668717e+183
-1.1742115e+183
-1.1667302e+183
-1.1664785e+183
-1.17399e+183
-1.1741872e+183
-1.1812408e+183
-1.1781766e+183
-1.1783952e+183
-1.1815648e+183
-1.1854436e+183
-1.186542e+183
-1.1859928e+183
-1.1698246e+183
-1.1683996e+183
-1.1758985e+183
-1.17703e+183
-1.1674093e+183
-1.1670191e+183
-1.1745068e+183
-1.1750266e+183
-1.1792671e+183
-1.178746e+183
-1.1819609e+183
-1.1824788e+183
-1.1831521e+183
-1.1800399e+183
-1.1809495e+183
-1.1838497e+183
-1.1843179e+183
-1.1816115e+183
-1.1820345e+183
-1.1848271e+183
-1.177768e+183
-1.1705058e+183
-1.1706654e+183
-1.1781021e+183
-1.1722457e+183
-1.1712305e+183
-1.1785814e+183
-1.1795027e+183
-1.1854687e+183
-1.1825025e+183
-1.1833963e+183
-1.1863102e+183
-1.1868705e+183
-1.1874805e+183
-1.1890821e+183
-1.1882137e+183
-1.1908009e+183
-1.1916816e+183
-1.1950491e+183
-1.195777e+183
-1.1984606e+183
-1.1924417e+183
-1.1898862e+183
-1.1907165e+183
-1.1931792e+183
-1.1921152e+183
-1.1914653e+183
-1.1938251e+183
-1.1945371e+183
-1.1992555e+183
-1.1964642e+183
-1.1971972e+183
-1.2000406e+183
-1.1804622e+183
-1.1732257e+183
-1.1742304e+183
-1.1814164e+183
-1.1768132e+183
-1.175557e+183
-1.1824098e+183
-1.1833351e+183
-1.1851764e+183
-1.1842553e+183
-1.1871026e+183
-1.1880087e+183
-1.1888311e+183
-1.1860217e+183
-1.1868216e+183
-1.1895088e+183
-1.2066764e+183
-1.2062897e+183
-1.2078449e+183
-1.2082382e+183
-1.2059139e+183
-1.2054899e+183
-1.2070587e+183
-1.2074734e+183
-1.2093812e+183
-1.2097836e+183
-1.163588e+183
-1.1462693e+183
-1.1466082e+183
-1.1637545e+183
-1.1792561e+183
-1.1797884e+183
-1.1842656e+183
-1.1839422e+183
-1.179147e+183
-1.1838519e+183
-1.1793878e+183
-1.1839313e+183
-1.189118e+183
-1.1872179e+183
-1.1871606e+183
-1.1891058e+183
-1.1872955e+183
-1.1892348e+183
-1.1874981e+183
-1.189386e+183
-1.1654853e+183
-1.1486078e+183
-1.1469196e+183
-1.1641666e+183
-1.1801364e+183
-1.1844796e+183
-1.1797057e+183
-1.1841511e+183
-1.1815423e+183
-1.1853489e+183
-1.1849729e+183
-1.1809369e+183
-1.1895848e+183
-1.1880737e+183
-1.187746e+183
-1.1894111e+183
-1.1873296e+183
-1.1892662e+183
-1.1875494e+183
-1.1891578e+183
-1.1904849e+183
-1.190559e+183
-1.1915641e+183
-1.191554e+183
-1.191623e+183
-1.1906881e+183
-1.1906269e+183
-1.1916235e+183
-1.1926381e+183
-1.1926012e+183
-1.1935449e+183