/*--------------------------------*- C++ -*----------------------------------*\
  =========                 |
  \\      /  F ield         | OpenFOAM: The Open Source CFD Toolbox
   \\    /   O peration     | Website:  https://openfoam.org
    \\  /    A nd           | Version:  7
     \\/     M anipulation  |
\*---------------------------------------------------------------------------*/
FoamFile
{
    version     2.0;
    format      ascii;
    class       surfaceScalarField;
    location    "2000";
    object      phi;
}
// * * * * * * * * * * * * * * * * * * * * * * * * * * * * * * * * * * * * * //

dimensions      [0 3 -1 0 0 0 0];

internalField   nonuniform List<scalar> 
100832
(
1.2311329e+87
1.5865069e+86
-1.3836197e+88
1.2214954e+87
1.4618335e+86
-1.4354822e+88
5.4305657e+86
-6.7075895e+86
6.6851012e+86
-1.4205555e+88
6.4003695e+86
-7.7252817e+86
9.8364573e+86
2.0428054e+86
-1.4271503e+88
7.4501354e+86
1.9093773e+86
-1.443039e+88
-1.1224982e+87
1.1195499e+87
2.7192128e+86
-1.3098027e+88
2.9546323e+86
-1.2495843e+88
1.2238699e+87
2.4631567e+86
1.1567513e+87
2.1952683e+86
-1.416532e+88
-3.4982786e+86
3.0069901e+86
-6.9351432e+86
6.473399e+86
6.3662055e+86
-7.7168017e+86
-1.4252062e+88
-7.0555022e+86
6.6478815e+86
6.200642e+86
-7.4787213e+86
-1.4226984e+88
-3.4924537e+87
2.3003143e+85
-2.2356783e+86
1.2070969e+86
-2.3228345e+86
1.2315725e+86
2.6192939e+87
-1.3029371e+86
1.5591082e+86
-3.1935415e+87
1.2817559e+86
1.3958219e+86
-1.8540662e+86
-2.0447911e+86
-5.3639942e+85
8.6118179e+85
-2.4315533e+86
-2.330035e+86
1.1867042e+86
1.2036093e+86
-1.1113502e+88
-6.3172068e+86
5.8560091e+86
8.8054844e+86
8.0136031e+86
-3.7635449e+86
-5.0197738e+86
-2.6741591e+87
-2.3993668e+86
-2.4286e+86
1.2799606e+86
1.2214588e+86
-3.2595168e+87
1.2989242e+86
1.4246405e+86
-2.0511902e+86
-1.9479274e+86
-7.1249204e+86
-1.2622169e+88
8.1469779e+86
-1.1219667e+87
1.107331e+88
-1.2391956e+88
-1.1271091e+87
8.8438369e+86
-4.1660714e+86
-4.6519255e+86
-4.4443143e+86
1.271263e+86
1.6828875e+86
-1.4608598e+88
2.0469114e+86
-1.4506961e+88
-8.8741282e+86
6.2946598e+86
3.5030935e+86
-1.3136293e+88
3.373843e+86
-1.290195e+88
9.716202e+86
3.1103736e+86
-1.3942195e+88
7.5601787e+86
3.4103189e+86
-1.4106097e+88
-9.8472184e+86
9.869583e+86
3.4945212e+86
-9.9825946e+87
-1.0379201e+87
9.9949663e+86
2.597124e+86
-1.3099787e+88
3.4464941e+86
-9.37e+87
2.9246901e+86
1.1048065e+87
9.6769753e+85
-1.3566114e+88
1.1324939e+88
1.099939e+88
-2.697348e+87
1.5226861e+87
-1.4191731e+86
-1.3908088e+88
-6.7106492e+86
-7.3089732e+86
-1.4229282e+88
-7.2793203e+86
6.5341625e+86
6.2157958e+86
-7.4716163e+86
2.6295411e+87
-9.3789907e+85
1.1073944e+86
-2.0847917e+86
-1.9092765e+86
1.3244957e+86
1.3090632e+86
-3.2039537e+87
-2.7861691e+85
5.2385608e+85
-2.3898081e+86
-2.4726302e+86
1.1595511e+86
1.2032621e+86
-2.6709068e+87
-6.0954331e+85
-2.4465648e+86
1.2814111e+86
-2.4561227e+86
1.1720645e+86
-1.2330166e+86
1.3988202e+86
-1.9769997e+86
-3.2755511e+87
-2.0584601e+86
1.2614011e+86
-3.7548332e+86
-1.1159125e+88
2.8321035e+86
8.6925921e+86
8.2064751e+86
-4.9353082e+86
-3.9187489e+86
2.6564565e+87
-9.7667118e+85
-3.2584845e+87
1.3400389e+86
1.383976e+86
-1.9156154e+86
-2.0999641e+86
-3.8851567e+85
3.5504139e+87
-2.4818103e+86
-2.3978499e+86
1.1710079e+86
1.1959362e+86
-2.6224191e+87
3.5227814e+87
-2.3992517e+86
-2.4257624e+86
1.2800123e+86
1.2146892e+86
-3.1838017e+87
1.2727197e+86
1.4161794e+86
-1.9402234e+86
-2.0311326e+86
-1.1187449e+88
8.9165235e+86
7.9313552e+86
-4.6250227e+86
-4.2816297e+86
-5.1382355e+86
-1.2631266e+88
5.249008e+86
-1.1369622e+87
-1.2488036e+88
-1.1575142e+87
-9.8374243e+84
-2.2845002e+86
-2.3410676e+86
1.1998141e+86
-2.2546477e+86
-2.3455876e+86
1.2096472e+86
1.1767183e+86
5.9773396e+86
1.0854001e+85
-7.795246e+86
-1.4179232e+85
-4.6267609e+85
2.6103657e+85
2.8122609e+85
-4.6410561e+85
1.0296759e+85
-1.286511e+85
2.6806182e+85
-4.3002666e+85
-4.1875783e+85
2.9060791e+85
6.0839332e+86
1.1186738e+85
-7.9777609e+86
-4.9601756e+85
2.5978275e+85
2.7655207e+85
-4.7264987e+85
-4.3309368e+85
-4.6200993e+85
2.6643857e+85
2.7019631e+85
-8.0755097e+86
-4.7667617e+85
-4.7796571e+85
2.6352176e+85
2.9005392e+85
-1.8724637e+86
-2.4434292e+87
2.0423185e+86
1.8187639e+86
-9.9491412e+85
-1.3117958e+86
1.6224601e+86
7.9843644e+84
-6.1162048e+86
8.040959e+86
-1.2298155e+85
-5.6211998e+85
-5.7774845e+85
2.7074151e+85
2.6926747e+85
-6.1318208e+86
8.0010899e+86
1.4807653e+85
-5.6450078e+85
-5.451447e+85
2.8054342e+85
2.874223e+85
-2.8709168e+85
3.3035809e+85
-7.525564e+86
2.8335146e+85
-5.0760646e+85
-5.503012e+85
2.7096746e+85
-2.7345735e+85
-7.6202916e+86
-5.4128154e+85
-5.3077212e+85
2.6637151e+85
2.5134435e+85
-4.2979649e+84
6.2459418e+86
1.2701413e+84
-5.3988405e+85
-5.664497e+85
2.4692607e+85
2.5315027e+85
6.1663751e+86
1.5373324e+83
-5.3311312e+85
-5.2857942e+85
2.5119325e+85
2.7066227e+85
9.5498718e+84
-9.2204243e+84
-4.9335215e+85
-4.9286749e+85
2.8092243e+85
2.59836e+85
7.7896001e+84
2.6226176e+85
-5.2816436e+85
-5.0377239e+85
2.590681e+85
-2.4936156e+87
-2.4879718e+86
1.8212534e+86
1.5638753e+86
-1.2733716e+86
-1.1416525e+86
-2.0910659e+86
-2.7622705e+87
2.6867103e+86
-1.1707701e+86
-2.7669866e+87
-3.1659782e+86
-1.2111448e+86
-2.9205407e+84
6.2433219e+86
-8.1019998e+86
-5.1461426e+85
-5.5632791e+85
2.6658174e+85
2.7826181e+85
6.3338431e+86
-8.234386e+86
-5.4632394e+85
-5.4314456e+85
2.8208884e+85
2.6281895e+85
7.0605836e+84
-5.0306099e+85
2.6837718e+85
2.8471262e+85
-5.04444e+85
-4.8831754e+85
-5.1814084e+85
2.6842965e+85
2.6881295e+85
7.8032285e+84
-6.1953246e+86
2.8033331e+85
-5.7324451e+85
-5.5306384e+85
2.8356412e+85
-6.2834464e+86
-5.7149552e+85
-5.6464297e+85
2.7396538e+85
2.9092511e+85
2.4120447e+85
-3.8154546e+85
-7.5720314e+86
-5.4296803e+85
-5.3024711e+85
2.8932306e+85
2.4975055e+85
-7.7218181e+86
-5.5834096e+85
-5.2401271e+85
2.7882348e+85
2.6172205e+85
-7.6730145e+86
8.3313011e+86
2.5594255e+87
2.4898715e+87
-4.414105e+86
2.836175e+87
2.6729611e+87
-4.4305047e+86
2.6095365e+87
-2.4366812e+87
1.790392e+86
1.5725542e+86
-1.3182846e+86
-1.0188909e+86
-2.2629065e+86
-1.0742011e+86
-7.4719177e+86
2.7499278e+85
-5.0726168e+85
-5.508009e+85
2.6583053e+85
1.3072647e+87
-1.4000923e+87
-1.0442431e+87
3.967858e+87
3.6783475e+87
1.2339082e+88
1.1798998e+88
1.1519421e+88
1.1993129e+88
-1.6677199e+86
1.7629211e+86
-1.4597129e+88
1.6844348e+86
-1.4552734e+88
-3.2633555e+86
2.1362229e+85
3.588631e+86
-1.3259286e+88
3.8786282e+86
-1.3077387e+88
-5.1950452e+86
-4.8637555e+86
2.6855499e+86
3.1316344e+86
-1.4184438e+88
3.2755903e+86
-1.4093764e+88
1.0411e+85
-1.4332658e+88
-9.8148049e+86
-9.6821339e+86
6.8138537e+86
-7.6804632e+86
5.2058401e+86
4.4716e+86
-9.9931766e+87
-8.2579402e+86
5.7985957e+86
4.1251722e+86
-1.2961844e+88
4.3353507e+86
-9.7765891e+87
3.4924863e+86
-1.2766458e+88
9.9396822e+86
4.3386988e+85
-1.3429251e+88
8.0307634e+86
9.9915757e+85
-1.3556139e+88
-8.6761241e+85
8.3096903e+85
3.2314928e+86
-7.0090587e+86
-9.0340414e+86
8.8166669e+86
2.6036955e+86
-9.9615133e+87
9.1052745e+86
1.3664949e+86
-1.2958702e+88
3.1552791e+86
-6.7389728e+86
3.0371147e+86
-1.2891073e+88
1.1340094e+87
-3.9386165e+86
1.1394731e+88
1.1062626e+88
3.3998887e+87
1.1635601e+88
1.4622283e+87
1.1993276e+88
1.1304318e+88
1.1050509e+88
-2.7239153e+87
7.2483705e+86
1.1008938e+88
-2.9530463e+86
-1.255848e+88
2.6972309e+86
-1.1218972e+87
-7.9902432e+85
5.2545069e+85
8.2469771e+86
-4.0882573e+86
-4.8714382e+86
7.9880562e+86
-1.1159555e+88
8.6550356e+86
7.9912868e+86
-4.5553919e+86
-4.4632494e+86
-1.2521845e+88
-1.1543547e+87
-6.3459639e+85
6.8471531e+85
-3.1284034e+87
1.2735285e+86
-1.911623e+86
-2.0553806e+86
1.2472609e+86
-6.6299624e+85
-3.1837744e+87
-2.0246934e+86
-1.9880371e+86
1.2798883e+86
1.2118382e+86
2.6790524e+87
-6.3972931e+85
-3.2680708e+87
1.3590811e+86
-1.9668593e+86
-2.1150716e+86
1.3104498e+86
-1.4472986e+85
-2.4177626e+86
-2.5152135e+86
-2.6330777e+87
1.2686915e+86
-2.464572e+86
-2.4241373e+86
1.1897002e+86
-3.1927705e+87
-1.9813508e+86
-2.0413923e+86
1.368048e+86
1.247673e+86
-7.8927845e+86
1.1971372e+85
-4.7121918e+85
-4.9564888e+85
2.6342858e+85
2.0863162e+85
6.256849e+86
-2.3396517e+85
-7.7478926e+86
-5.4969495e+85
-5.4597892e+85
2.7716641e+85
2.5009284e+85
6.1337762e+86
2.5683476e+85
-7.5368668e+86
-5.5688007e+85
-5.2002585e+85
2.715105e+85
2.5100657e+85
-5.322094e+84
8.0022143e+86
9.9110564e+84
-5.7101123e+85
-5.5677816e+85
2.6357953e+85
2.7437774e+85
8.1675605e+86
-4.2172416e+84
2.6860565e+85
-5.8410868e+85
-5.6284269e+85
2.6564904e+85
-1.3209012e+86
-2.4529737e+87
1.3878633e+86
1.661749e+86
1.7776749e+86
-1.0283491e+86
-1.2952408e+86
2.7647485e+84
6.1585613e+86
-3.5949141e+83
2.4626881e+85
-5.3547451e+85
-5.4330579e+85
2.6230406e+85
6.252836e+86
6.5626885e+84
-5.3946354e+85
-5.5834262e+85
2.5001673e+85
2.5190471e+85
9.3013732e+84
-9.4770015e+84
-5.0090563e+85
-4.9539238e+85
2.5752324e+85
2.7520184e+85
1.0566757e+85
2.5768849e+85
-5.251532e+85
-5.0362861e+85
2.5953605e+85
6.3580925e+86
1.837866e+84
-8.254729e+86
2.7063383e+85
-5.3407984e+85
2.9393897e+85
-5.3317261e+85
8.17295e+84
2.7128917e+85
-4.9336256e+85
-4.9160427e+85
2.913698e+85
6.2167434e+86
-8.0604545e+86
3.8605057e+83
-5.4000382e+85
-5.657009e+85
2.542957e+85
2.5351582e+85
8.0187583e+84
-4.9924883e+85
-5.2644048e+85
2.6162341e+85
2.6163127e+85
-6.2809479e+86
-6.5269397e+84
2.861357e+85
-5.5904314e+85
2.9398807e+85
-5.7294478e+85
-1.8659093e+85
-7.7399278e+86
2.6626706e+85
-5.2978171e+85
-5.6235636e+85
2.6047716e+85
-2.5159173e+87
-1.6759175e+86
1.8001075e+86
1.5992779e+86
-1.1754829e+86
-1.2587466e+86
6.178227e+86
-2.5871902e+85
-7.6173636e+86
2.8779969e+85
-5.3846269e+85
-5.4510589e+85
2.4857343e+85
-7.9654965e+84
-5.6128948e+85
-5.777753e+85
2.7183188e+85
2.6079212e+85
1.5622531e+86
-2.4013898e+86
-2.8014968e+87
-1.2403755e+86
-2.76742e+87
1.9602415e+86
-1.1722731e+86
-1.4133862e+86
-2.4955726e+87
1.7888995e+86
1.632046e+86
-1.0698385e+86
-1.3262322e+86
4.5236264e+84
-6.2742394e+86
8.2258207e+86
-7.3346028e+84
-5.6542077e+85
-5.7873876e+85
2.8579093e+85
2.7493616e+85
-6.2094392e+86
8.1166787e+86
-5.7114782e+85
-5.5544217e+85
2.8015177e+85
2.8875615e+85
-1.9807156e+85
-7.641224e+86
2.7930858e+85
-5.2231228e+85
-5.6006817e+85
2.5859415e+85
-2.5327337e+85
-7.7596868e+86
2.8630131e+85
-5.421673e+85
-5.5256274e+85
2.4911391e+85
-3.0702119e+84
6.3190778e+86
4.5737393e+84
-5.4042405e+85
-5.6180557e+85
2.5535947e+85
2.567676e+85
6.2546591e+86
-5.4651784e+85
-5.374855e+85
2.5195592e+85
2.6937566e+85
9.0432597e+84
7.8883844e+86
-5.0729283e+85
-5.039207e+85
2.5958136e+85
2.7867007e+85
9.5118645e+84
8.0167677e+86
2.6268482e+85
-5.2703304e+85
-5.0513362e+85
2.6304188e+85
-3.1407445e+84
6.2339006e+86
-8.0452883e+86
-5.3226497e+85
-5.5580523e+85
2.6616304e+85
2.6698776e+85
6.3431738e+86
-8.2157178e+86
-5.4680613e+85
-5.4034768e+85
2.6486245e+85
2.8340279e+85
8.3275545e+84
8.0766874e+86
2.7158812e+85
-5.0099139e+85
-5.0126666e+85
2.8901147e+85
7.8960337e+86
2.722709e+85
-5.1474086e+85
-4.8669279e+85
2.7278983e+85
-2.4420932e+87
1.8399224e+86
1.5876286e+86
-1.1025506e+86
-1.1817974e+86
6.7692751e+84
-6.1200685e+86
-5.5960883e+85
-5.7014426e+85
2.8731176e+85
2.7032476e+85
-6.243861e+86
-5.7416082e+85
-5.5752027e+85
2.8264804e+85
2.8770226e+85
-2.014398e+85
-7.6976381e+86
2.8614834e+85
-5.2151373e+85
-5.6167678e+85
2.5876247e+85
-7.4750043e+86
2.8932764e+85
-5.320489e+85
-5.4555165e+85
2.4099457e+85
1.8766011e+86
-2.6987536e+87
-1.2483101e+86
-2.8576656e+87
-1.1854881e+86
-5.6219978e+86
5.444797e+86
2.5199914e+87
2.5544303e+87
-4.5826174e+86
2.4571724e+87
2.6099751e+87
-4.5964211e+86
1.0832324e+85
2.5604552e+85
-4.7209589e+85
-4.758447e+85
2.7455133e+85
6.1064459e+86
1.230761e+85
-4.7423009e+85
-4.9187321e+85
2.6005592e+85
2.6054858e+85
1.3046944e+85
-4.459921e+85
-4.632914e+85
-1.1810629e+85
6.0273195e+86
-4.6128781e+85
-4.8216649e+85
2.6652365e+85
2.6731106e+85
6.134186e+86
-4.74822e+85
-4.6960283e+85
2.8062254e+85
2.6568596e+85
1.0937207e+85
-4.4501984e+85
-4.4727291e+85
2.8269355e+85
2.7124216e+85
-4.5583785e+85
-4.3623854e+85
2.6662884e+85
1.3606653e+86
3.1152367e+84
-1.7478428e+86
-4.054201e+84
-6.6108951e+84
3.0759834e+84
1.6799989e+86
-3.5673194e+84
-5.3383745e+84
-1.378543e+86
1.7111679e+86
3.7921822e+84
-5.8560833e+84
4.1976952e+84
-1.7814796e+86
-7.1993654e+84
-1.3121916e+86
2.2506245e+84
-2.3613907e+84
-5.163406e+84
2.3055607e+84
-2.9440037e+84
-5.5834942e+84
1.3284849e+86
3.2016258e+84
-4.503527e+84
2.5952383e+84
-5.0789722e+84
1.3946077e+86
3.2205009e+84
-1.8028689e+86
-7.7984451e+84
2.7145198e+84
1.7304913e+86
-6.5324102e+84
-1.3914759e+86
1.7199426e+86
2.8066056e+84
-5.2835426e+84
3.2117767e+84
-1.7879167e+86
-7.6121924e+84
-2.4907995e+84
1.340815e+86
2.4238109e+84
-5.329577e+84
1.3429071e+86
-6.731734e+84
1.5475617e+84
-6.1761264e+84
-5.8677111e+84
-2.6870119e+84
1.405532e+86
-1.8179183e+86
-7.3619884e+84
1.3856745e+86
-1.7848254e+86
-7.3567021e+84
2.7579095e+84
1.7109206e+86
-6.1236855e+84
-6.4973974e+84
-5.6505237e+86
-4.4633638e+85
5.0752568e+85
3.2793715e+85
-3.3392115e+85
2.9444259e+85
-4.0592312e+85
-4.5545281e+85
-6.5213077e+86
6.5914069e+85
-3.27817e+85
5.7928185e+86
-6.5825742e+85
-6.5596071e+86
-3.4220115e+85
-4.8224917e+85
-3.9595591e+85
-3.7697715e+85
3.2385349e+85
2.7997983e+85
-1.7579467e+84
1.5587557e+86
-1.9556395e+86
1.0380018e+84
-1.5803674e+85
1.568079e+86
-2.8037519e+84
-1.9749423e+86
-1.6042718e+85
3.1305359e+84
-4.4767427e+84
1.9672514e+86
-1.1496881e+85
1.9451729e+86
3.0876272e+84
-1.1672066e+85
-1.0302553e+84
1.5588229e+86
-1.9887899e+86
-1.522687e+85
1.5425983e+86
-1.9589033e+86
1.2399706e+83
-1.4038219e+85
3.2366179e+84
1.9115606e+86
-2.2894248e+84
-9.7890831e+84
1.9449649e+86
-1.1112091e+85
-1.5306507e+86
-1.6655334e+84
2.9543551e+84
-1.577894e+85
-5.4058796e+84
6.9402123e+84
-1.8344156e+86
-2.1918487e+85
1.5549261e+86
-5.8041041e+84
-1.8811417e+86
-2.2010323e+85
-1.2245791e+84
-1.6730584e+85
3.991057e+84
1.5283633e+86
-4.7738657e+84
-1.8462885e+86
-2.1552821e+85
1.5369428e+86
-1.8686613e+86
-2.1718399e+85
-9.7623642e+83
-1.7411133e+85
-1.49635e+84
-1.7073062e+85
-4.215914e+84
1.5160635e+86
4.3863877e+84
-1.1247936e+85
1.5246177e+86
-5.3704447e+84
-1.1227073e+85
4.0746632e+84
-5.5378721e+84
1.8773663e+86
-9.1190471e+84
1.8591825e+86
4.5092676e+84
-9.4314705e+84
-3.8109266e+84
1.5049327e+86
-1.0867601e+85
1.4841252e+86
-3.8895499e+84
-1.0035783e+85
4.4770846e+84
1.8184998e+86
-4.7642368e+84
-8.0309785e+84
1.853717e+86
-8.8729903e+84
3.9878543e+84
1.4141059e+86
-5.0508866e+84
-7.8327937e+84
1.4326246e+86
5.3404001e+84
-8.5300517e+84
-3.9445565e+84
4.6747608e+84
-7.5234609e+84
-4.4865345e+84
-6.8481138e+84
-1.4454024e+86
-3.2507515e+84
3.4869173e+84
-8.2614087e+84
4.1939634e+84
1.4505951e+86
-8.992878e+84
4.3029631e+84
-9.1082308e+84
-7.8965499e+84
-4.0811189e+85
-5.794859e+86
3.1897003e+85
-3.5909526e+85
-4.2241828e+85
2.8270142e+85
-5.6828674e+86
-5.7431531e+85
3.2954159e+85
-3.7159602e+85
-3.8915664e+85
2.7212681e+85
4.9808523e+85
-6.3465346e+86
-7.5299055e+85
-3.5479756e+85
-6.7553033e+86
-3.4137977e+85
-2.4928909e+86
2.6497266e+86
6.0712244e+86
5.9206909e+86
-8.0617797e+85
-3.0184432e+86
5.7695488e+86
6.183971e+86
-8.4222929e+85
-4.1767485e+84
1.508711e+86
-1.9331497e+86
-9.0896139e+84
1.5226875e+86
-4.5257275e+84
-1.9687336e+86
-1.0679204e+85
4.0431526e+84
-4.9623445e+84
1.8766105e+86
-7.8149119e+84
1.8493618e+86
-7.0741799e+84
-3.6225357e+84
1.535327e+86
-1.9803653e+86
-1.1031754e+85
1.512163e+86
-1.9423853e+86
-1.0528362e+85
-4.0787277e+84
1.8910704e+86
-8.2490528e+84
1.8552971e+86
-7.6009708e+84
1.441467e+86
3.4867392e+84
-8.1068551e+84
3.2956876e+84
-7.3068834e+84
-1.4611187e+86
3.9924649e+84
-7.9054607e+84
4.7363543e+84
-8.6988279e+84
-3.9754078e+84
1.4351547e+86
-8.1491382e+84
1.4500789e+86
-8.3999679e+84
2.9832439e+84
-7.5612432e+84
-7.762747e+84
-1.5441425e+86
-3.0791463e+84
-1.0938563e+85
2.0222427e+84
1.5780773e+86
-1.192129e+84
-2.0153946e+86
-1.4422797e+85
-1.9380229e+86
-1.5385348e+85
-3.3713602e+84
-1.041699e+85
-1.8226044e+84
1.5760366e+86
-1.9860621e+86
-1.5516503e+85
1.5653783e+86
-1.9904709e+86
-1.4739633e+85
3.4408397e+84
-1.0657364e+85
-1.1270874e+85
4.6662508e+84
1.5137949e+86
-6.6054631e+84
-1.8244373e+86
-2.1293343e+85
1.5727877e+86
4.8404326e+84
-1.891466e+86
-2.133104e+85
-6.3482694e+83
9.9144089e+83
-1.5684977e+85
-1.5666495e+84
-1.6515908e+85
4.3949501e+84
1.5495924e+86
-1.8888112e+86
-2.146673e+85
1.5611022e+86
-1.8702944e+86
-2.1860963e+85
-3.9756051e+83
-1.6153295e+85
-1.688088e+85
-7.5978095e+86
6.7911552e+86
8.237374e+86
2.5032234e+87
2.4237862e+87
2.677298e+87
2.6059395e+87
6.6779552e+86
2.729743e+87
2.546548e+87
6.512553e+86
6.5474199e+86
-7.8878756e+85
6.0831125e+86
5.8707694e+86
-4.5021592e+85
-5.6528617e+86
-4.1628546e+85
-3.4066616e+85
3.2120936e+85
2.8297985e+85
-5.7506331e+86
3.2706451e+85
-3.7371312e+85
-4.0004394e+85
2.7138415e+85
5.5580854e+85
-3.2492113e+85
-3.2151414e+85
-1.5196897e+86
-1.0709365e+84
-1.6327274e+85
-4.9447132e+84
-1.8304362e+86
-2.131227e+85
1.5471814e+86
-5.802922e+84
-1.876592e+86
-2.1280812e+85
-1.6913864e+85
-1.8810923e+86
-2.1148983e+85
6.2591581e+86
3.959374e+87
-1.1477014e+87
-1.3674469e+87
3.7156208e+87
1.2337504e+88
1.1828461e+88
1.1624341e+88
1.2099968e+88
5.5324641e+86
1.0211063e+88
4.9273487e+86
1.0409896e+88
5.7590688e+86
5.9094627e+86
-4.1491415e+86
4.2099501e+86
5.3714174e+86
1.3834532e+88
4.6029812e+86
1.3584524e+88
2.9835629e+86
-8.0933471e+86
8.3777993e+86
-8.6093787e+86
8.0017272e+86
-3.1633677e+86
1.2474457e+88
-3.1595972e+86
-4.184161e+86
1.2445033e+88
1.1255338e+87
-7.8254968e+86
2.6644e+86
3.380971e+86
-1.3176881e+88
3.4365359e+86
-1.3183562e+88
4.2267229e+85
-5.2540178e+86
3.2703663e+86
-1.4172474e+88
-5.2676676e+86
-1.5302048e+86
3.2159409e+86
-1.4152275e+88
-1.7746162e+86
-1.4332382e+88
-1.0004487e+87
-9.6579303e+86
6.8775527e+86
6.4797358e+86
-3.3892658e+86
-1.4322234e+88
-9.651907e+86
-9.8592922e+86
6.5853984e+86
6.8699851e+86
-2.3176311e+86
-3.5832377e+85
4.977378e+86
-1.0111908e+88
-3.6098331e+86
1.189362e+86
4.2172176e+86
-1.3125798e+88
5.1960878e+86
-9.8877488e+87
4.1099661e+86
-1.2941949e+88
-6.261346e+86
-4.9254812e+86
4.2253443e+86
9.6225921e+85
-1.3584517e+88
7.1314886e+85
-1.3504234e+88
2.2893771e+86
-1.386595e+88
-9.5722698e+86
5.9541589e+86
5.693501e+86
-1.0035089e+87
1.2899719e+85
-3.799108e+87
-1.7173911e+86
2.9830881e+87
1.3052408e+85
-3.7670603e+87
-1.8439375e+86
-4.5618092e+85
-2.5294482e+84
-6.2919115e+85
4.5022589e+85
3.995635e+86
-7.3579847e+86
-7.1389932e+86
4.6873234e+86
4.7005798e+86
-9.8055504e+87
-8.1576086e+86
6.0255719e+86
2.2421975e+86
-1.2872945e+88
4.1074642e+86
-6.8515707e+86
3.9151276e+86
-9.6510858e+87
1.3673149e+86
-1.2765036e+88
1.0204252e+87
-1.2888673e+88
-3.6532436e+86
-1.2983172e+88
8.5136801e+86
-3.1794021e+86
-7.3812515e+85
6.8580274e+85
-6.4100141e+86
-8.4566021e+85
8.2131042e+85
2.4700191e+86
-6.8510034e+86
7.9785213e+86
1.1646013e+86
-9.8168096e+87
-1.3031972e+88
8.5837735e+86
-1.390338e+86
-6.1583065e+86
2.6843278e+86
-3.1553786e+87
-5.9333001e+85
-1.7397123e+86
1.6592942e+86
-1.7256277e+86
7.9287017e+86
1.5823233e+87
2.8361097e+87
2.6906992e+87
2.678122e+87
2.842036e+87
1.1380657e+88
1.1114056e+88
3.4067395e+87
1.1720179e+88
1.196592e+88
7.2437479e+86
1.5652574e+87
8.3706942e+86
2.7838829e+87
2.7884014e+87
2.731845e+87
2.7588055e+87
1.122795e+88
1.1105093e+88
-2.7442301e+87
2.7969801e+85
1.099349e+88
-1.2507662e+88
-1.1143281e+87
8.2294753e+86
7.7796388e+86
-4.6005718e+86
-4.5027729e+86
-3.1136833e+87
-1.9898344e+86
-1.9584523e+86
1.2958279e+86
1.2170702e+86
2.7342234e+87
2.7953682e+87
-3.178398e+86
2.9110365e+86
-4.4941691e+86
2.5264048e+87
2.5262103e+87
-2.4042534e+87
-8.2139573e+85
8.2703833e+85
-1.0482959e+86
1.6905445e+86
1.6266457e+86
-1.2690588e+86
-1.0185944e+86
1.2521334e+86
-1.0220932e+86
2.4700317e+87
-1.541901e+86
-1.0947639e+86
-8.4375434e+85
1.7206054e+86
1.5734322e+86
-1.1932566e+86
-1.2277911e+86
-8.6564063e+85
-2.4959834e+87
1.7342704e+86
1.6404427e+86
-1.1054143e+86
-1.3132485e+86
-2.4507323e+87
1.7999371e+86
1.6015739e+86
-1.1370357e+86
-1.171347e+86
1.3155351e+86
-2.7197879e+87
-1.220127e+86
-2.8514753e+87
-1.1346951e+86
2.4780135e+87
2.5954917e+87
-4.6738954e+86
-6.0685874e+86
-2.1664393e+84
5.0978059e+83
2.7047097e+85
-5.6229146e+85
-5.8088566e+85
2.7541976e+85
-1.3997773e+85
1.8454685e+85
-7.4356417e+86
2.5257707e+85
-5.3012184e+85
-5.6215908e+85
2.5056626e+85
6.1983721e+86
-1.5063184e+85
-7.6416894e+86
-5.5075769e+85
-5.5473217e+85
2.5540825e+85
2.4867244e+85
-1.4915296e+84
2.552514e+85
-5.96995e+85
-5.7613907e+85
2.5614465e+85
1.1962512e+85
6.1355511e+86
-1.5939937e+85
-7.5431006e+86
-5.484742e+85
-5.4675092e+85
2.6789137e+85
2.4996504e+85
6.226773e+86
-7.658641e+86
-5.6569265e+85
-5.3910709e+85
2.5792687e+85
2.596976e+85
-5.2621208e+83
-5.8910678e+85
-5.8096372e+85
2.5413811e+85
2.6993681e+85
-3.0967006e+84
2.6481179e+85
-5.896073e+85
-5.7146383e+85
2.5586963e+85
-6.2620371e+86
-3.0797684e+84
8.1817299e+86
2.8648632e+85
-5.5838309e+85
-5.7804442e+85
2.8916081e+85
-1.4322005e+85
-7.6623775e+86
2.6239226e+85
-5.341808e+85
-5.6802186e+85
2.5711265e+85
6.3010706e+86
-1.8557813e+85
-7.7906968e+86
-5.5819082e+85
-5.5368843e+85
2.7922924e+85
2.4956275e+85
8.236323e+86
-2.956435e+84
2.7134529e+85
-5.8930734e+85
-5.7167126e+85
2.6359762e+85
2.7118737e+84
-5.3319008e+85
-5.5325586e+85
4.3826514e+84
-5.4858413e+85
-5.6512398e+85
2.5287361e+85
2.5018224e+85
-6.3401605e+86
8.1224513e+84
-4.9323682e+85
-5.0901028e+85
2.9746356e+85
3.1005817e+84
-8.2263304e+86
2.5992244e+85
-5.4766737e+85
-5.5249785e+85
2.7466126e+85
6.2176894e+86
-8.0586078e+86
-5.3658313e+85
-5.5448096e+85
2.7575623e+85
2.5949975e+85
2.6987954e+85
-5.1629922e+85
-4.9397301e+85
2.6690484e+85
-1.4640758e+85
6.2627845e+86
-7.7186913e+86
2.6925717e+85
-5.2948537e+85
-5.6525965e+85
2.6087323e+85
6.1449699e+86
-7.5120449e+86
-5.4844564e+85
-5.408401e+85
2.8287028e+85
2.4252519e+85
-3.8329676e+84
-5.7805714e+85
-5.6062498e+85
2.7230066e+85
2.796486e+85
2.7515481e+85
-5.7866307e+85
-5.6387008e+85
2.6219422e+85
-3.5687138e+84
1.3816687e+86
-1.7761901e+86
3.7321841e+84
-7.8332597e+84
-1.8062034e+86
-7.684516e+84
3.6491656e+84
-6.3802546e+84
3.3308908e+85
-5.8417774e+86
-3.9299474e+85
3.2009737e+85
-3.8573989e+85
-3.9837276e+85
2.7955552e+85
3.6018074e+84
1.5337894e+86
-4.3818532e+84
-1.8572176e+86
-2.1846633e+85
1.5787951e+86
3.7993292e+84
-1.9033805e+86
-2.2336868e+85
-2.8757906e+83
1.0076506e+84
2.0156737e+86
-1.6691292e+85
1.9549347e+86
-2.661292e+83
-1.7126708e+85
-5.6711238e+86
3.8780805e+85
3.1869531e+85
-3.4301319e+85
-4.0820833e+85
2.8973949e+85
4.6858188e+84
1.5340447e+86
-1.8745229e+86
-2.2526683e+85
1.5356469e+86
5.9579295e+84
-1.8428164e+86
-2.2557747e+85
-1.2109195e+84
1.9592273e+86
2.5661296e+84
-1.6562206e+85
1.9622063e+86
-1.7918768e+85
-1.0209661e+84
1.5517178e+86
1.3522422e+84
-1.6383549e+85
1.5410521e+86
2.6854655e+83
-1.5149821e+85
2.5437412e+84
1.9101851e+86
-1.7688978e+84
-1.1330199e+85
3.0587318e+84
1.9449536e+86
-1.2400802e+85
-1.5763007e+86
2.735563e+84
1.9633716e+86
-1.1523355e+85
2.1737902e+84
-1.5295118e+85
1.550111e+86
2.1222562e+84
-1.5750361e+85
1.9334463e+86
3.1974599e+84
-1.2230529e+85
-3.5523371e+85
-6.5313008e+86
5.1682447e+85
-3.2976194e+85
-5.2044413e+85
-6.6237776e+86
-3.4802943e+85
-1.4857135e+86
3.7273314e+84
1.8217038e+86
-4.2230523e+84
-8.4764345e+84
2.9460792e+84
-3.2613044e+84
-1.0785067e+85
1.5060825e+86
4.2430133e+84
-1.1740406e+85
4.6372144e+84
1.8551664e+86
-9.5878633e+84
-3.6685409e+84
1.5062137e+86
4.0717852e+84
-1.1626341e+85
1.5175525e+86
-1.0677877e+85
3.5491035e+84
1.8672322e+86
-8.8781903e+84
1.8485683e+86
4.2087945e+84
-9.7046848e+84
-3.5286181e+84
1.4332797e+86
4.8641714e+84
-9.2374533e+84
1.4168786e+86
-4.6848436e+84
-7.9004931e+84
3.7711578e+84
-4.4192841e+84
-7.0653115e+84
4.4997821e+84
-8.0990722e+84
-1.4414519e+86
3.0575152e+84
-7.777587e+84
3.8203085e+84
-8.893423e+84
1.4359779e+86
4.0980524e+84
-9.3815681e+84
3.5274749e+84
-8.4612706e+84
-1.5220463e+86
4.3067662e+84
1.8619905e+86
-7.029006e+84
3.8947821e+84
-1.9619842e+86
-9.2371903e+84
-1.5448248e+86
1.9015319e+86
5.3986738e+84
-7.3687294e+84
4.6991212e+84
-1.99079e+86
-9.5250792e+84
-1.4421444e+86
3.6535431e+84
-7.0199695e+84
3.7639707e+84
-7.0175686e+84
1.4655752e+86
5.4511468e+84
-7.2519321e+84
4.8265059e+84
-7.3673421e+84
-3.9566018e+84
1.5071836e+86
-1.9287582e+86
3.6758431e+84
-1.1562175e+85
1.5282826e+86
-1.9757564e+86
-1.1080195e+85
4.1038603e+84
1.8815651e+86
-8.6038699e+84
1.8495492e+86
4.3548904e+84
-9.1360098e+84
-4.3736913e+84
1.4380516e+86
4.6013769e+84
-9.0028062e+84
1.453515e+86
-8.7615717e+84
3.5309607e+84
-7.8109562e+84
4.0814689e+84
-8.2012235e+84
-1.5775818e+86
3.3138987e+84
-9.9431013e+84
1.2104419e+84
-1.9788876e+86
-1.4861932e+85
-1.5797996e+86
3.0057357e+84
-1.1392073e+85
-1.9919457e+86
1.0482663e+84
-1.5917681e+85
-3.026111e+85
-5.8346561e+86
-4.2231954e+85
-3.6706308e+85
3.0957583e+85
2.8425924e+85
-1.541317e+86
-4.2692931e+83
-1.696954e+85
-3.5065596e+84
-1.8615084e+86
-2.1834333e+85
1.5591375e+86
-3.8603987e+84
-1.9000398e+86
-2.1791562e+85
-4.6826967e+83
-1.7191775e+85
-5.7403324e+86
-4.1335907e+85
3.2423452e+85
-3.8065536e+85
-3.8862819e+85
2.7804416e+85
-3.9078353e+85
-6.7943571e+86
-3.4544205e+85
-6.4372415e+86
-5.9027669e+85
-3.6234392e+85
-1.5849127e+86
-6.5919818e+83
2.0315637e+86
-1.5694196e+85
-3.9844945e+84
-1.9034519e+86
-2.186826e+85
1.5221488e+86
-5.1777046e+84
-1.8405968e+86
-2.1472571e+85
1.9429112e+86
-1.2445042e+84
-1.6633605e+85
-1.77785e+84
1.5449974e+86
9.6590418e+83
-1.5525611e+85
1.5880908e+86
-1.4159817e+85
2.7482454e+84
-1.132588e+85
2.6651632e+84
-1.2213781e+85
1.9093522e+86
-2.3317586e+86
6.1982404e+86
5.8521833e+86
-9.0007528e+85
1.9293285e+86
6.0604539e+86
5.9805227e+86
-8.4399862e+85
-3.5081807e+85
-5.7489919e+86
3.1932094e+85
-3.5206752e+85
-4.2004417e+85
2.869174e+85
-5.8572264e+86
-4.3811667e+85
3.257272e+85
-3.836068e+85
-4.0215676e+85
2.7692107e+85
-4.5855729e+85
-6.6048908e+86
-3.4565873e+85
-6.7958639e+85
-6.6160965e+86
-3.4633291e+85
-1.8570189e+84
1.5579981e+86
-1.9547e+86
6.2208532e+83
-1.5636947e+85
1.5944835e+86
-1.450628e+84
-2.0348799e+86
-1.4240631e+85
3.2438466e+84
-3.5464641e+84
1.9848259e+86
-1.0152539e+85
1.9503434e+86
3.0050703e+84
-1.1502138e+85
-1.5979559e+84
1.5694147e+86
-1.9792265e+86
-1.5986247e+85
1.5660546e+86
-1.9879034e+86
-1.3991391e+85
3.390716e+84
1.9385379e+86
-9.9586969e+84
1.9738529e+86
-1.1723955e+85
-1.5565695e+86
-6.1273121e+83
-1.5834291e+85
-4.5951638e+84
-1.8644449e+86
-2.2026234e+85
1.5489185e+86
-4.3037344e+84
-1.8934327e+86
-2.184682e+85
-5.8528725e+83
-1.7198824e+85
-1.5879139e+86
-7.3559338e+83
-1.5916159e+85
-4.3794457e+84
-1.9103055e+86
-2.1901857e+85
1.5316023e+86
-5.2597368e+84
-1.8590574e+86
-2.1630473e+85
-1.3557749e+84
-1.67782e+85
-4.0610962e+84
1.5199143e+86
4.1519739e+84
-1.1090375e+85
1.5333807e+86
-4.6101879e+84
-1.0486945e+85
3.9602713e+84
-5.0329595e+84
1.8866028e+86
-8.713571e+84
1.8635717e+86
4.6379152e+84
-9.3666332e+84
-3.5244525e+84
1.5296052e+86
-1.131274e+85
1.5052796e+86
-1.0271324e+85
4.131247e+84
1.843905e+86
-8.4432995e+84
1.8838818e+86
-9.3918041e+84
-3.6984427e+84
1.4546959e+86
5.0324215e+84
-9.1446772e+84
1.4324433e+86
-8.3429594e+84
3.7525219e+84
1.7690084e+86
-7.3694287e+84
4.5454033e+84
1.8066228e+86
-8.1185591e+84
-1.4559708e+86
3.3359915e+84
1.8078518e+86
-7.7102119e+84
4.1345346e+84
-8.7422181e+84
1.4466103e+86
4.4632823e+84
-9.1459672e+84
3.8915123e+84
1.7872094e+86
-8.3112476e+84
-3.8564145e+84
1.5051308e+86
-1.9280526e+86
-1.0967459e+85
1.5253483e+86
-4.3356584e+84
-1.9727931e+86
-1.035681e+85
4.2075847e+84
-5.2702715e+84
1.8781247e+86
-7.5986532e+84
1.8459375e+86
-7.9385464e+84
-3.5780837e+84
1.5355959e+86
-1.9774072e+86
-1.1257049e+85
1.5177721e+86
-1.9512879e+86
-1.0109296e+85
4.3502808e+84
1.8601842e+86
-7.4673241e+84
1.8925267e+86
-8.2727924e+84
-1.4446212e+86
3.7950971e+84
1.7872162e+86
-7.0042679e+84
3.8204086e+84
-7.8999606e+84
1.4627356e+86
5.2739499e+84
-8.6010953e+84
4.7460273e+84
1.8190188e+86
-7.6781146e+84
-1.4514338e+86
3.6236849e+84
1.8055431e+86
-7.0615059e+84
4.4987836e+84
-8.0298263e+84
1.435941e+86
-8.2217251e+84
1.7748295e+86
-7.4727191e+84
-3.5380089e+85
-5.7780264e+86
3.2392985e+85
-3.539709e+85
-4.1712291e+85
2.8315904e+85
-5.5982116e+86
3.2955298e+85
-3.6243108e+85
-3.7576691e+85
2.7320579e+85
-4.9808299e+85
-6.7346319e+86
-3.2744828e+85
-6.2831476e+86
-3.3580364e+85
-1.2528846e+84
1.5392839e+86
-1.9258854e+86
-1.5923861e+85
1.5826229e+86
-6.4077914e+83
-2.0182083e+86
-1.4068004e+85
2.6836836e+84
-3.0203851e+84
-9.9491456e+84
-1.1450129e+85
-1.2563408e+84
1.5697275e+86
-1.9768447e+86
-1.6088803e+85
1.5734016e+86
-1.9990422e+86
-1.3822226e+85
3.315719e+84
-9.8344719e+84
-1.1702415e+85
-1.5633747e+86
-7.6754704e+83
-1.554014e+85
-4.8315337e+84
-1.8717745e+86
-2.1739595e+85
1.543144e+86
-5.0634971e+84
-1.8823617e+86
-2.2013963e+85
-1.1166484e+84
-1.7144717e+85
-1.5681424e+86
-1.531928e+84
-1.5658552e+85
-5.008481e+84
-1.8798293e+86
-2.2091222e+85
1.5013263e+86
-1.8085355e+86
-2.190251e+85
-1.6934028e+85
1.8349046e+86
6.1902064e+86
5.7565243e+86
-8.2627417e+85
6.1033127e+86
5.9520652e+86
-8.5895627e+85
-5.5994118e+86
6.7411956e+86
5.4957721e+86
2.455444e+87
2.5003251e+87
2.6707651e+87
2.6321062e+87
6.7866894e+86
2.3969399e+87
2.5453787e+87
2.7239775e+87
2.5732446e+87
-1.3749856e+86
3.2578803e+84
-6.1291079e+84
3.0710191e+84
-7.1461358e+84
1.3969541e+86
4.2544298e+84
-7.8010154e+84
3.9621809e+84
-6.7865634e+84
-3.4516201e+84
1.3888108e+86
3.7931049e+84
-7.9246298e+84
1.3971131e+86
-7.3106324e+84
2.9159358e+84
1.7324707e+86
-6.4839288e+84
1.7137439e+86
3.4540169e+84
-6.9765402e+84
-2.8876269e+84
3.1423652e+84
-6.8648914e+84
-6.5826893e+84
-3.720544e+84
1.3819629e+86
-7.1757795e+84
1.3965527e+86
-4.5128581e+84
-6.5252938e+84
-3.0034135e+84
1.7059874e+86
-6.313995e+84
-4.0886963e+84
1.7335607e+86
-5.8844166e+84
-3.2549325e+84
1.4067115e+86
-7.5093926e+84
1.3879427e+86
-6.4947576e+84
-3.2801302e+84
1.7445451e+86
-6.529669e+84
1.713797e+86
-5.842951e+84
2.6184287e+84
-6.0334712e+84
1.3520203e+86
3.6374085e+84
-6.4937895e+84
3.1086778e+84
-6.0364125e+84
-1.3448991e+86
2.0181677e+84
-5.5648836e+84