/*--------------------------------*- C++ -*----------------------------------*\
  =========                 |
  \\      /  F ield         | OpenFOAM: The Open Source CFD Toolbox
   \\    /   O peration     | Website:  https://openfoam.org
    \\  /    A nd           | Version:  7
     \\/     M anipulation  |
\*---------------------------------------------------------------------------*/
FoamFile
{
    version     2.0;
    format      ascii;
    class       volScalarField;
    location    "2000";
    object      pMean;
}
// * * * * * * * * * * * * * * * * * * * * * * * * * * * * * * * * * * * * * //

dimensions      [0 2 -2 0 0 0 0];

internalField   nonuniform List<scalar> 
33899
(
-1.9031638e+179
-1.9012723e+179
-1.7263277e+179
-1.9030782e+179
-1.9013968e+179
-1.8844226e+179
-1.8872047e+179
-1.856556e+179
-1.8548023e+179
-1.722725e+179
-1.7241635e+179
-1.7791229e+179
-1.7336005e+179
-1.7615535e+179
-1.6767431e+179
-1.7640429e+179
-1.7358492e+179
-1.6446993e+179
-1.6444997e+179
-1.6743014e+179
-1.8955239e+179
-1.8987646e+179
-1.8852323e+179
-1.8868554e+179
-1.856184e+179
-1.8552309e+179
-1.8790272e+179
-1.8429721e+179
-1.8823977e+179
-1.844699e+179
-1.8058693e+179
-1.5692574e+179
-1.717968e+179
-1.7209031e+179
-1.7303357e+179
-1.7573164e+179
-1.7598938e+179
-1.7318042e+179
-1.6744241e+179
-1.7318939e+179
-1.7597918e+179
-1.7614654e+179
-1.7346601e+179
-1.6755977e+179
-1.6433379e+179
-1.6450156e+179
-1.7767207e+179
-1.7774416e+179
-1.7794356e+179
-1.7913795e+179
-1.7804112e+179
-1.792173e+179
-1.781125e+179
-1.709392e+179
-1.7553903e+179
-1.7527535e+179
-1.7421719e+179
-1.7410397e+179
-1.7603734e+179
-1.7577878e+179
-1.7657581e+179
-1.7674043e+179
-1.7112539e+179
-1.6842778e+179
-1.6813223e+179
-1.7599271e+179
-1.7598723e+179
-1.7676544e+179
-1.7676072e+179
-1.7541619e+179
-1.7543386e+179
-1.7422949e+179
-1.74166e+179
-1.6013716e+179
-1.6022626e+179
-1.7086067e+179
-1.6789477e+179
-1.6828585e+179
-1.743088e+179
-1.6015682e+179
-1.8906448e+179
-1.884243e+179
-1.8794007e+179
-1.8833718e+179
-1.8511516e+179
-1.853919e+179
-1.8641154e+179
-1.8804234e+179
-1.8439436e+179
-1.881667e+179
-1.8445457e+179
-1.8052389e+179
-1.8042327e+179
-1.8784963e+179
-1.8418272e+179
-1.7951773e+179
-1.8817188e+179
-1.8436329e+179
-1.7527752e+179
-1.5584149e+179
-1.5678904e+179
-1.637656e+179
-1.6683795e+179
-1.6734106e+179
-1.6422076e+179
-1.7276814e+179
-1.7278128e+179
-1.7287161e+179
-1.7550373e+179
-1.7569066e+179
-1.7303312e+179
-1.7775559e+179
-1.7379301e+179
-1.7374504e+179
-1.7495706e+179
-1.7509865e+179
-1.706681e+179
-1.753826e+179
-1.7553085e+179
-1.7616178e+179
-1.7631636e+179
-1.7564081e+179
-1.7638276e+179
-1.7556725e+179
-1.7635236e+179
-1.751467e+179
-1.7382625e+179
-1.7078546e+179
-1.7384629e+179
-1.7506485e+179
-1.6799606e+179
-1.6820255e+179
-1.7086702e+179
-1.7519439e+179
-1.7504915e+179
-1.7391317e+179
-1.7399556e+179
-1.7569452e+179
-1.7556786e+179
-1.7639869e+179
-1.7652769e+179
-1.7578451e+179
-1.7577257e+179
-1.7653947e+179
-1.7652269e+179
-1.7098942e+179
-1.7526132e+179
-1.7526272e+179
-1.740747e+179
-1.7422221e+179
-1.6845655e+179
-1.6803889e+179
-1.5994252e+179
-1.6009028e+179
-1.7774473e+179
-1.7782069e+179
-1.7899625e+179
-1.7783439e+179
-1.7781418e+179
-1.7903412e+179
-1.7906325e+179
-1.7832551e+179
-1.7874217e+179
-1.7873347e+179
-1.7834581e+179
-1.8002494e+179
-1.7959575e+179
-1.7962242e+179
-1.8005768e+179
-1.7836909e+179
-1.78778e+179
-1.7879771e+179
-1.7840002e+179
-1.7965047e+179
-1.7963274e+179
-1.8005571e+179
-1.8009985e+179
-1.7843571e+179
-1.7843265e+179
-1.7882862e+179
-1.7883492e+179
-1.7967606e+179
-1.7289407e+179
-1.7325524e+179
-1.7271448e+179
-1.728508e+179
-1.7520107e+179
-1.752077e+179
-1.7537414e+179
-1.7536483e+179
-1.7512329e+179
-1.7499792e+179
-1.7522224e+179
-1.7534225e+179
-1.7493865e+179
-1.7491778e+179
-1.7495347e+179
-1.7515032e+179
-1.7492923e+179
-1.7496824e+179
-1.7534279e+179
-1.7530683e+179
-1.7616858e+179
-1.7617995e+179
-1.7657834e+179
-1.7658377e+179
-1.7620837e+179
-1.7610641e+179
-1.764849e+179
-1.7656398e+179
-1.7714011e+179
-1.7719749e+179
-1.7753829e+179
-1.7750795e+179
-1.7757729e+179
-1.7719264e+179
-1.7720254e+179
-1.7755271e+179
-1.7301523e+179
-1.7303889e+179
-1.7310734e+179
-1.7274987e+179
-1.6726832e+179
-1.6696078e+179
-1.7624962e+179
-1.7632011e+179
-1.7664948e+179
-1.7663617e+179
-1.7626451e+179
-1.7624689e+179
-1.7660953e+179
-1.7660011e+179
-1.7727993e+179
-1.7760833e+179
-1.7759033e+179
-1.7729495e+179
-1.7729723e+179
-1.773315e+179
-1.7763319e+179
-1.7763837e+179
-1.753489e+179
-1.7525525e+179
-1.7527024e+179
-1.7543444e+179
-1.7531387e+179
-1.7515279e+179
-1.7536211e+179
-1.7543097e+179
-1.7485108e+179
-1.7489164e+179
-1.7520258e+179
-1.7518101e+179
-1.7479974e+179
-1.7486966e+179
-1.751279e+179
-1.7525726e+179
-1.5846931e+179
-1.5864901e+179
-1.6688693e+179
-1.7299126e+179
-1.7307698e+179
-1.7259834e+179
-1.7291891e+179
-1.7534888e+179
-1.7504968e+179
-1.7514185e+179
-1.7550635e+179
-1.7516468e+179
-1.6005807e+179
-1.6191154e+179
-1.6193469e+179
-1.6203002e+179
-1.6206528e+179
-1.6317978e+179
-1.6085551e+179
-1.608689e+179
-1.6321432e+179
-1.6752211e+179
-1.8683844e+179
-1.8749637e+179
-1.8468263e+179
-1.8412063e+179
-1.8597658e+179
-1.8545293e+179
-1.8744356e+179
-1.8383486e+179
-1.8783297e+179
-1.8419723e+179
-1.7995553e+179
-1.8022214e+179
-1.802722e+179
-1.8735589e+179
-1.8697949e+179
-1.9036199e+179
-1.8786864e+179
-1.8434628e+179
-1.7920096e+179
-1.8807338e+179
-1.8442053e+179
-1.7931438e+179
-1.7510071e+179
-1.7503209e+179
-1.8784244e+179
-1.84142e+179
-1.7963536e+179
-1.7355871e+179
-1.8816954e+179
-1.8435393e+179
-1.9347917e+179
-1.5947936e+179
-1.5565052e+179
-1.5941697e+179
-1.5650418e+179
-1.6355774e+179
-1.6664645e+179
-1.7259987e+179
-1.5944599e+179
-1.7024167e+179
-1.6753441e+179
-1.673727e+179
-1.7031272e+179
-1.7064667e+179
-1.7068223e+179
-1.6819208e+179
-1.6769719e+179
-1.5980606e+179
-1.7468534e+179
-1.7352624e+179
-1.7351944e+179
-1.7488013e+179
-1.7360372e+179
-1.7358065e+179
-1.7497495e+179
-1.7494484e+179
-1.7472412e+179
-1.7357658e+179
-1.7357573e+179
-1.7485933e+179
-1.7515282e+179
-1.7529852e+179
-1.7607837e+179
-1.7537004e+179
-1.7535815e+179
-1.760862e+179
-1.7361901e+179
-1.7376097e+179
-1.7492216e+179
-1.7493899e+179
-1.7808418e+179
-1.7803063e+179
-1.7846799e+179
-1.7258112e+179
-1.7444972e+179
-1.7453252e+179
-1.7484741e+179
-1.7485384e+179
-1.7247949e+179
-1.7449462e+179
-1.7447643e+179
-1.7463109e+179
-1.7489944e+179
-1.7492492e+179
-1.7469787e+179
-1.7488787e+179
-1.7502273e+179
-1.7501538e+179
-1.7486076e+179
-1.7489189e+179
-1.7498579e+179
-1.7294679e+179
-1.7250884e+179
-1.7607076e+179
-1.7568578e+179
-1.7576605e+179
-1.7613043e+179
-1.7577573e+179
-1.757957e+179
-1.7617745e+179
-1.7614677e+179
-1.7677337e+179
-1.7672773e+179
-1.7707882e+179
-1.7708939e+179
-1.771153e+179
-1.7680314e+179
-1.7678948e+179
-1.7713045e+179
-1.7612396e+179
-1.7576919e+179
-1.76163e+179
-1.758454e+179
-1.7714301e+179
-1.7679947e+179
-1.7683213e+179
-1.7716258e+179
-1.7588671e+179
-1.7588425e+179
-1.7622212e+179
-1.762549e+179
-1.7692956e+179
-1.7690767e+179
-1.7722523e+179
-1.7727957e+179
-1.7490596e+179
-1.7490473e+179
-1.7503962e+179
-1.7498453e+179
-1.725832e+179
-1.7491058e+179
-1.7449934e+179
-1.7452703e+179
-1.7497547e+179
-1.7257761e+179
-1.7247388e+179
-1.7280733e+179
-1.7489852e+179
-1.7463667e+179
-1.7450207e+179
-1.7483484e+179
-1.7492217e+179
-1.7491644e+179
-1.7514254e+179
-1.7509985e+179
-1.6676616e+179
-1.6704708e+179
-1.7267327e+179
-1.7283727e+179
-1.7283778e+179
-1.7267374e+179
-1.7501751e+179
-1.7496923e+179
-1.7517607e+179
-1.7515933e+179
-1.7502763e+179
-1.7483647e+179
-1.7505731e+179
-1.7515688e+179
-1.7477179e+179
-1.7460438e+179
-1.7458666e+179
-1.7499233e+179
-1.749518e+179
-1.7471515e+179
-1.7465305e+179
-1.7495411e+179
-1.7600863e+179
-1.760172e+179
-1.7637709e+179
-1.7638629e+179
-1.7598099e+179
-1.7591243e+179
-1.7630079e+179
-1.7634439e+179
-1.7700282e+179
-1.7696096e+179
-1.7731859e+179
-1.7733423e+179
-1.7735813e+179
-1.7703338e+179
-1.7705145e+179
-1.7739922e+179
-1.7608312e+179
-1.7609585e+179
-1.7643307e+179
-1.7643923e+179
-1.7607141e+179
-1.7602304e+179
-1.7637979e+179
-1.7640729e+179
-1.7740068e+179
-1.7708008e+179
-1.7710196e+179
-1.77404e+179
-1.774336e+179
-1.7713582e+179
-1.7713374e+179
-1.7747061e+179
-1.7291154e+179
-1.7292861e+179
-1.7279189e+179
-1.7332325e+179
-1.7504262e+179
-1.7503959e+179
-1.7525225e+179
-1.7520368e+179
-1.7511357e+179
-1.7496146e+179
-1.7516608e+179
-1.7524162e+179
-1.7493256e+179
-1.7475612e+179
-1.7475118e+179
-1.7509587e+179
-1.7504273e+179
-1.749347e+179
-1.7481365e+179
-1.7497242e+179
-1.6729339e+179
-1.6682174e+179
-1.5820596e+179
-1.583764e+179
-1.7851596e+179
-1.7811917e+179
-1.781407e+179
-1.7853597e+179
-1.7821132e+179
-1.7817713e+179
-1.7857859e+179
-1.7862377e+179
-1.794573e+179
-1.794152e+179
-1.7829496e+179
-1.7826829e+179
-1.7871454e+179
-1.7868741e+179
-1.7823169e+179
-1.7822835e+179
-1.7864295e+179
-1.7865218e+179
-1.794856e+179
-1.7949542e+179
-1.7993218e+179
-1.7996781e+179
-1.7953353e+179
-1.7955824e+179
-1.8000287e+179
-1.7823072e+179
-1.7885448e+179
-1.7886393e+179
-1.7824602e+179
-1.8010482e+179
-1.7952796e+179
-1.7957965e+179
-1.8013632e+179
-1.7828227e+179
-1.7889991e+179
-1.7891917e+179
-1.7830377e+179
-1.7960777e+179
-1.7957434e+179
-1.8014083e+179
-1.8016741e+179
-1.7832365e+179
-1.7831845e+179
-1.7893419e+179
-1.7959968e+179
-1.7389011e+179
-1.7505439e+179
-1.7394516e+179
-1.7463245e+179
-1.7394888e+179
-1.7342138e+179
-1.7482757e+179
-1.7447698e+179
-1.7394175e+179
-1.739235e+179
-1.7598945e+179
-1.7597191e+179
-1.7580033e+179
-1.7582267e+179
-1.7595269e+179
-1.7587981e+179
-1.7576552e+179
-1.7577896e+179
-1.7649504e+179
-1.7623612e+179
-1.7625291e+179
-1.7665393e+179
-1.763247e+179
-1.7633272e+179
-1.7680838e+179
-1.7679503e+179
-1.7627242e+179
-1.7625119e+179
-1.7665129e+179
-1.7668186e+179
-1.7623662e+179
-1.7623554e+179
-1.7661482e+179
-1.7661722e+179
-1.7712441e+179
-1.7713284e+179
-1.7762101e+179
-1.7761174e+179
-1.7767028e+179
-1.771653e+179
-1.7718933e+179
-1.7765548e+179
-1.7393669e+179
-1.7486889e+179
-1.7457346e+179
-1.7384468e+179
-1.7391027e+179
-1.7464622e+179
-1.7505237e+179
-1.7389649e+179
-1.7378289e+179
-1.7344057e+179
-1.6590493e+179
-1.6540611e+179
-1.763938e+179
-1.763663e+179
-1.7677124e+179
-1.7679652e+179
-1.763152e+179
-1.7631637e+179
-1.7674031e+179
-1.7674624e+179
-1.7725269e+179
-1.7769427e+179
-1.7768343e+179
-1.7725577e+179
-1.7729177e+179
-1.772765e+179
-1.7771142e+179
-1.777365e+179
-1.7585843e+179
-1.7606194e+179
-1.760468e+179
-1.7590964e+179
-1.7608505e+179
-1.7599112e+179
-1.7586368e+179
-1.7588591e+179
-1.7629374e+179
-1.7624689e+179
-1.7670837e+179
-1.7673399e+179
-1.7627413e+179
-1.7619654e+179
-1.7669456e+179
-1.7681282e+179
-1.6565275e+179
-1.651479e+179
-1.6517697e+179
-1.654256e+179
-1.7366306e+179
-1.7336708e+179
-1.7465149e+179
-1.7500346e+179
-1.7400189e+179
-1.7408844e+179
-1.7410116e+179
-1.7461965e+179
-1.749011e+179
-1.7408423e+179
-1.7599687e+179
-1.7583491e+179
-1.7676052e+179
-1.763499e+179
-1.7641889e+179
-1.7687174e+179
-1.763989e+179
-1.5990089e+179
-1.6195172e+179
-1.6176673e+179
-1.6182761e+179
-1.6204152e+179
-1.6305392e+179
-1.6073896e+179
-1.6079339e+179
-1.6313154e+179
-1.6099406e+179
-1.6102077e+179
-1.6001296e+179
-1.6014996e+179
-1.6001623e+179
-1.6016459e+179
-1.6735813e+179
-1.6736787e+179
-1.6608979e+179
-1.835693e+179
-1.8295916e+179
-1.8490128e+179
-1.8428594e+179
-1.8631632e+179
-1.8286013e+179
-1.8695394e+179
-1.833949e+179
-1.796095e+179
-1.7914053e+179
-1.7991523e+179
-1.8676166e+179
-1.8670489e+179
-1.9004097e+179
-1.9018221e+179
-1.7948605e+179
-1.8643991e+179
-1.8605339e+179
-1.8943817e+179
-1.8979217e+179
-1.8743739e+179
-1.835971e+179
-1.7878862e+179
-1.8776236e+179
-1.8403829e+179
-1.7903102e+179
-1.7456122e+179
-1.7477921e+179
-1.7434958e+179
-1.8019225e+179
-1.833075e+179
-1.8360525e+179
-1.8053398e+179
-1.8988222e+179
-1.895877e+179
-1.8785835e+179
-1.8432663e+179
-1.7928362e+179
-1.7324591e+179
-1.8806379e+179
-1.844313e+179
-1.7944946e+179
-1.7340103e+179
-1.8413867e+179
-1.7967198e+179
-1.7362278e+179
-1.8435106e+179
-1.9303213e+179
-1.9329557e+179
-1.949293e+179
-1.9653616e+179
-1.9495261e+179
-1.9259576e+179
-1.9279029e+179
-1.670197e+179
-1.6737203e+179
-1.6722909e+179
-1.6681634e+179
-1.5935767e+179
-1.5922931e+179
-1.5539835e+179
-1.6719581e+179
-1.6710255e+179
-1.6680235e+179
-1.6700321e+179
-1.5614535e+179
-1.5923991e+179
-1.6986361e+179
-1.7011514e+179
-1.6687931e+179
-1.6743653e+179
-1.7305479e+179
-1.7341453e+179
-1.7323809e+179
-1.7452605e+179
-1.7456598e+179
-1.5779096e+179
-1.6669154e+179
-1.6643473e+179
-1.726177e+179
-1.722695e+179
-1.723842e+179
-1.7219043e+179
-1.7246711e+179
-1.724204e+179
-1.7216586e+179
-1.7252704e+179
-1.7243801e+179
-1.7252864e+179
-1.7262507e+179
-1.7244083e+179
-1.7252644e+179
-1.7253647e+179
-1.7251269e+179
-1.7300116e+179
-1.6706736e+179
-1.6659458e+179
-1.5807871e+179
-1.7412888e+179
-1.7424857e+179
-1.7442799e+179
-1.7437248e+179
-1.7449485e+179
-1.7424478e+179
-1.7437743e+179
-1.7474096e+179
-1.7431296e+179
-1.7435467e+179
-1.7478061e+179
-1.7473335e+179
-1.7448094e+179
-1.7451706e+179
-1.7451407e+179
-1.7452731e+179
-1.7537885e+179
-1.7537762e+179
-1.7434305e+179
-1.7443594e+179
-1.7483564e+179
-1.7470522e+179
-1.743924e+179
-1.743474e+179
-1.7473198e+179
-1.748487e+179
-1.7465368e+179
-1.7455158e+179
-1.7458841e+179
-1.7466865e+179
-1.7467816e+179
-1.7466386e+179
-1.7461276e+179
-1.7464171e+179
-1.745364e+179
-1.7457887e+179
-1.7472643e+179
-1.7474135e+179
-1.746099e+179
-1.7425189e+179
-1.7426732e+179
-1.7473018e+179
-1.7424763e+179
-1.7429165e+179
-1.7462753e+179
-1.7465626e+179
-1.7481123e+179
-1.7467343e+179
-1.7472225e+179
-1.7482556e+179
-1.7538739e+179
-1.7553418e+179
-1.7557275e+179
-1.7556491e+179
-1.7590339e+179
-1.7591321e+179
-1.7659341e+179
-1.7663031e+179
-1.7689052e+179
-1.7589621e+179
-1.7555691e+179
-1.7564354e+179
-1.7596481e+179
-1.7565653e+179
-1.7568078e+179
-1.7599651e+179
-1.7601422e+179
-1.7695619e+179
-1.766596e+179
-1.7668562e+179
-1.7701664e+179
-1.7470073e+179
-1.7430277e+179
-1.7439314e+179
-1.7479989e+179
-1.7441051e+179
-1.7449573e+179
-1.7472275e+179
-1.7467422e+179
-1.7480517e+179
-1.7470823e+179
-1.7481319e+179
-1.7490507e+179
-1.7491461e+179
-1.747508e+179
-1.7475204e+179
-1.7488449e+179
-1.779602e+179
-1.7790226e+179
-1.7856905e+179
-1.7347516e+179
-1.7412666e+179
-1.7439696e+179
-1.7340786e+179
-1.7590755e+179
-1.7587259e+179
-1.7642573e+179
-1.7643088e+179
-1.7347762e+179
-1.7465896e+179
-1.7419646e+179
-1.7346032e+179
-1.7595931e+179
-1.7589654e+179
-1.762986e+179
-1.7653211e+179
-1.7569834e+179
-1.7557329e+179
-1.7532887e+179
-1.7537623e+179
-1.7543046e+179
-1.7569798e+179
-1.7568017e+179
-1.7543336e+179
-1.7363479e+179
-1.7313977e+179
-1.7617344e+179
-1.7576289e+179
-1.757939e+179
-1.761878e+179
-1.7586682e+179
-1.758587e+179
-1.7624558e+179
-1.7624878e+179
-1.7668556e+179
-1.7667906e+179
-1.771407e+179
-1.7714794e+179
-1.7719238e+179
-1.7672877e+179
-1.7674036e+179
-1.7719921e+179
-1.7629355e+179
-1.7593502e+179
-1.7630259e+179
-1.7594744e+179
-1.7722454e+179
-1.7682306e+179
-1.7684179e+179
-1.772462e+179
-1.7595469e+179
-1.7593946e+179
-1.7634331e+179
-1.7637049e+179
-1.7688517e+179
-1.7686288e+179
-1.773052e+179
-1.7735685e+179
-1.7539671e+179
-1.756212e+179
-1.7545797e+179
-1.7573363e+179
-1.7413779e+179
-1.7437935e+179
-1.7342154e+179
-1.7346139e+179
-1.76388e+179
-1.7592715e+179
-1.7600435e+179
-1.7649331e+179
-1.7354307e+179
-1.7421206e+179
-1.7459647e+179
-1.7347554e+179
-1.7312721e+179
-1.7344622e+179
-1.7635121e+179
-1.7590874e+179
-1.7597628e+179
-1.76444e+179
-1.7575517e+179
-1.7574437e+179
-1.7554091e+179
-1.755509e+179
-1.6519545e+179
-1.6563899e+179
-1.7358532e+179
-1.7463915e+179
-1.7430815e+179
-1.7360132e+179
-1.7370437e+179
-1.743534e+179
-1.7470056e+179
-1.7370344e+179
-1.7345189e+179
-1.7329277e+179
-1.7585225e+179
-1.7578916e+179
-1.7567393e+179
-1.7568072e+179
-1.7583018e+179
-1.7568422e+179
-1.7558836e+179
-1.7562773e+179
-1.7631355e+179
-1.7590859e+179
-1.7603045e+179
-1.7654766e+179
-1.7641627e+179
-1.75991e+179
-1.7611535e+179
-1.7654505e+179
-1.7610631e+179
-1.7612098e+179
-1.7648212e+179
-1.7649062e+179
-1.7604182e+179
-1.7604411e+179
-1.7641971e+179
-1.7641392e+179
-1.7692766e+179
-1.7692379e+179
-1.7740787e+179
-1.774154e+179
-1.7746695e+179
-1.7699e+179
-1.7700386e+179
-1.7748656e+179
-1.7614969e+179
-1.7619122e+179
-1.765886e+179
-1.7658321e+179
-1.7613443e+179
-1.7615226e+179
-1.7655193e+179
-1.7654793e+179
-1.7750939e+179
-1.7706944e+179
-1.7707187e+179
-1.7750741e+179
-1.7753874e+179
-1.7710617e+179
-1.7711286e+179
-1.7756833e+179
-1.7376676e+179
-1.7474648e+179
-1.7449558e+179
-1.7380181e+179
-1.7395163e+179
-1.7467662e+179
-1.7511517e+179
-1.7388153e+179
-1.7343957e+179
-1.7403724e+179
-1.7586891e+179
-1.7585777e+179
-1.7574298e+179
-1.7571044e+179
-1.7593592e+179
-1.7581095e+179
-1.7570231e+179
-1.7572481e+179
-1.764399e+179
-1.7607887e+179
-1.7619439e+179
-1.7666526e+179
-1.7648856e+179
-1.7622449e+179
-1.7628291e+179
-1.7658024e+179
-1.6593004e+179
-1.6529189e+179
-1.6540346e+179
-1.6491887e+179
-1.6500315e+179
-1.6563131e+179
-1.7860895e+179
-1.7801102e+179
-1.780316e+179
-1.7862958e+179
-1.7810661e+179
-1.7808913e+179
-1.7867971e+179
-1.7870548e+179
-1.7937216e+179
-1.7934088e+179
-1.7819643e+179
-1.7817747e+179
-1.788077e+179
-1.7877817e+179
-1.7813516e+179
-1.7814193e+179
-1.7873732e+179
-1.7873551e+179
-1.7939912e+179
-1.7941456e+179
-1.8002464e+179
-1.800559e+179
-1.7944787e+179
-1.7948054e+179
-1.8008579e+179
-1.7847796e+179
-1.7827186e+179
-1.782832e+179
-1.7849718e+179
-1.7908208e+179
-1.7885307e+179
-1.7887104e+179
-1.7909293e+179
-1.79099e+179
-1.7889017e+179
-1.7890009e+179
-1.7911321e+179
-1.7831225e+179
-1.7830686e+179
-1.7851995e+179
-1.7852963e+179
-1.8032984e+179
-1.8006522e+179
-1.8006599e+179
-1.8033542e+179
-1.7969527e+179
-1.7945479e+179
-1.7946836e+179
-1.7970142e+179
-1.7949857e+179
-1.7948841e+179
-1.7972171e+179
-1.7972971e+179
-1.8034418e+179
-1.8006748e+179
-1.8007458e+179
-1.8034935e+179
-1.7834316e+179
-1.783349e+179
-1.7854569e+179
-1.7855281e+179
-1.7913385e+179
-1.7891408e+179
-1.789238e+179
-1.7913875e+179
-1.7913365e+179
-1.7893095e+179
-1.7893171e+179
-1.7913958e+179
-1.7836054e+179
-1.7836081e+179
-1.7855825e+179
-1.7855812e+179
-1.7951235e+179
-1.7951278e+179
-1.797477e+179
-1.7974427e+179
-1.7973896e+179
-1.7950735e+179
-1.7951333e+179
-1.7974219e+179
-1.8036511e+179
-1.800982e+179
-1.8010566e+179
-1.8036915e+179
-1.8037285e+179
-1.8010539e+179
-1.8010441e+179
-1.8036837e+179
-1.7839301e+179
-1.7838722e+179
-1.7859196e+179
-1.7859564e+179
-1.7837065e+179
-1.7836847e+179
-1.7857931e+179
-1.7858028e+179
-1.7916434e+179
-1.7894803e+179
-1.7895219e+179
-1.7916386e+179
-1.7976347e+179
-1.7953286e+179
-1.7953619e+179
-1.7976309e+179
-1.7469105e+179
-1.756403e+179
-1.7455333e+179
-1.7523798e+179
-1.7196422e+179
-1.7136589e+179
-1.7520959e+179
-1.7547635e+179
-1.7459013e+179
-1.7460218e+179
-1.7654456e+179
-1.7657911e+179
-1.7635378e+179
-1.7636627e+179
-1.7630983e+179
-1.7655895e+179
-1.7654646e+179
-1.7635677e+179
-1.7647202e+179
-1.7645664e+179
-1.7642752e+179
-1.7642445e+179
-1.764825e+179
-1.7647881e+179
-1.7643842e+179
-1.7644184e+179
-1.7652708e+179
-1.7655214e+179
-1.7630513e+179
-1.7632004e+179
-1.7653955e+179
-1.764793e+179
-1.7628359e+179
-1.7632133e+179
-1.764289e+179
-1.7639268e+179
-1.7635108e+179
-1.7637465e+179
-1.7642983e+179
-1.7642498e+179
-1.7638813e+179
-1.7638914e+179
-1.7805206e+179
-1.7686012e+179
-1.7792877e+179
-1.7694903e+179
-1.7731743e+179
-1.7777702e+179
-1.7733417e+179
-1.7790651e+179
-1.7792792e+179
-1.7728897e+179
-1.780075e+179
-1.773639e+179
-1.770244e+179
-1.782434e+179
-1.7809536e+179
-1.7704789e+179
-1.7734069e+179
-1.7806717e+179
-1.7792761e+179
-1.7726506e+179
-1.7733518e+179
-1.7802971e+179
-1.7800822e+179
-1.7736423e+179
-1.7704852e+179
-1.7825342e+179
-1.7812746e+179
-1.7703249e+179
-1.7705784e+179
-1.7821229e+179
-1.7808638e+179
-1.7704578e+179
-1.7665519e+179
-1.7665516e+179
-1.7669354e+179
-1.7669344e+179
-1.7663606e+179
-1.7663278e+179
-1.7666794e+179
-1.7667512e+179
-1.7702819e+179
-1.7693561e+179
-1.7694316e+179
-1.770368e+179
-1.7705288e+179
-1.7696407e+179
-1.7696764e+179
-1.7705148e+179
-1.7659874e+179
-1.7660242e+179
-1.7664439e+179
-1.7664092e+179
-1.7660809e+179
-1.7655753e+179
-1.7658063e+179
-1.7662502e+179
-1.7696558e+179
-1.76871e+179
-1.7688412e+179
-1.7698121e+179
-1.7700351e+179
-1.7690693e+179
-1.7690526e+179
-1.7700497e+179
-1.7740404e+179
-1.7726774e+179
-1.7728399e+179
-1.7741983e+179
-1.773089e+179
-1.7730679e+179
-1.7744604e+179
-1.7744828e+179
-1.7793747e+179
-1.7775794e+179
-1.7776315e+179
-1.7794429e+179
-1.7789931e+179
-1.7771998e+179
-1.7773451e+179
-1.7791273e+179
-1.7797719e+179
-1.7780983e+179
-1.778062e+179
-1.7797741e+179
-1.7746797e+179
-1.7733361e+179
-1.7734213e+179
-1.7747693e+179
-1.7735399e+179
-1.7735844e+179
-1.7749041e+179
-1.7748425e+179
-1.7796745e+179
-1.7778889e+179
-1.7779716e+179
-1.7797249e+179
-1.7454811e+179
-1.7549294e+179
-1.7522451e+179
-1.7447791e+179
-1.7451131e+179
-1.7527904e+179
-1.7563026e+179
-1.7460735e+179
-1.71757e+179
-1.7135474e+179
-1.7067753e+179
-1.7012178e+179
-1.7011784e+179
-1.7050169e+179
-1.7676699e+179
-1.7678214e+179
-1.7678887e+179
-1.7677617e+179
-1.7674863e+179
-1.7673251e+179
-1.767701e+179
-1.7677848e+179
-1.7712446e+179
-1.7705394e+179
-1.770598e+179
-1.7713219e+179
-1.7713254e+179
-1.7705508e+179
-1.7704412e+179
-1.7712612e+179
-1.767085e+179
-1.7670385e+179
-1.7674369e+179
-1.7674489e+179
-1.7670564e+179
-1.7667448e+179
-1.7668757e+179
-1.7672286e+179
-1.7710521e+179
-1.7703531e+179
-1.7703829e+179
-1.7710767e+179
-1.7708081e+179
-1.7700392e+179
-1.7701907e+179
-1.7708892e+179
-1.7750293e+179
-1.7736595e+179
-1.7737619e+179
-1.7750474e+179
-1.7799553e+179
-1.7781721e+179
-1.7781982e+179
-1.7799314e+179
-1.7800051e+179
-1.7783348e+179
-1.7783599e+179
-1.7800852e+179
-1.7739657e+179
-1.7739353e+179
-1.7752519e+179
-1.7752169e+179
-1.7741455e+179
-1.7741849e+179
-1.7756011e+179
-1.7755543e+179
-1.7753945e+179
-1.7740784e+179
-1.7741782e+179
-1.7755021e+179
-1.780316e+179
-1.7785065e+179
-1.7786402e+179
-1.7804281e+179
-1.7805476e+179
-1.7787396e+179
-1.7787542e+179
-1.7805616e+179
-1.7654213e+179
-1.7656966e+179
-1.7653012e+179
-1.765072e+179
-1.7641099e+179
-1.7663958e+179
-1.7666139e+179
-1.7646548e+179
-1.7645998e+179
-1.7666598e+179
-1.7660189e+179
-1.7641976e+179
-1.7657609e+179
-1.7654773e+179
-1.7652997e+179
-1.7653356e+179
-1.7661707e+179
-1.7662919e+179
-1.7640752e+179
-1.7642455e+179
-1.7634011e+179
-1.7656117e+179
-1.7658019e+179
-1.7639277e+179
-1.7651558e+179
-1.7648418e+179
-1.7646771e+179
-1.7647199e+179
-1.7653964e+179
-1.7652787e+179
-1.7649071e+179
-1.7649548e+179
-1.7784518e+179
-1.7724972e+179
-1.780434e+179
-1.7724381e+179
-1.7722756e+179
-1.7723238e+179
-1.7801689e+179
-1.7799818e+179
-1.7713616e+179
-1.7820043e+179
-1.7817723e+179
-1.7715382e+179
-1.7819608e+179
-1.7711001e+179
-1.7701281e+179
-1.7803083e+179
-1.7723326e+179
-1.7803808e+179
-1.7801474e+179
-1.7722284e+179
-1.7718872e+179
-1.7798655e+179
-1.7800498e+179
-1.7718524e+179
-1.770662e+179
-1.7820553e+179
-1.7817817e+179
-1.7709738e+179
-1.781523e+179
-1.7711133e+179
-1.7820219e+179
-1.771066e+179
-1.708288e+179
-1.7134525e+179
-1.7120932e+179
-1.7068865e+179
-1.7068961e+179
-1.7095165e+179
-1.7092386e+179
-1.7064833e+179
-1.7091574e+179
-1.7073278e+179
-1.706493e+179
-1.7087529e+179
-1.7042811e+179
-1.701006e+179
-1.7165714e+179
-1.7132234e+179
-1.7555449e+179
-1.7523195e+179
-1.7523686e+179
-1.7549697e+179
-1.7463986e+179
-1.7459633e+179
-1.746074e+179
-1.7469289e+179
-1.7659411e+179
-1.7662288e+179
-1.7644618e+179
-1.7644114e+179
-1.7657639e+179
-1.7657551e+179
-1.7653851e+179
-1.7653955e+179
-1.7814957e+179
-1.7703168e+179
-1.7696998e+179
-1.7815975e+179
-1.7809357e+179
-1.7730145e+179
-1.7796196e+179
-1.7737368e+179
-1.78132e+179
-1.7740795e+179
-1.7814216e+179
-1.7739641e+179
-1.7826924e+179
-1.7710271e+179
-1.7709801e+179
-1.7823318e+179
-1.7736552e+179
-1.7731762e+179
-1.7814264e+179
-1.7813093e+179
-1.7827858e+179
-1.5962333e+179
-1.6169877e+179
-1.616732e+179
-1.6177877e+179
-1.6192874e+179
-1.6067702e+179
-1.6056501e+179
-1.6286212e+179
-1.6299379e+179
-1.5990706e+179
-1.6004837e+179
-1.6083493e+179
-1.6091244e+179
-1.6008341e+179
-1.6015749e+179
-1.6864883e+179
-1.6709199e+179
-1.6721489e+179
-1.6876927e+179
-1.6076935e+179
-1.60753e+179
-1.6016113e+179
-1.6078451e+179
-1.6606446e+179
-1.6084297e+179
-1.6003579e+179
-1.6614208e+179
-1.6658537e+179
-1.8234403e+179
-1.8371246e+179
-1.8165765e+179
-1.822408e+179
-1.7873269e+179
-1.7829513e+179
-1.790409e+179
-1.8577203e+179
-1.8565555e+179
-1.8894391e+179
-1.8914526e+179
-1.7856705e+179
-1.8523888e+179
-1.8502382e+179
-1.8821797e+179
-1.8855475e+179
-1.863518e+179
-1.8251094e+179
-1.7798801e+179
-1.8693419e+179
-1.8309548e+179
-1.7840299e+179
-1.7424802e+179
-1.7387321e+179
-1.7405306e+179
-1.8304791e+179
-1.8003972e+179
-1.8006945e+179
-1.831544e+179
-1.8937284e+179
-1.8933399e+179
-1.7371826e+179
-1.7944476e+179
-1.8247889e+179
-1.8281028e+179
-1.7987187e+179
-1.8905753e+179
-1.887047e+179
-1.8743897e+179
-1.8353221e+179
-1.7876671e+179
-1.7298537e+179
-1.8776332e+179
-1.8405658e+179
-1.7909438e+179
-1.7318923e+179
-1.736904e+179
-1.7738957e+179
-1.7718575e+179
-1.7356466e+179
-1.7346803e+179
-1.8077255e+179
-1.8489506e+179
-1.8503154e+179
-1.8098819e+179
-1.90599e+179
-1.9060357e+179
-1.9032228e+179
-1.9047008e+179
-1.9268474e+179
-1.9261401e+179
-1.8432587e+179
-1.792976e+179
-1.7321965e+179
-1.8443185e+179
-1.7953399e+179
-1.7348209e+179
-1.796689e+179
-1.7370233e+179
-1.9430829e+179
-1.9595972e+179
-1.9615138e+179
-1.9454122e+179
-1.9645815e+179
-1.9632969e+179
-1.9472966e+179
-1.9488114e+179
-1.9581467e+179
-1.9670811e+179
-1.9663513e+179
-1.9578373e+179
-1.9853705e+179
-1.9776967e+179
-1.9783846e+179
-1.9582907e+179
-1.9672802e+179
-1.9584331e+179
-1.9196207e+179
-1.9228373e+179
-1.9561822e+179
-1.9403283e+179
-1.9410927e+179
-1.9574009e+179
-1.9412711e+179
-1.9579477e+179
-1.9585349e+179
-1.9424976e+179
-1.9127771e+179
-1.9164737e+179
-1.7064437e+179
-1.7083461e+179
-1.7132145e+179
-1.6664543e+179
-1.6680098e+179
-1.6716723e+179
-1.6706949e+179
-1.5912524e+179
-1.6691187e+179
-1.6675432e+179
-1.6657591e+179
-1.6684881e+179
-1.5518675e+179
-1.5890192e+179
-1.7048571e+179
-1.7127783e+179
-1.7126089e+179
-1.7054741e+179
-1.5764481e+179
-1.6603006e+179
-1.6661453e+179
-1.7190974e+179
-1.7175898e+179
-1.7212756e+179
-1.7220965e+179
-1.7197636e+179
-1.7258675e+179
-1.7377312e+179
-1.736804e+179
-1.7417668e+179
-1.741958e+179
-1.741622e+179
-1.741963e+179
-1.744853e+179
-1.7438227e+179
-1.7406246e+179
-1.7390305e+179
-1.742593e+179
-1.7443031e+179
-1.7410779e+179
-1.7405089e+179
-1.7416879e+179
-1.7421761e+179
-1.7423862e+179
-1.7421479e+179
-1.7416597e+179
-1.7418711e+179
-1.6503285e+179
-1.645815e+179
-1.6520333e+179
-1.6482394e+179
-1.7346997e+179
-1.7300816e+179
-1.7300312e+179
-1.7329707e+179
-1.7447924e+179
-1.7314394e+179
-1.7325833e+179
-1.7413003e+179
-1.7437076e+179
-1.7402554e+179
-1.7326152e+179
-1.7325783e+179
-1.7329858e+179
-1.743882e+179
-1.7412543e+179
-1.7333861e+179
-1.7336875e+179
-1.7413403e+179
-1.7447405e+179
-1.7328477e+179
-1.7409612e+179
-1.7441707e+179
-1.7322904e+179
-1.7327084e+179
-1.7332849e+179
-1.7410532e+179
-1.7437906e+179
-1.7330104e+179
-1.7328048e+179
-1.7307556e+179
-1.7416216e+179
-1.7436868e+179
-1.733137e+179
-1.734274e+179
-1.7354849e+179
-1.7432821e+179
-1.7471193e+179
-1.7346378e+179
-1.731719e+179
-1.7372311e+179
-1.656428e+179
-1.6498235e+179
-1.6471458e+179
-1.6535783e+179
-1.7467784e+179
-1.7505489e+179
-1.7517171e+179
-1.7477677e+179
-1.7606637e+179
-1.7550997e+179
-1.7560364e+179
-1.7624352e+179
-1.7563671e+179
-1.756193e+179
-1.7629126e+179
-1.7624524e+179
-1.7484377e+179
-1.7525952e+179
-1.7526654e+179
-1.7490105e+179
-1.7536101e+179
-1.754598e+179
-1.7540798e+179
-1.7570195e+179
-1.7569845e+179
-1.7628677e+179
-1.762467e+179
-1.7570824e+179
-1.7563252e+179
-1.7622655e+179
-1.7631567e+179
-1.7535669e+179
-1.7529584e+179
-1.7496706e+179
-1.7500676e+179
-1.7503758e+179
-1.7538157e+179
-1.7537424e+179
-1.7506972e+179
-1.7505284e+179
-1.7535835e+179
-1.7550603e+179
-1.751779e+179
-1.7621236e+179
-1.7569728e+179
-1.7574614e+179
-1.763519e+179
-1.7573873e+179
-1.7566155e+179
-1.7625352e+179
-1.7630822e+179
-1.7523165e+179
-1.7552654e+179
-1.7554725e+179
-1.7525984e+179
-1.7556831e+179
-1.7557445e+179
-1.756379e+179
-1.7561944e+179
-1.759791e+179
-1.7601816e+179
-1.7658233e+179
-1.7656723e+179
-1.7699689e+179
-1.7602678e+179
-1.756364e+179
-1.7568434e+179
-1.7607261e+179
-1.7572514e+179
-1.7571541e+179
-1.7614473e+179
-1.7613993e+179
-1.7703105e+179
-1.7662988e+179
-1.7663667e+179
-1.7708403e+179
-1.7631179e+179
-1.7580793e+179
-1.7590383e+179
-1.7644639e+179
-1.7593112e+179
-1.7586757e+179
-1.7631896e+179
-1.7636007e+179
-1.7562834e+179
-1.7557045e+179
-1.7525845e+179
-1.7529894e+179
-1.753087e+179
-1.7559213e+179
-1.7557913e+179
-1.7530806e+179
-1.7802187e+179
-1.7800902e+179
-1.7820727e+179
-1.78224e+179
-1.7797994e+179
-1.77942e+179
-1.7814897e+179
-1.7818495e+179
-1.7857755e+179
-1.7859683e+179
-1.7410732e+179
-1.7481181e+179
-1.7505472e+179
-1.7413547e+179
-1.7701425e+179
-1.7697482e+179
-1.7769172e+179
-1.7778639e+179
-1.7696871e+179
-1.7777492e+179
-1.769991e+179
-1.7778598e+179
-1.7688074e+179
-1.7806105e+179
-1.7796911e+179
-1.7684423e+179
-1.7796378e+179
-1.7683733e+179
-1.7781315e+179
-1.7673349e+179
-1.7427452e+179
-1.7522471e+179
-1.7479697e+179
-1.7411025e+179
-1.7705895e+179
-1.7779392e+179
-1.7704866e+179
-1.7777745e+179
-1.7703088e+179
-1.7758263e+179
-1.7764398e+179
-1.7709286e+179
-1.7665992e+179
-1.7781928e+179
-1.7789739e+179
-1.7678164e+179
-1.7801978e+179
-1.7681437e+179
-1.7809013e+179
-1.7684039e+179
-1.7623923e+179
-1.7624532e+179
-1.7591017e+179
-1.7592049e+179
-1.758647e+179
-1.7614619e+179
-1.7622416e+179
-1.7590691e+179
-1.7596717e+179
-1.7593503e+179