/*--------------------------------*- C++ -*----------------------------------*\
  =========                 |
  \\      /  F ield         | OpenFOAM: The Open Source CFD Toolbox
   \\    /   O peration     | Website:  https://openfoam.org
    \\  /    A nd           | Version:  7
     \\/     M anipulation  |
\*---------------------------------------------------------------------------*/
FoamFile
{
    version     2.0;
    format      ascii;
    class       volVectorField;
    location    "2000";
    object      U;
}
// * * * * * * * * * * * * * * * * * * * * * * * * * * * * * * * * * * * * * //

dimensions      [0 1 -1 0 0 0 0];

internalField   nonuniform List<vector> 
33899
(
(-5.4637687e+90 5.2253489e+89 3.5030657e+88)
(-5.5660556e+90 4.7943099e+89 1.0689357e+88)
(-5.1254328e+90 1.2083365e+89 -2.1934472e+89)
(-5.6347339e+90 4.2142063e+89 5.2664354e+88)
(-5.6965343e+90 3.4169645e+89 4.3102478e+88)
(-5.2783255e+90 4.5143603e+89 8.0507833e+88)
(-5.1408498e+90 5.1096734e+89 8.2015927e+88)
(-5.3158697e+90 4.9220049e+89 9.744221e+88)
(-5.6296656e+90 4.7503398e+89 7.5832096e+88)
(-5.1227521e+90 3.5760301e+88 -2.3761686e+89)
(-5.086952e+90 2.6375191e+89 -2.0178099e+89)
(-5.0099027e+90 -4.8769327e+87 -6.8945739e+89)
(-4.5516512e+90 1.797586e+89 -2.7393288e+89)
(-5.2775239e+90 2.1085271e+89 -1.4285589e+88)
(-5.5191874e+90 3.1433666e+89 7.7980664e+89)
(-5.3236779e+90 8.9374299e+87 -1.6958545e+87)
(-4.5541438e+90 2.6789199e+89 -2.8067976e+89)
(-4.092714e+90 4.5557415e+89 -7.6534266e+89)
(-4.1414101e+90 2.4451553e+89 -7.2101134e+89)
(-5.5141778e+90 1.8023531e+89 7.9215117e+89)
(-5.7809346e+90 1.208423e+89 2.7803231e+88)
(-5.7323467e+90 2.2123637e+89 4.6339887e+88)
(-5.3979401e+90 3.1001872e+89 1.012183e+89)
(-5.305949e+90 4.0462635e+89 9.9751791e+88)
(-5.4894673e+90 4.0223457e+89 1.3020471e+89)
(-5.5455238e+90 3.557166e+89 1.3308142e+89)
(-4.886754e+90 4.708541e+89 1.1211506e+89)
(-5.3377167e+90 4.1672267e+89 1.0195139e+89)
(-4.7235371e+90 5.6162724e+89 1.2135599e+89)
(-4.9713131e+90 4.4487678e+89 1.0382304e+89)
(-5.4006668e+90 4.6559211e+89 7.5363845e+88)
(-5.8507653e+90 1.9519532e+89 -6.0657087e+89)
(-4.9306154e+90 -4.4933995e+88 -2.0682806e+89)
(-5.1009613e+90 1.7359317e+89 -2.0558659e+89)
(-4.5715601e+90 1.1473631e+89 -2.9029948e+89)
(-5.299808e+90 1.6214568e+89 -2.637383e+88)
(-5.3218602e+90 -3.0438659e+88 -1.6482573e+88)
(-4.5647791e+90 1.9821102e+89 -2.9047997e+89)
(-5.5486832e+90 2.0312629e+89 7.7348408e+89)
(-4.5692866e+90 1.5567779e+89 -2.8675194e+89)
(-5.2754027e+90 1.8098088e+89 -4.8425224e+88)
(-5.3048383e+90 -1.42065e+88 -1.6098806e+88)
(-4.5308484e+90 2.4183262e+89 -2.7569222e+89)
(-5.5666666e+90 9.7761232e+88 8.0632309e+89)
(-4.1112184e+90 3.4916606e+89 -7.6656479e+89)
(-4.1676117e+90 1.5223803e+89 -7.251878e+89)
(-5.0179461e+90 -5.9110841e+87 -7.0053094e+89)
(-5.0907966e+90 5.0230802e+88 -6.6812557e+89)
(-4.4201111e+90 -9.9984676e+88 -4.9774976e+89)
(-4.5202693e+90 -2.636633e+88 -1.4326051e+89)
(-4.4375e+90 -5.5051006e+88 -5.2594963e+89)
(-4.5353471e+90 -1.1219791e+89 -1.791302e+89)
(-4.4693607e+90 -9.4085667e+88 -5.1188452e+89)
(-4.9494023e+90 3.1372205e+89 5.0929523e+89)
(-4.7641176e+90 -5.7917101e+87 -1.8201478e+89)
(-4.8862648e+90 1.3960777e+89 -1.5744231e+89)
(-4.3200769e+90 1.7026579e+89 -4.1296454e+89)
(-4.2539699e+90 1.8743837e+89 -4.0924727e+89)
(-4.5476837e+90 -3.0835733e+87 -6.2228758e+89)
(-4.5549381e+90 -3.4728044e+88 -5.9372657e+89)
(-4.6643622e+90 -1.2742789e+88 -2.7739542e+89)
(-4.6763378e+90 -1.0240729e+89 -3.0706448e+89)
(-4.985256e+90 2.4210426e+89 5.0340996e+89)
(-3.512407e+90 4.0163504e+89 -4.6761502e+89)
(-3.5042714e+90 2.6267937e+89 -4.7394657e+89)
(-4.5721799e+90 4.5483722e+87 -6.0283404e+89)
(-4.5873201e+90 -3.5553476e+88 -6.0628407e+89)
(-4.7451971e+90 -7.1527287e+87 -2.5304317e+89)
(-4.7283656e+90 -9.9600605e+88 -2.5722751e+89)
(-4.9218037e+90 -8.7205136e+87 -1.5382021e+89)
(-4.9227948e+90 1.2823705e+89 -1.6553616e+89)
(-4.3183552e+90 2.2364399e+89 -4.2811201e+89)
(-4.3503194e+90 1.5316899e+89 -4.3254199e+89)
(-4.4929726e+90 5.169918e+89 -1.0877778e+89)
(-4.5689336e+90 1.3064003e+89 -9.3021572e+88)
(-4.800461e+90 4.2378306e+89 5.0191645e+89)
(-3.439021e+90 6.2682354e+89 -4.9010398e+89)
(-3.5130052e+90 4.3890269e+89 -4.4889725e+89)
(-4.2714941e+90 1.8274155e+89 -3.9225128e+89)
(-6.3090973e+90 1.9113713e+89 6.0386132e+89)
(-5.7775368e+90 -2.2300854e+88 3.7730764e+88)
(-5.7736749e+90 -9.6301064e+88 2.9126943e+88)
(-5.4451644e+90 7.5744161e+88 9.8268058e+88)
(-5.3811701e+90 1.9049571e+89 1.0780544e+89)
(-5.5966777e+90 1.747569e+89 1.2370959e+89)
(-5.5692639e+90 2.2772372e+89 1.373303e+89)
(-5.9212597e+90 8.0026983e+88 1.1893784e+89)
(-5.0239795e+90 3.0681786e+89 1.5118821e+89)
(-5.2313295e+90 2.9983945e+89 1.4768051e+89)
(-4.9083514e+90 4.394138e+89 1.4119906e+89)
(-5.1388726e+90 3.645463e+89 1.2943615e+89)
(-5.3440219e+90 4.1388385e+89 5.6001807e+88)
(-5.4022958e+90 3.5706176e+89 6.3746639e+88)
(-4.3125974e+90 5.0577451e+89 1.4056455e+89)
(-4.9375391e+90 4.2292345e+89 8.236345e+88)
(-5.2475934e+90 3.8719912e+89 5.9316945e+88)
(-4.2560331e+90 5.9017905e+89 1.3858081e+89)
(-4.4776254e+90 4.9598722e+89 1.0493411e+89)
(-5.1354612e+90 4.5831986e+89 -1.2385156e+89)
(-5.9305245e+90 1.967103e+89 1.023256e+89)
(-5.8681933e+90 1.1042141e+89 -6.0879909e+89)
(-4.0886075e+90 2.4209318e+89 -7.6312489e+89)
(-5.4824966e+90 9.4273799e+88 7.2639104e+89)
(-5.5508264e+90 -1.3980177e+88 7.8558149e+89)
(-4.1631691e+90 4.4722324e+88 -7.2352279e+89)
(-4.4888687e+90 4.4508896e+88 -2.5254971e+89)
(-4.4481618e+90 1.3512645e+89 -2.5067146e+89)
(-4.5995876e+90 8.3667089e+88 -2.9894442e+89)
(-5.3126259e+90 1.3527896e+89 -4.5928473e+88)
(-5.3199499e+90 -5.8532011e+88 -1.0930332e+88)
(-4.5534965e+90 1.7761119e+89 -2.8014957e+89)
(-4.4448368e+90 -5.7484786e+88 -5.2476467e+89)
(-4.3447807e+90 1.4828584e+89 -4.4378086e+89)
(-4.3228959e+90 1.2245165e+89 -4.3885809e+89)
(-4.8958065e+90 1.1413995e+89 -1.8861221e+89)
(-4.9158031e+90 -3.7760859e+88 -1.8721368e+89)
(-4.955863e+90 2.2151101e+89 5.0128104e+89)
(-4.5330831e+90 -3.5063735e+88 -6.3132676e+89)
(-4.5372846e+90 -8.671622e+87 -6.3559974e+89)
(-4.6604221e+90 -1.529898e+88 -3.0249305e+89)
(-4.6704661e+90 -1.0821742e+89 -3.1775643e+89)
(-4.6026993e+90 -5.3840744e+88 -6.1334065e+89)
(-4.7565099e+90 -2.3016094e+88 -2.6394705e+89)
(-4.5402507e+90 1.5755736e+88 -6.4740848e+89)
(-4.7042975e+90 -9.8458278e+88 -3.0193534e+89)
(-4.9310742e+90 9.5824968e+88 -1.7428412e+89)
(-4.3444852e+90 1.1988855e+89 -4.4484859e+89)
(-5.0101769e+90 1.4112513e+89 4.9868638e+89)
(-4.3343008e+90 1.7498381e+89 -4.3982817e+89)
(-4.9068965e+90 -2.3210991e+88 -1.8856386e+89)
(-3.5492864e+90 1.5369249e+89 -4.7067965e+89)
(-3.5434827e+90 2.9805738e+89 -4.6298025e+89)
(-4.9476424e+90 3.2324297e+89 4.8721437e+89)
(-4.9308617e+90 -2.697783e+88 -1.778251e+89)
(-4.9259286e+90 1.0762596e+89 -1.7576906e+89)
(-4.3525364e+90 1.1576761e+89 -4.4187994e+89)
(-4.3382577e+90 1.6190646e+89 -4.5148328e+89)
(-4.5909997e+90 -4.442411e+87 -6.1676295e+89)
(-4.5994423e+90 -3.314571e+88 -6.0820737e+89)
(-4.6963404e+90 -1.0569981e+88 -2.9692739e+89)
(-4.7018943e+90 -1.0117792e+89 -3.0700982e+89)
(-4.5820928e+90 3.4205119e+87 -6.1306483e+89)
(-4.5989518e+90 -4.1841397e+88 -6.0412539e+89)
(-4.7556463e+90 -1.676221e+88 -2.5057492e+89)
(-4.7417578e+90 -1.104255e+89 -2.528479e+89)
(-4.9330477e+90 2.4225837e+89 5.3074832e+89)
(-4.9072028e+90 -4.6147513e+87 -1.8014612e+89)
(-4.9130638e+90 1.1116274e+89 -1.8126934e+89)
(-4.3319612e+90 1.395462e+89 -4.4050555e+89)
(-4.2869237e+90 1.9730682e+89 -4.4424386e+89)
(-3.5528532e+90 3.6995783e+89 -4.5915617e+89)
(-3.4955447e+90 5.3110511e+89 -4.9644876e+89)
(-4.5086571e+90 4.1599545e+89 -1.153613e+89)
(-4.5685826e+90 5.9034795e+88 -1.0587551e+89)
(-4.4487925e+90 -9.4730244e+88 -5.0990513e+89)
(-4.4537892e+90 -5.5732898e+88 -5.2058608e+89)
(-4.5307612e+90 -1.2412377e+89 -1.9457654e+89)
(-4.4675737e+90 -6.8044024e+88 -4.9552767e+89)
(-4.4845819e+90 -1.0173745e+89 -4.9543849e+89)
(-4.5542038e+90 -4.0245628e+88 -1.8108996e+89)
(-4.5388058e+90 -1.2476585e+89 -1.8218654e+89)
(-3.8230624e+90 -9.4822348e+88 -3.5911141e+89)
(-3.8873601e+90 -5.2482203e+88 -1.9998525e+89)
(-3.8803837e+90 -1.0903497e+89 -2.0504002e+89)
(-3.8157044e+90 -8.618348e+88 -3.6355356e+89)
(-3.7843992e+90 -3.2900676e+88 -1.817091e+89)
(-3.7153359e+90 -7.3435165e+88 -3.1260908e+89)
(-3.7037986e+90 -6.239111e+88 -2.6885336e+89)
(-3.7781467e+90 -8.858417e+88 -1.7154874e+89)
(-3.8543322e+90 -1.0632242e+89 -3.9533665e+89)
(-3.9150028e+90 -6.0672866e+88 -2.3496708e+89)
(-3.9483513e+90 -9.2920972e+88 -1.9892637e+89)
(-3.8885427e+90 -6.7986516e+88 -3.8550769e+89)
(-3.7873999e+90 -4.7339303e+88 -2.9966445e+89)
(-3.7420293e+90 -8.4299185e+88 -3.4552093e+89)
(-3.8066797e+90 -3.0895738e+88 -2.1475215e+89)
(-3.8348353e+90 -6.1949488e+88 -2.0322879e+89)
(-3.8826964e+90 -7.1636475e+88 -3.6919759e+89)
(-3.8743272e+90 -8.7158049e+88 -3.7496591e+89)
(-3.9324009e+90 -4.549487e+88 -2.1376244e+89)
(-3.9422623e+90 -1.0020338e+89 -1.893084e+89)
(-3.7564344e+90 -7.2282674e+88 -3.3085985e+89)
(-4.6388435e+90 2.9021639e+89 2.2707588e+89)
(-3.3899636e+90 3.1948418e+89 -4.8612092e+89)
(-3.3697243e+90 2.1424048e+89 -5.0915907e+89)
(-4.6693904e+90 2.1040708e+89 1.9701728e+89)
(-4.2177177e+90 -1.5772214e+88 -6.1173613e+89)
(-4.1922158e+90 -7.7469811e+88 -6.263654e+89)
(-4.3628804e+90 -7.5884637e+88 -3.9026779e+89)
(-4.3812927e+90 -1.0200824e+89 -3.8980555e+89)
(-4.1879627e+90 -4.1739705e+88 -5.9592887e+89)
(-4.215806e+90 -2.0497053e+88 -5.7277482e+89)
(-4.345407e+90 -3.8646715e+88 -3.4285557e+89)
(-4.3270107e+90 -1.1974717e+89 -3.73046e+89)
(-4.513712e+90 1.091948e+89 -3.4688988e+89)
(-4.1081184e+90 1.3172415e+89 -6.6517686e+89)
(-4.1158189e+90 1.357067e+89 -6.6726353e+89)
(-4.5005428e+90 -1.394151e+88 -3.6656422e+89)
(-4.1055031e+90 1.3855899e+89 -6.6241763e+89)
(-4.0813185e+90 9.5803271e+88 -6.7192871e+89)
(-4.4088956e+90 5.3902815e+88 -3.9254244e+89)
(-4.4356221e+90 -5.5821439e+87 -3.7816989e+89)
(-4.1648812e+90 -9.2924791e+88 -5.1451149e+89)
(-4.1409908e+90 -1.3643728e+89 -5.2172223e+89)
(-4.2047933e+90 -1.016994e+89 -3.4351145e+89)
(-4.2278295e+90 -1.255881e+89 -3.484614e+89)
(-4.0934271e+90 -1.0327442e+89 -4.9343441e+89)
(-4.100747e+90 -1.0510785e+89 -4.8107079e+89)
(-4.1657525e+90 -8.2263099e+88 -3.0705006e+89)
(-4.1607712e+90 -1.4157665e+89 -3.2216536e+89)
(-3.9453425e+90 -1.1808705e+89 -4.0817713e+89)
(-3.9385014e+90 -1.0328725e+89 -4.1596042e+89)
(-4.002492e+90 -1.321729e+89 -2.7730064e+89)
(-4.0090052e+90 -7.5535175e+88 -2.6593131e+89)
(-4.0699346e+90 -1.0467851e+89 -3.0916529e+89)
(-3.9830246e+90 -1.342091e+89 -4.4614489e+89)
(-4.0153173e+90 -8.8886591e+88 -4.4340961e+89)
(-4.043191e+90 -7.9445085e+88 -3.0046239e+89)
(-4.6524573e+90 3.3492401e+89 1.7499973e+89)
(-4.6426249e+90 2.7816697e+89 2.0469312e+89)
(-3.3860325e+90 3.897787e+89 -5.0606949e+89)
(-3.3594484e+90 5.2188506e+89 -5.2169137e+89)
(-4.1102051e+90 4.6613019e+89 -6.7484881e+88)
(-4.082729e+90 1.8708429e+89 -6.9100974e+88)
(-4.156775e+90 -9.6911076e+88 -4.5223385e+89)
(-4.1367947e+90 -1.1744316e+89 -5.0564046e+89)
(-4.2098142e+90 -8.9140844e+88 -2.9523802e+89)
(-4.2382768e+90 -1.4002831e+89 -2.725015e+89)
(-4.1595934e+90 -8.8386543e+88 -5.0587305e+89)
(-4.1471111e+90 -1.1057711e+89 -5.0085096e+89)
(-4.237602e+90 -1.3152217e+89 -3.0192893e+89)
(-4.2259583e+90 -8.0019074e+88 -2.8990803e+89)
(-3.9985427e+90 -1.0952859e+89 -4.1570518e+89)
(-4.0638909e+90 -6.3324459e+88 -2.762005e+89)
(-4.0696981e+90 -1.1495786e+89 -2.9092442e+89)
(-4.0085131e+90 -8.7718535e+88 -4.252778e+89)
(-4.0020812e+90 -9.5276331e+88 -4.1174413e+89)
(-3.9844447e+90 -1.2205925e+89 -4.2338756e+89)
(-4.0445973e+90 -6.8655058e+88 -2.8574607e+89)
(-4.0560423e+90 -1.0925057e+89 -2.8694467e+89)
(-4.3726422e+90 -1.0300215e+89 -3.6739947e+89)
(-4.2367665e+90 -5.7598654e+88 -5.9376314e+89)
(-4.1850287e+90 -2.5772285e+88 -6.0224276e+89)
(-4.371004e+90 -5.8422357e+88 -3.6797078e+89)
(-4.202926e+90 -2.1549821e+88 -6.0525447e+89)
(-4.2484944e+90 -4.8985485e+88 -5.964768e+89)
(-4.3791104e+90 -5.1841044e+88 -3.7008626e+89)
(-4.3887427e+90 -1.0767458e+89 -3.783958e+89)
(-4.0727463e+90 1.7126387e+89 -6.6163095e+89)
(-4.1536607e+90 9.6147866e+88 -6.6019916e+89)
(-4.5528016e+90 5.4028286e+88 -3.4831554e+89)
(-4.4250985e+90 -1.7065075e+88 -3.6427432e+89)
(-4.1141822e+90 1.3332558e+89 -6.6275416e+89)
(-4.1681537e+90 8.7288017e+88 -6.673485e+89)
(-4.5622953e+90 6.6924641e+88 -3.5770173e+89)
(-4.4416491e+90 -1.9617099e+88 -3.7386166e+89)
(-4.5079095e+90 5.5005966e+89 -1.1819519e+89)
(-4.602889e+90 1.2343191e+89 -1.3158674e+89)
(-4.0296242e+90 6.467108e+89 -6.5266486e+88)
(-4.5918387e+90 3.3501064e+89 2.051884e+89)
(-4.6130254e+90 2.4787692e+89 2.0253843e+89)
(-3.3678603e+90 3.1823812e+89 -4.9957357e+89)
(-3.369275e+90 4.582616e+89 -4.981212e+89)
(-4.435516e+90 7.6011993e+88 -3.603773e+89)
(-4.08672e+90 1.126407e+89 -6.6460049e+89)
(-4.1011041e+90 1.3679312e+89 -6.6180104e+89)
(-4.4381931e+90 -1.3624318e+88 -3.6922231e+89)
(-4.11997e+90 1.2013649e+89 -6.6379193e+89)
(-6.3462899e+90 1.1101719e+89 6.0447803e+89)
(-4.3805526e+90 3.2115268e+89 -9.7799078e+88)
(-4.5004305e+90 1.676455e+89 -7.8330683e+88)
(-5.2965162e+90 3.8428295e+89 6.3198335e+89)
(-5.2220964e+90 -6.7580761e+87 6.4001198e+89)
(-4.2435725e+90 6.4500691e+89 -9.8129415e+87)
(-4.2162454e+90 5.7401063e+89 2.79136e+89)
(-4.2827415e+90 1.5675154e+89 2.9871262e+89)
(-4.3327321e+90 9.2915825e+88 -1.4927112e+88)
(-4.8633516e+90 3.7479946e+89 -3.3605058e+89)
(-5.4307954e+90 -1.4424793e+89 9.558213e+88)
(-5.4370302e+90 -6.3206009e+88 9.5381407e+88)
(-5.5981638e+90 3.5968387e+88 1.3855613e+89)
(-5.5799695e+90 -3.7168663e+86 1.3485539e+89)
(-5.9139103e+90 -5.3616953e+88 1.2986878e+89)
(-5.9177874e+90 -7.6721012e+88 1.2240072e+89)
(-5.0695975e+90 3.6776324e+88 1.5787116e+89)
(-5.2765525e+90 1.1331781e+89 1.445905e+89)
(-4.9728043e+90 1.990725e+89 1.6890391e+89)
(-5.192773e+90 1.7642969e+89 1.4148038e+89)
(-5.396359e+90 2.1182649e+89 6.6734543e+88)
(-5.3591021e+90 2.7246363e+89 6.9639594e+88)
(-5.7562209e+90 1.4107415e+89 7.3280958e+88)
(-5.2492241e+90 9.0276966e+88 6.2707423e+89)
(-5.1900091e+90 -3.2102062e+88 6.6946126e+89)
(-5.296135e+90 9.4534548e+88 -6.2496713e+88)
(-4.6857208e+90 2.9538614e+89 1.7538969e+89)
(-4.7860859e+90 2.8713651e+89 1.6116637e+89)
(-5.2084986e+90 2.9090223e+89 6.2684983e+88)
(-4.3030055e+90 4.5193492e+89 1.7439044e+89)
(-4.694419e+90 4.0646513e+89 1.2726412e+89)
(-5.1526018e+90 3.6338356e+89 3.3048548e+88)
(-5.0990619e+90 4.4159341e+89 -1.0222353e+89)
(-5.1430273e+90 3.4252184e+89 -9.3994414e+88)
(-4.3160158e+90 4.7129279e+89 1.1624791e+89)
(-4.150576e+90 4.9072099e+89 1.0993864e+89)
(-4.8065209e+90 3.8549515e+89 2.2684725e+88)
(-5.2050198e+90 3.5852821e+89 -7.732537e+88)
(-4.2636585e+90 5.5910485e+89 1.1162833e+89)
(-3.8671307e+90 5.5964786e+89 1.2388035e+89)
(-5.292711e+90 -7.1616747e+88 6.1093231e+88)
(-4.8206528e+90 1.2346313e+89 6.4658618e+89)
(-5.9439689e+90 1.1380216e+89 9.905653e+88)
(-4.7480506e+90 5.5310382e+89 6.3886509e+89)
(-5.8715901e+90 3.469616e+88 -6.1426537e+89)
(-4.128661e+90 -3.4350532e+88 -7.1303805e+89)
(-5.4709212e+90 -6.2555294e+88 7.4167597e+89)
(-4.4741275e+90 1.3404684e+89 -2.2658217e+89)
(-4.4703323e+90 3.1273333e+89 -1.1180989e+89)
(-4.8321655e+90 1.3255849e+89 4.8702928e+89)
(-3.5301256e+90 1.895525e+89 -4.4110008e+89)
(-3.5470412e+90 4.0251047e+88 -4.4782696e+89)
(-4.8755745e+90 4.7231631e+88 4.8463998e+89)
(-4.9461161e+90 2.1400941e+89 4.6625483e+89)
(-4.9370788e+90 1.5038389e+89 5.1794586e+89)
(-3.5863825e+90 2.6253051e+89 -4.4998161e+89)
(-3.518841e+90 4.1099439e+89 -4.8808453e+89)
(-4.5491703e+90 -4.0886146e+88 -1.0947783e+89)
(-4.7976142e+90 6.9372978e+88 -2.0638127e+89)
(-4.2748073e+90 5.8554368e+88 -4.2723664e+89)
(-4.3095434e+90 9.6865868e+88 -4.2785113e+89)
(-4.8201303e+90 -5.6498571e+88 -2.2671902e+89)
(-4.3163045e+90 1.3009923e+89 -4.2651408e+89)
(-4.3296379e+90 6.971578e+88 -4.3273721e+89)
(-4.8314314e+90 6.1674563e+88 -2.2873576e+89)
(-4.8261186e+90 -4.943758e+88 -2.1644844e+89)
(-4.9635154e+90 8.7856732e+88 -1.8725516e+89)
(-4.3742209e+90 6.6713856e+88 -4.5654945e+89)
(-4.3654359e+90 1.2004487e+89 -4.5851963e+89)
(-4.9460313e+90 -4.5831377e+88 -1.9952089e+89)
(-4.6262881e+90 -3.2732949e+88 -6.2394811e+89)
(-4.5693758e+90 5.646011e+86 -6.5058069e+89)
(-4.7404015e+90 -2.2908168e+88 -2.8008178e+89)
(-4.5817246e+90 -4.4133969e+88 -6.3154023e+89)
(-4.564547e+90 6.0525207e+87 -6.3124785e+89)
(-4.718701e+90 -1.0905869e+89 -2.8898199e+89)
(-4.3457424e+90 9.7711933e+88 -4.4969281e+89)
(-4.316674e+90 1.5514849e+89 -4.4818136e+89)
(-4.9299591e+90 8.5443073e+88 -1.9702719e+89)
(-4.9239589e+90 -2.7602567e+88 -1.9399384e+89)
(-3.8800127e+90 -8.0552095e+88 -3.8523327e+89)
(-3.8643455e+90 -1.0768258e+89 -3.8473523e+89)
(-3.934248e+90 -1.0913183e+89 -2.241133e+89)
(-4.7036432e+90 1.4843835e+89 1.8859713e+89)
(-4.1171203e+90 1.1989836e+89 -6.6919503e+89)
(-4.1700042e+90 7.4799785e+88 -6.8102941e+89)
(-4.5561245e+90 4.1065522e+88 -3.7533013e+89)
(-4.4470112e+90 -2.9652383e+88 -3.8241802e+89)
(-4.6473516e+90 2.1773596e+89 2.0565431e+89)
(-4.0862113e+90 1.0078299e+89 -6.8183447e+89)
(-4.1290591e+90 1.1097836e+89 -6.8134021e+89)
(-4.5203633e+90 9.4019005e+88 -3.722616e+89)
(-4.4025268e+90 -1.3365011e+88 -4.028903e+89)
(-4.1665816e+90 -1.9828996e+88 -6.1920114e+89)
(-4.2105594e+90 -1.9381748e+88 -6.0406927e+89)
(-4.3322002e+90 -2.2843633e+88 -3.9402117e+89)
(-4.314971e+90 -9.3530217e+88 -4.1112635e+89)
(-4.3526282e+90 -5.8791296e+88 -4.035959e+89)
(-4.2373921e+90 -6.9930963e+88 -6.1074219e+89)
(-4.2080931e+90 -3.1344771e+88 -6.0720386e+89)
(-4.34683e+90 -8.9531766e+88 -4.1170095e+89)
(-3.4141831e+90 2.3864615e+89 -4.8422016e+89)
(-3.4015924e+90 1.3753192e+89 -5.0474703e+89)
(-4.173251e+90 -6.5701312e+88 -3.2226046e+89)
(-4.1023654e+90 -8.4119912e+88 -5.073719e+89)
(-4.0960139e+90 -7.9951718e+88 -5.1871064e+89)
(-4.1647029e+90 -1.2331958e+89 -3.4025466e+89)
(-4.1380282e+90 -7.6308638e+88 -5.205917e+89)
(-4.1262652e+90 -1.1904481e+89 -5.0365319e+89)
(-4.185046e+90 -8.5917787e+88 -3.3281859e+89)
(-4.2034605e+90 -1.1256427e+89 -3.5039951e+89)
(-3.9414784e+90 -9.2160341e+88 -4.3543116e+89)
(-3.9537538e+90 -1.0873565e+89 -4.1029182e+89)
(-4.0175849e+90 -7.4112388e+88 -2.7231114e+89)
(-4.0045059e+90 -1.2726654e+89 -2.9187452e+89)
(-4.0186866e+90 -7.6562356e+88 -2.9536957e+89)
(-3.9587561e+90 -1.2621413e+89 -4.4045428e+89)
(-3.9910232e+90 -7.9773789e+88 -4.4592204e+89)
(-4.0426981e+90 -1.01978e+89 -3.1055539e+89)
(-4.2455158e+90 -8.0518136e+88 -2.6958725e+89)
(-4.1837739e+90 -1.1086194e+89 -4.5707552e+89)
(-4.2640293e+90 -1.4401921e+89 -2.7421902e+89)
(-4.188304e+90 -1.0214196e+89 -4.5603689e+89)
(-4.059341e+90 -7.0388718e+88 -2.6046934e+89)
(-4.0065402e+90 -1.11301e+89 -3.7260975e+89)
(-4.0264126e+90 -1.0398744e+89 -3.7526471e+89)
(-4.0746465e+90 -1.3049787e+89 -2.6981809e+89)
(-4.1521013e+90 -7.8295512e+88 -5.191517e+89)
(-4.1550347e+90 -1.1996468e+89 -5.1591081e+89)
(-4.2173171e+90 -9.6316513e+88 -3.2047613e+89)
(-4.2269179e+90 -1.2753593e+89 -3.2973659e+89)
(-4.01136e+90 -9.6869301e+88 -4.3294147e+89)
(-3.9973189e+90 -1.3191063e+89 -4.3251111e+89)
(-4.0500325e+90 -8.1368252e+88 -2.9327491e+89)
(-4.0637897e+90 -1.1783714e+89 -2.9953393e+89)
(-4.4227475e+90 -5.6259249e+88 -3.4716406e+89)
(-4.290955e+90 -5.6138654e+88 -5.8562073e+89)
(-4.4017222e+90 -1.0351804e+89 -3.7749741e+89)
(-4.2134243e+90 -1.0416346e+88 -6.09314e+89)
(-4.6720443e+90 2.7298923e+89 1.6412172e+89)
(-4.4639947e+90 4.8692152e+88 -3.7786731e+89)
(-4.1307968e+90 7.3398629e+88 -6.7368172e+89)
(-4.141604e+90 1.1008691e+89 -6.6535349e+89)
(-4.4585255e+90 -2.1658772e+88 -3.8134291e+89)
(-4.6678683e+90 1.9724563e+89 1.955015e+89)
(-3.3963409e+90 4.3751542e+89 -5.1940882e+89)
(-3.4314305e+90 2.9946882e+89 -5.029686e+89)
(-4.5846849e+90 4.4083551e+88 -3.5516237e+89)
(-4.1772765e+90 7.4284718e+88 -6.6996805e+89)
(-4.1068851e+90 1.4673193e+89 -6.5921761e+89)
(-4.4366785e+90 -1.6939993e+88 -3.7249331e+89)
(-4.2083258e+90 -1.3933029e+88 -6.0390177e+89)
(-4.286507e+90 -5.8533266e+88 -5.8321191e+89)
(-4.3771542e+90 -5.5932627e+88 -3.9943485e+89)
(-4.3521793e+90 -8.5940593e+88 -4.1342838e+89)
(-4.1160162e+90 8.7709544e+88 -7.5628784e+88)
(-4.1270602e+90 3.6451265e+89 -7.0822472e+88)
(-4.6773442e+90 2.557917e+89 1.8372455e+89)
(-4.7024835e+90 1.8088525e+89 1.9056478e+89)
(-3.412291e+90 3.7317519e+89 -5.0637138e+89)
(-3.4130425e+90 2.4175618e+89 -5.0681702e+89)
(-4.2066912e+90 -1.0401527e+88 -6.0541703e+89)
(-4.2852289e+90 -6.8834061e+88 -5.8509882e+89)
(-4.4046421e+90 -7.3031349e+88 -3.6379431e+89)
(-4.3922652e+90 -9.9432983e+88 -3.8747287e+89)
(-4.1930849e+90 -2.0600947e+88 -6.0913608e+89)
(-4.2759778e+90 -4.779336e+88 -5.764894e+89)
(-4.397316e+90 -5.1480566e+88 -3.5284252e+89)
(-4.3795717e+90 -1.0456332e+89 -3.8558032e+89)
(-4.5726339e+90 6.639662e+88 -3.5646961e+89)
(-4.1689631e+90 9.244746e+88 -6.7394713e+89)
(-4.121508e+90 1.1887845e+89 -6.6941124e+89)
(-4.4365058e+90 -2.2219996e+88 -3.8399714e+89)
(-4.5868568e+90 4.1633627e+88 -3.5843208e+89)
(-4.1802985e+90 8.2643094e+88 -6.7442251e+89)
(-4.1191815e+90 1.5300002e+89 -6.6347911e+89)
(-4.4433281e+90 -1.2763413e+88 -3.7268967e+89)
(-4.17208e+90 -8.6963646e+88 -5.0569098e+89)
(-4.1645888e+90 -1.2755603e+89 -4.9977194e+89)
(-4.2208016e+90 -9.5680001e+88 -3.3150692e+89)
(-4.2364483e+90 -1.2507669e+89 -3.4242163e+89)
(-4.1550101e+90 -8.7613443e+88 -5.0431926e+89)
(-4.1544591e+90 -1.0178497e+89 -4.8957002e+89)
(-4.2141241e+90 -7.6823396e+88 -3.1863973e+89)
(-4.2195024e+90 -1.3059259e+89 -3.3484185e+89)
(-3.998559e+90 -9.5204606e+88 -4.3123515e+89)
(-3.9947479e+90 -1.1237853e+89 -4.2101678e+89)
(-4.050276e+90 -7.2062761e+88 -2.7887675e+89)
(-4.0535455e+90 -1.276959e+89 -2.9180628e+89)
(-4.0514873e+90 -7.8944752e+88 -2.9416587e+89)
(-3.9976018e+90 -1.2933447e+89 -4.351556e+89)
(-4.0193194e+90 -9.0661709e+88 -4.3873301e+89)
(-4.0698747e+90 -1.1172322e+89 -3.0597434e+89)
(-4.1490588e+90 -8.4183778e+88 -5.0356105e+89)
(-4.1485822e+90 -1.180726e+89 -4.9358371e+89)
(-4.2181081e+90 -9.9811811e+88 -2.9269744e+89)
(-4.2299098e+90 -1.3776063e+89 -2.9972378e+89)
(-4.1606058e+90 -8.3122727e+88 -5.0253171e+89)
(-4.1660068e+90 -1.0651666e+89 -4.8529282e+89)
(-4.2373262e+90 -8.5762263e+88 -2.8783696e+89)
(-4.2420844e+90 -1.3803119e+89 -2.9902148e+89)
(-4.0714238e+90 -7.4024106e+88 -2.6890353e+89)
(-4.0095327e+90 -1.1322713e+89 -4.0567088e+89)
(-4.0144153e+90 -1.0054566e+89 -4.1566059e+89)
(-4.076948e+90 -1.3209942e+89 -2.8282702e+89)
(-4.0535362e+90 -8.5428537e+88 -2.7477103e+89)
(-3.9909009e+90 -1.3402373e+89 -4.1116422e+89)
(-4.0064447e+90 -1.0760699e+89 -4.1306225e+89)
(-4.0676413e+90 -1.2691035e+89 -2.8296565e+89)
(-4.6480436e+90 3.180203e+89 1.8427839e+89)
(-4.6081095e+90 2.6607773e+89 2.2498929e+89)
(-3.3265835e+90 5.4794404e+89 -5.2066787e+89)
(-3.3603113e+90 4.3519313e+89 -4.8212687e+89)
(-4.1760255e+90 3.6042522e+87 -6.1294271e+89)
(-4.2606655e+90 -4.7254877e+88 -5.7947572e+89)
(-4.3883843e+90 -5.7085784e+88 -3.5748464e+89)
(-4.3700464e+90 -8.6392215e+88 -3.8754721e+89)
(-4.1864227e+90 -1.1481951e+87 -6.13516e+89)
(-4.279587e+90 -4.0255829e+88 -5.7161448e+89)
(-4.4019742e+90 -5.3626386e+88 -3.5176182e+89)
(-4.3827373e+90 -9.5780643e+88 -3.8612483e+89)
(-4.5805347e+90 6.8611776e+88 -3.4773693e+89)
(-4.1656671e+90 9.044895e+88 -6.6847737e+89)
(-4.1014214e+90 1.5022449e+89 -6.7305409e+89)
(-4.4289703e+90 -1.0986338e+88 -3.7792374e+89)
(-4.5611723e+90 6.2715812e+88 -3.5050255e+89)
(-4.1313645e+90 9.6696043e+88 -6.7529438e+89)
(-4.0506831e+90 1.8478645e+89 -6.7270403e+89)
(-4.3985303e+90 1.3189054e+88 -3.8021741e+89)
(-4.1523446e+90 2.7045614e+89 -6.0878771e+88)
(-4.0780309e+90 5.59551e+89 -7.7143872e+88)
(-4.52209e+90 4.4903439e+89 -1.2268085e+89)
(-4.5908622e+90 4.5313405e+88 -1.3138898e+89)
(-3.9164125e+90 -5.7556845e+88 -2.2664347e+89)
(-3.8627031e+90 -9.3563685e+88 -3.7096105e+89)
(-3.8658427e+90 -8.5411172e+88 -3.7819413e+89)
(-3.9200773e+90 -1.1271335e+89 -2.3503519e+89)
(-3.884001e+90 -7.9274281e+88 -3.9048892e+89)
(-3.861835e+90 -1.0902484e+89 -3.7719297e+89)
(-3.9162964e+90 -6.5866238e+88 -2.3846937e+89)
(-3.9366718e+90 -1.0258965e+89 -2.4902513e+89)
(-3.7625065e+90 -6.2031358e+88 -3.4738163e+89)
(-3.7386467e+90 -9.4658593e+88 -3.4451192e+89)
(-3.8845393e+90 -8.9221182e+88 -3.6902102e+89)
(-3.869064e+90 -1.1346877e+89 -3.5166015e+89)
(-3.9423945e+90 -1.0800652e+89 -2.2929635e+89)
(-3.9260296e+90 -6.7738169e+88 -2.1859547e+89)
(-3.8899963e+90 -9.1634181e+88 -3.7184739e+89)
(-3.8825649e+90 -9.9557102e+88 -3.4845851e+89)
(-3.9450495e+90 -1.1716989e+89 -2.2945978e+89)
(-3.9391264e+90 -6.0134119e+88 -2.1428559e+89)
(-3.7628005e+90 -8.5364064e+88 -3.2319326e+89)
(-3.7695516e+90 -6.9910488e+88 -3.317228e+89)
(-3.8279516e+90 -1.0169435e+89 -2.041861e+89)
(-3.8160974e+90 -4.1203718e+88 -1.9725168e+89)
(-3.7553138e+90 -9.3112591e+88 -3.2407055e+89)
(-3.7766134e+90 -6.1884853e+88 -3.2793397e+89)
(-3.8312572e+90 -7.9687549e+88 -2.0565337e+89)
(-3.1662375e+90 -8.531594e+88 -1.068054e+89)
(-3.0824299e+90 -7.0216327e+88 -9.5445465e+88)
(-3.0528881e+90 -7.742937e+88 -1.1512964e+89)
(-3.1366803e+90 -9.2726583e+88 -1.2971625e+89)
(-2.9566102e+90 -4.6987166e+88 -9.5732097e+88)
(-3.0148583e+90 -5.485507e+88 -9.5873147e+88)
(-2.9897819e+90 -6.5732804e+88 -7.4362387e+88)
(-2.9412296e+90 -5.1009754e+88 -9.7074969e+88)
(-3.2212401e+90 -7.8848779e+88 -1.3934678e+89)
(-3.1372242e+90 -6.2081427e+88 -1.2814531e+89)
(-3.1952964e+90 -5.7780236e+88 -8.3890239e+88)
(-3.2801355e+90 -7.0812655e+88 -1.2845716e+89)
(-3.1430664e+90 -4.5859841e+88 -8.2861689e+88)
(-3.0733047e+90 -5.0046803e+88 -1.2490332e+89)
(-3.0148611e+90 -3.791755e+88 -1.2132366e+89)
(-3.069436e+90 -3.4215479e+88 -1.0081529e+89)
(-3.2820896e+90 -6.9673785e+88 -1.3443112e+89)
(-3.2666824e+90 -5.9881333e+88 -1.3242792e+89)
(-3.1811164e+90 -4.9679153e+88 -1.2257656e+89)
(-3.1107709e+90 -4.0626511e+88 -1.2336814e+89)
(-4.2213545e+90 2.1649401e+89 -3.1463647e+89)
(-3.4144575e+90 2.3268874e+89 -6.3124055e+89)
(-4.2603037e+90 1.7322981e+89 -3.1916623e+89)
(-3.3946275e+90 1.7355398e+89 -6.5573317e+89)
(-3.9147426e+90 3.8602934e+89 -2.4041111e+89)
(-3.8712259e+90 1.7913476e+89 -2.5267221e+89)
(-3.4300957e+90 2.7290797e+89 -6.5054508e+89)
(-3.4135174e+90 3.7048719e+89 -6.5370949e+89)
(-4.2266829e+90 2.3832224e+89 -3.2649606e+89)
(-4.2328434e+90 1.9392805e+89 -3.2253271e+89)
(-3.9488295e+90 -6.8859978e+88 -3.6518139e+89)
(-3.9097165e+90 -7.937908e+88 -3.7045228e+89)
(-3.7944742e+90 -1.198429e+89 -2.912133e+89)
(-3.8419976e+90 -1.1513434e+89 -2.8727598e+89)
(-3.8634926e+90 -7.2852032e+88 -3.676819e+89)
(-3.9268804e+90 -2.5549609e+88 -3.2860767e+89)
(-3.77046e+90 -8.3157063e+88 -2.4068304e+89)
(-3.7552129e+90 -1.1970182e+89 -2.8902704e+89)
(-4.0223444e+90 5.8154581e+88 -3.7241934e+89)
(-4.0379668e+90 1.298346e+89 -4.210761e+89)
(-4.061463e+90 1.2498882e+89 -4.2967707e+89)
(-4.0312347e+90 1.0505601e+88 -3.9927314e+89)
(-4.0874738e+90 1.2611382e+89 -4.1164264e+89)
(-4.0738151e+90 9.4185345e+88 -4.1796788e+89)
(-4.0466677e+90 -9.9048898e+87 -3.9912572e+89)
(-4.0772742e+90 2.0866891e+87 -3.8645331e+89)
(-3.7226543e+90 -1.2245352e+89 -2.3053612e+89)
(-3.6704493e+90 -1.3275692e+89 -2.3440417e+89)
(-3.5427235e+90 -1.2676966e+89 -1.8666973e+89)
(-3.5991758e+90 -1.1372283e+89 -1.8360407e+89)
(-3.6097619e+90 -1.3130522e+89 -2.3370785e+89)
(-3.6275858e+90 -1.0822557e+89 -2.0171387e+89)
(-3.4898107e+90 -1.1858026e+89 -1.5619997e+89)
(-3.4704223e+90 -1.2983123e+89 -1.8478082e+89)
(-3.3715707e+90 -1.1203953e+89 -1.2774778e+89)
(-3.347133e+90 -1.206499e+89 -1.5370307e+89)
(-3.2362535e+90 -1.0742864e+89 -1.3387535e+89)
(-3.263905e+90 -9.9401316e+88 -1.1046402e+89)
(-3.3810582e+90 -8.541329e+88 -1.36242e+89)
(-3.4277625e+90 -1.127615e+89 -1.572774e+89)
(-3.4870644e+90 -1.0051054e+89 -1.5262224e+89)
(-3.3203468e+90 -9.6218324e+88 -1.4022557e+89)
(-4.2660288e+90 2.1540381e+89 -3.3516536e+89)
(-3.4353156e+90 3.1464829e+89 -6.5368734e+89)
(-3.4278407e+90 2.2630046e+89 -6.6149835e+89)
(-4.2758811e+90 1.7534117e+89 -3.3021177e+89)
(-4.2515983e+90 2.6899649e+89 -3.353953e+89)
(-3.3720207e+90 4.6686845e+89 -6.694079e+89)
(-3.3920134e+90 3.9282044e+89 -6.4624435e+89)
(-4.2086135e+90 2.4703385e+89 -3.2201195e+89)
(-3.8909747e+90 3.1170629e+89 -2.4756156e+89)
(-3.8602157e+90 5.6147249e+89 -2.5441419e+89)
(-3.996533e+90 4.9318804e+89 -4.4321105e+88)
(-3.9765373e+90 1.5949831e+89 -4.740954e+88)
(-3.7282237e+90 -1.1918064e+89 -1.7452308e+89)
(-3.7117811e+90 -1.0477075e+89 -2.2173909e+89)
(-3.5878719e+90 -1.0614724e+89 -1.5781148e+89)
(-3.6174222e+90 -1.2026378e+89 -1.2205556e+89)
(-3.7310848e+90 -1.1065935e+89 -2.310651e+89)
(-3.716842e+90 -1.117104e+89 -2.1574337e+89)
(-3.6171947e+90 -1.04387e+89 -1.6538214e+89)
(-3.592407e+90 -1.0309e+89 -1.5105679e+89)
(-3.4786717e+90 -8.8232076e+88 -1.3702508e+89)
(-3.3693508e+90 -7.32203e+88 -1.2834653e+89)
(-3.3875637e+90 -7.9191529e+88 -1.4258508e+89)
(-3.5006225e+90 -9.1288814e+88 -1.5199873e+89)
(-3.491744e+90 -1.0489346e+89 -1.2677178e+89)
(-3.474051e+90 -9.5510485e+88 -1.4672633e+89)
(-3.362042e+90 -8.4804539e+88 -1.3772899e+89)
(-3.3766523e+90 -9.0690123e+88 -1.2477156e+89)
(-3.8291787e+90 -9.9995153e+88 -2.7160213e+89)
(-3.9508024e+90 -6.3745162e+88 -3.2946243e+89)
(-3.9377604e+90 -5.740134e+88 -3.5155839e+89)
(-3.8531901e+90 -9.9438096e+88 -2.6309934e+89)
(-3.9580286e+90 -6.935808e+88 -3.5289453e+89)
(-3.9505745e+90 -7.1342552e+88 -3.4074598e+89)
(-3.8530883e+90 -1.0472989e+89 -2.6841865e+89)
(-3.851436e+90 -1.0709102e+89 -2.7977533e+89)
(-4.0586725e+90 1.536369e+89 -4.0090887e+89)
(-4.1146871e+90 1.0011902e+89 -4.0411342e+89)
(-4.1058612e+90 -8.0856906e+87 -3.5254653e+89)
(-4.0605735e+90 9.08252e+87 -3.7148799e+89)
(-4.1086282e+90 1.0562139e+89 -4.046561e+89)
(-4.113688e+90 8.2207624e+88 -4.16361e+89)
(-4.108197e+90 -7.2915222e+87 -3.6040429e+89)
(-4.0861347e+90 -6.6752812e+87 -3.7706158e+89)
(-4.1476061e+90 4.9181621e+89 5.1134949e+89)
(-4.1425982e+90 1.4362125e+89 5.2648393e+89)
(-4.0773763e+90 7.065031e+89 5.2459956e+89)
(-3.9106429e+90 7.0377107e+89 -3.1712109e+88)
(-3.8725976e+90 4.9881423e+89 -2.4294386e+89)