/*--------------------------------*- C++ -*----------------------------------*\
  =========                 |
  \\      /  F ield         | OpenFOAM: The Open Source CFD Toolbox
   \\    /   O peration     | Website:  https://openfoam.org
    \\  /    A nd           | Version:  7
     \\/     M anipulation  |
\*---------------------------------------------------------------------------*/
FoamFile
{
    version     2.0;
    format      ascii;
    class       volVectorField;
    location    "2000";
    object      UMean;
}
// * * * * * * * * * * * * * * * * * * * * * * * * * * * * * * * * * * * * * //

dimensions      [0 1 -1 0 0 0 0];

internalField   nonuniform List<vector> 
33899
(
(-2.741267e+88 2.9878551e+86 -6.7537811e+86)
(-2.7639929e+88 2.7890916e+86 -7.7756966e+86)
(-2.6131886e+88 4.2939891e+86 -1.5924201e+87)
(-2.7375826e+88 2.5550723e+86 -6.8982158e+86)
(-2.7367592e+88 1.8574811e+86 -7.1107954e+86)
(-2.6287039e+88 3.0833056e+86 -4.0997293e+86)
(-2.5937204e+88 2.6426258e+86 -3.8316828e+86)
(-2.7459381e+88 3.2991261e+86 -4.6945109e+85)
(-2.7955856e+88 2.9409595e+86 -1.213235e+86)
(-2.6179299e+88 4.0037404e+86 -1.6188109e+87)
(-2.611474e+88 1.5238485e+86 -1.6574233e+87)
(-2.4732378e+88 1.8619519e+86 -1.54714e+87)
(-2.3170463e+88 2.5020399e+86 -2.3284727e+87)
(-2.5497116e+88 2.7981289e+86 -1.5176845e+87)
(-2.853154e+88 6.4701096e+86 -1.0831049e+87)
(-2.5881116e+88 6.8560394e+85 -1.4578111e+87)
(-2.3410429e+88 8.5939584e+85 -2.3482841e+87)
(-2.4857875e+88 5.5403283e+86 -2.9879254e+87)
(-2.4834937e+88 4.8740286e+85 -2.9947023e+87)
(-2.8426403e+88 1.0617718e+86 -1.1533658e+87)
(-2.7349645e+88 1.1266143e+86 -7.8361464e+86)
(-2.7262867e+88 1.2860238e+86 -6.9728762e+86)
(-2.5999183e+88 2.7349799e+86 -4.121766e+86)
(-2.5857844e+88 2.8379856e+86 -3.5744007e+86)
(-2.7459179e+88 2.3953994e+86 -4.8959778e+85)
(-2.7460927e+88 2.3489595e+86 -8.1234237e+85)
(-2.420547e+88 3.2657664e+86 1.0188731e+86)
(-2.6878127e+88 3.2277305e+86 4.8210298e+85)
(-2.365765e+88 2.3092986e+86 9.0715394e+85)
(-2.6084315e+88 3.0658994e+86 7.0865223e+85)
(-2.7814369e+88 3.3768094e+86 3.8681763e+86)
(-2.738925e+88 4.0051372e+86 -2.8408792e+87)
(-2.556637e+88 3.1173436e+86 -1.6078388e+87)
(-2.6228291e+88 9.5523321e+85 -1.6425974e+87)
(-2.3247742e+88 2.9672095e+86 -2.3557983e+87)
(-2.5526573e+88 2.9614348e+86 -1.5114439e+87)
(-2.5810086e+88 6.1310907e+85 -1.5070932e+87)
(-2.3352899e+88 4.8274111e+85 -2.4047314e+87)
(-2.8634188e+88 5.2783255e+86 -1.0869317e+87)
(-2.3384277e+88 2.4134626e+86 -2.4637651e+87)
(-2.5649435e+88 2.4626577e+86 -1.6592246e+87)
(-2.5871226e+88 3.4391744e+85 -1.477103e+87)
(-2.3382741e+88 4.002899e+85 -2.41255e+87)
(-2.8706012e+88 7.8905056e+85 -1.1005187e+87)
(-2.4917293e+88 4.7800708e+86 -3.0094774e+87)
(-2.4942305e+88 3.1098663e+85 -3.0181352e+87)
(-2.47979e+88 2.4895487e+86 -1.6913625e+87)
(-2.4927045e+88 5.8844232e+85 -1.5607578e+87)
(-2.234644e+88 8.8160321e+85 -1.2252689e+87)
(-2.2373163e+88 1.1627611e+86 -1.0195654e+87)
(-2.2519465e+88 2.0452026e+86 -1.3462299e+87)
(-2.2534984e+88 1.940348e+86 -1.1121099e+87)
(-2.2630959e+88 8.3679116e+85 -1.4010272e+87)
(-2.5494828e+88 3.4171897e+86 -1.2809587e+87)
(-2.3823161e+88 1.8993654e+86 -1.8244939e+87)
(-2.3865773e+88 1.5529024e+86 -1.4612113e+87)
(-2.2337425e+88 1.0962909e+86 -2.676669e+87)
(-2.2255271e+88 1.2431441e+86 -2.7836833e+87)
(-2.2843723e+88 1.6638449e+86 -1.9852536e+87)
(-2.2749574e+88 8.4623045e+85 -1.7403624e+87)
(-2.2875631e+88 9.3134292e+85 -1.3817061e+87)
(-2.3075839e+88 2.1949445e+86 -1.5037774e+87)
(-2.5640224e+88 2.3168079e+86 -1.3622309e+87)
(-2.2033441e+88 1.6956135e+86 -1.9530381e+87)
(-2.2012343e+88 1.2279407e+86 -1.9624406e+87)
(-2.3014253e+88 1.3283471e+86 -1.839331e+87)
(-2.2986038e+88 8.0350375e+85 -1.8942064e+87)
(-2.3279836e+88 7.1591234e+85 -1.4635307e+87)
(-2.3286623e+88 1.2519777e+86 -1.4121527e+87)
(-2.4165041e+88 1.0314908e+86 -1.5155049e+87)
(-2.4120678e+88 7.971497e+85 -1.6136451e+87)
(-2.2684265e+88 1.1783177e+86 -2.6927178e+87)
(-2.2652101e+88 9.5179321e+84 -2.7635508e+87)
(-2.3589721e+88 1.7723235e+86 -2.9062324e+87)
(-2.3720117e+88 2.9685964e+86 -2.8880687e+87)
(-2.5290261e+88 3.2848705e+86 -1.3784845e+87)
(-2.1887584e+88 2.7668372e+86 -1.8918683e+87)
(-2.1896481e+88 9.4198144e+85 -1.8153268e+87)
(-2.2418646e+88 3.4645314e+85 -2.8535494e+87)
(-2.7567581e+88 4.0448135e+86 2.2816924e+87)
(-2.7212419e+88 5.5517202e+85 -7.4304294e+86)
(-2.7106127e+88 6.5853619e+85 -7.685547e+86)
(-2.5946597e+88 1.4169281e+86 -4.1920516e+86)
(-2.5847642e+88 1.8023886e+86 -3.5324597e+86)
(-2.7324862e+88 1.6729128e+86 -1.4135379e+86)
(-2.7370841e+88 1.7862331e+86 -5.3744355e+85)
(-2.8952978e+88 1.8740549e+86 -2.5269547e+86)
(-2.3901193e+88 2.342815e+86 1.4656449e+85)
(-2.6214087e+88 2.821074e+86 4.0838198e+85)
(-2.3777314e+88 3.0623297e+86 1.3675138e+86)
(-2.6063669e+88 2.3065298e+86 1.0882506e+86)
(-2.7388927e+88 2.1480915e+86 4.1130789e+86)
(-2.7424289e+88 2.6245522e+86 3.491572e+86)
(-2.2939849e+88 2.3889841e+86 3.7154528e+86)
(-2.4828864e+88 3.327794e+86 2.7670635e+86)
(-2.69398e+88 3.3818449e+86 2.7491668e+86)
(-2.2432611e+88 2.3335638e+86 3.5957996e+86)
(-2.3823945e+88 3.1379812e+86 2.937036e+86)
(-2.7148448e+88 3.4258428e+86 4.9839e+86)
(-2.5722367e+88 3.3044825e+86 6.1826132e+86)
(-2.7382035e+88 3.7246867e+86 -2.8396089e+87)
(-2.4865188e+88 3.909036e+86 -2.9828903e+87)
(-2.8346432e+88 3.7323188e+86 -1.16835e+87)
(-2.8683044e+88 -6.6478126e+85 -1.131157e+87)
(-2.4945236e+88 -6.3008965e+85 -2.9934051e+87)
(-2.2929794e+88 2.4924559e+86 -2.376868e+87)
(-2.294285e+88 2.7927642e+85 -2.5019257e+87)
(-2.3576495e+88 2.4999008e+86 -2.4103129e+87)
(-2.5827921e+88 2.5745377e+86 -1.5949166e+87)
(-2.588993e+88 1.8587139e+85 -1.4766761e+87)
(-2.3451746e+88 6.5137497e+85 -2.4240555e+87)
(-2.2541697e+88 2.0701318e+86 -1.3471796e+87)
(-2.2515799e+88 1.5207747e+86 -2.7049042e+87)
(-2.234645e+88 1.4248811e+86 -2.7564668e+87)
(-2.3793093e+88 1.7259249e+86 -1.5863543e+87)
(-2.3958117e+88 2.0197451e+86 -1.5914761e+87)
(-2.5537852e+88 2.9522043e+86 -1.3000414e+87)
(-2.2816812e+88 1.4300426e+86 -1.706969e+87)
(-2.2906897e+88 1.8361326e+86 -1.7845279e+87)
(-2.287783e+88 1.3275616e+86 -1.4302597e+87)
(-2.3028544e+88 2.3882634e+86 -1.4538959e+87)
(-2.3018063e+88 6.2640719e+85 -1.8704976e+87)
(-2.3374104e+88 5.4837534e+85 -1.4116727e+87)
(-2.3006456e+88 1.8162044e+86 -1.8135122e+87)
(-2.3117045e+88 1.8825777e+86 -1.4626808e+87)
(-2.4136133e+88 6.3239915e+85 -1.5838746e+87)
(-2.2536083e+88 6.8304991e+85 -2.8025404e+87)
(-2.5756228e+88 9.9244963e+85 -1.3542119e+87)
(-2.262633e+88 1.3808489e+86 -2.7359824e+87)
(-2.4020018e+88 1.3331687e+86 -1.6663531e+87)
(-2.2114905e+88 3.7676404e+85 -1.9951562e+87)
(-2.2095948e+88 1.2846467e+86 -1.9475877e+87)
(-2.574665e+88 2.6728208e+86 -1.3872986e+87)
(-2.4184353e+88 1.6159462e+86 -1.6262409e+87)
(-2.4119082e+88 9.0937704e+85 -1.6003466e+87)
(-2.264845e+88 4.1637046e+85 -2.8067778e+87)
(-2.2677513e+88 1.5045926e+86 -2.8113885e+87)
(-2.3041211e+88 1.628441e+86 -1.90797e+87)
(-2.3021596e+88 7.0437396e+85 -1.8329048e+87)
(-2.3089508e+88 9.2455784e+85 -1.4999018e+87)
(-2.318346e+88 2.2035858e+86 -1.5205289e+87)
(-2.3009029e+88 1.2504583e+86 -1.7829241e+87)
(-2.3030156e+88 2.1201235e+85 -1.8433975e+87)
(-2.3332697e+88 4.103168e+85 -1.3921665e+87)
(-2.3292773e+88 1.2175988e+86 -1.3412103e+87)
(-2.5651573e+88 1.0549762e+86 -1.3115604e+87)
(-2.4102053e+88 8.3381237e+85 -1.5347946e+87)
(-2.4154333e+88 1.5166502e+85 -1.5711293e+87)
(-2.2610676e+88 6.0777337e+85 -2.7878402e+87)
(-2.2555833e+88 1.230634e+86 -2.7907171e+87)
(-2.2145887e+88 2.0329861e+86 -1.9528387e+87)
(-2.2086599e+88 2.9321486e+86 -2.0091805e+87)
(-2.3635585e+88 1.2784312e+86 -2.9195356e+87)
(-2.3714065e+88 3.7204307e+86 -2.930491e+87)
(-2.2520795e+88 1.3016405e+86 -1.3376429e+87)
(-2.2589554e+88 2.3802521e+86 -1.3728576e+87)
(-2.2533386e+88 2.4141224e+86 -1.1752986e+87)
(-2.2645067e+88 1.3729647e+86 -1.2464056e+87)
(-2.2674848e+88 8.7472419e+85 -1.3007056e+87)
(-2.2637594e+88 1.3064223e+86 -1.0865576e+87)
(-2.2611552e+88 1.3242726e+86 -1.0343949e+87)
(-1.9967723e+88 1.4765948e+86 -1.0842555e+87)
(-1.99527e+88 1.5788091e+86 -1.0596459e+87)
(-2.0013325e+88 1.6910354e+86 -1.0136731e+87)
(-2.0003589e+88 1.7574169e+86 -1.0477662e+87)
(-1.9663609e+88 1.7350378e+86 -9.4738334e+86)
(-1.9567857e+88 1.7509762e+86 -1.0029849e+87)
(-1.9554169e+88 1.6289871e+86 -1.0049162e+87)
(-1.975003e+88 1.528391e+86 -8.7573521e+86)
(-2.0232679e+88 9.8825539e+85 -1.1852208e+87)
(-2.0192024e+88 1.2237238e+86 -1.1412469e+87)
(-2.0296879e+88 1.8560495e+86 -1.0806079e+87)
(-2.0287199e+88 1.943146e+86 -1.1829094e+87)
(-1.9809201e+88 1.6992233e+86 -1.0487556e+87)
(-1.9782085e+88 1.4666757e+86 -1.0844172e+87)
(-1.9854942e+88 1.746087e+86 -1.0136285e+87)
(-1.9926384e+88 1.7188604e+86 -9.5167432e+86)
(-2.0177061e+88 2.3231053e+86 -1.1994085e+87)
(-2.017608e+88 1.4537655e+86 -1.1940827e+87)
(-2.0143645e+88 1.4411127e+86 -1.1564705e+87)
(-2.0215465e+88 2.2008098e+86 -1.1068335e+87)
(-1.972332e+88 1.6098146e+86 -1.108819e+87)
(-2.3757292e+88 2.0716518e+86 -1.6372358e+87)
(-2.0792535e+88 -7.1602272e+85 -1.5783901e+87)
(-2.0923962e+88 1.7974596e+86 -1.5209815e+87)
(-2.3845673e+88 2.4417567e+86 -1.6887955e+87)
(-2.1636152e+88 2.3085798e+86 -1.9201199e+87)
(-2.1526513e+88 -1.1919653e+86 -1.986295e+87)
(-2.1753414e+88 -1.1804613e+86 -1.589584e+87)
(-2.1843523e+88 2.5227242e+86 -1.5471074e+87)
(-2.1079441e+88 1.1921179e+86 -1.7511107e+87)
(-2.0995631e+88 4.9494488e+85 -1.8797974e+87)
(-2.1332601e+88 8.2138633e+85 -1.4208975e+87)
(-2.1349087e+88 1.9222206e+86 -1.3681296e+87)
(-2.1774534e+88 8.5169987e+85 -1.6538948e+87)
(-2.0984907e+88 1.5004607e+85 -2.9355123e+87)
(-2.1102869e+88 1.5107815e+86 -2.875699e+87)
(-2.1746026e+88 1.8652895e+86 -1.7004177e+87)
(-2.1456388e+88 2.0083626e+86 -2.909742e+87)
(-2.1349875e+88 -1.6697655e+86 -3.0103301e+87)
(-2.2149333e+88 -1.5649357e+86 -2.1173433e+87)
(-2.2280302e+88 2.6240487e+86 -2.0222275e+87)
(-2.1413228e+88 2.3289423e+86 -1.4878182e+87)
(-2.1317061e+88 -6.2390394e+85 -1.5257384e+87)
(-2.1199814e+88 -1.6446498e+85 -1.3851266e+87)
(-2.1290371e+88 2.3138362e+86 -1.3548928e+87)
(-2.0916479e+88 1.8254136e+86 -1.3444741e+87)
(-2.0893016e+88 8.3252922e+85 -1.4058767e+87)
(-2.085016e+88 9.5141466e+85 -1.2463277e+87)
(-2.0885742e+88 1.8854392e+86 -1.1984091e+87)
(-2.0371418e+88 1.2267156e+86 -1.1830001e+87)
(-2.0390291e+88 1.8124946e+86 -1.1516678e+87)
(-2.0399699e+88 1.7311253e+86 -1.0825034e+87)
(-2.0345396e+88 1.2817623e+86 -1.134249e+87)
(-2.0723183e+88 2.0277792e+86 -1.2165369e+87)
(-2.0685602e+88 2.7176851e+85 -1.3199009e+87)
(-2.0782247e+88 2.0587964e+86 -1.2909753e+87)
(-2.0643248e+88 7.7394325e+85 -1.2347906e+87)
(-2.4081496e+88 2.8164242e+85 -1.8490639e+87)
(-2.4070771e+88 2.2931779e+86 -1.8086685e+87)
(-2.1171989e+88 3.3115758e+86 -1.6561494e+87)
(-2.1049416e+88 -8.3691422e+85 -1.682771e+87)
(-2.1216539e+88 -2.2347908e+86 -2.920146e+87)
(-2.128305e+88 5.013111e+86 -2.952491e+87)
(-2.1124309e+88 1.5601548e+86 -1.5649634e+87)
(-2.1070453e+88 2.3685722e+85 -1.4887067e+87)
(-2.1027444e+88 4.0603863e+85 -1.3486271e+87)
(-2.116449e+88 1.5389535e+86 -1.3062715e+87)
(-2.1186115e+88 2.7875324e+86 -1.5109042e+87)
(-2.115081e+88 7.0958733e+85 -1.4915018e+87)
(-2.1123291e+88 2.7763054e+86 -1.3873965e+87)
(-2.1076046e+88 1.0023579e+86 -1.3787768e+87)
(-2.0569814e+88 1.1004964e+86 -1.3196073e+87)
(-2.0595827e+88 1.2931883e+86 -1.2220109e+87)
(-2.0635652e+88 2.3301467e+86 -1.2169737e+87)
(-2.0591901e+88 2.5777439e+86 -1.341143e+87)
(-2.0621761e+88 1.6850457e+86 -1.2779635e+87)
(-2.0500256e+88 8.4586247e+85 -1.296238e+87)
(-2.055484e+88 1.1144363e+86 -1.1843256e+87)
(-2.0650437e+88 1.5874662e+86 -1.1708688e+87)
(-2.161172e+88 1.2244919e+86 -1.5071758e+87)
(-2.1292061e+88 -2.9471571e+85 -1.8668009e+87)
(-2.1290665e+88 6.0842055e+85 -1.9763032e+87)
(-2.1524589e+88 -2.1977974e+85 -1.5278208e+87)
(-2.1369832e+88 2.4128131e+86 -1.9844892e+87)
(-2.1419274e+88 5.5382287e+85 -1.8267884e+87)
(-2.1579586e+88 6.5370138e+85 -1.5383309e+87)
(-2.1628826e+88 3.0068242e+86 -1.5650182e+87)
(-2.1408904e+88 3.8385443e+85 -2.9732232e+87)
(-2.1454767e+88 -9.0321547e+85 -2.9162275e+87)
(-2.2010648e+88 -8.3309425e+85 -1.8119758e+87)
(-2.193017e+88 4.0437772e+85 -2.0590117e+87)
(-2.1455602e+88 2.8266466e+86 -2.9262658e+87)
(-2.1575537e+88 -2.3378271e+85 -2.9045412e+87)
(-2.2092012e+88 6.5480892e+85 -1.8120224e+87)
(-2.1999873e+88 2.9333273e+86 -2.0680287e+87)
(-2.1662688e+88 -2.8985132e+85 4.9849209e+86)
(-2.1824471e+88 4.0391314e+86 4.8561016e+86)
(-2.1205562e+88 -1.6399927e+86 -2.8964466e+87)
(-2.3854114e+88 1.2217482e+86 -1.8728045e+87)
(-2.3951885e+88 2.9454984e+86 -1.8859455e+87)
(-2.1011967e+88 3.1101432e+86 -1.5607494e+87)
(-2.1012747e+88 -5.7006424e+85 -1.5666274e+87)
(-2.2290419e+88 -4.0232731e+85 -2.0583084e+87)
(-2.143679e+88 -9.3346067e+85 -3.0476468e+87)
(-2.1492666e+88 2.2938669e+86 -2.9884644e+87)
(-2.2295166e+88 3.0472337e+86 -2.1051175e+87)
(-2.1597877e+88 -9.0618982e+85 -2.9909127e+87)
(-2.7501918e+88 3.8246314e+86 2.2737445e+87)
(-2.159399e+88 4.2676347e+85 9.1029778e+86)
(-2.1886814e+88 2.4907534e+86 9.3118797e+86)
(-2.6492735e+88 6.2758725e+86 2.0010139e+87)
(-2.633493e+88 -8.2459883e+85 1.9354404e+87)
(-2.6928498e+88 8.2297096e+86 2.1588457e+87)
(-2.6047278e+88 5.2027115e+86 1.5866096e+87)
(-2.6118338e+88 1.8721361e+86 1.6037306e+87)
(-2.7013608e+88 -1.5958645e+86 2.1773464e+87)
(-2.5855839e+88 3.3693858e+86 5.6167027e+86)
(-2.567879e+88 7.1809202e+85 -3.9257752e+86)
(-2.5609821e+88 5.145021e+85 -3.5357039e+86)
(-2.7348573e+88 1.2190663e+86 -1.0145334e+86)
(-2.7291021e+88 1.5251656e+86 -1.2360788e+86)
(-2.8874164e+88 -1.8586928e+85 -2.4098097e+86)
(-2.8875016e+88 1.5066479e+86 -2.7708818e+86)
(-2.3623821e+88 2.8391008e+85 1.3670812e+86)
(-2.6198287e+88 1.6479321e+86 1.6276209e+85)
(-2.3426081e+88 1.0410905e+86 1.7469757e+86)
(-2.6052847e+88 1.8513446e+86 8.994849e+85)
(-2.7182452e+88 2.3812748e+86 3.0091029e+86)
(-2.7136962e+88 2.0213159e+86 3.9270894e+86)
(-2.8483483e+88 2.8810076e+86 5.2076607e+86)
(-2.4706058e+88 -1.0712401e+86 9.5685713e+86)
(-2.468291e+88 6.013451e+85 8.7833514e+86)
(-2.5039894e+88 3.7829256e+85 7.3166951e+85)
(-2.3844858e+88 2.92371e+86 2.8378207e+86)
(-2.4088861e+88 2.0278662e+86 2.2698796e+86)
(-2.6417171e+88 2.7910535e+86 2.2990853e+86)
(-2.2750581e+88 1.4976327e+86 3.9355993e+86)
(-2.3897866e+88 2.2489178e+86 3.5809197e+86)
(-2.6378551e+88 1.7379488e+86 3.061759e+86)
(-2.6878801e+88 2.5824971e+86 5.4002053e+86)
(-2.6871527e+88 2.9209491e+86 4.9232748e+86)
(-2.320763e+88 2.9738156e+86 4.1227712e+86)
(-2.3510717e+88 3.6964026e+86 4.5214001e+86)
(-2.4751264e+88 2.9547315e+86 3.3695448e+86)
(-2.6823922e+88 3.5180207e+86 4.143928e+86)
(-2.2739884e+88 3.1494145e+86 4.0881219e+86)
(-2.3020972e+88 4.5170114e+86 4.617493e+86)
(-2.5729234e+88 1.2832916e+86 -3.5509249e+86)
(-2.4290846e+88 2.3860361e+86 1.2440657e+87)
(-2.5732431e+88 3.426174e+86 6.0964227e+86)
(-2.4177798e+88 2.8815296e+86 1.2306634e+87)
(-2.7407935e+88 3.5575298e+86 -2.8354496e+87)
(-2.4875302e+88 -5.1909821e+85 -2.905628e+87)
(-2.8379717e+88 -2.5924012e+85 -1.1766321e+87)
(-2.3057111e+88 -2.5309103e+85 -2.4085678e+87)
(-2.3592378e+88 5.2704631e+85 -2.8674166e+87)
(-2.5181189e+88 1.8135463e+86 -1.3305946e+87)
(-2.1956247e+88 4.6204254e+85 -1.7464195e+87)
(-2.2043125e+88 -3.7724841e+85 -1.8252155e+87)
(-2.5408783e+88 -6.8989405e+84 -1.3908144e+87)
(-2.5743042e+88 1.4106343e+86 -1.4169774e+87)
(-2.5686854e+88 4.0206646e+85 -1.3538173e+87)
(-2.2246016e+88 1.3927971e+86 -1.9409359e+87)
(-2.2153828e+88 1.9115014e+86 -1.9611684e+87)
(-2.3731744e+88 3.0599394e+86 -2.9100952e+87)
(-2.4343701e+88 9.259513e+85 -1.8407358e+87)
(-2.2558952e+88 1.086756e+86 -2.8846156e+87)
(-2.2731296e+88 1.6308607e+86 -2.8101693e+87)
(-2.4316238e+88 1.8792746e+86 -1.8628617e+87)
(-2.2894406e+88 2.2620796e+86 -2.8659339e+87)
(-2.2852224e+88 7.4320405e+85 -2.8717773e+87)
(-2.4489918e+88 3.083502e+85 -2.0492867e+87)
(-2.4544453e+88 2.7362291e+86 -2.0221521e+87)
(-2.4362073e+88 2.0990418e+86 -1.5649843e+87)
(-2.2842343e+88 1.7567183e+86 -2.7939155e+87)
(-2.2875208e+88 2.3799259e+86 -2.8186539e+87)
(-2.4234999e+88 2.0312133e+86 -1.7324694e+87)
(-2.3183623e+88 2.1790637e+86 -1.8551348e+87)
(-2.3168083e+88 2.2287397e+86 -1.8996492e+87)
(-2.3368427e+88 6.9927549e+85 -1.3591133e+87)
(-2.3110386e+88 8.4957455e+85 -1.8014501e+87)
(-2.3084769e+88 1.5901527e+86 -1.7259998e+87)
(-2.3186986e+88 1.6416015e+86 -1.4001284e+87)
(-2.2662711e+88 1.3347079e+86 -2.7881941e+87)
(-2.2668354e+88 1.67242e+86 -2.7943359e+87)
(-2.4131811e+88 4.5481908e+85 -1.6418294e+87)
(-2.4059525e+88 1.0240426e+86 -1.6204892e+87)
(-2.0199816e+88 1.8453906e+86 -1.1355896e+87)
(-2.0147055e+88 1.1522969e+86 -1.1315101e+87)
(-2.0157008e+88 1.8522247e+86 -1.1193906e+87)
(-2.403404e+88 2.614654e+86 -1.6820731e+87)
(-2.1402306e+88 2.0021497e+86 -2.8813963e+87)
(-2.1358018e+88 -5.5332246e+85 -2.9085009e+87)
(-2.1957475e+88 -5.4989969e+85 -1.7663175e+87)
(-2.1969944e+88 2.0985168e+86 -1.9593531e+87)
(-2.3775653e+88 1.8216221e+86 -1.6990142e+87)
(-2.111775e+88 3.0850376e+86 -2.9224847e+87)
(-2.1148673e+88 1.0930908e+86 -2.9317822e+87)
(-2.1791106e+88 1.2682785e+86 -1.6952118e+87)
(-2.171723e+88 3.1797653e+86 -1.9431864e+87)
(-2.1115975e+88 2.5580635e+86 -1.876892e+87)
(-2.1143381e+88 1.1473085e+86 -1.7412209e+87)
(-2.1395111e+88 1.2004449e+86 -1.3961294e+87)
(-2.1408348e+88 3.0744267e+86 -1.4385149e+87)
(-2.1496644e+88 -1.2753445e+85 -1.4792077e+87)
(-2.1243672e+88 -1.2952484e+85 -1.8313583e+87)
(-2.133468e+88 2.0434835e+86 -1.9100419e+87)
(-2.1570297e+88 2.4716265e+86 -1.5185547e+87)
(-2.0844032e+88 -5.9250764e+85 -1.5637725e+87)
(-2.1013361e+88 2.1622554e+86 -1.5321728e+87)
(-2.0944963e+88 1.3517501e+86 -1.2306905e+87)
(-2.0984708e+88 1.2852818e+86 -1.3617828e+87)
(-2.0984724e+88 2.7568478e+86 -1.3890295e+87)
(-2.0952141e+88 2.6833485e+86 -1.2386609e+87)
(-2.1155679e+88 2.5059724e+86 -1.4540457e+87)
(-2.1016349e+88 2.1242186e+85 -1.4368653e+87)
(-2.0993581e+88 4.7449834e+85 -1.2798401e+87)
(-2.1082014e+88 2.6329519e+86 -1.3161027e+87)
(-2.0480497e+88 2.4902514e+86 -1.1719368e+87)
(-2.0479753e+88 1.6226607e+86 -1.1451829e+87)
(-2.0459856e+88 1.7205016e+86 -1.0923104e+87)
(-2.0466053e+88 2.4354432e+86 -1.1054237e+87)
(-2.0496237e+88 1.2770895e+86 -1.1659383e+87)
(-2.0511301e+88 8.5530215e+85 -1.2168782e+87)
(-2.0612135e+88 2.5956893e+86 -1.2428422e+87)
(-2.0560077e+88 2.6292822e+86 -1.1930545e+87)
(-2.1196438e+88 1.2682831e+86 -1.3078287e+87)
(-2.1151573e+88 7.9290326e+85 -1.5463656e+87)
(-2.1233394e+88 2.7047084e+86 -1.2761584e+87)
(-2.1172251e+88 2.7975539e+86 -1.5659609e+87)
(-2.0681653e+88 1.6393692e+86 -1.163304e+87)
(-2.0572457e+88 1.415119e+86 -1.3326372e+87)
(-2.0602076e+88 2.6290646e+86 -1.3123531e+87)
(-2.0713963e+88 2.2816984e+86 -1.1382625e+87)
(-2.1193007e+88 1.8447153e+86 -1.4443218e+87)
(-2.1147549e+88 1.8043522e+84 -1.477195e+87)
(-2.1058083e+88 3.1918165e+85 -1.3197945e+87)
(-2.1100243e+88 1.8672111e+86 -1.3133159e+87)
(-2.0630028e+88 1.8530316e+86 -1.2288693e+87)
(-2.0563659e+88 6.9909289e+85 -1.2439865e+87)
(-2.0563406e+88 1.0264122e+86 -1.1625701e+87)
(-2.0603159e+88 1.8260123e+86 -1.1665012e+87)
(-2.1718056e+88 7.2695636e+85 -1.4847047e+87)
(-2.1397451e+88 2.2949255e+85 -2.0156223e+87)
(-2.1690848e+88 2.9036118e+86 -1.4903455e+87)
(-2.1375004e+88 2.8230351e+86 -1.9827327e+87)
(-2.4104565e+88 4.0621209e+85 -1.8324613e+87)
(-2.2090051e+88 2.2039666e+85 -1.9318312e+87)
(-2.14492e+88 -2.1342586e+85 -2.930608e+87)
(-2.1492199e+88 3.052279e+86 -2.9071188e+87)
(-2.2026054e+88 3.2537588e+86 -2.0431407e+87)
(-2.4106994e+88 1.3514001e+86 -1.7751604e+87)
(-2.1109975e+88 -5.1740233e+85 -1.667415e+87)
(-2.1250269e+88 2.8186757e+86 -1.6636951e+87)
(-2.2212985e+88 -5.9938598e+85 -1.714349e+87)
(-2.1496907e+88 -3.6291504e+85 -2.883052e+87)
(-2.1412366e+88 1.3242029e+86 -2.9384868e+87)
(-2.1957542e+88 1.4349207e+86 -2.0324061e+87)
(-2.1379286e+88 1.5765366e+86 -1.9338958e+87)
(-2.1366527e+88 -1.3026513e+85 -1.9507448e+87)
(-2.1635369e+88 -4.0499966e+85 -1.5211503e+87)
(-2.1595162e+88 1.8821654e+86 -1.5524132e+87)
(-2.1388768e+88 4.6028012e+86 -2.9643671e+87)
(-2.1228225e+88 -2.3288347e+86 -2.9302395e+87)
(-2.4076576e+88 9.5773019e+85 -1.8412575e+87)
(-2.4197767e+88 2.4856088e+86 -1.8348098e+87)
(-2.1127877e+88 -4.943117e+85 -1.6672246e+87)
(-2.1167873e+88 3.2160856e+86 -1.6671756e+87)
(-2.1404985e+88 1.630231e+86 -1.9785016e+87)
(-2.1437522e+88 -8.8282328e+85 -1.9858161e+87)
(-2.171087e+88 -8.137407e+85 -1.5510636e+87)
(-2.1650573e+88 1.7648128e+86 -1.5630675e+87)
(-2.1336675e+88 2.1246873e+86 -1.9876041e+87)
(-2.1404824e+88 2.6414433e+85 -1.9279582e+87)
(-2.1662552e+88 6.3523695e+85 -1.5002612e+87)
(-2.1620899e+88 2.558501e+86 -1.5242417e+87)
(-2.218665e+88 2.2831535e+85 -1.7491212e+87)
(-2.1519069e+88 -1.3519357e+85 -2.9397831e+87)
(-2.1384338e+88 2.5656858e+86 -2.9558836e+87)
(-2.1942651e+88 2.566538e+86 -2.0846379e+87)
(-2.2256962e+88 -1.3393301e+86 -1.7906411e+87)
(-2.1594435e+88 -8.966724e+85 -2.9421856e+87)
(-2.1486048e+88 1.9275367e+86 -2.956063e+87)
(-2.1991391e+88 1.6899237e+86 -2.0925466e+87)
(-2.123361e+88 1.8655893e+86 -1.4868938e+87)
(-2.1218564e+88 -3.5724748e+85 -1.5339356e+87)
(-2.1143917e+88 3.2448775e+84 -1.3773551e+87)
(-2.1160654e+88 1.9579236e+86 -1.3542317e+87)
(-2.1189055e+88 2.3273077e+86 -1.4507307e+87)
(-2.1193467e+88 7.7798534e+85 -1.4729994e+87)
(-2.1119198e+88 9.4980764e+85 -1.3267804e+87)
(-2.1130313e+88 2.2569873e+86 -1.3086952e+87)
(-2.0625959e+88 2.1469864e+86 -1.2512426e+87)
(-2.0621588e+88 1.2460996e+86 -1.2591483e+87)
(-2.056345e+88 1.3957863e+86 -1.2117919e+87)
(-2.0599135e+88 2.0721532e+86 -1.1840085e+87)
(-2.0602984e+88 9.3930698e+85 -1.2392701e+87)
(-2.0616857e+88 4.4637422e+85 -1.3259992e+87)
(-2.0663833e+88 1.9408674e+86 -1.2951323e+87)
(-2.0628164e+88 2.0660417e+86 -1.2323014e+87)
(-2.1139224e+88 1.1505063e+86 -1.3853426e+87)
(-2.112782e+88 -1.0291563e+85 -1.4315193e+87)
(-2.1069719e+88 2.1593335e+85 -1.2612514e+87)
(-2.1095737e+88 1.1606393e+86 -1.2664309e+87)
(-2.1188987e+88 2.3712318e+86 -1.4885339e+87)
(-2.1202739e+88 4.6830787e+85 -1.4898568e+87)
(-2.1120844e+88 8.3285003e+85 -1.3316117e+87)
(-2.1139886e+88 2.3664746e+86 -1.3548121e+87)
(-2.0642654e+88 1.4452098e+86 -1.1716804e+87)
(-2.0596931e+88 1.1814763e+86 -1.2884141e+87)
(-2.0616596e+88 2.3246811e+86 -1.3104391e+87)
(-2.0665629e+88 2.1149107e+86 -1.1803644e+87)
(-2.061283e+88 1.0384875e+86 -1.092888e+87)
(-2.0539383e+88 7.2399193e+85 -1.2208255e+87)
(-2.0595417e+88 1.2895743e+86 -1.2120064e+87)
(-2.0639414e+88 1.2032854e+86 -1.1034811e+87)
(-2.4175204e+88 4.9432628e+85 -1.738643e+87)
(-2.3968878e+88 1.6007033e+86 -1.7268747e+87)
(-2.1013278e+88 7.18762e+85 -1.5989454e+87)
(-2.100534e+88 3.6276968e+86 -1.6154505e+87)
(-2.1239897e+88 9.9704576e+85 -1.8897267e+87)
(-2.1282978e+88 -6.2415889e+85 -1.9036389e+87)
(-2.1603902e+88 -5.9200229e+85 -1.44386e+87)
(-2.1531207e+88 1.1076289e+86 -1.4616805e+87)
(-2.132677e+88 2.0518291e+86 -2.0184209e+87)
(-2.1408302e+88 -1.5463054e+85 -1.9342652e+87)
(-2.1669098e+88 1.3605412e+85 -1.513177e+87)
(-2.161566e+88 2.4474601e+86 -1.5567485e+87)
(-2.2211313e+88 -3.2709547e+85 -1.7286836e+87)
(-2.1519706e+88 -4.1076461e+85 -2.908558e+87)
(-2.1380352e+88 2.6655864e+86 -2.9934714e+87)
(-2.1926037e+88 2.3187859e+86 -2.1061604e+87)
(-2.2092867e+88 -1.216706e+86 -1.6661089e+87)
(-2.137384e+88 -6.8358519e+85 -2.9091716e+87)
(-2.1221328e+88 1.3189499e+86 -2.9936695e+87)
(-2.1780989e+88 1.1126457e+86 -2.01488e+87)
(-2.141149e+88 5.7957238e+86 -2.9448331e+87)
(-2.1328298e+88 -1.1151741e+86 -2.9605585e+87)
(-2.1667922e+88 -2.8708603e+85 4.9604104e+86)
(-2.1756986e+88 4.808341e+86 4.8698279e+86)
(-2.0103096e+88 1.6979135e+86 -1.1446003e+87)
(-2.0159069e+88 1.6420584e+86 -1.1601729e+87)
(-2.018526e+88 2.1147468e+86 -1.1456754e+87)
(-2.0146351e+88 2.0568854e+86 -1.1192455e+87)
(-2.0216687e+88 2.1228317e+86 -1.1901778e+87)
(-2.0165265e+88 1.2007494e+86 -1.1939029e+87)
(-2.0155495e+88 1.5348775e+86 -1.1449025e+87)
(-2.0173251e+88 2.2046695e+86 -1.158122e+87)
(-1.9762479e+88 2.1807295e+86 -1.1074194e+87)
(-1.9737317e+88 1.7748239e+86 -1.0936269e+87)
(-2.0224135e+88 1.2659559e+86 -1.0704971e+87)
(-2.0160691e+88 1.3448046e+86 -1.0693532e+87)
(-2.0212878e+88 1.3588095e+86 -1.0316367e+87)
(-2.0201693e+88 1.5570183e+86 -1.0065698e+87)
(-2.0237329e+88 2.1956156e+86 -1.1497648e+87)
(-2.0186584e+88 1.7604322e+86 -1.1505342e+87)
(-2.0232697e+88 2.0829929e+86 -1.0981957e+87)
(-2.0208928e+88 1.9093664e+86 -1.0853748e+87)
(-1.9787953e+88 2.1963515e+86 -1.0443991e+87)
(-1.9814314e+88 2.116911e+86 -1.056014e+87)
(-1.9894773e+88 2.0028635e+86 -9.9468941e+86)
(-1.9883425e+88 2.0083412e+86 -9.1606775e+86)
(-1.9783787e+88 1.8394346e+86 -9.6485472e+86)
(-1.981074e+88 1.3480102e+86 -9.8170618e+86)
(-1.9869791e+88 1.4125855e+86 -9.4081131e+86)
(-1.6560895e+88 2.0460716e+86 -5.4247059e+86)
(-1.6277069e+88 2.1796065e+86 -5.1862449e+86)
(-1.6359686e+88 1.9131405e+86 -5.5656409e+86)
(-1.6641319e+88 1.7363212e+86 -5.9914672e+86)
(-1.5837547e+88 2.2953933e+86 -4.9186627e+86)
(-1.6038869e+88 2.1703014e+86 -5.4120171e+86)
(-1.6051674e+88 2.0784212e+86 -6.0346248e+86)
(-1.5888619e+88 2.2647458e+86 -5.1431041e+86)
(-1.69208e+88 2.0179169e+86 -6.357806e+86)
(-1.6598578e+88 2.0944099e+86 -5.9802036e+86)
(-1.6650163e+88 1.9422508e+86 -5.8948276e+86)
(-1.7001511e+88 1.8033973e+86 -6.2628521e+86)
(-1.6352622e+88 2.1017679e+86 -5.8540426e+86)
(-1.6323515e+88 2.232112e+86 -6.1310835e+86)
(-1.6083439e+88 2.3543599e+86 -5.5660375e+86)
(-1.6135507e+88 2.2442313e+86 -5.2150037e+86)
(-1.694386e+88 1.8984199e+86 -7.0753219e+86)
(-1.6940524e+88 2.0498785e+86 -6.5390288e+86)
(-1.6608307e+88 2.1087338e+86 -6.2144651e+86)
(-1.6324474e+88 2.2213178e+86 -6.3977157e+86)
(-2.1369467e+88 3.3816986e+85 -2.7851785e+87)
(-2.0116696e+88 -1.9779675e+86 -2.2969083e+87)
(-2.1588191e+88 3.9337979e+86 -2.6371706e+87)
(-2.0277079e+88 3.9315531e+86 -2.1434274e+87)
(-1.9648487e+88 -3.5330667e+86 -3.3082673e+87)
(-2.0031001e+88 4.3246832e+86 -3.2679002e+87)
(-2.0724857e+88 3.8909824e+86 -2.1830642e+87)
(-2.0491177e+88 -2.8735683e+86 -2.2279497e+87)
(-2.1727301e+88 -1.8720059e+86 -2.8827247e+87)
(-2.1885085e+88 3.0913679e+86 -2.7835743e+87)
(-1.9778822e+88 9.723381e+85 -1.8165866e+87)
(-1.96599e+88 1.0024365e+86 -1.9156823e+87)
(-1.8992833e+88 1.2089319e+86 -1.4390963e+87)
(-1.9120039e+88 1.1471512e+86 -1.3627521e+87)
(-1.9257209e+88 1.1646996e+85 -1.8930363e+87)
(-1.904104e+88 1.5695937e+86 -1.7060236e+87)
(-1.8382594e+88 1.5360767e+86 -1.2332859e+87)
(-1.8560429e+88 4.4719082e+85 -1.3449363e+87)
(-1.9928665e+88 1.7364575e+86 -2.426662e+87)
(-2.0626543e+88 2.6967183e+86 -3.3264354e+87)
(-2.0788979e+88 2.3473494e+85 -3.3593897e+87)
(-2.000434e+88 -3.1457083e+85 -2.6021281e+87)
(-2.1170705e+88 2.4049261e+85 -3.3024072e+87)
(-2.1083389e+88 7.8392697e+85 -3.4032964e+87)
(-2.0477278e+88 6.7902914e+85 -2.5806338e+87)
(-2.057728e+88 6.5656149e+85 -2.4764694e+87)
(-1.8659688e+88 1.3695774e+86 -1.0276601e+87)
(-1.8536477e+88 1.5010342e+86 -1.0828925e+87)
(-1.8052943e+88 1.6398618e+86 -8.8648665e+86)
(-1.8171146e+88 1.4241748e+86 -8.4135056e+86)
(-1.8137811e+88 8.4330583e+85 -9.9496041e+86)
(-1.7982781e+88 1.4988826e+86 -9.0088113e+86)
(-1.7546409e+88 1.6337684e+86 -7.2836593e+86)
(-1.7677362e+88 1.1083415e+86 -8.1664331e+86)
(-1.7178746e+88 1.8186002e+86 -6.3065012e+86)
(-1.7291465e+88 1.3519024e+86 -7.0669006e+86)
(-1.6952774e+88 1.5656171e+86 -5.9057537e+86)
(-1.6859514e+88 1.9183657e+86 -5.2289253e+86)
(-1.7368171e+88 1.6823232e+86 -6.030782e+86)
(-1.763721e+88 1.7851185e+86 -7.5461049e+86)
(-1.7746005e+88 1.5060072e+86 -7.171596e+86)
(-1.7262923e+88 1.9326164e+86 -6.3311775e+86)
(-2.1889274e+88 -7.4749075e+85 -2.8597583e+87)
(-2.0806442e+88 -2.8880506e+86 -2.2942918e+87)
(-2.085312e+88 4.1572185e+86 -2.2438577e+87)
(-2.193522e+88 4.1383362e+86 -2.8211997e+87)
(-2.1957302e+88 -1.633331e+86 -2.7940369e+87)
(-2.0759746e+88 -1.8368999e+86 -2.2758932e+87)
(-2.0816682e+88 3.9698693e+86 -2.3275056e+87)
(-2.1786229e+88 2.1174095e+86 -2.8909831e+87)
(-2.0151902e+88 5.8064783e+86 -3.3278866e+87)
(-2.00554e+88 -3.7030326e+86 -3.3158059e+87)
(-1.8664992e+88 -4.6440683e+86 2.3973379e+86)
(-1.8784244e+88 5.560611e+86 2.0316133e+86)
(-1.8527313e+88 8.6711339e+85 -1.1160662e+87)
(-1.8480137e+88 1.4996738e+86 -1.0708214e+87)
(-1.7941894e+88 1.6302095e+86 -9.6981719e+86)
(-1.8008705e+88 1.2236723e+86 -8.998896e+86)
(-1.8692419e+88 1.0300952e+86 -1.1061878e+87)
(-1.8619549e+88 1.6376477e+86 -9.7527988e+86)
(-1.8133561e+88 1.2706256e+86 -9.8538439e+86)
(-1.8075737e+88 1.6728764e+86 -8.9649718e+86)
(-1.7672753e+88 1.773743e+86 -7.4998999e+86)
(-1.7288198e+88 1.9546308e+86 -6.381319e+86)
(-1.7318533e+88 1.7532954e+86 -6.9156405e+86)
(-1.7716363e+88 1.5421381e+86 -8.2208987e+86)
(-1.7612151e+88 1.4991764e+86 -7.3479645e+86)
(-1.7541001e+88 1.8381628e+86 -8.1678105e+86)
(-1.7159237e+88 1.9531492e+86 -6.8810306e+86)
(-1.7222545e+88 1.6091292e+86 -6.2365163e+86)
(-1.9089143e+88 4.5550498e+85 -1.2964873e+87)
(-1.9648816e+88 1.0130758e+86 -1.865233e+87)
(-1.9730504e+88 -1.2774404e+85 -1.808777e+87)
(-1.8929823e+88 1.4327391e+86 -1.3819937e+87)
(-1.9839972e+88 5.2908324e+85 -1.9016391e+87)
(-1.9774537e+88 1.2864259e+86 -1.7809325e+87)
(-1.9068936e+88 1.4340065e+86 -1.2771563e+87)
(-1.9162027e+88 7.7115458e+85 -1.4352843e+87)
(-2.1136605e+88 -9.2552777e+85 -3.3476517e+87)
(-2.1203593e+88 7.5263217e+85 -3.2337889e+87)
(-2.0423791e+88 7.2384274e+85 -2.48257e+87)
(-2.0534235e+88 -7.0722631e+85 -2.4610427e+87)
(-2.1258838e+88 2.3774039e+85 -3.3083349e+87)
(-2.1227e+88 1.608874e+86 -3.21227e+87)
(-2.0533598e+88 1.2726126e+86 -2.4447202e+87)
(-2.0644987e+88 3.4325625e+85 -2.5095697e+87)
(-2.0253946e+88 -2.7428108e+86 -9.9746903e+85)
(-2.0463675e+88 4.3835135e+86 -1.1416229e+85)
(-2.0450117e+88 -1.3110649e+86 -8.5909098e+83)
(-1.8761473e+88 -2.9955193e+86 2.1773687e+86)
(-2.0017497e+88 -3.0966408e+86 -3.2704023e+87)
(-2.0060152e+88 6.1875715e+86 -3.2782771e+87)
(-2.073076e+88 3.9430136e+86 -2.1932252e+87)
(-2.0653983e+88 -2.4096871e+86 -2.2965702e+87)