/*--------------------------------*- C++ -*----------------------------------*\
  =========                 |
  \\      /  F ield         | OpenFOAM: The Open Source CFD Toolbox
   \\    /   O peration     | Website:  https://openfoam.org
    \\  /    A nd           | Version:  7
     \\/     M anipulation  |
\*---------------------------------------------------------------------------*/
FoamFile
{
    version     2.0;
    format      ascii;
    class       volVectorField;
    location    "0";
    object      U;
}
// * * * * * * * * * * * * * * * * * * * * * * * * * * * * * * * * * * * * * //

dimensions      [0 1 -1 0 0 0 0];

internalField   nonuniform List<vector> 
33730
(
(0.089052395 0.0018869547 0.00024280459)
(0.087664896 0.0021770831 -0.0018130673)
(0.087725319 0.0015717783 -0.0018993197)
(0.09030817 0.0019331951 -0.0017763168)
(0.090480651 0.0013689468 -0.0018571004)
(0.087892426 0.0016414916 0.001664339)
(0.086585885 0.0015678867 -0.00019875945)
(0.087865628 0.0021491327 0.0016054999)
(0.086560383 0.0023165286 -0.00018427806)
(0.085591918 0.0018677354 -0.0042487396)
(0.085405665 0.0023644164 -0.0042555791)
(0.087388139 0.0021628134 -0.0042359755)
(0.087822315 0.0018733342 -0.004218848)
(0.085666008 0.0017625938 -0.0042954717)
(0.087944239 0.0016289219 -0.0042759168)
(0.087525225 0.0014294363 -0.0044122503)
(0.085580032 0.0013928501 -0.00443422)
(0.091790166 0.0011125415 0.00052177631)
(0.091262513 0.00078114613 0.0011238597)
(0.091523903 0.0015843882 -0.0011123514)
(0.09151335 0.0011325243 0.00056569164)
(0.0917798 0.0012269521 -0.0011121325)
(0.090167982 0.00061006645 0.0015951618)
(0.090859755 0.0016261946 -0.0047323234)
(0.090589615 0.0022516653 -0.0047824323)
(0.090920186 0.0011609568 -0.0049447378)
(0.090975333 0.0017056273 -0.0047990178)
(0.087432355 0.0017457495 0.0038623694)
(0.087861215 0.001644512 0.0036112045)
(0.087451431 0.0014374111 0.0036770355)
(0.087387234 0.0014948315 0.0039535223)
(0.083916255 0.0014175377 0.0029067612)
(0.084010363 0.0018487201 0.0028962573)
(0.082012769 0.0012711712 -0.0017006704)
(0.082151147 0.0019629162 -0.0016756359)
(0.087260728 0.0023280109 0.0038354527)
(0.08733164 0.0022471542 0.0035396476)
(0.087778333 0.0019510296 0.0035581318)
(0.087380293 0.0019475253 0.0038287087)
(0.083819002 0.0024793486 0.0028762604)
(0.083961212 0.0018937705 0.0028899301)
(0.081905925 0.0026009627 -0.0016130937)
(0.082088521 0.0017589915 -0.0016456434)
(0.083666589 0.0020088695 -0.0095694311)
(0.086632736 0.0018756081 -0.008447191)
(0.083577195 0.0017104115 -0.0097190941)
(0.086225186 0.0017185728 -0.0085972415)
(0.083376002 0.0023842218 -0.0095761566)
(0.08352898 0.0020762023 -0.009547093)
(0.086459696 0.0020658493 -0.0084485366)
(0.086057039 0.0022504952 -0.0084542536)
(0.086735798 0.0016107031 -0.0085452638)
(0.083798407 0.0015442367 -0.0096738485)
(0.086334287 0.0017521301 -0.0086108402)
(0.083643309 0.0018148719 -0.0097423966)
(0.083695824 0.0013403178 -0.0098437237)
(0.083776738 0.0015258728 -0.0097131932)
(0.086343975 0.0013846036 -0.0087016505)
(0.086753543 0.0014592502 -0.0085982373)
(0.093656253 0.0011463913 0.0011409503)
(0.092513488 0.0010094487 0.0015931057)
(0.093286635 0.00093675601 0.0023819594)
(0.092562983 0.00094265268 0.0025322983)
(0.091907492 0.00079042188 0.0019065175)
(0.09346869 0.0011760189 0.0012243924)
(0.092428756 0.0009208826 0.0016964016)
(0.091095504 0.0008796782 0.0011098438)
(0.091070376 0.00074359953 0.0020856639)
(0.093093005 0.0018868696 -0.0033214265)
(0.094050523 0.0015034862 -0.00090929239)
(0.093893551 0.0015055898 -0.0007498393)
(0.093336787 0.0014137474 -0.0034080819)
(0.090849408 0.00082971994 0.0010583984)
(0.089841877 0.00057944086 0.0015122807)
(0.090027385 0.00071985295 0.0015219874)
(0.093161103 0.0012479068 0.0011309142)
(0.092057746 0.0010588665 0.0016084877)
(0.092286211 0.0011654162 0.0016739845)
(0.093311107 0.001220097 0.0012579958)
(0.094205025 0.0012305579 -0.00091323035)
(0.094398741 0.0012515421 -0.00082755623)
(0.093473336 0.0016466568 -0.0034712958)
(0.093539798 0.0012233056 -0.0033916689)
(0.089236496 0.00047498038 0.0009589402)
(0.090603491 0.00065353776 0.002168086)
(0.089767418 0.00059583183 0.0025490403)
(0.0916347 0.0020812018 -0.0095510257)
(0.091577192 0.0013722683 -0.0096972981)
(0.091519457 0.0017670802 -0.009507452)
(0.091296486 0.0024612738 -0.0095891334)
(0.091862095 0.0016378658 -0.0096705023)
(0.091769098 0.00102384 -0.0098164429)
(0.091828903 0.0012799159 -0.0096374297)
(0.091653245 0.0019650565 -0.0097314699)
(0.090266503 0.0018765554 0.0020137879)
(0.090423475 0.0015432258 0.0021108341)
(0.088217716 0.0016616325 0.0061010977)
(0.089456385 0.0017525913 0.0038203203)
(0.089451805 0.0013078445 0.0038332939)
(0.088251562 0.0014777257 0.0061373715)
(0.083009806 0.0014685819 0.0074609005)
(0.081151783 0.0016831291 0.005869779)
(0.082594539 0.001390379 0.0075151034)
(0.081095621 0.00128953 0.0059486591)
(0.083003331 0.0016819548 0.0074607082)
(0.082580935 0.0018392161 0.007472743)
(0.0810491 0.0019538705 0.0059271528)
(0.081171709 0.0014892543 0.0058668599)
(0.076001588 0.0018038614 0.0023845112)
(0.075886828 0.0011564268 0.0023832171)
(0.075297948 0.0018571352 -0.0064436366)
(0.075138267 0.0010504506 -0.0064793906)
(0.075867033 0.0020758925 0.002403536)
(0.076032077 0.0013541061 0.0023961814)
(0.07512905 0.0021455948 -0.006415318)
(0.075325388 0.0012600192 -0.0064198)
(0.088000842 0.0022356527 0.0060027167)
(0.089180023 0.0022481187 0.0036825108)
(0.089361837 0.0017044065 0.0037549664)
(0.088129266 0.0019166403 0.0060592575)
(0.082823238 0.0022631304 0.0074193934)
(0.082404995 0.0024856474 0.0074205706)
(0.08090885 0.0026076854 0.0059369851)
(0.080996722 0.0020642662 0.0058702339)
(0.082518837 0.0017939935 0.0074721475)
(0.082927738 0.0019924788 0.0074140267)
(0.080999156 0.0016928956 0.0059290222)
(0.081083293 0.002191159 0.0058589961)
(0.07571083 0.0027262549 0.0024782601)
(0.075854917 0.0019296969 0.0024501571)
(0.074931487 0.0027627823 -0.0062660084)
(0.075114123 0.0018215122 -0.0063004433)
(0.075945294 0.0023115264 0.0024301614)
(0.075814963 0.0015596372 0.0024158388)
(0.075240136 0.002359313 -0.0063386745)
(0.07507138 0.0014415316 -0.0063869662)
(0.085696084 0.0019864609 -0.0151632)
(0.083516662 0.0019279018 -0.019061249)
(0.083624825 0.0019369517 -0.018996693)
(0.086058575 0.0018704922 -0.015109973)
(0.083608269 0.0017020991 -0.019039354)
(0.08356449 0.0017849152 -0.019185211)
(0.085696487 0.0016926037 -0.01527308)
(0.08607729 0.0017394284 -0.015154433)
(0.083271983 0.0022489989 -0.018940141)
(0.083370765 0.0022860223 -0.018884721)
(0.085441698 0.0022803472 -0.015060714)
(0.085806967 0.0021758774 -0.015037092)
(0.083494083 0.0020390465 -0.018894312)
(0.083427898 0.0020627388 -0.019045408)
(0.08595201 0.0020285395 -0.01501276)
(0.085569677 0.0019404543 -0.015172319)
(0.08378566 0.001529617 -0.019099272)
(0.083719477 0.0015732958 -0.01922224)
(0.0862456 0.0015618748 -0.015187636)
(0.085865135 0.0014859562 -0.015306918)
(0.08361091 0.001671566 -0.019198109)
(0.083695709 0.0017547098 -0.019107445)
(0.085775259 0.0017396068 -0.015271207)
(0.086139515 0.0016840574 -0.015216217)
(0.083786672 0.0013175129 -0.019187273)
(0.086251879 0.0013819086 -0.01527942)
(0.085870484 0.0013600957 -0.015378319)
(0.083738507 0.0014392837 -0.019317948)
(0.083720534 0.0014602782 -0.019238007)
(0.083830857 0.0015280662 -0.019150822)
(0.085896753 0.001552866 -0.015317218)
(0.086262046 0.0014948759 -0.01522728)
(0.093872927 0.0010909528 0.0022091607)
(0.093757231 0.00096801618 0.0021020759)
(0.095032239 0.0012010575 0.0019586217)
(0.095009195 0.0011714201 0.0018463541)
(0.093832359 0.0010425289 0.0030005392)
(0.094379369 0.0010119086 0.0028265606)
(0.093234838 0.0010517194 0.0023815127)
(0.093126908 0.0010525661 0.0024649037)
(0.092495337 0.00086717771 0.0026113636)
(0.092511365 0.00093829505 0.0025192746)
(0.091814499 0.00094853217 0.0019057699)
(0.093044873 0.00097430101 0.0030021414)
(0.093502663 0.00094007608 0.0028683099)
(0.093016966 0.001053542 0.0028847846)
(0.093570114 0.00094352979 0.0027690528)
(0.092806793 0.00090554683 0.0029658945)
(0.092775978 0.00089476429 0.0030569053)
(0.092393259 0.00095743213 0.0029738193)
(0.09214641 0.00082133985 0.0024391006)
(0.092459967 0.00098793915 0.0030592016)
(0.091585284 0.00089749261 0.0024714045)
(0.091589302 0.00082862754 0.0025803487)
(0.093699021 0.0011723695 0.0021246797)
(0.093676423 0.0010991335 0.0022538802)
(0.09479443 0.0011554495 0.0019866665)
(0.094922238 0.0011823129 0.0018929214)
(0.093069461 0.0010484204 0.0024796644)
(0.09243734 0.0010452399 0.002595644)
(0.092334068 0.00099438489 0.0025249708)
(0.093053227 0.0010371543 0.0023819256)
(0.091738212 0.00091648203 0.0017893324)
(0.090820788 0.00070364978 0.0019565391)
(0.090983949 0.0008035504 0.0020553316)
(0.091022221 0.00077000513 0.0025770202)
(0.091105371 0.00080770428 0.002666278)
(0.091316833 0.00076087795 0.0024320062)
(0.091309769 0.00071926456 0.0025426791)
(0.095356672 0.0021638875 -0.0074659997)
(0.097761356 0.0017985269 -0.0040838085)
(0.097683468 0.001816174 -0.00394664)
(0.095526815 0.0015464066 -0.0075321751)
(0.097338442 0.0014927143 -6.6084392e-05)
(0.095799178 0.0014211067 0.00087827977)
(0.095742852 0.0012611458 0.00098193975)
(0.09750315 0.0014850657 -0.00016638974)
(0.097137984 0.0016154548 -0.00011019011)
(0.095659227 0.0016158102 0.0010224385)
(0.095486097 0.0014611642 0.00095827699)
(0.097216391 0.0015398796 1.0096186e-05)
(0.097881141 0.0015757342 -0.0040994938)
(0.098056069 0.0015563625 -0.0040297852)
(0.09569118 0.001426747 -0.0075204936)
(0.095635455 0.0020043508 -0.007573136)
(0.089127318 0.00058335158 0.000907687)
(0.088999889 0.00037277738 0.0008489965)
(0.087896299 0.00037251688 0.0016868145)
(0.087945844 0.00043766388 0.0017105751)
(0.090696525 0.00083728848 0.0019049595)
(0.09060135 0.00070428256 0.0020239418)
(0.091392838 0.00081685582 0.0018484057)
(0.091606209 0.0008845822 0.0017793272)
(0.090176913 0.00053388324 0.0020633842)
(0.089411682 0.00043195531 0.0024269133)
(0.089579635 0.000612035 0.0025309017)
(0.090260068 0.00061486407 0.0022051848)
(0.090372922 0.00067530627 0.0022285762)
(0.089671052 0.0004702471 0.0025941287)
(0.089694054 0.00061386964 0.0025066612)
(0.090522752 0.00072097916 0.0021486465)
(0.093274113 0.0012123283 0.0022191821)
(0.094409539 0.0012917809 0.0019483433)
(0.09458014 0.0013238762 0.001858125)
(0.09334173 0.0013463817 0.0020844665)
(0.092662296 0.0010764923 0.0023583079)
(0.092115408 0.001114384 0.0025832384)
(0.091971999 0.0010210526 0.0025113246)
(0.092722955 0.0010907996 0.002467061)
(0.092208969 0.00095015736 0.0025978496)
(0.092975838 0.001127245 0.0023837303)
(0.092832791 0.0011046827 0.0024579031)
(0.092259154 0.0010111682 0.0025068572)
(0.093451276 0.0011484218 0.0021408604)
(0.093599842 0.0012219429 0.0022424672)
(0.094661473 0.0013128224 0.0018886893)
(0.094712877 0.0013356718 0.002001551)
(0.097605168 0.0013551871 -6.4351378e-05)
(0.095882876 0.0012397199 0.00088509232)
(0.097586619 0.0013575532 -0.00018321382)
(0.096008944 0.0014053034 0.00095880883)
(0.096096314 0.0010556619 0.0010103335)
(0.097664239 0.0013229608 -4.5177639e-05)
(0.097790146 0.0012830092 -0.00014668479)
(0.096123114 0.001226615 0.00091249821)
(0.098133581 0.0014566546 -0.0040365921)
(0.095766243 0.0017608846 -0.0075606754)
(0.098145396 0.0014546914 -0.0041506691)
(0.095875315 0.0012061942 -0.0076201574)
(0.098328398 0.0012878427 -0.0040631725)
(0.09819731 0.001254865 -0.0041492465)
(0.095923697 0.0017012024 -0.0076549029)
(0.09593723 0.0011452048 -0.007599736)
(0.088755421 0.00039779397 0.0021327771)
(0.087155574 0.00043722295 0.0025687916)
(0.090873619 0.00065500382 0.0024624528)
(0.090627209 0.00066119023 0.0027115453)
(0.090616038 0.00074138514 0.0025954825)
(0.090956993 0.00064723568 0.002369521)
(0.089650364 0.00056037311 0.0036486731)
(0.090426411 0.00058822065 0.0030012425)
(0.089743118 0.00069494945 0.0037260548)
(0.090415378 0.00057699298 0.0031028272)
(0.093008046 0.0022979725 -0.016235654)
(0.093169255 0.0014964546 -0.016132597)
(0.093109078 0.0012638373 -0.016326522)
(0.093197209 0.0020041509 -0.016169323)
(0.093003605 0.0023366202 -0.016062268)
(0.092937527 0.0015435634 -0.016207767)
(0.092734139 0.002594482 -0.016139529)
(0.092918246 0.0018366118 -0.01603096)
(0.093429527 0.0011003355 -0.016259899)
(0.093291377 0.0018616223 -0.016368649)
(0.093434251 0.0016402513 -0.016278288)
(0.093329928 0.0009366888 -0.01643043)
(0.093268629 0.0010817846 -0.016356997)
(0.093362298 0.0018614538 -0.016219811)
(0.093309351 0.0013421139 -0.016218439)
(0.093154701 0.0020796634 -0.016343014)
(0.091506047 0.0016168458 0.0019746289)
(0.091769607 0.001355654 0.0020560599)
(0.091623374 0.0015631945 0.0081968082)
(0.084991839 0.0013986538 0.0090628444)
(0.084878702 0.0019412648 0.0090377176)
(0.091293054 0.0016697892 0.0047492805)
(0.091383141 0.001226481 0.0047513404)
(0.091724175 0.0013997514 0.0082226126)
(0.084970681 0.0012071432 0.009072136)
(0.08501907 0.0016969455 0.0090739453)
(0.079954327 0.0015025981 0.011197011)
(0.07994409 0.0014308998 0.011218266)
(0.079859708 0.0017325525 0.011200948)
(0.079937041 0.0016177462 0.011191299)
(0.071997939 0.0016142449 0.01022784)
(0.072407769 0.0015403973 0.010205781)
(0.068156576 0.0011189732 0.0043410044)
(0.06801326 0.0019454871 0.004419906)
(0.071964261 0.0013558838 0.010255486)
(0.072382909 0.001380735 0.010200171)
(0.068105295 0.0018048629 0.0043437382)
(0.067997592 0.001018499 0.0044275529)
(0.068275055 0.001864897 -0.018140567)
(0.06845334 0.0011563629 -0.018121968)
(0.062758049 0.0022647974 -0.0042827255)
(0.062968957 0.00078072132 -0.0042780293)
(0.062899271 0.0021275105 -0.0042930326)
(0.068403033 0.0017018297 -0.018144397)
(0.06271696 0.00068546806 -0.0043168704)
(0.068253095 0.0010501958 -0.018212512)
(0.071904883 0.0018509136 0.0102504)
(0.072325426 0.0017876221 0.010221222)
(0.068067984 0.0013455141 0.0043675188)
(0.067945807 0.0021716333 0.0044623986)
(0.072398748 0.0016119614 0.010192648)
(0.071993501 0.001510224 0.010241779)
(0.068137587 0.0020138889 0.004354469)
(0.068017533 0.0011663593 0.0044235184)
(0.068178694 0.0020900833 -0.01809666)
(0.068342855 0.0013973101 -0.018064122)
(0.06267256 0.002487649 -0.0042385514)
(0.06287146 0.0010058553 -0.0042365944)
(0.068432342 0.0019262412 -0.018070683)
(0.06827664 0.0011912672 -0.018125468)
(0.062950452 0.0023348665 -0.004243922)
(0.06276674 0.00082982541 -0.0042703943)
(0.091303719 0.0020894727 0.0080771426)
(0.084669092 0.0025951644 0.0089713312)
(0.084790262 0.0019618498 0.0090029663)
(0.090983968 0.0020990385 0.0046353772)
(0.091164336 0.0015624057 0.0046590568)
(0.09148528 0.0017869961 0.008147499)
(0.084860678 0.0021907798 0.0090250762)
(0.084827197 0.0016067084 0.0090261436)
(0.07968232 0.0024017894 0.011175649)
(0.07975842 0.0021920771 0.011169245)
(0.079815688 0.0018388815 0.011196147)
(0.079819133 0.0019923464 0.011174197)
(0.071760488 0.0025459134 0.010291357)
(0.072176768 0.0024151055 0.010263545)
(0.067931063 0.0019642182 0.0044772455)
(0.06782043 0.0028458183 0.0045917457)
(0.072251386 0.0022048618 0.010218676)
(0.071843467 0.0020663256 0.010269728)
(0.068009824 0.0025904201 0.0044494025)
(0.067872679 0.0017164737 0.0045034061)
(0.062517129 0.0031352239 -0.0040277975)
(0.067946219 0.0027035653 -0.017822369)
(0.068108625 0.0019637032 -0.017824973)
(0.062713138 0.0016067104 -0.0040568253)
(0.068228389 0.0024661774 -0.01785525)
(0.068062786 0.0017101849 -0.017932324)
(0.06280505 0.0028926534 -0.0040846425)
(0.062609461 0.0013703904 -0.0041314616)
(0.071895728 0.0021399099 0.010245728)
(0.072303507 0.0019995645 0.010225742)
(0.06793301 0.002459265 0.0044896304)
(0.068060762 0.0015736187 0.0043998218)
(0.07228616 0.0018107537 0.010209815)
(0.071869688 0.0017415357 0.010267453)
(0.068025147 0.002225658 0.0043949802)
(0.067912417 0.0014008101 0.0044704378)
(0.062676938 0.0027684043 -0.004152997)
(0.068143934 0.0023575329 -0.017963896)
(0.068311961 0.0015877753 -0.017961156)
(0.062874744 0.0012268058 -0.004163243)
(0.068288474 0.0021050294 -0.017995008)
(0.06813732 0.0014103626 -0.018076224)
(0.062823848 0.0025388861 -0.0041877108)
(0.062640043 0.0010607712 -0.0042238003)
(0.08951019 0.0022762909 -0.031983473)
(0.089531444 0.0016017572 -0.032041576)
(0.087525732 0.0019642109 -0.023529861)
(0.087857182 0.0019353332 -0.023470957)
(0.089615304 0.0021693688 -0.032075795)
(0.08957938 0.0015210492 -0.031967025)
(0.087933018 0.0018271439 -0.02345552)
(0.087611359 0.0017838059 -0.023557838)
(0.089633093 0.0021085694 -0.032032661)
(0.089618011 0.0014433604 -0.032090024)
(0.087631034 0.0018184659 -0.023576521)
(0.087963632 0.0017871383 -0.023490502)
(0.089668411 0.0020672033 -0.032185406)
(0.089602725 0.0013628233 -0.032071406)
(0.087948107 0.0016869004 -0.023550339)
(0.087626497 0.001687022 -0.023637411)
(0.089225904 0.0025906806 -0.031794842)
(0.089239755 0.0019239798 -0.031837169)
(0.087252536 0.0022700232 -0.023375482)
(0.087586617 0.0022322136 -0.023329912)
(0.089344977 0.0024909036 -0.031909101)
(0.089314828 0.001837749 -0.031781773)
(0.087679421 0.0021181828 -0.023309546)
(0.087357775 0.002087114 -0.023438099)
(0.089425456 0.0023946377 -0.031872072)
(0.089417525 0.0017620056 -0.0319115)
(0.087447679 0.0021166702 -0.023433851)
(0.087778959 0.0020528908 -0.023376046)
(0.089483177 0.0023291389 -0.032035541)
(0.089416628 0.0016416093 -0.031909432)
(0.08777868 0.0019442384 -0.023422807)
(0.087460506 0.0019396987 -0.02352527)
(0.089795876 0.0019125556 -0.032128323)
(0.089797372 0.0012546628 -0.032188532)
(0.087797976 0.0016277308 -0.023643057)
(0.088125903 0.0015841739 -0.023570519)
(0.089824543 0.0018640062 -0.032264144)
(0.089766678 0.0011630357 -0.032156145)
(0.088106006 0.0014845588 -0.023610256)
(0.087781264 0.0014847269 -0.023698946)
(0.089663908 0.0020462163 -0.032120576)
(0.08969486 0.0013465434 -0.03218734)
(0.087668112 0.0017145746 -0.023638298)
(0.087996341 0.001702353 -0.023580085)
(0.089752724 0.0019777839 -0.032196678)
(0.089733438 0.0013009911 -0.032091572)
(0.088067039 0.001603284 -0.023542658)
(0.087740105 0.0015884092 -0.023657941)
(0.089872811 0.0017482212 -0.032200347)
(0.089863503 0.0010579214 -0.032270243)
(0.087857025 0.0014454118 -0.023713843)
(0.088187497 0.0014357807 -0.023619219)
(0.089890752 0.0017336761 -0.032337171)
(0.089832085 0.0010106919 -0.032232945)
(0.088160889 0.0013436873 -0.023673501)
(0.087835833 0.0013580444 -0.023754431)
(0.089800372 0.0018500181 -0.032190232)
(0.089830457 0.0011431373 -0.032265088)
(0.087800608 0.0015196477 -0.023699623)
(0.0881268 0.0015216913 -0.023627894)
(0.089882875 0.0017754455 -0.032260507)
(0.089851964 0.0011054461 -0.032166887)
(0.088186492 0.0014257268 -0.023608687)
(0.087861807 0.0013986573 -0.023698662)
(0.088254381 0.00032237721 0.00046938238)
(0.093817951 0.00096285016 0.0030945951)
(0.093806275 0.0010206615 0.0029931303)
(0.094270994 0.0011379239 0.0029277881)
(0.094354064 0.0011066805 0.0028245457)
(0.093685042 0.0010693757 0.0029546498)
(0.094269644 0.0010934032 0.0027810767)
(0.093766127 0.0011297089 0.0030419255)
(0.094249469 0.001115452 0.0028945438)
(0.09471443 0.0010118954 0.0027687775)
(0.095627156 0.0011849543 0.0025820189)
(0.09480037 0.0011099338 0.0028708626)
(0.095615071 0.0011951135 0.0026811671)
(0.094717207 0.0011017432 0.0028668211)
(0.095524813 0.0011254671 0.0026760768)
(0.094696315 0.0011800122 0.0027584069)
(0.0956005 0.0011591808 0.0025900395)
(0.094752712 0.0011158123 0.0033067094)
(0.093923119 0.00098393414 0.0034038068)
(0.0937618 0.0010630178 0.0033003246)
(0.093964872 0.00099850153 0.003308358)
(0.093816988 0.0010869374 0.0033896537)
(0.094148451 0.001062877 0.0032573513)
(0.094524267 0.00099020134 0.0032798882)
(0.09410881 0.0011227953 0.0031475453)
(0.093830277 0.00097457736 0.0033866096)
(0.093944833 0.0010241135 0.0034019774)
(0.092940866 0.00090188681 0.0028857418)
(0.093490767 0.0010669575 0.0027643171)
(0.093017544 0.00098378205 0.0029940829)
(0.093476731 0.0010712623 0.0028686834)
(0.092939152 0.00098809656 0.0030349596)
(0.093357177 0.0010046879 0.0029017968)
(0.092916239 0.0010188484 0.0029168022)
(0.09343776 0.0010097507 0.0028088116)
(0.092709637 0.0009637868 0.0029646606)
(0.092678273 0.00097501745 0.0030552603)
(0.092292805 0.00096853181 0.002969094)
(0.092356537 0.00098219375 0.0030495086)
(0.092082907 0.00095609986 0.0023422493)
(0.092704345 0.0010066687 0.0030476051)
(0.092775769 0.0010011155 0.0029622686)
(0.092363973 0.0008955259 0.0029661686)
(0.092385559 0.00086190661 0.0030593153)
(0.09209806 0.00095956399 0.002439669)
(0.091437315 0.00077617965 0.0024721537)
(0.091543896 0.00085157475 0.0025657768)
(0.093023406 0.00092436358 0.0033737144)
(0.092821277 0.0010059696 0.0032389919)
(0.093071863 0.0009441344 0.0032798279)
(0.092862892 0.0010254304 0.0033353486)
(0.0932627 0.0010078706 0.0032439862)
(0.09359399 0.00094541302 0.0032292487)
(0.093650806 0.00095405216 0.0031416247)
(0.093224802 0.0010509907 0.0031492706)
(0.093111408 0.00098847881 0.0032395543)
(0.092862784 0.00091435971 0.0032961542)
(0.093051023 0.00095454815 0.0033337005)
(0.092817892 0.00094302817 0.0032017037)
(0.093249184 0.00095591 0.0031489928)
(0.093664594 0.0010052511 0.0031465629)
(0.093309907 0.00099029715 0.0032355705)
(0.093635704 0.0010343081 0.0032292693)
(0.092252714 0.00099965204 0.0035834851)
(0.092273612 0.0010303721 0.003566504)
(0.092567959 0.00088438251 0.0029673805)
(0.092633242 0.00092754349 0.0028879319)
(0.092634252 0.00096251071 0.0029276568)
(0.092561556 0.0010005859 0.0030061274)
(0.092309645 0.00095756079 0.0035707672)
(0.092276449 0.00092489074 0.0036648677)
(0.092274958 0.00092165818 0.0031424319)
(0.092185259 0.00083220748 0.0028518359)
(0.091828286 0.00092724668 0.0027233071)
(0.091855757 0.00088838369 0.002822377)
(0.09225939 0.00083748431 0.0027631587)
(0.09230532 0.000914938 0.0031431699)
(0.091542198 0.00077743821 0.0027678313)
(0.091571176 0.00076374751 0.0028696626)
(0.0916882 0.00081398297 0.0029156792)
(0.091767645 0.00083730889 0.0028091511)
(0.091574765 0.00087928987 0.0029067104)
(0.091505595 0.00086889799 0.0028071642)
(0.091687912 0.00081085587 0.0028486863)
(0.091658786 0.00077998334 0.0029574862)
(0.09366832 0.0010216439 0.0030559946)
(0.093653843 0.001074056 0.0029531758)
(0.094146961 0.001130028 0.0028957025)
(0.094236371 0.0011508199 0.002789889)
(0.093575749 0.0011478973 0.0030047562)
(0.094115126 0.0011372086 0.0028321761)
(0.093655146 0.0011940803 0.0030920235)
(0.094102762 0.0011061781 0.002942121)
(0.094551888 0.0011956404 0.0028895575)
(0.09535145 0.0011865299 0.0026885704)
(0.094543315 0.0012774122 0.0027744334)
(0.09544045 0.0011976925 0.0025979694)
(0.094587619 0.0011031937 0.0027736483)
(0.095481654 0.0012264609 0.0025943849)
(0.094685997 0.0011749685 0.002864423)
(0.095487275 0.001258919 0.0026878741)
(0.092828364 0.0010029024 0.0029233505)
(0.09334377 0.001103111 0.0028089531)
(0.09290815 0.0010310884 0.0030294884)
(0.093326322 0.0011080853 0.0029097535)
(0.09259531 0.0010141993 0.0030442701)
(0.092674435 0.0010323725 0.0029631543)
(0.092258943 0.00093389857 0.0029601365)
(0.092269387 0.00091977095 0.0030504486)
(0.092027783 0.00090965199 0.0023454371)
(0.092566845 0.000978107 0.0029544649)
(0.092546639 0.00097830344 0.0030465154)
(0.092230089 0.0010411216 0.0030447231)
(0.092154004 0.0010117843 0.0029626085)
(0.091924303 0.00087980612 0.0024215387)
(0.092801208 0.0010536458 0.0030021672)
(0.093250732 0.0010371585 0.0028702479)
(0.09278537 0.001123939 0.0028841339)
(0.093330032 0.0010437553 0.002774857)
(0.091377957 0.00084267531 0.0025545655)
(0.091389113 0.00090839811 0.0024508564)
(0.090891694 0.0008006878 0.0026044222)
(0.090782221 0.00074490686 0.0025172248)
(0.091106195 0.00078279667 0.0023724398)
(0.091117928 0.0008042598 0.0024901658)
(0.090966616 0.00067265281 0.0026611057)
(0.091167482 0.00085591961 0.0025226469)
(0.091271349 0.00082574834 0.0024269362)
(0.09097715 0.00072031457 0.0025605645)
(0.091040426 0.00072442576 0.0027158895)
(0.090990001 0.00077840221 0.002679537)
(0.091055072 0.00079127891 0.0027656218)
(0.091012243 0.00070447128 0.0028099426)
(0.091058055 0.00069462207 0.0026800604)
(0.091075692 0.0007016406 0.0027648129)
(0.091042347 0.00075543499 0.0028082254)
(0.091117562 0.00075110669 0.002723751)
(0.09110244 0.00084543927 0.0025875502)
(0.091130654 0.00079658679 0.0026913593)
(0.091368165 0.00073782484 0.0027394107)
(0.091436999 0.00075073018 0.0026423491)
(0.091432694 0.00081462047 0.002682717)
(0.091130206 0.00076630888 0.0026286729)
(0.091205361 0.000763244 0.0027285495)
(0.091404948 0.0008210796 0.0027800233)
(0.090441434 0.00070137587 0.0019153353)
(0.091214531 0.00090716471 0.0017941373)
(0.08929297 0.00036734987 0.0022683418)
(0.090037015 0.0005244415 0.001956742)
(0.091862444 0.0009832374 0.0024733831)
(0.092543165 0.001162689 0.0023510452)
(0.093147818 0.0012825591 0.0021932855)
(0.10175649 0.0020517268 -0.0095867555)
(0.10176828 0.0019748279 -0.009711114)
(0.097908505 0.0023349633 -0.013205233)
(0.098027744 0.001644756 -0.013269514)
(0.10136279 0.0015597807 -0.0022112551)
(0.10138901 0.0017519124 -0.0023223866)
(0.10229778 0.0018275799 -0.0043503627)
(0.10244252 0.0016964549 -0.0044803425)
(0.10119917 0.0017616086 -0.0022419084)
(0.10220637 0.0019217952 -0.0044168686)
(0.10132102 0.0019516748 -0.002160785)
(0.10221458 0.001720276 -0.0042816932)
(0.10184975 0.0018739043 -0.0097252675)
(0.098100333 0.0022679797 -0.013287541)
(0.10200435 0.0017779361 -0.0096502171)
(0.09813417 0.0016006 -0.01323854)
(0.098451862 0.0014127655 0.0016249922)
(0.10023316 0.0014740633 0.00069143731)
(0.098451334 0.0015843037 0.0014786866)
(0.10034829 0.0015082284 0.00057896145)
(0.095986719 0.00121602 0.0026269039)
(0.095993024 0.0013391371 0.0025360722)
(0.097265974 0.0013924173 0.0024272761)
(0.097372312 0.001439035 0.002335208)
(0.095857051 0.0013679739 0.0025471604)
(0.097231166 0.0013759948 0.002347181)
(0.09594727 0.0014678846 0.0026184859)
(0.097226008 0.0014296983 0.0024442632)
(0.09849174 0.0012665334 0.0014484015)
(0.10042092 0.0015130754 0.00053016283)
(0.098610203 0.0014933251 0.0015721152)
(0.10043644 0.0015524351 0.00064990601)
(0.098171579 0.0015750291 0.0016128024)
(0.09819188 0.0017968503 0.0014631305)
(0.099983175 0.0016426305 0.00067237472)
(0.10010889 0.0016596098 0.00056011464)
(0.095783859 0.0013546332 0.0026379248)
(0.097050393 0.0014772935 0.0024471285)
(0.095809875 0.0014541518 0.0025471941)
(0.097177301 0.0015249732 0.0023587356)
(0.095601817 0.0014786956 0.0025667524)
(0.096951209 0.0015005608 0.0023550155)
(0.095721349 0.0016014983 0.002638833)
(0.096972741 0.0015230013 0.0024614265)
(0.098265584 0.0014789011 0.0015089184)
(0.10015 0.0016521827 0.00059636526)
(0.098400504 0.0016410489 0.001629338)
(0.10017348 0.0016685767 0.00071319464)
(0.10145184 0.001557303 -0.0023257587)
(0.10156453 0.0017539515 -0.0022418159)
(0.10250758 0.0017127503 -0.0044957793)
(0.10249851 0.0015860985 -0.0043614234)
(0.10163903 0.0013646486 -0.0021988798)
(0.10254795 0.0017079287 -0.0043477533)
(0.10165805 0.0015694348 -0.0023084107)
(0.10267637 0.001543624 -0.0044775809)
(0.10209349 0.0016133802 -0.0097764642)
(0.098328409 0.0020602203 -0.01336442)
(0.098338894 0.0013955701 -0.013317584)
(0.10222572 0.0015509642 -0.009695842)
(0.10206347 0.0018046475 -0.0096572791)
(0.10205209 0.0017098415 -0.0097706048)
(0.098193382 0.0020768611 -0.013267542)
(0.09828848 0.001418886 -0.013330648)
(0.088768502 0.00046818611 0.0019862858)
(0.088694482 0.0006727329 0.0021058449)
(0.087491533 0.00047622715 0.0024352453)
(0.087098045 0.00052693973 0.0025212273)
(0.088480352 0.0001883282 0.0019824941)
(0.088698339 0.00043845313 0.0019311944)
(0.08743437 0.00033333034 0.0023693096)
(0.086980451 0.00024340096 0.002418714)
(0.087538363 0.00021853909 0.001281414)
(0.087580141 0.00042204434 0.0013381456)
(0.090718556 0.00070513878 0.0024908037)
(0.090696878 0.00063280808 0.0025905061)
(0.090917298 0.00076095121 0.0024564073)
(0.091042135 0.0008016626 0.0023626684)
(0.090796741 0.0006937893 0.0023718156)
(0.090524375 0.00066385134 0.0025170735)
(0.090831869 0.00069232293 0.0024928003)
(0.090646834 0.00074267649 0.0026064543)
(0.091089254 0.00091194544 0.0024254386)
(0.091048454 0.00080634131 0.0025369144)
(0.091579992 0.00084511314 0.0023942096)
(0.09171992 0.00087873257 0.0023187001)
(0.091312563 0.00087456095 0.0025315598)
(0.091179267 0.00079609776 0.0024473617)
(0.091807239 0.00093986707 0.002324752)
(0.091854707 0.00098081202 0.0024205132)
(0.090192872 0.00060597203 0.0025094946)
(0.090166636 0.00047656565 0.002622111)
(0.090393598 0.00050833196 0.0023783852)
(0.090515912 0.00054724646 0.0022975751)
(0.089989479 0.00036440537 0.002873589)
(0.089263601 0.00030369021 0.0034987223)
(0.089384429 0.0004930258 0.003589957)
(0.090015474 0.00040750373 0.0029927701)
(0.089457172 0.00050529875 0.0035593708)
(0.08945219 0.00034071784 0.0036307901)
(0.09009385 0.00050150059 0.0030172748)
(0.090208768 0.00055335503 0.0029464481)
(0.090271032 0.00053637918 0.0025838778)
(0.090562882 0.00066553309 0.0023548347)
(0.090387262 0.0006045969 0.0026918031)
(0.090582473 0.0006890668 0.0024639673)
(0.090446646 0.00065115725 0.0026030018)
(0.090443591 0.00059869612 0.0027203184)
(0.090642005 0.0006367209 0.0024734092)
(0.090750291 0.00064519501 0.0023870271)
(0.089506678 0.00047662255 0.0035987481)
(0.090262349 0.00053912737 0.0029692251)
(0.089599263 0.00062071692 0.0036762112)
(0.090258278 0.00056851275 0.0030704073)
(0.089611533 0.00058944416 0.0036257435)
(0.089630517 0.00044157307 0.0037055542)
(0.090295223 0.00064001357 0.0030728604)
(0.090385982 0.00064431732 0.0029889286)
(0.090586196 0.00065230392 0.002692784)
(0.090488475 0.00056078558 0.0025863042)
(0.090822881 0.00074497165 0.002350177)
(0.090831234 0.00074719913 0.0024571605)
(0.093164702 0.0012282146 0.0029860057)
(0.093693815 0.0012392225 0.0028094491)
(0.093269183 0.0012934305 0.0030724848)
(0.093707704 0.0012103603 0.0029239067)
(0.094125578 0.0013302774 0.0028707012)
(0.094927077 0.001346521 0.0026683423)
(0.09414479 0.0014293496 0.0027512814)
(0.095046409 0.0013559943 0.0025794133)