/*--------------------------------*- C++ -*----------------------------------*\
  =========                 |
  \\      /  F ield         | OpenFOAM: The Open Source CFD Toolbox
   \\    /   O peration     | Website:  https://openfoam.org
    \\  /    A nd           | Version:  7
     \\/     M anipulation  |
\*---------------------------------------------------------------------------*/
FoamFile
{
    version     2.0;
    format      ascii;
    class       volScalarField;
    location    "10000";
    object      k;
}
// * * * * * * * * * * * * * * * * * * * * * * * * * * * * * * * * * * * * * //

dimensions      [0 2 -2 0 0 0 0];

internalField   nonuniform List<scalar> 
34222
(
1.523762
1.5236113
1.5236197
1.5242306
1.5249028
1.5248965
1.5242361
1.5235186
1.5235302
1.5248106
1.5241856
1.5241615
1.5247218
1.5255183
1.5244115
1.5240997
1.5244051
1.524082
1.5255749
1.5255391
1.5256283
1.5255294
1.5228373
1.523478
1.5235706
1.5241121
1.5242151
1.52484
1.5246606
1.5255933
1.5242822
1.5243102
1.5240392
1.524018
1.5254123
1.5256513
1.5256443
1.5254743
1.5258672
1.5263541
1.5265563
1.5260104
1.5258769
1.5255725
1.5259592
1.5255639
1.5258226
1.5256847
1.5256478
1.5257134
1.525693
1.517017
1.5215766
1.5216404
1.522758
1.5237034
1.5237778
1.5257186
1.5235332
1.5242069
1.5243066
1.5240407
1.5239543
1.5243135
1.5241686
1.5246953
1.5249172
1.5256341
1.5256293
1.525287
1.5253417
1.5230828
1.5231564
1.5260334
1.5262171
1.5267672
1.5265554
1.5260422
1.5255339
1.5254919
1.5262011
1.526119
1.5254924
1.5257559
1.525724
1.5255781
1.5265467
1.5269764
1.526691
1.5262796
1.5264979
1.5265699
1.5257729
1.5258249
1.5256446
1.5260881
1.5256277
1.5259646
1.5258301
1.525599
1.5256887
1.5258173
1.5167147
1.5165461
1.5165527
1.516134
1.5164334
1.5205534
1.5194041
1.5219982
1.5205851
1.5220412
1.5205961
1.5205921
1.5220808
1.5214932
1.5220896
1.5211531
1.5240094
1.523746
1.5208187
1.5231942
1.5226129
1.5262852
1.5226502
1.5260076
1.5267688
1.5270741
1.5265403
1.5262866
1.523222
1.5240966
1.5243601
1.5242277
1.5239841
1.5254473
1.52542
1.5263544
1.526267
1.5256692
1.5256309
1.5252317
1.5252047
1.5257852
1.5258122
1.5253239
1.5254026
1.5216687
1.5202857
1.5217057
1.5217412
1.5217336
1.5233131
1.5230454
1.5232758
1.5269886
1.5273263
1.5270306
1.5266783
1.5256795
1.5267269
1.5266459
1.5257259
1.5256538
1.5256928
1.526317
1.526224
1.5254155
1.5259253
1.5258804
1.5255001
1.5252343
1.5262488
1.5262022
1.5253229
1.5264597
1.52652
1.5257442
1.5257973
1.5257367
1.5262699
1.5257384
1.5261439
1.5177182
1.5179212
1.5159276
1.5172157
1.5171814
1.5158341
1.5155085
1.5162111
1.5164476
1.5156206
1.5165707
1.5154717
1.5156911
1.5169952
1.5170907
1.5158635
1.5154555
1.5171299
1.515508
1.5154376
1.5153539
1.5155752
1.5163216
1.5165331
1.5197783
1.5198459
1.5209559
1.5209022
1.5187321
1.5186163
1.5197647
1.5198095
1.520953
1.5198291
1.5197843
1.5209394
1.5198197
1.5198013
1.5209773
1.5209559
1.5198022
1.5197922
1.5209572
1.5209645
1.520304
1.522042
1.5201879
1.5220035
1.519377
1.5216399
1.5198762
1.5218408
1.5200782
1.521399
1.5212606
1.5193088
1.5200842
1.5203118
1.5217366
1.5200292
1.5213854
1.520141
1.5217567
1.521404
1.5213386
1.52015
1.5214852
1.5200438
1.5201152
1.521493
1.5213475
1.5227866
1.5226038
1.5232068
1.522817
1.5232376
1.5271243
1.5274963
1.5267272
1.5277712
1.5273852
1.5234472
1.5215118
1.5213661
1.5215242
1.5213765
1.5227897
1.526898
1.5274358
1.5270822
1.5266147
1.5268105
1.5268965
1.5255748
1.5256318
1.5217767
1.5217902
1.521435
1.5214246
1.5265911
1.5253739
1.5253876
1.5264451
1.5256565
1.5256211
1.526508
1.526418
1.5260031
1.5258765
1.5252404
1.5251123
1.5259697
1.5260091
1.5252719
1.5253399
1.5206821
1.5207398
1.5196556
1.5196009
1.5207107
1.5207221
1.5207235
1.5207422
1.5207305
1.5207195
1.5216385
1.5215884
1.5212421
1.5205932
1.5214528
1.52045
1.5245656
1.5241482
1.5242511
1.5247193
1.5251217
1.5263683
1.5263015
1.5251667
1.5255173
1.5267503
1.5266362
1.5256381
1.5257393
1.5257224
1.5265538
1.5264157
1.5251225
1.5261697
1.5261173
1.5252338
1.5264048
1.5264666
1.5256682
1.5257486
1.5176831
1.5178521
1.515768
1.5169925
1.5169475
1.5156707
1.5155169
1.5154804
1.5153817
1.5154609
1.515368
1.5149833
1.515106
1.5150165
1.516377
1.5166077
1.5162367
1.5155012
1.5167692
1.5155924
1.515597
1.5155448
1.5155402
1.5155607
1.5155557
1.516809
1.5167731
1.5145022
1.5158422
1.5159884
1.5147493
1.515548
1.516786
1.5168907
1.5157146
1.5165386
1.5157767
1.5159098
1.5148211
1.5145129
1.5169444
1.5168693
1.516565
1.5145571
1.5141663
1.5154686
1.5151771
1.5141319
1.5143895
1.5154167
1.5151752
1.5153912
1.5153041
1.5151856
1.5153616
1.5155546
1.5155447
1.5154941
1.5155127
1.5151714
1.5153984
1.5165378
1.5166843
1.5155354
1.5155141
1.5167859
1.5167693
1.5191154
1.5190247
1.520195
1.5201315
1.5191479
1.519095
1.5202088
1.5202268
1.5174198
1.517531
1.519394
1.5193722
1.5173005
1.5172882
1.519306
1.5192953
1.5191271
1.5190733
1.5201799
1.5201967
1.5190591
1.5190703
1.5201605
1.5201718
1.5190932
1.5190608
1.5201869
1.5201964
1.5190747
1.5190983
1.5201746
1.5201872
1.5190488
1.5190836
1.5201869
1.5201687
1.519457
1.5190658
1.5190742
1.5201739
1.5201872
1.5207591
1.5207106
1.519307
1.5192071
1.5192247
1.5206317
1.520636
1.5185808
1.5183168
1.5195146
1.5197325
1.518961
1.5202699
1.5190271
1.520368
1.5191357
1.5191351
1.52052
1.5205167
1.5185519
1.5182728
1.5195455
1.5193896
1.5204525
1.5193246
1.5192601
1.5194832
1.5194288
1.5194644
1.5196721
1.5194046
1.5196228
1.5207257
1.5205083
1.5207756
1.5190932
1.5192265
1.5190261
1.5191673
1.5203918
1.5205228
1.5204456
1.5205716
1.5191807
1.5193535
1.5191142
1.5192961
1.5204665
1.5207462
1.5204767
1.5207545
1.5205392
1.5204054
1.5203959
1.5205307
1.5205094
1.5204636
1.5205469
1.5205043
1.5214393
1.5192524
1.5190722
1.5190116
1.5191203
1.5190658
1.5204389
1.5205361
1.5204895
1.5203909
1.5188625
1.5189577
1.5188668
1.5189416
1.5190043
1.5190946
1.5190375
1.5190121
1.5191527
1.5189466
1.5190941
1.5204968
1.520489
1.5203962
1.520387
1.5204661
1.5204602
1.5205041
1.5204965
1.5214395
1.5212565
1.5209308
1.5211225
1.5212701
1.5210846
1.5228675
1.5198238
1.5215334
1.5213425
1.5209331
1.5211377
1.520592
1.5213857
1.5212287
1.5212726
1.5214342
1.5230562
1.5204613
1.5234242
1.5197018
1.5244175
1.52419
1.5246198
1.5249137
1.5250738
1.5249848
1.5275993
1.5282593
1.5279891
1.5278328
1.5264773
1.5264323
1.5212542
1.5213085
1.5216626
1.5217114
1.5204803
1.5203926
1.5203747
1.5204986
1.5205054
1.5204879
1.5204476
1.5204667
1.5214562
1.5205111
1.520385
1.5204055
1.5204913
1.5204965
1.520516
1.5204755
1.5204542
1.5214679
1.521281
1.521288
1.5254606
1.5270495
1.5269742
1.5255256
1.5268385
1.5269245
1.5253369
1.5254376
1.5204808
1.5204651
1.5207513
1.5207646
1.5207754
1.520475
1.5204945
1.5207572
1.5205578
1.5204188
1.5203979
1.520539
1.5205284
1.5204043
1.5203859
1.520545
1.5268149
1.5256037
1.5256056
1.5266683
1.5256899
1.5256608
1.5268084
1.5266837
1.5261375
1.5260514
1.5251869
1.5251018
1.52004
1.5199653
1.5200655
1.5200457
1.5193032
1.5192717
1.5191922
1.5192105
1.5200018
1.51999
1.520028
1.5200065
1.5200149
1.5200031
1.5200227
1.5200137
1.5200137
1.5199991
1.5204902
1.5199896
1.520013
1.5204236
1.5203509
1.5203448
1.5193687
1.520005
1.5201122
1.5191043
1.5202413
1.5202411
1.5191894
1.5190014
1.5249884
1.5258134
1.5258702
1.5249285
1.5249553
1.5261731
1.5261725
1.525019
1.5254665
1.526623
1.5265411
1.5255732
1.5249591
1.5259951
1.5259949
1.5250809
1.5164843
1.5163795
1.5156524
1.5155354
1.5155308
1.5170116
1.5169685
1.5155539
1.5153939
1.5154615
1.5154706
1.5153699
1.5149809
1.5154068
1.5153366
1.5154355
1.515316
1.5149913
1.5149703
1.5149576
1.5150002
1.5150055
1.5149493
1.5150225
1.5154165
1.5149534
1.5148918
1.5148758
1.5148977
1.5148768
1.515321
1.5166418
1.5161879
1.5161003
1.515267
1.5155778
1.5168151
1.5151708
1.5151821
1.515988
1.5159871
1.5155018
1.51549
1.5155312
1.5155113
1.5156388
1.5168362
1.5156789
1.5169206
1.5155295
1.515526
1.5155711
1.5155742
1.5155505
1.5155486
1.5155484
1.5155434
1.5155641
1.5155727
1.5157133
1.5157145
1.5169429
1.5168982
1.5157192
1.5169021
1.5156971
1.5168865
1.5143257
1.5155922
1.5157757
1.5145718
1.5154465
1.5152349
1.5153437
1.5168248
1.5169127
1.5156082
1.5154861
1.5154987
1.5163381
1.5168524
1.5166793
1.5160074
1.5155434
1.5157084
1.5146475
1.5143423
1.5165901
1.5171807
1.5170779
1.5164807
1.5164435
1.5163441
1.5167695
1.5166411
1.5158827
1.5165673
1.5163689
1.5162274
1.5144332
1.5145865
1.5145772
1.5142742
1.5140459
1.5141647
1.5141456
1.5140156
1.5145587
1.5141703
1.515738
1.5154418
1.5139404
1.5154074
1.5139761
1.5153534
1.513985
1.514117
1.5141273
1.5139981
1.5141336
1.5143152
1.5144242
1.5143264
1.5143011
1.5155019
1.5140451
1.5158054
1.5139159
1.5139324
1.5153888
1.5153853
1.5151716
1.5153551
1.5154807
1.5154989
1.5151165
1.5152203
1.5150917
1.5152715
1.5153795
1.5154001
1.5154107
1.5154432
1.5152389
1.5154578
1.5166842
1.5168115
1.5155798
1.5156036
1.5168568
1.5168574
1.5155211
1.5155251
1.5155526
1.5155468
1.5155073
1.515499
1.5155223
1.5155359
1.5156792
1.515685
1.5169232
1.5168792
1.5156956
1.5169003
1.5156962
1.5169127
1.5178265
1.5179079
1.5197735
1.5197566
1.5177704
1.5178007
1.5196991
1.5196635
1.5197899
1.5179627
1.5178728
1.519774
1.5178565
1.5177734
1.5197379
1.5197522
1.517292
1.5174344
1.5171782
1.5171922
1.5197526
1.5179884
1.5178902
1.5197383
1.5197159
1.5178379
1.5178512
1.5197073
1.5196963
1.5178039
1.5178026
1.5196939
1.5196937
1.5178359
1.5178761
1.5196982
1.51784
1.5179012
1.519733
1.5197241
1.5178315
1.517795
1.5197138
1.5197112
1.5178265
1.5178283
1.5197191
1.5197148
1.5197203
1.5178859
1.5179553
1.5197209
1.5178243
1.5178067
1.5187216
1.5197014
1.5197067
1.5178847
1.5178406
1.5197335
1.5197308
1.5199061
1.5185408
1.5198648
1.5178081
1.5178456
1.519722
1.5197155
1.5179006
1.5178376
1.5197107
1.5197106
1.5184023
1.5184025
1.5197652
1.5197602
1.5182944
1.5183152
1.5196745
1.5196853
1.5183378
1.5183029
1.519681
1.5196846
1.5179166
1.5187314
1.5180674
1.5188658
1.517773
1.5185055
1.5177891
1.5185002
1.5193568
1.5181978
1.5181744
1.5193964
1.5181955
1.5182078
1.5194833
1.5194798
1.518266
1.5182399
1.5195871
1.5195873
1.5195998
1.5182524
1.518277
1.5195913
1.5187616
1.5181691
1.5179106
1.5186108
1.5177758
1.5177576
1.5184484
1.5184321
1.5197134
1.5198677
1.5196235
1.5197913
1.5189149
1.5190152
1.5189867
1.5188805
1.5188196
1.518925
1.5187849
1.518895
1.5191131
1.5190193
1.5191388
1.5189883
1.5188947
1.5190255
1.5189264
1.5190533
1.5197639
1.5191427
1.5192278
1.5192052
1.5191151
1.5199915
1.5192298
1.5193356
1.5193104
1.5192048
1.5190554
1.5190262
1.5191459
1.5191212
1.5191445
1.5191201
1.5192514
1.5192318
1.519846
1.5200606
1.5197261
1.5198875
1.5197
1.5198658
1.5198657
1.5200857
1.5198432
1.5200671
1.5193902
1.5184389
1.5184036
1.5185557
1.5185239
1.5185025
1.5195309
1.5186384
1.5185385
1.5186711
1.5184228
1.5183402
1.5184606
1.5182966
1.5184388
1.5185765
1.5185403
1.5183991
1.5194896
1.5196201
1.5195729
1.5194776
1.5197451
1.5196613
1.5194981
1.5194642
1.5196331
1.5196041
1.5195838
1.5197595
1.5195538
1.5197342
1.5186606
1.5187684
1.5187348
1.5186234
1.5188762
1.5187684
1.5189078
1.5187298
1.5186373
1.5185613
1.5186718
1.5185225
1.5186663
1.5188147
1.5187824
1.5186301
1.5196515
1.5198185
1.5196304
1.5198007
1.5197946
1.5197788
1.5200237
1.5200095
1.5196754
1.5198412
1.5196479
1.5198182
1.5198192
1.5200474
1.5197951
1.5200272
1.5195288
1.519709
1.5194982
1.5196832
1.5194416
1.5195779
1.5194086
1.5195495
1.5194203
1.5195576
1.519391
1.5195308
1.5195059
1.5196869
1.5194808
1.5196639
1.5196308
1.519579
1.520602
1.5197513
1.5196916
1.5196245
1.5195333
1.52056
1.5196563
1.5197482
1.5194577
1.5194073
1.519516
1.5194738
1.5194528
1.5193531
1.5195089
1.5194152
1.5205301
1.5168589
1.5168538
1.5172601
1.5172521
1.5168748
1.5172488
1.5175817
1.5175663
1.5172357
1.5171295
1.5174741
1.5174509
1.5171133
1.5175639
1.5178484
1.5178255
1.5175418
1.5174513
1.5177474
1.5177145
1.5174234
1.5194034
1.5194978
1.5193611
1.5194612
1.5194155
1.5193777
1.5195605
1.519528
1.5194085
1.5193078
1.5195503
1.519458
1.519398
1.5194892
1.519297
1.519396
1.5176304
1.5178265
1.517835
1.5176208
1.5178051
1.5179991
1.5177944
1.5179903
1.5181054
1.5179713
1.5181137
1.5179611
1.5176865
1.5177244
1.5178965
1.5179359
1.5178007
1.5178303
1.5180343
1.518006
1.5179777
1.5181717
1.5180113
1.5182019
1.5179081
1.5181064
1.5180637
1.5178646
1.5181813
1.5181468
1.5183213
1.5182905
1.5182642
1.5184234
1.5182991
1.5184544
1.518183
1.5180815
1.5182259
1.5180352
1.5181989
1.5183601
1.5183189
1.5181535
1.5193574
1.5193219
1.5195045
1.5194742
1.5193372
1.5194853
1.5193048
1.5194548
1.5193471
1.5194404
1.5193081
1.5194072
1.5193274
1.5194214
1.5193882
1.5192918
1.5195766
1.5195277
1.5205576
1.5196963
1.5196369
1.5195518
1.5195081
1.5205541
1.5196675
1.5196183
1.5194027
1.51946
1.5193557
1.5194218
1.5193801
1.5194398
1.51934
1.5194024
1.5204869
1.5204886
1.5205764
1.5205637
1.5205693
1.5205781
1.5188004
1.5199216
1.5197696
1.5198196
1.5211047
1.519951
1.5199938
1.5200384
1.5200316
1.5199861
1.52127
1.5200104
1.5198841
1.5198927
1.5200036
1.5198052
1.5199137
1.5189936
1.519799
1.519674
1.5210904
1.5209397
1.5198802
1.5187632
1.5185564
1.5202921
1.5199573
1.5199613
1.5202901
1.5198467
1.5201665
1.5197379
1.5193614
1.5200691
1.51979
1.5199358
1.5189769
1.519833
1.5196737
1.5200488
1.5198877
1.5198798
1.5200441
1.5191304
1.518715
1.5200874
1.5199763
1.5199646
1.520101
1.5201269
1.5201142
1.520074
1.5200852
1.5213743
1.5202099
1.5201343
1.5201841
1.5214103
1.5202568
1.5201197
1.520164
1.5200391
1.5202368
1.521195
1.5212217
1.5186234
1.5188079
1.5191886
1.5190295
1.5248254
1.5243929
1.5246886
1.5251747
1.5186664
1.5184766
1.5259765
1.5259192
1.5248671
1.5248052
1.5248614
1.5247293
1.5248728
1.5265003
1.5247036
1.5265004
1.5262362
1.5262207
1.5201326
1.5199632
1.5199749
1.5201435
1.5201224
1.520043
1.5202133
1.5202829
1.5200568
1.5200478
1.520391
1.5203997
1.5204686
1.5201301
1.5202062
1.5205299
1.5192433
1.5194058
1.5193024
1.5194593
1.5192954
1.5192743
1.5193958
1.5193749
1.5192307
1.5193334
1.5192896
1.5193895
1.5193111
1.5194667
1.519289
1.5194444
1.5193437
1.5194095
1.5193227
1.5193888
1.519293
1.5193546
1.5193435
1.5194078
1.5194826
1.5195227
1.520542
1.5196163
1.5196437
1.5195185
1.5194968
1.5205644
1.5196122
1.5196353
1.5204685
1.5204986
1.5193247
1.5193131
1.5194791
1.5194694
1.5193043
1.519282
1.5194051
1.5193825
1.5193077
1.5194078
1.5192959
1.5193981
1.5193222
1.5192996
1.5194761
1.5194528
1.5193482
1.5194158
1.5193255
1.5193928
1.5193549
1.5194206
1.5193396
1.5194095
1.5195282
1.5195116
1.5205715
1.5196431
1.519621
1.5195189
1.5194945
1.5205509
1.5196296
1.5196049
1.5205033
1.5204823
1.5205637
1.5205526
1.5205872
1.5205927
1.5205701
1.5205911
1.5205978
1.5205772
1.5206555
1.5251489
1.52708
1.5270074
1.5252371
1.5267012
1.5267698
1.5252521
1.5253613
1.5196514
1.5196304
1.5198235
1.5198057
1.5196084
1.5197889
1.5196474
1.5198196
1.5197668
1.5200089
1.5197975
1.5200322
1.5198003
1.5200342
1.5197827
1.5200188
1.5198107
1.5198012
1.5200432
1.520035
1.5196578
1.5196389
1.5198274
1.519811
1.5196621
1.519833
1.5196518
1.5198243
1.5198044
1.5197891
1.5200356
1.5200217
1.5195097
1.519696
1.5194984
1.519687
1.5194155
1.5195591
1.5194039
1.5195493
1.5194132
1.5195556
1.5193899
1.5195334
1.519506
1.5194845
1.5196915
1.5196715
1.5194426
1.5196417
1.5194905
1.5196811
1.5194027
1.5195473
1.5193792
1.5195253
1.5194926
1.5193391
1.5193941
1.5195399
1.5194969
1.5196853
1.5194743
1.5196646
1.5271017
1.5256081
1.5256326
1.5269582
1.5196802
1.5196615
1.519563
1.5196037
1.5196938
1.5196756
1.5196522
1.5196544
1.5196017
1.5195911
1.5195893
1.5196002
1.5196556
1.5196376
1.5196128
1.5196057
1.5196195
1.5196113
1.5196165
1.5196203
1.5196326
1.519622
1.5196114
1.5196091
1.51962
1.5196113
1.5196057
1.5196082
1.5196574
1.5197122
1.5196008
1.5196035
1.5196315
1.5196303
1.5195498
1.5195555
1.5194633
1.5194733
1.5194687
1.5194706
1.518516
1.5186772
1.5191693
1.5192071
1.5192907
1.5192844
1.5183093
1.5183059
1.5193817
1.5193831
1.5193942
1.5193857
1.5184155
1.5185951
1.5182471
1.5182643
1.5248925
1.5258869
1.5259697
1.5247887
1.5246966
1.5259964
1.5259894
1.5248254
1.517058
1.5173732
1.5155344
1.5155378
1.5155585
1.5154933
1.5154959
1.5154036
1.5154628
1.5154611
1.5154314
1.5153565
1.5149722
1.5154567
1.5154643
1.5154909
1.5154778
1.5155165
1.5155007
1.5153474
1.5153914
1.5154117
1.5153302
1.5154289
1.5153249
1.5149794
1.5149792
1.5149934
1.5149615
1.5154382
1.5154514
1.5154708
1.5154468
1.5153412
1.5153009
1.5153536
1.5152814
1.5149518
1.5150001
1.5152671
1.5150045
1.5149446
1.5150385
1.5152614
1.5153584
1.515369
1.5149577
1.5148869
1.5148704
1.5149026
1.5148789
1.5154054
1.5155524
1.5156606
1.5164683
1.5163939
1.5158361
1.5157104
1.5152897
1.5155045
1.5154824
1.5154509
1.5154625
1.5166263
1.5158186
1.5157421
1.5165302
1.5152004
1.5152371
1.515639
1.5156096
1.5155516
1.5155346
1.5155482
1.5155328
1.5155183
1.515512
1.5155236
1.5155349
1.5155455
1.5155313
1.5155684
1.5155502
1.5158393
1.5158219
1.5165649
1.5166211
1.515587
1.5155631
1.5155817
1.5155588
1.5167311
1.5159137
1.5166677
1.515893
1.5155199
1.5155187
1.5155316
1.5155344
1.5155589
1.5155556
1.5155146
1.5155184
1.515534
1.5155282
1.5155507
1.5155577
1.515584
1.5155699
1.515571
1.5155863
1.5155888
1.5155738
1.5155891
1.5155742
1.5155661
1.5155811
1.5155765
1.5155636
1.5155728
1.5155732
1.5155881
1.5155875
1.5156172
1.5155943
1.5155973
1.5156215
1.5156237
1.5155995
1.5155995
1.5156234
1.516781
1.5159596
1.5159312
1.5167092
1.5166838
1.5159401
1.5159213
1.5166768
1.5155988
1.5155978
1.5156209
1.5156224
1.5166383
1.5158864
1.5159152
1.5166587
1.515615
1.5155918
1.5155855
1.5156075
1.516682
1.5159311
1.5158992
1.5166838
1.5142011
1.5140518
1.5140424
1.515594
1.5157544
1.5144377
1.514219
1.5143538
1.5153507
1.5152528
1.515196
1.5153251
1.5155011
1.5154906
1.5154506
1.5154638
1.5162724
1.5167672
1.5165547
1.5159408
1.5155421
1.515691
1.5145141
1.5145324
1.5143404
1.5142181
1.5140729
1.5140933
1.5164978
1.5170696
1.5169577
1.5164
1.5164125
1.5164397
1.5164017
1.5163564
1.5163274
1.5163394
1.5162879
1.5163045
1.5163617
1.516312
1.516837
1.5167085
1.5162741
1.5162559
1.5166597
1.5166396
1.5159518
1.515806
1.5157652
1.5160011
1.5161935
1.5161545
1.5166079
1.516563
1.5160135
1.5157229
1.5165318
1.5163192
1.5162079
1.5162312
1.5161807
1.5162146
1.5145452
1.5142314
1.5140171
1.5139886
1.5146136
1.5144398
1.5146462
1.5143462
1.5141719
1.5141363
1.5141146
1.514058
1.5147817
1.5159853
1.5144339
1.515727
1.514165
1.5142348
1.5156206
1.5155783
1.5139323
1.5139357
1.5138904
1.5138861
1.5140747
1.514047
1.5155805
1.515521
1.5139573
1.5139715
1.5139312
1.5139076
1.5140285
1.5140117
1.5155229
1.5155118
1.5139583
1.513969
1.5140934
1.5142898
1.5141969
1.5143328
1.5143684
1.5141379
1.5140839
1.5156223
1.5156659
1.5141395
1.5140365
1.5140157
1.5139583
1.5139936
1.5142857
1.5158595
1.5145666
1.5161868
1.513907
1.5139086
1.5138682
1.5138659
1.513925
1.5139151
1.5138724
1.5138891
1.5140133
1.5140076
1.5155045
1.5155712
1.5155347
1.515526
1.5140264
1.5140249
1.5152045
1.5151468
1.515219
1.5150919
1.5150926
1.5152535
1.5153513
1.5153365
1.5153868
1.5153619
1.5153947
1.5154235
1.5154733
1.5154682
1.5154918
1.5154818
1.5155074
1.5155195
1.515489
1.5154857
1.5155033
1.5155303
1.515508
1.5155355
1.515111
1.5150628
1.515041
1.5151386
1.5152893
1.5152691
1.5152874
1.5153219
1.5154272
1.5154099
1.5154407
1.5154168
1.5154421
1.5154496
1.5154746
1.5154629
1.5150384
1.5150314
1.5151608
1.5151992
1.5153383
1.515305
1.5153464
1.5153872
1.5164522
1.5154683
1.5156139
1.5165328
1.5157692
1.5157327
1.5165907
1.5166298
1.5154677
1.5154402
1.5154576
1.5154881
1.5154782
1.5154923
1.5155237
1.515506
1.516633
1.5158217
1.5158275
1.5166185
1.5166452
1.5158512
1.5158773
1.5166921
1.5155512
1.5155532
1.51557
1.5155672
1.5155471
1.5155459
1.5155615
1.5155636
1.5155347
1.5155206
1.5155244
1.5155419
1.5155523
1.5155357
1.5155372
1.5155544
1.5155704
1.5155452
1.5155544
1.5155816
1.5155915
1.5155641
1.5155665
1.5155927
1.5166987
1.5159021
1.5158962
1.5166632
1.5159025
1.5159034
1.5166421
1.5166589
1.5155752
1.5155728
1.5155974
1.5156008
1.5166516
1.5158886
1.5159156
1.5166682
1.5156052
1.5155789
1.5155821
1.5156073
1.5159398
1.515942
1.5167117
1.5167502
1.5177229
1.5177893
1.5176421
1.517687
1.5178386
1.5177633
1.517749
1.517716
1.5162507
1.5173933
1.5164089
1.5175265
1.5161375
1.5172785
1.5161624
1.5172914
1.5178406
1.5177687
1.5177073
1.5177302
1.5177175
1.5176836
1.5177092
1.5177775
1.5177144
1.5177599
1.5177042
1.5176773
1.5176916
1.5177202
1.5177466
1.5178176
1.5176651
1.517511
1.517631
1.5172946
1.5194102
1.5194377
1.5177324
1.5176828
1.5170804
1.5169994
1.5193209
1.5193316
1.5176629
1.5176938
1.5177509
1.5176919
1.516874
1.5169307
1.5192096
1.5192058
1.5169226
1.5168437
1.5192101
1.5192197
1.5167726
1.516738
1.5191185
1.5191224
1.5168684
1.5167707
1.5191195
1.5191269
1.516826
1.5168986
1.5191326
1.5191302
1.5168042
1.5167509
1.519123
1.5191235
1.5181064
1.5174942
1.5174865
1.5181136
1.5175605
1.5176157
1.518257
1.5183277
1.5173904
1.5173955
1.5179441
1.5179438
1.5174347
1.5174131
1.5179558
1.5179501
1.5169745
1.5170903
1.5188316
1.5188468
1.5188849
1.5168772
1.5168721
1.5188891
1.5167641
1.5168144
1.5189628
1.5189623
1.5168481
1.5167876
1.518966
1.51897
1.5167901
1.5168388
1.5190476
1.5190495
1.516769
1.5167388
1.5190482
1.519046
1.5167391
1.5167815
1.5190616
1.519058
1.5168744
1.5167882
1.5190627
1.5190665
1.5183649
1.5178826
1.5177043
1.5182653
1.5175493
1.5175126
1.5180585
1.5180892
1.5174272
1.5174091
1.517927
1.517935
1.5174042
1.5174064
1.5179117
1.5179187
1.5193886
1.5193075
1.5194061
1.5192872
1.5194084
1.5195251
1.5195089
1.5193894
1.519165
1.51927
1.5192285
1.5193249
1.5193267
1.5194453
1.5192676
1.5193942
1.5168535
1.516922
1.5168178
1.5167528
1.5166485
1.5167114
1.51662
1.5166854
1.5169998
1.5170014
1.5171147
1.5168915
1.5167612
1.5168731
1.5167851
1.5168943
1.5193923
1.5194842
1.5194475
1.5195309
1.517233
1.5173687
1.5172452
1.5171128
1.5196393
1.5195315
1.5194815
1.5195994
1.5174667
1.5173384
1.517009
1.5169898
1.5171418
1.5171259
1.517236
1.517221
1.5195963
1.5195274
1.5196106
1.5195102
1.5197153
1.5196113
1.5195957
1.5196996
1.5193846
1.5192982
1.5194013
1.5192779
1.5194038
1.5193867
1.5195268
1.5195126
1.5193561
1.519259
1.5193659
1.5192481
1.5194949
1.5193684
1.5193594
1.5194853
1.5196055
1.5195294
1.519617
1.5195151
1.5196176
1.5196052
1.5197272
1.5197128
1.5194887
1.5195796
1.5194976
1.5195879
1.5196937
1.5195862
1.5195807
1.5196899
1.5186906
1.5187673
1.5188802
1.5188113
1.5167436
1.5166675
1.5167509
1.5166722
1.5166767
1.5187887
1.5189933
1.5188623
1.5189266
1.5166812
1.516758
1.5167648
1.5165387
1.5165574
1.5165633
1.5165329
1.5165692
1.5165751
1.5165488
1.5165434
1.51885
1.5189642
1.5189453
1.5188273
1.519075
1.5189449
1.518925
1.519056
1.5191478
1.5190623
1.5190412
1.5191672
1.5189113
1.5190238
1.5189825
1.5190864
1.5193025
1.5192835
1.5191648
1.5191431
1.5190854
1.5192231
1.5190193
1.5191641
1.5188431
1.518957
1.518936
1.5188192
1.5187934
1.5189103
1.5188934
1.5187735
1.519067
1.5189353
1.5189132
1.5190461
1.5190222
1.5188874
1.5188724
1.5190065
1.5191366
1.5190519
1.5191582
1.5190289
1.519153
1.5191287
1.5192942
1.5192738
1.5189907
1.5190998
1.5190053
1.5191129
1.5192533
1.519105
1.5190941
1.5192409
1.5167708
1.5167787
1.5166916
1.5166849
1.5167175
1.5167868
1.5168122
1.5166976
1.516559
1.5165804
1.5165877
1.5165525
1.5165952
1.5166138
1.516585
1.5165651
1.5192933
1.5191987
1.5193061
1.519183
1.5193076
1.5194351
1.5194243
1.5192948
1.5191777
1.5192866
1.5191763
1.5192859
1.5192879
1.5194175
1.5192912
1.5194187
1.5195194
1.5194368
1.5195284
1.519426
1.5194229
1.5194197
1.519513
1.5195151
1.5195273
1.5196395
1.5195175
1.519629
1.5195176
1.5196257
1.5196315
1.5195115
1.5192442
1.5192282
1.5193474
1.5193344
1.519336
1.5194634
1.5193494
1.5194744
1.5192938
1.519202
1.5193091
1.5191849
1.5193109
1.5192955
1.5194397
1.5194252
1.5194768
1.5195663
1.5194658
1.5195573
1.5195577
1.5196713
1.5195674
1.5196844
1.5194279
1.5195221
1.5194423
1.5195347
1.5195343
1.5196479
1.519639
1.5195232
1.5189978
1.5189796
1.5191038
1.5190866
1.5190796
1.519225
1.5190994
1.519241
1.5189279
1.5190378
1.5189487
1.5190563
1.5190487
1.519031
1.5191977
1.5191805
1.5187863
1.5187689
1.518901
1.5188855
1.5188629
1.5189958
1.5188802
1.5190118
1.5188302
1.5187363
1.5188532
1.5187107
1.51883
1.5188077
1.5189648
1.5189437
1.5188415
1.5187411
1.5188565
1.518725
1.5188325
1.5189653
1.5189511
1.5188171
1.5188227
1.5187168
1.5188313
1.5187058
1.5188073
1.5189404
1.5188022
1.5189345
1.5190397
1.5189474
1.5190545
1.518932
1.5191942
1.5190462
1.5190293
1.5191782
1.5189193
1.5190268
1.5189222
1.5190293
1.5191705
1.5190201
1.5190215
1.5191686
1.5173469
1.5173446
1.5177338
1.5177249
1.5176702
1.5176565
1.5172809
1.5172814
1.5198464
1.5197719
1.5197873
1.5197047
1.5173589
1.5172931
1.5173042
1.5173016
1.5177011
1.5176925
1.5175892
1.5175644
1.5171825
1.5171759
1.5197622
1.5198379
1.5171944
1.5173161
1.5177234
1.5180418
1.518027
1.5177124
1.5176592
1.5179808
1.5179596
1.5176457
1.5182753
1.5180231
1.5182962
1.5180046
1.5182118
1.5179615
1.5182389
1.5179394
1.5176917
1.5180198
1.5180052
1.5176803
1.5175805
1.5179156
1.517874
1.5175492
1.5182623
1.5180035
1.5182834
1.5179845
1.5179009
1.5181866
1.5181294
1.5178502
1.5198446
1.5197842
1.5197794
1.5197159
1.5167531
1.5167236
1.5167512
1.5167189
1.5166501
1.5167607
1.5166988
1.5165779
1.5167457
1.5167399
1.5166987
1.5167092
1.516592
1.5165822
1.5165689
1.5165807
1.5167341
1.5167298
1.5166805
1.5166887
1.5165725
1.5165646
1.5165483
1.5165578
1.518276
1.5182512
1.5184711
1.5184464
1.5184454
1.518418
1.518629
1.5186036
1.5182178
1.5184159
1.5183867
1.5181897
1.5185763
1.5185474
1.5183889
1.5183599
1.5187145
1.5186047
1.5187387
1.5185777
1.5185507
1.5186874
1.5186621
1.5185229
1.5187123
1.5188637
1.518687
1.5188411
1.518815
1.5187931
1.5186597
1.5186362
1.5186059
1.5187413
1.5187165
1.5185777
1.5184399
1.5185181
1.5186541
1.5185817
1.5187168
1.5188682
1.5188465
1.5186912
1.5185535
1.5186311
1.5187838
1.5187124
1.5182657
1.518466
1.5182401
1.5184406
1.5184139
1.5184425
1.5186279
1.5186019
1.5183058
1.5181706
1.5183729
1.5181043
1.5185389
1.5183505
1.5182759
1.5184671
1.5164971
1.5164841
1.5164895
1.5164911
1.5164829
1.5164788
1.5164781
1.5164745
1.516472
1.516476
1.5164752
1.5164721
1.51654
1.5165574
1.5165334
1.516552
1.516673
1.516726
1.5167234
1.5166672
1.5166622
1.5166596
1.5167215
1.5167218
1.5165475
1.5165454
1.5165249
1.5165278
1.5167233
1.5166582
1.5167265
1.5166587
1.5166598
1.516663
1.5167305
1.5167364
1.5165238
1.5165446
1.5165458
1.5165232
1.5165477
1.5165518
1.5165285
1.5165247
1.518544
1.5186785
1.5186607
1.5185236
1.5184644
1.5184931
1.5186295
1.5186024
1.5187898
1.5186529
1.5188058
1.5186342
1.5185748
1.518758
1.5186016
1.5187322
1.5185064
1.5184887
1.5186393
1.5186235
1.5185945
1.5187637
1.5186109
1.5187486
1.5185973
1.5184855
1.5186165
1.5184634
1.5185877
1.5187395
1.5187251
1.5185719
1.5183897
1.518211
1.5184077
1.5181927
1.5183828
1.518362
1.5185673
1.5185487
1.5183311
1.5181615
1.5183591
1.5181352
1.5185186
1.5183313
1.5183028
1.5184902
1.5183773
1.5181833
1.5181692
1.5183618
1.5183326
1.5185158
1.5183501
1.5185324
1.5184875
1.5183333
1.518308
1.5185124
1.5181489
1.5183615
1.5181732
1.5183349
1.5172659
1.5172643
1.5176596
1.5176546
1.5176175
1.517606
1.5172275
1.5172279
1.5197884
1.5197082
1.5196467
1.5197318
1.517277
1.5172398
1.517269
1.5172693
1.5176496
1.5176461
1.5176601
1.5176473
1.5172935
1.5172948
1.5197621
1.5196865
1.5196422
1.5197161
1.517282
1.5173068
1.5179634
1.5176492
1.5179722
1.5176426
1.5179541
1.5179417
1.51823
1.5182161
1.5179083
1.5176054
1.5179264
1.517594
1.5181831
1.5179063
1.5178867
1.5181587
1.5179464
1.5176385
1.5179528
1.5176345
1.5182042
1.5179336
1.5179249
1.5181932
1.5179326
1.5176481
1.517952
1.5176365
1.5181951
1.5179319
1.5179129
1.5181705
1.5197767
1.519706
1.5196477
1.5197208
1.5196563
1.5196956
1.5197605
1.5197178
1.5197796
1.5197042
1.5196515
1.5197271
1.5197914
1.5197381
1.5196977
1.5197456
1.5197232
1.5197416
1.5197934
1.5197639
1.5197718
1.5197049
1.5196727
1.519735
1.5181544
1.5183469
1.5182225
1.5183907
1.5188046
1.5188341
1.5188059
1.5200513
1.5189519
1.5189832
1.5187553
1.5187632
1.5199019
1.5189013
1.5188786
1.5185624
1.5185587
1.5186313
1.5186248
1.5198127
1.5199815
1.5186199
1.5185901
1.5186837
1.5186562
1.5188456
1.5188428
1.5201213
1.5189862
1.5189943
1.518627
1.5186982
1.5186229
1.518699
1.5186135
1.5186905
1.5185893
1.5186675
1.5188323
1.5188092
1.5201164
1.5189536
1.5189791
1.5200405
1.5200358
1.5185624
1.5187442
1.5185601
1.5187444
1.5185461
1.5185216
1.5186664
1.5186429
1.5185534
1.5186693
1.5185517
1.5186703
1.5185598
1.5187448
1.5185346
1.5187199
1.5185412
1.5186485
1.5185114
1.518621
1.5185423
1.5187138
1.5185121
1.5186857
1.5182763
1.5181687
1.5183474
1.5184314
1.5184997
1.5186622
1.5184849
1.5186543
1.5185
1.5186007
1.5184863
1.5185897
1.5201653
1.5201637
1.5201664
1.5201702
1.5199515
1.5201164
1.5201114
1.5185403
1.5183427
1.518597
1.5180927
1.5179961
1.5179965
1.518093
1.5179939
1.5179974
1.5180463
1.5180474
1.5191295
1.5194077
1.5191296
1.5194093
1.5189604
1.518941
1.5191676
1.519152
1.5189521
1.5191576
1.5189511
1.5191581
1.51914
1.5194189
1.519126
1.5194077
1.5188954
1.519088
1.5188738
1.5190721
1.5190567
1.5193202
1.5190425
1.5193105
1.5188123
1.5189918
1.518827
1.5190118
1.5184653
1.5183017
1.5185425
1.5186824
1.5189515
1.5192096
1.5189784
1.5192395
1.5186326
1.5187935
1.5186024
1.5187673
1.5187294
1.5189406
1.5187027
1.5189183
1.5183916
1.5182234
1.5183443
1.5184906
1.5186637
1.5188642
1.5186661
1.5188743
1.5185824
1.5187301
1.5185743
1.5187298
1.518771
1.5189952
1.5187688
1.5189955
1.518663
1.518834
1.5186603
1.5188335
1.5186383
1.5186642
1.5188377
1.5188139
1.5187752
1.5187518
1.5190021
1.5189816
1.518104
1.518103
1.5183332
1.5183362
1.5181441
1.518043
1.5180427
1.5181447
1.5185942
1.518787
1.5185975
1.5187916
1.5185998
1.5185809
1.5187225
1.5187031
1.5185813
1.5187035
1.5185863
1.5187097
1.5186129
1.5185923
1.5188048
1.5187834
1.51867
1.5187482
1.5186521
1.5187298
1.5186537
1.5187303
1.5186583
1.5187377
1.5188797
1.5188847
1.519031
1.5202056
1.5190335