/*--------------------------------*- C++ -*----------------------------------*\
  =========                 |
  \\      /  F ield         | OpenFOAM: The Open Source CFD Toolbox
   \\    /   O peration     | Website:  https://openfoam.org
    \\  /    A nd           | Version:  7
     \\/     M anipulation  |
\*---------------------------------------------------------------------------*/
FoamFile
{
    version     2.0;
    format      ascii;
    class       volScalarField;
    location    "10000";
    object      omega;
}
// * * * * * * * * * * * * * * * * * * * * * * * * * * * * * * * * * * * * * //

dimensions      [0 0 -1 0 0 0 0];

internalField   nonuniform List<scalar> 
34222
(
587.32609
500.48307
582.36077
478.20431
473.41271
509.35545
512.50244
460.2937
498.98747
447.01287
449.08529
467.07619
466.08443
572.77778
499.71547
475.39314
471.43801
505.41389
463.50968
460.27921
470.89309
478.12703
2224.6647
460.59582
419.40413
439.79944
423.27489
421.66913
438.09229
499.08119
465.29735
448.71622
448.68502
467.22851
440.3364
446.23442
455.36045
450.83164
558.98675
501.73848
475.39296
474.21446
501.35753
467.5806
462.44834
457.34524
474.86646
509.59962
505.55033
512.27516
512.44339
4573.6717
3997.8875
4085.5537
2200.2014
846.84376
867.74934
461.11433
419.92592
439.80638
423.47364
422.55229
439.32039
403.78504
414.28946
412.91879
402.31639
437.23928
430.60798
423.15432
429.73633
879.65202
896.44466
499.27961
450.72155
450.62857
467.84724
467.58334
449.10435
440.85339
440.48028
451.49028
511.01762
532.3303
536.08958
507.67143
470.72896
475.65483
501.14307
495.90138
479.04685
467.28832
463.51796
472.69635
513.28711
509.8995
511.30455
515.54909
572.32375
562.88382
592.19616
598.15601
1305.0114
9285.4984
1308.7887
4726.7319
9418.622
7371.8119
12717.582
1876.8802
7715.5601
1938.2899
7808.2069
7563.9784
1941.4361
4085.2518
1967.8813
3992.7603
860.36799
847.57137
2180.3872
787.3523
726.24196
461.29722
737.59435
420.19168
440.88684
423.65065
424.29451
441.56
803.05237
403.77872
404.1791
414.56129
414.00061
434.8557
426.11882
424.87366
435.57559
409.38483
423.6146
416.08861
405.46494
533.05856
575.73984
508.43142
499.27047
2055.4961
4850.5391
2134.9984
2155.2676
2132.6956
900.005
886.57183
496.95324
447.30447
451.3248
468.27154
463.5548
443.67279
449.05899
456.94654
452.15938
514.45554
501.82604
520.84759
519.74326
560.91833
593.08918
582.87927
558.58076
468.44113
469.49677
480.34624
480.72189
540.56607
536.37295
551.00222
532.4066
606.69931
589.14625
593.47945
615.76213
588.4129
588.7216
2099.1191
704.26548
709.27594
2118.4988
4666.66
31625.517
18196.846
4634.1619
18447.365
1315.7934
2096.9713
703.73907
707.93853
2130.0282
1326.9485
4732.6009
9482.0708
9440.2103
4649.5748
4700.2212
18481.598
18613.271
12376.15
12949.339
4327.9878
4234.7361
20406.135
21391.466
8008.2146
7786.0023
4493.1468
13119.186
13512.329
4577.8149
13417.472
13450.421
4541.1229
4612.9905
12590.276
13422.469
4360.2706
4536.9715
7631.4532
1946.9286
7764.5313
1959.8825
3930.3026
1884.1062
7393.5541
1926.5279
7646.0515
829.95394
845.11138
4075.3811
5091.4349
4614.9138
1875.0341
4775.6969
1881.3391
4674.4839
1948.8243
1954.3234
1433.2229
3463.1058
1580.4309
4067.2538
4228.1083
1639.2088
1476.2069
616.62789
730.84075
795.13314
738.319
459.69335
438.96201
422.19529
419.79932
424.58199
442.01352
802.4647
1651.321
1488.8995
1649.8442
1483.0141
624.90217
405.1113
404.8458
415.19632
415.69531
436.08834
428.34617
423.71957
432.87354
1953.9504
1965.3097
1968.0154
1959.3037
408.60004
420.88016
423.74054
419.18703
500.13152
490.63055
504.45974
526.41307
498.51975
524.00881
474.95698
455.41542
613.55348
634.67839
577.96409
565.18564
4717.8829
4840.6921
8561.6301
8817.7268
5093.2313
5038.691
5135.2396
5077.0492
5060.8184
4885.6267
2152.2795
2164.3193
2084.8803
876.03679
2129.3886
891.89183
462.96205
463.95197
447.24748
446.19715
445.87229
450.40968
459.69186
456.92914
535.80297
505.31969
517.86709
542.96606
582.08879
617.20897
620.80397
583.71482
525.84192
527.45319
533.41906
527.4621
647.97076
610.97757
627.76359
641.56434
582.9424
583.73124
2247.4235
729.40089
734.65815
2266.6134
3697.116
6885.4644
6835.8163
3704.9035
12764.7
18118.091
27641.278
28043.506
46576.955
31215.718
47411.37
12854.277
31805.795
3690.1201
3649.1279
6780.4804
6860.3274
12742.333
12830.677
32041.126
32087.237
2134.531
710.66033
707.51161
2105.0346
2244.2541
726.26259
734.34248
2281.2881
1332.4064
711.70577
714.30739
2136.8697
2136.3105
1316.477
9481.1635
9442.3464
4727.7357
4719.5782
18558.248
18676.129
4705.7325
4644.0972
18447.584
18718.018
3675.2814
3680.0278
6840.8526
6837.223
3715.172
3735.2555
6952.9092
6854.577
12802.489
12859.734
31985.155
32454.478
12816.338
12953.816
32561.498
32129.704
20512.585
19960.336
7641.1177
7658.4485
21209.31
21727.159
8074.4108
7945.356
37677.077
36543.467
11269.165
11381.905
38914.906
39266.724
11802.599
11799.758
21052.248
22076.862
8327.3148
8103.2402
22192.154
21956.383
8421.625
8357.6841
21757.115
22433.142
8427.7839
8273.2148
22198.903
21551.762
8366.4666
8373.2749
20063.471
21021.677
7950.8898
7764.1245
12927.738
21884.697
21849.663
8347.2091
8247.8327
4450.6256
4486.3467
13250.808
13510.851
13237.803
4534.1505
4579.2328
7281.544
7487.0053
1862.3615
1842.9679
12413.824
4243.8556
13150.299
4402.3621
13149.408
13258.755
4439.2631
4521.6543
7602.0232
7794.2646
1924.7253
1927.3705
4928.4565
9599.2351
9907.0043
8868.491
9128.4413
9173.0451
8280.3676
9458.837
8510.1987
4473.9706
5070.9638
4588.8921
9773.995
9335.8513
10080.315
9610.1463
4615.1929
4511.9741
4745.7716
4637.3287
9853.4301
9201.892
10166.153
9474.4629
5331.9601
4828.8578
5285.4573
4787.2102
4841.1853
4943.9557
4975.8139
4875.7245
3115.1477
3067.9298
3418.1148
3348.9825
1201.1734
7139.3908
8271.4473
8481.2019
8375.6676
8585.4877
4031.7046
4184.1029
4077.4017
3933.2369
9719.7152
9516.6432
10228.407
9422.7969
9165.5556
8971.8567
9215.8556
9618.8478
9213.8831
9906.8034
9476.6537
4364.3636
4387.6579
4198.0057
4219.5986
3244.7063
3251.288
3568.037
3583.7631
1230.509
1083.6548
1467.0584
1478.4885
1634.7219
1617.0301
620.44695
724.43641
1940.1671
1908.3488
1916.6194
1948.835
783.38752
1661.0465
1493.8185
1499.0178
1655.8367
622.76145
797.23002
418.2247
731.79735
421.77667
438.58232
437.83924
421.13341
432.44252
423.44327
414.12419
404.96842
403.61018
415.83942
427.54603
436.98765
1979.5114
1971.7003
1976.1291
1964.7302
4300.3454
4244.4482
4152.7929
4403.1823
3603.8285
3544.4259
3238.9435
3273.7254
1244.2564
4402.7441
4298.29
4239.3943
4461.5136
3652.7454
3600.2685
3270.7046
3325.3225
1236.4482
1091.9754
1080.1355
409.23864
410.41863
418.89872
416.12324
474.57141
468.45452
494.25831
506.50375
5313.2791
5138.0216
4654.2227
4804.4585
4820.9328
5384.9214
5319.9868
4878.3342
4873.7238
4985.9158
5051.2179
4934.1652
4727.0525
4988.0667
4849.6194
4867.2584
484.91845
510.10289
497.70597
516.50861
640.41127
639.74556
634.56723
655.86256
632.34373
613.97238
567.7453
565.37092
8401.7138
8413.5454
8739.9375
8871.0182
12037.502
12241.801
12681.399
12596.242
9176.7895
9250.8687
8912.3401
9181.2375
9210.643
9182.0497
9110.7733
9258.2801
9068.5327
9183.7277
4984.9832
8559.491
8770.4707
5038.1304
5117.4996
5095.789
2060.4515
4770.5142
4927.2079
2085.3625
4981.3884
5060.18
2147.998
2154.9326
457.99367
451.1865
441.40522
443.68962
511.79877
516.8234
526.8454
523.24806
615.00928
581.89071
606.58376
611.94229
591.30112
599.66503
629.18302
607.82504
585.65526
585.78274
2325.77
4187.7058
4251.6755
715.29488
720.46044
2346.4612
4250.2642
4259.5834
7592.4187
7524.4988
15595.716
12475.743
12462.221
18252.488
18050.859
18723.331
18876.296
23048.286
22801.885
26584.311
26860.769
41466.296
27438.031
41744.129
27076.363
26945.088
42176.709
41774.487
64264.206
46329.473
54026.028
54534.147
64525.43
28045.118
46932.478
64874.941
65100.848
55364.484
54956.215
12513.347
12655.436
18208.341
18369.96
27853.055
47269.531
27997.572
47344.519
7468.899
7561.7819
18044.18
18285.807
12537.074
12358.691
12541.893
12548.103
18164.396
18321.651
27825.302
28160.861
47431.807
48084.504
28308.789
47892.605
27758.918
47563.991
2286.4689
737.82722
730.98323
2253.6735
2322.6646
4228.5103
4226.8937
711.59883
721.27682
2355.8458
4301.4541
4256.4383
2128.5064
712.55308
717.74218
2160.4464
736.66323
738.35556
2286.0772
2286.311
2092.286
709.2335
710.59644
2125.2761
4651.2446
4699.6727
18724.265
18821.136
4758.4516
18653.262
18519.114
4705.1553
3735.3555
3735.5645
6917.263
6926.5676
6973.6646
3745.8192
3712.4039
6846.3111
12935.337
12965.991
32146.985
32588.507
12836.502
32751.527
13009.323
32283.455
6867.4625
3708.1643
3744.4833
6944.6921
6790.4028
3649.4424
3701.6587
6846.1956
12796.992
32435.5
12793.02
31928.699
12878.957
12947.475
32506.959
32577.92
7536.7593
7531.844
7664.8177
7544.2008
12422.402
12574.697
18100.551
18322.104
12565.78
12529.786
18398.978
18202.89
28046.431
28505.619
47021.069
48041.599
28690.558
28103.282
48501.388
48160.705
12532.815
12497.747
18108.831
18332.096
12725.787
12622.138
18322.25
18440.34
28476.939
28495.802
48058.16
48547.742
28350.499
48221.413
27866.764
47781.859
37652.109
37395.806
11243.219
11298.764
35411.968
36443.639
11098.18
11085.075
11578.22
37922.953
39438.779
11783.594
38958.097
40814.245
12215.503
11889
39278.982
37650.311
40474.158
40456.31
11614.679
36944.303
38798.968
11828.376
12163.602
40144.544
39845.299
12230.715
12341.942
40483.64
40563.804
12332.387
12288.783
40110.453
39191.931
12251.167
39865.432
38725.749
11973.001
12113.723
40321.736
40951.708
12345.959
12342.221
40404.027
40339.017
12253.459
12277.566
12042.309
39268.974
37731.039
11968.205
36426.818
35044.714
20651.991
11118.337
11221.674
37747.677
37855.516
11518.374
11576.859
8011.0015
21414.11
8050.4812
39993.596
39010.403
11961.203
12063.663
38675.379
39781.227
12084.569
12047.556
21506.624
21978.606
8287.7726
8182.5223
22189.709
21923.233
8403.9388
8354.7057
21337.509
22002.147
8321.853
8192.9607
12696.623
4220.1679
12492.441
4235.5254
13301.057
4410.4016
12639.569
4269.3404
7590.9368
19863.817
20704.33
7752.4913
21471.533
21403.138
8032.8051
8120.8273
21357.378
21791.434
8116.4933
8194.5011
8190.5197
21760.511
21442.788
8249.2684
4409.246
12824.785
13375.329
4485.6643
13570.466
13449.018
4534.9251
4532.0423
9360.4669
8644.154
9387.2743
8673.7386
13396.508
12757.36
12910.3
13591.774
13887.791
13210.833
14141.19
13430.067
12340.497
12998.025
12214.973
13157.034
13691.214
12836.184
13461.494
12633.714
8993.2521
12404.557
11771.467
11876.138
12536.125
8122.2534
11960.427
11391.156
11535.936
12079.164
12828.354
13038.798
12165.642
12342.477
12380.834
12546.9
11846.125
11965.168
8969.4192
8097.4024
9783.7336
9024.1059
9981.398
9185.1159
9354.0525
8430.4399
9515.697
8556.4608
9533.0883
14654.08
14866.229
14100.363
14292.304
14788.724
9098.5061
14101.009
14569.18
13901.278
14887.661
15195.852
14613.874
15514.993
15118.041
14414.301
14680.609
15408.389
9479.9958
9048.4346
9579.5646
9616.4417
8942.134
8978.3795
9904.9013
10165.015
9457.464
9681.4692
10014.148
9349.5341
10246.84
9544.5638
14312.787
13694.117
13904.48
14543.639
13352.967
13999.76
13165.102
14244.937
14478.206
14861.873
14222.537
15151.23
14569.126
13655.326
13893.046
14837.157
10275.322
9481.5888
10417.173
9601.5515
9825.6565
9935.7885
8852.0445
8944.0764
9979.5329
9224.5615
10368.506
9539.328
9550.9469
8614.371
9876.9821
8869.5889
10208.966
9547.5488
10653.648
9919.1636
10092.606
9655.3479
10573.366
10072.029
10373.639
9919.4442
10564.352
10094.126
10508.725
9821.5524
10676.865
9974.2676
7125.3137
7401.0594
2687.7212
6026.9525
6280.7887
6871.0119
6969.3786
2665.1223
5919.7011
5813.6777
8292.1361
8595.1084
8401.732
8683.4565
7988.3873
8080.3927
8081.5711
8168.5321
2538.8817
20004.949
20054.882
18233.61
18308.655
19227.502
18492.145
16826.972
16940.12
18600.26
19285.938
17511.568
17683.356
19422.313
17159.553
15793.852
15942.512
17312.823
17879.021
16412.409
16642.534
18086.257
9226.0215
9031.2796
9526.4892
9302.1526
9713.6606
9999.0227
9303.4143
9551.872
9309.494
9374.2378
8908.3184
8971.0968
8865.0318
8664.174
8943.4112
8737.1424
17510.465
16509.335
16486.997
17549.195
16973.312
16013.029
17001.115
16032.102
15807.221
16493.262
15792.292
16517.839
17056.349
16789.155
16033.413
15759.176
16329.643
16143.534
15186.686
15362.077
15812.496
14907.296
15606.909
14724.591
16206.384
15258.296
15555.73
16513.683
15138.138
15344.912
14494.574
14679.163
15165.524
14414.401
14956.356
14228.748
15318.667
15697.57
15014.337
16025.316
15509.446
14738.49
15036.792
15838.443
9899.5839
10401.217
9493.5621
9937.1897
10153.751
9738.3791
10363.014
9933.8846
9402.6355
9219.1595
9899.3613
9675.5763
9618.5669
9438.5574
9648.7992
9840.7751
7295.4933
7688.8762
2809.8294
6197.5957
6540.8308
7447.5502
7686.1133
2808.458
6327.6379
6576.4953
8464.3331
8582.1278
8924.9867
9024.7815
8641.3159
8767.8714
8876.0942
8992.3416
2651.7046
2637.1278
2296.2848
2109.9817
2091.7014
2282.0647
1458.4028
3188.1498
3184.4156
3470.8317
1227.2038
3498.5306
3225.0988
3539.1259
3620.9222
3309.442
1232.754
4318.1463
4256.5756
4159.9317
4407.2422
4123.6252
4273.6964
1597.0312
4200.0625
4064.1161
1083.8309
1086.1735
614.59963
1604.9893
1453.749
4727.3774
5308.3264
5215.6882
4801.8408
5165.5673
4668.7423
5013.8178
1881.2585
4538.8942
4847.3468
4724.5665
1894.9706
4610.4426
4736.9233
4777.5348
4887.4183
4988.2039
4862.5368
1902.8637
1910.5421
4460.5059
4271.5845
4303.4478
4428.0975
3629.4461
3660.738
3330.425
3303.1719
1241.7802
3288.3533
3325.4193
3635.9494
1250.9733
3580.975
4198.3503
4413.7011
4269.3213
4344.4612
1084.4285
1096.1756
1961.1565
1962.1606
1962.0664
1961.0035
413.30297
413.50553
402.81967
403.22989
1634.8417
1460.6258
422.27313
431.81068
433.62611
422.40532
479.58611
467.7446
414.95976
407.64979
406.35696
417.40565
480.49497
492.68295
4917.5156
5043.7226
5018.1027
4901.0491
4914.6758
4987.7919
4856.4847
4792.6498
5355.8421
5358.1344
4846.9405
4850.9833
4786.8699
5293.1426
5227.1735
4736.2258
9762.6047
9322.9799
10056.704
9586.8045
9787.0555
9900.8814
9568.9767
9688.2085
9330.4649
9116.362
9600.874
9365.9034
10272.141
9817.9463
10405.469
9956.3091
8841.3386
8939.2699
8942.3757
9044.9822
8441.5146
8535.2599
8675.7018
8759.5352
7290.3245
7474.2015
2819.541
6192.6325
6348.4727
7633.4661
7731.64
2823.8359
6591.6825
6493.2716
2674.1181
2647.907
10237.234
10471.695
9799.0271
10008.44
9943.2227
9882.3444
9712.9859
9673.7858
9744.7671
9538.224
9961.8571
9742.619
10426.934
10378.822
9961.063
9939.5637
8988.1429
9080.5284
8933.6175
9037.4919
8800.022
8902.0648
8990.4741
9086.7726
7602.2226
7761.9075
2821.0904
6477.1979
6616.3705
7761.2122
7739.4279
2873.0188
6615.7994
6621.0943
2645.201
2698.2831
2325.9515
2146.9851
2091.5558
2285.7698
2129.2672
2082.6877
2279.7804
2328.554
1844.5035
467.79599
466.56212
465.03256
487.11919
522.2439
516.44858
592.81139
606.4875
10216.057
10373.094
9409.9969
9545.9378
9615.2781
8874.7029
9905.1374
9110.5293
9179.8284
8283.2454
9431.6816
8477.647
9739.073
8763.4177
9880.6794
8882.2024
9767.0575
9936.7803
8801.999
8937.2099
10367.606
10347.436
9548.8075
9541.8998
10231.721
9437.9024
10425.532
9597.6124
9885.4348
9867.8498
8895.9756
8889.1795
10498.402
9796.6665
10716.279
9977.0498
10414.678
9935.9705
10647.275
10136.842
10585.148
10082.132
10556.168
10071.989
10655.199
10633.299
9926.0147
9918.4155
9902.5658
9221.4757
10210.043
9483.8021
10431.978
9939.02
10585.483
10088.532
9402.3146
9879.6804
10183.709
9672.5094
10502.763
9783.4507
10663.908
9932.9646
580.8248
675.27835
647.52498
636.72133
12062.755
12105.37
11876.627
11898.034
12409.167
12636.714
12883.611
12721.516
13121.567
13220.337
13194.35
13074.397
12419.199
12674.934
13061.938
13102.538
13101.282
13168.644
12930.644
12801.904
12811.09
12968.689
13218.021
13213.544
12808.075
12944.377
12969.424
12901.554
8876.0148
8821.7884
11850.335
12015.881
12346.861
12399.719
9001.6782
9116.9185
9227.1242
9188.4608
9161.7102
9051.2059
4766.0754
4779.8699
8373.6205
8567.72
8832.5729
8949.7483
4987.9349
4831.9497
8951.7405
9005.7808
9008.2463
9075.0944
5089.5334
5002.0435
5149.4548
5147.5075
540.83409
520.73479
507.1515
505.37123
593.62722
602.87664
600.87727
593.18008
588.82132
585.34763
4203.8837
4138.1834
2305.6042
4902.6884
4822.0116
4200.0684
4211.2732
2325.9887
4913.2743
4889.8489
8296.462
6421.8089
6413.71
10560.495
10636.621
15682.944
15930.339
6388.7671
6343.3442
10531.938
10455.698
15728.531
15592.05
11434.905
16658.017
20946.672
21274.481
19034.965
18941.157
23101.645
23218.271
18716.361
18751.602
22877.863
22762.899
25106.456
24765.828
26522.729
28672.458
29012.276
59900.094
41397.172
26702.161
41630.716
59384.158
29229.276
29022.083
60498.251
59617.111
98944.704
64393.973
64467.353
53963.897
53368.367
57636.031
58189.266
98535.568
42282.948
26935.091
27040.74
42240.834
54458.65
64823.709
64970.001
54612.035
98784.049
98873.627
58630.641
58380.645
22922.528
18829.033
23150.644
18975.685
19094.441
19146.503
23207.85
23274.344
27098.888
26985.249
42766.783
42314.745
65224.496
65512.854
56228.515
55066.968
41920.862
26717.528
42667.816
26980.42
54653.103
64691.925
55416.816
65447.022
6310.1601
6290.7625
10373.503
10492.361
15814.578
15490.739
6420.753
6357.5918
10569.12
10537.357
15711.586
15799.541
22737.608
18638.645
18786.683
22968.947
23193.347
18997.015
23135.902
19054.245
18843.388
23006.837
22896.435
18883.183
19106.996
19008.96
23158.105
23280.412
41447.989
26537.889
26795.971
42057.302
42592.168
27034.985
26935.996
42413.245
54301.989
64569.552
65212.248
55255.672
55735.831
65631.378
65572.975
55568.11
26973.549
27092.138
42511.763
42323.344
56118.408
65117.845
65517.985
55767.54
42193.674
26835.31
26647.936
41747.079
55433.443
65128.485
64801.217
55155.349
2358.9491
4308.5874
4247.015
724.05865
716.74307
2330.6236
4190.5531
4251.1212
4176.4862
4180.3892
4885.835
4862.4565
4207.8631
4253.4938
4961.7595
4890.2804
2280.5562
738.27236
743.35309
2312.9484
723.0397
722.67129
2356.4851
4277.2013
4286.3536
2357.5953
4245.7035
4308.4592
2239.0933
731.54031
735.32267
2278.8394
3642.9773
3652.2933
6811.7778
6804.2259
3712.2129
3689.4384
6875.0131
6862.0945
12928.946
12915.544
32560.26
32991.304
12951.363
12927.934
33062.319
32689.395
3762.2578
3759.905
6928.9501
6978.3627
12940.965
12973.365
32323.059
32596.087
13013.501
12945.849
32374.272
31970.553
3708.1739
3710.9343
6888.4705
6887.1792
7613.5901
7627.2076
7684.4206
7529.4487
12561.454
12669.372
18254.191
18451.843
12681.888
12615.401
18495.691
18284.196
28302.531
47166.277
28771.512
47947.181
28467.66
28894.94
48402.781
48160.529
12489.141
12533.289
18338.823
18126.837
28655.935
28834.994
48083.294
48548.531
12745.396
12664.294
18357.912
18480.982
28568.296
28016.335
48301.636
47933.041
7556.2568
7650.4875
7480.3237
7540.1935
12508.144
12469.686
18077.555
18298.057
28137.56
48083.013
48501.397
28451.057
12569.031
12404.519
18134.404
18345.925
28340.558
47899.633
27892.985
47417.535
12633.955
12489.281
18178.584
18388.354
12624.06
12672.564
18447.988
18233.192
28301.821
28526.801
48448.885
47789.21
48651.335
48266.443
28746.116
28044.585
6381.7995
6371.8113
10561.417
10459.637
15552.784
15837.967
6367.4931
6339.665
10462.444
10562.483
15844.996
15692.584
6481.2416
6484.021
10711.465
10666.31
15809.119
15997.193
6391.2266
6362.8044
10569.684
15797.852
10466.222
15633.244
18826.962
18675.076
22765.888
23029.192
23218.403
19011.194
19062.431
23165.665
23242.93
19073.599
23369.133
19168.838
18857.559
18895.442
22961.597
23063.45
41479.373
26593.74
26903.887
42150.587
42796.47
27104.29
27011.152
42447.543
53260.853
64769.797
65524.437
54167.793
65981.407
66272.539
54970.787
54960.831
42441.846
27092.626
27210.46
42406.134
26916.93
26773.66
41891.195
41723.132
55528.428
65744.056
65841.31
55817.531
55654.74
65222.322
65596.701
55069.833
18785.238
18796.974
22811.492
22978.83
19117.733
19021.293
23189.325
23314.375
23035.458
18946.205
19079.91
23247.928
23348.349
19161.091
19199.207
23257.857
42325.059
26853.339
27098.506
42862.284
43426.703
27218.673
27067.398
42791.326
55366.559
65551.366
66144.89
55883.558
66117.542
66625.607
56311.142
55921.427
27150.889
27027.322
42303.93
42629.585
56053.756
65339.588
65871.083
55848.009
42408.933
26844.998
26575.634
41511.439
64866.877
65668.889
55339.067
54643.84
38908.528
38852.976
36918.263
37811.092
39487.521
40832.523
40312.63
41470.121
71470.045
34107.936
69221.886
32737.178
72318.265
35415.316
72617.034
35306.954
38842.151
40360.129
41924.45
41446.023
41547.102
42175.788
41854.669
40443.394
41511.386
40570.742
42027.809
42531.904
42246.115
41740.686
41161.267
39528.469
38306.632
35913.663
37008.074
37407.766
11501.619
11440.01
39678.988
39845.019
38619.527
38798.289
11756.206
11731.486
41943.695
41002.524
40683.58
41770.032
38956.577
37962.214
11794.368
11867.969
39046.996
39898.201
12066.306
12015.94
39568.127
40062.471
12193.778
12147.208
38393.257
39703.912
12131.957
12059.743
38489.188
37471.237
11786.634
11857.109
39107.555
39787.254
12083.694
12061.428
7724.8053
20689.476
21191.715
7830.6648
20690.942
20263.762
7679.1944
7719.1993
21963.397
21873.05
8142.1143
8243.9417
20309.317
21122.228
7722.8396
7879.0451
35699.381
34652.008
10904.11
10984.702
11253.46
37030.908
36847.332
11295.311
38820.074
38098.868
11648.048
11707.555
37625.266
38569.144
11728.556
11703.243
38364.548
37883.451
11744.165
11762.541
38757.88
39195.941
11888.616
11905.609
39277.251
38670.37
11857.543
11906.896
37431.297
38653.717
11848.025
11808.856
7955.6495
20507.468
21307.402
8075.274
21863.114
21971.574
8349.4352
8235.9393
22104.044
22528.839
8463.3711
8396.1478
22366.816
21731.317
8358.5604
8377.6831
12647.717
13281.221
12631.348
13295.403
12901.22
12110.971
12125.896
12914.206
13195.598
12579.829
13042.535
12440.832
12705.997
11954.092
12846.122
12083.408
37659.902
37345.572
38479.989
38778.79
39964.884
39702.21
40368.993
40068.399
37117.259
36823.278
35924.263
37992.694
39564.108
38639.722
39232.723
38350.959
12291.924
11658.302
12163.049
11547.236
34860.782
33592.579
34823.617
36085.748
11218.903
11750.617
11853.684
11265.734
32688.641
33957.634
37297.34
37551.647
36023.435
36228.498
35144.133
35324.131
11694.787
12327.195
11684.056
12337.319
11354.371
11901.232
11910.472
11390.167
13288.551
13789.074
13106.145
14014.538
13357.597
13540.91
12532.116
12682.779
13472.263
14232.808
13483.456
14202.081
12852.659
13733.784
13712.315
12859.946
12199.767
12735.986
12078.716
12886.147
12289.497
12422.358
11715.205
11878.842
13051.834
12365.077
13054.598
12356.776
12055.557
12598.735
12567.424
12002.679
14369.525
14153.267
13624.815
13820.981
34123.968
34992.209
34701.636
35597.03
36212.242
14288.897
13451.078
14095.083
13633.225
36865.718
35288.409
35911.854
37050.796
36066.624
36683.025
36443.279
37308.883
37969.766
38356.863
37686.457
14430.916
13871.897
13860.309
14429.056
13700.575
14374.374
14352.581
13694.172
13535.825
14147.467
14143.677
13524.812
14043.478
13433.026
13863.472
13273.707
13019.909
13038.182
13868.109
13884.628
13588.713
12790.993
13740.793
12942.312
14973.126
14408.946
14654.635
15247.225
15618.017
14996.447
14954.914
15571.889
14234.248
14923.827
15187.657
14480.968
14791.215
15541.072
15469.467
14757.302
14318.373
14693.158
14062.589
14967.313
14416.814
14703.071
13537.516
13769.894
15229.586
14573.194
15281.773
14607.045
14005.441
14998.037
14935.725
13990.675
36537.668
37031.475
38041.841
37526.267
38741.078
37451.655
37668.64
38484.498
39592.692
38638.98
39168.155
39048.85
39615.961
39904.165
40317.26
40051.957
13930.794
14562.782
13819.175
14701.561
14069.577
13192.952
13284.463
14178.707
14699.169
13946.358
14745.925
13970.126
14212.822
13312.478
14173.484
13302.947
12775.195
13396.34
12698.859
13486.897
13489.018
13511.857
12797.865
12791.512
12921.912
12346.426
13008.869
12445.086
12982.783
12434.963
12380.713
13026.791
13920.372
14140.842
13255.911
13432.86
13688.345
12835.823
13508.731
12691.323
13989.204
14624.766
13875.169
14742.695
14122.532
14238.745
13224.576
13342.1
12890.902
12232.65
13036.791
12351.577
12558.314
11973.973
12428.726
11800.647
13535.802
12813.177
13418.441
12706.505
12920.473
12326.04
12390.174
13012.403
14794.18
15071.305
14177.314
14432.036
14804.858
13886.782
14518.199
13663.303
15834.472
15138.364
15713.441
15025.73
15401.689
15507.199
14393.551
14509.249
15079.401
15350.547
14520.466
14763.678
15294.911
14596.565
15022.827
14349.507
15592.558
16102.337
15462.667
16240.658
16005.535
16127.491
15238.1
15361.797
15367.976
15848.57
15250.608
15970.383
15806.797
15084.187
15199.503
15929.205
15477.53
16098.922
15497.06
16085.232
16060.415
15320.877
16005.8
15291.446
15052.375
15583.183
14922.043
15710.716
14331.093
15311.333
15465.76
14477.514
15770.921
15113.282
15827.765
15154.946
14533.922
15555.688
15479.26
14511.05
20147.166
20213.173
18354.203
18482.104
19236.967
19262.515
21115.361
21079.818
5367.4331
5312.934
5598.4886
5558.2582
19332.724
20259.883
19695.451
19708.071
17906.401
17945.071
17765.581
17851.697
19554.485
19565.085
5170.5852
5202.5189
18790.599
18905.361
18631.054
16950.572
17134.118
18792.062
19544.076
17775.693
17811.587
19542.784
16172.315
17313.864
15938.708
17539.989
16755.765
18179.65
16717.955
18190.562
18174.003
16496.083
16546.724
18216.402
18014.183
16342.449
16479.332
18110.237
15538.3
16846.591
15474.494
16906.27
16666.045
15303.813
15483.728
16819.302
4837.7842
4780.393
5061.9221
4997.1872
26438.503
26920.763
26660.419
27169.064
32777.036
26793.427
27831.661
34066.95
27115.188
27642.429
28254.819
27680.548
28599.442
29194.07
29425.074
28805.421
28206.137
28766.486
29439.11
28859.897
29816.267
30422.994
30697.332
30074.349
16322.508
16594.005
15359.988
15623.186
15816.462
16109.373
14924.621
15193.445
17135.167
16099.601
16128.289
17151.308
15616.003
15635.188
16588.49
16590.943
14993.625
15377.967
14733.361
15668.055
16097.102
15390.664
15387.317
16090.173
15239.457
14499.314
15519.117
14752.873
15117.291
15099.338
15927.445
15894.039
14852.904
14207.894
14244.543
14903.561
14838.875
14610.037
13978.459
14196.406
14698.518
13969.424
13979.737
14721.076
14655.003
14432.142
13727.279
13939.291
15840.813
14871.493
15912.366
14940.951
15377.354
15308.3
14420.53
14477.467
14888.544
15640.471
14684.503
15838.6
14211.912
15089.512
15305.873
14430.981
32102.245
32904.197
32798.527
32243.084
33515.231
34189.652
33595.609
34256.561
35564.551
34866.494
35525.069
34923.738
31341.53
31050.425
31988.245
31677.266
30054.182
29355.889
29956.385
30677.37
31324.559
31940.238
30584.473
31185.55
32330.554
32953.08
33281.554
32657.963
31787.525
32559.505
32372.742
33162.703
33790.296
34382.947
32976.266
33543.329
34547.686
33583.078
34198.689
33927.853
34841.05
35445.257
35811.556
35205.661
15503.997
14863.597
15127.199
15802.292
16777.798
16644.829
15912.222
16048.13
14867.845
15357.106
14619.931
15642.255
16583.195
15605.732
16450.425
15745.39
16221.716
16350.608
15560.705
15676.351
16229.207
15334.434
16110.472
15447.385
15858.722
16472.632
15806.993
16538.175
16365.539
15579.472
15598.452
16382.111
15785.035
16492.564
15519.881
16773.789
15959.815
16260.192
15068.087
15338.285
16812.574
17763.02
16684.697
17879.859
16167.436
17179.201
17301.407
16301.457
16158.708
17154.085
17255.021
16272.64
16779.408
15855.507
16649.585
15732.224
16069.524
16892.506
16984.919
15973.88
17452.804
16389.387
17368.395
16498.744
20484.225
20557.133
18635.273
18757.827
19993.751
20053.304
21970.507
21964.664
5551.5299
5516.4516
5803.0037
5840.771
19703.083
21109.818
20953.632
20958.749
19143.552
19175.878
19267.5
19326.532
21027.723
21012.305
5652.0504
5588.0876
5796.0838
5870.0637
20098.151
20164.316
17361.525
18903.117
17186.602
19063.985
17531.339
17757.382
16133.727
16363.855
18548.993
20308.941
18462.913
20359.847
17346.005
18871.602
18954.925
17460.578
17795.644
19452.414
17744.766
19489.404
16738.505
18143.455
18209.598
16819.689
17992.294
19583.393
17910.305
19623.583
16939.291
18323.177
18387.819
17039.013
5049.7112
5021.3668
5251.6443
5289.5465
5211.5395
5033.3023
5092.6677
5284.8633
4576.6276
4510.3146
4684.0642
4767.3725
4056.3464
3924.416
4026.8152
4191.8175
3979.8883
3878.4477
4018.992
4150.7471
4574.9929
4475.3718
4623.339
4735.8111
3139.3727
3181.4693
3421.0473
3457.4443
1221.7695
7379.6792
7481.547
2753.9485
6369.3393
6250.2777
7093.8554
7344.9154
2775.0083
6246.4098
6042.3677
8207.3059
8526.6749
8289.2585
8591.2295
2644.4991
2601.6032
8567.9595
8673.1703
8667.8934
8766.0156
7454.935
7498.5688
2791.7169
6394.7112
6349.0126
8629.8578
8733.9402
8686.6262
8771.0992
8827.3114
8905.1001
8914.9058
8987.5532
7635.819
7722.2132
2860.038
6610.5767
6505.6658
2629.8002
2694.1826
10047.777
9623.7335
10100.249
9664.2822
9737.5224
9827.128
9505.901
9595.3308
9562.8783
9361.6146
9612.9419
9396.5011
10193.776
9742.9092
10295.182
9849.4582
9498.8432
9286.0626
9608.9278
9395.281
9972.7312
9533.5446
10103.382
9667.4778
4146.0871
4013.6244
4053.6448
4182.0723
9480.0961
9061.1219
9844.3686
9373.5421
9060.7427
8850.9247
9415.9789
9169.6244
2087.504
2130.6742
2323.6847
2273.3767
2302.5122
2078.3784
2251.2538
1084.6813
1073.7758
1212.529
4177.3661
4032.2079
4141.7877
4295.5935
3139.8096
3197.2729
3432.3218
3514.0598
9602.0031
8649.0497
9657.9846
8690.9299
10132.487
10245.913
9337.3605
9435.0045
10057.683
9275.3669
10114.167
9320.9707
9665.9874
8702.2978
9763.4439
8780.1235
9933.9114
9149.8032
10106.006
9294.8368
9476.1884
8528.1002
9630.6583
8649.6731
9385.4955
8664.3892
9673.0186
8890.4345
5013.4788
4986.3858
4517.806
4534.1354
8968.2717
8094.7617
9209.7431
8273.3727
10134.039
9654.6676
10291.862
9806.8627
10206.482
9506.0616
10378.989
9663.2479
4727.9063
4689.6631
4568.1583
4595.7712
9649.4561
8993.0309
9973.1665
9255.944
9607.9461
9154.1379
9956.0571
9446.8453
10314.76
9626.4858
10372.989
9670.1105
10228.24
9760.4854
10285.679
9804.8267
10465.242
10346.473
9858.6791
9974.9353
10413.796
10536.437
9702.5254
9813.977
5219.1735
5050.4539
4581.9005
4720.4893
4623.0112
4729.9744
4877.9788
4766.5657
10341.584
9880.9067
10453.416
9978.0784
9860.559
9849.0457
9639.0568
9636.492
9869.4783
9644.7935
9963.537
9730.2891
10351.813
10349.147
9895.3988
9911.6874
8912.3398
9005.2793
8916.448
9006.0012
8943.6303
9027.8079
9011.8796
9093.8727
7738.8297