/*--------------------------------*- C++ -*----------------------------------*\
  =========                 |
  \\      /  F ield         | OpenFOAM: The Open Source CFD Toolbox
   \\    /   O peration     | Website:  https://openfoam.org
    \\  /    A nd           | Version:  7
     \\/     M anipulation  |
\*---------------------------------------------------------------------------*/
FoamFile
{
    version     2.0;
    format      ascii;
    class       surfaceScalarField;
    location    "10000";
    object      phi;
}
// * * * * * * * * * * * * * * * * * * * * * * * * * * * * * * * * * * * * * //

dimensions      [0 3 -1 0 0 0 0];

internalField   nonuniform List<scalar> 
101811
(
-1.4312794e+56
-8.7047466e+54
-7.6710839e+54
-5.9023719e+54
8.0136763e+54
5.745715e+54
-1.5172396e+56
-3.1323098e+54
-6.3381351e+54
-6.8912091e+54
5.9227248e+54
7.1921564e+54
-1.4699186e+56
-8.8056005e+54
3.9969651e+54
-6.5002461e+54
-8.3728091e+54
4.872226e+54
4.1333812e+54
2.2499691e+55
-3.0052755e+55
-3.9807679e+54
-2.7062606e+53
2.4800337e+55
-3.0645119e+55
-2.2617139e+53
-3.9397598e+54
-2.0111577e+53
-3.7736822e+54
4.468384e+53
-2.6708137e+54
-1.5500836e+56
7.3193564e+54
-5.6275634e+54
-5.4540311e+54
7.9521248e+54
-1.5397559e+56
-7.7519102e+54
5.4051062e+54
-7.5884043e+54
-6.1540329e+54
7.1003839e+54
-1.2459597e+54
2.3232197e+55
-2.9763931e+55
1.4318101e+53
2.3342437e+55
-2.9265736e+55
-2.4069861e+54
1.9312843e+53
2.7405259e+54
-3.183047e+54
-3.4506783e+53
-1.2492494e+53
1.982547e+55
-1.4726226e+56
-1.288089e+55
3.8620284e+54
-8.6259353e+54
-7.7591115e+54
4.6042933e+54
-2.0479493e+55
1.8128218e+54
-1.5288572e+54
3.8532126e+53
-2.3348939e+54
2.1491812e+55
-2.9835688e+55
1.9775938e+53
-2.9557267e+55
-1.5261712e+54
-1.0375859e+53
9.2419219e+53
3.1120383e+54
2.221007e+55
-2.3023663e+55
-2.936811e+54
3.677439e+53
2.3014516e+55
-2.3247858e+55
5.0492059e+53
-3.6712057e+54
1.7072104e+54
-3.3663062e+54
1.9523892e+54
2.5612574e+54
-3.2461967e+55
-3.2842183e+55
-1.2270701e+55
-3.2787185e+55
-3.2892281e+55
-5.7103431e+54
-1.5504439e+56
6.8671973e+54
-6.7157627e+54
-5.7798401e+54
7.875244e+54
-3.0578964e+54
-6.0939172e+54
7.9569107e+54
8.6743678e+54
-5.6078788e+54
-2.2586762e+55
9.0244859e+53
-1.9900632e+54
1.7280119e+54
8.7596395e+53
-1.6777213e+54
-2.9413358e+55
2.0008064e+54
2.3097321e+55
-2.9839699e+55
1.7948991e+54
1.3276659e+54
1.1342021e+55
1.044932e+55
-1.5363544e+56
-3.1786064e+54
-4.3912443e+54
-1.132899e+55
-6.6617743e+54
-7.7498252e+54
4.5492201e+54
5.5911249e+54
-2.3737359e+55
2.4334138e+54
-2.3422702e+54
-5.0594626e+53
2.0715558e+54
-3.0111541e+55
-2.4995963e+54
-7.8618701e+53
2.3087176e+55
-2.9312999e+55
-2.6363735e+53
-3.977618e+53
-1.0439724e+54
2.2666619e+55
-2.295461e+55
5.2269671e+53
2.2788944e+55
-2.2598829e+55
-2.1240215e+54
1.0830683e+54
2.1467024e+54
-2.4918762e+54
-2.3460737e+53
-3.7649169e+53
2.0924818e+55
-1.4407286e+56
-9.0903969e+54
-7.327362e+54
5.0613598e+54
3.3385956e+54
-2.0288522e+55
1.4302549e+54
-2.7272045e+54
-6.0219462e+53
1.4592508e+54
-2.7457109e+55
-2.5213214e+54
-3.9527799e+53
1.9487111e+55
-2.6911166e+55
-4.0197409e+53
-1.4184388e+53
-2.0957015e+55
2.2986027e+54
-1.8131486e+54
1.0396894e+54
-2.4959945e+54
2.1755523e+55
-2.2902847e+55
9.0426754e+53
-2.1935591e+55
-1.8043226e+54
1.8314502e+53
2.1028793e+54
2.676199e+53
1.3223519e+54
-1.6084486e+54
-2.3282975e+53
6.1905704e+53
1.5672955e+54
-1.6398566e+54
6.6525466e+53
-3.2875603e+53
1.5248673e+54
-3.1471092e+53
1.696177e+54
-3.0796525e+55
-2.9050382e+55
-3.1122036e+55
-1.0991283e+55
-2.9396693e+55
-6.6379358e+53
-5.8714728e+54
2.5651276e+54
-6.3776484e+54
-7.691076e+54
-6.6384351e+54
-8.1712952e+54
-5.510711e+54
2.3509997e+54
-6.6001303e+54
-6.4855934e+54
-7.6967659e+54
-1.6184925e+54
-7.9452657e+54
2.6986563e+54
-3.2397209e+55
-3.3537941e+55
-3.1469461e+55
-3.2559621e+55
-1.9375381e+55
-1.1661389e+54
-2.7648975e+55
-2.7108513e+55
-2.0112978e+54
9.5117028e+54
-7.3780518e+54
-8.1373965e+54
-8.1934236e+54
-1.5429718e+56
6.561276e+54
-7.2259669e+54
-6.2863792e+54
7.5104726e+54
8.5891315e+54
-4.6816363e+54
-5.7742114e+54
-6.3061844e+54
7.2383807e+54
8.0868711e+54
-2.2910963e+55
1.5615665e+54
-2.1940406e+54
2.9908937e+53
1.2365442e+54
-1.8598068e+54
-2.9253169e+55
2.4969845e+53
2.2718976e+55
-2.9544339e+55
6.0434883e+53
8.5272447e+53
2.2651961e+55
7.532955e+53
-9.5554471e+53
2.4974982e+53
9.9389879e+53
-1.4683806e+54
1.6699998e+54
-2.2971808e+55
2.0773319e+54
6.7390398e+53
-2.1933234e+55
6.3274026e+53
-1.9838922e+54
2.4135759e+54
8.3988606e+53
-2.0066593e+54
-2.1574355e+55
2.8087052e+54
2.2982669e+55
-2.2714917e+55
2.2952492e+54
1.6306822e+54
-1.3052478e+54
2.6411085e+54
2.6941363e+54
-3.4968654e+55
-5.2328642e+53
-6.9329041e+53
2.4172483e+54
2.606844e+54
-3.4574452e+55
-6.6332552e+53
-7.4974962e+53
-1.841571e+54
1.1105511e+55
1.0365192e+55
-1.5076463e+56
-3.040595e+54
-4.0925786e+54
-1.2782817e+55
-8.2649622e+54
-6.6216548e+54
5.2124382e+54
3.4822306e+54
-1.7521549e+54
2.1988159e+55
-2.9263365e+55
-1.3401691e+53
2.2422871e+55
-2.9446943e+55
-2.5583194e+54
8.0403392e+52
1.7547198e+54
-2.5353618e+54
2.9562298e+53
8.0567794e+52
-2.24145e+55
2.2922971e+54
-1.8531077e+54
-4.6622702e+53
2.0441271e+54
-2.3114734e+55
-1.8483013e+54
-2.8177968e+53
2.3144699e+55
-2.3109799e+55
-3.784319e+53
-3.5548847e+53
-6.8330863e+52
2.0351988e+54
-2.0863408e+54
5.7305134e+53
2.0761726e+54
-1.9046989e+54
-1.8042815e+53
1.023702e+54
7.5214626e+52
-1.0527881e+53
2.632001e+53
2.883242e+51
2.9448641e+54
1.9487143e+55
-2.6364621e+55
-1.0237767e+54
1.9576028e+55
-2.5986823e+55
-4.9302703e+53
-3.2678057e+54
-1.9348215e+53
-3.7023192e+53
-2.0137937e+55
1.5814854e+54
-2.1556373e+54
1.5061179e+53
1.7808937e+54
-2.0434032e+55
-2.4042995e+54
5.2422292e+53
1.9206335e+55
-1.9564764e+55
-6.6971701e+52
-8.1532374e+51
-1.2775221e+54
1.9029373e+53
-1.331757e+53
9.3100689e+53
-1.5056591e+53
1.0254965e+54
-1.2430918e+54
1.039598e+54
-1.6944873e+54
-8.4868413e+52
5.3441018e+53
1.7735231e+54
2.158521e+53
1.6147877e+54
-1.8995326e+54
-1.889353e+53
1.6569371e+54
-1.8471393e+54
-2.646296e+53
-2.6109991e+53
2.8547408e+54
-3.9611108e+53
-6.7926595e+54
-6.5629594e+54
-6.9795325e+54
-6.7217088e+54
-6.3542383e+54
-2.6087015e+53
-6.1860917e+54
-5.2490486e+54
-6.3478632e+54
-5.3737871e+54
2.932817e+54
-6.8271311e+54
-8.2966462e+53
-6.4302349e+54
-6.8362575e+54
-6.9814295e+54
-6.546215e+54
-3.1214746e+55
-3.2203995e+55
-1.625905e+55
-2.9241003e+55
-2.8916434e+55
-1.1116415e+54
-6.2592147e+54
-6.3781172e+54
-5.2530626e+54
-5.3716969e+54
-1.2029351e+54
5.3382451e+52
7.2050314e+53
-1.2683133e+54
-1.3081142e+54
-1.7341115e+54
-1.6415459e+54
1.9920305e+53
9.4644012e+51
-2.6129164e+53
-2.6724412e+53
-3.6811504e+53
-3.5120948e+53
-8.7500385e+52
-6.3498219e+54
-1.182403e+54
-4.4645496e+52
7.0030178e+53
-1.6891933e+54
-1.3076406e+54
-1.3194874e+54
-1.7419746e+54
-1.9486329e+53
-6.5521974e+54
-1.5450956e+53
-1.1258521e+54
6.9186859e+53
-1.3425322e+54
-1.2868497e+54
-1.7631864e+54
-1.663708e+54
-1.0994001e+54
6.4999529e+53
-1.3080913e+54
-1.3276486e+54
-1.6631708e+54
-1.7293208e+54
-1.6246304e+53
2.2165559e+53
-6.3155519e+54
-2.8502066e+53
-1.8548907e+54
-5.8246131e+54
2.4176837e+54
-6.4754264e+54
-7.4797435e+54
-6.7947287e+54
-8.0039756e+54
-6.4374811e+54
-5.487073e+54
2.1233804e+54
-3.1132014e+54
-7.6959848e+54
-6.646525e+54
-7.8774504e+54
-6.6959851e+54
-1.6390109e+54
-2.6560852e+55
-2.6391127e+55
-2.9293848e+54
4.6953255e+54
-3.1674117e+55
-2.9844876e+55
-3.1771769e+55
-3.2837744e+55
-2.6799925e+55
-1.3002627e+54
2.0833501e+54
-1.3815556e+54
2.0882732e+54
-1.5349584e+54
-9.8064446e+53
-1.6317663e+54
1.7104566e+54
1.6625739e+54
-1.8356651e+54
-3.4308372e+55
-7.9564635e+54
8.5111109e+54
-7.079216e+54
-8.7670286e+54
6.311938e+54
-7.0402918e+54
-1.5328381e+56
-6.1259054e+54
7.2286107e+54
9.2990199e+54
2.6469375e+55
-1.4829811e+54
1.553182e+54
-1.810176e+54
1.6679766e+54
-1.8025947e+54
-3.3768855e+55
7.5760208e+54
-5.9956118e+54
6.8758261e+54
-6.023725e+54
-6.5570119e+54
6.7695501e+54
7.5473215e+54
-2.2650224e+55
1.6765798e+54
-2.2241924e+54
3.1215871e+53
1.5772652e+54
-1.7551232e+54
-2.9151418e+55
-5.469253e+53
2.2553527e+55
-2.8812462e+55
-3.0999295e+53
2.831722e+53
-1.7592788e+54
1.9012908e+54
2.0545008e+54
-1.4675207e+54
-1.5452011e+54
-8.1799079e+53
2.2619551e+55
1.8988157e+53
2.2346688e+55
-1.2911944e+54
3.8560526e+53
1.0714806e+54
-1.5923289e+54
8.5274494e+53
7.651838e+53
-2.2865142e+55
1.796576e+54
-1.8720909e+54
1.2501156e+53
1.6313835e+54
-1.9742411e+54
-2.2336902e+55
6.4314908e+52
2.2478912e+55
-2.2136545e+55
-1.1329338e+53
3.4522357e+52
2.1033368e+55
1.1089616e+54
-8.9466732e+53
-3.1130893e+53
1.2402477e+54
-1.6622915e+54
1.5510599e+54
-2.2017465e+55
1.9687782e+54
-3.2852427e+51
-1.4150848e+54
8.9954125e+52
-2.1061069e+53
2.044626e+54
8.0443937e+52
-1.7846308e+53
-1.273229e+54
2.7648746e+54
1.778748e+54
-1.4270255e+54
1.9956347e+54
1.358983e+54
-1.4278558e+53
5.6917911e+53
5.4378624e+53
-7.7300163e+54
-1.2539278e+53
-1.4315915e+53
1.1817975e+53
1.1217314e+53
-1.6950256e+54
-1.326793e+52
-3.1104058e+52
-3.2453655e+52
-1.4421532e+53
5.3986616e+53
5.6006551e+53
-8.0416921e+54
-1.5035296e+53
-1.519432e+53
-1.5488224e+53
5.6159432e+53
5.3542106e+53
-7.8881459e+54
-1.4358931e+53
-1.5541939e+53
5.2089931e+53
5.5344692e+53
-7.7605432e+54
-1.4700754e+53
-1.5338066e+53
-2.3359785e+53
-1.6427468e+54
2.576435e+54
2.6177766e+54
-3.3762825e+55
-5.2779764e+53
-7.0386087e+53
2.4577928e+54
2.6904484e+54
-3.3817196e+55
-6.8647472e+53
-2.2098496e+54
-5.6117066e+53
1.1168319e+55
1.0565288e+55
-1.4819804e+56
-2.5778986e+54
-3.6552991e+54
4.7618324e+54
2.9137392e+54
-8.1469094e+54
-6.9520614e+54
2.0364937e+54
2.1749136e+55
-2.9133364e+55
-2.612721e+54
-3.0450798e+53
2.0906531e+55
-2.8038256e+55
-1.1759353e+52
-2.4825114e+54
7.9296144e+52
-3.0838667e+54
-5.3189773e+53
-1.5388703e+54
2.0026604e+55
-2.080895e+55
3.3889566e+53
2.0530305e+55
-2.0729405e+55
-2.1840977e+54
9.2472873e+53
1.8374531e+54
-2.4441718e+54
9.9861388e+53
5.2675312e+53
-2.1151334e+54
1.0949379e+53
-1.0457619e+53
-5.0501076e+52
1.3839053e+53
-2.1579649e+54
-1.4066447e+53
-2.3667537e+53
1.7010932e+54
-1.9163063e+54
-2.052589e+53
1.0672707e+53
-1.3175497e+53
2.1826295e+54
-2.1921339e+54
2.1767781e+54
-2.1367353e+54
-1.9672909e+53
1.5370649e+53
-1.7441838e+53
3.3000826e+54
1.7636014e+55
-1.903628e+55
4.6468635e+53
1.8261892e+55
-1.8179592e+55
3.2045472e+53
-3.5533497e+54
1.0794906e+53
2.0662953e+53
-1.8725518e+54
8.6709546e+52
-1.1910498e+53
2.4446691e+53
1.0722387e+53
-1.7383236e+54
-1.6295571e+53
4.4572717e+53
1.75289e+54
-2.1710419e+54
3.7353785e+53
4.0139356e+53
-1.2675453e+54
1.7452838e+53
-1.5506988e+53
-1.3754546e+53
1.2364211e+54
-1.1951492e+54
-1.3016889e+54
-1.029384e+53
5.7177733e+53
-2.9959981e+55
-2.9822295e+55
-1.1821636e+54
-5.5560637e+52
1.329441e+54
-1.5146307e+52
-6.6395212e+54
-2.3451405e+52
-4.7382082e+52
-2.6662342e+54
-5.4246237e+54
1.1560904e+54
-2.6044293e+54
-5.3539792e+54
1.3074531e+54
-6.5664088e+54
4.8981967e+53
9.7467694e+52
-1.499278e+54
-1.2408019e+54
-1.2121056e+54
-1.4513211e+54
-1.62785e+53
-1.7001043e+53
-1.6462538e+53
3.1832596e+52
-1.7223603e+53
9.5106339e+52
-1.0635472e+54
-9.3793161e+53
-1.0833166e+54
-9.5330674e+53
5.0166309e+53
1.9198986e+52
-1.5054537e+54
-1.4648274e+54
-1.2191324e+54
-1.252396e+54
4.4255793e+50
-1.0685001e+54
-1.0971648e+54
-9.4212499e+53
-9.6936233e+53
-1.0226566e+54
2.8054303e+54
-6.7151084e+54
-7.189207e+54
-6.9100261e+54
-6.4400624e+54
-1.1689412e+54
9.804204e+52
1.3183572e+54
-5.1094646e+52
-6.6265935e+54
8.5463953e+52
-2.600295e+54
-4.2347842e+52
-5.4480147e+54
1.1549642e+54
-2.6702005e+54
-5.4281073e+54
1.3195609e+54
-6.6279126e+54
2.7585293e+54
-2.1133196e+54
-7.1453758e+54
-7.000522e+54
-6.5478494e+54
-6.6345445e+54
-3.0587122e+55
-3.1527052e+55
-2.7965303e+55
-2.732915e+55
1.4731325e+54
-2.8145413e+54
-6.2796435e+54
-6.3095016e+54
-5.1840172e+54
-5.2445269e+54
-6.4523677e+54
-6.1886666e+54
-5.251229e+54
-5.4395652e+54
8.9461423e+52
5.1036879e+53
-7.0294685e+52
-1.5176206e+54
-1.4680258e+54
-1.2239206e+54
-1.2608213e+54
4.9595154e+53
-1.4659617e+54
-1.5073252e+54
-1.2502359e+54
-1.2223218e+54
1.0719099e+53
-1.392091e+53
-1.0691792e+54
-1.1024032e+54
-9.3319809e+53
-9.5589569e+53
-1.0681817e+54
-1.0946134e+54
-9.6759439e+53
-9.4585253e+53
2.676515e+52
-2.5019629e+53
2.1476728e+53
-2.6893502e+53
-2.6136478e+53
-3.6947999e+53
-3.5040351e+53
-2.4730434e+53
1.7230593e+52
2.0641415e+53
-2.6364071e+53
-2.6687637e+53
-3.7015756e+53
-3.5701239e+53
-4.0590118e+51
-7.1198297e+51
-1.4010572e+54
-1.368655e+54
1.501755e+51
-5.2861769e+52
6.0502854e+52
1.9579702e+51
-5.5214149e+52
-5.1598278e+52
-8.0539289e+52
-8.5040449e+52
-5.25719e+52
6.0671247e+52
-5.3036094e+52
-5.2604936e+52
-8.405292e+52
-8.1447022e+52
-3.6235449e+51
-3.0001445e+53
-2.9451278e+53
-1.008766e+51
2.4872839e+53
1.800795e+52
-1.6598936e+52
-1.3994638e+54
6.0190591e+51
3.797238e+51
2.0846525e+53
-2.6814192e+53
-2.7487913e+53
-3.7578552e+53
-3.5838543e+53
-2.4114736e+53
2.0645242e+53
-2.6982865e+53
-2.6223985e+53
-3.5698997e+53
-3.7248289e+53
-1.4121682e+54
-1.2278814e+52
-2.4675643e+53
-7.1074181e+51
2.0832422e+53
-2.7020684e+53
-2.7316962e+53
-3.7728411e+53
-3.6405176e+53
-2.4321936e+53
2.0867549e+53
-2.7172153e+53
-2.6355048e+53
-3.5322138e+53
-3.7229326e+53
4.635523e+51
-2.7539113e+52
-1.4254445e+54
-1.3834696e+54
2.1967366e+52
-2.3817999e+53
2.0073409e+53
-2.7160374e+53
-2.780165e+53
-3.7609545e+53
-3.5957326e+53
-7.3231074e+51
-2.3630405e+53
2.0167183e+53
-2.7580103e+53
-2.6810352e+53
-3.5913707e+53
-3.7511422e+53
3.4127633e+52
-1.3840343e+54
-3.0544718e+52
-1.4055893e+54
-1.1846138e+54
-1.0578288e+53
7.0873609e+53
-1.2987396e+54
-1.6425301e+54
-1.7522185e+54
-1.3627409e+54
-1.5514408e+53
-6.2177983e+54
-1.1581098e+54
-2.9029245e+53
6.7554179e+53
-1.35263e+54
-1.3446565e+54
-1.691745e+54
-1.7386183e+54
-3.2668715e+53
-6.3727655e+54
-5.8992338e+54
-2.5163332e+54
2.4608083e+54
-6.4936294e+54
-6.8925981e+54
-8.0081089e+54
-7.4382353e+54
1.1107141e+54
3.0685584e+53
-6.237378e+54
-4.1838396e+53
3.4010776e+53
6.080056e+53
-3.9265446e+53
-1.3381553e+54
-1.6766521e+54
-1.3443731e+54
-1.7320891e+54
1.1642347e+54
-6.3710674e+54
6.8488847e+53
-1.3840673e+54
-1.3189422e+54
-1.7869518e+54
-1.6768619e+54
-1.96197e+54
-2.5543204e+55
5.4258723e+54
-2.5728201e+55
2.1128218e+54
-6.638878e+54
-6.6455638e+54
-7.6571884e+54
-7.819475e+54
1.3309168e+54
-1.6614265e+54
-1.9475279e+52
-6.6626166e+52
-6.8114227e+52
8.8908747e+52
9.2209386e+52
-5.3021342e+52
1.0191162e+53
-5.3996834e+52
1.056074e+53
-2.0296846e+52
-6.0751168e+54
-1.5730985e+53
-2.6585216e+53
4.7294216e+53
-2.8953351e+53
4.7835782e+53
1.2865461e+54
-1.6314257e+54
-8.0284245e+52
6.8034562e+52
-8.1291342e+52
7.1652808e+52
-1.9844015e+52
-1.3310934e+53
-7.5620162e+54
-3.413722e+53
3.9470705e+53
-3.7006179e+53
3.8813913e+53
-2.4541562e+52
-7.6418535e+52
7.4248799e+52
-7.7146181e+52
7.8123901e+52
-6.2854987e+54
-1.9056377e+53
-2.9694718e+53
4.8605752e+53
-2.9499712e+53
4.7122043e+53
-7.8200838e+54
-1.8078979e+53
3.8448707e+53
-3.6837952e+53
-3.6867366e+53
3.9987431e+53
5.7729825e+54
-7.4114064e+52
-4.0657526e+53
-3.8661646e+53
3.2191022e+53
3.1966326e+53
-7.3404867e+54
1.6473626e+54
-2.3262897e+52
-8.8666808e+52
-8.9577872e+52
6.2688498e+52
6.7648945e+52
-1.130038e+53
-4.0365604e+53
3.1979947e+53
3.1779251e+53
-3.8047949e+53
1.2881118e+54
-1.7699905e+52
-8.6750167e+52
-8.541794e+52
6.3828023e+52
6.7430481e+52
-1.9586072e+52
-8.5528378e+52
6.3156382e+52
-8.6302996e+52
6.7039279e+52
-5.9066744e+54
-1.6000702e+53
3.1065215e+53
3.2733155e+53
-4.2061431e+53
-4.2120166e+53
-1.3052273e+53
-4.2787028e+53
-4.3175023e+53
2.9475994e+53
3.0579273e+53
-7.4268611e+54
-1.002255e+54
1.5459609e+54
1.4046325e+54
-2.0086501e+54
2.6114153e+55
1.2349627e+54
-1.6828494e+54
-1.6940599e+54
1.7117437e+54
1.6024577e+54
-3.378575e+55
-1.457121e+54
1.507906e+54
2.0743845e+54
1.9130315e+54
-1.5011473e+54
-1.4295481e+54
-1.7565586e+54
2.5784597e+55
1.6345009e+54
-1.7923623e+54
-1.624899e+54
1.6909904e+54
-3.3020061e+55
-6.9849111e+54
9.2994543e+54
8.3051669e+54
-1.5188107e+56
-7.9188591e+54
-6.8095057e+54
5.7719163e+54
7.1660385e+54
-6.0525389e+54
-2.2645764e+55
1.6990566e+54
-2.2521892e+54
3.7746885e+53
1.2821731e+54
-1.7856367e+54
-4.1671291e+53
-2.8765881e+55
7.0229561e+54
7.5499868e+54
-6.299676e+54
6.6290313e+54
-6.2554409e+54
-6.8770055e+54
7.132342e+54
2.1768882e+55
-2.7934748e+55
-4.3299363e+53
4.3410048e+53
-1.5038686e+54
-1.3746178e+54
1.9650375e+54
1.9828682e+54
-5.8082199e+54
1.4869173e+53
7.6379317e+54
-2.473924e+53
3.0959258e+53
-4.0835012e+53
-4.0990527e+53
3.3083421e+53
1.0784177e+53
-2.1082597e+53
3.1325788e+53
2.9186737e+53
-4.2372712e+53
-4.2184615e+53
-7.2749624e+54
-5.8948333e+54
7.7343426e+54
3.2000594e+53
-3.9939775e+53
-4.2139711e+53
3.1794115e+53
3.0754098e+53
3.079955e+53
-4.3370461e+53
-4.1263109e+53
-7.4893093e+54
-1.4014595e+54
1.3483718e+54
1.5066598e+54
-1.953801e+54
-1.9014805e+54
-1.0131754e+54
2.2015587e+55
3.9015754e+53
2.2170614e+55
-1.5398833e+54
2.5147602e+53
1.4071256e+54
-1.6282928e+54
9.9103533e+51
5.6524186e+53
-2.0783767e+55
1.3815881e+54
-1.6117093e+54
5.9663833e+53
1.561324e+54
-1.1750989e+54
-2.1498263e+55
-2.1865861e+53
2.1083551e+55
-2.1622433e+55
-1.8403129e+53
6.7269664e+52
1.6923529e+53
-6.1472137e+54
-2.3171075e+53
-2.9275361e+53
-2.9605774e+53
4.5901246e+53
4.8023603e+53
-6.1927696e+54
4.7171896e+53
-2.8786021e+53
-3.0534265e+53
4.5927995e+53
-1.3418316e+53
3.8449503e+53
-3.7893569e+53
-3.6021703e+53
3.8210404e+53
-2.1965217e+53
3.7446913e+53
-3.7085329e+53
-3.6514013e+53
3.9251064e+53
-9.9899126e+53
2.1461292e+55
1.3121262e+53
2.1109068e+55
-1.2003239e+54
-1.5142828e+53
1.3917393e+54
-1.7287233e+54
-3.8106076e+52
-1.8062217e+53
-2.0086241e+54
1.5080289e+53
-1.5419666e+53
-2.0935399e+52
1.2085823e+53
-1.4393948e+53
-1.8161365e+54
-1.0509082e+53
1.8193087e+54
-1.9559411e+54
-3.4265293e+52
-1.2228124e+53
1.6683466e+54
8.9182258e+52
-5.4691133e+52
9.5348523e+52
1.1106662e+53
-1.1753471e+53
1.9526505e+54
-1.2627165e+54
1.8609525e+54
3.2945374e+53
-1.8766804e+54
1.3030589e+53
-2.1667339e+53
1.0321429e+53
-1.8621552e+53
-1.5058232e+54
1.9333351e+54
-1.5361296e+54
-1.0183495e+52
1.2230845e+53
1.1568472e+53
-1.6789504e+54
-2.9269478e+52
-2.6905246e+52
-8.6513467e+51
1.1824684e+53
1.1572782e+53
-1.7172212e+54
-3.0369544e+52
-3.2131973e+52
-6.603151e+50
2.4600619e+52
2.6610674e+52
-3.5839739e+53
-8.6321472e+49
-8.6617916e+51
-9.0222062e+51
2.5604765e+52
2.5031784e+52
-3.6519445e+53
-8.9758443e+51
-9.2093398e+51
-5.5402514e+51
1.1479518e+53
1.2087224e+53
-1.7378208e+54
-3.2443289e+52
-3.1035305e+52
-5.9243816e+51
1.2078897e+53
1.1563399e+53
-1.7252669e+54
-3.0101549e+52
-3.2077021e+52
-1.1636004e+52
1.1513559e+53
1.214353e+53
-1.6978725e+54
-3.1166975e+52
-2.8878392e+52
-1.9924063e+52
1.2121843e+53
1.1747731e+53
-1.7474854e+54
-3.1302533e+52
-3.2483268e+52
-1.7631239e+52
1.1722118e+53
1.2114941e+53
-1.7316384e+54
-3.209169e+52
-2.9530028e+52
1.2200919e+53
1.1548382e+53
-1.7066458e+54
-2.5253914e+52
-3.0161054e+52
-3.0478266e+52
-2.1105084e+53
5.4094979e+53
5.7159959e+53
-7.6142579e+54
-1.2196232e+53
-1.4447227e+53
-2.5765807e+53
5.3220113e+53
5.6126621e+53
-7.8290896e+54
-1.4202577e+53
-1.5237038e+53
2.4785398e+53
5.2427672e+53
5.6479552e+53
-7.639605e+54
-3.3532019e+53
-1.508316e+53
-1.3502163e+53
-1.7226236e+54
2.7094243e+54
2.703325e+54
-3.298025e+55
-4.1591932e+53
-6.249079e+53
5.7070612e+53
5.5345177e+53
-7.7845594e+54
-1.5204435e+53
-1.2959596e+53
2.4210302e+54
2.6775611e+54
-3.2594433e+55
-7.1505148e+53
-5.6959523e+53
-2.4800021e+54
-2.0993093e+55
-4.5062217e+53
-1.9943675e+55
-1.1688556e+54
2.077066e+54
-2.7273469e+55
-7.3823723e+53
-2.8307063e+55
-1.7374526e+53
2.1915429e+54
2.0512632e+55
-2.1597037e+55
-2.3313807e+54
9.1973592e+53
1.8574119e+55
-1.9467851e+55
8.8941666e+53
-2.8461788e+54
8.758297e+53
-2.7326058e+54
8.3088245e+53
-1.1551929e+53
1.9820853e+54
-1.8382001e+54
1.6986485e+53
1.4598799e+54
-1.2933355e+54
-1.4345077e+53
7.8611732e+53
1.3610293e+53
-1.6091189e+53
7.4497759e+53
3.6932286e+53
-1.5629959e+54
1.1616817e+53
-8.3967585e+52
1.023661e+53
-1.7448252e+54
-1.0396982e+53
1.360072e+54
-1.5989003e+54
2.3072368e+53
1.7807357e+54
-1.6975714e+54
3.9685297e+53
1.7590279e+54
-1.7155574e+54
3.447438e+53
-2.1371335e+53
1.8725711e+53
3.0492688e+53
-1.7459381e+54
1.2226321e+53
-1.5888526e+53
1.2280811e+53
-1.6405514e+54
-1.7879157e+53
1.5133429e+54
-1.4622625e+54
9.4792596e+53
-2.358311e+53
-1.8675136e+53
-1.1559122e+54
-2.3432423e+53
-1.9806532e+53
-1.1388905e+54
4.6178405e+51
5.7445256e+53
5.6604284e+53
-3.6623376e+52
-6.5874337e+54
-9.7919298e+51
-1.1889908e+52
4.8944238e+52
-7.1837103e+52
-6.7749426e+54
1.1229807e+54
-6.6708701e+54
5.7702022e+53
5.5721445e+53
-6.552001e+54
-1.3019212e+52
-8.9882918e+51
2.9257831e+53
-2.2449837e+52
1.463115e+52
-1.207016e+54
-3.0376342e+52
2.9602843e+53
2.2224073e+52
-1.2360973e+54
-2.9092848e+53
2.9347871e+53
-1.2257777e+54
-1.1998445e+54
6.3020787e+52
3.3834193e+52
-2.4207908e+53
-2.35869e+53
-1.8291622e+53
-1.8010721e+53
4.595962e+52
5.9555525e+51
-4.6771271e+52
-4.8925649e+52
-3.3499885e+52
-3.2218556e+52
-2.3125076e+51
-1.6150486e+52
-2.9721612e+52
-3.0973923e+52
-2.1258194e+52
6.2952772e+51
-2.2703616e+52
-1.6709225e+52
-3.0430182e+52
-3.0085355e+52
-2.2297323e+52
-2.2559311e+52
-8.1999338e+50
-2.0159789e+52
5.134684e+51
-3.8014892e+52
-4.3499863e+52
-2.2912917e+52
3.661652e+52
-1.6483837e+53
-1.6574734e+53
-1.6679289e+53
-1.6754743e+53
-2.2310032e+52
-2.1158214e+52
-3.939341e+52
-4.2029692e+52
6.6606049e+52
2.5960004e+52
-2.3660634e+53
-2.4435481e+53
-1.7974815e+53
-1.8530849e+53
2.3849294e+52
-1.6797923e+53
-1.6896615e+53
-1.6440444e+53
-1.6616784e+53
-2.8815041e+51
2.9283824e+53
-1.2063257e+54
2.9268443e+53
1.0252796e+52
-1.2046026e+54
-1.9462253e+51
2.9505771e+53
1.6596279e+52
-1.2361543e+54
2.9665885e+53
-1.2359376e+54
-3.6907745e+51
6.5084861e+52
1.5383759e+52
-1.8090752e+53
-1.8674126e+53
-2.4539539e+53
-2.3717421e+53
6.5285889e+52
-2.4241016e+53
-2.3714965e+53
-1.8038277e+53
-1.8357903e+53
1.2220996e+51
1.1865004e+52
-1.6727203e+53
-1.7201333e+53
-1.6896924e+53
-1.7340564e+53
-1.6895074e+53
-1.7260958e+53
-1.6542946e+53
-1.6556249e+53
-1.1594652e+54
-4.9386993e+50
-1.0939271e+53
1.2782628e+54
-6.724018e+54
-2.2377321e+52
-9.5741741e+52
-2.667314e+54
-5.5632392e+54
1.138622e+54
-2.6061382e+54
-5.5072358e+54
1.2807805e+54
-6.6338091e+54
-1.1457414e+54
7.1211545e+52
5.7725381e+53
5.6301563e+53
-6.2031254e+52
-6.6076975e+54
-1.1080593e+52
-1.1520547e+52
8.3238955e+52
-8.3238917e+52
-6.8295853e+54
1.118069e+54
-6.7215234e+54
5.5673664e+53
5.7118083e+53
-6.565477e+54
-1.8588495e+52
-1.9106075e+52
-1.8019022e+54
2.5314859e+54
-6.7287985e+54
-7.2050973e+54
-6.8671179e+54
-6.4072578e+54
-1.2278933e+53
1.1233962e+54
-2.6376122e+54
-5.6041108e+54
1.1040923e+54
-2.5520307e+54
-1.5301775e+53
-5.5223543e+54
1.8168624e+53
1.1992608e+54
-1.983052e+53
-6.6263995e+54
1.2344098e+54
-6.6732644e+54
2.4154429e+54
-6.5361159e+54
-6.9693418e+54
-7.0565799e+54
-6.5606402e+54
2.4351994e+54
-6.168052e+54
-6.1639703e+54
-4.9335155e+54
-4.9706537e+54
-6.0592275e+54
-5.2701202e+54
-4.9714698e+54
-6.4153842e+54
2.3378801e+53
4.7607664e+53
-3.0306721e+53
-1.5192467e+54
-1.4811241e+54
-1.2319437e+54
-1.2548666e+54
4.7053633e+53
1.6865107e+53
-1.2608041e+54
-1.5231249e+54
-1.4735921e+54
-1.22297e+54
3.4675101e+53
-4.524396e+53
-1.0678548e+54
-1.0786775e+54
-9.2130747e+53
-9.2640765e+53
3.1156623e+53
-1.0582181e+54
-9.6513151e+53
-1.1035325e+54
-9.2703402e+53
6.6389087e+51
4.8517144e+53
-1.2339922e+54
-1.4859589e+54
-1.5205317e+54
-1.2567805e+54
4.8762379e+53
-1.2566292e+54
-1.5189211e+54
-1.4652569e+54
-1.2183582e+54
-1.0409423e+53
-1.0639125e+54
-9.8151416e+53
-1.1042827e+54
-9.4027448e+53
-1.079704e+54
-1.0899264e+54
-9.3885816e+53
-9.62891e+53
-9.2868869e+51
2.9137432e+53
-6.6652056e+51
-1.2157881e+54
2.8944844e+53
-1.2082405e+54
4.4952226e+51
8.2556046e+51
2.9034342e+53
6.452931e+51
-1.2395234e+54
-8.3897022e+51
2.9400164e+53
-1.2468025e+54
1.8986619e+52
2.8996492e+53
-1.2079233e+54
2.9129007e+53
-1.2151127e+54
-2.1613006e+52
2.9364982e+53
-1.2393717e+54
2.9359452e+53
-1.2309677e+54
9.7651713e+51
6.4442558e+52
1.2775341e+51
-2.3792881e+53
-2.460115e+53
-1.8248242e+53
-1.8789771e+53
6.2368276e+52
-4.6917721e+51
-2.4573808e+53
-2.3985601e+53
-1.8757159e+53
-1.831463e+53
1.4315266e+52
1.3427896e+49
-1.674749e+53
-1.7349684e+53
-1.6759968e+53
-1.7377823e+53
6.2264956e+51
-1.7305235e+53
-1.680371e+53
-1.7345641e+53
-1.692203e+53
1.9639024e+52
6.3633184e+52
-2.4257414e+53
-2.3608356e+53
-1.8011827e+53
-1.8369885e+53
6.1723742e+52
-2.4388082e+53
-2.3636867e+53
-1.8151935e+53
-1.8597072e+53
-1.2815774e+52
-1.6787612e+53
-1.704133e+53
-1.7000843e+53
-1.7020567e+53
-1.693275e+53
-1.708824e+53
-1.668712e+53
-1.6741337e+53
-6.3862951e+51
-5.3914381e+52
5.7254179e+51
5.9481341e+52
-5.4667493e+52
-5.2882886e+52
-8.1628901e+52
-8.4661431e+52
-5.4370687e+52
5.9476293e+52
-5.3132581e+52
-5.3641083e+52
-8.4057611e+52
-8.0067246e+52
-2.9547994e+51
1.9796759e+51
-3.0011067e+53
-2.9305302e+53
-1.1642373e+51
-5.3640061e+52
5.4912214e+51
5.9378531e+52
-8.0912842e+52
-5.2927154e+52
-5.4851944e+52
-8.5013839e+52
-5.0420352e+52
5.3987695e+52
-5.2402352e+52
-5.0085985e+52
-8.2729345e+52
-8.0664607e+52
-4.6912733e+50
-2.9988219e+53
1.6220032e+51
-2.9701567e+53
-2.9930251e+49
-9.5588608e+51
-1.9128283e+51
2.4991224e+52
-6.8703697e+52
-8.2816483e+51
2.0724056e+52
2.1566407e+51
-6.6227226e+52
5.0690031e+50
-6.5266151e+52
5.3895656e+50
-6.0211116e+50
-6.6879608e+52
1.5327976e+51
-9.1217928e+51
2.4375065e+52
-6.7048313e+52
-7.8724918e+51
2.0790509e+52
-6.590294e+52
-8.1505136e+50
-6.610769e+52
-6.5518312e+52
1.8186334e+50
-5.4161141e+52
2.3885345e+51
6.0206396e+52
-8.1541379e+52
-5.420789e+52
-5.527892e+52
-8.5729179e+52
-5.2918883e+52
-4.599566e+51
5.8849715e+52
-8.526486e+52
-5.4709211e+52
-5.3607836e+52
-8.2446405e+52
-2.3142938e+51
-1.7322535e+51
-3.0386878e+53
-6.6618262e+50
-2.9856065e+53
-7.6371995e+51
-5.3364739e+52
5.9642641e+52
-8.126814e+52
-5.1180227e+52
-5.5446542e+52
-8.5173768e+52
-5.1763602e+52
5.5410898e+52
-8.3630423e+52
-5.3191395e+52
-5.1385392e+52
-7.9825705e+52
3.8850843e+51
-2.962214e+53
-3.0282253e+53
-7.2714668e+50
-5.4235781e+52
2.5344667e+51
6.0849923e+52
-5.6125651e+52
-5.4318693e+52
-8.188821e+52
-8.6295595e+52
-5.1941614e+52
-4.4150006e+51
5.6835411e+52
-5.3654842e+52
-5.3969723e+52
-8.49461e+52
-8.1804795e+52
-2.0496185e+51
-1.0167494e+51
-3.0494087e+53
-1.4842786e+51
-3.0137551e+53
-6.3277229e+51
-5.3315438e+52
5.8880358e+52
-5.5781162e+52
-5.2325889e+52
-8.1858522e+52
-8.5408055e+52
-5.3818734e+52
5.8701418e+52
-8.4093879e+52
-5.4524079e+52
-5.3416122e+52
-8.0338183e+52
2.9490813e+51
-2.9551975e+53
-3.0224105e+53
3.1888912e+51
-5.3992444e+52
6.0206044e+52
-5.7226079e+52
-5.5154921e+52
3.2427687e+50
-8.2528958e+52
-8.6420462e+52
-5.3952877e+52
-1.5146289e+51
6.1953191e+52
-5.5127703e+52
-5.6367175e+52
-8.6625333e+52
-8.3192961e+52
-4.9294613e+51
2.2984638e+51
-3.0540809e+53
-2.9979168e+53
-3.2196389e+51
-2.4488521e+53
7.4711076e+51
2.082995e+53
-2.6891732e+53
-3.5555003e+53
-2.7662733e+53
-3.7585352e+53
-4.1888623e+51
-5.362355e+52
6.0500112e+52
-5.6653681e+52
-5.4631544e+52
-8.2772405e+52
-8.5945627e+52
-5.4774644e+52
6.1312473e+52
-5.4182637e+52
-5.5232726e+52
-8.5436053e+52
-8.1444247e+52
9.0575901e+50
-2.9908054e+53
-3.0438412e+53
-6.8870994e+51
-1.3701231e+54
2.4655732e+53
-2.6291457e+52
-1.407772e+54
-1.164567e+52
2.0571122e+53
-2.7590015e+53
-2.8088889e+53
-3.7951843e+53
-3.6647068e+53
-3.4606084e+52
-2.3931467e+53
2.0487005e+53
-2.8145698e+53
-2.707891e+53
-3.6270442e+53
-3.8027445e+53
-2.3955716e+53
-3.2579154e+52
1.9176996e+53
-2.7628277e+53
-2.7928562e+53
-3.7878561e+53
-3.6454171e+53
3.2991076e+52
-4.1228351e+52
-1.3908637e+54
-1.4099671e+54
-2.3737487e+53
-1.2316927e+54
6.9429214e+53
-1.3824233e+54
-1.7644684e+54
-1.3116481e+54
-1.6529714e+54
-1.1882587e+54
-4.0698475e+53
6.4581943e+53
-1.3640828e+54
-1.7477838e+54
-1.3622057e+54
-1.7064795e+54
2.2485662e+53
-3.9257947e+53
-6.3192213e+54
-6.1601304e+54
-2.3458133e+53
5.0865196e+52
1.8607197e+53
-4.1717091e+52
-3.6339766e+53
-2.7549468e+53
-2.806518e+53
-3.7924977e+53
4.8876847e+52
-1.3834947e+54
-5.2338901e+52
-2.3537179e+53
4.3025207e+52
1.9394809e+53
-2.8115069e+53
-2.7120447e+53
-3.7997183e+53
-3.627821e+53
5.1180746e+52
-1.4049692e+54
1.8149474e+52
-2.4358735e+53
1.951738e+53
-2.7754517e+53
-2.8037993e+53
-3.7035213e+53
-3.8250012e+53
-2.4667176e+53
2.0316877e+53
-3.8011962e+53
-2.8062262e+53
-2.7011372e+53
-3.5901253e+53
2.1747317e+52
-1.4303995e+54
-1.3895629e+54
4.0596876e+53
-1.0670928e+54
5.4284073e+53
-1.6744049e+54
-1.3417269e+54
-1.3504406e+54
-1.7267117e+54
-1.1382173e+54
6.4265925e+53
-1.3926751e+54
-1.3214102e+54
-1.7685887e+54
-1.66835e+54
3.3360377e+53
-6.2013787e+54
-6.3391069e+54
1.3219188e+54
-1.4467028e+52
-1.6508306e+54
-6.6220954e+52
9.447591e+52
-6.261482e+52
9.2411396e+52
4.337036e+50
2.664652e+53
-3.3685329e+53
-1.683823e+51
-1.4431149e+52
1.6795081e+52
1.7497171e+52
-1.4849018e+52
2.6993731e+53
-3.4309628e+53
-1.4965369e+52
1.7332291e+52
-1.4422373e+52
1.7027274e+52
5.7870727e+50
3.463995e+53
-1.7442585e+51
1.8830255e+52
-1.3245379e+52
1.8194893e+52
-1.363972e+52
3.5220462e+53
-1.3361036e+52
1.8215826e+52
-1.3766448e+52
1.8770365e+52
2.7747807e+53
-5.4224321e+50
-9.3762564e+50
-1.169298e+52
2.0418658e+52
2.0902385e+52
-1.2248052e+52
3.4140642e+50
-9.8151916e+50
-1.0531301e+52
2.1285571e+52
2.1850038e+52
-1.097185e+52
2.8071039e+53
-1.2278389e+52
-1.1843281e+52
2.092358e+52
2.0404717e+52
-1.10839e+52
-1.0775317e+52
2.1716233e+52
2.1163545e+52
-1.4959601e+52
-4.8852898e+52
1.0415556e+53
-5.1760734e+52
1.0703149e+53
1.3410524e+54
-1.6808851e+54
-1.477004e+52
-6.5783943e+52
9.1034954e+52
-6.7495183e+52
9.2847192e+52
-1.7527159e+52
-5.1854187e+52
1.0384129e+53
-5.3137982e+52
1.0590758e+53
2.59435e+53
1.2160529e+51
-3.3269427e+53
-2.0351227e+51
-1.6742544e+52
-1.7136862e+52
1.355167e+52
1.4122005e+52
1.7914478e+51
3.3322293e+53
-1.6842597e+52
-2.5534184e+51
1.448473e+52
-1.6494045e+52
1.3860693e+52
2.6301115e+53
-3.3924056e+53
1.408077e+52
-1.716507e+52
1.4187821e+52
-1.6508517e+52