/*--------------------------------*- C++ -*----------------------------------*\
  =========                 |
  \\      /  F ield         | OpenFOAM: The Open Source CFD Toolbox
   \\    /   O peration     | Website:  https://openfoam.org
    \\  /    A nd           | Version:  7
     \\/     M anipulation  |
\*---------------------------------------------------------------------------*/
FoamFile
{
    version     2.0;
    format      ascii;
    class       volScalarField;
    location    "3000";
    object      pMean;
}
// * * * * * * * * * * * * * * * * * * * * * * * * * * * * * * * * * * * * * //

dimensions      [0 2 -2 0 0 0 0];

internalField   nonuniform List<scalar> 
33730
(
-2.5256003e+37
-2.5545355e+37
-2.2947061e+37
-2.4384376e+37
-1.8424635e+37
-2.307813e+37
-2.1511554e+37
-2.0728634e+37
-2.3792925e+37
-2.4122867e+37
-2.5080753e+37
-2.4612769e+37
-2.5470028e+37
-2.2934498e+37
-2.0202e+37
-1.8507502e+37
-2.0194135e+37
-2.481652e+37
-2.2916132e+37
-2.284498e+37
-2.2993792e+37
-2.2889049e+37
-2.3270388e+37
-2.3419136e+37
-2.5099081e+37
-2.1595322e+37
-2.337522e+37
-2.4565333e+37
-2.2144531e+37
-1.9805007e+37
-2.3713302e+37
-2.4741964e+37
-2.3524533e+37
-2.0923708e+37
-2.0481038e+37
-1.9619046e+37
-2.5630316e+37
-2.0221436e+37
-2.4082868e+37
-2.3576414e+37
-2.355006e+37
-2.3735895e+37
-2.4353391e+37
-2.3957314e+37
-2.2909605e+37
-2.1130717e+37
-2.0229731e+37
-2.0038494e+37
-2.4601333e+37
-2.1130919e+37
-2.2720497e+37
-1.5468289e+37
-1.1859298e+37
-1.8665024e+37
-2.1846911e+37
-1.9963399e+37
-2.1979122e+37
-1.8551718e+37
-2.514581e+37
-2.6757171e+37
-2.3180685e+37
-2.2826591e+37
-2.2863759e+37
-2.3130647e+37
-2.298875e+37
-2.2919734e+37
-2.280321e+37
-2.3174339e+37
-2.3283964e+37
-2.5406135e+37
-2.2358054e+37
-2.3936195e+37
-2.4216385e+37
-1.9147247e+37
-2.2194775e+37
-2.4795312e+37
-2.5555109e+37
-2.4678761e+37
-2.2321616e+37
-2.3468573e+37
-3.4467202e+37
-2.1575572e+37
-2.1789017e+37
-2.4126415e+37
-2.3119988e+37
-2.4566139e+37
-2.5141908e+37
-2.3573521e+37
-4.2347111e+37
-5.1488877e+37
-7.2751019e+37
-2.7768072e+37
-2.4129854e+37
-2.3345178e+37
-3.4134505e+37
-2.5487855e+37
-2.351247e+37
-2.3510809e+37
-2.3667364e+37
-2.4255166e+37
-2.281804e+37
-2.4509247e+37
-2.3140007e+37
-2.2277141e+37
-2.3643981e+37
-2.3602466e+37
-2.2532304e+37
-1.9387132e+37
-2.2011776e+37
-1.693751e+37
-2.2724922e+37
-2.2361593e+37
-2.7910441e+37
-1.7677026e+37
-2.8001385e+37
-1.793053e+37
-1.8448498e+37
-1.9987237e+37
-2.5077523e+37
-2.1937104e+37
-2.2991059e+37
-1.0674578e+37
-1.2306077e+37
-5.5438556e+37
-2.5102256e+37
-4.2063199e+37
-1.5782955e+37
-2.4906917e+37
-1.6234012e+37
-1.9209536e+37
-2.6094166e+37
-1.9074104e+37
-2.4563367e+37
-5.3099401e+37
-2.3378935e+37
-2.3228903e+37
-2.3640678e+37
-2.3273806e+37
-2.2987485e+37
-2.2764325e+37
-2.2770337e+37
-2.3099399e+37
-2.2998135e+37
-2.2920102e+37
-2.2802233e+37
-2.3186221e+37
-2.3298189e+37
-2.6909881e+37
-2.0915228e+37
-2.0635376e+37
-2.4557793e+37
-2.4807919e+37
-2.6160357e+37
-2.5797086e+37
-2.2560279e+37
-2.1901803e+37
-1.755703e+37
-2.3531672e+37
-2.378651e+37
-1.7094656e+37
-2.1359216e+37
-2.5949163e+37
-2.4759757e+37
-2.3547457e+37
-2.4213829e+37
-2.3836252e+37
-3.797025e+37
-2.34544e+37
-1.9643999e+37
-5.9642618e+37
-2.4274484e+37
-2.7120353e+37
-4.6653641e+37
-2.4840136e+37
-6.2515812e+37
-2.4567586e+37
-2.5068405e+37
-2.3493542e+37
-3.7057323e+37
-5.1014898e+37
-7.2558824e+37
-4.80174e+37
-2.6401936e+37
-2.6192359e+37
-3.4880281e+37
-3.100812e+37
-3.255346e+37
-2.5326262e+37
-2.3508432e+37
-2.3507799e+37
-2.3676567e+37
-2.4266029e+37
-3.005944e+37
-2.2951482e+37
-2.3179818e+37
-2.2686466e+37
-2.2837044e+37
-2.278979e+37
-2.5140151e+37
-2.3180356e+37
-2.3318192e+37
-2.3781966e+37
-2.3267043e+37
-1.9587909e+37
-1.9179281e+37
-1.893221e+37
-2.0326991e+37
-2.3007684e+37
-2.3160458e+37
-2.2361775e+37
-2.3000519e+37
-2.2818048e+37
-2.3126796e+37
-2.3440801e+37
-1.8323948e+37
-2.0258324e+37
-8.9305178e+36
-2.2832341e+37
-4.8853161e+37
-1.1224715e+37
-5.7954056e+37
-1.570798e+37
-4.7603601e+37
-1.6703113e+37
-1.5932503e+37
-3.060268e+37
-1.8497317e+37
-2.5960665e+37
-1.9671166e+37
-2.116051e+37
-4.355407e+37
-2.3161566e+37
-7.9901649e+36
-7.4122099e+37
-5.7559403e+37
-4.7068313e+37
-3.6143785e+37
-2.7296751e+37
-2.8987172e+37
-2.0569753e+37
-4.0251453e+37
-2.7770999e+37
-1.9976545e+37
-2.2667977e+37
-2.6752193e+37
-2.1315262e+37
-1.34736e+37
-3.6647204e+37
-4.0603954e+37
-2.2794441e+37
-2.4051624e+37
-2.3641478e+37
-2.4090546e+37
-2.388498e+37
-2.3437293e+37
-2.3096279e+37
-2.3467933e+37
-2.3206306e+37
-2.2907957e+37
-2.2772295e+37
-2.2779321e+37
-2.3113508e+37
-2.298107e+37
-2.2921131e+37
-2.2803233e+37
-2.3186909e+37
-2.3299142e+37
-2.7243533e+37
-1.9156431e+37
-2.2775642e+37
-2.1993733e+37
-2.27684e+37
-2.5125064e+37
-2.5393135e+37
-2.5798846e+37
-2.6547066e+37
-2.7197454e+37
-1.5820143e+37
-2.4149962e+37
-2.4719051e+37
-2.5682239e+37
-2.2896742e+37
-2.4347097e+37
-2.5821757e+37
-2.2202616e+37
-2.3012045e+37
-2.277607e+37
-2.346647e+37
-2.3757373e+37
-1.6583239e+37
-3.4099236e+37
-2.1535561e+37
-3.3671211e+37
-3.9016339e+37
-1.7067364e+37
-2.287018e+37
-2.435813e+37
-2.3741618e+37
-3.5083798e+37
-2.3458818e+37
-5.1627304e+37
-2.7067374e+37
-4.7172715e+37
-2.9513454e+37
-2.9090073e+37
-4.177726e+37
-4.5676978e+37
-2.6119579e+37
-5.3789769e+37
-2.4585697e+37
-2.507308e+37
-2.3491424e+37
-4.2422155e+37
-3.8737003e+37
-2.9985878e+37
-2.6372285e+37
-3.383391e+37
-4.3559676e+37
-2.989947e+37
-2.5379005e+37
-3.5502455e+37
-3.1428698e+37
-2.4935117e+37
-2.2494001e+37
-2.3216418e+37
-2.2960262e+37
-2.2985949e+37
-2.3038226e+37
-2.2893142e+37
-2.3003773e+37
-2.25838e+37
-2.2762585e+37
-2.270157e+37
-2.599913e+37
-2.335207e+37
-2.3740915e+37
-2.3807626e+37
-2.3002966e+37
-2.0902656e+37
-1.8981623e+37
-1.9673541e+37
-1.6762296e+37
-2.2593251e+37
-2.258438e+37
-2.2465763e+37
-2.3615141e+37
-2.3694557e+37
-2.2948627e+37
-2.0889809e+37
-1.7593936e+37
-2.0754356e+37
-1.7404171e+37
-2.2811838e+37
-2.2384666e+37
-2.2409631e+37
-2.8135813e+37
-2.294617e+37
-2.1295916e+37
-2.6824511e+37
-2.3013195e+37
-3.5085142e+37
-5.4874258e+37
-1.6735005e+38
-1.6507248e+38
-2.3298831e+37
-4.4778995e+37
-1.6687887e+37
-4.1496307e+37
-4.9796956e+37
-3.9199996e+37
-4.3574596e+36
-5.7280801e+37
-1.7246839e+37
-6.9755279e+37
-2.6582755e+37
-2.4977158e+37
-2.1508909e+37
-2.1698325e+37
-2.0429875e+37
-1.852492e+37
-1.5045832e+37
-4.0560705e+37
-2.390425e+37
-7.4736925e+37
-3.2708712e+37
-4.4601905e+37
-2.6743839e+37
-4.4088705e+37
-3.8697566e+37
-2.7525688e+37
-1.6423357e+37
-1.8740892e+37
-2.4911737e+37
-2.7015076e+37
-1.5457359e+37
-2.0623618e+37
-3.0649224e+37
-2.0319088e+37
-3.8598312e+37
-8.6436891e+37
-2.3206337e+37
-2.2712634e+37
-2.2521521e+37
-2.2834257e+37
-2.3043032e+37
-2.459513e+37
-2.4107603e+37
-2.4587936e+37
-2.4395171e+37
-2.3904163e+37
-2.3602991e+37
-2.407211e+37
-2.3769259e+37
-2.3345405e+37
-2.3093139e+37
-2.3435027e+37
-2.3165987e+37
-2.2913157e+37
-2.2773455e+37
-2.2780634e+37
-2.3113291e+37
-2.2980018e+37
-2.7912131e+37
-2.4315936e+37
-2.2190777e+37
-2.560068e+37
-2.5636198e+37
-2.6597043e+37
-2.6416423e+37
-2.6050042e+37
-2.5751495e+37
-2.4381334e+37
-2.7700689e+37
-1.6716548e+37
-2.3584962e+37
-2.2920741e+37
-2.4339826e+37
-2.520201e+37
-2.5662132e+37
-2.6619773e+37
-2.6891686e+37
-4.3483671e+37
-2.2928392e+37
-2.4078635e+37
-2.4646205e+37
-2.3151909e+37
-2.5630792e+37
-1.7091357e+37
-2.2534992e+37
-2.4346013e+37
-2.1336877e+37
-5.2807074e+37
-4.9419015e+37
-2.078562e+37
-2.3464027e+37
-2.375643e+37
-5.0983378e+37
-1.6760792e+37
-3.2007728e+37
-2.3933886e+37
-2.6519971e+37
-3.5620292e+37
-4.3977143e+37
-1.8083813e+37
-2.6607131e+37
-2.4368941e+37
-2.3743528e+37
-5.1876914e+37
-7.4244393e+37
-2.7238855e+37
-2.9879424e+37
-2.9368199e+37
-3.985623e+37
-3.7623238e+37
-2.6260885e+37
-3.7906509e+37
-3.3850586e+37
-3.0504752e+37
-3.9071992e+37
-2.8655658e+37
-3.0178378e+37
-2.9144623e+37
-2.4890512e+37
-3.2579998e+37
-2.2734441e+37
-2.2403474e+37
-2.2167314e+37
-2.2494492e+37
-2.2097982e+37
-2.3716238e+37
-2.3304292e+37
-2.3172594e+37
-2.2999039e+37
-2.3114003e+37
-2.282703e+37
-2.2787744e+37
-2.2877622e+37
-2.2765811e+37
-2.2976889e+37
-2.2575379e+37
-2.2719085e+37
-2.2693887e+37
-2.6451918e+37
-2.4675937e+37
-2.5346277e+37
-2.5429275e+37
-2.4408423e+37
-3.8287498e+37
-2.2008e+37
-2.2567611e+37
-1.8411219e+37
-2.2661977e+37
-2.2443026e+37
-2.1204211e+37
-2.2691898e+37
-2.5420144e+37
-2.2683292e+37
-2.0657355e+37
-1.6613438e+37
-2.5893582e+37
-1.7159007e+37
-2.2453368e+37
-2.1809015e+37
-2.2833051e+37
-2.5068483e+37
-2.3491441e+37
-2.4650426e+37
-2.6741734e+37
-2.2861615e+37
-7.0866886e+37
-3.4962379e+37
-8.4443763e+37
-2.4080772e+37
-2.2799686e+37
-2.3801877e+37
-2.0011404e+37
-2.235436e+37
-5.1279158e+37
-2.2954883e+37
-2.4709531e+37
-2.1191726e+37
-6.4903139e+37
-2.3005309e+37
-3.0272255e+37
-5.6664874e+37
-1.7509082e+38
-1.8242432e+38
-2.3620174e+37
-1.1815315e+37
-4.6791526e+37
-1.2846866e+38
-5.2838589e+37
-5.337417e+37
-5.5945274e+37
-2.7161981e+37
-1.8873082e+37
-2.8230119e+37
-3.0980555e+37
-2.2621527e+37
-1.9466755e+37
-1.52082e+37
-2.1780651e+37
-1.649262e+37
-5.0741502e+37
-5.8370501e+37
-2.4340455e+37
-3.3082359e+37
-3.7380389e+37
-2.7893701e+37
-2.046525e+37
-1.9361186e+37
-1.9463005e+37
-2.6678312e+37
-2.1246537e+37
-2.0677472e+37
-2.9723045e+37
-4.7290397e+37
-2.1677992e+37
-4.2526866e+37
-2.8741981e+37
-5.8857302e+37
-3.8961473e+37
-6.8182353e+37
-2.2531212e+37
-2.3464567e+37
-2.2891788e+37
-2.3084707e+37
-2.324837e+37
-2.3457548e+37
-2.2686246e+37
-2.2487869e+37
-2.2841612e+37
-2.3072479e+37
-2.5176501e+37
-2.4506763e+37
-2.4939427e+37
-2.4813609e+37
-2.4331206e+37
-2.4047783e+37
-2.4666397e+37
-2.43915e+37
-2.3833411e+37
-2.3629522e+37
-2.4068869e+37
-2.3762236e+37
-2.3366068e+37
-2.3093924e+37
-2.3432791e+37
-2.3163631e+37
-2.2914477e+37
-2.874147e+37
-2.3876043e+37
-2.5818271e+37
-2.5995964e+37
-2.6642254e+37
-2.5462401e+37
-2.5464673e+37
-2.6235456e+37
-2.5854954e+37
-2.6764092e+37
-2.6397378e+37
-2.4577296e+37
-2.5489526e+37
-2.5519053e+37
-2.9932943e+37
-3.1102112e+37
-2.6899038e+37
-2.6708398e+37
-2.6343278e+37
-7.4808241e+37
-3.6949577e+37
-2.6208223e+37
-7.8932409e+37
-2.5700594e+37
-3.3761764e+37
-2.5158287e+37
-2.4532251e+37
-2.5135338e+37
-2.5573562e+37
-2.630912e+37
-2.6599874e+37
-3.5996854e+37
-2.2284387e+37
-2.4071126e+37
-2.4641897e+37
-2.517735e+37
-2.5460227e+37
-2.5633756e+37
-1.1587735e+38
-1.8796247e+37
-2.2795229e+37
-2.4358849e+37
-3.5752085e+37
-4.2498997e+37
-4.3611795e+37
-4.4554545e+37
-1.8266491e+37
-1.8716314e+37
-2.4126866e+37
-4.5121586e+37
-3.1375658e+37
-2.1005083e+37
-2.6906443e+37
-7.2853288e+37
-2.3671783e+37
-2.7145115e+37
-2.962516e+37
-3.4968189e+37
-3.5282811e+37
-4.0392917e+37
-3.1975716e+37
-1.7543396e+37
-2.3103662e+37
-2.2426302e+37
-2.2837679e+37
-2.2651408e+37
-2.2295315e+37
-2.2442663e+37
-2.2336044e+37
-2.2431286e+37
-2.2533415e+37
-2.2411759e+37
-2.2231956e+37
-2.2523247e+37
-2.213445e+37
-2.4080464e+37
-2.3873371e+37
-2.4152765e+37
-2.3805406e+37
-2.3598033e+37
-2.3181331e+37
-2.3030904e+37
-2.2919618e+37
-2.2980684e+37
-2.2817662e+37
-2.2742555e+37
-2.2853451e+37
-2.2759685e+37
-2.2975198e+37
-2.2575117e+37
-2.2715584e+37
-2.2693805e+37
-2.6485062e+37
-2.5401527e+37
-2.7188546e+37
-2.6016577e+37
-2.5002415e+37
-2.3084593e+37
-2.4282466e+37
-2.3851382e+37
-2.6637442e+37
-2.4086445e+37
-2.4421249e+37
-2.3106812e+37
-2.3792554e+37
-2.0132686e+37
-2.376048e+37
-4.0066817e+37
-1.8985615e+37
-2.1496173e+37
-1.3927428e+37
-2.2519653e+37
-2.2038877e+37
-2.240277e+37
-2.1018211e+37
-2.2748033e+37
-2.2308449e+37
-2.8083228e+37
-2.2532543e+37
-2.9528742e+37
-3.239751e+37
-1.3092382e+38
-4.4787314e+37
-2.2443629e+37
-2.5272671e+37
-2.3940188e+37
-2.2863413e+37
-3.1545921e+37
-2.3491621e+37
-2.6478774e+37
-2.7313677e+37
-7.0622316e+37
-2.2857627e+37
-6.9871184e+37
-2.7519149e+37
-8.2719359e+37
-2.1708233e+37
-2.3979324e+37
-2.3132403e+37
-3.1208994e+37
-4.8204183e+37
-2.4999503e+37
-2.6067022e+37
-4.7986436e+37
-5.9487579e+37
-2.4128481e+37
-1.415335e+38
-4.7201952e+37
-2.700397e+37
-2.2188013e+37
-2.3826978e+37
-1.6479689e+37
-2.1488806e+37
-2.2664346e+37
-4.2451634e+37
-2.8714967e+37
-2.7264777e+37
-3.2116208e+37
-4.1508321e+37
-8.1776332e+37
-2.7600491e+37
-4.5630873e+37
-5.9199083e+37
-2.4506865e+37
-2.8121148e+37
-1.9389411e+37
-1.917631e+37
-2.0229015e+37
-2.114783e+37
-2.0048e+37
-2.5683172e+37
-2.8707752e+37
-4.22241e+37
-1.5724845e+38
-5.2953708e+37
-6.8091834e+37
-9.4453573e+37
-1.7539109e+37
-4.0366634e+37
-2.1434569e+37
-5.5521136e+37
-2.2739369e+37
-2.2603084e+37
-2.2324812e+37
-2.244765e+37
-2.2205567e+37
-2.3757227e+37
-2.3216909e+37
-2.3369621e+37
-2.3647271e+37
-2.3811302e+37
-2.287735e+37
-2.306976e+37
-2.3278918e+37
-2.3493107e+37
-2.2697993e+37
-2.2503679e+37
-2.2880958e+37
-2.3106641e+37
-2.5535837e+37
-2.4806005e+37
-2.5274395e+37
-2.5105131e+37
-2.466618e+37
-2.4369694e+37
-2.4855786e+37
-2.4747966e+37
-2.4217139e+37
-2.4066345e+37
-2.4646459e+37
-2.4384316e+37
-2.3860272e+37
-2.3631471e+37
-2.4070346e+37
-2.3763083e+37
-2.3368023e+37
-2.783514e+37
-2.2564787e+37
-2.0063813e+37
-2.6852368e+37
-2.60736e+37
-2.584208e+37
-2.8355358e+37
-2.2810639e+37
-2.3161557e+37
-3.8337548e+37
-2.5571764e+37
-2.5862996e+37
-3.782469e+37
-2.3327838e+37
-2.4416276e+37
-2.496852e+37
-3.3161594e+37
-2.6140991e+37
-2.6880803e+37
-3.1349309e+37
-2.1463216e+37
-2.5247287e+37
-3.233481e+37
-2.5444705e+37
-2.5492483e+37
-3.8841289e+37
-5.8833386e+37
-2.9220675e+37
-2.7371895e+37
-2.643804e+37
-2.6136419e+37
-6.2786404e+37
-2.8812525e+37
-5.3911612e+37
-2.2415423e+37
-8.3594527e+37
-2.7854303e+37
-3.1632683e+37
-4.1701245e+37
-2.7810435e+37
-2.4875272e+37
-2.5130718e+37
-2.5567516e+37
-2.6293862e+37
-2.6588518e+37
-4.8172039e+37
-2.6337775e+37
-2.5642403e+37
-1.1944899e+38
-3.0406658e+37
-1.9761251e+37
-2.2917109e+37
-3.3482517e+37
-1.572053e+37
-1.4535348e+37
-1.8973627e+37
-3.082127e+37
-2.5786338e+37
-2.1389334e+37
-1.7531639e+37
-2.0392069e+37
-2.2121373e+37
-2.3418395e+37
-2.2768188e+37
-2.3280248e+37
-2.3052857e+37
-2.2602808e+37
-2.2597913e+37
-2.2723425e+37
-2.269601e+37
-2.2819521e+37
-2.2505375e+37
-2.2170753e+37
-2.2839478e+37
-2.2669261e+37
-2.236264e+37
-2.2041011e+37
-2.2415549e+37
-2.2236914e+37
-2.2524736e+37
-2.2140084e+37
-2.4279938e+37
-2.4353217e+37
-2.4256353e+37
-2.4601963e+37
-2.4096989e+37
-2.3744738e+37
-2.3975276e+37
-2.3609031e+37
-2.3466259e+37
-2.3152154e+37
-2.298359e+37
-2.2874443e+37
-2.2967197e+37
-2.2816765e+37
-2.2738639e+37
-2.2851205e+37
-2.2759317e+37
-2.6169789e+37
-2.5347745e+37
-2.6126214e+37
-2.7480102e+37
-2.5446416e+37
-2.5322185e+37
-2.486598e+37
-2.2517524e+37
-2.5487436e+37
-2.5081371e+37
-2.619632e+37
-2.6012179e+37
-2.5423585e+37
-2.3935437e+37
-2.4598312e+37
-1.9160402e+37
-1.8932024e+37
-1.8603815e+37
-2.1163022e+37
-2.3994105e+37
-2.4534493e+37
-2.4860303e+37
-2.2296145e+37
-2.3416823e+37
-2.1508029e+37
-1.9794631e+37
-2.3598523e+37
-1.2697654e+37
-3.4271318e+37
-3.8717532e+37
-5.2239793e+37
-2.2510737e+37
-2.4576296e+37
-2.5640893e+37
-2.2415042e+37
-4.1994704e+37
-2.2770053e+37
-2.4273251e+37
-2.1478606e+37
-5.4261889e+37
-2.2522987e+37
-2.5564847e+37
-2.6517513e+37
-1.183478e+38
-3.9609324e+37
-2.5529984e+37
-3.1721912e+37
-6.3523643e+37
-2.9115046e+37
-2.6677667e+37
-2.6871422e+37
-4.3968148e+37
-6.4380062e+37
-2.3551142e+37
-3.9715793e+37
-3.0502124e+37
-2.6761944e+37
-4.1520412e+37
-4.9807898e+37
-2.4231627e+37
-2.7677988e+37
-2.3880455e+37
-2.6136364e+37
-2.3206078e+37
-2.4683224e+37
-2.418951e+37
-2.2339155e+37
-2.6850702e+37
-3.0182055e+37
-4.6110475e+37
-9.8553454e+37
-2.3831513e+37
-7.4366071e+37
-2.9708647e+37
-4.3475633e+37
-7.3378478e+37
-2.5570821e+37
-2.4955142e+37
-2.882948e+37
-2.365207e+37
-2.3182942e+37
-1.8148697e+37
-2.1498034e+37
-2.7245568e+37
-1.299949e+37
-1.4903152e+37
-2.4743328e+37
-3.5689714e+37
-6.649003e+37
-5.0485419e+37
-7.4933832e+37
-1.5881264e+38
-4.8606982e+37
-5.6800864e+37
-7.3782488e+37
-2.2929498e+37
-2.2526889e+37
-2.2405763e+37
-2.2691257e+37
-2.2825374e+37
-2.260055e+37
-2.2194007e+37
-2.2457303e+37
-2.2087415e+37
-2.388129e+37
-2.3482553e+37
-2.3566101e+37
-2.3933849e+37
-2.4037241e+37
-2.3205765e+37
-2.3350463e+37
-2.3664484e+37
-2.3806824e+37
-2.2892253e+37
-2.3084342e+37
-2.3316576e+37
-2.3532784e+37
-2.2699276e+37
-2.2505e+37
-2.2883652e+37
-2.3109244e+37
-2.5261588e+37
-2.4808937e+37
-2.5493471e+37
-2.532187e+37
-2.4836942e+37
-2.4652871e+37
-2.5263749e+37
-2.5018333e+37
-2.4526062e+37
-2.438623e+37
-2.4869425e+37
-2.4742121e+37
-2.4236485e+37
-2.4068497e+37
-2.4646605e+37
-2.4385524e+37
-2.3862567e+37
-2.7292736e+37
-2.6365504e+37
-2.3397547e+37
-2.5554862e+37
-2.870981e+37
-2.5825215e+37
-2.7187641e+37
-2.7545957e+37
-2.6196582e+37
-2.9559411e+37
-1.7328542e+37
-2.6185247e+37
-2.5354572e+37
-2.5457488e+37
-2.1734987e+37
-2.7035823e+37
-2.6381271e+37
-2.7224641e+37
-2.4838692e+37
-5.6291481e+37
-2.5487721e+37
-2.5771879e+37
-6.7927181e+37
-1.886223e+37
-2.7142487e+37
-2.4854175e+37
-4.0785413e+37
-2.4548538e+37
-8.1588708e+37
-2.5908218e+37
-2.6853535e+37
-3.9972593e+37
-2.5166147e+37
-1.8051611e+37
-2.433925e+37
-2.842748e+37
-2.5440988e+37
-2.5491437e+37
-3.3535412e+37
-5.4882391e+37
-3.164346e+37
-2.6955939e+37
-2.7949673e+37
-2.6435227e+37
-2.6126384e+37
-4.9051111e+37
-5.349981e+37
-2.7032736e+37
-2.7957295e+37
-3.9083103e+37
-6.1247538e+37
-3.0142261e+37
-2.496667e+37
-4.1376517e+37
-1.9965089e+37
-2.6581062e+37
-2.9089045e+37
-4.5047004e+37
-2.0167891e+37
-1.1473613e+37
-1.3743736e+37
-2.3937869e+37
-2.5524506e+37
-1.0181088e+37
-2.36353e+37
-2.3061422e+37
-2.3613951e+37
-2.3461614e+37
-2.2921322e+37
-2.2865548e+37
-2.2989748e+37
-2.2979159e+37
-2.3099307e+37
-2.2847723e+37
-2.2452372e+37
-2.3282e+37
-2.3061954e+37
-2.2681132e+37
-2.2310441e+37
-2.2234771e+37
-2.23585e+37
-2.2515536e+37
-2.217035e+37
-2.283982e+37
-2.2671807e+37
-2.2368251e+37
-2.2040274e+37
-2.2416698e+37
-2.2237757e+37
-2.2525486e+37
-2.2140899e+37
-2.436983e+37
-2.4383771e+37
-2.471457e+37
-2.4697495e+37
-2.4368155e+37
-2.4222853e+37
-2.4175475e+37
-2.4545666e+37
-2.397738e+37
-2.37277e+37
-2.3934588e+37
-2.3544774e+37
-2.3448627e+37
-2.3150528e+37
-2.2979784e+37
-2.2870509e+37
-2.2965835e+37
-2.6891381e+37
-2.5282133e+37
-2.689799e+37
-2.5744228e+37
-2.5041716e+37
-2.6571531e+37
-2.7339688e+37
-2.246259e+37
-2.5264605e+37
-2.522331e+37
-2.6612341e+37
-2.5170432e+37
-2.7223691e+37
-2.8857141e+37
-2.5404043e+37
-2.1952979e+37
-2.2007371e+37
-2.3581274e+37
-2.6765372e+37
-2.5039262e+37
-2.7052844e+37
-2.6085125e+37
-2.9008188e+37
-2.5386943e+37
-2.5881923e+37
-2.2627313e+37
-2.455573e+37
-5.2276084e+37
-4.7608077e+37
-8.9408913e+37
-4.141463e+37
-2.3987014e+37
-2.454635e+37
-2.6103775e+37
-2.4584895e+37
-4.8989403e+37
-2.339365e+37
-2.2603182e+37
-1.8923186e+37
-1.2118715e+38
-2.3583522e+37
-1.6711592e+37
-3.3276889e+37
-3.246265e+37
-5.3783194e+37
-2.47918e+37
-2.7662939e+37
-4.5725786e+37
-4.0917322e+37
-2.4477056e+37
-2.652891e+37
-4.1882451e+37
-4.586096e+37
-3.227452e+37
-3.4893164e+37
-6.6999653e+37
-2.6928117e+37
-1.7944909e+37
-4.1398453e+37
-3.866005e+37
-3.8594626e+37
-3.6724152e+37
-4.0860594e+37
-2.4550712e+37
-2.9548356e+37
-2.3940603e+37
-2.336772e+37
-2.2671745e+37
-2.3582077e+37
-1.9565214e+37
-2.6732906e+37
-2.002878e+37
-2.4364454e+37
-5.4182752e+37
-2.7083506e+37
-1.2457971e+38
-5.9327107e+37
-4.0162051e+37
-7.2947487e+37
-2.5316682e+37
-6.8197542e+37
-2.5167598e+37
-2.7838466e+37
-2.6729715e+37
-2.4532035e+37
-2.8282537e+37
-2.8771079e+37
-2.0171166e+37
-1.976397e+37
-1.1963352e+37
-1.7703761e+37
-8.2098128e+37
-3.5789759e+37
-4.3909336e+37
-3.8330713e+37
-3.1493822e+37
-5.7914913e+37
-4.01962e+37
-5.0522609e+37
-2.2689429e+37
-2.3004881e+37
-2.2934521e+37
-2.2610348e+37
-2.2407499e+37
-2.2277135e+37
-2.2701739e+37
-2.2847231e+37
-2.2604731e+37
-2.2191144e+37
-2.2464501e+37
-2.2086934e+37
-2.3902372e+37
-2.3592768e+37
-2.3645088e+37
-2.4071641e+37
-2.4059189e+37
-2.3459733e+37
-2.3536487e+37
-2.3921934e+37
-2.4020962e+37
-2.3228072e+37
-2.3371104e+37
-2.3702122e+37
-2.3840838e+37
-2.2893474e+37
-2.3085616e+37
-2.3319258e+37
-2.3535291e+37
-2.5109319e+37
-2.4736892e+37
-2.5208387e+37
-2.5312108e+37
-2.4773692e+37
-2.4557452e+37
-2.5097569e+37
-2.5049266e+37
-2.4630665e+37
-2.4657561e+37
-2.5240779e+37
-2.5002898e+37
-2.4532575e+37
-2.4388224e+37
-2.4871667e+37
-2.474343e+37
-2.4238632e+37
-2.5912274e+37
-2.0465386e+37
-2.4302503e+37
-2.9259463e+37
-2.3470914e+37
-2.6854164e+37
-2.6790087e+37
-2.6048074e+37
-2.5820021e+37
-2.5088103e+37
-2.1229048e+37
-3.5258562e+37
-2.6024674e+37
-3.0560102e+37
-2.7449064e+37
-2.5503251e+37
-2.6655486e+37
-2.783862e+37
-2.6128602e+37
-6.6427756e+37
-1.2826199e+38
-2.6072322e+37
-2.5286253e+37
-2.4457661e+37
-2.5715747e+37
-1.3995492e+37
-2.549988e+37
-2.6786442e+37
-2.2494854e+37
-5.8234594e+37
-4.3359079e+37
-3.6626731e+37
-2.5479272e+37
-2.5763843e+37
-5.08871e+37
-4.2984408e+37
-3.7911129e+37
-2.7153285e+37
-5.3074379e+37
-2.0596472e+37
-3.2667257e+37
-2.5343165e+37
-6.6173999e+37
-2.5891841e+37
-2.6850637e+37
-3.3493113e+37
-3.4717064e+37
-2.1861307e+37
-2.4347664e+37
-2.7235215e+37
-3.9545676e+37
-3.0391713e+37
-2.8050424e+37
-5.4090404e+37
-1.7102776e+37
-2.7369386e+37
-5.4478816e+37
-2.205267e+37
-3.0653395e+37
-1.6578629e+37
-1.5950794e+37
-4.4529428e+37
-4.1526924e+37
-4.1582084e+37
-2.383872e+37
-2.3744419e+37
-2.3267536e+37
-2.3788647e+37
-2.3189208e+37
-2.3106752e+37
-2.3194454e+37
-2.3309759e+37
-2.3222357e+37
-2.3142516e+37
-2.2721546e+37
-2.362904e+37
-2.3485765e+37
-2.3006673e+37
-2.2583064e+37
-2.2489044e+37
-2.2598589e+37
-2.2855606e+37
-2.2449066e+37
-2.2115518e+37
-2.3283331e+37
-2.3062914e+37
-2.2312744e+37
-2.2687969e+37
-2.1993368e+37
-2.2516408e+37
-2.2178494e+37
-2.2840618e+37
-2.2672255e+37
-2.2368987e+37
-2.2046328e+37
-2.4639218e+37
-2.4373734e+37
-2.470923e+37
-2.4731361e+37
-2.4427922e+37
-2.4324207e+37
-2.4706679e+37
-2.4712613e+37
-2.4310688e+37
-2.4225712e+37
-2.4170475e+37
-2.4528514e+37
-2.39633e+37
-2.3727427e+37
-2.393117e+37
-2.3539792e+37
-2.3448124e+37
-2.7091969e+37
-2.5879485e+37
-2.7650584e+37
-2.8467571e+37
-2.5636632e+37
-2.2921733e+37
-2.344483e+37
-2.5103817e+37
-2.0602746e+37
-2.5069561e+37
-2.6446257e+37
-2.887615e+37
-2.6560163e+37
-2.5734717e+37
-2.5225294e+37
-2.9581584e+37
-2.9422183e+37
-2.5545431e+37
-1.9791819e+37
-2.5169754e+37
-2.7617696e+37
-2.6546664e+37
-3.1532098e+37
-2.7128421e+37
-2.8475244e+37
-4.228678e+37
-2.5344303e+37
-2.4412639e+37
-3.7020315e+37
-8.940486e+37
-3.1764604e+37
-2.5038405e+37
-2.9465783e+37
-2.8854825e+37
-2.6089934e+37
-6.4627541e+37
-2.538944e+37
-2.7901932e+37
-2.5436729e+37
-5.3605864e+37
-2.4553466e+37
-5.2172257e+37
-4.7856874e+37
-9.399633e+37
-4.1648531e+37
-2.6216091e+37
-2.9266047e+37
-2.9769307e+37
-4.7483032e+37
-2.2730018e+37
-2.27727e+37
-3.6582459e+37
-1.2120922e+38
-2.7904198e+37
-3.1070713e+37
-4.4093484e+37
-2.7377054e+37
-7.2503587e+37
-4.3024593e+37
-3.3632497e+37
-3.0489418e+37
-1.5224223e+37
-1.2372712e+37
-3.5848065e+37
-3.6063571e+37
-2.4868185e+37
-2.9639586e+37
-1.9986821e+37
-2.1769204e+37
-2.6526839e+37
-2.192006e+37
-2.3551167e+37
-2.2720609e+37
-1.7545441e+37
-2.1088296e+37
-3.7442906e+37
-5.1940996e+37
-7.7107529e+37
-4.750226e+37
-4.8172159e+37
-2.2065116e+37
-1.2318189e+38
-5.1880724e+37
-2.4944488e+37
-2.6845042e+37
-2.3215684e+37
-2.0883992e+37
-2.7640074e+37
-2.4195952e+37
-3.1011095e+37
-2.6978625e+37
-3.4418266e+37
-3.9513953e+37
-3.4588066e+37
-1.590301e+37
-1.0505193e+38
-5.8300542e+37
-7.8452842e+37
-3.3163791e+37
-4.3713772e+37
-3.4673798e+37
-2.3135308e+37
-2.2825825e+37
-2.2754408e+37
-2.3050535e+37
-2.257516e+37
-2.3025926e+37
-2.2950783e+37
-2.2490335e+37
-2.2401556e+37
-2.2268392e+37
-2.2707686e+37
-2.2855179e+37
-2.26053e+37
-2.2190793e+37
-2.2464832e+37
-2.2086843e+37
-2.3851849e+37
-2.3631676e+37
-2.3675082e+37
-2.4042621e+37
-2.4034439e+37
-2.3557172e+37
-2.3610486e+37
-2.4036238e+37
-2.4019877e+37
-2.3478048e+37
-2.3552517e+37
-2.3950236e+37
-2.405277e+37
-2.3229666e+37
-2.3372391e+37
-2.3704456e+37
-2.3843289e+37
-2.4725667e+37
-2.4605712e+37
-2.5176312e+37
-2.5091239e+37
-2.464102e+37
-2.4533369e+37
-2.5001469e+37
-2.5008667e+37
-2.4563893e+37
-2.457824e+37
-2.5134775e+37
-2.5034025e+37
-2.4632297e+37
-2.4659725e+37
-2.5240611e+37
-2.5002507e+37
-2.4534551e+37
-2.6476111e+37
-2.1489434e+37
-1.9030858e+37
-1.9399623e+37
-1.7438175e+37
-2.604534e+37
-2.6470919e+37
-2.5639938e+37
-2.5802703e+37
-1.8678306e+37
-1.8877636e+37
-3.6344776e+37
-2.744647e+37
-2.4337334e+37
-2.4777827e+37
-2.6705899e+37
-2.6451424e+37
-2.5899768e+37
-2.5653952e+37
-2.0980373e+37
-5.7305692e+37
-2.8222258e+37
-7.8425953e+37
-2.4928857e+37
-5.8031911e+37
-2.6623603e+37
-2.7208021e+37
-2.5621876e+37
-2.6394883e+37
-2.7221641e+37
-2.6069771e+37
-5.6388045e+37
-1.3623691e+38
-2.6064137e+37
-2.5276611e+37
-2.4594919e+37
-2.5574746e+37
-2.573516e+37
-4.8729069e+37
-2.7670503e+37
-2.7011981e+37
-2.6765455e+37
-5.2692406e+37
-4.7486382e+37
-3.9840522e+37
-4.5127752e+37
-7.766387e+37
-3.1527855e+37
-2.7208054e+37
-4.9930003e+37
-2.1735327e+37
-2.232098e+37
-2.5450826e+37
-2.8386843e+37
-1.5063025e+37
-2.1649388e+37
-3.7823151e+37
-2.5219223e+37
-3.087564e+37
-1.0386661e+37
-1.9418157e+37
-1.673772e+37
-2.2220129e+37
-1.076761e+37
-2.40559e+37
-2.3398484e+37
-2.3819928e+37
-2.385946e+37
-2.3354153e+37
-2.3380137e+37
-2.329639e+37
-2.3416626e+37
-2.3497035e+37
-2.3767761e+37
-2.3355125e+37
-2.2923081e+37
-2.38219e+37
-2.3262727e+37
-2.2826685e+37
-2.2709941e+37
-2.2798686e+37
-2.3151201e+37
-2.2719483e+37
-2.2353737e+37
-2.3635257e+37
-2.348396e+37
-2.2577255e+37
-2.3015703e+37
-2.2240862e+37
-2.2856259e+37
-2.2457182e+37
-2.2069099e+37
-2.3284158e+37
-2.3063795e+37
-2.2320204e+37
-2.1951642e+37
-2.2688568e+37
-2.2179077e+37
-2.204691e+37
-2.4785265e+37
-2.4561853e+37
-2.5031101e+37
-2.4734294e+37
-2.4420044e+37
-2.4296202e+37
-2.4522607e+37
-2.4657832e+37
-2.4349555e+37
-2.4315378e+37
-2.4691969e+37
-2.4704698e+37
-2.4307464e+37
-2.4226264e+37
-2.4170939e+37
-2.4528472e+37
-2.396317e+37
-2.8558545e+37
-2.6582387e+37
-2.9277647e+37
-2.8758916e+37
-2.6248562e+37
-2.3304713e+37
-2.8117099e+37
-3.0056917e+37
-2.448073e+37
-2.5669469e+37
-2.6664623e+37
-2.6293295e+37
-2.6630321e+37
-2.5764672e+37
-2.5166578e+37
-2.3780637e+37
-2.5569463e+37
-3.1587372e+37
-2.0564317e+37
-2.4977726e+37
-2.6306056e+37
-2.9528875e+37
-3.3378941e+37
-2.6193516e+37
-2.9110018e+37
-2.744369e+37
-2.5182745e+37
-6.2153651e+37
-4.4880782e+37
-4.8396783e+37
-4.2968964e+37
-2.5167215e+37
-2.7785254e+37
-3.2722251e+37
-2.6558059e+37
-4.5974938e+37
-2.7134816e+37
-2.9931371e+37
-3.8080455e+37
-7.5556345e+37
-2.5343024e+37
-2.3498967e+37
-3.6975808e+37
-8.530439e+37
-2.710053e+37
-2.9678356e+37
-3.2902618e+37
-4.3151357e+37
-6.1257694e+37
-2.8093142e+37
-3.3459184e+37
-4.5040272e+37
-5.5144575e+37
-2.9711689e+37
-2.6522284e+37
-2.7636092e+37
-2.311677e+37
-3.1957277e+37
-3.7890619e+37
-3.0044648e+37
-2.7512211e+37
-6.8230829e+37
-7.3129671e+37
-2.8746477e+37
-9.5351458e+36
-2.5138686e+37
-2.8154997e+37
-2.2600657e+37
-1.9717824e+37
-2.488023e+37
-2.39756e+37
-1.3693712e+37
-3.4415651e+37
-3.3658957e+37
-2.1564808e+37
-3.3866134e+37
-3.1585461e+37
-4.0352267e+37
-4.3860198e+37
-3.7206783e+37
-4.4172669e+37
-7.6547005e+37
-4.4590795e+37
-2.4707289e+37
-2.6955708e+37
-1.9632779e+37
-2.1186173e+37
-2.1528369e+37
-2.3471149e+37
-2.0650941e+37
-1.0875052e+37
-3.2158268e+37
-2.6073226e+37
-5.1574203e+37
-7.4781506e+37
-4.7222919e+37
-8.3910986e+37
-3.2565367e+37
-1.1777726e+37
-1.0923977e+38
-5.7212002e+37
-2.0832945e+37
-2.1620243e+37
-2.1567478e+37
-2.1996019e+37
-2.2070951e+37
-2.3207961e+37
-2.3186166e+37
-2.2897652e+37
-2.2895194e+37
-2.3151725e+37
-2.3143033e+37
-2.2706157e+37
-2.2643418e+37
-2.3062318e+37
-2.2568699e+37
-2.3037058e+37
-2.2966972e+37
-2.2484689e+37
-2.2401466e+37
-2.2268149e+37
-2.270863e+37
-2.2856102e+37
-2.379649e+37
-2.3634538e+37
-2.3649207e+37
-2.3996106e+37
-2.3948359e+37
-2.3592045e+37
-2.3651918e+37
-2.4031255e+37
-2.402427e+37
-2.3576394e+37
-2.3627749e+37
-2.4065772e+37
-2.4050265e+37
-2.3479442e+37
-2.3553659e+37
-2.3952276e+37
-2.4055149e+37
-2.4715797e+37
-2.4398937e+37
-2.4885632e+37
-2.5026278e+37
-2.4499708e+37
-2.4432859e+37
-2.5093277e+37
-2.5067303e+37
-2.4503926e+37
-2.455251e+37
-2.5038041e+37
-2.5105301e+37
-2.4599265e+37
-2.4580371e+37
-2.5140026e+37
-2.5032376e+37
-2.4634114e+37
-2.6129181e+37
-2.1569033e+37
-2.5209632e+37
-2.3139742e+37
-2.1765464e+37
-2.6921531e+37
-2.7405372e+37
-2.561351e+37
-2.5659629e+37
-1.8830824e+37
-2.383548e+37
-1.6123386e+37
-2.2203913e+37
-2.3658267e+37
-2.5144137e+37
-2.5661026e+37
-2.6443393e+37
-2.5439566e+37
-2.547927e+37
-3.2495956e+37
-2.0876765e+37
-3.1647275e+37
-4.4929578e+37
-2.8079413e+37
-3.9581314e+37
-2.6356655e+37
-2.7230936e+37
-2.6417561e+37
-2.6171179e+37
-2.5825651e+37
-2.5670473e+37
-1.6106155e+37
-5.768904e+37
-4.4606244e+37
-2.8068043e+37
-6.9442097e+37
-2.6719432e+37
-5.6366993e+37
-5.525366e+37
-3.0339923e+37
-2.8134404e+37
-2.563587e+37
-2.6388406e+37
-2.7184728e+37
-2.6068197e+37
-2.3230929e+37
-4.0626126e+37
-2.5648892e+37
-5.1572864e+37
-4.3562444e+37
-3.1746867e+37
-2.7133841e+37
-5.0925032e+37
-5.9810507e+37
-2.771912e+37
-3.0996661e+37
-2.0404667e+37
-3.7343262e+37
-2.2652358e+37
-1.0473123e+37
-2.1048582e+37
-1.8015206e+37
-2.2620295e+37
-1.4168938e+37
-1.6052566e+37
-2.4261205e+37
-2.3597473e+37
-2.4021903e+37
-2.3821869e+37
-2.3437558e+37
-2.3482787e+37
-2.355197e+37
-2.3601888e+37
-2.3667118e+37
-2.3492755e+37
-2.3105557e+37
-2.3887185e+37
-2.3916276e+37
-2.3447757e+37
-2.3008075e+37
-2.2966166e+37
-2.2884926e+37
-2.3774474e+37
-2.3364523e+37
-2.2921195e+37
-2.2554487e+37
-2.3831228e+37
-2.2819768e+37
-2.3271313e+37
-2.2462767e+37
-2.3152065e+37
-2.272423e+37
-2.2308712e+37
-2.3636568e+37
-2.3484808e+37
-2.2585854e+37
-2.2192393e+37
-2.3016486e+37
-2.2457705e+37
-2.2072428e+37
-2.2320629e+37
-2.1954114e+37
-2.5340751e+37
-2.5150299e+37
-2.5659607e+37
-2.5284336e+37
-2.483453e+37
-2.4685713e+37
-2.5224856e+37
-2.4572095e+37
-2.4335935e+37
-2.42857e+37
-2.4522212e+37
-2.4653499e+37
-2.4337048e+37
-2.4315562e+37
-2.4691939e+37
-2.4705301e+37