/*--------------------------------*- C++ -*----------------------------------*\
  =========                 |
  \\      /  F ield         | OpenFOAM: The Open Source CFD Toolbox
   \\    /   O peration     | Website:  https://openfoam.org
    \\  /    A nd           | Version:  7
     \\/     M anipulation  |
\*---------------------------------------------------------------------------*/
FoamFile
{
    version     2.0;
    format      ascii;
    class       volScalarField;
    location    "10000";
    object      p;
}
// * * * * * * * * * * * * * * * * * * * * * * * * * * * * * * * * * * * * * //

dimensions      [0 2 -2 0 0 0 0];

internalField   nonuniform List<scalar> 
34124
(
-1.6669129e+117
-2.3280774e+117
-1.3310401e+117
-1.1878593e+117
-2.9155381e+117
-2.4137023e+117
-2.3457333e+117
-2.4512701e+117
-1.3466902e+117
-1.3020556e+117
-3.6025086e+117
-3.0120505e+117
-2.9830935e+117
-2.8216634e+117
-2.4939503e+117
-2.5300331e+117
-3.4545214e+117
-2.5286267e+117
-1.4862252e+117
-3.2316092e+117
-3.6179494e+117
-3.6273875e+117
-3.9933835e+117
-3.1921892e+117
-3.0793869e+117
-3.104228e+117
-3.4991452e+117
-2.8914519e+117
-2.6151475e+117
-3.3303295e+117
-3.4796024e+117
-3.8470465e+117
-2.6219178e+117
-3.2617328e+117
-3.3537968e+117
-3.6402229e+117
-3.6417802e+117
-3.9924004e+117
-3.6650602e+117
-4.0001316e+117
-4.3183624e+117
-3.5747666e+117
-3.2438979e+117
-3.1441968e+117
-3.4604855e+117
-3.5255777e+117
-3.8276325e+117
-2.9458483e+117
-3.3437984e+117
-3.3965809e+117
-3.5485053e+117
-3.867855e+117
-3.8847789e+117
-3.4158038e+117
-3.3192036e+117
-2.3816276e+117
-3.6552715e+117
-3.7083186e+117
-3.9945313e+117
-3.678111e+117
-4.0002843e+117
-4.3178915e+117
-3.7615839e+117
-4.011668e+117
-4.3218359e+117
-4.6577246e+117
-3.5967078e+117
-3.8122591e+117
-3.2897427e+117
-3.4723446e+117
-3.4509795e+117
-3.5846628e+117
-3.8518428e+117
-3.8787481e+117
-3.4557969e+117
-3.3636579e+117
-2.6332706e+117
-3.670085e+117
-3.8946701e+117
-3.9175509e+117
-2.329682e+117
-3.2884304e+117
-2.0195927e+117
-2.6266384e+117
-3.6998519e+117
-3.7232581e+117
-4.003446e+117
-3.6393431e+117
-4.0108279e+117
-4.3232486e+117
-3.7796796e+117
-4.0139965e+117
-4.3230037e+117
-4.6592687e+117
-3.8837147e+117
-4.049268e+117
-4.3286601e+117
-4.6594338e+117
-5.0164652e+117
-3.6416893e+117
-3.8244238e+117
-3.8881166e+117
-3.5366319e+117
-3.4362299e+117
-3.0004063e+117
-3.6883721e+117
-3.8827658e+117
-3.9030128e+117
-3.2530087e+117
-3.3354577e+117
-2.4377907e+117
-2.7210899e+117
-3.5425212e+117
-3.9368514e+117
-3.9604954e+117
-3.3513652e+117
-2.9895114e+117
-1.2715173e+117
-2.6181988e+117
-5.1231519e+116
-3.8117137e+117
-3.7588621e+117
-4.0251753e+117
-3.6463358e+117
-4.0264223e+117
-4.3308541e+117
-3.9755047e+117
-3.4723669e+117
-4.3391497e+117
-4.6680541e+117
-3.8921296e+117
-4.0593742e+117
-4.3323056e+117
-4.663e+117
-5.0184271e+117
-3.9377776e+117
-4.0948571e+117
-4.3497746e+117
-4.6633191e+117
-5.0192785e+117
-5.4072617e+117
-3.7137578e+117
-3.8459789e+117
-3.8998326e+117
-3.5185049e+117
-3.4381313e+117
-2.9137416e+117
-2.9447536e+117
-3.5645024e+117
-3.9330042e+117
-3.9475187e+117
-3.5002953e+117
-3.0405185e+117
-2.3071496e+117
-2.6526224e+117
-1.3765973e+117
-3.884178e+117
-2.8324874e+117
-4.0287925e+117
-3.7785701e+117
-3.0246765e+117
-6.1831279e+116
-2.6755155e+117
-5.7100951e+116
-5.1573539e+116
-3.8439942e+117
-3.9126834e+117
-4.0790023e+117
-3.6715612e+117
-4.0535841e+117
-4.3444562e+117
-3.9887704e+117
-3.4832771e+117
-4.3544752e+117
-4.6752216e+117
-3.8845569e+117
-4.3446488e+117
-3.3612276e+117
-4.6875547e+117
-5.0257282e+117
-3.9537457e+117
-4.1083153e+117
-4.3584133e+117
-4.6697794e+117
-5.0234994e+117
-5.4027782e+117
-3.7917404e+117
-4.1273578e+117
-4.3710291e+117
-4.6722487e+117
-5.0234601e+117
-5.4123485e+117
-5.8302558e+117
-3.6076248e+117
-3.9186629e+117
-3.9404546e+117
-3.6207577e+117
-3.1515248e+117
-2.8660073e+117
-2.8909297e+117
-2.119592e+117
-3.8896414e+117
-2.9898902e+117
-4.0268078e+117
-3.761711e+117
-3.0712561e+117
-1.4311127e+117
-2.7635664e+117
-1.4942295e+117
-1.2186132e+117
-3.6480701e+117
-4.0313515e+117
-2.9884191e+117
-3.9615573e+117
-3.1243571e+117
-5.5891966e+116
-5.9656022e+116
-7.6979797e+116
-7.965939e+116
-1.5055466e+117
-3.7673311e+117
-4.1009894e+117
-3.970172e+117
-4.0028232e+117
-4.1320833e+117
-4.3757925e+117
-4.0165224e+117
-3.5185927e+117
-4.3785723e+117
-4.6839343e+117
-3.9091423e+117
-4.3647382e+117
-3.3978006e+117
-4.700883e+117
-5.034125e+117
-4.3156216e+117
-3.7768225e+117
-4.7203624e+117
-3.1164126e+117
-5.0458398e+117
-5.3989517e+117
-3.8204906e+117
-4.1417636e+117
-4.3835115e+117
-4.6829995e+117
-5.0307784e+117
-5.4129172e+117
-5.8034368e+117
-4.0386776e+117
-3.4441371e+117
-4.3710843e+117
-4.6830022e+117
-5.0311432e+117
-5.4183513e+117
-5.8241121e+117
-6.1573379e+117
-3.9012758e+117
-3.2408463e+117
-4.0307656e+117
-3.7777707e+117
-3.1797528e+117
-2.0517451e+117
-3.0090226e+117
-2.2185812e+117
-1.8694287e+117
-3.6594371e+117
-4.0330405e+117
-3.0460228e+117
-3.951573e+117
-3.1760278e+117
-1.4120819e+117
-1.4086475e+117
-1.6894988e+117
-1.3004119e+117
-1.5879519e+117
-3.905584e+117
-3.1631992e+117
-4.0422108e+117
-1.7557863e+117
-3.4845735e+117
-6.0202954e+116
-5.8437211e+116
-3.181367e+117
-4.5043907e+116
-1.3885332e+117
-2.9762183e+117
-3.6318185e+117
-4.0800641e+117
-3.9755769e+117
-4.1795614e+117
-4.4145714e+117
-4.0840907e+117
-3.8972911e+117
-4.1791773e+117
-4.4077081e+117
-4.7025171e+117
-3.9547602e+117
-4.4002433e+117
-3.4567656e+117
-4.7211731e+117
-5.0454466e+117
-4.3372151e+117
-3.8185148e+117
-4.7412703e+117
-3.1694161e+117
-5.0585139e+117
-5.4147276e+117
-4.2526228e+117
-4.7310143e+117
-3.7605242e+117
-5.0938788e+117
-2.8916796e+117
-5.4156873e+117
-5.7678887e+117
-4.0565677e+117
-3.482058e+117
-4.3874089e+117
-4.6998318e+117
-5.0434435e+117
-5.4246452e+117
-5.8040452e+117
-6.1272468e+117
-3.8324774e+117
-4.3180472e+117
-2.9590384e+117
-4.6895341e+117
-5.0597677e+117
-5.4317369e+117
-5.814789e+117
-6.1370017e+117
-6.3131432e+117
-3.7037845e+117
-4.0294817e+117
-3.1888254e+117
-3.9639936e+117
-3.294962e+117
-2.0864318e+117
-2.0198438e+117
-2.3837656e+117
-1.9278976e+117
-2.0476029e+117
-3.9099088e+117
-3.1730217e+117
-4.0435673e+117
-1.9950113e+117
-3.5426531e+117
-1.5801543e+117
-1.4611029e+117
-3.0782665e+117
-1.2065546e+117
-1.6204471e+117
-2.8821033e+117
-3.6252715e+117
-4.0845419e+117
-8.5810352e+116
-3.8926135e+117
-4.8019951e+116
-1.2268928e+117
-7.457538e+116
-3.1069553e+117
-3.5071965e+117
-6.9569076e+116
-2.8544615e+117
-3.6391511e+117
-4.0417097e+117
-3.5311647e+117
-3.8823302e+117
-4.2089161e+117
-4.4569024e+117
-4.0907564e+117
-4.2493589e+117
-4.4680568e+117
-4.7625616e+117
-4.0354201e+117
-4.1111407e+117
-3.5999334e+117
-4.4263825e+117
-4.7319504e+117
-5.0639611e+117
-4.3785834e+117
-3.8710951e+117
-4.7783135e+117
-3.2587574e+117
-5.075368e+117
-5.4350135e+117
-4.2801104e+117
-4.7560788e+117
-3.7983384e+117
-5.1161001e+117
-2.9353172e+117
-5.4358062e+117
-5.7779523e+117
-4.6966038e+117
-4.2552681e+117
-5.1277689e+117
-3.6921347e+117
-5.4835104e+117
-2.7862205e+117
-5.7138927e+117
-6.0788963e+117
-3.8669557e+117
-4.3385433e+117
-3.0052092e+117
-4.7105935e+117
-5.0806613e+117
-5.4464705e+117
-5.8028864e+117
-6.1074238e+117
-6.2987906e+117
-4.2236638e+117
-3.6629043e+117
-4.6741401e+117
-2.7341111e+117
-5.0757702e+117
-5.4566601e+117
-5.8192455e+117
-6.1112757e+117
-6.2960062e+117
-6.3956662e+117
-3.9314925e+117
-3.3011689e+117
-4.0625675e+117
-2.5037056e+117
-3.6662533e+117
-2.2800838e+117
-2.0872941e+117
-3.0908292e+117
-1.9849545e+117
-2.1172398e+117
-2.9106951e+117
-3.6203599e+117
-4.0910548e+117
-1.936952e+117
-3.904862e+117
-1.3184403e+117
-2.4548661e+117
-1.7096625e+117
-2.9978078e+117
-3.5181523e+117
-1.4112172e+117
-2.7716483e+117
-3.4936591e+117
-4.0381745e+117
-3.0935918e+117
-4.1438069e+117
-3.9494735e+116
-3.5252282e+117
-4.3903882e+116
-1.1666512e+117
-3.0528918e+117
-3.512238e+117
-2.7645483e+117
-2.6685294e+117
-3.5549899e+117
-2.5934236e+117
-4.4595336e+117
-3.9612497e+117
-4.1939225e+117
-3.38368e+117
-3.701474e+117
-4.0387775e+117
-4.2962125e+117
-4.5532494e+117
-4.855534e+117
-4.1403685e+117
-4.2223284e+117
-4.5139847e+117
-4.8172196e+117
-5.1348028e+117
-3.8718785e+117
-3.9614468e+117
-4.3926208e+117
-3.1542965e+117
-4.7549622e+117
-5.1156166e+117
-5.4711893e+117
-4.3238976e+117
-4.7967852e+117
-3.8600874e+117
-5.1463595e+117
-3.0197601e+117
-5.4622452e+117
-5.7897422e+117
-4.7182654e+117
-4.2877686e+117
-5.153082e+117
-3.7290881e+117
-5.5066947e+117
-2.774582e+117
-5.7414549e+117
-6.0590456e+117
-4.6850848e+117
-5.1159384e+117
-4.2400274e+117
-5.513854e+117
-3.7375959e+117
-5.9395757e+117
-3.0841291e+117
-5.9202643e+117
-6.2653543e+117
-4.2585009e+117
-3.70201e+117
-4.698974e+117
-2.7718002e+117
-5.1013678e+117
-5.4809532e+117
-5.8222446e+117
-6.0811743e+117
-6.2792381e+117
-6.3909133e+117
-4.2025459e+117
-4.6395295e+117
-3.6336617e+117
-5.0788872e+117
-3.0575199e+117
-5.4862923e+117
-5.837037e+117
-6.0646237e+117
-6.2738494e+117
-6.3889995e+117
-6.4399512e+117
-3.6579591e+117
-4.0960546e+117
-2.8276993e+117
-3.9551859e+117
-2.1561552e+117
-3.0203865e+117
-2.2653241e+117
-3.0242496e+117
-3.5359145e+117
-2.0736047e+117
-2.8543336e+117
-3.3276053e+117
-4.0254785e+117
-3.201248e+117
-4.1576707e+117
-1.2950612e+117
-3.5766578e+117
-1.2112384e+117
-2.2563936e+117
-2.9242207e+117
-3.5080911e+117
-2.8978774e+117
-2.5878063e+117
-3.4094767e+117
-2.7322999e+117
-3.7900602e+117
-4.234016e+117
-8.7872796e+116
-4.3552997e+117
-1.5455629e+116
-4.037565e+117
-2.3561211e+117
-2.8831703e+117
-3.5044338e+117
-2.8628365e+117
-4.6890088e+116
-3.2175854e+117
-2.6257997e+117
-5.1784633e+116
-4.4238469e+117
-4.6146315e+117
-4.8654125e+117
-4.1396531e+117
-3.9706006e+117
-4.3224574e+117
-3.2058624e+117
-3.6610635e+117
-3.87488e+117
-4.1579426e+117
-4.3365262e+117
-4.6157936e+117
-4.9265594e+117
-5.2194334e+117
-4.0905412e+117
-4.1566977e+117
-4.5113334e+117
-4.8623358e+117
-5.2269523e+117
-5.5143901e+117
-3.6073581e+117
-4.3412867e+117
-3.8073111e+117
-4.7523397e+117
-2.8659187e+117
-5.1451997e+117
-5.5180349e+117
-5.8309047e+117
-4.7494674e+117
-4.3397792e+117
-5.1877089e+117
-3.7955585e+117
-5.5347239e+117
-2.8268133e+117
-5.7745614e+117
-6.0344823e+117
-4.7138568e+117
-5.1421688e+117
-4.2801553e+117
-5.5303958e+117
-3.7576744e+117
-5.9358458e+117
-3.0648273e+117
-5.916795e+117
-6.2424099e+117
-5.0770278e+117
-4.6853348e+117
-5.496175e+117
-4.2653414e+117
-5.8898354e+117
-3.7698875e+117
-6.2076697e+117
-6.3797524e+117
-4.2464568e+117
-4.6761384e+117
-3.6615455e+117
-5.1072903e+117
-3.0527945e+117
-5.5119603e+117
-5.8442046e+117
-6.036415e+117
-6.2534216e+117
-6.3834271e+117
-6.439341e+117
-4.6742116e+117
-4.2452486e+117
-5.0571085e+117
-3.7917089e+117
-5.4916028e+117
-5.8736273e+117
-6.1850431e+117
-6.1981093e+117
-6.371903e+117
-6.437828e+117
-6.4544214e+117
-3.9805603e+117
-3.4285257e+117
-4.1819518e+117
-2.2685741e+117
-3.6910876e+117
-1.8536006e+117
-2.7623884e+117
-2.9742562e+117
-3.5034455e+117
-3.1510088e+117
-2.7671333e+117
-3.2966941e+117
-3.1080652e+117
-3.7742265e+117
-4.2441217e+117
-2.0281203e+117
-4.3618036e+117
-8.8011305e+116
-3.9198469e+117
-2.3587216e+117
-2.8696369e+117
-3.4933469e+117
-2.9719481e+117
-1.3632365e+117
-3.168422e+117
-2.7553144e+117
-1.4461444e+117
-4.1865091e+117
-3.0509952e+117
-4.5933283e+117
-4.388177e+116
-4.630537e+117
-5.5809183e+116
-3.9833218e+117
-2.5862952e+117
-3.4439834e+117
-3.0166778e+117
-5.7881045e+116
-2.5735611e+116
-2.5444616e+117
-5.4400075e+116
-2.7554187e+117
-4.45901e+117
-4.8500335e+117
-4.6386649e+117
-4.7201582e+117
-5.0029546e+117
-5.2728873e+117
-4.1639186e+117
-4.2819688e+117
-3.9261474e+117
-4.4110233e+117
-3.4575997e+117
-3.0043916e+117
-3.8596249e+117
-4.0752777e+117
-4.2780895e+117
-4.6538022e+117
-4.3664398e+117
-4.9850726e+117
-5.3094951e+117
-5.589248e+117
-4.0033718e+117
-4.5241176e+117
-4.0520704e+117
-4.8743593e+117
-5.2728345e+117
-5.5980248e+117
-5.8313157e+117
-3.3722394e+117
-4.3397941e+117
-4.750343e+117
-3.7238389e+117
-5.1571177e+117
-3.0698106e+117
-2.9967677e+117
-5.5474246e+117
-5.8628131e+117
-6.0055473e+117
-5.862762e+117
-4.7611178e+117
-5.1720081e+117
-4.3446933e+117
-5.5493905e+117
-3.7897344e+117
-5.9374814e+117
-3.0700023e+117
-2.8864261e+117
-5.9120172e+117
-5.8286836e+117
-6.2065532e+117
-5.1054022e+117
-4.7225834e+117
-5.5167995e+117
-4.3028936e+117
-5.8843562e+117
-3.7810715e+117
-6.1845891e+117
-6.37187e+117
-5.0916487e+117
-5.4599736e+117
-4.7357882e+117
-5.8381658e+117
-4.3247701e+117
-6.1448924e+117
-4.1120634e+117
-6.3342838e+117
-6.4372403e+117
-4.7205344e+117
-4.288622e+117
-5.0948567e+117
-3.7856333e+117
-5.5185982e+117
-5.878832e+117
-6.1613476e+117
-6.175156e+117
-6.3654285e+117
-6.4371002e+117
-6.4548448e+117
-4.7522354e+117
-5.0840375e+117
-4.3543447e+117
-5.458201e+117
-4.1989676e+117
-5.8340214e+117
-6.174347e+117
-6.3435286e+117
-6.4297899e+117
-6.4543294e+117
-6.4204012e+117
-3.7495286e+117
-4.2386119e+117
-2.9380852e+117
-4.3340265e+117
-1.7915415e+117
-3.8613442e+117
-2.5977954e+117
-2.5190108e+117
-2.9944018e+117
-3.0495983e+117
-3.4671604e+117
-3.1749564e+117
-2.791237e+117
-3.1968023e+117
-3.1591879e+117
-2.8287722e+117
-4.185153e+117
-3.1834001e+117
-4.5807146e+117
-1.25142e+117
-4.5983857e+117
-1.3239093e+117
-3.9564021e+117
-2.6107123e+117
-3.4448868e+117
-3.1001782e+117
-1.5364005e+117
-9.6611145e+116
-2.699297e+117
-1.4744897e+117
-2.7544368e+117
-3.9184847e+117
-4.4700166e+117
-2.9327272e+117
-5.2808011e+117
-4.5396702e+116
-4.2664804e+117
-4.4084411e+116
-3.353883e+117
-4.2283977e+116
-2.1458668e+116
-2.2554952e+117
-5.5303628e+116
-2.7383519e+117
-2.8023659e+117
-4.8777365e+117
-4.4872883e+117
-4.6171547e+117
-5.2716755e+117
-5.0590744e+117
-4.794058e+117
-4.7841971e+117
-5.1012024e+117
-5.3782852e+117
-5.6309339e+117
-4.5570859e+117
-4.2510778e+117
-4.4341193e+117
-3.9163118e+117
-4.5194447e+117
-3.827732e+117
-2.9887461e+117
-2.8572855e+117
-3.0785322e+117
-4.009542e+117
-4.3147561e+117
-4.3446384e+117
-5.0233298e+117
-4.722674e+117
-4.6553903e+117
-5.3989304e+117
-5.9307264e+117
-5.9935641e+117
-3.9760874e+117
-4.90893e+117
-4.5416421e+117
-3.9137364e+117
-5.2930795e+117
-5.6442076e+117
-5.9550162e+117
-5.9673015e+117
-5.9580394e+117
-3.4611069e+117
-3.4083416e+117
-4.8038526e+117
-4.3707123e+117
-5.1614735e+117
-3.822962e+117
-5.5555201e+117
-3.0964592e+117
-5.895035e+117
-6.1223408e+117
-6.130266e+117
-5.9569231e+117
-5.1530892e+117
-4.7842037e+117
-5.5434281e+117
-4.3608462e+117
-5.8829893e+117
-3.7677324e+117
-6.1506573e+117
-2.9787284e+117
-5.9093218e+117
-6.3471382e+117
-5.1290048e+117
-5.4843514e+117
-4.774483e+117
-5.8404194e+117
-4.3638549e+117
-6.1298758e+117
-4.1432069e+117
-6.3286163e+117
-6.4346648e+117
-5.4641575e+117
-5.1581063e+117
-5.8262805e+117
-4.8039955e+117
-6.1038089e+117
-5.0806533e+117
-4.1312073e+117
-6.4250331e+117
-6.2896558e+117
-6.4554245e+117
-4.7972799e+117
-5.1266773e+117
-4.3925146e+117
-5.4906567e+117
-4.2281119e+117
-5.8399512e+117
-6.1570419e+117
-6.3382734e+117
-6.4283826e+117
-6.4547238e+117
-6.4224861e+117
-5.1862048e+117
-4.8308371e+117
-5.4716354e+117
-5.7862402e+117
-4.2626803e+117
-5.167431e+117
-6.0989275e+117
-6.2989495e+117
-6.4143496e+117
-6.453404e+117
-6.4213803e+117
-6.3593885e+117
-4.1701831e+117
-3.446205e+117
-4.4567712e+117
-2.1877529e+117
-4.5198267e+117
-2.3942804e+117
-3.8146338e+117
-2.790281e+117
-2.7683292e+117
-3.4458952e+117
-3.0934172e+117
-3.3520056e+117
-2.8730763e+117
-2.4336173e+117
-3.1955081e+117
-2.8572109e+117
-2.8641255e+117
-3.9390557e+117
-4.4269454e+117
-3.0772121e+117
-5.1873817e+117
-1.3138869e+117
-4.2265687e+117
-1.2811931e+117
-3.4581776e+117
-1.458036e+117
-8.3323135e+116
-2.3490679e+117
-1.4701064e+117
-2.7282411e+117
-2.845215e+117
-4.314318e+117
-3.6755867e+117
-4.6060973e+117
-2.4161547e+117
-4.0821353e+117
-4.9400266e+116
-7.3951002e+116
-6.8466783e+116
-5.5681921e+116
-4.0413106e+116
-2.2178752e+117
-1.3706222e+117
-2.5597172e+117
-2.7344831e+117
-3.0760798e+117
-5.2944438e+117
-4.9168704e+117
-5.0403532e+117
-4.5187453e+117
-4.7294874e+117
-5.6494554e+117
-5.443038e+117
-5.2031325e+117
-4.8696028e+117
-5.1448294e+117
-4.8774735e+117
-5.4885628e+117
-5.9676769e+117
-4.5419454e+117
-5.3444297e+117
-4.7468965e+117
-3.4605603e+117
-4.4082851e+117
-4.5908858e+117
-3.9490216e+117
-2.7996787e+117
-4.2703136e+117
-4.409813e+117
-4.3414267e+117
-5.0995816e+117
-5.4484702e+117
-5.4493815e+117
-4.8159457e+117
-4.5748028e+117
-4.5960485e+117
-5.9569543e+117
-6.2878087e+117
-5.9672888e+117
-5.9798152e+117
-4.9758602e+117
-5.3219025e+117
-5.6721028e+117
-6.0362087e+117
-3.3612181e+117
-4.874161e+117
-5.1959026e+117
-4.5029502e+117
-5.5377673e+117
-4.3717609e+117
-5.8543154e+117
-6.1285856e+117
-6.3233886e+117
-5.185855e+117
-5.5241929e+117
-4.8322668e+117
-5.8553008e+117
-4.4505522e+117
-6.1158179e+117
-4.2342912e+117
-6.3110761e+117
-6.4236053e+117
-5.4952879e+117
-5.1928502e+117
-5.8339372e+117
-4.8340373e+117
-6.0917815e+117
-5.1013976e+117
-4.1631261e+117
-6.4219655e+117
-6.2859947e+117
-6.4550952e+117
-5.5067728e+117
-5.7975312e+117
-5.2415834e+117
-6.0864713e+117
-5.777067e+117
-5.1104609e+117
-3.918908e+117
-6.4548451e+117
-6.403176e+117
-6.2490025e+117
-6.4264769e+117
-5.2239949e+117
-4.8653376e+117
-5.5074348e+117
-5.7948471e+117
-4.3094123e+117
-5.2073973e+117
-6.0871562e+117
-6.296044e+117
-6.4145899e+117
-6.4533515e+117
-6.4233273e+117
-6.3635953e+117
-5.3132601e+117
-5.5523851e+117
-5.7817872e+117
-6.0606329e+117
-4.115019e+117
-5.2114855e+117
-5.8724983e+117
-6.2861873e+117
-6.4156345e+117
-6.4529964e+117
-6.4247103e+117
-6.3624752e+117
-6.2954332e+117
-3.9644769e+117
-4.3542024e+117
-3.2898651e+117
-4.7645897e+117
-2.7289211e+117
-4.0716928e+117
-3.0469638e+117
-3.7736911e+117
-3.186131e+117
-2.4814372e+117
-2.8316992e+117
-2.9329631e+117
-2.885442e+117
-3.0610589e+117
-4.2712924e+117
-3.7140026e+117
-4.5700853e+117
-2.6699983e+117
-4.1290629e+117
-1.4050863e+117
-1.9338405e+117
-1.9966146e+117
-1.6361988e+117
-1.2000844e+117
-2.3162301e+117
-1.6734842e+117
-2.5880579e+117
-2.785188e+117
-3.1160442e+117
-3.7950575e+117
-4.385859e+117
-3.1660441e+117
-3.8270176e+117
-3.9845574e+116
-1.3542256e+117
-7.6394887e+116
-8.6068287e+116
-5.140409e+116
-7.2329801e+116
-2.2739338e+117
-1.2413433e+117
-4.5126373e+116
-2.3896916e+117
-3.070989e+117
-1.4799383e+117
-5.6549194e+117
-5.3221845e+117
-5.4444075e+117
-4.9446771e+117
-5.1708835e+117
-4.8835053e+117
-5.9601843e+117
-5.5432131e+117
-5.489755e+117
-4.9678911e+117
-5.2214803e+117
-5.5444079e+117
-4.6069485e+117
-5.4113179e+117
-5.0270057e+117
-5.9236323e+117
-5.3558931e+117
-5.5424352e+117
-5.5502554e+117
-4.9389027e+117
-4.1353005e+117
-3.9930381e+117
-3.7219315e+117
-4.9937182e+117
-4.5890373e+117
-4.3877573e+117
-4.4036497e+117
-5.4843071e+117
-5.5087629e+117
-5.98587e+117
-5.5869558e+117
-5.5299086e+117
-5.0518113e+117
-5.4654486e+117
-5.3653445e+117
-4.8641307e+117
-4.3843739e+117
-4.6543515e+117
-5.9665999e+117
-6.2656506e+117
-5.991932e+117
-6.2599318e+117
-6.4127447e+117
-5.6527083e+117
-5.9185034e+117
-5.9508683e+117
-5.283671e+117
-4.9684378e+117
-5.5598989e+117
-5.8180387e+117
-4.517558e+117
-5.3589548e+117
-6.0761624e+117
-6.2925474e+117
-6.4150162e+117
-5.5416507e+117
-5.2402157e+117
-5.85726e+117
-4.9030746e+117
-6.0881365e+117
-5.202204e+117
-4.2750685e+117
-6.4073727e+117
-6.2789557e+117
-6.452303e+117
-5.5335005e+117
-5.8091539e+117
-5.2642953e+117
-6.0784883e+117
-5.7866857e+117
-5.1347559e+117
-3.9692725e+117
-6.4542528e+117
-6.4014522e+117
-6.2494794e+117
-6.4269303e+117
-5.7855922e+117
-5.5651459e+117
-6.0539108e+117
-5.8659469e+117
-6.1756902e+117
-5.7454585e+117
-5.0924974e+117
-3.74047e+117
-6.4346093e+117
-6.4438479e+117
-6.3783031e+117
-5.9923479e+117
-6.3765738e+117
-5.3452181e+117
-5.5848837e+117
-5.795684e+117
-6.0494117e+117
-4.1727921e+117
-5.2513958e+117
-5.8924781e+117
-6.2889581e+117
-6.4157504e+117
-6.4528177e+117
-6.4262163e+117
-6.3666458e+117
-6.298962e+117
-5.641272e+117
-5.828014e+117
-6.0632958e+117
-3.9246618e+117
-5.3486197e+117
-5.8732827e+117
-5.9539382e+117
-6.2958591e+117
-6.0667195e+117
-6.4330873e+117
-6.4579765e+117
-6.4289193e+117
-6.3705487e+117
-6.2992404e+117
-6.2374145e+117
-4.1817617e+117
-3.781948e+117
-4.4824982e+117
-3.3139502e+117
-4.1484563e+117
-3.186465e+117
-3.5634348e+117
-3.8655317e+117
-3.3292332e+117
-2.8108387e+117
-2.851918e+117
-3.4600814e+117
-2.8887893e+117
-3.0611144e+117
-3.3374084e+117
-3.7844468e+117
-4.3611657e+117
-3.2876338e+117
-3.9103411e+117
-1.5686066e+117
-1.6283592e+117
-1.8628348e+117
-2.2867872e+117
-1.3712783e+117
-1.8832057e+117
-2.3714838e+117
-1.5452244e+117
-1.4370959e+117
-2.4631596e+117
-3.1016712e+117
-2.252554e+117
-3.9645047e+117
-3.1475724e+117
-3.801014e+117
-4.628672e+116
-1.3205089e+117
-1.2465692e+117
-3.3094495e+117
-4.1450527e+117
-3.2623122e+117
-3.817444e+117
-3.3275036e+117
-2.4508422e+117
-6.2528842e+116
-7.55036e+116
-3.0243757e+116
-2.9391756e+117
-2.1613026e+117
-2.5935805e+117
-5.6557221e+117
-5.4231391e+117
-4.9877929e+117
-4.3761785e+117
-5.9274828e+117
-5.7089435e+117
-5.1529408e+117
-5.893587e+117
-5.6486661e+117
-5.9317152e+117
-6.2547112e+117
-6.0532475e+117
-5.3168577e+117
-5.7121542e+117
-5.0675536e+117
-4.3219707e+117
-4.1699449e+117
-4.091598e+117
-4.2504543e+117
-3.6071042e+117
-5.622405e+117
-5.5939108e+117
-6.0474126e+117
-6.0667391e+117
-6.2939751e+117
-5.766089e+117
-6.0106685e+117
-5.9494832e+117
-5.6873494e+117
-5.4322203e+117
-4.7740787e+117
-4.0626069e+117
-4.7486873e+117
-6.0834747e+117
-6.282686e+117
-6.3963385e+117
-6.4104249e+117
-6.4489722e+117
-6.045301e+117
-5.6352072e+117
-5.825321e+117
-4.4241406e+117
-5.4019942e+117
-5.9586903e+117
-6.3032272e+117
-6.4144585e+117
-6.4519677e+117
-5.5712824e+117
-5.8301569e+117
-5.8265378e+117
-5.2140081e+117
-4.0608166e+117
-6.450635e+117
-6.3926699e+117
-6.2543865e+117
-6.4293038e+117
-5.7973894e+117
-5.5796707e+117
-6.0502918e+117
-5.8720652e+117
-6.1811689e+117
-5.7611379e+117
-5.1166872e+117
-3.7727129e+117
-6.4340994e+117
-6.4434827e+117
-6.3785966e+117
-5.9902378e+117
-6.3795665e+117
-6.3545638e+117
-6.1396667e+117
-5.7975976e+117
-5.267454e+117
-4.0885445e+117
-6.4145421e+117
-6.4202272e+117
-6.433132e+117
-6.3174808e+117
-5.6643473e+117
-5.844252e+117
-6.061167e+117
-3.9607237e+117
-5.3880085e+117
-5.9038022e+117
-5.9654626e+117
-6.3015124e+117
-6.0727306e+117
-6.4345312e+117
-6.4575134e+117
-6.4295367e+117
-6.3745046e+117
-6.3029485e+117
-6.2393678e+117
-4.6456909e+117
-5.6014133e+117
-6.0209102e+117
-6.3222831e+117
-6.4739712e+117
-6.4708042e+117
-6.4330657e+117
-6.3856632e+117
-6.3150321e+117
-6.2400932e+117
-6.1675863e+117
-3.8221698e+117
-4.32529e+117
-3.7401841e+117
-2.8624188e+117
-3.6685252e+117
-4.1779362e+117
-3.1637187e+117
-3.4288119e+117
-2.9298015e+117
-3.4456285e+117
-4.520521e+117
-2.9795827e+117
-3.3284642e+117
-3.8192396e+117
-3.9706128e+117
-3.2504355e+117
-3.9013486e+117
-1.4299429e+117
-3.3227457e+117
-2.5634125e+117
-3.3931177e+117
-4.2198619e+117
-3.4156659e+117
-3.9498407e+117
-3.4935139e+117
-2.5618566e+117
-1.5623445e+117
-1.7682399e+117
-1.3522131e+117
-2.9486383e+117
-2.4849877e+117
-2.9263983e+117
-5.1257871e+116
-4.7024973e+116
-4.2975414e+117
-2.4786624e+117
-5.2018894e+117
-4.8368528e+117
-1.3515624e+117
-2.5208478e+116
-3.3634215e+117
-2.8588177e+116
-2.5807207e+116
-3.2621704e+117
-2.0617479e+117
-4.5620588e+117
-5.7203498e+117
-5.9567547e+117
-5.4639948e+117
-4.8091429e+117
-5.449368e+117
-4.3933634e+117
-6.2430239e+117
-6.1027594e+117
-5.8512681e+117
-5.3626981e+117
-5.812824e+117
-5.8948987e+117
-6.0006543e+117
-5.6155108e+117
-6.0606382e+117
-6.3217896e+117
-6.394822e+117
-6.163854e+117
-5.7699565e+117
-5.3261778e+117
-4.0907643e+117
-4.0221189e+117
-3.8232343e+117
-3.8731732e+117
-3.6702658e+117
-5.7534335e+117
-6.1353227e+117
-5.7225684e+117
-6.1771529e+117
-6.3417038e+117
-6.3384024e+117
-6.4357709e+117
-5.7323451e+117
-5.8699997e+117
-6.0029661e+117
-6.1059232e+117
-6.0760797e+117
-5.0552655e+117
-4.7615161e+117
-6.401775e+117
-6.4379205e+117
-6.4463824e+117
-6.4333337e+117
-4.1914195e+117
-5.5300228e+117
-6.0290335e+117
-6.3147875e+117
-6.4345073e+117
-6.4536799e+117
-6.4308201e+117
-6.2030916e+117
-5.8151304e+117
-5.2057654e+117
-3.8924401e+117
-6.4331101e+117
-6.4405645e+117
-6.3777974e+117
-6.3867525e+117
-6.3575675e+117
-6.1492549e+117
-5.8172207e+117
-5.2903881e+117
-4.0830172e+117
-6.4152333e+117
-6.4208119e+117
-6.4332096e+117
-6.3216272e+117
-6.4292865e+117
-6.341347e+117
-6.1819426e+117
-5.93782e+117
-5.3685978e+117
-6.3589736e+117
-6.4279944e+117
-6.2495963e+117
-4.6311503e+117
-5.6259363e+117
-6.0525947e+117
-6.3371764e+117
-6.4744738e+117
-6.4701985e+117
-6.4332675e+117
-6.3891501e+117
-6.3191727e+117
-6.242178e+117
-6.168669e+117
-5.9322094e+117
-6.2360512e+117
-6.4238716e+117
-6.5119085e+117
-6.5050279e+117
-6.4489147e+117
-6.3761675e+117
-6.3589849e+117
-6.2559966e+117
-6.1688658e+117
-6.0826246e+117
-3.3633999e+117
-4.7890594e+117
-3.4991705e+117
-4.5899468e+117
-4.4171031e+117
-4.0638691e+117
-3.078896e+117
-3.651066e+117
-4.4404243e+117
-5.6458606e+117
-3.3308911e+117
-3.8333943e+117
-4.4888472e+117
-1.6417502e+117
-1.5270857e+117
-4.3779323e+117
-2.5372335e+117
-5.222274e+117
-4.8660619e+117
-3.1269436e+117
-9.2894407e+116
-3.3939591e+117
-1.339404e+117
-8.7372951e+116
-3.2954012e+117
-2.9499123e+117
-4.6294359e+117
-8.8311657e+116
-3.3292334e+117
-1.1155504e+117
-5.2040307e+117
-2.8117131e+117
-5.5553053e+117
-5.0911269e+117
-6.8721324e+116
-2.7199967e+116
-4.4574121e+116
-1.911969e+116
-1.0085905e+117
-4.5308805e+117
-4.5241013e+117
-1.8775881e+117
-6.2396897e+117
-6.0054099e+117
-6.1597435e+117
-6.2545207e+117
-6.0819215e+117
-5.644411e+117
-4.8723921e+117
-5.2779805e+117
-5.5328005e+117
-4.2302293e+117
-4.5927969e+117
-4.7107803e+117
-4.1495392e+117
-6.3322362e+117
-6.3933892e+117
-6.2162222e+117
-5.9731938e+117
-5.7469923e+117
-6.3879187e+117
-6.4235847e+117
-6.4366986e+117
-6.2349986e+117
-6.0235982e+117
-5.6403871e+117
-6.4592148e+117
-6.2665673e+117
-6.3887542e+117
-5.9228321e+117
-6.3164767e+117
-6.4355467e+117
-6.4608371e+117
-6.441434e+117
-6.4599971e+117
-5.6599157e+117
-4.3242783e+117
-3.9638502e+117
-5.1074506e+117
-5.2571737e+117
-6.4392591e+117
-6.4175831e+117
-6.4240975e+117
-6.4308164e+117
-6.4286472e+117
-6.4225357e+117
-6.4201495e+117
-4.9127834e+117
-5.6927871e+117
-6.159446e+117
-6.3922168e+117
-6.4655676e+117
-6.4655864e+117
-6.4337161e+117
-6.398223e+117
-6.3674992e+117
-6.1831363e+117
-5.8968687e+117
-5.3703563e+117
-4.1582731e+117
-6.4166197e+117
-6.4214199e+117
-6.4327243e+117
-6.3398682e+117
-6.4303174e+117
-6.3462757e+117
-6.1932888e+117
-5.9554721e+117
-5.3855047e+117
-6.3625458e+117
-6.4286036e+117
-6.2526731e+117
-6.4386068e+117
-6.4311635e+117
-6.3657044e+117
-6.2408896e+117
-5.9761231e+117
-5.8462687e+117
-6.2891685e+117
-6.3817943e+117
-6.1763575e+117
-5.940958e+117
-6.2591103e+117
-6.4407593e+117
-6.5161889e+117
-6.5035814e+117
-6.4494864e+117
-6.378868e+117
-6.3618493e+117
-6.2584796e+117
-6.1699711e+117
-6.0831858e+117
-6.6522307e+117
-6.5297517e+117
-6.5683412e+117
-6.5748718e+117
-6.5453152e+117
-6.4773265e+117
-6.3973989e+117
-6.2960229e+117
-6.1787786e+117
-6.0832331e+117
-5.9844095e+117
-3.8748011e+117
-3.4571688e+117
-4.7687169e+117
-3.323689e+117
-5.2909953e+117
-5.0096788e+117
-4.6536547e+117
-3.0857978e+117
-4.2387858e+117
-5.6658138e+117
-5.2255585e+117
-4.1865147e+117
-4.5226865e+117
-5.2304706e+117
-2.8559406e+117
-3.506539e+117
-2.5992437e+117
-5.2394725e+117
-2.8924828e+117
-5.5718368e+117
-5.1535623e+117
-1.8576907e+117
-9.9991746e+116
-1.6710729e+117
-7.9465126e+116
-1.3628744e+117
-4.522228e+117
-4.5920921e+117
-3.0962431e+117
-7.6064217e+116
-5.7803252e+116
-4.5841172e+117
-3.6007129e+117
-5.7382124e+117
-5.8795743e+117
-5.3393206e+117
-5.8641871e+117
-3.8109673e+116
-1.136152e+117
-6.1455196e+116
-4.5545379e+117
-2.9735273e+117
-1.0365227e+117
-6.2326186e+117
-6.1328312e+117
-6.5042843e+117
-6.3729061e+117
-5.6470533e+117
-6.3279831e+117
-6.0839802e+117
-6.3663486e+117
-6.4045074e+117
-6.309997e+117
-5.4629181e+117
-4.6700777e+117
-5.4526667e+117
-5.8498942e+117
-4.068669e+117
-4.4032899e+117
-4.2493433e+117
-6.4312907e+117
-6.411451e+117
-6.4411752e+117
-6.292184e+117
-6.1748974e+117
-6.0207679e+117
-6.4374892e+117
-6.4684224e+117
-6.4275231e+117
-6.3819265e+117
-6.1333419e+117
-6.5767081e+117
-6.5919557e+117
-6.6005868e+117
-6.4917285e+117
-6.4691039e+117
-6.4737983e+117
-6.0030435e+117
-6.5329272e+117
-6.5211182e+117
-6.4796312e+117
-6.4435696e+117
-5.0203864e+117
-4.7697307e+117
-4.4234039e+117
-4.9612297e+117
-6.4607662e+117
-6.3439367e+117
-6.4821135e+117
-6.3740836e+117
-6.385972e+117
-6.4218559e+117
-6.4150545e+117
-6.4042336e+117
-6.3155083e+117
-6.4944299e+117
-6.5253806e+117
-6.4936013e+117
-6.4504623e+117
-6.3735129e+117
-6.4326509e+117
-6.3631313e+117
-6.2313078e+117
-6.0068148e+117
-6.4298298e+117
-6.2744834e+117
-6.4390496e+117
-6.4331025e+117
-6.3714884e+117
-6.247202e+117
-5.990301e+117
-5.8563658e+117
-6.2919396e+117
-6.3847308e+117
-6.1778043e+117
-6.4015517e+117
-6.448435e+117
-6.4462089e+117
-6.397966e+117
-6.2640243e+117
-5.9370136e+117
-6.4056822e+117
-6.1988019e+117
-6.3264782e+117
-6.0871087e+117
-6.6590551e+117
-6.536745e+117
-6.577823e+117
-6.5802342e+117
-6.5449501e+117
-6.4776484e+117
-6.4003491e+117
-6.2985614e+117
-6.1800098e+117
-6.0837969e+117
-5.9846333e+117
-6.6586419e+117
-6.7912117e+117
-6.6520208e+117
-6.6484896e+117
-6.5886526e+117
-6.5104357e+117
-6.428482e+117
-6.2061017e+117
-6.3454011e+117
-6.0876731e+117
-5.9846224e+117
-5.8759962e+117
-5.0028268e+117
-4.4147275e+117
-5.397961e+117
-4.0392777e+117
-5.640422e+117
-5.3619359e+117
-4.2026962e+117
-5.9302447e+117
-5.2501902e+117
-5.2133863e+117
-4.7439094e+117
-5.2202206e+117
-4.9957749e+117
-2.1049594e+117
-1.6785546e+117
-4.6479628e+117
-3.7266104e+117
-5.7453539e+117
-5.8969184e+117
-5.4023018e+117
-5.8747427e+117
-1.2657296e+117
-1.5580519e+117
-1.4386865e+117
-4.5891325e+117
-3.347515e+117
-1.5835314e+117
-3.1318267e+116
-3.7003163e+117
-5.1770869e+117
-1.2517431e+117
-6.0363275e+117
-5.9467065e+117
-5.9125445e+117
-5.5555296e+117