/*--------------------------------*- C++ -*----------------------------------*\
  =========                 |
  \\      /  F ield         | OpenFOAM: The Open Source CFD Toolbox
   \\    /   O peration     | Website:  https://openfoam.org
    \\  /    A nd           | Version:  7
     \\/     M anipulation  |
\*---------------------------------------------------------------------------*/
FoamFile
{
    version     2.0;
    format      ascii;
    class       surfaceScalarField;
    location    "10000";
    object      phi;
}
// * * * * * * * * * * * * * * * * * * * * * * * * * * * * * * * * * * * * * //

dimensions      [0 3 -1 0 0 0 0];

internalField   nonuniform List<scalar> 
100795
(
2.9979484e+53
-2.0564021e+53
-1.7352471e+53
2.4006379e+53
2.1098433e+52
2.5152462e+51
4.6888924e+53
4.0077858e+53
4.4606656e+51
3.1950047e+53
-1.7150496e+52
1.9401096e+52
1.0168899e+53
6.313312e+52
2.8348234e+52
2.1610553e+53
2.3572777e+53
3.6991844e+52
1.8311588e+53
4.5842897e+52
5.8545354e+52
2.5904118e+53
1.4252016e+53
4.0548144e+52
3.9434818e+53
3.45404e+53
3.3222076e+52
3.6539153e+53
7.2017131e+49
1.6902387e+53
-4.4045032e+52
4.3670539e+52
-2.3253593e+52
7.339539e+52
1.5742102e+53
2.2639213e+52
7.3050663e+52
6.585992e+52
5.079672e+52
2.394957e+53
1.9878896e+53
6.0368195e+52
1.9230692e+53
2.2099713e+53
6.3878479e+52
2.3603707e+53
4.4375419e+52
1.2035053e+53
2.6647362e+53
9.954741e+52
3.7433842e+52
2.2698882e+53
1.299134e+53
4.7280308e+52
9.5082447e+53
3.9697379e+53
3.091864e+53
3.8150982e+53
8.7752794e+52
1.2605581e+52
-3.7337796e+52
5.6503501e+52
-2.7542879e+52
-6.9323194e+52
1.1894518e+53
-3.0956048e+52
-9.8215225e+52
-2.2512577e+52
-4.3758279e+52
1.0058316e+53
2.2219725e+53
4.4618489e+52
6.8711118e+52
1.8640833e+53
2.5686253e+52
1.3469764e+53
5.5469966e+52
8.8956064e+52
3.3221929e+53
1.2055719e+53
5.0374897e+52
2.7458739e+53
1.8370327e+53
5.0063364e+52
5.6685835e+53
2.371568e+53
2.5506296e+53
4.264785e+53
1.3446246e+53
-6.3188199e+51
2.4207729e+53
1.7023261e+53
3.5181402e+52
9.6454041e+52
2.3437142e+52
1.5913607e+52
1.9955916e+53
1.3577146e+53
1.6636559e+53
4.4257762e+53
2.9140099e+53
1.9155824e+52
3.1092478e+53
3.7668845e+52
-6.5017776e+52
6.9059344e+52
1.3541468e+52
1.2323599e+51
-7.7751649e+52
1.5609532e+53
-2.2452797e+52
-1.1459417e+53
-1.2326685e+52
-4.9368848e+52
-9.1047547e+52
2.1018447e+53
-2.9437817e+52
-1.2701978e+53
1.5971019e+52
-5.0709741e+52
-1.1064861e+53
-4.4574534e+52
-4.6134598e+52
3.09879e+53
1.5690436e+53
9.7710924e+52
1.9251393e+53
2.776647e+53
3.5435565e+52
3.1217557e+53
1.8849585e+53
1.4734311e+53
4.5954903e+53
1.4628539e+53
-3.68044e+52
2.981941e+53
2.0471218e+53
4.3431761e+52
9.1565175e+52
4.1436235e+52
3.2083689e+52
2.3139794e+53
1.3079718e+53
1.2458421e+53
4.8361333e+53
3.4267638e+53
5.8134658e+51
3.9663762e+53
9.0419467e+52
-8.5268555e+52
1.8592229e+53
1.5233076e+53
4.5148297e+52
1.7942393e+53
2.4366744e+52
1.0823718e+52
2.0371836e+53
7.67332e+52
1.4783092e+52
2.8514051e+53
2.8944175e+53
-2.210781e+52
3.6570178e+53
4.9924828e+52
-8.9121916e+52
5.6894274e+53
-2.1866959e+53
1.8508172e+52
2.2024348e+53
1.0870121e+52
7.2368679e+52
3.5380351e+53
-1.8905741e+53
3.7381828e+53
1.0565876e+52
-1.0634277e+53
-4.855866e+52
-6.3792001e+52
2.9507925e+53
2.6273548e+52
-1.5185712e+53
4.3381611e+52
-5.3324238e+52
-1.3198096e+53
-3.6432886e+52
-5.1461783e+52
-1.1383104e+53
2.9943006e+53
-2.71879e+52
-1.6150769e+53
6.2045676e+52
-5.2703164e+52
-1.4060905e+53
-1.7897742e+52
-5.1870644e+52
-1.097125e+53
-5.8286206e+52
-4.4642174e+52
3.88767e+53
2.4438915e+53
9.9606269e+52
1.0957144e+53
5.7188303e+52
5.7356009e+52
1.864e+53
1.9444906e+53
7.4480136e+52
4.6455692e+53
3.4852244e+53
-3.583796e+52
4.2324912e+53
1.4637273e+53
-9.8526491e+52
2.4284102e+53
2.1955126e+53
5.9038943e+52
1.9248382e+53
4.83009e+52
2.350681e+52
1.0778282e+53
1.0285207e+53
1.2355263e+52
3.6302409e+53
4.0717434e+53
-1.7797703e+52
4.6168568e+53
1.0284194e+53
-1.025933e+53
6.5793098e+53
4.1023357e+52
1.0587699e+52
1.0051025e+54
2.7845323e+52
1.8852144e+53
3.1024092e+53
-5.5585342e+51
1.5511336e+52
3.5220195e+53
5.8208689e+52
3.0307902e+52
8.8371441e+53
9.7204887e+52
1.4445977e+53
3.2347376e+53
2.0471045e+53
-3.0149317e+53
7.2941157e+53
-8.7370975e+53
2.2110522e+52
2.6354446e+53
-5.8154649e+51
-1.3371236e+53
3.2493011e+53
-6.6701706e+52
8.462203e+52
6.4162766e+53
-2.1753782e+53
4.05138e+53
9.0611767e+52
-1.3426096e+53
-2.5276088e+52
3.2213111e+53
3.2562301e+53
-2.5133095e+53
2.6672152e+53
-1.9459598e+53
1.7007078e+53
-2.1303863e+52
-1.4776165e+53
-5.6835106e+52
9.2072938e+52
3.0275658e+53
1.7518013e+53
-1.6824857e+53
1.1465906e+53
-3.8264818e+52
-1.7478862e+53
2.6169993e+51
-5.8196357e+52
-1.2909186e+53
-5.0441398e+52
-4.7296773e+52
-8.9171676e+52
2.3708378e+53
1.4117003e+53
-4.061328e+53
1.4050258e+53
-1.0282269e+53
-1.7909499e+53
1.6186063e+52
-5.2825836e+52
-1.3777494e+53
-4.0420813e+52
-4.7346764e+52
-1.0289765e+53
-5.9232698e+52
-3.5749436e+52
3.7959872e+53
1.8452816e+53
1.1755111e+53
2.1909076e+53
8.1573646e+52
4.8612854e+52
3.5785169e+52
2.3807183e+52
7.0320832e+51
3.6354951e+53
4.8761628e+53
-6.5139555e+52
4.8597349e+53
2.0210492e+53
-1.1585762e+53
6.0953359e+53
1.5088075e+53
-8.5095933e+49
1.2163867e+54
9.2580431e+52
3.2286e+53
3.8288155e+53
5.8842446e+51
2.8813594e+52
3.1889019e+53
1.094714e+53
5.0197835e+52
4.5114619e+53
1.383838e+53
9.8709266e+52
4.3180523e+53
2.259737e+53
-2.4926062e+53
7.9935983e+53
-1.3121444e+53
-3.040676e+50
4.776958e+53
-8.3179845e+52
-8.914036e+52
7.5445042e+53
2.1058919e+53
-2.8529224e+53
6.4621723e+53
-6.181333e+52
8.1694995e+52
1.127811e+53
2.8294682e+52
7.4927801e+51
4.6777077e+53
-6.1845586e+52
8.0027868e+52
8.127151e+52
-9.0072093e+52
-7.1974855e+52
3.0475739e+54
1.1882209e+54
1.2402142e+53
3.7656721e+53
2.9791836e+52
-9.5690044e+52
4.0178273e+53
-3.745041e+52
4.2145491e+52
2.0562067e+52
3.5621911e+53
4.1981983e+53
8.8120997e+53
-3.1438668e+53
3.7165161e+53
1.9046888e+53
-1.9834002e+53
1.4854725e+52
5.2885263e+53
3.4862368e+53
-2.8690751e+53
4.6152225e+53
-2.6146997e+53
3.375399e+53
1.8109413e+52
-1.8335147e+53
-5.6130516e+52
1.8986858e+53
-2.2003908e+53
1.9320509e+53
3.6113216e+53
3.4533125e+53
-9.2486404e+52
1.0884724e+53
-1.9547257e+53
1.6173787e+52
-3.8957897e+52
-1.5207276e+53
-4.9630021e+52
-7.2901969e+52
2.5642417e+53
2.491519e+53
-3.6621048e+53
1.8750174e+53
6.2411578e+52
-2.1744398e+53
4.946937e+52
-4.6770957e+52
-1.7125082e+53
-2.5824529e+52
-4.9335673e+52
-1.2288012e+53
-5.6228203e+52
-3.6275127e+52
-6.1954016e+53
1.8557252e+53
-1.4462947e+52
-5.1733419e+53
2.1276697e+53
5.1854963e+52
-5.3643293e+53
8.2268562e+52
-8.7560807e+52
-1.741816e+53
-1.7414132e+52
-4.4290775e+52
-1.3090929e+53
-4.699562e+52
-3.5142207e+52
-9.449423e+52
-6.0945544e+52
-3.073015e+52
1.3494805e+54
6.2628823e+52
4.7642162e+53
4.9011082e+53
1.5610306e+52
7.6284779e+52
2.4435525e+53
9.7099465e+52
4.9854114e+52
1.9862615e+53
-1.0481008e+53
6.8261521e+52
4.8016847e+53
2.7858177e+53
-1.8997936e+53
6.7956752e+53
1.4142363e+53
1.3391432e+52
6.8544131e+53
-1.2306876e+53
-5.8312467e+52
1.0815209e+54
2.7784823e+53
-2.8636354e+53
8.6618271e+53
-6.8107481e+52
1.7688512e+53
1.4189133e+53
7.8023316e+52
3.1150353e+52
4.13294e+53
1.6727811e+53
7.5775862e+52
1.2133842e+53
-2.68093e+53
1.0190454e+51
1.638672e+54
9.5631603e+53
7.2108333e+52
1.4709071e+53
2.2649321e+53
-8.050201e+52
1.8908831e+53
2.7776299e+52
1.8436458e+52
5.1111371e+53
-8.5297969e+52
1.0775542e+53
1.3078466e+54
3.1878246e+53
-3.8248964e+52
5.14813e+53
5.925423e+52
3.5913597e+52
2.0761044e+53
-1.13506e+53
5.4242007e+52
1.5602201e+53
-4.8665459e+52
-7.7516461e+52
-3.9190142e+53
-4.7864294e+53
-3.2614653e+52
3.4656266e+53
1.2830123e+53
-9.8872414e+52
8.3839595e+52
-1.4820853e+53
6.6111838e+52
1.0224694e+53
-2.2370346e+52
3.8106131e+52
-3.5473718e+53
1.4624657e+54
1.1435219e+54
-1.4287509e+53
3.8632041e+53
5.2997851e+53
-3.9970525e+53
2.9790894e+53
3.4587118e+53
6.943683e+53
3.7352256e+53
-3.7325467e+53
5.505381e+53
-3.8414545e+53
4.6843867e+53
8.9835862e+52
-2.4935961e+53
-2.4958301e+52
3.326032e+53
-2.9722241e+53
2.4164737e+53
4.6251748e+53
4.0915433e+53
-1.1787625e+53
2.600406e+53
-2.437276e+53
2.4671256e+53
-2.3452882e+52
-1.9772413e+53
-4.5164655e+52
2.2439512e+53
9.3552898e+52
-1.9030717e+53
1.2042141e+52
-2.3278707e+53
1.0242615e+53
2.8519981e+53
4.5582223e+53
-1.3042469e+53
-7.4715058e+52
-1.5771538e+53
-5.5173182e+52
-5.6580738e+52
-1.4479767e+53
-3.5976155e+52
-4.9227728e+53
2.2578512e+53
1.4772484e+53
-5.1444368e+53
2.612627e+53
1.7249526e+53
-6.1534035e+53
1.2832519e+53
6.2459205e+52
-2.2282999e+53
6.7595822e+51
-3.0708013e+52
-1.6359314e+53
-4.0254752e+52
-3.2629969e+52
-1.0419828e+53
-6.2815736e+52
-3.2372507e+52
-9.6880529e+53
1.4593385e+53
1.7489269e+53
-9.1033304e+53
2.1590271e+53
-5.6296112e+51
-6.9235754e+53
1.586877e+53
1.8695753e+52
-5.6576342e+53
5.0654677e+52
-5.7832397e+52
-1.7051919e+53
-3.0089282e+52
-2.9298812e+52
-1.1905917e+53
-4.8307137e+52
-2.9456655e+52
-6.2040641e+52
-6.4220282e+52
-3.7862193e+52
1.3732659e+54
4.6140115e+53
-4.119346e+53
1.0979409e+54
-1.0565023e+53
3.6592197e+53
1.9794346e+53
7.1956003e+52
4.5372547e+52
2.8819062e+53
9.4286395e+51
6.0715343e+52
1.6495959e+53
-4.1167452e+53
1.3594822e+52
9.3882032e+53
6.1034444e+53
4.0952009e+52
-2.5538659e+53
2.8694232e+53
5.8567033e+51
2.0779324e+52
1.2191769e+52
1.0086367e+51
5.9546648e+53
-6.5475138e+52
1.9086551e+53
1.8314518e+54
2.714029e+53
-1.2505543e+53
5.9510211e+53
9.4129232e+52
8.0481787e+52
2.1807012e+53
1.6413513e+53
2.3826825e+52
1.6400851e+53
-1.8105458e+53
-1.9251697e+52
-3.2415384e+53
-4.8705099e+53
-6.7453593e+51
4.2235884e+53
2.7764886e+53
-5.4843726e+52
2.4441947e+52
-2.182633e+52
2.8500885e+52
5.9387078e+52
-1.0666872e+53
-9.0153809e+49
6.989857e+53
1.336222e+53
-1.0855143e+53
6.6031724e+53
-8.4283257e+52
2.6651606e+52
1.7411851e+54
-7.3511443e+52
-3.3086878e+53
-1.1842174e+53
-1.8077115e+52
1.1040298e+53
6.5779773e+52
-3.1007175e+52
-9.0811138e+52
-1.989478e+53
-4.6107385e+53
-3.0748486e+52
-2.6795346e+53
-1.7316667e+53
-1.1714178e+52
-2.1525728e+53
7.9847323e+52
4.8541184e+52
2.5010774e+53
-4.8680219e+53
5.3525521e+52
6.8311861e+52
5.1270976e+52
7.210257e+52
-1.0377479e+54
1.5700488e+54
1.1805983e+54
-7.0255921e+53
8.9370473e+53
1.4221522e+54
-4.4344928e+53
1.3852218e+54
1.1568154e+54
-5.4954759e+53
3.253097e+53
3.1622285e+53
-5.2647745e+53
4.3203781e+53
4.0788167e+53
-6.5668453e+53
2.2504321e+53
2.5200418e+53
4.3239908e+53
-4.3736594e+53
3.269493e+53
7.4235352e+53
4.954299e+53
-2.0970328e+53
2.8946137e+53
-3.5561697e+53
5.4527182e+53
1.6627598e+52
-2.5776251e+53
-3.0108369e+52
3.6317796e+53
2.1416289e+53
-2.4101583e+53
1.2504652e+53
-2.9950843e+53
1.8443332e+53
1.8868689e+53
-1.8193141e+53
-9.4836222e+52
3.6773079e+52
-1.8759092e+53
1.2508354e+53
-4.6943576e+52
-1.93811e+53
-2.4587069e+52
-2.3319443e+53
-2.1523199e+53
6.1326853e+52
4.3232552e+52
-2.2886563e+52
-3.8951678e+52
-1.5848851e+53
-1.7230184e+53
5.4002087e+52
-1.9134897e+53
-2.0733031e+53
-3.8146601e+52
-2.0935084e+53
-1.1620701e+53
-9.1858524e+52
-6.3200679e+52
-1.1148031e+53
-3.2705456e+52
-8.6818964e+53
2.1550545e+53
1.9784955e+53
-8.8531268e+53
2.6421812e+53
1.1974873e+53
-7.2889799e+53
2.1279165e+53
1.245627e+53
-7.006914e+53
9.9671208e+52
1.0446979e+53
-2.1560503e+53
-1.4004166e+52
-1.1877659e+52
-1.3935753e+53
-4.6307672e+52
-2.8841717e+52
-5.3719112e+52
-6.9584243e+52
-4.2216921e+52
-1.0481208e+54
2.0375501e+53
1.8291147e+53
-1.2368987e+54
2.0761398e+53
1.2012209e+53
-9.5489225e+53
2.0705623e+53
-5.3071254e+51
-6.7559527e+53
1.3045587e+53
1.1360712e+51
-6.0729161e+53
6.0752686e+52
-2.9121784e+52
-1.5875077e+53
-2.6124934e+52
-2.3592341e+52
-7.2700135e+52
-6.0368426e+52
-3.7024431e+52
-5.2281025e+52
-6.7624863e+52
-6.4123112e+52
7.4195199e+53
-1.7101573e+53
3.802834e+53
1.8973091e+54
4.3298061e+53
-3.0042844e+53
8.0695117e+53
1.8023614e+51
2.2422312e+53
2.2498487e+53
1.1609016e+52
3.6273637e+52
1.7674178e+53
-3.7461142e+53
1.091821e+52
-2.6650241e+53
-4.1066028e+53
1.7885067e+52
4.6967807e+53
3.2941789e+53
-4.8845926e+52
-2.4409226e+52
6.6946495e+52
-4.6374601e+49
6.1235323e+52
-7.9829406e+52
-1.2785643e+52
1.044777e+54
9.9023843e+52
-2.3888517e+53
9.4212018e+53
-7.0786994e+52
7.3979396e+52
2.3000266e+54
-9.0716431e+52
-3.1553458e+53
1.8041288e+53
4.4503575e+52
-9.8753738e+52
8.3138926e+52
-1.2092958e+53
-5.3658142e+52
-2.4362246e+53
-4.712368e+53
9.6076493e+51
-2.4381247e+53
-1.9891319e+53
-2.1522361e+52
-2.267339e+53
-9.5468371e+52
3.0274743e+52
4.2055375e+53
-2.9794285e+53
4.934833e+52
-1.0910311e+53
2.2529736e+53
7.0816627e+52
3.3949325e+53
-1.6586225e+53
1.2151818e+53
8.0457942e+53
7.5866641e+52
-6.5677121e+53
1.9208744e+53
2.8380029e+51
-4.9765907e+52
6.5234371e+53
-9.6270783e+53
-1.9107479e+53
-3.5356027e+53
-6.4988007e+52
1.8857378e+51
-1.2620967e+53
-4.8566124e+53
-5.6844817e+52
-3.9764106e+53
-2.6772947e+53
-4.9037372e+51
-5.1467667e+52
-9.3012695e+52
-4.5686951e+52
1.3166689e+53
-1.2460046e+53
6.1097054e+52
1.8609548e+53
-4.8034537e+52
8.5917211e+52
1.8602173e+53
9.0922468e+52
8.0915519e+52
1.4960522e+54
-9.8628731e+53
1.0921525e+54
-1.0690174e+54
8.9414537e+53
1.4747646e+54
-7.4414562e+53
1.248727e+54
9.7452338e+53
-7.2344925e+53
1.1113771e+54
1.3645217e+54
-8.5702664e+53
6.5657649e+53
1.25538e+54
-5.3068239e+53
1.1116065e+54
8.3329098e+53
-8.3868793e+53
2.6595749e+53
2.5482987e+53
-8.8371389e+53
4.2712928e+53
3.1953105e+53
-7.3734187e+53
3.840742e+53
2.5729371e+53
-7.4984233e+53
1.7438185e+53
1.4339792e+53
4.2420453e+53
4.2647995e+53
-4.294386e+53
1.8917674e+53
-4.5536938e+53
3.625758e+53
2.1464721e+53
4.935113e+53
-2.5949745e+53
1.804278e+53
-2.531364e+53
3.9699002e+53
-2.3446058e+52
-2.5380959e+53
-1.5403947e+52
-1.3171076e+53
-2.6053122e+53
7.3705011e+52
-1.0418938e+53
-1.9741769e+53
-7.811079e+52
-6.1242489e+52
-2.1215375e+53
1.117585e+53
-1.8707571e+52
-2.2117651e+53
-7.0711771e+52
-1.3605347e+53
-1.4414474e+53
2.1142312e+51
-4.4246562e+52
-1.5501524e+53
-2.7885021e+52
-4.1115655e+53
-1.1762888e+53
-9.7973003e+52
-2.721727e+53
-1.8017615e+53
1.1061304e+52
-3.3062006e+53
-1.8204355e+53
-9.5988711e+52
-2.7909857e+53
-8.0238291e+52
-1.6539667e+52
-1.8271805e+53
-1.1609393e+53
4.409432e+52
-2.0280127e+53
-1.0750448e+53
-7.7750307e+52
-6.4728695e+52
-4.9817728e+52
-4.5153431e+52
-1.0407541e+54
2.3187587e+53
2.4047568e+53
-1.2145056e+54
2.0815577e+53
1.4403636e+53
-9.7002226e+53
2.5691869e+53
9.0754343e+52
-7.4376885e+53
1.8050112e+53
1.1190022e+53
-7.4318129e+53
1.1647339e+53
1.0987e+53
-1.8814297e+53
-1.3527345e+52
-1.5269638e+52
-6.8452499e+52
-6.1971716e+52
-4.0703695e+52
-4.519417e+52
-8.1991355e+52
-7.0174513e+52
-1.2282537e+54
2.8824039e+53
1.4514317e+53
-1.0089791e+54
2.1403135e+53
2.34782e+53
-1.13453e+54
-1.4430009e+53
1.575486e+53
-8.9493806e+53
1.9508021e+53
3.2616104e+50
-6.80878e+53
1.1070815e+53
3.2219329e+52
-5.5302292e+53
3.4016998e+52
-1.660202e+51
-9.31271e+52
-5.1656688e+52
-3.3277561e+52
-6.0363562e+52
-4.6512305e+52
-6.7712718e+52
-4.274335e+52
-1.1695995e+53
-7.5092763e+52
1.4908996e+54
2.7778954e+53
-4.6194411e+53
1.2091977e+54
-1.1215897e+53
2.2716906e+53
2.4813266e+54
1.2680977e+53
-2.7912044e+53
4.7074387e+53
-1.1211637e+53
5.7609178e+52
7.9328628e+52
-3.3539472e+53
8.6530404e+50
-2.3393819e+53
-4.456743e+53
3.6245208e+52
-2.0837954e+53
-2.2930633e+53
-1.5909823e+52
-7.0325548e+52
-1.3951095e+53
1.2032626e+51
4.1859283e+53
-1.1486448e+53
3.6959461e+52
-2.8341882e+53
1.3980869e+53
9.4792053e+51
4.5567454e+53
-1.8108596e+53
9.3154958e+52
9.2306398e+53
2.266974e+53
-6.7478286e+53
4.293316e+53
-5.5252772e+52
-6.3505383e+52
7.1316672e+53
-4.2517069e+53
-4.6656676e+52
-4.6822796e+53
-2.0652523e+53
1.0150282e+53
-2.1110686e+53
-4.4620851e+53
6.208877e+51
-3.2868572e+53
-2.638407e+53
5.5795973e+51
-3.3317768e+52
-1.9332984e+53
-6.7721375e+52
-1.0734485e+53
-8.4932053e+52
5.6281722e+52
1.4051982e+53
2.0826268e+53
1.1196156e+53
1.3498991e+53
1.6939436e+53
1.077134e+53
5.2264309e+53
1.0897091e+53
-1.551049e+53
3.3826162e+53
-3.9236772e+52
4.8114263e+52
3.0477935e+54
1.0197278e+54
1.7865565e+53
-3.6561473e+52
6.5039425e+52
-9.9497495e+52
-1.2684795e+54
-1.6766879e+53
1.9562927e+53
-1.983629e+54
-3.1865537e+53
-1.4418715e+53
-5.6991708e+53
-4.9193172e+53
-6.1831209e+52
9.2980052e+52
-8.0523479e+52
-1.011726e+52
2.9839292e+52
-1.2462404e+53
-4.4395498e+52
1.0964176e+53
2.9397994e+53
1.3836908e+53
2.0460996e+53
6.4323907e+52
1.1375342e+53
4.5286566e+53
2.372993e+53
1.3536587e+52
1.0258575e+54
-1.0315082e+54
8.5688915e+53
1.7097569e+54
-6.3121359e+53
6.3114149e+53
1.760565e+54
-8.6730737e+53
9.4565315e+53
-8.8531282e+53
9.9999301e+53
1.3047438e+54
-1.1019271e+54
6.9405631e+53
1.2147861e+54
-5.753664e+53
1.476016e+54
7.5239422e+53
-8.2405328e+53
9.9254536e+53
1.1707772e+54
-7.5487179e+53
9.583892e+53
1.0802377e+54
-7.0655245e+53
4.9245317e+53
9.0006399e+53
-8.1434345e+53
7.2066176e+53
5.5902992e+53
-1.0643207e+54
3.3592015e+53
3.8073281e+53
-1.1517676e+54
1.138921e+53
1.5752802e+53
-9.5153015e+53
4.517548e+53
2.3335867e+53
-7.7912892e+53
3.2136639e+53
1.4566853e+53
-7.9762146e+53
1.4543822e+53
2.89519e+52
8.4249858e+52
-4.3182095e+53
1.8696969e+53
9.8219503e+52
-2.2899533e+52
-1.1544269e+53
1.1568376e+53
-3.2807924e+53
2.6059396e+53
-2.1626842e+53
-3.5240356e+52
-9.7023924e+52
1.0614052e+53
-1.7448934e+53
7.5473507e+52
-1.5931003e+52
-2.2175525e+53
-1.0108448e+52
-4.2135341e+53
-3.1844239e+53
-1.2931987e+53
-2.1466841e+53
-2.2496466e+53
2.9014815e+52
-2.7617762e+53
-2.3155885e+53
-1.2218577e+53
-2.3518611e+53
-1.0446575e+53
2.8165971e+52
7.0525216e+52
4.308633e+52
5.1560079e+52
-1.8302469e+53
-1.3635012e+53
-3.6326818e+52
-4.6433156e+52
-6.8053722e+52
-4.657993e+52
-4.8413009e+53
-1.1455425e+53
-9.1865202e+52
-3.7011575e+53
-1.4688072e+53
-1.1703186e+53
-2.4776497e+53
-1.035359e+53
-3.377875e+52
-2.6346419e+53
-1.763131e+53
-6.4124999e+52
-3.4740681e+53
-3.565531e+52
-3.9962786e+52
-9.5235811e+52
-2.4220942e+53
-5.0211116e+52
-1.4093633e+53
-1.4848158e+53
2.2815549e+52
-1.6109937e+53
-1.2327189e+54
2.8643646e+53
1.5805843e+53
-1.0331287e+54
2.4463896e+53
2.769069e+53
-1.2781814e+54
-1.4379416e+53
1.9753637e+53
-9.3377483e+53
2.362744e+53
7.3821724e+52
-7.498002e+53
1.6464011e+53
1.3265238e+53
-6.2895629e+53
7.4211643e+52
9.8055121e+52
-9.0948489e+52
-4.4464957e+52
-3.4955776e+52
-5.3516265e+52
-5.5340128e+52
-7.4201473e+52
-3.4396287e+52
-1.3479079e+53
-8.390492e+52
-1.1307321e+54
1.9005942e+53
3.5442822e+53
-1.4316861e+54
5.3974954e+52
1.4071086e+53
-9.8064666e+53
2.1703666e+53
2.873813e+53
-3.0017848e+53
-5.2837846e+52
-8.1189462e+53
1.6664101e+53
7.8003256e+51
-6.5961967e+53
8.6113942e+52
6.0597616e+52
-3.4469782e+53
-3.8635356e+52
-4.9261194e+52
-7.5042629e+52
-2.8375836e+52
-6.1064953e+52
-5.756249e+52
-1.137536e+53
-8.3457342e+52
-4.0260233e+52
-2.0471083e+53
-6.9307589e+52
7.8922211e+53
-3.7927004e+53
2.1136244e+53
2.1442908e+53
7.2578437e+53
-3.5228206e+53
7.0462323e+53
-1.6796815e+53
7.7325849e+51
2.6057845e+53
1.9995697e+52
1.396058e+52
-3.7452526e+53
-4.7928018e+53
1.0779127e+53
-2.5699857e+53
-4.4483704e+53
4.5918648e+52
-2.5675285e+53
-2.580646e+53
-6.9297558e+51
3.7624868e+52
-4.1318576e+53
-1.1772793e+53
-2.135026e+53
-4.5241762e+52
3.7739788e+52
5.3551347e+52
1.9940767e+53
6.4329515e+52
-2.7920224e+52
1.9720307e+53
1.2394166e+53
6.0147882e+53
1.1836311e+53
-1.5158208e+53
4.3566321e+53
-9.9568137e+52
4.0081256e+52
7.0137421e+53
1.1066491e+54
1.3981679e+53
1.4479483e+52
-8.6960654e+52
-2.3412032e+53
-1.3754354e+54
-1.6276567e+53
1.3813459e+53
-1.6856153e+54
-5.9986316e+53
-4.2857641e+52
-3.549605e+53
-4.4602327e+53
-2.6565094e+52
9.780565e+52
-1.6340277e+53
-2.9173503e+52
6.0452719e+52
-2.5864447e+53
-6.1715652e+52
-2.4171717e+52
2.8401801e+53
1.1433981e+53
1.2221168e+53
1.9664234e+53
1.670878e+53
3.8849628e+53
3.8927701e+53
2.3659694e+52
9.385522e+53
-1.2827612e+53
3.1267139e+52
1.7771444e+54
1.6597575e+53
-8.6659663e+53
3.8589754e+53
-2.7415096e+52
8.361664e+52
-2.391851e+54
-2.6660082e+53
-7.1527557e+52
1.39063e+53
-1.501214e+53
-1.5765836e+52
-9.1714616e+53
2.8467261e+53
-1.9051031e+52
-8.4695147e+53
-5.4761465e+53
1.5403436e+52
1.7083605e+53
-9.179442e+52
9.1155647e+50
1.2129647e+53
-1.2095061e+53
-4.136849e+52
-1.0760978e+53
-3.1274995e+52
-6.464983e+52
-1.5776119e+51
1.7692564e+53
7.6179625e+52
5.8257807e+53
2.70844e+53
5.7382191e+52
3.6565183e+53
1.5674438e+53
-8.8321446e+52
-9.5994431e+53
8.6300358e+53
1.0512487e+53
4.4228816e+53
6.3270342e+53
-2.9852246e+53
1.4025831e+54
-7.731393e+53
1.1027052e+54
-7.4876615e+53
-4.7735678e+53
6.392233e+53
-8.7543113e+53
-2.8634441e+52
8.823343e+53
1.5086922e+54
-9.8813994e+53
6.3896631e+53
-7.7541942e+53
9.1564836e+53
1.5117307e+54
-7.5842312e+53
8.9653959e+53
1.1058172e+54
-8.3677974e+53
3.972372e+53
1.0634636e+54
-8.3075706e+53
1.1483333e+54
3.2509859e+53
-1.0336948e+54
6.5648085e+53
1.0260976e+54
-8.3667093e+53
9.9514624e+53
1.0191605e+54
-7.0203728e+53
7.8836844e+53
7.0723065e+53
-5.0939286e+53
5.5651987e+53
1.6145418e+53
-1.4179718e+54
8.6595504e+52
3.6410863e+53
-1.2096448e+54
2.6352298e+53
1.6321215e+53
-1.0728969e+54
3.9136264e+53
4.8089145e+53
-1.2923611e+54
-3.0232946e+53
2.1703593e+53
-9.0718814e+53
4.1854802e+53
1.0958971e+53
-7.5461774e+53
2.4596012e+53
4.9962349e+52
-7.6223238e+53
3.7240159e+52
1.0905403e+53
-1.0356383e+53
-5.9646509e+53
-1.7605003e+53
-2.4290512e+53
-3.955608e+53
2.8269097e+53
-1.0503825e+53
-1.5272318e+53
-1.6910526e+53
-5.7520107e+52
-1.2533405e+53
3.3774075e+52
-2.8937522e+52
-2.3160151e+53
2.0540676e+52
-1.3419099e+53
-2.0566029e+53
1.0542768e+52
-2.2592976e+52
-8.9435786e+52
-3.5461168e+52
-5.772733e+53
-1.5207828e+53
-2.981837e+53
-3.7094944e+53
-2.2264766e+53
-1.3742395e+53
-1.5901071e+53
-1.3101014e+53
-3.3192498e+52
-1.0361505e+53
-1.3239591e+53
-1.0655945e+53
-3.480555e+53
-5.3928708e+52
-5.360794e+52
7.3216396e+52
-6.3343293e+52
-4.7594994e+51
-1.4983175e+53
-8.724683e+52
1.8375213e+52
-1.7970567e+53
-3.3764903e+53
-1.3912424e+53
-9.7712654e+52
-2.4314009e+53
-1.3500838e+53
-5.8961634e+52
-1.6519457e+53
-1.6115825e+53
-1.7342858e+53
-2.6199872e+53
-2.9030008e+52
8.2512591e+51
3.105503e+53
-2.476444e+53
-2.4310151e+53
-1.7233956e+53
1.4495012e+53
-3.1616256e+53
-5.6209656e+52
-2.2578075e+53
-2.6579581e+52
-7.8365628e+52
-3.8756237e+53
2.8521424e+52
-2.1755094e+53
-1.1451395e+54
1.9462789e+53
3.5085353e+53
-1.5859716e+54
1.8174454e+52
1.5036324e+53
-1.0183159e+54
2.4521422e+53
3.0563469e+53
-3.208321e+53
-3.8564212e+52
-8.4879536e+53
2.0605373e+53
6.9311655e+52
-6.9112113e+53
1.2251702e+53
1.1583513e+53
-2.456617e+53
-1.8404034e+52
-2.7045982e+52
-6.4814844e+52
-3.4219516e+52
-6.6303836e+52
-4.4371645e+52
-1.2897259e+53
-9.3210526e+52
-2.6335419e+52
-2.4236598e+53
-7.6001261e+52
-1.4032997e+54
2.2798293e+53
1.4246017e+53
-1.0217804e+54
2.3122679e+53
3.8327981e+53
4.3513942e+52
-2.1704749e+54
8.4397077e+52
-2.4167196e+52
-8.7466232e+53
1.9550846e+53
3.137226e+53
-4.094383e+53
-7.4838276e+53
1.12211e+53
3.2259762e+52
-5.7335799e+53
1.9298918e+52
1.0648895e+51
-1.1177151e+53
-9.5687226e+52
-1.4564179e+53
1.421883e+52
-1.7743668e+53
-5.6777854e+52
-2.2797478e+53
-7.4823742e+52
-3.7518516e+52
-2.1116735e+53
-6.0016261e+52
9.6888062e+53
2.9023107e+53
-3.1111544e+53
7.3256414e+53
-3.4580489e+53
9.2303166e+52
-7.0823842e+53
1.0516643e+54
2.5663803e+52
4.494619e+52
-3.3301294e+53
-1.6900347e+53
-1.2237492e+54
-1.3464533e+53
-4.8319801e+52
-1.4227231e+54
-6.8570016e+53
8.5760799e+52
-2.6728067e+53
-2.9143525e+53
-8.3906664e+51
7.023167e+52
-2.8735973e+53
-1.0518335e+53
1.7171676e+53
-9.609104e+53
-9.541121e+52
-3.688433e+50
1.7820308e+53
3.514029e+52
-1.0271049e+53
3.2366413e+53
1.6277199e+53
1.6431455e+53
8.8311618e+53
-4.8965751e+52
1.2024264e+54
-2.3376823e+53
-1.1304668e+52
3.3634672e+54
3.5139409e+53
-9.8265163e+53
4.7360383e+53
-1.8225207e+53
4.767081e+52
-2.2970797e+54
-1.1564449e+53
-2.0721118e+51
-2.2934136e+53
-2.9122232e+53
-1.7435984e+53
-8.1005859e+53
2.0668909e+53
1.0837236e+53
-5.6581536e+53
-6.8113833e+53
-8.8878305e+52
1.5430641e+53
-1.5320664e+53
-2.0231595e+52
1.3382317e+53
-2.6517303e+53
-3.5173199e+52
-2.2866153e+53
-6.8577668e+52
-6.0329586e+51
-6.4846916e+52
2.3899961e+53
1.3523982e+53
5.233303e+53
5.1035863e+53
1.052484e+53
3.485481e+53
3.3259792e+53
-9.1342457e+52
1.836374e+54
-5.037539e+52
-2.9978799e+53
6.2759274e+53
-1.2824367e+53
5.7051878e+52
-1.444192e+54
9.8528648e+52
-9.9515444e+52
8.2650529e+53
-1.178765e+53
8.7224754e+52
-5.1465128e+54
-7.1185724e+52
-6.8092232e+53
1.3131237e+54
-2.4878106e+53
1.9465846e+52
-2.9701186e+53
7.5701611e+52
-7.3300766e+51
-7.6562134e+52
4.7469238e+53
-1.8686386e+53
-5.7160554e+51
8.6571963e+52
-2.6177376e+52
-1.1818805e+53
-8.9002795e+53
1.7625348e+53
-1.2319821e+52
1.0756186e+54
1.5908839e+52
8.8088461e+52
4.2641232e+53
2.5615531e+53
-9.8891145e+52
-8.3061901e+53
1.5188133e+53
6.9601155e+52
-3.1410906e+53
-8.0630079e+53
4.9919227e+53
-6.843205e+53
8.9344343e+53
1.2980462e+54
-6.7863511e+53
4.2800879e+53
-7.2392849e+53
-1.3668262e+54
-1.0091337e+53
4.5188011e+53
-1.0665823e+54
4.8660481e+53
-5.7234267e+53
1.7553873e+54
-6.8064581e+53
7.6124236e+53
-1.089534e+54
-5.8211073e+51
-6.3468322e+53
8.5992052e+52
-4.8617529e+53
3.0255086e+53
7.2350104e+53
-3.2804115e+53
4.6762989e+53
1.4079501e+54
-1.1932031e+54
3.2603095e+53
-9.388956e+53
1.4693444e+54
4.998395e+53
-4.8300267e+53
9.002822e+53
1.1543222e+54
-2.8764292e+53
7.2685243e+53
3.6181371e+53
-2.0909368e+53
2.1495949e+53
4.9068724e+53
-1.1255524e+54
1.6745994e+53
-8.9832676e+52
-1.2247964e+54
5.5248948e+53
2.0573767e+53
-1.0606494e+54
8.531902e+53
1.1558072e+54
-8.1366541e+53
9.0132769e+53
8.126823e+53
-6.7992512e+53
5.415308e+53
6.4752841e+53
-6.3589051e+53
2.8671681e+53
-3.8579842e+53
-1.7108837e+54
-9.1525615e+53
2.7516239e+53
-1.1217149e+54
2.269544e+53
4.0450749e+53
-1.6590108e+54
-1.6025746e+53
9.4176907e+52
-1.0222085e+54
4.0180864e+53
5.0152424e+53
-6.8161479e+52
-3.029162e+53
-7.9366788e+53
3.3234649e+53
-3.1921662e+52
-6.8683578e+53
1.0969196e+53
-2.6777926e+52
-1.3526739e+52
2.3997019e+52
-1.6967226e+53
-3.9002355e+53
-2.531711e+53
-9.2610136e+53
-1.5375414e+53
-3.7888935e+53
-1.6707534e+53
-2.146776e+53
-2.2375118e+53
4.3677544e+53
-3.8928623e+52
-2.4268494e+53
-2.2269958e+53
-3.529094e+53
-3.1137239e+52
-1.3589727e+53
-9.2553568e+52
1.8594083e+53
-1.6679324e+53
8.3140847e+52
-5.1687032e+52
-9.4333492e+51
-1.264024e+53
-3.6632699e+53
-2.2142096e+53
-1.2459832e+53
-4.9418811e+53
-1.7710001e+53
-1.0510355e+51
-2.5820036e+52
-2.0193615e+53
-2.0725293e+53
-1.5380961e+53
-1.5362365e+52
-1.7995448e+53
2.5556393e+53
-9.6919968e+52
-2.8399332e+53
-2.2883892e+53
1.7534177e+53
-5.38331e+52
-9.8842358e+52
-3.9244621e+53
6.2928746e+52
-3.4480706e+52
-3.9783615e+53
5.394586e+52
-2.6774899e+53
-2.155058e+53
-1.0355088e+53
-1.5189153e+53
-2.0885424e+53
-1.6786361e+53
-1.0229493e+53
-9.0600711e+52
-7.6194741e+52
-5.2021033e+52
-9.3728809e+52
-1.9365256e+53
-2.0063955e+53
-3.3238708e+53
-3.8533767e+52
-1.6285714e+52
6.3566325e+53
-8.7143945e+52
-2.5100755e+53
-1.8191582e+53
-2.1537819e+52
-2.8429593e+53
-7.5115144e+53
5.9068171e+52
-2.4784363e+53
-1.4939642e+54
1.7938023e+53
1.2410305e+53
-1.0518282e+54
2.4290172e+53
3.8321101e+53
2.9742209e+52
-1.9393776e+54
4.8463509e+52
-1.5896588e+53
-8.9782517e+53
2.160715e+53
3.1878573e+53
-3.4803064e+53
-7.4765343e+53
1.3882263e+53
5.2278477e+52
-4.5027685e+53
1.1948714e+52
-3.7609076e+52
-8.5303993e+52
-8.7732606e+52
-1.8116792e+53
3.2303636e+52
-1.9205263e+53
-3.5674539e+52
-2.7552541e+53
-8.1153969e+52
-2.7035581e+52
-2.4048181e+53
-6.6732745e+52
-1.1204028e+54
2.2676464e+53
2.7351848e+53
-1.1850097e+54
1.486848e+53
6.2627754e+52
-8.90394e+53
2.1913767e+53
3.5710984e+53
-1.3856529e+54
1.4277108e+53
1.3085391e+53
-7.204413e+53
1.4093214e+53
3.0236012e+53
-5.9058678e+53
-4.7149461e+51
1.5386383e+51
8.4574082e+52
-3.7159239e+53
-6.145224e+52
-2.8427273e+52
-1.5934439e+53
-3.2577046e+53
-1.7810183e+53
-1.9584623e+53
-4.405229e+52
-2.3304306e+53
-6.3915019e+52
-4.3350792e+52
-2.0166587e+53
-6.3498074e+52
1.7009713e+54
-5.8145497e+53
2.7339799e+52
4.6866736e+54
4.7715893e+53
-1.0597941e+54
5.881171e+53
-4.5247571e+53
9.7256639e+52
-2.4032524e+54
2.2602835e+52
-2.5409151e+52
-6.6944307e+53
-3.4459751e+53
-7.0003778e+52
1.277282e+53
-2.4774764e+52
-7.8313127e+53
-4.0759046e+53
9.2157431e+52
-4.5605639e+53
4.1828838e+52
-1.6311421e+53
-2.0158995e+52
1.1790969e+53
-8.5621806e+53
-1.9396368e+53
3.5059204e+52
-1.7248088e+54
3.2002969e+53
-1.2262325e+53
3.1615138e+53
1.0042107e+53
1.2825262e+53
1.3701432e+54
7.0801123e+52
-5.272219e+52
9.7518008e+53
-2.5062845e+53
2.3097263e+54
-1.0406882e+53
-2.5165154e+53
6.7899488e+53
-2.4737402e+53
2.422214e+51
-2.3560571e+54
-1.2055047e+53
-6.5876967e+52
7.7433696e+53
-2.9057152e+53
9.9192958e+52
-4.3385089e+54
-4.0651062e+52
-5.6273426e+53
8.1710794e+53
-3.5530899e+53
-4.1715382e+51
-1.6034753e+53
2.1070169e+53
-4.5438634e+51
-2.4487095e+53
4.6626908e+53
-2.2253444e+53
-5.4448043e+52
-8.9623154e+52
1.1821439e+53
-4.5771693e+52
-9.5763376e+53
7.1259938e+52
2.2598289e+52
1.3043333e+54
1.3488934e+53
2.8198293e+53
3.2487751e+53
6.4690949e+53
-1.0753781e+53
-9.5572681e+53
-2.8370188e+52
4.1382236e+52
9.793259e+53
-1.3839711e+53
-6.8489118e+52
5.9754615e+52
1.7138415e+53
1.087069e+53
1.5633694e+54
-1.9760981e+53
-8.7524338e+52
-4.5565833e+54
2.6895113e+53
-5.6380561e+53
4.2516207e+53
4.0416057e+51
9.1767576e+52
8.2725579e+52
-1.2353826e+54
1.9588588e+53
-2.3158024e+53
9.6162084e+52
1.3783055e+54
-8.0966568e+52
1.1480942e+53
3.8303677e+53
4.4572512e+53
4.2419124e+53
2.1275614e+53
-3.7609566e+53
-1.6346416e+54
1.0300995e+53
-6.1120748e+52
-1.6378917e+54
-3.4387489e+53
-2.6826909e+52
2.0103765e+54
-1.8183601e+53
-5.2467883e+53
-7.1074749e+53
2.8207823e+53
3.7027277e+52
4.4590504e+53
-3.999077e+53
7.885342e+51
-1.3609913e+54
-2.6384622e+53
9.0395926e+52
-4.677211e+53
-1.5839104e+54
1.7667101e+53
-6.6543674e+53
-1.1362854e+54
2.4976835e+53
-6.6513587e+52
6.239548e+53
1.6083898e+54
-6.9206319e+52
6.4355471e+53
8.6405862e+53
-5.153634e+53
-2.2797267e+53
-4.0436766e+53
3.4082582e+53
5.5275558e+53
-4.2189216e+53
7.5786687e+53
-4.1710491e+53
1.5398137e+53
-1.0607066e+54
8.4640415e+52
-7.2474417e+53
1.8581392e+54
-1.1091427e+54
4.813033e+53