/*--------------------------------*- C++ -*----------------------------------*\
  =========                 |
  \\      /  F ield         | OpenFOAM: The Open Source CFD Toolbox
   \\    /   O peration     | Website:  https://openfoam.org
    \\  /    A nd           | Version:  7
     \\/     M anipulation  |
\*---------------------------------------------------------------------------*/
FoamFile
{
    version     2.0;
    format      ascii;
    class       volScalarField;
    location    "10000";
    object      pMean;
}
// * * * * * * * * * * * * * * * * * * * * * * * * * * * * * * * * * * * * * //

dimensions      [0 2 -2 0 0 0 0];

internalField   nonuniform List<scalar> 
34124
(
-7.742278e+113
-1.0558207e+114
-6.6384997e+113
-7.4776573e+113
-1.1962675e+114
-1.0613674e+114
-1.1109879e+114
-9.9776271e+113
-7.8150747e+113
-7.6167e+113
-1.3260817e+114
-1.2295624e+114
-1.2334512e+114
-1.222963e+114
-1.1485742e+114
-1.1702134e+114
-1.1438706e+114
-1.0820946e+114
-7.5950501e+113
-9.5979374e+113
-1.32657e+114
-1.3254717e+114
-1.4072065e+114
-1.2749165e+114
-1.2540334e+114
-1.2719585e+114
-1.2935974e+114
-1.2208937e+114
-1.102406e+114
-1.2719381e+114
-1.2098059e+114
-1.2835221e+114
-1.0387697e+114
-1.0929409e+114
-1.2329924e+114
-1.3358385e+114
-1.3225436e+114
-1.4105851e+114
-1.3286611e+114
-1.4058596e+114
-1.4721881e+114
-1.3188893e+114
-1.2849352e+114
-1.2697677e+114
-1.3521529e+114
-1.3241748e+114
-1.425199e+114
-1.1752704e+114
-1.2938879e+114
-1.3094897e+114
-1.1660436e+114
-1.3220222e+114
-1.2896038e+114
-1.2112014e+114
-1.2481127e+114
-8.0386654e+113
-1.3346038e+114
-1.3989696e+114
-1.4170512e+114
-1.3290899e+114
-1.4078959e+114
-1.4764255e+114
-1.3482234e+114
-1.4134078e+114
-1.4720191e+114
-1.5184638e+114
-1.3270946e+114
-1.3573198e+114
-1.2997049e+114
-1.3561063e+114
-1.3075067e+114
-1.2696012e+114
-1.403135e+114
-1.4088627e+114
-1.3361351e+114
-1.3164427e+114
-1.0024474e+114
-1.2772237e+114
-1.315141e+114
-1.2995366e+114
-1.7359851e+114
-1.228844e+114
-8.804032e+113
-8.506692e+113
-1.3435393e+114
-1.4020141e+114
-1.4176631e+114
-1.3392352e+114
-1.45512e+114
-1.4826199e+114
-1.3579912e+114
-1.4147772e+114
-1.4771933e+114
-1.520134e+114
-1.3433475e+114
-1.421578e+114
-1.4760306e+114
-1.5197873e+114
-1.5573066e+114
-1.3100146e+114
-1.3644394e+114
-1.4279636e+114
-1.3640586e+114
-1.3044052e+114
-1.1336557e+114
-1.3582804e+114
-1.3282534e+114
-1.466048e+114
-1.8519777e+114
-1.3284735e+114
-1.0638244e+114
-1.1422593e+114
-1.2365376e+114
-1.2358707e+114
-1.347155e+114
-1.9300405e+114
-1.6624152e+114
-8.720152e+113
-1.0675764e+114
-1.1104982e+114
-1.3744829e+114
-1.4070904e+114
-1.4269449e+114
-1.3468728e+114
-1.4622156e+114
-1.4850885e+114
-1.4348416e+114
-1.3346977e+114
-1.497978e+114
-1.5249741e+114
-1.3585055e+114
-1.4251845e+114
-1.4818878e+114
-1.5209608e+114
-1.5567239e+114
-1.4546979e+114
-1.4189878e+114
-1.4890241e+114
-1.5222634e+114
-1.5577798e+114
-1.6167569e+114
-1.3559684e+114
-1.3476748e+114
-1.4582053e+114
-1.7190449e+114
-1.3073143e+114
-1.1594613e+114
-1.286036e+114
-1.3514623e+114
-1.3086277e+114
-1.4766751e+114
-1.9236081e+114
-1.8194083e+114
-1.108869e+114
-1.3739948e+114
-1.3831265e+114
-1.3694567e+114
-1.407592e+114
-1.4884185e+114
-2.0289644e+114
-1.613322e+114
-2.3815837e+114
-1.1024595e+114
-1.1367629e+114
-2.0641581e+114
-1.3922612e+114
-1.3807935e+114
-1.4385058e+114
-1.3575532e+114
-1.4728803e+114
-1.4923545e+114
-1.4442148e+114
-1.346204e+114
-1.5025022e+114
-1.5255256e+114
-1.4536463e+114
-1.5038002e+114
-1.4396877e+114
-1.5335532e+114
-1.557672e+114
-1.4684684e+114
-1.4269835e+114
-1.4885469e+114
-1.5236113e+114
-1.5572161e+114
-1.6146472e+114
-1.5652138e+114
-1.5041399e+114
-1.5066694e+114
-1.526023e+114
-1.5572489e+114
-1.6177604e+114
-1.7120179e+114
-1.3436289e+114
-1.3435118e+114
-1.4735806e+114
-1.7552844e+114
-1.7116766e+114
-1.2039005e+114
-1.3516819e+114
-1.4583449e+114
-1.6012282e+114
-1.6196853e+114
-1.5610069e+114
-1.9572608e+114
-1.6814849e+114
-2.4121197e+114
-1.3437016e+114
-1.382632e+114
-2.7149773e+114
-1.3974659e+114
-1.453428e+114
-1.4925276e+114
-1.9720675e+114
-1.5977429e+114
-2.019365e+114
-1.7034775e+114
-1.2306096e+114
-1.7989134e+114
-1.7809366e+114
-1.378289e+114
-1.4585563e+114
-1.3853181e+114
-1.4825439e+114
-1.441869e+114
-1.4997302e+114
-1.4580795e+114
-1.3814206e+114
-1.5129023e+114
-1.5293703e+114
-1.4705771e+114
-1.5105613e+114
-1.4490172e+114
-1.5359914e+114
-1.5587637e+114
-1.5085768e+114
-1.4791718e+114
-1.5532824e+114
-1.5853814e+114
-1.5564293e+114
-1.6109358e+114
-1.5874604e+114
-1.5126533e+114
-1.5081999e+114
-1.5269898e+114
-1.5576015e+114
-1.616422e+114
-1.7068084e+114
-1.5341711e+114
-1.6086503e+114
-1.5365264e+114
-1.5506291e+114
-1.5568833e+114
-1.6196272e+114
-1.7085725e+114
-1.7618965e+114
-1.5538846e+114
-1.4767522e+114
-1.5240897e+114
-1.7317513e+114
-1.6817283e+114
-1.7797725e+114
-1.3628822e+114
-1.4692892e+114
-2.3331037e+114
-1.6363271e+114
-1.5715149e+114
-1.5983713e+114
-2.0968896e+114
-1.6993301e+114
-2.0419008e+114
-1.8251796e+114
-1.5126302e+114
-2.0437899e+114
-1.9708438e+114
-1.5053607e+114
-1.5074574e+114
-1.4591658e+114
-1.168339e+114
-1.7404945e+114
-1.7344476e+114
-1.7488208e+114
-1.5946168e+114
-1.9063487e+114
-2.0166119e+114
-2.527276e+114
-1.4179599e+114
-1.4641302e+114
-1.4566455e+114
-1.4677598e+114
-1.5125289e+114
-1.5056903e+114
-1.5829678e+114
-1.5259147e+114
-1.5174136e+114
-1.5382698e+114
-1.4994903e+114
-1.5249793e+114
-1.4558101e+114
-1.5419554e+114
-1.5598807e+114
-1.5173548e+114
-1.4926178e+114
-1.5571319e+114
-1.6038212e+114
-1.5598704e+114
-1.6141416e+114
-1.5130082e+114
-1.5545792e+114
-1.5687382e+114
-1.5790568e+114
-1.917701e+114
-1.6153499e+114
-1.692731e+114
-1.5489421e+114
-1.604428e+114
-1.5410097e+114
-1.5558996e+114
-1.5597362e+114
-1.619601e+114
-1.7034581e+114
-1.7631399e+114
-1.5630387e+114
-1.5851743e+114
-1.5185482e+114
-1.5851946e+114
-1.5796978e+114
-1.6302468e+114
-1.7009749e+114
-1.7642733e+114
-1.7168388e+114
-1.5340005e+114
-1.4087706e+114
-1.5220145e+114
-1.7278564e+114
-1.667601e+114
-1.785208e+114
-1.7137866e+114
-1.555497e+114
-2.1064097e+114
-2.0160418e+114
-1.8013692e+114
-1.4921486e+114
-1.5995781e+114
-1.3824333e+114
-1.8065009e+114
-1.844407e+114
-1.8269856e+114
-1.8756769e+114
-2.0568159e+114
-2.101412e+114
-2.3077089e+114
-1.8347917e+114
-1.5401196e+114
-1.1762346e+114
-1.1252577e+114
-1.7808537e+114
-1.4947474e+114
-1.7876779e+114
-1.7667404e+114
-1.219045e+114
-1.8754256e+114
-2.38013e+114
-4.4011612e+114
-1.5026981e+114
-1.4997822e+114
-1.4578706e+114
-1.4988701e+114
-1.5328555e+114
-1.4343596e+114
-1.5487207e+114
-1.5464732e+114
-1.5525399e+114
-1.560936e+114
-1.5677954e+114
-1.6036442e+114
-1.5600343e+114
-1.5695938e+114
-1.5682311e+114
-1.5339518e+114
-1.5116289e+114
-1.5655539e+114
-1.6516482e+114
-1.5643407e+114
-1.6200562e+114
-1.5203442e+114
-1.5583546e+114
-1.5854576e+114
-1.5844079e+114
-1.8980929e+114
-1.6232025e+114
-1.6912259e+114
-1.5641597e+114
-1.544867e+114
-1.5851083e+114
-1.7071674e+114
-1.6291818e+114
-2.0607371e+114
-1.6797252e+114
-1.7578006e+114
-1.5589744e+114
-1.5985891e+114
-1.5936163e+114
-1.592422e+114
-1.5858864e+114
-1.6339901e+114
-1.6955245e+114
-1.7642055e+114
-1.7250434e+114
-1.5842273e+114
-1.577959e+114
-1.6529955e+114
-1.6933502e+114
-1.6128326e+114
-1.6252974e+114
-1.6901647e+114
-1.7704292e+114
-1.7239671e+114
-1.6353779e+114
-1.6139493e+114
-1.4477287e+114
-1.5024548e+114
-1.5299076e+114
-1.7539485e+114
-1.7406231e+114
-1.738395e+114
-1.8075364e+114
-2.0535003e+114
-2.0666822e+114
-1.9006788e+114
-1.895907e+114
-1.693044e+114
-1.6459498e+114
-1.3508201e+114
-1.9292264e+114
-1.6150817e+114
-1.8566945e+114
-1.9437812e+114
-1.737762e+114
-2.0670611e+114
-2.246631e+114
-3.1056208e+114
-1.8663625e+114
-1.6950652e+114
-1.3325171e+114
-1.7482561e+114
-1.6044772e+114
-2.1126045e+114
-1.6872417e+114
-1.9199207e+114
-1.4368741e+114
-2.1962095e+114
-2.3648969e+114
-3.9176371e+114
-1.8443594e+114
-1.5416051e+114
-1.5436015e+114
-1.5236565e+114
-1.6790116e+114
-1.5126793e+114
-1.5544767e+114
-1.5114509e+114
-1.565808e+114
-1.5807202e+114
-1.4903276e+114
-1.5762937e+114
-1.5861218e+114
-1.600696e+114
-1.5885368e+114
-1.6415177e+114
-1.5526719e+114
-1.6121904e+114
-1.6569333e+114
-1.608565e+114
-1.6013568e+114
-1.6446995e+114
-1.5359799e+114
-1.5622921e+114
-1.6102029e+114
-1.590294e+114
-1.8823502e+114
-1.638746e+114
-1.6867047e+114
-1.5686693e+114
-1.5516306e+114
-1.5881313e+114
-1.7089837e+114
-1.6322534e+114
-2.0484451e+114
-1.683661e+114
-1.7506153e+114
-1.5777859e+114
-1.6084963e+114
-1.6086467e+114
-1.6340949e+114
-1.7415666e+114
-1.7313349e+114
-1.9581106e+114
-1.7177678e+114
-1.7383221e+114
-1.5832028e+114
-1.5998224e+114
-1.6590407e+114
-1.7452514e+114
-1.6198347e+114
-1.6280209e+114
-1.6842716e+114
-1.7661362e+114
-1.7319468e+114
-1.6370823e+114
-1.6196882e+114
-1.614757e+114
-1.6874853e+114
-1.6481296e+114
-1.8090436e+114
-1.6557984e+114
-1.6886463e+114
-1.7698828e+114
-1.7424422e+114
-1.6376886e+114
-1.5811106e+114
-1.7252714e+114
-1.6362611e+114
-1.7452351e+114
-1.516556e+114
-1.8605949e+114
-1.5928341e+114
-1.7739105e+114
-1.8004459e+114
-1.7277845e+114
-2.0879046e+114
-1.9074635e+114
-1.8918988e+114
-1.93573e+114
-1.7733586e+114
-1.5526422e+114
-2.0194348e+114
-1.774871e+114
-2.2127279e+114
-1.8492279e+114
-1.8982895e+114
-1.9058806e+114
-2.5830208e+114
-2.2937543e+114
-2.9269861e+114
-1.7499858e+114
-1.9124065e+114
-1.6525463e+114
-1.6539131e+114
-1.6366414e+114
-2.3511023e+114
-1.9438727e+114
-2.7725877e+114
-1.7382389e+114
-1.631803e+114
-2.1939784e+114
-2.0639153e+114
-1.9891588e+114
-1.8624566e+114
-9.7673011e+113
-1.5785906e+114
-1.6009523e+114
-1.5691513e+114
-1.5904442e+114
-1.6311208e+114
-1.5766244e+114
-1.8002071e+114
-1.7165236e+114
-1.5883862e+114
-1.5945233e+114
-1.5629363e+114
-1.5776421e+114
-1.6110099e+114
-1.6099059e+114
-1.6426726e+114
-1.5661128e+114
-1.6025574e+114
-1.6321018e+114
-1.6301964e+114
-1.6920285e+114
-1.6933154e+114
-1.5783882e+114
-1.6158105e+114
-1.6521504e+114
-1.8082465e+114
-1.6356811e+114
-1.6379682e+114
-1.6863394e+114
-1.5746762e+114
-1.5644095e+114
-1.5893788e+114
-1.7045825e+114
-1.6362865e+114
-2.0875254e+114
-1.6871628e+114
-1.7394971e+114
-1.5810344e+114
-1.6135314e+114
-1.6077936e+114
-1.6353452e+114
-1.7396077e+114
-1.7229386e+114
-1.9746959e+114
-1.7050752e+114
-1.744066e+114
-1.5971588e+114
-1.6058402e+114
-1.6654653e+114
-1.6165821e+114
-1.7107544e+114
-1.624501e+114
-1.7754244e+114
-1.6352987e+114
-1.6231905e+114
-1.6153397e+114
-1.663846e+114
-1.6503276e+114
-1.8174015e+114
-1.6585311e+114
-1.6871048e+114
-1.7521294e+114
-1.7513085e+114
-1.6400421e+114
-1.5808335e+114
-1.6496494e+114
-1.5889496e+114
-1.6196209e+114
-1.6566384e+114
-1.664148e+114
-1.7271311e+114
-1.7917333e+114
-1.7819345e+114
-1.6386995e+114
-1.5799687e+114
-1.5576704e+114
-1.7456544e+114
-1.7148338e+114
-1.5830613e+114
-1.9150196e+114
-1.7711792e+114
-2.1423507e+114
-1.8384385e+114
-1.7833616e+114
-1.7107211e+114
-2.1575741e+114
-1.948093e+114
-1.8690803e+114
-1.4595078e+114
-2.1595706e+114
-2.0447871e+114
-1.9023967e+114
-1.9511308e+114
-2.6714615e+114
-1.8888418e+114
-2.5361519e+114
-1.8846389e+114
-1.7849475e+114
-2.2893714e+114
-2.1812493e+114
-1.9885152e+114
-1.7111168e+114
-1.1578169e+114
-2.1385327e+114
-1.9248378e+114
-1.6558738e+114
-1.9596202e+114
-2.1957379e+114
-1.6636949e+114
-2.24146e+114
-2.3377391e+114
-1.8938082e+114
-2.4157815e+114
-2.1863176e+114
-1.6855787e+114
-1.7100725e+114
-9.3995632e+113
-1.8919729e+114
-1.5820633e+114
-1.6112382e+114
-1.6614107e+114
-1.6109362e+114
-1.6255008e+114
-1.6155163e+114
-1.6591479e+114
-1.5737378e+114
-1.6673451e+114
-1.6033609e+114
-1.7856782e+114
-2.0435683e+114
-1.6308132e+114
-1.6642679e+114
-1.6950698e+114
-1.6529163e+114
-1.633696e+114
-1.64214e+114
-1.6107213e+114
-1.6453835e+114
-1.7116034e+114
-1.5998934e+114
-1.6899559e+114
-1.6269921e+114
-1.6702576e+114
-1.6518037e+114
-1.7106941e+114
-1.8137977e+114
-1.6345001e+114
-1.617766e+114
-1.6200836e+114
-1.6535475e+114
-1.8055752e+114
-1.8675737e+114
-1.6714497e+114
-1.6932344e+114
-1.7190184e+114
-1.6926428e+114
-1.5845552e+114
-1.6193485e+114
-1.6126187e+114
-1.6417338e+114
-1.7374736e+114
-1.7182931e+114
-2.0300662e+114
-2.1426574e+114
-1.6911058e+114
-1.6911304e+114
-1.7555568e+114
-1.5992746e+114
-1.6115976e+114
-1.6691159e+114
-1.629032e+114
-1.7047899e+114
-1.6287824e+114
-1.7763231e+114
-1.6400384e+114
-1.6278682e+114
-1.6546895e+114
-1.6666154e+114
-1.6927903e+114
-1.5986528e+114
-1.7684907e+114
-1.5168088e+114
-1.6608131e+114
-1.5796485e+114
-1.6554767e+114
-1.5941316e+114
-1.6212933e+114
-1.6361275e+114
-1.6642255e+114
-1.7258119e+114
-1.7880549e+114
-1.7792003e+114
-1.6424592e+114
-1.5796261e+114
-1.5577251e+114
-1.6497877e+114
-1.6434141e+114
-1.6975882e+114
-1.6559187e+114
-1.9528706e+114
-1.6887514e+114
-1.7917593e+114
-1.6728667e+114
-1.5779174e+114
-1.556572e+114
-1.5362159e+114
-1.9784374e+114
-1.9991819e+114
-1.9171799e+114
-1.9149836e+114
-2.3314467e+114
-1.7845786e+114
-2.0246419e+114
-2.1776127e+114
-1.8312677e+114
-1.8786736e+114
-1.7023777e+114
-2.0937251e+114
-2.1672516e+114
-1.6902968e+114
-1.472844e+114
-1.3528995e+114
-2.3710301e+114
-2.0143947e+114
-2.0553292e+114
-2.4436921e+114
-2.3466264e+114
-1.7511528e+114
-2.1811654e+114
-2.2573556e+114
-2.0643824e+114
-2.5041287e+114
-2.361824e+114
-1.8920211e+114
-1.684828e+114
-1.1040958e+114
-1.9368589e+114
-2.330528e+114
-1.9107895e+114
-2.3254961e+114
-2.2418032e+114
-1.6936304e+114
-2.024804e+114
-1.4599186e+114
-2.1804698e+114
-3.6048725e+114
-1.6738403e+114
-1.8585003e+114
-7.6414785e+113
-1.8716276e+114
-2.8529315e+114
-1.5968075e+114
-1.6226437e+114
-1.6479849e+114
-1.6467547e+114
-1.6666868e+114
-1.6414356e+114
-1.6258538e+114
-1.6403034e+114
-1.6166825e+114
-1.6681911e+114
-1.6789546e+114
-1.5760126e+114
-1.6626518e+114
-1.6773338e+114
-1.6996213e+114
-1.7844254e+114
-1.9398058e+114
-1.9653721e+114
-1.8764596e+114
-1.7012865e+114
-1.8684138e+114
-1.7227098e+114
-1.6778423e+114
-1.668566e+114
-1.6427799e+114
-1.6593006e+114
-1.7158414e+114
-1.7290543e+114
-1.8084635e+114
-1.59887e+114
-1.7054625e+114
-1.5748695e+114
-1.6618347e+114
-1.6970453e+114
-1.7092374e+114
-1.7345674e+114
-1.7254677e+114
-1.8859902e+114
-1.8293671e+114
-1.6695733e+114
-1.6125678e+114
-1.62296e+114
-1.6563715e+114
-1.6742185e+114
-1.8165457e+114
-1.7295613e+114
-1.7717851e+114
-1.7458734e+114
-1.7007976e+114
-1.604293e+114
-1.6287944e+114
-1.6778079e+114
-1.6451791e+114
-1.706068e+114
-1.5508601e+114
-1.7804665e+114
-2.0652335e+114
-1.7082669e+114
-1.6511798e+114
-1.639489e+114
-1.6564181e+114
-1.6764194e+114
-1.6919937e+114
-1.6117398e+114
-1.7672135e+114
-1.5151757e+114
-1.668537e+114
-1.578113e+114
-1.6930387e+114
-1.6822863e+114
-1.6965406e+114
-1.6486428e+114
-1.7492982e+114
-1.5632714e+114
-1.504114e+114
-1.56438e+114
-1.7075412e+114
-1.5579087e+114
-1.6650412e+114
-1.6477057e+114
-1.7019719e+114
-1.6540628e+114
-1.9412934e+114
-1.683186e+114
-1.7874936e+114
-1.6785491e+114
-1.5768476e+114
-1.5564127e+114
-1.5367024e+114
-1.6950578e+114
-1.7276876e+114
-1.6964014e+114
-1.660096e+114
-2.156549e+114
-1.8755682e+114
-1.7281642e+114
-1.6655151e+114
-1.5591195e+114
-1.5556366e+114
-1.5351834e+114
-1.5246934e+114
-2.1276403e+114
-1.9303849e+114
-2.0087776e+114
-2.3265741e+114
-2.108933e+114
-1.6884098e+114
-1.7211502e+114
-1.7921007e+114
-2.0635919e+114
-1.8324456e+114
-1.8520398e+114
-2.0459634e+114
-2.1894446e+114
-2.0365188e+114
-1.4096369e+114
-1.3628967e+114
-1.5852039e+114
-2.1845881e+114
-2.124386e+114
-2.3140865e+114
-2.5725695e+114
-1.8222555e+114
-2.3028857e+114
-1.8181578e+114
-2.3021418e+114
-3.2953504e+114
-1.8674715e+114
-2.0700835e+114
-1.1734513e+114
-1.894582e+114
-2.7192392e+114
-2.5086018e+114
-2.2142009e+114
-2.6870655e+114
-2.1024268e+114
-2.1404862e+114
-1.4798115e+114
-1.3484965e+114
-2.7867461e+114
-2.2694786e+114
-1.3554327e+114
-1.8948881e+114
-1.0018176e+114
-1.0325932e+114
-2.4939652e+114
-1.220636e+114
-1.6307748e+114
-1.6589164e+114
-1.6670347e+114
-1.6663986e+114
-1.6425415e+114
-1.6823187e+114
-1.6610679e+114
-1.6894668e+114
-1.6743683e+114
-1.6391091e+114
-1.6718724e+114
-1.6468747e+114
-1.7322418e+114
-1.5815148e+114
-1.664701e+114
-1.6042913e+114
-1.8529273e+114
-1.6309804e+114
-1.7675344e+114
-1.7883818e+114
-1.7862863e+114
-1.7909056e+114
-1.8506447e+114
-1.8687886e+114
-1.653369e+114
-1.6603307e+114
-1.6970958e+114
-1.7188523e+114
-1.9217115e+114
-1.6989465e+114
-1.7258402e+114
-1.7367517e+114
-1.685872e+114
-1.7385559e+114
-1.6911929e+114
-1.6035613e+114
-1.6649209e+114
-1.7200674e+114
-1.9059733e+114
-1.6883678e+114
-1.6606051e+114
-1.7712355e+114
-1.6546004e+114
-1.9348124e+114
-1.6790451e+114
-1.7707002e+114
-1.6904466e+114
-1.6556877e+114
-1.6640837e+114
-1.6898907e+114
-1.7011115e+114
-1.62079e+114
-1.767818e+114
-1.4569622e+114
-1.6866028e+114
-1.5731463e+114
-1.7024952e+114
-1.6885154e+114
-1.6978602e+114
-1.6540279e+114
-1.7449335e+114
-1.5659648e+114
-1.5124363e+114
-1.5632182e+114
-1.7113406e+114
-1.5563259e+114
-1.720831e+114
-1.7413342e+114
-1.6669278e+114
-1.7409968e+114
-1.6485712e+114
-1.5801545e+114
-1.4310091e+114
-1.5568152e+114
-1.5917161e+114
-1.7125521e+114
-1.5361071e+114
-1.7007208e+114
-1.7320913e+114
-1.6972036e+114
-1.6522182e+114
-2.1389767e+114
-1.867363e+114
-1.7227708e+114
-1.6699522e+114
-1.5599578e+114
-1.5549285e+114
-1.5354847e+114
-1.5252218e+114
-1.7588066e+114
-1.7402684e+114
-1.6736503e+114
-1.7061347e+114
-1.9043095e+114
-1.9299964e+114
-1.7234387e+114
-1.6929482e+114
-1.5684141e+114
-1.5550553e+114
-1.5341683e+114
-1.5240209e+114
-1.5129594e+114
-1.9167663e+114
-2.0399988e+114
-2.088853e+114
-2.3468648e+114
-1.7612176e+114
-2.1264944e+114
-1.722346e+114
-2.0431653e+114
-2.1224601e+114
-2.0350524e+114
-1.8505952e+114
-1.4303729e+114
-1.5843491e+114
-1.6668281e+114
-2.3610109e+114
-2.2703694e+114
-2.8824165e+114
-2.3200899e+114
-2.4051483e+114
-2.0829995e+114
-1.6497292e+114
-3.2621684e+114
-2.4692552e+114
-1.7970275e+114
-2.0358346e+114
-1.4237385e+114
-1.4739343e+114
-2.310614e+114
-1.3298703e+114
-2.8891841e+114
-3.2909429e+114
-2.3528934e+114
-2.0923172e+114
-1.602916e+114
-9.6362593e+113
-3.8261845e+114
-1.9086527e+114
-2.252801e+114
-1.6565729e+114
-1.9205224e+114
-1.2819442e+114
-1.436229e+114
-1.9329008e+114
-1.2552233e+114
-1.5923776e+114
-1.6949816e+114
-1.6849843e+114
-1.6544407e+114
-1.7010777e+114
-1.7153727e+114
-1.6834255e+114
-1.7216792e+114
-1.6677692e+114
-1.7066708e+114
-1.7025258e+114
-1.6684933e+114
-1.6654274e+114
-1.6559632e+114
-1.5835625e+114
-1.6401454e+114
-1.6825486e+114
-1.7013346e+114
-1.6048048e+114
-1.677101e+114
-1.6778281e+114
-1.7147548e+114
-1.857335e+114
-1.8290819e+114
-1.7118357e+114
-1.7255398e+114
-1.8940391e+114
-1.9746966e+114
-1.6594638e+114
-1.8141142e+114
-1.7000821e+114
-1.6850979e+114
-1.6240655e+114
-1.7362996e+114
-1.7622526e+114
-1.6745122e+114
-1.8806769e+114
-2.0253417e+114
-1.7064397e+114
-1.7525779e+114
-1.7065382e+114
-1.6294716e+114
-1.6503607e+114
-1.5940782e+114
-1.6497324e+114
-1.6851334e+114
-1.6670096e+114
-1.7155937e+114
-1.766935e+114
-1.7025297e+114
-1.6564227e+114
-1.8681531e+114
-1.8426111e+114
-1.7133366e+114
-1.6767881e+114
-1.5664717e+114
-1.7186154e+114
-1.693213e+114
-1.7109214e+114
-1.6483913e+114
-1.7444698e+114
-1.5678938e+114
-1.5484081e+114
-1.5604551e+114
-1.7110576e+114
-1.5538003e+114
-1.7268151e+114
-1.7432251e+114
-1.6730431e+114
-1.7436163e+114
-1.6504776e+114
-1.5865373e+114
-1.4400859e+114
-1.5554875e+114
-1.5898338e+114
-1.7129843e+114
-1.5348452e+114
-1.7169286e+114
-1.7049002e+114
-1.7685718e+114
-1.7083576e+114
-1.6615211e+114
-1.6367443e+114
-1.5014248e+114
-1.5499557e+114
-1.5380907e+114
-1.5649223e+114
-1.5732197e+114
-1.7473348e+114
-1.5230754e+114
-1.7600933e+114
-1.741555e+114
-1.6703689e+114
-1.7036307e+114
-1.8964619e+114
-1.9147436e+114
-1.7228156e+114
-1.6946319e+114
-1.5674014e+114
-1.5544504e+114
-1.5340899e+114
-1.5245442e+114
-1.514057e+114
-1.7478547e+114
-1.7059721e+114
-1.7265951e+114
-1.9961587e+114
-1.8957521e+114
-1.7506099e+114
-1.7047061e+114
-1.6964494e+114
-1.7367868e+114
-1.5786245e+114
-1.5538698e+114
-1.534182e+114
-1.5208147e+114
-1.5127396e+114
-1.4838844e+114
-2.0464866e+114
-1.9991082e+114
-2.5244341e+114
-1.879832e+114
-2.2054974e+114
-1.8850118e+114
-1.6906607e+114
-2.4388272e+114
-1.9269328e+114
-1.9661658e+114
-1.8580536e+114
-1.9431346e+114
-1.4459515e+114
-1.5865053e+114
-1.2565099e+114
-2.8087937e+114
-3.1464315e+114
-2.3988664e+114
-2.2771685e+114
-2.31167e+114
-1.2278773e+114
-3.8422083e+114
-2.5023707e+114
-2.3228778e+114
-1.9211364e+114
-1.9408972e+114
-1.6197689e+114
-1.709314e+114
-1.8546977e+114
-1.3210231e+114
-1.7137761e+114
-3.0117017e+114
-2.3812781e+114
-2.3121761e+114
-1.1898625e+114
-2.6265996e+114
-1.3083082e+114
-2.5849238e+114
-2.7358296e+114
-2.3834865e+114
-1.8625015e+114
-2.4991576e+114
-1.7080993e+114
-1.542262e+114
-1.5965243e+114
-1.7842877e+114
-1.2517092e+114
-1.7970786e+114
-1.8884543e+114
-1.7360946e+114
-1.6171386e+114
-1.8198917e+114
-1.4681934e+114
-1.6432237e+114
-1.6553217e+114
-1.5791786e+114
-1.6988016e+114
-1.7187513e+114
-1.7438243e+114
-1.6244105e+114
-1.625222e+114
-1.676574e+114
-1.6085901e+114
-1.8081554e+114
-2.0680424e+114
-2.0928105e+114
-1.9198188e+114
-1.7985524e+114
-1.9022129e+114
-1.659318e+114
-1.6752152e+114
-1.727348e+114
-1.6077848e+114
-1.6724934e+114
-1.7397095e+114
-1.7026204e+114
-1.689457e+114
-1.6971749e+114
-1.7864159e+114
-1.6870986e+114
-2.0810526e+114
-1.9908744e+114
-1.7583475e+114
-1.5834587e+114
-1.5957959e+114
-1.5799506e+114
-1.5652425e+114
-1.7118118e+114
-1.7470236e+114
-1.67411e+114
-1.9097786e+114
-1.793552e+114
-1.731323e+114
-1.6909301e+114
-1.5634869e+114
-1.55549e+114
-1.7337548e+114
-1.7433483e+114
-1.6528901e+114
-1.6001506e+114
-1.3983164e+114
-1.5555535e+114
-1.5825237e+114
-1.6960989e+114
-1.5333941e+114
-1.7145975e+114
-1.7062753e+114
-1.7677944e+114
-1.7062665e+114
-1.6610462e+114
-1.638671e+114
-1.5035454e+114
-1.5646383e+114
-1.5366769e+114
-1.5637545e+114
-1.570957e+114
-1.7425679e+114
-1.5222317e+114
-1.6029798e+114
-1.6655627e+114
-1.6039145e+114
-1.6464471e+114
-1.7196777e+114
-1.5307017e+114
-1.5348123e+114
-1.5483301e+114
-1.5178068e+114
-1.7465757e+114
-1.7011129e+114
-1.7238954e+114
-2.0122015e+114
-1.8933245e+114
-1.7418355e+114
-1.7021259e+114
-1.6925735e+114
-1.7311999e+114
-1.5772021e+114
-1.5521997e+114
-1.533786e+114
-1.5210826e+114
-1.5137588e+114
-1.4845089e+114
-2.2541067e+114
-2.0315128e+114
-1.79833e+114
-1.6945997e+114
-1.6171066e+114
-1.5533305e+114
-1.5304747e+114
-1.5190155e+114
-1.505357e+114
-1.4849863e+114
-1.4575256e+114
-2.3730088e+114
-2.619287e+114
-2.0808637e+114
-1.3307404e+114
-2.0421935e+114
-2.3574397e+114
-1.7742869e+114
-1.9334228e+114
-1.8209945e+114
-1.9054852e+114
-2.169541e+114
-1.4808669e+114
-1.2558963e+114
-1.3733707e+114
-2.8294695e+114
-2.4262456e+114
-2.3832795e+114
-1.400641e+114
-4.0155428e+114
-1.6371509e+114
-2.5365313e+114
-2.8581723e+114
-2.5083895e+114
-2.2126175e+114
-2.9881604e+114
-2.0102442e+114
-1.6894949e+114
-1.8837425e+114
-2.0541959e+114
-1.3384886e+114
-1.7555502e+114
-2.0695873e+114
-1.1793885e+114
-1.3826528e+114
-1.4051622e+114
-1.3748528e+114
-2.274274e+114
-2.6029084e+114
-3.1482929e+114
-1.7689213e+114
-2.4199677e+114
-1.8841897e+114
-2.7529465e+114
-2.325792e+114
-1.8702561e+114
-1.38389e+114
-1.7421183e+114
-1.662362e+114
-1.6103292e+114
-1.6348224e+114
-2.1633363e+114
-1.750393e+114
-1.6350607e+114
-1.698309e+114
-1.6946679e+114
-1.6954222e+114
-1.7094296e+114
-1.6993672e+114
-1.7317487e+114
-1.6977112e+114
-1.7631741e+114
-1.6306528e+114
-1.5729438e+114
-1.6188258e+114
-1.6316566e+114
-1.7658908e+114
-2.0981755e+114
-2.5387863e+114
-2.0958234e+114
-2.2768865e+114
-2.031077e+114
-1.6646551e+114
-1.6136577e+114
-1.8998226e+114
-1.684529e+114
-1.6700177e+114
-1.6123849e+114
-1.5853605e+114
-1.7522854e+114
-1.6969656e+114
-1.7049324e+114
-1.7256724e+114
-1.7216775e+114
-1.982709e+114
-2.3859711e+114
-1.5865301e+114
-1.5624158e+114
-1.554493e+114
-1.5408688e+114
-2.1467325e+114
-1.8989118e+114
-1.696589e+114
-1.6801691e+114
-1.5721786e+114
-1.5486617e+114
-1.5344788e+114
-1.6595367e+114
-1.6481173e+114
-1.5131229e+114
-1.5721949e+114
-1.5366651e+114
-1.5630998e+114
-1.5629206e+114
-1.518384e+114
-1.6020978e+114
-1.6651449e+114
-1.6070295e+114
-1.6481672e+114
-1.7146966e+114
-1.5295544e+114
-1.5340099e+114
-1.5469829e+114
-1.5170374e+114
-1.566212e+114
-1.6172366e+114
-1.6486714e+114
-1.6069939e+114
-1.7388761e+114
-1.5211593e+114
-1.5344848e+114
-1.4852969e+114
-2.2462437e+114
-2.0411282e+114
-1.7908213e+114
-1.6878894e+114
-1.6143064e+114
-1.5519268e+114
-1.529923e+114
-1.5188952e+114
-1.5059398e+114
-1.4855895e+114
-1.4579055e+114
-2.0415648e+114
-1.7715979e+114
-1.7320611e+114
-1.6144929e+114
-1.5733267e+114
-1.5337919e+114
-1.517611e+114
-1.5096075e+114
-1.4890223e+114
-1.4579825e+114
-1.4364219e+114
-1.5827319e+114
-2.9305819e+114
-1.5797491e+114
-2.1101246e+114
-2.1060663e+114
-2.4076279e+114
-1.9841971e+114
-1.8861269e+114
-2.1242612e+114
-2.5461083e+114
-1.2460585e+114
-1.3584023e+114
-2.1604083e+114
-1.3630238e+114
-1.650674e+114
-1.7153063e+114
-1.3066633e+114
-2.7679174e+114
-2.722768e+114
-3.3967776e+114
-1.8662089e+114
-2.3610757e+114
-2.1320795e+114
-2.4676598e+114
-2.1882196e+114
-2.1155465e+114
-1.6865774e+114
-2.9301148e+114
-1.7727183e+114
-1.5160508e+114
-2.4454329e+114
-1.4528084e+114
-3.1886602e+114
-3.0743281e+114
-8.6931407e+114
-3.1825163e+114
-3.1169252e+114
-2.8445055e+114
-1.2787724e+114
-2.6993575e+114
-1.3437982e+114
-1.396196e+114
-1.7607527e+114
-1.9255624e+114
-1.7468162e+114
-1.6757182e+114
-1.6851756e+114
-1.6829784e+114
-1.8264039e+114
-1.7836448e+114
-1.9425066e+114
-1.8107024e+114
-1.9445246e+114
-1.9769366e+114
-1.7859527e+114
-1.6757142e+114
-1.6084572e+114
-1.6714837e+114
-1.6667852e+114
-1.8396087e+114
-1.5980203e+114
-1.6033156e+114
-1.570739e+114
-1.618343e+114
-1.6950508e+114
-1.7744188e+114
-1.6827922e+114
-1.6472719e+114
-1.6042374e+114
-2.0316098e+114
-1.7671889e+114
-1.6761157e+114
-1.5938799e+114
-1.5801131e+114
-1.5583781e+114
-2.6249087e+114
-2.3137055e+114
-2.5738233e+114
-2.7086728e+114
-2.7977441e+114
-1.5234548e+114
-1.5178331e+114
-1.5195411e+114
-1.5318944e+114
-1.5315601e+114
-1.521859e+114
-1.5228173e+114
-2.379717e+114
-2.06277e+114
-1.7689326e+114
-1.6660307e+114
-1.6080466e+114
-1.5491382e+114
-1.5295088e+114
-1.5160476e+114
-1.6012444e+114
-1.6643699e+114
-1.6337455e+114
-1.6321716e+114
-1.6678153e+114
-1.526658e+114
-1.5316467e+114
-1.5476183e+114
-1.5071028e+114
-1.5660285e+114
-1.6174137e+114
-1.6491424e+114
-1.6101305e+114
-1.7314937e+114
-1.519729e+114
-1.5343077e+114
-1.4860537e+114
-1.5411799e+114
-1.5945693e+114
-1.6236535e+114
-1.6440201e+114
-1.663521e+114
-1.8164746e+114
-1.4984318e+114
-1.5280277e+114
-1.4604852e+114
-2.0483185e+114
-1.7769044e+114
-1.7270001e+114
-1.6117598e+114
-1.5713161e+114
-1.5337002e+114
-1.5170627e+114
-1.5094423e+114
-1.4893928e+114
-1.4583468e+114
-1.4366929e+114
-2.1948984e+114
-1.9058818e+114
-1.7740895e+114
-1.6490785e+114
-1.5776805e+114
-1.5469756e+114
-1.5182836e+114
-1.4875808e+114
-1.4617499e+114
-1.43657e+114
-1.4174442e+114
-1.6320732e+114
-1.7936692e+114
-1.9889576e+114
-1.1981615e+114
-2.4616197e+114
-2.1005077e+114
-3.1455588e+114
-1.8779497e+114
-1.9667256e+114
-2.5134889e+114
-2.1866092e+114
-1.348209e+114
-2.0801614e+114
-2.5715066e+114
-4.5130797e+114
-1.9626596e+114
-1.8292295e+114
-3.0888581e+114
-1.4264134e+114
-3.2370551e+114
-3.0013553e+114
-8.6462798e+114
-3.4230202e+114
-3.9184331e+114
-2.4820386e+114
-1.5434235e+114
-2.7646962e+114
-1.6974612e+114
-1.9024277e+114
-2.531559e+114
-1.4400438e+114
-2.9781378e+114
-4.3266392e+114
-2.5047576e+114
-9.8874411e+114
-3.7992579e+114
-3.8504533e+114
-2.2286509e+114
-1.7162631e+114
-1.9906233e+114
-2.2559473e+114
-1.7558023e+114
-8.3643521e+113
-1.7395588e+114
-1.6778705e+114
-1.6739623e+114
-1.6962151e+114
-2.1704918e+114
-1.8078355e+114
-1.8374059e+114
-1.7194696e+114
-1.6416412e+114
-1.6649674e+114
-1.6657099e+114
-1.6390301e+114
-1.7555753e+114
-1.9229035e+114
-1.6380888e+114
-1.7737321e+114
-1.8126347e+114
-1.6319723e+114
-1.6408317e+114
-1.5854881e+114
-1.6030171e+114
-1.7186793e+114
-1.710942e+114
-1.5963994e+114
-1.5646202e+114
-1.5398903e+114
-1.6530277e+114
-2.0262452e+114
-1.6662248e+114
-1.6658506e+114
-1.6580089e+114
-1.825591e+114
-1.6597993e+114
-1.5765437e+114
-2.094817e+114
-1.745448e+114
-1.6167241e+114
-1.5590071e+114
-1.5281556e+114
-3.0639042e+114
-2.6573603e+114
-2.4208387e+114
-2.9096402e+114
-1.5455604e+114
-1.4836784e+114
-1.5500914e+114
-1.5064355e+114
-1.5089991e+114
-1.5252973e+114
-1.5162157e+114
-1.5095269e+114
-1.7989723e+114
-1.7152379e+114
-1.6093554e+114
-1.567035e+114
-1.5344822e+114
-1.505614e+114
-1.5697299e+114
-1.6249777e+114
-1.6532314e+114
-1.6248784e+114
-1.5376549e+114
-1.4893101e+114
-1.5414716e+114
-1.5944229e+114
-1.6244318e+114
-1.6422437e+114
-1.6619808e+114
-1.8054346e+114
-1.498859e+114
-1.5273329e+114
-1.4609552e+114
-1.5341608e+114
-1.5604554e+114
-1.6092099e+114
-1.6396981e+114
-1.6582694e+114
-1.8373716e+114
-1.6589455e+114
-1.4592908e+114
-1.516686e+114
-1.4391621e+114
-2.1935045e+114
-1.9027567e+114
-1.7736086e+114
-1.6471521e+114
-1.5760895e+114
-1.5465708e+114
-1.5176974e+114
-1.4875041e+114
-1.4620617e+114
-1.4368446e+114
-1.4175526e+114
-2.0025407e+114
-1.8333855e+114
-1.8172679e+114
-1.6804436e+114
-1.6016002e+114
-1.5540443e+114
-1.5270075e+114
-1.4633212e+114
-1.4756169e+114
-1.4380736e+114
-1.4174676e+114
-1.4024405e+114
-3.5549624e+114
-1.802126e+114
-2.5166581e+114
-1.3428342e+114
-2.1165697e+114
-2.1710661e+114
-2.3648696e+114
-2.3072514e+114
-2.1676036e+114
-2.696253e+114
-1.5936368e+114
-2.5017073e+114
-2.5193789e+114
-2.8617696e+114
-1.5760076e+114
-2.9928148e+114
-4.1329136e+114
-2.7603211e+114
-8.5929333e+114
-4.3717421e+114
-4.0906984e+114
-2.4306426e+114
-1.8486358e+114
-2.285131e+114
-2.3620156e+114
-2.2319227e+114
-1.3540798e+114
-2.0016087e+114
-1.9815513e+114
-1.8467978e+114
-3.7640036e+114
-3.1287885e+114
-5.33374e+114
-4.7175557e+114
-2.7380936e+114
-8.2042583e+114