/*--------------------------------*- C++ -*----------------------------------*\
  =========                 |
  \\      /  F ield         | OpenFOAM: The Open Source CFD Toolbox
   \\    /   O peration     | Website:  https://openfoam.org
    \\  /    A nd           | Version:  7
     \\/     M anipulation  |
\*---------------------------------------------------------------------------*/
FoamFile
{
    version     2.0;
    format      ascii;
    class       volVectorField;
    location    "10000";
    object      U;
}
// * * * * * * * * * * * * * * * * * * * * * * * * * * * * * * * * * * * * * //

dimensions      [0 1 -1 0 0 0 0];

internalField   nonuniform List<vector> 
34124
(
(1.2377639e+58 -1.4279824e+58 -1.1756181e+58)
(3.3583029e+58 -2.2448232e+56 3.9947432e+56)
(7.7673551e+58 1.0346486e+58 7.5192013e+56)
(4.0059465e+58 -3.5011117e+57 -3.7535861e+57)
(1.8368021e+58 1.5137492e+57 6.6266393e+56)
(3.8447369e+58 1.1027683e+58 1.9360564e+57)
(3.0340418e+58 4.6739758e+56 4.1296829e+57)
(1.1846768e+58 3.4048276e+58 1.544611e+57)
(5.0146975e+58 1.3163115e+58 2.9689702e+57)
(3.6620411e+58 -4.1228089e+57 9.9139777e+57)
(5.6352301e+57 -3.0718009e+56 -1.8085e+57)
(1.440155e+58 7.8459933e+57 1.0067849e+56)
(1.440656e+58 1.3112032e+57 3.0122199e+57)
(2.5690449e+58 2.6214361e+58 2.3442012e+57)
(3.1694443e+58 1.0739259e+58 4.0607479e+57)
(3.3256611e+58 -4.0326428e+56 9.4393284e+57)
(7.1372105e+57 5.8546183e+57 1.2397354e+57)
(8.9537429e+57 2.9231912e+58 5.2445466e+57)
(9.5094724e+58 2.5061223e+58 2.2328822e+58)
(9.4187599e+57 7.2299529e+56 1.1129484e+58)
(4.8797634e+57 -1.0147474e+56 -1.3875579e+57)
(4.3065453e+57 2.2767243e+57 -2.3013259e+57)
(-3.8599513e+57 -1.2472123e+57 -2.6577459e+57)
(1.4460897e+58 1.6596197e+58 -1.0202232e+56)
(1.273314e+58 7.514054e+57 9.0813986e+56)
(1.9934276e+58 5.1796161e+56 6.258458e+57)
(8.3962108e+57 9.1891389e+57 1.4726558e+57)
(1.9543474e+58 2.2253991e+58 4.8722352e+57)
(7.6627995e+58 1.8132864e+58 2.0684953e+58)
(1.1899072e+58 1.4556274e+57 4.8841264e+57)
(6.5731309e+57 6.8849169e+57 4.9000108e+57)
(3.061376e+57 3.3096343e+57 5.8413084e+56)
(8.5185262e+57 1.7828654e+58 8.455655e+57)
(1.0463755e+58 5.0412282e+57 9.1971412e+57)
(8.4781274e+57 1.4753852e+57 -2.0326686e+57)
(9.0893813e+57 1.7273134e+56 -7.4191017e+56)
(5.6920788e+57 2.7324575e+57 -2.2239026e+57)
(-4.0215382e+57 -1.0872964e+57 -2.9929768e+57)
(3.4646261e+57 4.7752037e+57 -3.0023979e+57)
(-4.2860916e+57 -1.6973203e+56 -3.0734481e+57)
(-5.2128644e+57 -1.6364919e+57 -2.844146e+57)
(1.1590322e+58 1.681732e+58 1.112079e+57)
(2.2278266e+58 1.983688e+58 2.8740168e+57)
(3.8584103e+58 1.0871872e+58 9.6404236e+57)
(1.3119399e+58 1.3825295e+57 2.2203663e+57)
(6.2972175e+57 7.8206222e+57 5.2458534e+57)
(4.379871e+57 3.3897533e+57 1.1664059e+57)
(1.6310395e+58 1.0215724e+58 8.7758683e+57)
(1.3501304e+58 7.0553949e+57 3.3707801e+57)
(1.2109752e+58 2.6746182e+57 -3.4972262e+57)
(2.6569679e+57 1.4128421e+58 4.0779859e+57)
(4.3499826e+57 2.5483942e+57 8.5050392e+56)
(6.5368189e+57 -2.0008244e+57 5.985983e+56)
(3.452534e+57 1.0028906e+58 1.0793809e+58)
(9.0072964e+57 2.226636e+57 -1.8740991e+57)
(1.0856262e+58 -1.9568989e+56 -4.2926103e+57)
(1.8310935e+58 4.4141742e+57 -6.0792325e+56)
(1.6815265e+58 1.3137181e+57 -2.5724142e+57)
(-3.065193e+57 -5.4549337e+56 -3.5432463e+57)
(1.1280629e+58 6.1713944e+57 -1.9414959e+57)
(-3.7249165e+57 3.0372161e+56 -3.6188842e+57)
(-5.3027823e+57 -1.4587064e+57 -3.2889266e+57)
(9.7534943e+56 8.4768987e+57 -2.6040352e+57)
(-4.3159535e+57 1.1135096e+57 -3.6253866e+57)
(-5.3528356e+57 -9.4654306e+56 -3.2006344e+57)
(-5.7158312e+57 -1.8919762e+57 -2.7880761e+57)
(1.1233695e+58 1.70431e+58 5.9303833e+57)
(2.3210545e+57 5.0736263e+57 1.0951138e+57)
(1.5267047e+58 8.978066e+57 4.307352e+57)
(1.2897437e+58 5.7484583e+57 6.5527659e+56)
(1.3520388e+58 2.5913509e+57 -5.3545715e+57)
(5.9997571e+57 1.0319754e+58 5.388963e+57)
(6.5970716e+57 2.3791002e+57 9.7730347e+56)
(3.810867e+57 1.2874986e+57 3.1989599e+56)
(9.9547561e+57 1.1519846e+58 1.7480308e+57)
(1.2453221e+58 3.6716413e+57 -2.2392838e+57)
(1.8108797e+58 3.552973e+57 -5.8943243e+57)
(7.3550921e+57 7.7684549e+57 5.2690975e+57)
(6.3382912e+57 2.2869664e+57 1.0077948e+57)
(8.4527321e+57 1.2004759e+57 2.780567e+57)
(2.5945723e+58 1.1743019e+58 -3.8899552e+57)
(6.7291398e+57 4.842037e+57 -9.0051273e+57)
(1.096791e+58 -1.1105268e+58 -3.9707445e+57)
(5.7239944e+57 1.7037395e+57 -8.5902293e+57)
(1.1610712e+58 5.7125046e+57 -1.4114957e+57)
(1.4033041e+58 4.832806e+57 -3.2962253e+57)
(8.3274499e+56 1.431195e+57 -4.0314989e+57)
(1.1787689e+58 1.4203548e+57 -6.5116694e+57)
(9.0509667e+57 4.3581246e+56 -4.6932942e+57)
(-5.4246307e+57 -1.0121097e+57 -4.1821522e+57)
(7.4300577e+57 1.0103205e+58 1.3674174e+56)
(-1.89256e+57 2.0106584e+57 -4.0744223e+57)
(-5.4386359e+57 -5.48925e+56 -3.9066581e+57)
(-5.6037506e+57 -1.6804774e+57 -3.2051151e+57)
(5.279104e+57 8.9863267e+57 -1.2271367e+57)
(-3.7026807e+57 2.1704199e+57 -3.6420567e+57)
(-5.1524754e+57 -1.3475638e+56 -3.7117569e+57)
(-5.6514956e+57 -1.4340085e+57 -3.1150611e+57)
(-5.712571e+57 -2.0822953e+57 -2.82739e+57)
(7.3878993e+57 1.5864761e+58 3.3039614e+57)
(5.2097483e+57 3.8521156e+57 1.4260941e+57)
(1.2504936e+57 7.4271346e+56 -1.6309181e+57)
(7.8259815e+57 9.7767418e+57 -1.0820553e+57)
(1.3843961e+58 4.5885356e+57 -4.6112318e+57)
(1.5026123e+58 3.161568e+57 -6.4397464e+57)
(1.0932373e+58 1.2513389e+58 8.7543241e+57)
(9.6361948e+57 3.1561101e+57 2.2016729e+57)
(9.1863016e+57 3.3573244e+57 4.3218975e+57)
(3.1760876e+58 7.1994998e+57 -3.3267407e+56)
(9.7309636e+57 4.9500565e+57 -3.6525206e+57)
(2.0002075e+58 2.2257913e+57 -6.4285289e+57)
(1.2740958e+58 -3.6944693e+56 -3.687916e+57)
(4.6574878e+57 6.5316818e+57 -5.7271258e+57)
(4.1106112e+57 4.2070023e+57 -3.0154489e+57)
(1.0532172e+57 -2.0959094e+56 -1.9083157e+56)
(1.1047008e+58 6.8796035e+57 -3.4729899e+56)
(1.2877657e+56 4.3600489e+57 -4.2553193e+57)
(8.9567979e+58 9.0076325e+57 -7.9520524e+57)
(9.4254248e+57 5.7952261e+56 -6.0624373e+57)
(1.3508991e+58 4.2261627e+56 6.0750481e+56)
(1.0348931e+58 1.0054023e+58 1.3971934e+56)
(9.3830579e+57 6.327161e+57 -4.8830203e+57)
(3.1386151e+57 3.0453413e+57 -4.3501955e+57)
(1.2632415e+58 4.3002466e+57 -6.4805543e+57)
(1.111867e+58 3.4228414e+57 -5.1596499e+57)
(-4.6198942e+57 6.6579454e+55 -4.9702644e+57)
(8.0117405e+57 1.292905e+56 -6.5491088e+57)
(2.2887335e+58 1.4436733e+57 -7.2879915e+57)
(1.9848948e+57 -5.8111281e+56 -5.0550645e+57)
(-5.5053117e+57 -1.318326e+57 -4.0259175e+57)
(7.2798575e+57 7.3082628e+57 -6.922348e+56)
(2.0912565e+57 3.611933e+57 -3.4315862e+57)
(-4.2569607e+57 4.6513153e+56 -4.6398405e+57)
(-5.6100377e+57 -1.0610893e+57 -3.7892869e+57)
(-5.1626006e+57 -1.9012082e+57 -3.2651361e+57)
(-2.4255878e+57 5.5301581e+57 -5.5911084e+57)
(3.7964622e+55 5.6206684e+57 -4.6087738e+57)
(-3.6007002e+57 6.3471863e+56 -4.157665e+57)
(-5.1235379e+57 -9.2734934e+56 -3.5652035e+57)
(-5.2116351e+57 -1.6920452e+57 -3.1704588e+57)
(-5.2672085e+57 -2.3097301e+57 -2.6015166e+57)
(1.1571142e+58 1.2987496e+58 7.6941479e+57)
(1.0433337e+58 4.6023695e+57 1.9831313e+57)
(6.8996578e+57 3.6430841e+57 2.5759258e+57)
(8.2476997e+57 6.0137437e+57 -5.0916169e+57)
(1.0887269e+58 5.0338873e+57 -4.7831598e+57)
(1.7893405e+58 5.0959589e+57 -7.6332879e+57)
(1.29118e+58 -1.0509206e+57 -1.4209552e+57)
(8.5304735e+57 6.8284527e+57 -3.8737254e+57)
(7.389205e+57 6.5428884e+57 -4.5315495e+57)
(5.0055708e+57 1.8057946e+57 8.7103411e+56)
(1.3232895e+58 7.42388e+57 2.0791963e+57)
(1.3906583e+57 6.2871022e+57 -7.6126959e+57)
(6.6124536e+58 1.5391207e+58 -1.0555911e+58)
(1.5029115e+58 1.8297171e+57 -3.7313602e+57)
(8.4177958e+57 -3.8594126e+56 -5.3094326e+55)
(3.2407374e+57 5.8434523e+57 -8.2535319e+56)
(7.0795362e+57 1.5202206e+58 -4.7929213e+57)
(4.0651732e+57 1.9951835e+57 3.8612857e+57)
(4.7558584e+57 2.7886624e+57 -1.812865e+57)
(3.2024513e+57 -2.3378637e+57 -2.2607085e+57)
(-1.4729688e+58 2.8372654e+57 -1.7442912e+58)
(7.2551744e+57 4.2837712e+57 -2.4070552e+57)
(7.0224702e+56 -1.0859432e+57 1.1907717e+57)
(7.8023093e+57 -6.9865362e+57 5.2370584e+57)
(1.2820736e+58 1.0329101e+58 2.3658863e+57)
(1.1067725e+58 7.2773776e+57 -6.9868376e+56)
(8.2873564e+57 5.0333664e+57 -3.2649131e+57)
(1.0619621e+58 4.8234099e+57 -5.830608e+57)
(8.7273593e+57 3.8374987e+57 -6.1479096e+57)
(-1.0474653e+57 8.6322436e+56 -5.6624186e+57)
(7.1314243e+57 2.6382472e+57 -7.5474107e+57)
(1.7755938e+58 4.7724367e+57 -7.4251832e+57)
(8.8508718e+57 1.7293248e+57 -5.2156186e+57)
(-5.1084887e+57 -8.2804142e+56 -4.9578189e+57)
(2.8181523e+57 -3.6830109e+55 -6.2150205e+57)
(3.7692235e+57 -1.0882436e+57 -6.628981e+57)
(3.2123872e+58 1.600047e+57 -3.7899587e+57)
(-1.0294781e+57 -1.4562725e+57 -4.4839149e+57)
(-4.5454089e+57 -1.7627337e+57 -3.8875065e+57)
(2.8368391e+57 6.4252777e+57 -4.380721e+57)
(4.1480679e+57 5.9312634e+57 -4.2649088e+57)
(9.1386821e+56 1.5154542e+57 -4.8572758e+57)
(-3.9808358e+57 -5.1410136e+56 -4.6080929e+57)
(-4.514528e+57 -1.4426054e+57 -3.880937e+57)
(-4.8371377e+57 -2.3973948e+57 -2.9682969e+57)
(3.2272114e+57 6.5262832e+57 -8.1901973e+57)
(-1.6590903e+57 5.1519509e+57 -7.0433597e+57)
(8.9903899e+56 2.8425339e+57 -5.545539e+57)
(-2.8195781e+57 -1.6668133e+56 -4.243129e+57)
(-4.115699e+57 -1.2936512e+57 -3.7329439e+57)
(-4.5303695e+57 -1.8413102e+57 -3.0654628e+57)
(-6.4685297e+57 -2.5205483e+57 -2.0451295e+57)
(1.0675712e+58 7.3972163e+57 -4.2216926e+57)
(8.4818673e+57 8.2464646e+57 -4.0093794e+57)
(2.4286191e+57 3.6791677e+57 6.2886979e+56)
(7.8720336e+57 6.4534869e+57 -1.8679672e+57)
(2.3821621e+57 3.4694086e+57 -9.6603228e+57)
(2.4106677e+58 8.1202055e+57 -7.8630733e+57)
(-1.1581487e+58 3.2544268e+56 4.8518764e+57)
(5.4246565e+56 -1.4633999e+57 -4.958017e+56)
(5.2396839e+57 8.323223e+57 1.1862178e+57)
(1.3249856e+58 1.0288062e+58 -6.0441476e+57)
(4.6576674e+57 4.5023132e+57 5.5473969e+57)
(6.5378374e+57 3.424427e+57 4.3443334e+57)
(3.5341116e+57 1.6220137e+57 -5.8438834e+57)
(-1.1609382e+58 3.7439274e+57 -1.523971e+58)
(1.1038489e+58 9.3811156e+57 -1.0736908e+57)
(2.9411826e+57 1.1415589e+57 4.733543e+56)
(4.8468523e+56 -5.5453817e+57 1.1577455e+57)
(3.787841e+57 7.7122041e+57 -3.9379179e+57)
(3.4743724e+57 2.5479625e+57 1.1760791e+56)
(1.1159155e+58 1.8216416e+57 -3.0447762e+57)
(1.678084e+56 -3.8249118e+57 1.7894501e+57)
(1.1250183e+57 -2.3394745e+57 -1.2311412e+57)
(-5.6422549e+57 2.0905281e+57 -1.6156087e+58)
(-9.7134065e+57 -1.4729669e+58 -5.1488302e+57)
(-1.528327e+57 -6.1957622e+57 2.059074e+57)
(1.3963452e+57 -6.7783636e+57 1.0117545e+58)
(7.9636514e+57 -1.848639e+56 5.4156915e+57)
(1.2878472e+58 7.849341e+57 -5.8878545e+57)
(1.2096899e+58 6.1405668e+57 -2.307879e+57)
(1.0015965e+58 9.3473284e+57 -2.8549325e+57)
(4.678214e+57 7.7573954e+57 -4.632629e+57)
(8.3639319e+57 6.5222036e+57 -3.9482575e+57)
(6.1531959e+57 2.3866754e+57 -5.3590234e+57)
(5.0565995e+57 2.3974504e+57 -6.9876092e+57)
(1.7457442e+58 4.2996121e+57 -6.4134863e+57)
(1.2028517e+58 1.6989908e+57 -5.6751198e+57)
(-2.9382614e+57 -6.4613226e+56 -6.0163251e+57)
(8.999531e+57 2.6987119e+57 -7.6127691e+57)
(6.4366624e+57 6.1272459e+56 -7.5563273e+57)
(1.4787302e+57 -1.7719484e+56 -1.8752925e+57)
(5.8906567e+57 -2.5746272e+56 -4.8068002e+57)
(-3.2019243e+57 -1.4352985e+57 -4.8209798e+57)
(2.4864841e+57 -2.5749746e+57 -7.458759e+57)
(4.083126e+56 -1.8401934e+57 -3.9666325e+57)
(2.6367335e+57 -2.1381728e+57 -5.2515846e+57)
(3.3822792e+57 -2.8935355e+57 -1.1452728e+57)
(-2.8318742e+57 -2.2447211e+57 -3.9871841e+57)
(-4.3693953e+57 -2.457441e+57 -2.9892787e+57)
(4.3104177e+57 6.6476722e+57 -7.575639e+57)
(2.0026689e+57 6.2263621e+57 -6.9527426e+57)
(3.4939562e+57 3.6711126e+57 -5.4553176e+57)
(2.1073016e+57 5.9263997e+56 -5.2569023e+57)
(-1.9420866e+57 -1.0947168e+57 -4.6688942e+57)
(-3.7352137e+57 -1.8009642e+57 -3.5572868e+57)
(-6.388028e+57 -2.8203852e+57 -2.4525353e+57)
(2.8754944e+57 6.4407668e+57 -7.6663838e+57)
(2.9725116e+57 4.30222e+57 -9.8455643e+57)
(-1.6781986e+57 4.0832872e+57 -6.8524622e+57)
(-1.340655e+57 1.7727088e+57 -5.1993631e+57)
(-2.0606269e+57 -9.3172994e+55 -4.6778216e+57)
(-3.4586491e+57 -1.3097285e+57 -3.8246321e+57)
(-5.7930075e+57 -2.3287355e+57 -2.3459673e+57)
(-6.9736977e+57 -2.3546675e+57 -1.2121432e+57)
(4.7426605e+57 9.927224e+57 3.9437871e+56)
(1.5602734e+58 1.0938309e+58 -7.3820413e+57)
(5.6051294e+57 7.3959808e+57 2.1239106e+57)
(4.0663338e+57 4.1469354e+57 2.7852226e+56)
(2.3217347e+57 1.9895197e+57 -9.307004e+57)
(-1.1456529e+58 4.1239304e+57 -1.1494095e+58)
(5.3256823e+57 9.4037778e+57 1.7195123e+57)
(-2.036587e+57 1.1562365e+57 7.4264369e+56)
(1.1347041e+57 -3.7565345e+57 3.9573318e+55)
(7.4860426e+57 5.7661568e+57 -3.1749909e+57)
(6.8059103e+57 4.7706168e+57 6.7592432e+56)
(1.7810015e+58 2.8695127e+57 -3.6794419e+57)
(9.9745579e+56 -6.5875062e+57 9.7400767e+57)
(1.716089e+57 -2.8837226e+57 -3.2504958e+57)
(-7.4295506e+57 3.9552287e+57 -1.5781075e+58)
(-7.8062668e+57 -7.5034245e+57 -6.127503e+57)
(-7.2774996e+57 -4.1515571e+57 2.0532981e+57)
(6.1172483e+57 -6.3699763e+57 4.9278106e+57)
(1.468348e+57 4.5639509e+57 4.4529639e+55)
(1.9669995e+57 4.7876234e+57 -5.2741207e+57)
(5.4660802e+57 -2.8381757e+56 -1.1329246e+58)
(1.1081571e+57 -1.2278037e+57 7.1861494e+56)
(8.2531775e+57 -2.4480173e+56 -1.4985462e+58)
(-1.7756347e+57 8.301109e+57 -8.2446527e+57)
(-4.6043296e+57 2.7648226e+56 -1.443715e+58)
(-1.536698e+58 -1.4449813e+58 -5.3254223e+57)
(1.3034957e+57 -2.9932165e+57 -3.7105228e+57)
(1.0614075e+58 -9.841301e+57 8.424524e+57)
(7.4319376e+57 1.6234868e+57 6.6607145e+57)
(7.9721089e+57 2.9014507e+57 9.2701921e+57)
(1.5138876e+58 8.3171171e+57 -7.8315706e+57)
(1.1790923e+58 5.1256275e+57 -6.9573838e+57)
(8.7659984e+57 9.5261079e+57 -2.7861555e+57)
(1.0581025e+58 7.4742837e+57 -3.842204e+57)
(1.1310068e+58 3.3539079e+57 -4.9424999e+57)
(7.3287924e+57 8.7441838e+57 -3.4767838e+57)
(3.015732e+57 6.5962417e+57 -7.0222946e+57)
(4.496657e+57 7.2330328e+57 -6.754873e+57)
(5.1549015e+57 4.319348e+57 -5.6737869e+57)
(4.1159609e+57 1.061592e+57 -6.267111e+57)
(1.1367918e+58 2.3675764e+57 -8.6495398e+57)
(7.254565e+57 6.1111993e+56 -7.3648439e+57)
(2.1637336e+58 3.5856428e+57 -5.6191205e+57)
(1.2285145e+58 2.8917529e+56 -4.7626606e+57)
(-2.3862232e+57 -1.4945443e+57 -5.931921e+57)
(3.0015237e+57 -1.5375163e+57 -8.0657362e+57)
(-3.3513765e+57 -7.5778769e+56 -4.329142e+57)
(4.315996e+57 -1.0316385e+57 -5.8656379e+57)
(5.27777e+57 -3.4951289e+56 -1.6887655e+57)
(1.8029214e+57 -1.8822011e+57 -4.675593e+57)
(-2.6143793e+57 -1.6786474e+57 -3.8258643e+57)
(-3.476262e+57 -3.5489576e+57 -4.7977491e+57)
(1.1543602e+57 -3.0008627e+57 -5.7555986e+57)
(-4.2613808e+57 -3.507e+57 -1.8743687e+57)
(7.0404584e+56 -2.9351656e+57 -3.2811876e+57)
(3.4426952e+57 -3.3301623e+57 -1.5488381e+57)
(-4.8938279e+57 -2.7655032e+57 -3.626176e+57)
(-6.2185145e+57 -2.9795538e+57 -2.5149751e+57)
(3.8352317e+57 6.6680024e+57 -7.8498725e+57)
(2.6587801e+57 4.5510627e+57 -1.0039557e+58)
(1.1830157e+57 4.9598448e+57 -7.0205789e+57)
(1.9008173e+57 2.592581e+57 -5.3663296e+57)
(3.3007401e+57 5.8939433e+56 -5.8147538e+57)
(-1.4491564e+57 -1.1924155e+57 -4.3939514e+57)
(-5.5478959e+57 -2.4699711e+57 -2.712313e+57)
(-7.0370253e+57 -2.777276e+57 -1.5523347e+57)
(4.4187548e+57 4.8656051e+57 -8.9328479e+57)
(3.2938967e+57 5.474027e+57 -6.820979e+57)
(-6.2173955e+57 4.1238576e+57 -9.7086437e+57)
(-1.9832994e+57 3.20622e+57 -6.2742289e+57)
(-1.0034e+57 1.7673664e+57 -5.2646737e+57)
(-1.7533334e+57 -1.4879701e+56 -4.8771932e+57)
(-4.5929683e+57 -1.8684312e+57 -2.9376687e+57)
(-6.3018329e+57 -2.5119369e+57 -1.4767243e+57)
(-7.4722003e+57 -2.7889837e+57 -1.0268389e+57)
(8.9136315e+57 6.5751378e+57 -4.2176998e+57)
(8.3344133e+57 6.8552251e+57 2.1063189e+56)
(1.8802697e+58 3.8983039e+57 -5.5583034e+57)
(2.5529175e+57 1.3048554e+57 1.9112376e+57)
(9.560556e+55 8.7717443e+56 -8.6127756e+57)
(-8.9081841e+57 4.3569299e+57 -1.2937167e+58)
(-9.3300683e+57 -2.0838406e+57 -7.5909042e+57)
(-4.4506994e+57 -1.3964019e+57 -2.4522516e+56)
(1.1215836e+58 -2.5533826e+57 1.8020113e+57)
(-1.5213156e+58 1.3028383e+56 -3.3946441e+57)
(3.4393749e+57 3.4189992e+57 -4.2296509e+57)
(1.0676112e+58 3.0655379e+57 -1.6768971e+58)
(2.5328997e+57 -3.5733294e+56 -8.8007162e+56)
(3.3855997e+57 -2.6512644e+57 -7.466937e+57)
(-4.4119876e+57 6.2763355e+57 -1.0805425e+58)
(-4.7514283e+57 2.7404613e+57 -1.3049132e+58)
(-1.0952953e+58 -5.1030853e+57 -6.8125412e+57)
(-2.2737992e+57 -8.6455045e+57 -6.5660642e+57)
(-2.812685e+57 -5.4300039e+57 3.5463497e+57)
(6.0395053e+57 9.2385892e+57 8.863206e+57)
(7.7262683e+57 4.1647007e+57 1.2982053e+58)
(3.6874133e+57 5.1791311e+57 -3.4740397e+57)
(1.2879161e+57 3.1573218e+57 -6.0574204e+56)
(3.4420955e+58 1.3524988e+57 -1.9210865e+57)
(4.2556554e+56 -2.2697581e+57 3.744535e+57)
(-9.2534697e+57 -5.3627862e+57 5.3151179e+57)
(-2.132819e+58 3.4984119e+57 -2.5513702e+58)
(-2.5843334e+58 -2.318365e+58 -1.5164555e+58)
(5.5929318e+57 2.3784411e+57 -3.8164527e+57)
(1.5364107e+56 -3.8507804e+57 -4.2679922e+57)
(1.1621291e+58 5.5170207e+57 1.2292147e+58)
(8.3037624e+57 4.4769537e+57 1.1215326e+58)
(1.2622853e+58 3.2041595e+57 8.345504e+55)
(9.2871863e+57 4.7482096e+57 -7.8253201e+57)
(1.9031242e+58 4.0700839e+57 -5.917823e+57)
(1.5169168e+58 8.3824725e+57 -5.1701555e+57)
(8.9262754e+57 7.1143226e+57 -5.1280613e+57)
(1.0466711e+58 3.0271028e+57 -7.5266092e+57)
(9.7639815e+57 7.5329978e+57 -1.9260315e+57)
(7.8912561e+57 7.9631943e+57 -5.5668646e+57)
(9.1869261e+57 5.1535002e+57 -4.7520333e+57)
(9.1932236e+57 1.8198768e+57 -5.5683503e+57)
(3.4238989e+57 6.0006429e+57 -5.7063176e+57)
(3.4853451e+57 6.7197685e+57 -7.8869549e+57)
(-3.086098e+55 4.7699811e+57 -1.0242974e+58)
(3.0330412e+57 5.7082509e+57 -7.0106876e+57)
(2.5055275e+57 3.0521596e+57 -5.9797026e+57)
(1.6639538e+57 5.1948694e+56 -6.7731251e+57)
(4.1008001e+57 -4.8209347e+56 -7.7807523e+57)
(3.0655576e+57 1.1273062e+56 -4.5380427e+57)
(6.364236e+57 -3.0913024e+56 -6.1123928e+57)
(9.8604619e+57 5.098356e+56 -2.2004395e+57)
(7.0772296e+57 -6.100626e+56 -5.1861448e+57)
(-1.5141336e+57 -1.2580396e+57 -4.9940098e+57)
(-7.2931096e+57 -3.082723e+57 -5.1542691e+57)
(1.0629748e+57 -1.9736942e+57 -5.9572476e+57)
(-4.3280755e+57 -2.273267e+57 -2.3600342e+57)
(2.0295466e+57 -2.3315877e+57 -4.155996e+57)
(1.1028687e+58 1.9146998e+55 -1.8299181e+57)
(-2.6635164e+57 -2.0679075e+57 -4.7181946e+57)
(-5.6568569e+57 -2.0880825e+57 -2.9508497e+57)
(-3.3521389e+57 -3.6893611e+57 -4.4701528e+57)
(-4.4043276e+57 -3.45856e+57 -3.0534128e+57)
(-8.5321275e+56 -3.0017992e+57 -2.697957e+57)
(-2.5432792e+57 -3.0787627e+57 -3.3804315e+57)
(-2.4543889e+57 -3.3011736e+57 -2.55708e+57)
(-1.1441652e+58 -3.1927968e+57 -3.7186028e+57)
(-4.8658966e+57 -2.7578079e+57 -2.5339163e+57)
(-6.6029236e+57 -3.0221934e+57 -2.2271456e+57)
(3.7266127e+57 4.8075429e+57 -9.0947606e+57)
(4.0548669e+57 5.8876932e+57 -7.1246408e+57)
(-5.1614976e+57 4.1393893e+57 -1.1785329e+58)
(1.6663079e+56 3.7951738e+57 -6.4459114e+57)
(2.0497688e+57 2.5793713e+57 -5.5806757e+57)
(2.220995e+57 1.2359084e+56 -5.3731324e+57)
(-3.887874e+57 -1.7425129e+57 -3.3537446e+57)
(-6.3400301e+57 -2.8626472e+57 -1.8846962e+57)
(-6.9630471e+57 -2.7789769e+57 -1.0185499e+57)
(6.2332822e+57 4.4141503e+57 -7.6110577e+57)
(-2.4663402e+57 2.7251823e+57 -9.5511889e+57)
(5.2326685e+57 4.5666495e+57 -6.4512045e+57)
(-8.9137438e+57 8.8438766e+56 -7.9712385e+57)
(-1.4674211e+57 2.0936956e+57 -5.8954482e+57)
(6.7785807e+56 1.5374329e+57 -5.4390806e+57)
(-1.2795888e+57 -1.8554668e+57 -4.125923e+57)
(-5.3629208e+57 -2.6964466e+57 -2.0399331e+57)
(-7.2582393e+57 -2.8220848e+57 -1.3368103e+57)
(-7.057117e+57 -3.9384405e+57 -1.0168296e+57)
(3.8343339e+57 5.400191e+57 -4.8026404e+57)
(-2.1407725e+57 8.881824e+57 -1.1763874e+58)
(3.987266e+57 2.4112407e+57 -2.399753e+57)
(-2.6292504e+57 -1.1298055e+57 -1.092067e+57)
(-4.4179027e+57 3.4425179e+57 -1.151477e+58)
(-7.2746042e+57 3.0740237e+57 -1.2586067e+58)
(-1.1781962e+58 -6.7509379e+56 -9.0132676e+57)
(-1.6935185e+57 -7.9375736e+57 -8.0294124e+57)
(-7.5091533e+57 -3.0387224e+57 -6.1755459e+54)
(2.1709434e+57 8.0581181e+57 7.1069289e+57)
(1.4482975e+57 2.5118776e+57 7.7862578e+57)
(4.5599611e+57 6.8798473e+57 -3.0338384e+57)
(3.0943428e+57 3.0722214e+57 -1.3009094e+57)
(1.137534e+58 2.0861087e+57 1.5655531e+56)
(3.9247557e+56 -3.6041252e+57 6.8468881e+55)
(-1.2604491e+58 -3.9573333e+57 1.6640237e+57)
(-1.4090155e+58 3.398474e+57 -2.1793429e+58)
(-1.1228333e+58 -7.9881646e+57 -1.4428058e+58)
(3.6622141e+57 -1.8413173e+57 -6.6099979e+57)
(2.0296271e+57 -1.5184411e+57 -6.3177595e+57)
(2.266202e+57 9.6153047e+57 1.0675693e+58)
(8.3008108e+57 8.0963978e+57 1.5210762e+58)
(1.3916124e+58 4.8266224e+57 4.0608527e+55)
(4.4859543e+57 2.5243552e+57 -7.4962759e+56)
(5.1635264e+57 3.2115593e+58 -2.2263955e+58)
(1.3737297e+57 3.3679229e+57 1.1952235e+57)
(-2.0159333e+58 -5.7486928e+57 6.7200337e+57)
(1.721418e+57 1.5578751e+57 -5.5714957e+54)
(-1.1536293e+58 1.3516456e+58 9.171823e+57)
(-1.0904272e+58 -2.4725802e+58 -2.644373e+58)
(8.4386725e+57 7.1031474e+56 -4.7047891e+57)
(2.2763963e+57 -2.0495934e+57 -3.2500398e+57)
(-4.5228472e+57 -6.5539871e+57 -2.5085422e+57)
(4.1825507e+57 9.5908468e+56 1.2397704e+58)
(1.4139342e+58 1.0190651e+58 2.767389e+56)
(6.5681608e+57 7.8963957e+56 -6.6935735e+57)
(5.9457805e+57 2.9623392e+57 -7.345533e+57)
(6.9628303e+57 3.3367714e+57 -3.7955419e+57)
(1.0111236e+58 7.2415708e+57 -4.9138478e+57)
(7.2163317e+57 1.9071785e+57 -1.6423111e+57)
(-1.1737147e+56 6.6116178e+57 -1.9085641e+57)
(9.1735159e+57 8.4404673e+57 -6.3086117e+57)
(9.947713e+57 7.3533804e+57 -3.8802251e+57)
(8.1533109e+57 5.1936631e+57 -5.0544783e+57)
(7.1565181e+57 1.309774e+57 -6.2266355e+57)
(6.1920855e+57 5.0805792e+57 -4.9701811e+57)
(4.7846507e+57 6.7047838e+57 -7.2993753e+57)
(6.575275e+57 6.3455572e+57 -5.8732523e+57)
(5.9924523e+57 3.4500122e+57 -5.4250938e+57)
(5.8778814e+57 1.4965538e+57 -5.9460788e+57)
(-1.271136e+57 3.5172561e+57 -9.4318093e+57)
(9.9859555e+56 4.366529e+57 -9.2855219e+57)
(4.315251e+57 6.0369036e+57 -7.3499462e+57)
(-6.4936597e+57 2.5640086e+57 -1.2318915e+58)
(8.9190159e+56 4.2287268e+57 -6.6623714e+57)
(5.9611952e+56 2.5711453e+57 -6.0281525e+57)
(-1.8629917e+57 -4.2102631e+56 -6.2779761e+57)
(-4.8478549e+57 -1.8036915e+57 -4.775755e+57)
(1.9081561e+57 -1.4673459e+57 -5.5707586e+57)
(1.095346e+57 -8.961117e+56 -2.3081632e+57)
(3.7537221e+57 -1.6511103e+57 -4.5829414e+57)
(1.8612554e+57 6.1449578e+56 -3.2612435e+57)
(-3.8989459e+57 -1.9756227e+57 -5.9103346e+57)
(-2.9012545e+57 -9.1282531e+56 -3.7427742e+57)
(-8.8938182e+57 -3.4912466e+57 -4.7785418e+57)
(-5.3382941e+57 -2.6408829e+57 -3.2350913e+57)
(3.8341831e+56 -1.9096578e+57 -2.4729559e+57)
(1.6381408e+57 -1.3971578e+57 -3.2208751e+57)
(-7.1486459e+56 -2.5424449e+57 -2.7837467e+57)
(-1.1714101e+57 -3.4792169e+56 2.5209239e+57)
(-2.6038798e+57 -1.1230492e+57 -3.1632409e+57)
(-6.3155576e+57 -2.830973e+57 -2.5104702e+57)
(-3.5769855e+57 -3.1117932e+57 -3.1082839e+57)
(-2.4951839e+57 -2.4242621e+57 -3.4294593e+57)
(-3.9441863e+57 -2.4618752e+57 -3.9200615e+57)
(-1.8795247e+57 -2.7085507e+57 -1.2184467e+56)
(2.0852819e+56 -7.8117014e+56 -4.3503092e+57)
(-4.9327972e+57 -2.409764e+57 -1.9083979e+57)
(-8.3190367e+57 -2.0594869e+57 -3.9751199e+57)
(-7.1446084e+57 -2.6725417e+57 -1.9942671e+57)
(-7.3388465e+57 -2.8479122e+57 -7.8289652e+56)
(5.341487e+57 4.3449619e+57 -7.7192051e+57)
(-2.2034532e+57 2.173635e+57 -1.0658535e+58)
(5.227806e+57 4.8679354e+57 -6.6718232e+57)
(-9.4131932e+57 1.6255032e+57 -1.0224368e+58)
(2.5641133e+56 2.9201778e+57 -5.90954e+57)
(3.3929911e+57 2.1845655e+57 -5.0803377e+57)
(2.5984985e+57 -1.6906637e+57 -3.9973857e+57)
(-5.2544453e+57 -2.8105959e+57 -2.6454565e+57)
(-6.7928566e+57 -2.8597131e+57 -1.2412642e+57)
(-6.844042e+57 -3.9618303e+57 -7.4868056e+56)
(1.7474987e+57 2.9763841e+57 -8.990976e+57)
(7.9233733e+57 3.8056332e+57 -6.7044193e+57)
(1.9174884e+57 5.5226289e+56 -1.1075153e+58)
(6.5709199e+57 3.521547e+57 -5.8972213e+57)
(-2.1567858e+57 -7.4605078e+56 -8.9276064e+57)
(-1.3405826e+57 5.9752949e+56 -5.6985554e+57)
(5.9465501e+56 -3.1917494e+56 -4.5988205e+57)
(-2.7871801e+57 -1.2220304e+57 -3.0749325e+57)
(-3.7511425e+57 -5.0034969e+57 -5.4399449e+56)
(-6.4928196e+57 -4.3158332e+57 -1.1973101e+57)
(-6.3867118e+57 -3.8724934e+57 -8.8764286e+56)
(4.6012588e+57 9.325454e+57 -1.9254346e+57)
(3.7810316e+57 3.5134198e+57 -2.3347955e+57)
(-4.5639067e+57 2.5422131e+57 -7.0927335e+56)
(-3.6832844e+56 -1.4500985e+57 -6.6335232e+57)
(-1.4296224e+58 -1.6369557e+57 -3.428222e+57)
(-1.4273575e+58 1.6533218e+57 -1.7935769e+58)
(-1.21518e+58 -6.7056085e+56 -1.210487e+58)
(8.7795131e+56 -4.7219809e+57 -7.7000094e+57)
(3.3364334e+57 2.436329e+57 -8.8070668e+57)
(-3.4823346e+57 8.1945382e+57 7.3207194e+57)
(-1.9724023e+57 6.3993769e+57 7.6112681e+57)
(4.5251438e+57 3.9125048e+57 -1.2228625e+57)
(7.9146912e+57 1.8295436e+57 -1.408421e+57)
(2.1542367e+58 4.4305927e+58 -1.9524701e+58)
(3.6058924e+57 3.3024093e+57 -2.7349747e+57)
(-1.6794793e+58 -4.3317171e+57 3.8305914e+57)
(1.1765978e+57 -2.9234127e+57 -8.6000113e+57)
(-8.3915634e+57 1.0936494e+58 8.3054479e+57)
(-6.59688e+57 -1.4091581e+58 -2.5220955e+58)
(5.6648696e+57 -3.3896745e+57 -7.0369959e+57)
(4.5216289e+57 -9.9130519e+56 -6.1753406e+57)
(-3.390901e+57 -2.4886159e+57 -5.3474485e+57)
(-4.6104379e+55 8.2502686e+57 1.3448465e+58)
(1.7502828e+58 1.5008509e+58 2.0025347e+56)
(8.6278007e+57 2.0256679e+57 -6.7563866e+57)
(9.0452823e+57 1.5315118e+57 -3.8929701e+57)
(2.6903202e+57 3.9207856e+57 -1.5544645e+57)
(-7.01358e+57 -1.4309105e+58 2.7316877e+57)
(4.5319208e+57 1.2928425e+57 1.8810001e+56)
(-4.40027e+58 8.0789346e+57 -2.7501371e+58)
(1.1264165e+58 -3.8690027e+57 -1.1419242e+58)
(-8.6877442e+57 1.5846724e+58 -3.1360457e+57)
(2.8002572e+57 4.834145e+57 -4.7532801e+57)
(5.1067043e+57 -1.6252021e+57 -3.8074123e+57)
(-6.4781449e+56 -1.3546302e+58 -3.1346843e+56)
(-1.7117159e+58 5.5287222e+57 2.8151102e+57)
(1.1354921e+58 3.9239874e+57 -2.7917162e+56)
(7.1240507e+57 5.7178383e+57 -6.1706833e+57)
(-1.3237662e+58 -1.0932675e+56 -1.5732189e+57)
(-1.302622e+57 1.9800732e+57 -3.0721696e+57)
(6.9788828e+57 6.3810804e+57 -3.8153236e+57)
(-3.9668694e+57 -9.4993174e+56 -4.1545394e+57)
(-7.4805571e+57 3.4047331e+57 -2.8451115e+57)
(-5.5618575e+57 1.1397595e+55 -2.9910162e+57)
(9.0253926e+57 8.2538117e+57 -5.5005046e+57)
(3.0790858e+57 2.2442757e+57 -6.6068651e+57)
(1.0537773e+58 5.5364533e+57 -2.9714319e+57)
(7.3784529e+57 6.9214824e+57 1.3559816e+57)
(7.2263106e+57 4.0690432e+57 -4.6249635e+57)
(8.1146022e+57 6.2713386e+57 -5.6911663e+57)
(8.5122293e+57 6.0997516e+57 -4.0030782e+57)
(6.7674923e+57 3.2430552e+57 -4.1530409e+57)
(1.0009217e+58 6.3500722e+56 -2.1370306e+57)
(-3.6312752e+56 1.1217011e+57 -8.6845186e+57)
(2.8342432e+56 1.8247112e+57 -8.3570378e+57)
(5.4413179e+57 6.2167764e+57 -7.3186239e+57)
(5.1410626e+57 4.7075783e+57 -5.6757621e+57)
(2.2156309e+57 2.7383334e+57 -5.7562941e+57)
(-3.8806418e+57 -1.1950996e+57 -6.9133264e+57)
(-6.7824871e+57 -4.4571818e+56 -1.2736878e+58)
(2.9907284e+57 3.9443184e+57 -7.9297e+57)
(-5.4012832e+57 1.1558317e+56 -1.1299076e+58)
(5.2772922e+57 5.0069947e+57 -6.8336565e+57)
(-1.003531e+58 1.6976342e+57 -1.19667e+58)
(-8.8841236e+56 3.2790195e+57 -6.0030514e+57)
(-6.2687024e+56 1.4299465e+57 -5.5219965e+57)
(5.420441e+57 -1.3209328e+57 -1.8427002e+57)
(-1.2867351e+58 -3.2682419e+57 -4.7356735e+57)
(-4.4498156e+57 -1.5544653e+57 -2.5482879e+57)
(7.2166393e+57 -8.5049359e+56 -1.9847577e+57)
(3.4808864e+56 -1.7291045e+56 -4.3650016e+57)
(-2.2756137e+57 -2.7869382e+57 -3.0689229e+57)
(2.0671384e+57 3.3575475e+57 3.1084803e+57)
(1.0677372e+57 2.2324406e+57 -4.4913028e+57)
(-4.7603274e+57 -2.4343308e+57 -3.5433047e+57)
(-5.1901436e+57 -2.2969157e+57 -3.3154992e+57)
(-7.0938627e+57 -2.4101885e+57 -3.7457307e+57)
(-3.8772103e+57 -9.2978897e+56 -3.7098784e+57)
(-2.2877979e+57 -1.8733603e+57 -8.7111994e+55)
(2.4339631e+57 1.627156e+56 -4.7404849e+57)
(-6.4975694e+57 -1.2771156e+57 -2.7985991e+57)
(-7.5601093e+57 -1.0874627e+57 -2.0181467e+57)
(-7.1846439e+57 -2.3577674e+57 -2.8051343e+57)
(-8.2204678e+57 -3.0835113e+57 -1.0569633e+57)
(-3.9420402e+57 -2.2020842e+57 -3.3248132e+57)
(-3.7396121e+57 -2.5375342e+57 -2.4532657e+57)
(-1.0916547e+57 -1.8957456e+57 -1.6644184e+57)
(-7.9126168e+57 -1.088221e+57 -5.959499e+57)
(-6.4737899e+56 -2.2075156e+57 -1.5528166e+57)
(-7.1839658e+56 1.9842857e+57 -3.5636067e+57)
(-7.7373817e+57 -8.7502783e+56 -6.7471615e+56)
(-7.2525651e+57 -3.793002e+57 -6.7195103e+56)
(-8.3381949e+56 2.1562736e+57 -9.5641511e+57)
(6.9029772e+57 3.8276077e+57 -6.7365111e+57)
(2.1273489e+57 1.9573572e+56 -1.1743413e+58)
(5.9106643e+57 3.7933146e+57 -5.9369725e+57)
(-1.3582713e+57 -7.3710518e+56 -1.0501143e+58)
(2.0627724e+56 1.16897e+57 -5.5112788e+57)
(9.105564e+56 -2.7914431e+56 -4.5042502e+57)
(-2.2228117e+57 -1.2226344e+57 -3.3494879e+57)
(-2.5662812e+57 -5.2692497e+57 -1.4543152e+57)
(-6.2271519e+57 -4.3154614e+57 -7.8779665e+56)
(-6.3004745e+57 -3.9150263e+57 -6.8634098e+56)
(5.2113694e+57 4.3728466e+57 -7.402215e+57)
(6.4694348e+56 2.2288324e+57 -8.0927811e+57)
(8.4564334e+57 2.9641566e+57 -6.0847881e+57)
(5.0592506e+57 3.6463531e+57 -7.7541212e+57)
(7.142229e+57 2.1988958e+57 -5.1127732e+57)
(2.75527e+56 -1.7091709e+57 -4.4284419e+57)
(-1.4492756e+57 -2.7336384e+57 -2.5454555e+57)
(-3.1972767e+57 -6.3755711e+56 -2.3021299e+57)
(-3.7291957e+57 -4.1066314e+57 -1.1362611e+57)
(-6.0873542e+57 -4.1695155e+57 -9.3105225e+56)
(-6.3994126e+57 -3.2955051e+57 -8.7961727e+56)
(9.7227602e+57 2.7892056e+57 -4.4533344e+57)
(1.8767392e+58 3.3323851e+58 -1.8417912e+58)
(3.1736047e+57 3.0738144e+57 -5.1085532e+57)
(-2.0468003e+58 -3.6267094e+57 -2.634621e+57)
(-4.4525932e+57 -2.7475296e+57 -1.1028464e+58)
(-6.0011801e+57 7.0775036e+57 9.0104739e+56)
(-4.6222167e+57 -1.7318535e+57 -1.5031176e+58)
(2.2243377e+57 -3.5136004e+57 -6.2611734e+57)
(2.118024e+57 -6.0057541e+56 -8.943211e+57)
(-7.3654883e+57 1.0863145e+58 -8.5242837e+57)
(-8.3133864e+57 8.1544496e+57 2.1899504e+57)
(4.4598433e+57 1.242156e+58 -2.2244695e+57)
(1.3225284e+56 1.5398416e+57 -6.3923181e+57)