/*--------------------------------*- C++ -*----------------------------------*\
  =========                 |
  \\      /  F ield         | OpenFOAM: The Open Source CFD Toolbox
   \\    /   O peration     | Website:  https://openfoam.org
    \\  /    A nd           | Version:  7
     \\/     M anipulation  |
\*---------------------------------------------------------------------------*/
FoamFile
{
    version     2.0;
    format      ascii;
    class       volVectorField;
    location    "10000";
    object      UMean;
}
// * * * * * * * * * * * * * * * * * * * * * * * * * * * * * * * * * * * * * //

dimensions      [0 1 -1 0 0 0 0];

internalField   nonuniform List<vector> 
34124
(
(-1.1220387e+55 -2.3913492e+55 -1.0444519e+55)
(1.2904453e+54 -1.8774019e+55 -8.3406992e+54)
(2.8290379e+55 -1.3572228e+55 4.0870802e+54)
(-1.103532e+54 -1.0850275e+55 -1.1117321e+55)
(-1.1569535e+55 -2.2988796e+55 -1.2722468e+55)
(7.4084391e+53 -1.7246122e+55 -3.1863855e+54)
(5.9477746e+53 -1.7902871e+55 -8.0657341e+54)
(-2.3494171e+55 -1.1291092e+54 -7.6376923e+54)
(-2.1552832e+55 -1.3186033e+55 -1.4392661e+54)
(-1.0869014e+55 -2.7710353e+55 1.3209741e+54)
(-1.8137792e+55 -2.8386483e+55 -1.4258547e+55)
(-1.014673e+55 -2.1997745e+55 -1.1360667e+55)
(-4.6852232e+54 -2.3566139e+55 -9.898437e+54)
(-8.5948593e+54 -8.6640637e+54 -9.4624204e+54)
(5.0812678e+54 -2.103496e+55 -5.2585028e+54)
(-5.065106e+54 -2.8177855e+55 -3.7429396e+54)
(-9.9215382e+54 -2.5024065e+55 -1.0013503e+55)
(-4.0746971e+54 -7.1573765e+54 -4.4053848e+54)
(2.6339965e+55 -2.4003185e+55 1.1391112e+54)
(-3.4380358e+55 -2.3978043e+55 1.2587238e+54)
(-1.8671078e+55 -2.8822146e+55 -9.4665394e+54)
(-1.4681566e+55 -2.7747881e+55 -1.400627e+55)
(-2.7404364e+55 -2.6175454e+55 -9.7452298e+54)
(-1.5909396e+55 -1.3977981e+55 -1.3277249e+55)
(4.0700165e+54 -2.3479369e+55 -8.1451894e+54)
(-1.1343597e+55 -2.9551759e+55 -5.5616712e+54)
(-1.6744661e+55 -1.3276735e+55 -1.7355182e+55)
(-4.0069151e+54 -2.0261533e+55 -4.697096e+54)
(1.2860124e+55 -3.0210574e+55 -2.0967021e+54)
(-3.1881869e+55 -2.5374474e+55 -6.1907294e+54)
(-3.5315596e+54 -2.0295883e+55 -1.9334893e+54)
(-5.9698285e+54 1.0693715e+55 -3.3954611e+55)
(-3.6945182e+54 -1.8847828e+55 1.2381092e+55)
(-2.7039893e+55 -2.5611009e+55 4.8820439e+54)
(1.0961295e+55 -7.1514086e+54 4.9127214e+54)
(-2.5431674e+55 -3.2363759e+55 -4.3535439e+54)
(-9.8342467e+54 -2.772267e+55 -8.3365072e+54)
(-3.2417542e+55 -2.7929282e+55 -6.0902768e+54)
(-4.1385796e+55 -2.7329254e+55 -1.3895505e+55)
(-2.8512331e+55 -2.5333105e+55 -1.0966876e+55)
(-3.6724591e+55 -2.4585616e+55 -9.5362642e+54)
(-2.3886817e+55 -1.8014388e+55 -1.9229721e+55)
(-1.2382271e+55 -1.8130021e+55 -6.5386683e+54)
(1.8664283e+54 -2.8534306e+55 -4.4434975e+54)
(-4.5077739e+55 -2.9967413e+55 -5.9085734e+54)
(-2.5035014e+54 -1.8899645e+55 -5.6020792e+54)
(2.8761014e+54 9.5470444e+53 -2.9033238e+55)
(-9.1599863e+54 -3.1713816e+55 5.2692283e+54)
(-2.7860797e+55 -1.7399682e+55 -2.5827459e+54)
(5.7532529e+54 -1.2299698e+55 5.2061178e+54)
(4.7897881e+54 -2.3490527e+55 -2.257054e+54)
(1.8061615e+55 8.6823186e+53 -4.4669669e+55)
(-9.5274817e+54 3.1772791e+55 -1.464366e+55)
(-2.5018047e+55 -1.4249469e+55 4.2711981e+54)
(7.6190641e+54 1.5225003e+54 1.4367621e+55)
(2.1794006e+55 -6.3486405e+54 1.8568614e+55)
(-1.3160486e+55 -3.0619344e+55 -4.0482282e+54)
(-5.1075628e+55 -3.3598997e+55 -2.6890638e+54)
(-4.361683e+55 -2.9193736e+55 -2.0922624e+54)
(-3.3449863e+55 -2.658591e+55 -8.2419623e+54)
(-3.713075e+55 -2.6676647e+55 -6.62163e+54)
(-3.8626495e+55 -2.5517068e+55 -6.5874338e+54)
(-4.7058553e+55 -2.7084598e+55 -1.4780791e+55)
(-3.6219432e+55 -2.511718e+55 -1.1371283e+55)
(-4.2592958e+55 -2.4263882e+55 -1.0652894e+55)
(-4.332043e+55 -2.284923e+55 -1.2054464e+55)
(-1.4407083e+55 -1.6088933e+55 -8.8068163e+54)
(-1.1039115e+55 -2.6876634e+53 -2.2510645e+55)
(-1.2258169e+55 -2.5244433e+55 -3.7211815e+54)
(-3.9801876e+55 -2.508348e+55 5.1890842e+52)
(-5.9810956e+54 -2.0632647e+55 5.170033e+54)
(-6.7672043e+53 -2.268312e+55 -4.9221797e+54)
(1.271519e+55 -1.8535618e+54 -2.9897011e+55)
(-1.4767955e+55 3.057484e+55 -1.6365089e+55)
(-1.939225e+55 -7.2108549e+54 -4.4960016e+54)
(7.1174797e+54 -7.1969624e+54 7.9889747e+54)
(1.5737785e+55 -1.7860153e+55 1.7152214e+55)
(2.1338732e+54 -1.5807748e+55 1.8305057e+55)
(4.7001466e+55 2.1439484e+54 -1.9316007e+55)
(-1.9126788e+55 3.1697923e+55 -1.6725662e+55)
(-6.2555785e+54 4.1552631e+55 -1.9947379e+55)
(6.8366617e+54 3.3617929e+54 2.5600506e+55)
(2.6906658e+55 -2.2282635e+54 1.9667355e+55)
(-2.0047285e+55 -1.9897143e+55 2.1733782e+55)
(-2.4935762e+55 -2.8711267e+55 -5.2317255e+54)
(-5.4887184e+55 -3.2712383e+55 -2.1982589e+54)
(-4.0209566e+55 -2.8240685e+55 -3.4198052e+54)
(-2.6488041e+55 -2.8316454e+55 7.4720293e+54)
(-5.5357031e+55 -2.8392016e+55 6.8740434e+53)
(-5.1112933e+55 -2.5682519e+55 -5.5446323e+54)
(-2.8941943e+55 -2.426873e+55 -8.0304975e+54)
(-4.5056433e+55 -2.6362452e+55 -7.657955e+54)
(-4.5593719e+55 -2.527498e+55 -7.7538016e+54)
(-4.3193784e+55 -2.3277884e+55 -1.0007395e+55)
(-3.9236111e+55 -3.0423251e+54 -1.4600517e+55)
(-6.7771503e+55 -2.525353e+55 -1.3219622e+55)
(-4.977915e+55 -2.3578674e+55 -1.1779932e+55)
(-5.0582165e+55 -2.308738e+55 -1.2911482e+55)
(-4.6356016e+55 -2.3007908e+55 -1.5167802e+55)
(-1.9981779e+55 -1.9984249e+55 -1.06176e+55)
(-7.3273929e+54 6.5111266e+52 -1.9058993e+55)
(-3.1027722e+55 2.0884843e+55 -1.691217e+55)
(-3.2781626e+55 -1.8952129e+55 -2.0555682e+54)
(-5.1730385e+54 -1.3741524e+55 7.5860629e+54)
(-5.0305967e+54 -3.0483507e+55 1.8473306e+55)
(3.8737981e+54 -8.05363e+54 1.2982047e+55)
(2.2188236e+55 -1.5102507e+54 -1.1972676e+55)
(-1.5516565e+55 3.1370554e+55 -1.2629107e+55)
(4.8555616e+54 3.874881e+55 -1.6728306e+55)
(1.0778073e+55 -7.8448128e+53 1.3976804e+55)
(2.3467779e+55 -1.085134e+55 1.4995548e+55)
(-8.5546043e+54 -2.5804265e+55 2.6705348e+55)
(1.6497132e+55 8.2547466e+54 4.5802745e+55)
(1.8692998e+55 -7.42091e+54 1.0153642e+55)
(6.9266738e+54 2.3209605e+55 -3.8349566e+54)
(1.8554646e+55 2.7932923e+55 -1.0756277e+55)
(-6.3482183e+55 3.2270106e+55 -3.6323909e+55)
(2.1591152e+55 1.9328912e+55 1.4652312e+55)
(-4.9828346e+55 -3.6806537e+55 3.8656553e+54)
(-4.3856002e+55 -4.255207e+55 5.0544759e+55)
(-3.3492586e+55 -2.5134827e+55 -8.7170047e+54)
(-5.1844277e+55 -3.0526122e+55 -3.8613758e+54)
(-4.1454598e+55 -2.7993699e+55 -5.9506891e+54)
(-2.7968827e+55 -2.5409932e+55 7.6461575e+54)
(-4.8946584e+55 -2.8193655e+55 -2.5149431e+53)
(-4.5510198e+55 -2.5557682e+55 -6.8904668e+54)
(-4.105366e+55 -2.7689372e+55 4.5610227e+54)
(-1.5750431e+55 -3.3329782e+55 1.7840785e+55)
(-6.0273614e+55 -2.5202503e+55 -2.7537169e+54)
(-5.1338838e+55 -2.3615659e+55 -9.3851537e+54)
(-3.4796342e+55 -5.1256131e+54 -1.0527309e+55)
(-4.309931e+55 -2.5677017e+55 -1.0112279e+55)
(-4.5254354e+55 -2.5283534e+55 -9.3648461e+54)
(-5.1129973e+55 -2.3465698e+55 -1.1474224e+55)
(-4.7818004e+55 -2.3213692e+55 -1.454656e+55)
(-5.1513448e+55 8.5389904e+54 -1.6205071e+55)
(-7.113647e+55 -1.160842e+55 -1.3444269e+55)
(-7.0358535e+55 -2.2471246e+55 -1.4267921e+55)
(-5.5740158e+55 -2.2947278e+55 -1.3619315e+55)
(-5.0423539e+55 -2.3505932e+55 -1.550697e+55)
(-4.3801299e+55 -2.1778363e+55 -1.8015948e+55)
(-1.0894601e+55 -9.5333543e+54 6.948181e+54)
(-9.5954083e+54 -5.1633529e+54 -7.0760387e+54)
(-2.7013363e+55 2.1721308e+55 -1.1700753e+55)
(-9.7855416e+54 3.0028463e+55 -1.8594037e+55)
(8.259905e+53 -9.3981687e+54 1.4516881e+55)
(7.7313445e+54 -2.0362351e+55 1.5717027e+55)
(-2.2145108e+55 -3.1985001e+55 2.8777268e+55)
(1.5011627e+55 1.913264e+54 3.1680147e+55)
(4.8183076e+54 5.5901696e+54 2.7159892e+54)
(9.9446406e+53 2.9732283e+55 -7.8824322e+54)
(1.5714188e+55 2.8383591e+55 -2.9044507e+54)
(-4.1329464e+55 2.7321761e+55 -3.0460844e+55)
(1.9691089e+55 2.7867583e+54 1.3815263e+55)
(-7.6373488e+54 -3.1791587e+55 1.7329417e+55)
(-2.6919417e+55 -3.6698668e+55 4.9810658e+55)
(-2.1360094e+55 2.3464771e+55 2.6729665e+55)
(-3.0078307e+55 7.8766896e+54 2.8964206e+55)
(-1.2840734e+55 1.3621035e+55 1.5681717e+55)
(1.6650518e+55 1.6523342e+55 1.7702161e+55)
(-1.817404e+55 8.9863234e+54 -2.9659116e+55)
(-1.0297251e+55 1.532696e+55 -4.1489729e+55)
(-9.8895002e+53 -5.5361054e+55 3.5711901e+53)
(-2.1146957e+55 -4.6285102e+55 3.6148219e+55)
(-1.3859477e+56 -8.7370891e+55 -6.1900909e+54)
(-3.0608023e+55 -2.0909467e+55 3.054052e+52)
(-2.3226443e+55 -3.2159517e+54 -6.6654523e+54)
(-4.5962457e+55 -2.5662214e+55 -1.1016126e+55)
(-2.7987787e+55 -2.1995083e+55 7.943108e+54)
(-4.5240669e+55 -2.9028197e+55 -2.1145611e+54)
(-4.125232e+55 -2.5163762e+55 -8.7371489e+54)
(-3.7581812e+55 -2.6333363e+55 3.0458751e+54)
(-1.7652773e+55 -2.9303933e+55 1.7483485e+55)
(-5.5020737e+55 -2.5311264e+55 -4.5650457e+54)
(-5.1915891e+55 -2.3750394e+55 -1.0764207e+55)
(-2.9340147e+55 -2.8551175e+55 1.2305976e+55)
(-5.1502475e+55 -2.4902411e+55 -1.5912102e+54)
(-2.632001e+55 -3.357687e+55 2.6957224e+55)
(-6.1071453e+55 -2.3372253e+55 -7.0221296e+54)
(-5.0228889e+55 -2.2967997e+55 -1.4321457e+55)
(-4.6569144e+55 1.0055965e+55 -1.3321687e+55)
(-6.1837364e+55 -1.1236736e+55 -1.3128474e+55)
(-5.4348139e+55 -2.4121922e+55 -1.3015389e+55)
(-5.0729351e+55 -2.3370112e+55 -1.2248107e+55)
(-5.3043793e+55 -2.3490373e+55 -1.5138442e+55)
(-4.6845928e+55 -2.2838286e+55 -1.7202585e+55)
(-3.0955183e+55 1.976114e+55 -1.8464469e+55)
(-6.5794179e+55 -4.5288984e+54 -1.567084e+55)
(-7.6080839e+55 -1.7103508e+55 -1.4967823e+55)
(-7.2555834e+55 -2.1639655e+55 -1.4408729e+55)
(-5.6071211e+55 -2.3448092e+55 -1.5795569e+55)
(-4.8907239e+55 -2.1233018e+55 -1.8566844e+55)
(-5.3527118e+55 -2.1248459e+55 -2.1123777e+55)
(-2.2279025e+54 -3.8381944e+54 2.3593778e+55)
(-1.1894693e+55 4.2980623e+54 2.2657258e+54)
(-1.3503952e+55 2.4839076e+55 -7.1422204e+54)
(-2.4322464e+54 2.3117523e+55 -7.1855266e+54)
(-4.8318618e+55 1.3233335e+55 -2.8255256e+55)
(-2.9748385e+54 -1.1903963e+55 2.0612048e+55)
(-2.200993e+55 -3.2375931e+55 3.0826837e+55)
(-2.7527767e+55 -3.4090379e+55 4.7974022e+55)
(-1.7695859e+55 2.2527419e+55 3.0796105e+55)
(-1.540213e+54 -4.0065071e+54 3.1711892e+55)
(-1.5413456e+55 1.9857885e+55 8.9911778e+54)
(2.970392e+55 1.6657332e+55 1.3917614e+55)
(-2.7123866e+55 7.5938439e+54 -3.5378991e+55)
(3.1797641e+55 3.196005e+55 -4.8612638e+55)
(1.6636521e+55 -3.9958429e+55 1.8958666e+55)
(-1.4545353e+55 -4.4002027e+55 3.5456139e+55)
(-8.4860435e+55 -5.0202027e+55 -3.6691645e+53)
(-1.5219062e+54 -1.9651135e+54 2.548872e+55)
(3.3887046e+54 1.9069194e+55 2.8854281e+55)
(2.2352355e+55 -4.7296111e+55 -4.0425017e+54)
(-1.7461121e+55 1.3417453e+55 -5.974969e+54)
(-4.0937143e+54 -9.2603094e+54 -2.1179501e+55)
(-1.5920583e+55 6.0901494e+54 -4.1396703e+55)
(-7.5964308e+54 -9.9234957e+54 -3.5112833e+55)
(-2.8532147e+55 -4.8064175e+55 3.175505e+55)
(-3.848152e+55 -1.0170558e+56 -4.0441551e+54)
(5.1862874e+54 -5.8037372e+54 -1.9162084e+55)
(-2.3479718e+55 -1.5042749e+55 9.7175857e+54)
(-4.7981992e+55 -2.3017831e+55 -4.7206198e+54)
(-4.0659374e+55 -6.9441938e+54 -3.3274044e+54)
(-3.7649333e+55 9.1162134e+54 -8.7659561e+54)
(-4.9326318e+55 -9.894439e+54 -1.1206066e+55)
(-5.9140114e+55 -2.3622969e+55 -1.4001531e+55)
(-3.5056769e+55 -2.6033421e+55 9.1495774e+53)
(-2.3262934e+55 -2.5979318e+55 1.8283752e+55)
(-4.6574997e+55 -2.5219456e+55 -5.8065292e+54)
(-4.7942989e+55 -2.3284332e+55 -1.1745229e+55)
(-2.556919e+55 -2.6557413e+55 1.0702748e+55)
(-4.5090044e+55 -2.4129659e+55 -2.8901737e+54)
(-2.5576711e+55 -3.4530322e+55 3.2468451e+55)
(-5.7682816e+55 -2.3563289e+55 -8.5788506e+54)
(-5.499182e+55 -2.3058587e+55 -1.509271e+55)
(-3.9016174e+55 -2.6819098e+55 4.523695e+54)
(-3.2411206e+55 -2.7675856e+55 1.4002663e+55)
(-5.4359417e+55 -2.4503576e+55 -6.6006291e+54)
(-2.5968384e+55 -3.072364e+55 3.5387868e+55)
(-6.3233975e+55 -2.2053056e+55 -1.3200053e+55)
(-4.886411e+55 -2.3290876e+55 -1.6261766e+55)
(-1.453583e+55 1.9520517e+55 -1.435927e+55)
(-5.168073e+55 1.9691547e+54 -1.4509472e+55)
(-7.6391553e+55 -1.7058558e+55 -1.6380505e+55)
(-6.3568208e+55 -2.2263059e+55 -1.3944891e+55)
(-5.0670918e+55 -2.3643289e+55 -1.5375469e+55)
(-5.0829755e+55 -2.2219908e+55 -1.7956541e+55)
(-5.7376725e+55 -2.3047876e+55 -1.934587e+55)
(-4.1398155e+55 3.2563097e+54 -1.7107089e+55)
(-5.9754314e+55 3.3396805e+54 -2.382949e+55)
(-7.2524992e+55 -1.4872149e+55 -1.7194517e+55)
(-7.5672739e+55 -2.0003173e+55 -1.5450645e+55)
(-7.478535e+55 -2.3504879e+55 -1.5498157e+55)
(-5.7532335e+55 -2.1070377e+55 -1.8479417e+55)
(-5.4390362e+55 -2.0291133e+55 -2.1628877e+55)
(-6.12028e+55 -1.6903865e+55 -1.7108476e+55)
(-2.3244616e+55 9.2327516e+54 2.4325199e+55)
(3.0347519e+54 -7.4906407e+54 3.3083944e+55)
(-2.6833564e+55 1.8069229e+55 3.832073e+54)
(2.7179059e+55 1.5498511e+55 6.8058638e+54)
(-2.518112e+55 1.9646942e+54 -2.3410071e+55)
(2.1913842e+55 3.5141927e+55 -4.3610232e+55)
(8.824519e+54 -3.0853134e+55 3.2200808e+55)
(-1.4114924e+55 -3.6758303e+55 4.0056749e+55)
(-6.2081428e+55 -3.4286594e+55 6.4017904e+54)
(3.8061667e+54 -6.7874259e+54 2.0555419e+55)
(2.2281412e+55 2.1061894e+55 3.2569552e+55)
(1.9450876e+55 -4.5804079e+55 9.46164e+54)
(2.0652781e+55 9.3471721e+54 -1.360771e+55)
(1.0271576e+54 -1.8131683e+55 -2.0859751e+55)
(1.4917556e+54 1.4324082e+55 -5.9279329e+55)
(1.0441735e+55 1.2652075e+55 -3.8456803e+55)
(-2.156954e+55 -4.5984521e+55 3.4531258e+55)
(-5.0466396e+55 -6.7237839e+55 -9.4417939e+53)
(6.2739041e+53 -5.5546978e+54 -2.0830478e+55)
(-9.2733773e+54 2.9415459e+54 2.2494596e+55)
(3.4529829e+55 -2.394163e+55 5.0721885e+55)
(-3.7380364e+54 -4.8822909e+54 -2.5449164e+55)
(-3.1527203e+54 -4.8731734e+55 3.7891519e+55)
(-1.6470602e+55 -1.296415e+55 -3.3935368e+55)
(-3.6455221e+53 -4.5621118e+53 -5.2797077e+55)
(1.7240347e+55 9.8999776e+53 -3.4440618e+55)
(5.5986726e+54 1.2100301e+55 -2.367323e+55)
(-1.5434382e+55 -6.7058641e+55 -4.1564755e+54)
(-2.4788081e+55 -1.1832986e+55 5.5454373e+54)
(4.8017103e+55 -9.4249867e+54 -5.9393911e+54)
(-1.0517874e+55 -1.9987439e+55 2.4793044e+55)
(-4.0603625e+55 -2.2246884e+55 -1.4855417e+54)
(-2.9509709e+55 -8.0416113e+54 7.8727334e+54)
(-6.0871135e+55 -1.5453048e+55 -9.6344578e+54)
(-6.1348688e+55 -2.1738123e+55 -1.0847456e+55)
(-3.1953428e+55 2.4369477e+54 -5.7411897e+54)
(1.3970626e+55 1.3507149e+55 -3.8640215e+54)
(-4.356148e+55 1.2776663e+54 -1.2126641e+55)
(-6.9145192e+55 -1.7152144e+55 -1.6029183e+55)
(-5.6767332e+55 -2.1229599e+55 -1.4736217e+55)
(-2.5709187e+55 -2.6793691e+55 8.3905369e+54)
(-3.8676717e+55 -2.448657e+55 -4.4015479e+54)
(-1.0676304e+55 -3.3303551e+55 3.1988889e+55)
(-4.6515781e+55 -2.2990107e+55 -9.4683061e+54)
(-5.0997255e+55 -2.2835868e+55 -1.5396367e+55)
(-3.1415762e+55 -2.5631776e+55 3.5818725e+54)
(-2.5569482e+55 -2.788215e+55 1.3820286e+55)
(-5.394268e+55 -2.4427795e+55 -9.2370101e+54)
(-6.9236683e+54 -2.9136467e+55 3.881675e+55)
(-6.1138924e+55 -2.2563242e+55 -1.4450998e+55)
(-5.0196756e+55 -2.2266562e+55 -1.7110385e+55)
(-3.561663e+55 -2.578324e+55 5.0669845e+54)
(-4.590377e+55 -2.6905484e+55 -2.9909742e+54)
(-2.7515235e+55 -2.4178293e+55 1.2395372e+55)
(-5.4503e+55 -2.3967031e+55 -1.1059736e+55)
(-3.9558983e+55 -3.2029719e+55 1.7238767e+55)
(-6.948893e+55 -2.0767065e+55 -1.6813721e+55)
(-5.8893274e+55 -2.4972488e+55 -1.6297595e+55)
(-1.9426154e+55 5.1033956e+54 -1.4466303e+55)
(-3.0060238e+55 7.6451087e+54 -2.0629055e+55)
(-6.2575438e+55 -1.2654774e+55 -1.8843555e+55)
(-7.1316008e+55 -1.9785475e+55 -1.6498676e+55)
(-7.0806481e+55 -2.4216552e+55 -1.598726e+55)
(-5.0920214e+55 -2.2394068e+55 -1.8219794e+55)
(-5.8842845e+55 -2.2406181e+55 -2.022135e+55)
(-6.460403e+55 -1.9706651e+55 -1.7005194e+55)
(-6.1331292e+55 -5.3958627e+54 -2.1655491e+55)
(-5.4323594e+55 -1.1893155e+55 -1.7170546e+55)
(-1.5676641e+55 3.2907998e+55 -2.8512042e+55)
(-7.1191205e+55 -1.9635924e+55 -1.8155572e+55)
(-7.6584911e+55 -2.3017264e+55 -1.6406568e+55)
(-7.5668298e+55 -2.3695066e+55 -1.6258849e+55)
(-5.585955e+55 -1.9973205e+55 -2.1862752e+55)
(-6.2054807e+55 -1.6205845e+55 -1.8571034e+55)
(-6.7323668e+55 -1.4840817e+55 -1.5899076e+55)
(-3.2061618e+54 -1.0926751e+55 2.1336536e+55)
(8.8329347e+54 7.5355901e+54 2.4764109e+55)
(1.7342418e+55 -3.4961133e+55 2.4755671e+55)
(2.4984461e+55 9.8745676e+54 -1.0617617e+55)
(-4.2473746e+54 -1.6252464e+55 -2.1054071e+55)
(-1.3702547e+55 1.9006894e+55 -4.3875783e+55)
(-2.0950152e+54 2.1676586e+55 -4.1393482e+55)
(-2.5642531e+55 -3.9428875e+55 3.4678549e+55)
(-3.1858035e+55 -4.247081e+55 1.7293987e+54)
(-2.3218393e+55 -1.5473423e+55 -1.2906834e+55)
(1.6089214e+55 1.606659e+54 3.5108201e+55)
(2.2760987e+55 -2.2237322e+55 5.0256975e+55)
(1.1123482e+55 -1.0084711e+55 -1.6956204e+55)
(-4.4673059e+54 -4.2319922e+55 4.2041451e+55)
(-2.5402211e+54 -2.1596889e+55 -3.5182347e+55)
(1.0057496e+55 6.3655937e+54 -5.065817e+55)
(2.8491881e+55 1.8883932e+55 -3.9277833e+55)
(1.4233766e+55 7.955692e+54 -2.4009353e+55)
(-2.4243873e+55 -4.9170218e+55 5.2350701e+54)
(2.6285943e+54 -3.2451608e+54 1.0655299e+55)
(4.4358266e+55 -1.6741246e+55 -8.9594592e+54)
(1.4099093e+55 -1.3791308e+55 1.5957486e+55)
(2.8664765e+54 -7.4996402e+54 -1.3143502e+55)
(-2.3041602e+55 -3.4767448e+55 4.8325153e+55)
(1.929935e+55 -1.4587953e+55 -2.7521395e+55)
(-6.5775234e+54 -4.6825918e+55 1.3429883e+55)
(3.3473473e+54 -9.1072546e+54 -4.283467e+55)
(3.1953285e+55 -1.1475436e+55 -3.467616e+55)
(3.1489713e+55 2.4886378e+55 -2.6112994e+55)
(-4.1022511e+55 1.6257689e+55 -9.7901656e+54)
(3.1945291e+54 -1.9948834e+55 -1.9406856e+55)
(4.9826261e+55 3.1665287e+54 -9.1936306e+54)
(1.1258852e+56 2.6086305e+54 -2.0918131e+55)
(-2.1528526e+55 -2.4165969e+55 9.3211451e+54)
(2.7929029e+54 -2.8367199e+55 3.0376117e+55)
(-2.5030114e+55 -1.8791195e+55 1.578235e+55)
(-4.3095273e+55 -1.8148492e+55 -5.2229356e+54)
(-5.1120448e+55 -2.0723103e+55 -1.0720765e+55)
(-4.41867e+54 -5.9935557e+54 9.3338715e+54)
(-3.0476025e+55 -7.9495507e+54 -1.4542968e+55)
(-7.1040059e+55 -2.0252233e+55 -1.6121905e+55)
(-6.6373318e+55 -2.1394836e+55 -1.5761529e+55)
(2.138769e+55 6.5558353e+54 -1.206853e+55)
(1.0074798e+55 6.3243211e+54 -4.3475133e+54)
(-5.0773445e+54 3.1490632e+54 -1.6305709e+55)
(-4.9335052e+55 -9.73658e+54 -1.7117901e+55)
(-6.9062557e+55 -2.1049499e+55 -1.796731e+55)
(-5.5406722e+55 -2.2834017e+55 -1.6834853e+55)
(-2.4756504e+55 -2.5470636e+55 3.0760024e+54)
(-1.8258826e+55 -2.749626e+55 1.5076472e+55)
(-4.27966e+55 -2.3768036e+55 -9.9507158e+54)
(-1.8423938e+55 -2.7577418e+55 3.3654296e+55)
(-5.1920111e+55 -2.2516243e+55 -1.5692046e+55)
(-4.9795778e+55 -2.2277175e+55 -1.7900862e+55)
(-2.7930868e+55 -2.5893179e+55 3.0163294e+54)
(-4.3529784e+55 -2.7638746e+55 -4.8929347e+54)
(-8.5423444e+54 -2.1567868e+55 1.5981993e+55)
(-5.2381937e+55 -2.4855723e+55 -1.3034248e+55)
(-2.1053515e+55 -3.3804009e+55 1.0517484e+55)
(-6.3368011e+55 -2.2275223e+55 -1.9441096e+55)
(-6.1490912e+55 -2.4725081e+55 -1.7927982e+55)
(-3.3122683e+55 -2.6755144e+55 1.3474921e+54)
(-2.9950657e+55 -2.2900454e+55 7.7124374e+53)
(-4.9126254e+55 -2.6690073e+55 -8.5391614e+54)
(-3.4153773e+55 -2.3129849e+55 -1.4668621e+54)
(-6.0533803e+55 -2.4434388e+55 -1.7227621e+55)
(-2.621368e+55 -2.3392795e+55 1.1100567e+55)
(-6.1122047e+55 -2.4710187e+55 -1.765393e+55)
(-6.5552625e+55 -2.2899478e+55 -1.9344831e+55)
(-4.3920939e+55 -1.9504292e+54 -2.3237956e+55)
(-4.3756599e+55 -1.0516095e+55 -1.9505691e+55)
(-2.0871924e+55 2.5416098e+55 -2.2071256e+55)
(-6.4069606e+55 -2.0115878e+55 -2.1472289e+55)
(-6.8816087e+55 -2.3536226e+55 -1.8190497e+55)
(-6.6471691e+55 -2.4639256e+55 -1.8141773e+55)
(-5.2707656e+55 -2.2514427e+55 -2.1250862e+55)
(-6.407059e+55 -1.8947366e+55 -1.8737213e+55)
(-6.4509954e+55 -1.5792885e+55 -1.5736648e+55)
(-6.2165067e+55 -1.0977381e+55 -2.0418414e+55)
(-3.8599517e+55 1.5156865e+55 -1.9601448e+55)
(-5.0524056e+55 -1.4620746e+55 -1.8280375e+55)
(-4.368651e+54 3.5584091e+55 -3.5183962e+55)
(-7.2526937e+55 -2.2851162e+55 -1.851498e+55)
(-7.3840368e+55 -2.3350565e+55 -1.8125876e+55)
(-6.0898499e+55 -2.0634266e+55 -2.1015412e+55)
(-6.2904658e+55 -1.6060319e+55 -2.0844819e+55)
(-6.8022068e+55 -1.3932387e+55 -1.6443498e+55)
(-6.6750123e+55 -1.4844908e+55 -1.729346e+55)
(2.4261298e+53 -6.4080067e+53 3.4481336e+55)
(2.5277438e+54 -2.4675752e+55 4.2653004e+55)
(8.8246895e+54 -6.7120559e+54 8.6304975e+53)
(-1.201186e+55 -3.3983985e+55 3.9486448e+55)
(2.648255e+54 -1.9638623e+55 -2.8242454e+55)
(-1.5782469e+55 1.288492e+55 -4.0175802e+55)
(1.6963418e+55 2.4554475e+55 -3.625235e+55)
(-3.8031845e+54 9.5672927e+54 -2.940817e+55)
(-1.3591295e+55 -3.9324491e+55 5.4188541e+54)
(-6.4223801e+54 -6.5461976e+54 4.5238666e+54)
(3.2933166e+55 -2.0645336e+55 -1.2930207e+55)
(3.3401961e+55 -1.6353617e+55 4.1644378e+55)
(8.0791396e+54 -9.8666432e+54 -4.1853719e+54)
(-1.4274472e+55 -3.0854931e+55 5.2663312e+55)
(-9.2244527e+53 -2.675451e+55 -2.8086773e+55)
(2.1253348e+55 -3.5476052e+55 4.2497196e+54)
(-3.6320739e+53 -7.3336828e+54 -3.4284757e+55)
(3.0132092e+55 1.1335946e+55 -3.3326156e+55)
(3.4106881e+55 1.431401e+55 -2.0036529e+55)
(-2.3091731e+55 2.2133689e+55 -6.2024759e+54)
(2.586992e+54 -5.8156204e+54 -8.1696553e+54)
(5.476179e+55 1.6361655e+54 -6.8673952e+54)
(6.036218e+55 -1.4662572e+55 -2.8223031e+55)
(4.8442346e+55 1.6657532e+55 -2.3277298e+55)
(2.5257207e+55 -1.4214407e+55 1.6662221e+55)
(-2.1780105e+55 2.3743948e+55 6.5241268e+53)
(-6.9554708e+54 -5.8777375e+55 1.2504821e+55)
(4.7545248e+54 1.8265776e+55 -3.9090704e+54)
(6.1976307e+54 6.0425854e+54 -3.4729438e+55)
(1.3055709e+55 -8.1753989e+54 -1.6464345e+55)
(3.8449981e+55 2.0408542e+55 -7.9522098e+54)
(-5.3923681e+55 1.9827916e+55 -2.6507813e+55)
(-2.8113225e+55 -1.2833429e+55 -3.5266504e+55)
(4.5045262e+55 2.1904683e+54 -2.5063411e+55)
(7.7978223e+55 6.1322579e+55 -2.1978192e+55)
(3.8764752e+55 -1.2086936e+55 -7.8106698e+54)
(-3.2482307e+55 -2.223634e+55 -3.1560786e+53)
(-3.2362566e+54 -2.3903644e+55 2.0646892e+55)
(-4.9895872e+55 -2.3629724e+55 -3.4865877e+54)
(1.0860744e+54 -2.4642626e+55 3.7315662e+55)
(-1.8827945e+55 -2.3756306e+55 3.1285788e+55)
(-6.2852833e+54 5.6638468e+53 2.2842781e+55)
(-1.850183e+55 -1.3424094e+55 -6.8983794e+54)
(-4.5358093e+55 -1.9382056e+55 -1.312295e+55)
(-6.2771005e+55 -2.4072641e+55 -1.6890457e+55)
(-1.1131664e+55 -7.5091336e+54 -5.6042633e+53)
(3.3940254e+55 4.3107792e+54 -9.3159743e+54)
(-3.7836634e+55 -1.5870097e+55 -2.0183789e+55)
(-6.8282512e+55 -2.3496328e+55 -1.9862946e+55)
(-6.5089884e+55 -2.4463338e+55 -2.0542024e+55)
(-9.8733132e+53 -4.8439911e+54 -1.7970412e+55)
(-1.4250552e+55 3.1184356e+53 -1.7404196e+55)
(-5.3927271e+53 -1.374763e+54 -1.1649878e+55)
(-7.1786579e+54 1.9083989e+55 -2.0571347e+55)
(-5.8300131e+55 -1.9811028e+55 -2.2642635e+55)
(-6.3727468e+55 -2.4236031e+55 -2.0240849e+55)
(-5.0718467e+55 -2.4479023e+55 -1.7857917e+55)
(-2.0584458e+55 -2.4436803e+55 1.22143e+54)
(-3.0272599e+55 -2.628536e+55 -2.2834769e+54)
(2.767206e+54 -1.7594853e+55 1.6564387e+55)
(-4.5758807e+55 -2.5338954e+55 -1.4728109e+55)
(-7.6787338e+54 -3.3418264e+55 7.5546118e+54)
(-5.6031876e+55 -2.1691036e+55 -2.1601929e+55)
(-5.6493321e+55 -2.3797858e+55 -2.0063953e+55)
(-2.9554272e+55 -2.7470741e+55 -8.652043e+53)
(-1.7101863e+55 -2.2018362e+55 4.910083e+53)
(-4.4307916e+55 -2.8177804e+55 -9.052818e+54)
(1.4862094e+54 -2.1829236e+55 3.6963205e+54)
(-5.3303128e+55 -2.5953895e+55 -1.8867761e+55)
(-1.0622936e+55 -1.291558e+55 1.0367542e+55)
(-5.6261771e+55 -2.5423285e+55 -1.8862039e+55)
(-7.0385087e+55 -2.1607246e+55 -1.7851911e+55)
(-2.2777433e+55 -2.4444813e+55 4.7193573e+53)
(-3.7188785e+55 -2.5640098e+55 -3.87113e+54)
(-3.6361073e+55 -2.0739769e+55 -1.037474e+55)
(-5.3668686e+55 -2.6426584e+55 -1.3636958e+55)
(9.977791e+54 -2.1095618e+55 -4.5458555e+54)
(-5.9979289e+55 -2.5305093e+55 -1.677184e+55)
(5.2146348e+54 -1.9498422e+55 -3.2479912e+54)
(-6.2991176e+55 -2.5533046e+55 -1.6498965e+55)
(-5.9276562e+55 -1.6365055e+55 -1.5024983e+55)
(-4.5879546e+55 -9.4612389e+54 -2.4797769e+55)
(-3.3553218e+55 1.1465008e+55 -1.9311729e+55)
(-3.6756448e+55 -1.1856048e+55 -2.2598105e+55)
(9.2379543e+54 3.3905175e+55 -2.2630042e+55)
(-6.2699037e+55 -2.2547348e+55 -2.1989188e+55)
(-6.4366646e+55 -2.3879185e+55 -2.1129891e+55)
(-5.7284383e+55 -2.231404e+55 -2.0745036e+55)
(-6.1344663e+55 -1.959868e+55 -2.1513149e+55)
(-6.3657814e+55 -1.5111121e+55 -1.6206143e+55)
(-6.515611e+55 -1.5261841e+55 -1.7963834e+55)
(-5.5904583e+55 -3.6548492e+54 -1.6124555e+55)
(-5.5864566e+55 -1.1265535e+55 -2.0132784e+55)
(2.5640206e+54 3.1086109e+55 -3.2687836e+55)
(-5.4263378e+55 -1.7701212e+55 -1.8689693e+55)
(-7.5729933e+54 2.2168717e+55 -3.3225992e+55)
(-7.1956266e+55 -2.2414298e+55 -2.0735844e+55)
(-7.0889261e+55 -1.8691212e+55 -2.0376117e+55)
(-6.5689041e+55 -1.1671445e+55 -2.2170648e+55)
(-6.8122621e+55 -1.6384286e+55 -1.6363287e+55)
(-6.7436202e+55 -1.4982264e+55 -1.6721954e+55)
(-5.7700162e+55 -1.1052684e+55 -1.4049333e+55)
(2.4601588e+55 -7.7728702e+54 4.5826819e+55)
(1.5946045e+54 -5.0569052e+54 9.0894101e+54)
(-1.2122098e+55 -3.2432234e+55 4.1054458e+55)
(-1.7287599e+55 -1.4159861e+55 -1.9196125e+55)
(2.0093246e+55 -3.0295305e+55 2.4796954e+54)
(-2.4863351e+55 1.6108645e+54 -2.6478793e+55)
(1.177811e+55 1.530637e+55 -2.7931976e+55)
(1.3232543e+55 1.2140078e+55 -2.0629153e+55)
(-4.5483406e+55 2.818884e+55 -1.2593871e+55)
(2.8764652e+54 -6.6562975e+54 -9.9607025e+54)
(2.911923e+55 -3.8996116e+54 -1.0107858e+55)
(2.3007313e+55 -2.839886e+55 -3.9705017e+55)
(4.5707486e+55 1.5514493e+55 -7.0018947e+54)
(3.8929467e+55 -8.8120395e+54 3.2498174e+55)
(-1.1263463e+55 -1.5586032e+54 6.2058846e+54)
(1.9443012e+55 -3.9169975e+55 1.8327086e+55)
(-1.2768944e+54 1.7403055e+55 -1.8268022e+54)
(2.019413e+55 1.5652636e+55 -3.3560997e+55)
(1.6276092e+55 6.2148789e+54 -1.2257525e+55)
(2.9936031e+55 9.4681666e+54 -2.5934285e+54)
(-1.1041335e+55 1.9432372e+55 -7.0830328e+54)
(-3.4829974e+55 -7.4474277e+54 -2.0657834e+55)
(4.4668565e+55 3.5521117e+54 -1.7718694e+55)
(7.1961638e+55 3.109343e+55 -2.8375591e+55)
(4.0539929e+55 -1.5975532e+55 -1.9204585e+55)
(3.5427664e+55 -1.2906182e+55 2.5658565e+54)
(-4.9489145e+55 2.3948782e+55 -5.4392895e+55)
(1.1116564e+55 -4.5701393e+55 2.2794249e+54)
(-2.4515141e+55 1.9783585e+55 -8.6490763e+53)
(-2.9074304e+55 7.4155393e+54 -7.0182568e+55)
(1.4569607e+55 4.1113825e+54 1.199575e+55)
(6.2280075e+55 3.284903e+55 -3.4507839e+55)
(1.5012093e+55 2.8733593e+55 9.1404142e+54)
(-7.4980578e+54 1.4132724e+54 -2.0125602e+55)
(2.457564e+55 -1.2204421e+55 2.1902863e+54)
(2.1934056e+54 -1.364378e+55 -2.2901404e+55)
(7.7575669e+55 3.1177371e+55 -2.404624e+55)
(7.8176901e+55 1.4181445e+55 -2.7311443e+54)
(4.0828588e+54 -1.0762592e+55 3.8884414e+54)
(-1.2205496e+55 -2.1746333e+55 4.1071389e+54)
(-5.002436e+55 -2.3431907e+55 -1.0803196e+55)
(-4.8800423e+55 -2.7549682e+55 -9.0748767e+54)
(-3.248107e+55 -2.3864025e+55 5.8216281e+54)
(1.8819155e+55 -1.235221e+55 2.1185441e+55)
(-1.4234327e+55 -7.7091915e+54 2.6459375e+54)
(2.1137963e+55 -2.1167847e+55 6.4824116e+54)
(-4.610502e+54 -2.6267695e+55 2.9096437e+55)
(2.3450382e+55 7.029803e+53 3.6241954e+55)
(5.6074961e+53 -4.947921e+54 1.8892712e+55)
(-2.7925129e+55 -1.2535848e+55 -9.7157568e+54)
(-3.2933456e+55 -1.7414803e+55 -1.7197777e+55)
(-4.6603737e+55 -2.1959006e+55 -1.7458228e+55)
(-6.0918055e+55 -2.8215778e+55 -1.9723605e+55)
(-2.8415674e+55 -8.6428723e+54 -1.0026614e+55)
(-5.4110646e+54 -9.4802958e+54 -1.6025202e+55)
(3.1160241e+55 5.4574582e+54 -9.4091437e+54)
(-5.2627181e+55 -2.1610799e+55 -2.4874233e+55)
(-6.4200838e+55 -2.5109381e+55 -2.455346e+55)
(-6.6057348e+55 -2.6134341e+55 -2.2595578e+55)
(-4.9230307e+55 7.0691239e+54 -2.0259579e+55)
(-3.0252191e+55 -8.0076554e+54 -2.1245605e+55)
(-2.0603393e+55 4.7278077e+54 -1.5024665e+55)
(-1.5122298e+55 -7.7052004e+54 -2.1562153e+55)
(4.0004749e+54 2.638201e+55 -1.6252601e+55)
(-5.9662229e+55 -2.2933168e+55 -2.3610754e+55)
(-5.624741e+55 -2.4024003e+55 -2.1698176e+55)
(-5.5012753e+55 -2.4048293e+55 -2.1118456e+55)
(-1.9348501e+55 -2.4325635e+55 -2.7652447e+53)
(-4.9116914e+54 -1.7617441e+55 -3.1710218e+53)
(-3.9668173e+55 -2.8148965e+55 -9.9277081e+54)
(9.9489325e+54 -2.0706222e+55 8.9906508e+53)
(-4.6423361e+55 -2.5913356e+55 -2.037987e+55)
(2.1237105e+54 -8.0920686e+54 -3.2476204e+54)
(-5.3736206e+55 -2.3397171e+55 -1.9163154e+55)
(-7.1900757e+55 -2.2391987e+55 -1.7356842e+55)
(-2.049722e+55 -2.4858483e+55 -1.1325571e+54)
(-3.4147588e+55 -2.745446e+55 -6.1610361e+54)
(-5.6755174e+54 -1.8704981e+55 -4.3062733e+54)
(-4.6533576e+55 -2.739202e+55 -1.4391147e+55)
(1.5742755e+55 -1.1359756e+55 -1.1936599e+55)
(-6.3901681e+55 -2.4053602e+55 -1.9330777e+55)
(7.9267145e+54 -4.4476504e+54 -4.8924427e+54)
(-6.0774804e+55 -2.5348922e+55 -1.8558748e+55)
(-6.0817113e+55 -1.7813017e+55 -1.517363e+55)
(-1.8151569e+55 -2.488959e+55 -7.5078163e+53)
(-2.8234083e+55 -2.0407355e+55 -6.4971491e+54)
(-3.6779956e+55 -2.5339559e+55 -9.3181528e+54)
(-2.0107103e+55 -1.8405553e+55 -1.5593858e+55)
(-5.4432458e+55 -2.5498597e+55 -1.9828788e+55)
(-1.6893978e+54 -2.6140249e+55 -3.135815e+55)
(-5.5483532e+55 -1.7194393e+55 -1.552832e+55)
(-5.9947999e+55 -1.4554398e+55 -1.8001754e+55)
(-4.8846958e+55 -3.0340722e+54 -1.9862574e+55)
(-4.5566904e+55 -1.0818004e+55 -2.4770731e+55)
(9.8753446e+54 3.0308245e+55 -2.8213144e+55)
(-3.3052172e+55 -1.4678899e+55 -2.2867095e+55)
(1.9922831e+55 2.4023327e+55 -2.3277033e+55)
(-6.571955e+55 -2.2785986e+55 -2.3669636e+55)
(-7.1903264e+55 -2.0728617e+55 -2.2372112e+55)
(-6.861879e+55 -1.491497e+55 -2.1504849e+55)
(-6.0878672e+55 -1.9923792e+55 -1.6300462e+55)
(-6.6028647e+55 -1.5157416e+55 -1.7111538e+55)
(-5.7373152e+55 -1.1705339e+55 -1.5256568e+55)
(-5.1241669e+55 -6.4429176e+54 -1.5635195e+55)
(-3.2211512e+55 1.3488906e+55 -1.6573467e+55)
(-5.4046393e+55 -1.0532084e+55 -2.2274893e+55)
(-2.8738832e+55 3.8265568e+55 -1.6345339e+55)
(-5.6972657e+55 -1.8824168e+55 -2.1344144e+55)
(-6.6379172e+55 -2.1027961e+55 -2.2257515e+55)
(-6.4585595e+55 -1.7707849e+55 -1.8523548e+55)
(-6.4707353e+55 -7.9748664e+54 -1.9433825e+55)
(-6.7676844e+55 -1.5280824e+55 -1.6129361e+55)
(-5.9150796e+55 -1.1966421e+55 -1.3770221e+55)
(-5.0353281e+55 -8.698349e+54 -1.0042727e+55)
(2.4162044e+55 1.2706459e+55 -2.0837892e+54)
(2.720779e+55 -3.6531196e+54 3.3957946e+55)