/*--------------------------------*- C++ -*----------------------------------*\
  =========                 |
  \\      /  F ield         | OpenFOAM: The Open Source CFD Toolbox
   \\    /   O peration     | Website:  https://openfoam.org
    \\  /    A nd           | Version:  7
     \\/     M anipulation  |
\*---------------------------------------------------------------------------*/
FoamFile
{
    version     2.0;
    format      ascii;
    class       volScalarField;
    location    "5000";
    object      nut;
}
// * * * * * * * * * * * * * * * * * * * * * * * * * * * * * * * * * * * * * //

dimensions      [0 2 -1 0 0 0 0];

internalField   nonuniform List<scalar> 
34377
(
1.8882277e-29
8.270112e-29
7.7052433e-30
8.0449922e-30
2.1138908e-30
1.0718481e-29
1.8472021e-30
7.3869959e-31
5.8233343e-31
7.4663078e-31
1.0593435e-30
3.0487735e-29
1.0368123e-30
5.9551177e-29
2.9384943e-29
6.5657286e-30
1.9983887e-30
4.0207675e-30
4.0080876e-30
2.7159289e-30
4.755616e-30
4.3557002e-30
3.2958473e-30
4.0201713e-30
1.3638324e-30
6.2240965e-30
1.2906275e-30
7.465063e-31
6.008513e-31
3.5024549e-31
3.660278e-31
8.0021926e-31
6.1631494e-31
6.2652787e-31
6.2472797e-31
6.9824111e-31
5.1673712e-31
8.4470354e-31
1.0845304e-30
7.0063088e-31
6.0608419e-31
9.2723356e-31
9.2463272e-31
3.7408121e-30
7.2103816e-31
5.3277804e-31
2.7554762e-30
2.4096432e-30
1.7981506e-29
2.4441184e-30
1.7384062e-29
1.2180367e-30
3.9669828e-30
7.1401994e-31
7.0033646e-31
3.4573909e-30
1.2053657e-30
2.9774869e-29
3.1330655e-29
2.2151481e-30
1.6106526e-29
2.2467947e-30
1.6843305e-29
3.980433e-30
4.7979119e-30
4.5494146e-30
2.9689851e-30
1.5893305e-30
1.7458555e-30
1.1222953e-30
1.2966567e-30
1.2542612e-30
1.7685396e-30
1.6614038e-30
1.2438977e-30
1.6670522e-30
1.2624625e-30
1.8239781e-30
1.3062812e-30
1.8326005e-30
1.3287484e-30
1.7043071e-30
1.3158496e-30
2.5075253e-30
3.9744967e-30
4.1278576e-30
3.2455276e-30
3.5226861e-31
3.475766e-31
5.6945528e-31
5.3747441e-31
8.7555378e-31
6.2515732e-31
6.2326225e-31
6.3164536e-31
6.2013613e-31
5.9186245e-31
6.7155413e-31
6.3578257e-31
6.3712844e-31
4.3300568e-31
3.424863e-31
3.1309665e-31
3.8199906e-31
1.6894575e-31
5.0119221e-31
3.7005049e-31
3.3850559e-31
4.5130944e-31
1.6747329e-31
1.9577473e-31
1.7708097e-31
6.6630917e-31
6.8618199e-31
7.0022339e-31
6.3789416e-31
7.4918089e-31
6.7614307e-31
6.5868035e-31
7.2802286e-31
7.1208272e-31
7.3904398e-31
7.3211962e-31
7.5419238e-31
1.0245648e-30
1.0552313e-30
1.0661044e-30
8.2325886e-31
6.9467325e-31
6.3961448e-31
6.9392445e-31
6.8837934e-31
4.1592023e-31
3.9378427e-31
7.8716508e-31
5.3504402e-31
4.6033963e-31
7.8298712e-31
1.2142371e-30
1.7226361e-30
1.7303568e-30
1.2073735e-30
1.8325759e-30
1.8528114e-30
6.9517376e-30
7.4379877e-30
1.217254e-30
1.1959758e-30
1.751925e-30
1.7438739e-30
1.9491663e-30
6.7789961e-30
7.6058554e-30
4.1697441e-30
8.310711e-31
5.3584709e-31
3.0783021e-30
8.2266313e-31
4.9835373e-31
3.9221439e-31
7.2692185e-31
8.0099371e-31
5.8662271e-31
3.7609578e-30
4.4922792e-30
2.2662837e-30
2.255129e-30
1.4962187e-29
1.544688e-29
2.438706e-30
2.3831372e-30
1.6690404e-29
1.6283421e-29
1.2380703e-30
1.2234904e-30
1.712373e-30
1.7160301e-30
1.7668917e-30
1.7700027e-30
6.4266988e-30
6.8655742e-30
1.1529416e-30
1.1800565e-30
1.6799286e-30
1.7249032e-30
1.8720544e-30
1.8340036e-30
7.1647835e-30
6.5785955e-30
1.6919527e-30
1.6223757e-30
1.4262283e-30
1.3724967e-30
1.9210456e-30
1.9162193e-30
1.5750733e-30
1.6205992e-30
6.3668455e-31
6.9440176e-31
6.8565986e-31
6.2860419e-31
7.5156334e-31
7.4480143e-31
6.9084089e-31
7.1832306e-31
7.2473329e-31
7.4165947e-31
6.3812415e-31
6.4033447e-31
7.3055794e-31
6.8549222e-31
6.8787343e-31
6.4714724e-31
6.1565431e-31
6.551604e-31
7.2351179e-31
6.5522748e-31
7.9263144e-31
7.8007926e-31
6.5177551e-31
6.7157769e-31
7.1251489e-31
7.3141939e-31
6.3977727e-31
6.4011658e-31
6.3363678e-31
7.2042792e-31
6.6697355e-31
6.2402909e-31
1.6983647e-30
1.5755386e-30
1.2626128e-30
1.5498779e-30
1.7432968e-30
1.726478e-30
1.4512505e-30
1.5130728e-30
4.7267579e-31
3.2477348e-31
3.7440223e-31
5.0907188e-31
1.6705172e-31
4.4200892e-31
3.4785656e-31
3.3059122e-31
1.7116893e-31
3.9829275e-31
6.5408797e-31
7.4849187e-31
6.5448635e-31
6.1235159e-31
7.0858485e-31
8.1603159e-31
6.5726977e-31
7.2811732e-31
1.8447452e-31
6.5620695e-31
7.3375124e-31
7.0050044e-31
6.4137277e-31
5.6813516e-31
5.1635684e-31
4.5929689e-31
5.1507351e-31
5.8576306e-31
5.6443241e-31
5.0896488e-31
5.212922e-31
4.3396203e-31
4.1681163e-31
4.161435e-31
4.204044e-31
3.8515265e-31
4.2266834e-31
4.0236817e-31
3.9876426e-31
2.8673821e-31
3.2128834e-31
3.0906015e-31
2.9208319e-31
2.5682388e-31
2.5505628e-31
2.3419454e-31
2.4121369e-31
1.885197e-31
2.2533358e-31
2.2699988e-31
2.3792753e-31
1.763653e-31
2.3493747e-31
2.974869e-31
2.9833216e-31
2.9196432e-31
2.897951e-31
1.839291e-31
1.7873542e-31
3.1075748e-31
3.5053158e-31
3.2726224e-31
3.265158e-31
2.6357578e-31
2.4568264e-31
2.7090538e-31
2.6075705e-31
2.1990824e-31
2.451043e-31
2.5365023e-31
3.0748388e-31
3.1288594e-31
3.1226847e-31
2.3285787e-31
1.1948392e-31
1.3154264e-31
1.013184e-31
1.0603094e-31
1.4014651e-31
1.657535e-31
1.1817753e-31
5.5870331e-31
6.091297e-31
5.9175391e-31
6.7326552e-31
4.1329334e-31
4.4349175e-31
4.3040644e-31
4.6417932e-31
4.3904304e-31
4.2939381e-31
4.329373e-31
4.4065467e-31
6.3419671e-31
6.162487e-31
5.8524503e-31
6.0772267e-31
4.0185588e-31
4.1339358e-31
4.212039e-31
4.1616315e-31
3.8934607e-31
4.0524171e-31
4.4168967e-31
4.2658539e-31
7.3739474e-31
7.3783425e-31
6.6164014e-31
7.4174154e-31
8.0193117e-31
8.0707497e-31
6.9801079e-31
6.9028061e-31
4.2213595e-31
4.1054925e-31
3.636076e-31
3.8324354e-31
3.9432919e-31
4.1957408e-31
4.0496496e-31
3.9764374e-31
4.4139371e-31
5.0769092e-31
7.3397286e-31
2.0818614e-30
1.2982803e-30
1.3208535e-30
1.3142641e-30
1.4180142e-30
7.1607538e-31
9.5888182e-31
9.5824407e-31
7.1519281e-31
7.5267264e-31
9.932243e-31
9.4000055e-31
7.476575e-31
7.6016157e-31
6.2470486e-31
6.6063109e-31
1.7324892e-30
1.6220035e-30
1.8221529e-30
1.7933962e-30
6.7668005e-31
6.5646581e-31
7.2454386e-31
7.1931539e-31
9.5688679e-31
9.6358935e-31
7.2908943e-31
7.5927946e-31
6.9215915e-31
1.8642209e-30
6.3683089e-31
1.7096259e-30
6.7374358e-31
1.8170072e-30
8.8314171e-31
5.8480278e-31
4.6652637e-31
8.2694907e-31
2.145421e-30
1.2866408e-30
1.2988574e-30
4.62111e-31
4.7223649e-31
1.7873684e-30
1.3282812e-30
1.2663358e-30
4.1509668e-31
5.4123032e-31
9.3660507e-31
8.1309835e-31
1.7276594e-30
1.2724719e-30
1.3132544e-30
1.7315675e-30
1.7351037e-30
1.2323639e-30
1.2094074e-30
1.6939665e-30
1.7600893e-30
1.7678863e-30
6.1577211e-30
6.5536769e-30
1.8245324e-30
1.7865886e-30
6.8605888e-30
6.2951877e-30
1.7237803e-30
1.2504872e-30
1.2685303e-30
1.7363605e-30
1.7812147e-30
1.2454475e-30
1.2024212e-30
1.707085e-30
1.8093031e-30
1.8217184e-30
6.8385853e-30
7.0140069e-30
1.8422583e-30
6.9613365e-30
1.9049673e-30
6.1518274e-30
7.0970087e-31
7.1269652e-31
9.4741742e-31
9.4948026e-31
7.2811665e-31
7.5835317e-31
9.6370867e-31
9.1411103e-31
7.4721151e-31
7.4854522e-31
1.4907348e-30
1.5862536e-30
5.9600429e-31
6.3314765e-31
1.6593095e-30
1.6435271e-30
6.5117596e-31
6.2850436e-31
7.0994083e-31
7.0329457e-31
9.4746237e-31
9.4403073e-31
7.2768339e-31
7.5762115e-31
9.6151374e-31
9.1467639e-31
7.4890328e-31
7.4933613e-31
6.271619e-31
1.6164684e-30
6.6135414e-31
1.6974686e-30
6.7981399e-31
6.5507383e-31
1.7241515e-30
1.6494925e-30
6.8620454e-31
6.940242e-31
6.3415095e-31
6.3457114e-31
6.9268571e-31
6.6270686e-31
6.5012519e-31
6.3902631e-31
7.8998229e-31
8.082308e-31
7.7827896e-31
8.0539974e-31
7.721878e-31
8.2360694e-31
7.7342035e-31
7.6158324e-31
5.3859179e-31
5.3567491e-31
1.8467695e-31
2.0080226e-31
5.6969962e-31
5.9816716e-31
1.981488e-31
1.9488615e-31
6.2600653e-31
6.2077782e-31
1.9956843e-31
2.1887687e-31
6.0436946e-31
6.8281454e-31
2.0988652e-31
2.0340198e-31
6.0185609e-31
6.090614e-31
1.9456402e-31
2.1426338e-31
6.2014531e-31
6.4697788e-31
2.0314551e-31
1.9990895e-31
1.9454541e-31
6.0309529e-31
6.139356e-31
2.1149997e-31
5.640612e-31
6.3329276e-31
1.973605e-31
1.8893742e-31
5.7105406e-31
5.6402744e-31
1.9027196e-31
1.9833268e-31
6.2306216e-31
6.2363985e-31
2.04889e-31
2.1165659e-31
6.6831992e-31
2.1363483e-31
6.799665e-31
2.265851e-31
2.2731274e-31
7.4806632e-31
6.5566017e-31
2.1910516e-31
6.0398576e-31
5.8332599e-31
1.9193993e-31
1.9916218e-31
1.9860549e-31
6.468377e-31
5.907778e-31
2.0658375e-31
5.9670793e-31
6.1977678e-31
1.9035315e-31
1.9350684e-31
5.1235701e-31
5.9471162e-31
1.8948582e-31
1.8271169e-31
7.3623637e-31
7.1326482e-31
7.2831937e-31
7.1506143e-31
6.3664854e-31
6.779084e-31
5.8622599e-31
6.3251629e-31
6.7166621e-31
7.3720697e-31
7.391981e-31
6.6929661e-31
7.3956915e-31
7.302754e-31
6.9368271e-31
6.7179246e-31
3.1055272e-31
3.0180497e-31
2.9092676e-31
2.8314009e-31
2.4957491e-31
2.5020658e-31
2.3081234e-31
2.3123367e-31
2.0053827e-31
2.8724758e-31
2.6262407e-31
2.6636113e-31
2.7317199e-31
2.1343081e-31
3.4578646e-31
3.451753e-31
3.3228878e-31
3.3748073e-31
2.313597e-31
2.2389069e-31
3.2873479e-31
2.9261319e-31
2.6336234e-31
2.5210708e-31
2.337371e-31
2.5085399e-31
1.8489039e-31
2.352831e-31
2.6037036e-31
1.9305889e-31
3.2172564e-31
3.1126234e-31
3.0937771e-31
3.0209957e-31
5.5631557e-31
6.0955789e-31
5.8792166e-31
6.4726703e-31
6.0524184e-31
6.2614123e-31
6.0226486e-31
4.3567098e-31
4.2503178e-31
4.4659444e-31
4.4066292e-31
4.2334294e-31
4.0892134e-31
4.7878976e-31
4.7884781e-31
4.7502433e-31
4.7691391e-31
6.9268067e-31
6.6314461e-31
6.5118833e-31
6.7181323e-31
3.9988666e-31
3.9385499e-31
4.0256921e-31
4.0396573e-31
5.8609221e-31
5.6600518e-31
5.7957732e-31
6.1201942e-31
1.7517668e-31
1.1931748e-31
1.1805235e-31
1.5744327e-31
3.3995493e-31
3.4141889e-31
3.1346759e-31
3.0835004e-31
2.9502807e-31
2.5725509e-31
3.0808548e-31
2.6497719e-31
3.0840664e-31
2.2722159e-31
3.2562601e-31
2.4285511e-31
3.6114575e-31
2.6600081e-31
3.5912325e-31
2.648362e-31
3.3720581e-31
3.302928e-31
3.1187375e-31
2.990102e-31
3.2847055e-31
2.8479346e-31
3.2761845e-31
2.7994431e-31
3.3556909e-31
2.4234177e-31
3.3758609e-31
2.4278751e-31
3.5693474e-31
3.4600434e-31
2.5845861e-31
2.5099237e-31
3.2150768e-31
2.50198e-31
3.2756637e-31
2.5262485e-31
3.2461371e-31
3.2806348e-31
2.8144639e-31
2.8104431e-31
3.299952e-31
3.2691951e-31
2.9101644e-31
2.884557e-31
3.2484812e-31
3.2384626e-31
2.6036963e-31
2.5758208e-31
2.8818003e-31
2.2108155e-31
3.0620999e-31
2.3370886e-31
3.3811426e-31
3.4157863e-31
2.9498783e-31
2.9459912e-31
3.0407813e-31
2.5672094e-31
3.2101695e-31
2.6857843e-31
3.2611441e-31
3.3089935e-31
2.5868992e-31
2.6002547e-31
3.0596762e-31
2.4679029e-31
3.2524213e-31
2.6101403e-31
2.9897645e-31
2.9914488e-31
2.7695813e-31
2.7643217e-31
2.7487289e-31
2.527807e-31
2.9096559e-31
2.652107e-31
3.3135549e-31
3.3361251e-31
2.7348247e-31
2.7404297e-31
2.2156804e-31
2.1385014e-31
2.2846926e-31
2.1420057e-31
2.0436091e-31
1.9634528e-31
2.2284621e-31
2.0822596e-31
1.4331639e-31
1.528121e-31
1.6192293e-31
1.7032518e-31
1.6819294e-31
1.5820631e-31
1.589183e-31
1.8781541e-31
1.7431078e-31
1.7805651e-31
2.2211157e-31
2.0926223e-31
1.4778172e-31
1.455529e-31
1.702879e-31
1.5926494e-31
1.6626772e-31
1.4528125e-31
1.4971166e-31
1.6725843e-31
1.658693e-31
1.6444572e-31
2.0505491e-31
2.018929e-31
2.1484225e-31
2.0615972e-31
1.707228e-31
1.8272188e-31
2.0687454e-31
2.0390106e-31
2.0777464e-31
2.0135317e-31
2.8398462e-31
2.657646e-31
2.8027478e-31
2.6167041e-31
2.8250821e-31
2.6330452e-31
2.8818295e-31
2.646903e-31
3.2129506e-31
2.6623303e-31
3.2696308e-31
2.6859387e-31
3.2460353e-31
2.7281399e-31
3.2113243e-31
2.7084826e-31
1.405299e-31
1.4780929e-31
1.4880624e-31
1.6141541e-31
2.2045254e-31
1.7789817e-31
1.5046944e-31
1.7255685e-31
3.1425457e-31
2.5652724e-31
3.4749162e-31
2.7991685e-31
3.1618254e-31
3.2928553e-31
2.9590814e-31
3.0611871e-31
2.7473463e-31
2.562343e-31
3.0850235e-31
2.8100974e-31
3.5499807e-31
3.7014811e-31
2.9410416e-31
3.0365335e-31
1.6679837e-31
1.7539037e-31
2.1423156e-31
1.942037e-31
1.8861073e-31
1.3901798e-31
1.5962171e-31
1.8898598e-31
1.7833501e-31
1.5819054e-31
2.3070355e-31
2.2614964e-31
2.4594054e-31
2.3451525e-31
1.9722005e-31
1.9486711e-31
2.3015636e-31
2.1960449e-31
2.108074e-31
2.3574585e-31
1.4437431e-31
1.5300102e-31
1.6989615e-31
1.6291608e-31
2.0377223e-31
2.000863e-31
2.1960446e-31
2.1065884e-31
2.7130138e-31
3.2313952e-31
2.6715252e-31
3.3903187e-31
2.7728058e-31
2.8088187e-31
2.613638e-31
2.9634337e-31
2.7089323e-31
3.3434497e-31
2.7987475e-31
3.4399683e-31
2.8792923e-31
2.4338064e-31
1.9483136e-31
1.7710977e-31
2.1989709e-31
4.9723747e-32
4.790082e-32
6.0373362e-32
6.5179805e-32
9.1492189e-32
8.1280093e-32
5.6755328e-32
5.7031852e-32
8.8040054e-32
8.496467e-32
8.9410398e-32
8.8072233e-32
8.0121582e-32
8.4228811e-32
8.9192171e-32
8.7068541e-32
7.550795e-32
5.5921884e-32
8.4547167e-32
5.7149638e-32
8.6884957e-32
6.8339616e-32
1.096381e-31
6.2054159e-32
1.142261e-31
1.2586157e-31
1.0756215e-31
9.8337043e-32
3.3409626e-31
2.3389021e-31
3.6205112e-31
2.5145382e-31
3.8163115e-31
3.9019963e-31
2.6712518e-31
2.6694239e-31
3.195898e-31
2.7935746e-31
3.3759234e-31
2.9317508e-31
3.6452734e-31
3.2645945e-31
3.7540906e-31
3.278371e-31
3.0965345e-31
3.3425852e-31
2.4009858e-31
2.5531728e-31
3.5365549e-31
3.6824491e-31
2.7934228e-31
2.8617333e-31
3.1574081e-31
2.7173952e-31
3.4196899e-31
2.8963208e-31
3.5926078e-31
3.7422216e-31
3.1459426e-31
3.2305597e-31
3.3716438e-31
3.4451948e-31
2.9336753e-31
2.97995e-31
3.2437709e-31
3.3736218e-31
2.7979435e-31
2.8567637e-31
3.2102255e-31
3.3362025e-31
2.5386525e-31
2.5952279e-31
3.343682e-31
3.4016975e-31
2.655548e-31
2.6998485e-31
3.3725072e-31
3.0256475e-31
3.3649134e-31
3.0161094e-31
3.3334846e-31
2.9433947e-31
3.3915127e-31
2.9316427e-31
3.5617885e-31
2.5301805e-31
3.6747719e-31
2.5649881e-31
3.6937814e-31
2.6174816e-31
3.6532824e-31
2.6512524e-31
1.5742379e-31
1.5517543e-31
1.6167508e-31
1.5996585e-31
1.6290454e-31
1.6510229e-31
1.6764129e-31
1.7369403e-31
1.6547678e-31
1.6018584e-31
1.665913e-31
1.7898215e-31
1.8086675e-31
1.908814e-31
1.9086519e-31
1.8082392e-31
4.0814253e-31
3.9221861e-31
4.1015846e-31
4.0060561e-31
3.41969e-31
3.4864212e-31
4.0531005e-31
3.9714317e-31
4.3973914e-31
4.4731801e-31
4.5478651e-31
4.4470718e-31
3.8974061e-31
3.7027703e-31
3.9019731e-31
3.8095896e-31
1.7472428e-31
1.8061864e-31
1.7283211e-31
1.6971404e-31
1.6190705e-31
1.6160541e-31
1.6606687e-31
1.6175248e-31
1.6043865e-31
1.5765664e-31
1.7378354e-31
1.6828944e-31
1.6902168e-31
1.7861702e-31
1.649708e-31
1.6893236e-31
8.5351051e-31
9.3478346e-31
5.7469027e-31
4.1412561e-31
4.4936539e-31
5.2259329e-31
5.3169213e-31
1.0806994e-30
6.1587906e-31
6.2488572e-31
5.7371727e-31
1.035729e-30
9.8166135e-31
7.6746165e-31
7.9411402e-31
6.1761157e-31
6.3403504e-31
6.1222718e-31
6.2596685e-31
3.6502917e-31
8.2418401e-31
3.7714912e-31
8.2958207e-31
8.5040053e-31
8.3144187e-31
3.8487934e-31
3.8633721e-31
6.3436811e-31
6.1354889e-31
3.763761e-31
8.5512483e-31
3.8856445e-31
8.5709619e-31
8.421697e-31
8.2174236e-31
3.8410606e-31
3.8202617e-31
2.097072e-31
2.2684514e-31
2.4033807e-31
2.1226381e-31
2.4458394e-31
2.3888122e-31
2.2962901e-31
2.2192596e-31
1.6955295e-31
2.1227831e-31
2.0788408e-31
1.5987133e-31
1.9767158e-31
1.6300863e-31
1.6089772e-31
2.05856e-31
1.6628344e-31
1.6397918e-31
2.1986855e-31
2.1352402e-31
2.2089386e-31
1.7022307e-31
1.5690729e-31
2.1376897e-31
2.4690121e-31
2.3299484e-31
2.3263837e-31
2.1642908e-31
2.4075773e-31
2.3905229e-31
2.3414139e-31
2.4790147e-31
1.0332955e-30
1.0245796e-30
7.9462373e-31
7.8418269e-31
1.0609768e-30
1.001688e-30
7.7322756e-31
8.0028684e-31
8.3286193e-31
8.352487e-31
3.6863692e-31
3.7949871e-31
3.9186855e-31
8.6534018e-31
8.4906005e-31
3.9032042e-31
2.2929867e-31
2.3288459e-31
2.4450758e-31
2.442143e-31
2.0843337e-31
1.6949747e-31
1.6822561e-31
2.1496324e-31
2.4090023e-31
2.2745164e-31
2.1981369e-31
2.3228376e-31
2.0339593e-31
1.6346718e-31
1.617398e-31
2.1154754e-31
2.3598315e-31
2.3796878e-31
2.4341496e-31
2.4143889e-31
1.6075313e-31
1.7114907e-31
2.1873896e-31
2.116927e-31
2.3317423e-30
1.2526708e-30
1.3466693e-30
5.536998e-31
4.9759006e-31
2.9761865e-30
1.3169835e-30
1.251277e-30
5.3186969e-31
5.3900467e-31
1.1460644e-30
6.5545855e-31
6.253745e-31
5.2425098e-31
5.3910225e-31
1.1036489e-30
6.2553105e-31
6.290098e-31
5.2003259e-31
5.288626e-31
2.7108101e-30
1.3254441e-30
1.3644989e-30
2.0275501e-30
1.2233624e-30
1.3281128e-30
7.4468021e-31
7.4114963e-31
7.361745e-31
7.2766771e-31
7.368349e-31
7.6637527e-31
9.6617819e-31
9.6524051e-31
9.7804643e-31
9.3629166e-31
7.5854731e-31
7.7167034e-31
5.9919876e-31
1.4811206e-30
6.3234558e-31
1.57417e-30
6.5890962e-31
6.4431743e-31
1.6494987e-30
1.5902157e-30
7.4529862e-31
9.5620794e-31
9.6176889e-31
7.7116905e-31
9.6897498e-31
9.3553709e-31
7.6467496e-31
7.7486618e-31
6.1853019e-31
6.517375e-31
1.5798083e-30
1.6578683e-30
6.5751727e-31
1.6713724e-30
6.3564734e-31
1.5908687e-30
7.2922533e-31
7.3214034e-31
7.3376203e-31
7.2167668e-31
9.6088697e-31
9.601798e-31
7.3822431e-31
7.7425404e-31
9.8750112e-31
9.3699666e-31
7.6972133e-31
7.7449727e-31
6.2052251e-31
6.543673e-31
1.6087128e-30
1.6704621e-30
6.5013393e-31
6.6727784e-31
1.7036792e-30
1.6638657e-30
9.8032236e-31
9.3595324e-31
7.7007583e-31
7.7152107e-31
6.3312549e-31
6.5681423e-31
1.5719958e-30
1.6482479e-30
9.7948278e-31
9.7663683e-31
7.4479858e-31
7.7910804e-31
6.5307037e-31
6.2623157e-31
1.6545161e-30
1.5178679e-30
1.0069747e-30
9.6005228e-31
7.7094497e-31
7.6069345e-31
6.2728067e-31
6.3329496e-31
1.0398232e-30
1.0464942e-30
7.5569523e-31
7.7741861e-31
6.3321819e-31
6.1163575e-31
8.358151e-31
8.2603892e-31
3.7081883e-31
3.8248025e-31
3.9112895e-31
8.5014767e-31
8.3752986e-31
3.9221024e-31
3.8116379e-31
8.4115156e-31
3.9363439e-31
8.4569416e-31
8.304117e-31
8.1407242e-31
3.8372072e-31
3.8229969e-31
1.9342546e-31
1.5510491e-31
1.5304773e-31
2.0165004e-31
2.0788673e-31
1.6411573e-31
1.5115492e-31
2.0353972e-31
2.4519479e-31
2.3219842e-31
1.9316941e-31
1.9615876e-31
2.4937367e-31
2.433469e-31
1.9949585e-31
1.9940808e-31
2.096415e-31
1.6173408e-31
1.5707373e-31
2.1345113e-31
2.1404217e-31
1.6371461e-31
1.508347e-31
2.0549402e-31
2.5041962e-31
2.3716369e-31
2.0471481e-31
1.9591738e-31
2.4176559e-31
2.3953919e-31
2.0492746e-31
2.1397381e-31
1.0540503e-30
1.0582656e-30
7.8480464e-31
7.6559109e-31
6.2716337e-31
6.0355238e-31
1.023769e-30
9.8482425e-31
7.7281041e-31
7.5606071e-31
6.1779408e-31
6.2285552e-31
8.399212e-31
8.3780294e-31
3.7049965e-31
3.8306968e-31
3.923719e-31
8.5302555e-31
8.3576265e-31
3.9222248e-31
3.7813844e-31
8.3759417e-31
3.8922321e-31
8.4318102e-31
8.3130813e-31
8.1417331e-31
3.8189568e-31
3.7881188e-31
2.4666238e-31
2.3254205e-31
1.8910774e-31
1.9196851e-31
2.0620686e-31
1.6047551e-31
1.5776676e-31
2.1219774e-31
2.5058077e-31
2.4371612e-31
1.9883911e-31
2.0410644e-31
1.5676918e-31
1.6742415e-31
2.1714321e-31
2.1121771e-31
2.4967868e-31
2.367332e-31
2.0127985e-31
2.1560384e-31
2.4130528e-31
2.3932528e-31
2.2496928e-31
2.2268411e-31
1.628403e-31
1.645525e-31
2.0991341e-31
2.1328306e-31
1.5532301e-31
1.6682561e-31
2.1262101e-31
2.0016105e-31
5.4992226e-31
5.4042082e-31
1.8483217e-31
2.046275e-31
5.4783435e-31
5.8436297e-31
1.9048823e-31
1.8873733e-31
5.7133892e-31
5.6163962e-31
1.8187781e-31
2.0142572e-31
4.8718109e-31
5.5799065e-31
1.8581128e-31
1.8527678e-31
6.2537964e-31
6.8049626e-31
2.1774119e-31
2.3883484e-31
6.1823712e-31
6.7574386e-31
2.2660529e-31
2.2035108e-31
6.5907063e-31
6.3940837e-31
2.1606321e-31
2.3405362e-31
6.0751547e-31
6.6887941e-31
2.2493773e-31
2.1530064e-31
2.2248531e-31
2.1023446e-31
2.4036622e-31
2.3920333e-31
2.6615044e-31
2.5289921e-31
2.5060287e-31
2.6196118e-31
2.5767521e-31
2.4796593e-31
2.5884054e-31
2.636334e-31
2.5379104e-31
2.6238971e-31
2.2882968e-31
2.4600008e-31
2.3126883e-31
2.2381893e-31
2.5676184e-31
2.5292007e-31
2.6926552e-31
2.7907496e-31
2.8058822e-31
2.6538383e-31
2.4246167e-31
2.3568602e-31
2.5486421e-31
2.5577437e-31
2.4256919e-31
2.3850778e-31
2.1674883e-31
2.335038e-31
6.0570284e-31
6.1473664e-31
1.9633757e-31
2.1098061e-31
5.5019822e-31
6.1210896e-31
1.9460015e-31
2.0336449e-31
5.6830556e-31
5.1054816e-31
1.7667988e-31
2.0028139e-31
1.9042369e-31
5.931045e-31
5.600788e-31
1.9045485e-31
5.792686e-31
5.6164283e-31
2.1874084e-31
2.0951656e-31
5.6012313e-31
6.2965948e-31
2.0026156e-31
1.9697267e-31
5.9406779e-31
5.7194113e-31
1.9382696e-31
2.1111631e-31
5.7367551e-31
6.1721254e-31
2.0424725e-31
1.9784493e-31
2.8288784e-31
2.7394279e-31
2.6175463e-31
2.544699e-31
2.7293147e-31
2.4877094e-31
2.6930607e-31
2.4546473e-31
3.157298e-31
2.6204359e-31
3.0733116e-31
2.5740988e-31
3.0193267e-31
2.4767398e-31
3.0123212e-31
2.4766836e-31
2.0907876e-31
2.032081e-31
2.0494275e-31
1.9752226e-31
2.0477129e-31
1.9566291e-31
2.0255283e-31
1.9312658e-31
1.4521828e-31
1.4038268e-31
1.6195648e-31
1.5642952e-31
1.7938379e-31
1.4756389e-31
1.4196303e-31
1.5550999e-31
1.6201022e-31
1.8376841e-31
1.8483488e-31
1.9461886e-31
2.4590883e-31
2.3120195e-31
2.4642803e-31
2.2903791e-31
1.7416696e-31
1.701532e-31
1.8916979e-31
1.9434519e-31
2.1128993e-31
1.765641e-31
1.7305674e-31
2.0925472e-31
1.9079529e-31
1.9892174e-31
2.3780476e-31
2.3358507e-31
2.3600515e-31
2.2962326e-31
2.3261849e-31
2.3046674e-31
3.2388283e-31
3.0385284e-31
3.1895754e-31
2.9830409e-31
3.2369048e-31
2.9781685e-31
3.180247e-31
2.9226713e-31
3.659766e-31
3.0077001e-31
3.6336642e-31
2.9929667e-31
3.6535908e-31
3.0549252e-31
3.6229126e-31
3.0309615e-31
1.9665167e-31
1.8177767e-31
2.1595843e-31
2.2291018e-31
1.5212061e-31
1.5722034e-31
1.6396299e-31
1.7976554e-31
3.0087099e-31
3.0109207e-31
2.7699059e-31
2.7657286e-31
3.2830693e-31
3.3023982e-31
2.6976814e-31
2.700991e-31
2.233228e-31
2.1270499e-31
2.2854771e-31
2.1340739e-31
1.6342897e-31
1.7432164e-31
1.5465595e-31
1.5235298e-31
1.6520598e-31
1.682678e-31
1.7577637e-31
2.1515265e-31
2.0921686e-31
2.1611654e-31
2.0674391e-31
1.9263207e-31
1.9875243e-31
1.6786417e-31
1.6061114e-31
1.6421614e-31
1.7909967e-31
1.7525964e-31
2.2171018e-31
2.1546693e-31
2.309627e-31
2.2132797e-31
1.5711291e-31
1.9475701e-31
1.7364262e-31
2.9759912e-31
2.7887643e-31
3.070412e-31
2.8678729e-31
3.3464932e-31
2.7999677e-31
3.4666535e-31
2.8992158e-31
2.9314668e-31
2.7027656e-31
2.9132801e-31
2.6684415e-31
3.2677751e-31
2.684951e-31
3.2764512e-31
2.6845687e-31
3.1367382e-31
2.3460948e-31
3.2363124e-31
2.3974593e-31
3.3166047e-31
3.3201988e-31
3.02584e-31
3.0027306e-31
2.7624424e-31
3.6283288e-31
2.7898076e-31
3.5986417e-31
2.7769503e-31
3.3860401e-31
3.4539959e-31
3.0944564e-31
3.0961479e-31
3.2936199e-31
2.9003204e-31
3.2831086e-31
2.8640197e-31
3.6062475e-31
3.6098236e-31
2.7343606e-31
2.7804736e-31
2.6315744e-31
3.4711454e-31
3.474723e-31
2.5942605e-31
3.1667107e-31
2.4987446e-31
3.2023327e-31
2.5152607e-31
3.2572063e-31
3.2674518e-31
2.7898803e-31
2.7787099e-31
3.2980687e-31
3.4175889e-31
2.6505379e-31
2.7254913e-31
3.3629748e-31
3.4856544e-31
2.9423706e-31
3.0205869e-31
3.3326057e-31
3.3608791e-31
2.87631e-31
2.8823729e-31
3.2212673e-31
3.2656387e-31
2.5606094e-31
2.5730337e-31
3.7184916e-31
3.1806936e-31
3.6837478e-31
3.1633159e-31
3.6773835e-31
3.2190722e-31
3.6434347e-31
3.1794487e-31
3.6054724e-31
2.8815389e-31
3.6027663e-31
2.8762688e-31
3.5829561e-31
2.7940972e-31
3.6176046e-31
2.8260233e-31
3.6820505e-31
3.3693834e-31
3.6456646e-31
3.3031223e-31
3.6838186e-31
3.2749178e-31
3.6709607e-31
3.2642982e-31
3.9275457e-31
2.9008013e-31
4.0257075e-31
2.9769292e-31
4.0393296e-31
3.0198486e-31
4.0048133e-31
3.0005926e-31
3.0124946e-31
2.369354e-31
3.0377632e-31
2.3752445e-31
3.0806695e-31
2.627266e-31
3.0692804e-31
2.6069284e-31
3.1934788e-31
2.769217e-31
3.1281501e-31
2.7163947e-31
3.1325735e-31
2.5126856e-31
3.0913297e-31
2.485669e-31
3.1517929e-31
3.0456803e-31
2.8902726e-31
2.8057011e-31
3.0669171e-31
3.0941867e-31
2.7331895e-31
2.694239e-31
3.3690555e-31
3.4203591e-31
2.5204952e-31
2.4958415e-31
3.5434844e-31
2.6855171e-31
3.4246304e-31
2.6905511e-31
5.258517e-32
6.202029e-32
1.0670624e-31
6.5298506e-32
1.2237383e-31
1.1061179e-31
1.019137e-31
1.0480471e-31
9.5658609e-32
1.0350982e-31
1.1968372e-31
9.3677113e-32
5.9055648e-32
1.0111944e-31
6.5318442e-32
1.0263861e-31
1.0318326e-31
9.5905403e-32
9.8647844e-32
1.0424341e-31
1.0556864e-31
1.0536785e-31
9.9164448e-32
9.9264038e-32
9.2036073e-32
1.0028691e-31
9.0095805e-32
1.0722236e-31
1.0336544e-31
9.28587e-32
1.030635e-31
9.2486721e-32
8.8281521e-32
9.1614772e-32
8.6841424e-32
9.3222225e-32
9.0581241e-32
8.1272378e-32
8.2136911e-32
9.5213368e-32
9.0969884e-32
9.4950065e-32
8.9806017e-32
9.6020737e-32
9.3462151e-32
8.3693223e-32
9.4673771e-32
8.372358e-32
1.0069748e-31
1.0352391e-31
1.0214058e-31
1.0479781e-31
9.267185e-32
1.185098e-31
1.2016827e-31
9.2310318e-32
1.0418659e-31
1.0253182e-31
1.042093e-31
1.0266006e-31
9.3235357e-32
1.1939189e-31
1.1870246e-31
9.4377944e-32
1.1152154e-31
1.0789177e-31
1.0718825e-31
1.1461168e-31
9.6783047e-32
9.7137385e-32
1.2669335e-31
1.2412128e-31
1.1298007e-31
1.1058842e-31
1.1228898e-31
1.0985743e-31
1.2576282e-31
1.0028356e-31
1.2740749e-31
9.9721321e-32
1.0021734e-31
9.3255976e-32
9.5495262e-32
1.0073937e-31
9.6604623e-32
9.7976379e-32
9.2921682e-32
9.1928799e-32
8.9862496e-32
9.8150068e-32
8.8219023e-32
1.0489385e-31
9.682501e-32
8.7441766e-32
9.7210829e-32
8.7579299e-32
9.6107952e-32
1.0080414e-31
9.3952376e-32
1.0274186e-31
9.6512831e-32
8.564153e-32
8.6911987e-32
1.0213637e-31
9.5627764e-32
1.0013162e-31
9.3768326e-32
1.0193743e-31
9.6139431e-32
8.5565574e-32
9.7877485e-32
8.5401087e-32
1.03635e-31
1.0836542e-31
1.0486484e-31
1.1046633e-31
9.4176462e-32
1.2175331e-31
9.4296054e-32
1.2365751e-31
1.0678336e-31
1.0232873e-31
1.0665293e-31
1.0314548e-31
1.1960511e-31
9.2128047e-32
1.1886723e-31
9.2061234e-32
1.0912914e-31
1.0470592e-31
1.0377113e-31
1.1213001e-31
1.0767076e-31
1.0473879e-31
1.0639645e-31
1.0350226e-31
9.3215081e-32
9.2738691e-32
1.2012689e-31
1.2271107e-31
1.1863346e-31
1.2047945e-31
9.3102437e-32
9.3805864e-32
1.1515093e-31
1.2775891e-31
1.1507502e-31
1.2828868e-31
1.1505754e-31
9.3702535e-32
9.4382204e-32
1.1881159e-31
1.1769082e-31
1.2699293e-31
1.1507541e-31
1.3075279e-31
1.1417773e-31
9.3979497e-32
1.199911e-31
9.5464351e-32
1.5497625e-31
1.3885672e-31
1.3662106e-31
1.5117877e-31
1.5348131e-31
1.3877968e-31
1.3970116e-31
1.5412353e-31
1.4073115e-31
1.1562207e-31
1.1359405e-31
1.4007943e-31
1.3957609e-31
1.1550379e-31
1.155868e-31
1.4150812e-31
1.5339336e-31
1.372138e-31
1.3656733e-31
1.5160918e-31
1.4517478e-31
1.4865178e-31
1.3409709e-31
1.3110668e-31
1.3900054e-31
1.1449025e-31
1.1342981e-31
1.3969261e-31
1.3237926e-31
1.3446485e-31
1.1174188e-31
1.09804e-31
1.2491791e-31
1.1163621e-31
1.1177161e-31
1.2633761e-31
1.1879565e-31
1.2132621e-31
1.0962367e-31
1.068899e-31
9.3646334e-32
9.3499861e-32
1.12953e-31
1.1415392e-31
1.074285e-31
1.0994996e-31
9.2196743e-32
9.0516284e-32
1.0333447e-31
1.1422585e-31
1.0219162e-31
1.1524831e-31
1.0120786e-31
8.3678614e-32
8.4536012e-32
1.0533977e-31
1.217269e-31
1.1012758e-31
1.2043393e-31
1.0840807e-31
1.0710146e-31
8.8388834e-32
1.089295e-31
8.9150923e-32
1.6179809e-31
1.4390014e-31
1.4522303e-31
1.6144199e-31
1.6254904e-31
1.4647424e-31
1.4796242e-31
1.635166e-31
1.199845e-31
1.4520842e-31
1.1990868e-31
1.4975745e-31
1.2110711e-31
1.4709593e-31
1.2151164e-31
1.4832667e-31
1.2633022e-31
1.417888e-31
1.2631223e-31
1.4171952e-31
1.2577909e-31
1.0291069e-31
1.0267452e-31
1.2835784e-31
1.3546328e-31
1.4909609e-31
1.3334131e-31
1.5133498e-31
1.3276892e-31
1.0915298e-31
1.3518275e-31
1.0985247e-31
1.3162856e-31
1.1812316e-31
1.179757e-31
1.3318031e-31
1.3330508e-31
1.2093075e-31
1.3563527e-31
1.2053253e-31
9.7175632e-32
9.7336338e-32
1.1893794e-31
1.2025565e-31
1.2104478e-31
1.2132617e-31
1.002129e-31
9.9847022e-32
1.5981964e-31
1.8363617e-31
1.6056971e-31
1.8316615e-31
1.6223251e-31
1.3150569e-31
1.2999446e-31
1.6379292e-31
1.9569401e-31
1.7234619e-31
1.9421605e-31
1.7012816e-31
1.7101628e-31
1.3901948e-31
1.7373555e-31
1.4043072e-31
2.7900529e-31
2.3611477e-31
2.3482676e-31
2.760519e-31
2.7478291e-31
2.7490948e-31
2.3449283e-31
2.3343626e-31
1.8347587e-31
2.3438225e-31
1.8582078e-31
2.3524283e-31
2.3228968e-31
1.8491304e-31
2.3237247e-31
1.8571149e-31
2.1163005e-31
2.4814878e-31
2.0964536e-31
2.5238146e-31
2.0796636e-31
1.6435773e-31
1.6232097e-31
2.1032095e-31
2.2790755e-31
2.6428121e-31
2.2356544e-31
2.6804671e-31
2.21034e-31
1.7502904e-31
2.2449293e-31
1.7486511e-31
2.0664092e-31
1.8094562e-31
1.7927128e-31
2.0732406e-31
2.064264e-31
1.8214198e-31
2.0639958e-31
1.8157676e-31
1.5093442e-31
1.4945535e-31
1.8582251e-31
1.8546534e-31
1.8610314e-31
1.8563393e-31
1.5215269e-31
1.5219227e-31
4.0472575e-31
4.0661315e-31
3.2799107e-31
3.2771246e-31
3.3058908e-31
2.5301684e-31
2.5078959e-31
3.3089083e-31
3.8813273e-31
3.8519056e-31
3.2182196e-31
3.2481541e-31
3.2583107e-31
3.2530071e-31
2.5008483e-31
2.488982e-31
2.96264e-31
3.6513245e-31
2.9534101e-31
3.6501515e-31
2.9647471e-31
2.2536199e-31
2.2459827e-31
2.9639197e-31
3.2254804e-31
3.8679148e-31
3.1885378e-31
3.8680789e-31
3.1769832e-31
2.4112886e-31
3.2890049e-31
2.4295928e-31
5.9178529e-31
5.8491396e-31
4.0572167e-31
3.9924153e-31
4.4693691e-31
4.4619385e-31
6.3870334e-31
6.5788659e-31
3.4702663e-31
1.1111383e-31
1.2938933e-31
1.2791716e-31
1.1386575e-31
3.8300021e-31
6.354455e-31
6.5381904e-31
4.4357767e-31
4.4627036e-31
4.4584485e-31
4.4562705e-31
6.3200847e-31
6.4459069e-31
1.2525072e-31
1.3637126e-31
1.3648371e-31
1.2026949e-31
3.8002911e-31
3.9261062e-31
1.173021e-31
1.2515508e-31
1.2528356e-31
1.1690823e-31
1.2105149e-31
1.289645e-31
1.2095339e-31
1.1705955e-31
6.2261779e-31
6.3996136e-31
4.2809893e-31
4.315892e-31
4.1268112e-31
4.1076072e-31
5.8664348e-31
5.9364681e-31
1.1715873e-31
1.2882227e-31
1.2537865e-31
1.1032562e-31
3.6026143e-31
3.7880274e-31
6.0015901e-31
6.025449e-31
4.1144593e-31
4.0935945e-31
4.3196881e-31
4.3073397e-31
6.1649842e-31
6.3235294e-31
1.1263005e-31
1.2704356e-31
1.3043128e-31
1.1413489e-31
3.731586e-31
3.5443804e-31
3.7301847e-31
3.7150399e-31
3.004024e-31
3.0336646e-31
3.116984e-31
3.0954028e-31
2.3852493e-31
2.354298e-31
3.0966395e-31
3.785428e-31
3.0999387e-31
3.7558776e-31
2.4158399e-31
3.1432092e-31
3.1666239e-31
2.4051392e-31