/*--------------------------------*- C++ -*----------------------------------*\
  =========                 |
  \\      /  F ield         | OpenFOAM: The Open Source CFD Toolbox
   \\    /   O peration     | Website:  https://openfoam.org
    \\  /    A nd           | Version:  7
     \\/     M anipulation  |
\*---------------------------------------------------------------------------*/
FoamFile
{
    version     2.0;
    format      ascii;
    class       volScalarField;
    location    "5000";
    object      omega;
}
// * * * * * * * * * * * * * * * * * * * * * * * * * * * * * * * * * * * * * //

dimensions      [0 0 -1 0 0 0 0];

internalField   nonuniform List<scalar> 
34377
(
2223.5908
4427.3879
4001.4651
4128.075
787.08996
2192.1071
818.48875
380.8037
828.29065
805.19764
1192.5571
9271.1211
1172.7072
4473.2497
9219.1394
4087.5967
1813.5943
7516.5227
7633.1561
1808.5001
7773.115
7688.7665
1879.8063
1877.3622
797.20855
4024.6297
788.16469
379.92837
711.39276
649.16353
666.21826
334.01854
341.09191
340.60455
360.68633
360.98129
729.96622
2032.4151
2044.5497
811.23825
819.32226
1984.5757
1970.7766
1922.4389
628.10694
638.53187
1949.3802
4501.1358
18577.524
4452.3495
18392.403
1198.8321
1892.6664
627.78019
626.73962
1888.8415
1212.6444
9266.0291
9282.0018
4397.3689
18383.561
4384.4708
18421.504
7472.1683
8014.7975
1893.8525
1801.0857
12637.32
13349.079
4196.4683
4304.6442
4275.3123
13280.947
13171.699
4283.4003
13005.149
4338.1158
13792.717
4505.3918
13223.405
4335.123
13068.109
4351.5055
1812.516
7503.0776
7713.176
1830.4521
661.68072
656.46241
717.0284
723.85277
333.17301
339.31988
339.26212
359.47513
359.44828
1803.9233
1782.7156
1769.4638
1799.2357
1496.2521
1338.6342
1311.3471
1468.7996
542.19269
1542.9622
1382.5195
1384.6637
1535.3374
555.20752
465.29766
474.4524
316.31093
330.03545
329.81609
316.16813
1856.2815
1851.7826
1838.4237
1843.8126
4846.539
4812.1704
4843.9013
5032.3142
2003.1138
1994.7182
2079.1935
1976.9364
4833.3851
4707.8386
4786.5497
4767.0923
508.90586
512.02629
2082.0799
649.55009
660.70932
2109.0028
3484.2376
6654.932
6701.0318
3531.1259
12749.649
12830.837
32153.184
32678.366
3475.9549
3453.0117
6628.0912
6595.2028
12841.958
32068.54
32355.586
1953.5736
631.01378
635.50786
1944.1052
2048.8656
648.54739
648.94683
2045.3255
635.02545
638.89726
1982.2738
1961.2764
4536.5203
4490.6739
18481.142
18489.489
4491.8424
4476.842
18615.783
18427.07
3420.1708
3412.8022
6541.8939
6533.5414
12675.841
12678.612
31816.164
32327.144
3419.2788
3388.2115
6517.3859
6514.9324
12675.764
12656.068
32286.796
32148.282
12937.651
12789.571
4194.1903
4191.2605
13809.69
13881.02
4543.6861
4536.2491
20053.152
21076.186
7768.7412
7646.371
21853.568
21936.322
8088.2418
8034.5374
21569.102
22015.128
7993.875
7985.3285
21855.515
21355.592
7959.272
7916.6058
7873.3106
20736.589
21798.917
8029.1314
22550.272
22727.589
8460.1396
8347.4115
21336.361
21835.492
7969.7638
8008.2472
7932.1221
21395.776
21089.184
7936.2546
13220.659
4302.6442
4196.3824
12641.659
13279.408
13378.611
4379.6359
4297.3821
1492.4852
1339.8076
1387.8768
1556.0111
551.44674
1514.2943
1365.9996
1344.5142
548.14254
1499.0387
1812.186
1810.1847
1801.7921
1812.227
1874.8452
1882.9541
1787.525
1794.5374
469.45685
315.3447
328.597
328.55907
314.98289
5060.4723
4935.503
4457.1238
4564.7303
4983.0365
4958.9342
4494.0184
4515.1216
4498.7343
4559.0132
4584.3447
4522.5102
4499.0256
4668.2846
4580.1647
4595.5397
4012.9428
3879.9353
3834.1384
4073.3569
3252.0809
3230.2818
2918.111
2916.4406
1115.8328
2877.4505
2865.8794
3183.1322
1094.5627
3193.9196
3805.3381
3788.8467
3979.0903
3998.9769
965.48015
988.39624
4115.4113
4062.6917
3935.4987
4254.8027
3080.5106
3013.5838
3419.1737
3327.1913
1152.9245
2978.599
3281.9613
4062.7938
3886.9337
4132.6899
1018.1661
392.1839
704.49611
829.05983
809.33772
690.36757
710.40678
851.0233
4580.7657
4755.074
5058.0473
5263.7901
4609.3922
4785.4821
4689.8962
4864.6549
4716.9252
4639.1439
4558.2092
4623.6449
5070.4642
5008.6702
4540.7301
4585.0065
8736.263
8743.2351
8751.2285
8794.1628
8677.8763
8861.6087
9183.9778
9313.5516
4787.5319
4893.4097
4704.9134
4821.8879
5061.7885
5055.9726
4710.6877
4687.0087
8870.2262
8926.8929
8437.0477
8593.0585
8724.895
8789.5099
8799.0209
8800.2739
512.92351
514.7546
491.97322
2177.568
4019.0453
3983.226
4072.7384
4025.1294
7330.5667
12137.247
12341.426
17904.533
18198.949
12308.29
12322.505
18221.781
18087.805
28193.343
28650.164
48211.77
47247.913
48785.857
48694.858
28787.995
28260.195
7303.1511
7263.5942
12259.259
12446.632
18067.344
18312.771
28804.151
48201.513
28306.309
47786.777
28737.584
48472.367
2119.7664
652.91501
656.81074
2107.2516
2145.1063
3935.6938
3956.8074
633.62255
634.15308
2137.629
3916.7621
3945.0011
657.98979
660.69178
2149.1677
2127.6134
6719.2317
3533.3461
3541.9449
6705.7516
6661.5116
3491.8417
3514.886
6634.6086
12912.104
12891.859
32012.688
32616.666
12829.642
12754.818
32591.604
32461.7
6634.0113
3480.8577
3523.634
6686.2452
6670.0995
3485.0673
3491.9786
6607.7151
12808.106
12860.165
32690.4
32818.582
12724.462
32372.009
12833.503
31965.191
7209.6755
7203.6822
12088.741
12253.367
17856.389
18081.367
12165.411
12161.272
18050.433
17883.67
46591.597
47608.134
27830.024
28382.661
48136.537
48078.446
28500.559
28127.345
7177.5263
7181.4268
12084.726
12249.902
17877.156
18091.39
12126.001
12132.836
18012.318
17853.551
28183.076
47698.064
28597.293
48312.043
28509.231
28096.15
48179.477
47759.827
20962.521
21178.935
7768.0139
7805.2955
21142.815
7754.2382
20557.334
7690.0196
22212.817
22509.005
8388.5396
8367.0451
8430.8617
22760.593
22336.981
8394.2911
35961.903
35125.591
11072.848
11097.607
37927.562
37671.779
11423.135
11448.915
39576.498
38868.744
11840.966
11877.908
38941.377
39663.591
11907.32
11846.76
38799.364
38439.385
11744.443
11723.563
39469.697
39667.023
11845.441
11827.848
11791.209
39056.182
39457.021
11782.096
37533.261
38800.741
11619.697
11510.846
37278.588
36510.78
11435.334
11469.613
39153.237
38979.592
11822.416
11830.582
40022.73
12243.898
40684.084
12302.051
12413.514
40978.103
40154.138
12361.031
38213.015
37827.566
11643
11623.662
11770.095
39212.248
39055.594
11781.024
38619.656
38047.581
11613.629
11657.183
36902.963
37999.285
11549.795
11512.64
21596.817
21562.819
7975.3845
8012.3598
20232.635
20804.764
7695.1123
7729.0243
7985.4674
21546.856
21815.977
7979.8854
21831.924
21776.326
8037.9915
8131.0714
3839.4878
3778.1901
4011.4898
3951.8204
3230.6903
3182.945
2879.2021
2920.0688
1123.3242
3438.9387
3069.7567
3096.4654
3411.3422
1154.7989
4055.2414
4084.1444
4283.0671
4254.5436
1014.4711
992.16326
3909.167
4082.9787
3287.7068
2966.3897
2935.342
3242.3303
1124.3078
2973.8261
3293.6687
996.34382
3921.0002
4110.3464
3845.5825
4023.1807
4448.8526
5030.1979
4547.6302
5093.5864
4970.5705
4611.6579
4511.9619
4519.993
4595.0787
4627.5899
4705.6462
4664.8958
4574.7994
4892.6957
4866.4616
4790.733
4811.3115
5268.5959
5283.6179
4783.4932
4771.6702
4432.9169
4513.7683
4580.3812
4487.8814
4926.4197
4872.8599
4418.7485
4453.3906
703.69928
846.02337
833.07356
703.05975
9984.2633
10100.471
9181.8168
9273.554
9454.614
8718.0886
9698.5412
8904.5636
9050.019
8122.7976
9241.8042
8262.1835
9532.602
8525.7952
9616.3381
8588.9445
9841.3556
9782.9062
9060.1113
9015.9864
9830.099
9062.4591
9844.6291
9068.6493
9423.4461
8451.2031
9424.1704
8446.6641
9421.2996
9360.6015
8436.8313
8391.5716
9997.517
9354.4366
10028.835
9373.0837
9780.9077
9832.0877
9386.5559
9422.4232
9838.0376
9765.7267
9416.9
9365.0414
10028.114
9962.498
9359.3822
9314.3474
9664.5828
9021.6651
9944.1809
9253.6346
10006.557
10116.693
9579.3078
9691.0973
9518.1888
9110.9186
9805.6073
9362.491
10193.722
10313.956
9511.5203
9627.0956
9281.8714
8911.9307
9576.5166
9171.1626
9135.1467
9182.1324
8989.6947
9058.6838
8735.3714
8597.2957
9019.4731
8859.3388
9727.681
9812.3288
9340.5954
9438.2809
8117.4639
8264.5055
8115.8226
8291.1276
7775.4097
7919.3112
8022.3694
8161.7831
6657.71
6847.5232
5615.9371
2522.0938
5753.1853
6939.604
6921.6138
2499.7995
5809.5943
5840.6148
2386.343
2342.2704
6808.8402
6668.194
2477.7229
5584.6857
5729.2212
6748.7603
6807.3441
2464.9555
5730.1887
5688.5026
7890.4978
8038.1827
7966.5318
8111.7357
2316.6025
2334.7302
7971.6537
8110.6548
7826.2366
7998.4546
8971.8989
8823.0718
8858.8541
8738.9561
8882.0486
8752.0765
8966.6387
8825.6748
9475.2998
9123.4292
9550.2463
9179.3683
9555.6462
9175.0536
9466.0217
9112.0287
1882.0133
1854.9923
2010.8717
2030.7555
2084.419
1936.4881
1875.0019
2033.5951
9391.2724
9037.6943
9880.6298
9450.3292
9442.2409
9636.8104
9293.0786
9502.7452
8811.9481
8693.4418
9342.2249
9161.0043
10039.661
10273.123
9640.5019
9879.5039
7242.0739
7348.6636
2649.735
6229.3203
6148.6743
6736.6943
7175.6343
2612.9982
6099.8825
5717.5368
8426.1138
8564.3449
8562.8619
8727.2727
7840.663
7992.218
8360.5195
8478.4864
2472.4077
2488.2516
6796.782
6994.5029
5925.5288
5756.2139
7929.1492
8066.5485
8172.299
8308.2624
8970.6372
9477.2266
9107.4709
9738.0243
9327.5326
8904.2802
8761.8908
9177.5392
9012.4661
9698.7575
9285.4961
9804.6557
9390.7189
2160.2923
2001.6393
1991.0858
2162.3584
587.47912
593.25686
468.58394
465.36372
386.78179
1117.8258
1295.2244
1236.8919
1071.5237
1445.4368
1509.9436
1682.0943
1620.6296
1602.0764
1425.9869
1450.6329
1627.823
1217.8073
1047.4703
1235.4602
1063.8602
1315.2206
1122.1894
1297.664
1731.0986
1541.7534
1525.2846
1717.3794
9277.0132
8344.6688
9508.0612
8516.3009
9849.8867
10036.091
8825.4797
8970.366
9662.8455
8929.8425
9966.4872
9163.7505
10299.619
9488.2545
10547.45
9690.8231
9841.9219
10213.649
9210.4349
9513.458
10503.817
10772.436
9813.0356
10062.538
9660.4934
9267.6652
10087.875
9627.0975
10313.716
10573.646
9878.3175
10132.344
9928.6822
10031.646
9472.6044
9569.2378
9749.6451
9967.7059
9335.8088
9516.6478
9925.4199
10101.17
9274.0665
9412.025
10055.745
10143.266
9359.0979
9433.7257
9818.1873
9029.6037
9874.9271
9069.5243
9741.4292
8986.1226
9864.6102
9075.7555
9343.5176
8401.8233
9416.6678
8450.4074
9373.3696
8404.6169
9393.5963
8417.5238
12298.601
12170.09
12354.859
12403.816
12373.576
12367.356
12560.714
12521.215
12155.873
12216.522
12619.211
12586.995
13042.665
13119.165
13249.45
13125.652
8785.9057
8763.6228
8852.8929
8951.7743
8485.0282
8542.752
8789.8936
8828.529
9221.6154
9189.8033
9272.2157
9220.797
8572.9914
8477.986
8595.116
8531.7472
12628.272
12685.476
12709.76
12583.274
11762.507
11819.674
12195.614
12185.125
12382.334
12197.178
12566.669
12570.79
12516.084
12514.891
12589.245
12659.259
496.03734
497.42458
470.2551
655.52885
656.70173
3981.7879
3945.4253
2176.9557
4634.389
4670.4336
3987.0056
6163.0207
6138.5679
10216.114
10329.457
15382.125
15689.164
15223.354
15567.976
22503.552
18362.9
22677.497
18473.047
18764.626
18785.792
23018.449
22903.935
15527.57
15445.957
22954.655
18751.252
23056.721
18829.454
18633.607
18614.405
22882.995
22676.011
39465.196
26390.076
26586.997
40099.41
26761.716
26947.161
39805.678
40677.32
65059.443
54638.43
54828.811
64291.037
53114.981
64036.693
64398.185
53715.055
64952.622
65129.946
55464.768
55157.697
55466.16
64784.986
64121.643
55120.18
26960.912
26852.502
40471.668
40232.605
26505.014
26797.553
39394.585
39867.338
6136.5343
6118.6429
10286.109
10186.845
6106.1741
6089.0516
10132.727
10239.537
18653.569
18545.393
22691.272
22861.392
23125.506
18885.34
18899.371
22992.984
39860.823
26857.705
26988.534
40782.129
54259.198
64256.443
65088.213
54681.771
26752.027
26550.754
39237.473
40111.6
54215.205
63638.291
64474.983
54501.654
40952.288
27036.361
26820.674
39896.401
64150.457
65424.588
54931.549
55087.244
2211.4285
4069.1203
4003.0838
639.7182
643.02144
2200.0296
4027.9785
4018.1293
3919.6436
3896.0718
2149.6675
4584.4269
4604.1179
3906.886
3878.7666
2135.5603
4554.2698
4586.3664
643.61298
646.65866
2238.4127
4084.5602
4063.8365
2219.1656
4045.9847
4029.5542
7397.1683
7387.5402
7340.7568
7305.4943
18094.619
18365.586
12502.911
12318.99
12396.388
12395.999
18315.487
18153.963
28125.581
46855.539
28751.919
47613.963
28883.227
28420.058
48408.378
48365.33
18060.473
12436.644
12259.544
18299.596
12259.148
12285.098
18163.899
18031.716
28320.219
28765.503
48049.97
48681.676
28652.639
48506.342
28161.911
48265.268
7301.5994
7366.9355
7353.1435
7274.6291
12220.466
12406.095
18035.492
18289.907
12352.246
12391.474
18263.756
18151.897
28311.548
28774.466
48338.987
48784.151
28483.439
28792.807
48887.294
48635.184
12224.192
12251.275
17963.861
18109.686
28422.523
28671.296
47618.95
48064.578
12446.654
12269.488
18063.282
18272.759
28400.729
27910.783
47863.709
47150.356
6045.3388
6053.5386
10149.258
10113.875
15186.607
15459
6058.5577
6029.7317
10064.541
10157.345
15364.074
15252.562
18443.182
18327.181
22464.304
22633.928
22877.64
18641.004
18682.539
22793.084
22781.982
18583.37
22876.12
18661.228
18411.281
18416.208
22641.83
22478.077
52562.78
62913.928
63653.121
53148.86
54049.202
64331.624
64103.744
54284.771
26520.271
26334.88
39634.039
38805.157
26651.455
26789.562
39910.224
40014.863
54589.131
64232.73
64540.065
54904.856
54854.03
64452.093
63885.076
54507.676
26774.71
26676.869
40223.488
39759.305
26330.411
26569.284
39505.707
39787.521
6029.0111
6006.3158
10126.313
10019.499
15318.752
15209.545
6017.6299
6002.6774
10133.544
10060.573
15197.462
15461.356
18463.044
18350.629
22498.417
22666.338
22902.628
18653.765
18672.272
22780.571
22743.87
18540.565
22834.787
18614.213
18373.459
18370.899
22611.224
22435.153
26568.898
26380.72
39416.699
40182.175
54267.396
63837.345
64422.636
54458.545
26652.206
26835.567
40749.897
40278.896
64657.312
65179.462
54903.568
54887.825
26752.839
26657.539
40211.311
40513.695
26294.849
26556.87
40225.471
39556.979
64872.03
64763.438
54551.42
54770.539
64008.096
64868.618
54429.585
53798.908
37580.848
37210.013
11445.67
11426.701
37588.433
38176.573
11419.679
11392.852
38202.963
37527.524
11419.944
11459.032
35763.503
37328.801
11231.016
11113.87
38897.938
40085.809
12142.08
12221.831
39902.054
40600.979
12253.494
12196.446
40952.613
40419.671
12371.998
12396.321
39025.335
40451.172
12270.99
12125.882
38201.034
37393.029
40282.26
40050.351
42037.839
41315.909
41415.415
42199.9
41200.989
40843.297
41947.82
42116.342
41583.088
41983.562
39951.166
41313.963
39627.912
38939.25
41653.664
41445.066
42589.241
43250.847
43633.668
42713.989
40582.207
40230.145
41705.571
41473.767
41027.929
40517.038
39093.856
40479.498
39129.639
38282.576
11710.341
11757.883
38198.836
38877.509
11684.674
11719.362
36094.367
35704.057
11194.155
11171.816
11313.292
37247.572
37217.094
11344.002
38703.74
38262.812
11707.831
11724.325
38903.919
39354.061
11741.195
11725.788
39414.388
38841.857
11807.562
11841.998
38375.809
39215.463
11836.874
11807.018
9013.1586
8853.0266
8835.3228
8703.7778
8834.4772
8679.5139
8799.6604
8650.8955
9550.1044
9128.2838
9407.5702
9016.6897
9385.2298
8998.6845
9351.4454
8963.5944
8020.1405
8151.2746
7843.5254
8000.527
7865.5421
7998.1115
7811.0642
7957.1945
6733.6606
6670.8786
5693.1048
5620.5845
2488.8715
6842.4053
6679.2804
5597.7591
5755.3749
2522.4085
2349.6878
2384.1296
8578.92
8720.3377
8442.9979
8588.7418
7303.1572
7231.3932
6111.3513
6188.4145
2639.8171
7371.8727
7238.363
2667.029
6110.2509
6258.7873
8512.7201
8651.3937
8440.0078
8605.7978
2475.6656
2505.0249
9548.5132
9388.7416
9500.5123
9361.6657
9610.3409
9447.4717
9474.4563
9321.8711
10197.084
9792.1698
10069.485
9675.7499
10151.672
9749.8521
10115.763
9731.702
2012.4367
1981.8175
2152.476
2182.2088
1937.4481
1901.5829
2049.4889
2081.4832
9140.4498
9173.2679
8976.3376
9021.5335
9702.2323
9750.3293
9292.0886
9348.2429
8135.604
8273.5962
8136.5056
8295.3957
6940.3303
5822.5974
6895.1284
6849.0845
2537.9171
5773.3499
5831.8274
8044.8847
8173.8708
8007.4589
8143.0244
2417.9923
2399.7517
2563.1187
6913.5768
6987.1416
5879.5869
5825.4123
8079.0654
8226.2227
8182.058
8348.7218
1958.4445
2093.4686
2106.7715
9093.3514
8944.8546
9241.7323
9100.615
9674.8719
9287.2883
9849.0695
9458.6
9014.2695
8854.6228
8992.3007
8835.6505
9563.0752
9179.5685
9547.3267
9159.82
9081.7368
8161.9626
9148.2463
8205.3187
9848.8107
9913.9865
9063.7905
9117.5049
8805.6479
9412.158
8446.4672
9461.8754
8485.4439
9895.5002
10064.391
9116.6139
9253.4481
9786.0346
9024.9784
9752.2713
8991.3384
9469.9191
9604.1834
8503.149
8605.9736
8436.917
9383.2488
9346.8355
8405.0856
9977.9092
9322.6106
9951.9937
9291.5039
9814.6378
9793.5289
9390.5664
9366.3615
10103.169
10288.113
9426.3024
9591.0336
9938.2177
10121.96
9505.2757
9678.6007
9936.7192
9994.7639
9484.8395
9547.0141
10075.696
10139.577
9387.8749
9452.5997
10462.427
10011.747
10344
9907.3783
10437.545
9987.0331
10407.502
9972.2346
10619.607
9910.8175
10592.433
9899.4222
10627.059
9915.6496
10522.062
9826.7279
10400.975
9569.4513
10376.732
9551.4381
10385.27
9551.9949
10300.001
9486.6739
9901.6668
8877.8038
9839.6173
8830.8571
9933.385
8906.6881
9897.787
8875.9058
9774.6101
9115.3078
9719.7352
9063.2114
9626.7695
9195.2398
9580.8177
9152.2881
9760.5661
9298.6851
9637.1843
9201.5559
9876.5908
9182.511
9764.5781
9093.3999
9640.4928
9535.9224
8854.03
8770.0152
9510.7516
9577.2114
8821.5405
8763.277
9178.8436
9107.8961
8185.8303
8247.3763
9198.1126
8235.9075
9099.2368
8158.3923
593.49053
1316.1031
1099.2508
1290.099
1512.538
1545.8802
1741.0513
1710.3733
1650.0659
1474.6332
1512.2538
1685.5584
1256.8438
1073.8027
1296.8759
1109.121
14342.037
13585.608
13538.618
14295.717
14509.391
14505.901
13708.193
13712.777
12889.982
13847.158
12943.727
13789.413
13940.253
13009.275
13951.484
13010.499
12600.869
13290.95
12654.758
13229.637
12928.952
12136.014
12081.212
12868.295
13132.431
13749.49
13040.343
13868.343
13298.383
12441.291
13381.653
12515.126
11643.736
12351.918
11690.311
12292.779
11197.818
11891.99
11845.098
11196.529
12719.507
12015.983
12649.255
11955.525
11495.161
12158.193
12216.333
11525.592
13150.215
12416.44
12371.633
13091.607
11918.194
11921.293
12583.332
12619.194
13208.184
12460.587
13196.34
12455.952
12644.593
11919.174
12663.52
11965.372
14207.467
13473.46
13380.053
14101.044
13911.07
14012.907
13286.856
13215.433
12764.683
13759.134
12859.326
13646.603
13473.652
12612.237
13561.735
12668.975
13269.832
14172.555
13434.617
13975.336
13712.996
12831.028
12681.587
13532.911
13461.476
14196.827
13436.881
14219.733
13700.807
12803.656
13714.746
12828.315
12203.298
13053.024
12329.592
12892.161
11775.415
12541.72
11833.795
12417.992
13033.735
12316.492
13017.38
12296.264
12524.321
11882.062
12524.507
11857.221
13080.152
12344.939
12262.133
12972.624
12881.91
12159.221
12812.016
12112.686
11854.885
11820.109
12559.369
12474.223
12306.366
12366.252
11676.217
11591.431
14246.546
15110.217
14461.439
14870.32
14872.175
13909.621
13723.156
14645.74
14532.869
15128.921
14482.605
15208.607
14913.947
13935.366
14936.427
13976.89
15214.561
14670.191
14460.387
14980.716
15248.844
14686.892
14808.853
15372.049
15268.676
14577.388
14361.684
15030.826
15285.667
14585.45
14686.233
15397.989
15346.872
14760.466
14652.373
15216.44
14911.279
15025.847
14461.722
14372.024
15351.34
14623.478
14513.876
15226.36
14928.516
15047.837
14341.036
14244.996
15146.062
14463.557
14368.84
15022.257
14731.814
14858.495
14200.223
14093.844
13911.944
13828.061
14857.99
14762.591
14460.013
14599.04
13706.295
13619.687
13445.75
14129.762
13509.428
14055.338
13836.17
13024.774
12967.997
13777.272
14897.204
14209.934
14720.183
14057.763
14413.062
13499.439
14563.11
13630.191
15560.324
14979.958
14869.459
15438.822
15648.621
15075.008
15128.244
15696.719
14745.619
15577.223
14847.49
15452.894
14994.153
15688.959
14957.561
15725.75
13764.051
14387.946
13856.09
14285.915
14362.057
13696.907
13617.308
14265.902
14580.75
14986.885
14408.848
15167.396
14954.312
14238.252
15134.987
14408.827
15371.243
14682.701
14622.219
15274.122
15508.861
14829.332
15526.042
14846.377
14086.92
14049.048
15072.347
15028.034
15248.629
15250.556
14248.886
14269.625
14034.725
14731.705
14128.913
14636.887
14628.36
13913.861
13816.64
14521.318
15530.499
14873.973
15378.809
14719.015
15252.348
14474.507
15419.993
14642.043
16590.243
15659.049
15576.355
16504.242
16524.8
16508.567
15609.369
15640.312
15206.949
16204.147
15311.652
16097.55
16196.989
15342.693
16182.694
15307.556
14572.381
15498.801
14624.812
15463.113
15100.644
14270.67
14192.022
15026.759
15419.385
16244.178
15288.258
16366.684
15795.731
14886.006
15927.812
15027.953
15842.657
15194.15
15084.162
15719.423
15861.932
15226.903
15890.415
15273.691
14999.206
14892.367
15772.643
15650.736
15869.943
15828.94
15064.05
15119.412
18637.283
18621.799
17009.01
16987.83
17406.372
16110.144
16053.487
17449.971
18396.402
18419.018
16866.057
16815.206
17292.639
17317.73
15991.993
16032.583
15997.918
17506.075
15962.445
17552.279
16351.22
15080.89
15072.702
16368.764
16876.55
18439.622
16759.379
18523.492
17177.085
15795.889
17289.38
15921.749
18889.02
18918.629
17199.089
17242.525
18120.033
18198.794
19967.547
19982.569
18170.797
5012.0453
5051.5573
4968.1955
5111.0782
19198.173
20100.863
20093.559
18312.696
18307.494
18033.253
18073.443
19759.924
19749.025
5179.2682
5104.4677
5027.4688
5130.2426
18928.028
19325.377
4542.2486
4499.9693
4530.7135
4590.7376
4442.8663
4553.1453
4628.5323
4545.4685
20048.529
20044.007
18222.473
18216.299
17535.473
17547.09
19249.121
19227.629
5095.1122
5040.2723
4873.2578
4953.2538
18395.287
19282.108
19359.475
19349.965
17646.435
17628.789
18006.462
18092.871
19820.533
19844.515
5047.8455
4981.216
5008.2225
5081.6529
19062.571
18597.238
17973.267
17938.12
16360.519
16410.758
16842.035
16757.83
15565.982
15462.872
16795.13
18325.145
16683.543
18409.858
15777.084
17115.405
17217.308
15888.263
4525.3867
4461.9437
4468.354
4541.7829
4350.2619
4525.2839
4583.0449
4428.7186
16855.398
18546.587
16883.93
18526.468
15958.418
17321.334
17271.386
15898.961
16293.44
17882.413
16290.743
17866.087
15457.211
16745.723
16707.977
15420.235
15398.98
16433.797
15487.106
16346.022
16028.391
15123.112
15020.23
15919.236
15867.507
14982.116
15945.722
15045.646
15595.05
14730.67
15497.912
14656.785
15011.762
16037.638
15162.125
15894.74
15704.155
15518.288
14866.664
14685.854
15428.546
16247.957
15321.985
16345.661
14976.867
15858.817
15960.042
15090.451
14595.415
15400.495
14794.458
15188.017
14650.112
15374.803
15147.815
14444.626
15615.816
14986.604
15503.007
14865.388
14689.335
15440.872
15562.19
14816.205
14879.835
15650.401
14990.191
15528.057
14790.421
15566.615
15437.66
14679.273
15161.205
14552.091
15261.838
14630.661
14466.576
15206.625
15101.018
14380.056
3363.4501
3507.7646
3625.6362
3481.463
3426.8386
3450.1896
3563.682
3547.961
4048.989
3958.9272
3954.051
4048.339
4112.225
4029.3865
3857.4855
3952.5638
4106.7464
4042.3143
4031.534
4111.9515
3664.4012
3548.313
3513.5483
3636.992
3369.0862
3505.1344
3629.961
3506.835
4128.5586
4033.4321
3898.6152
4016.9702
14232.864
15006.521
14402.651
14827.085
14936.734
14215.598
14046.978
14743.936
16076.412
15384.894
15869.969
15181.491
15716.54
14909.419
15931.027
15117.26
17098.583
16137.531
16053.555
17003.646
17306.945
17278.586
16343.357
16394.963
15670.98
16687.036
15765.535
16580.933
16964.629
16082.614
16930.887
16021.264
14700.841
15691.994
14827.252
15576.85
15336.754
14511.419
14359.276
15179.661
16010.204
16818.132
15822.078
17003.346
16327.026
15380.115
16520.409
15577.668
16298.942
15624.992
15536.636
16188.754
16592.265
15930.402
16643.707
16003.268
15405.472
15332.798
16204.588
16108.187
16612.864
16550.652
15751.855
15833.456
20760.269
20756.323
18902.05
18901.303
18912.897
18961.072
20717.645
20708.022
5481.2082
5421.4054
5436.5142
5527.5077
19890.185
20003.868
18977.336
18989.194
17289.674
17295.196
18834.227
18951.628
20766.973
20814.756
5118.0011
5076.3401
5409.71
5443.488
20032.216
18249.705
19230.329
19211.951
17548.237
17523.641
17938.589
16612.87
16553.05
17993.392
19271.796
19296.14
17679.844
17622.197
18104.479
18132.852
16753.461
16807.107
16056.003
17616.546
16081.906
17610.999
16498.526
15242.94
15165.089
16442.356
17565.349
19150.982
17405.121
19279.476
17814.667
16377.783
17982.17
16559.79
4653.1964
4619.5023
4897.7677
4932.318
4836.2633
4870.7745
4935.0288
4932.3202
19435.237
19436.156
17666.855
17669.144
18458.396
18556.162
20350.061
20376.037
19585.895
18693.203
18002.549
17979.943
16364.416
16405.547
16837.069
16747.36
15525.264
15420.06
17228.664
18804.93
17096.508
18902.192
16129.044
17538.239
17659.332
16263.388
16134.267
15182.414
15097.494
16051.233
14416.122
15238.177
14610.972
15022.995
14422.269
15162.327
14931.79
14220.295
15826.906
15153.616
15691.241
15006.921
14755.368
15552.056
15695.707
14906.157
14922.017
15982.591
15073.017
15829.547
15592.5
15402.043
14727.815
14552.469
15738.487
16591.469
15605.746
16712.557
15187.134
16124.554
16250.954
15328.247
14886.12
15677.123
14977.672
15568.578
14702.528
15510.716
15406.135
14622.26
15621.119
14945.778
15716.251
15019.79
14756.772
15565.156
15463.942
14676.91
4228.7417
4172.1685
4386.304
4453.068
3785.8416
3683.0282
3822.4136
3947.7914
3710.1335
3778.5471
3904.2673
3846.7793
4428.3257
4332.8522
4265.7103
4383.8766
917.06462
924.54905
683.9176
679.08094
961.83988
938.06173
695.11078
706.2254
546.2382
534.25823
378.96155
1883.5255
1633.8114
1595.4864
1802.8507
2082.7278
2178.7224
2353.289
2273.6587
2200.1955
2004.2558
1951.6568
2144.9061
1712.6807
1462.3499
1468.5064
1677.2298
2417.3928
2503.2402
2673.0363
2575.0389
2559.4104
2629.4202
2775.5538
2717.4911
3035.7424
3085.6737
3213.3653
3169.4728
3150.7455
3004.8396
2885.3943
3031.7377
3102.1571
2966.6057
2926.4371
3070.2637
2630.8152
2457.0237
2413.9336
2592.1269
2442.067
2491.3523
2665.5372
2590.3849
3151.2001
3006.7959
2901.3782
3033.1199
2160.4542
1959.2691
1918.429
2126.9524
1667.9438
1419.727
1421.791
1635.865
2190.3813
1987.9448
1978.8636
2171.3113
1687.4813
1437.3481
1471.8005
1691.7892
2402.6475
2203.485
2198.8707
2412.4827
1899.6155
1628.5747
1888.8948
2367.2844
2152.7591
2158.9458
2365.7097
3332.1424
3207.7389
3281.1926
3433.1151
2878.1812
2713.3631
2735.1718
2923.1355
2676.9331
2692.8969
2881.9799
2850.0164
3398.2397
3242.0263
3195.1245
3345.327
12703.389
12616.003
12024.084
11960.026
11535.594
12170.76
11534.756
12236.108
13023.502
12315.771
12371.748
13092.162
11878.053
12534.362
11880.584
12572.683
13534.755
12792.561
12767.878
13496.79
13737.648
13755.624
12976.223
12972.591
12341.578
13002.151
12304.547
12995.176
13151.805
12415.879
13182.164
12477.548
13684.71
13564.665
13016.134
12920.076
13194.197
12396.24
13296.477
12477.084
14163.454
13427.756
13525.577
14285.438
12888.128
13688.359
12809.474
13774.958
14756.042
13980.954
14712.861
13946.326
14200.805
14244.031
13323.229
13291.264
15141.642
14308.896
15151.803
14309.656
13562.607
14548.692
14526.293
13562.164
14523.883
13894.974
13773.036
14384.879
15350.582
15152.581
14482.046
14652.707
13298.405
14254.096
13407.292
14131.016
15022.701
14051.409
14861.81
13909.883
15770.536
15084.576
15043.215
15719.6
16210.309
15507.157
16247.945
15531.726
14467.833
15498.268
14493.058
15457.819
15941.625
15951.281
14893.913
14915.696
14034.87
14723.429
14181.775
14543.77
14720.669
14047.622
13920.102
14567.404
15032.152
15425.085
14827.735
15643.322
15384.452
14653.167
15596.333
14851.677
15967.616
15371.849
15316.379
15888.322
16351.314
15753.964
15836.054
16421.779
15189.054
15972.868
15231.89
15913.226
15702.194
16392.38
15632.53
16455.488
15210.053
14601.832
14535.284
15120.104
15168.858
15272.901
14663.563
14579.47
15139.995
14396.125
14338.828
15065.62
15095.714
15210.785
14453.477
14358.111
14950.137
14392.025
14194.312
14719.651
15277.942
14686.402
14828.944
15425.199
14950.045
14246.688
14058.457
14725.365
15245.916
14513.052
14644.302
15380.26
14735.302
14080.077
13910.403
14524.35
15008.529
14337.598
14438.583
15126.912
13419.835
14447.288
13581.863
14265.381
13855.413
14716.722
13777.539
14793.694
14863.328
14176.483
14130.702
14797.255
14791.776
14922.83
14224.565
14119.739
13602.217
14527.001
13655.402
14476.679
14434.482
14572.969
13685.715
13591.082
13949.379
13253.357
13875.586
13190.724
13453.787
12603.617
13531.139
12666.814
13855.188
13967.162
13247.425
13166.696
13410.444
12560.421
13505.693
12621.963
13880.777
13689.214
13198.999
13039.357
13310.403
12499.833
13492.532
12644.888
14038.04
13311.421
13364.722
14095.637
12748.555
13574.362
12702.712
13613.293
12878.943
12717.237
12181.811
12059.557
12268.823
11652.572
12402.157
11702.727
12917.028
12215.731
12250.227
12950.813
11793.76
12432.59
11805.444
12449.226
12885.403
12179.441
12811.908
12126.702
12328.541
11687.582
12388.194
11688.661
12827.615
12755.779
12116.358
12069.962
12256.875
11540.444
12312.669
11619.566
12494.945
12491.699
12533.828
12462.124
12577.818
12627.869
12600.423
12500.698
11899.033
11911.679
12063.149
12069.863
12484.683
12551.776
12505.542
12393.842
13039.781
12919.36
13077.195
12957.596
13215.359
13185.088
13087.427
12855.374
12152.748
12222.386
11952.291
11754.788
12176.936
12183.534
12181.254
12104.212
473.58477
664.01004
665.92623
671.78495
668.23986
433.58091
669.42324
641.15758
643.8234
673.932
7014.1228
7023.1466
6974.9806
7002.8045
5088.7449
5112.595
4540.1426
4506.5368
6927.1002
7969.633
7934.3223
6956.3361
7979.8305
7976.0601
6979.5301
6965.9289
7021.2379
11111.043
16365.635
16612.696
20734.393
20992.553
21158.991
21139.133
16209.24
20801.004
20536.287
16495.893
21043.646
21035.527
24375.182
24644.226
24973.134
24811.266
16533.595
21186.374
20973.918
16356.482
20900.129
20817.223
24848.957
25031.221
24828.464
24555.391
55785.867
28320.006
28600.924
57334.655
28711.596
28973.351
56137.19
57997.207
102564
58648.891
58853.85
101975.5
57789.321
101512.19
102309.16
58059.956
102441.5
102466.28
59224.834
59003.468
59268.674
101872.94
102150.67
58994.635
28975.967
28809.103
57388.903
57038.157
28427.961
28796.123
55841.224
55978.917
11194.051
11084.818
11030.584
11143.618
24568.856
24827.73
25062.273
24884.406
56112.709
28783.592
28990.518
58201.855
58827.888
101546.04
102446.32
58949.513
28754.232
28476.818
55413.111
57267.08
58540.883
101685.33
102488.75
58856.74
58569.468
29036.272
28753.743
56726.655
102159.45
102885.39
59242.993
59160.131
4038.6907