/*--------------------------------*- C++ -*----------------------------------*\
  =========                 |
  \\      /  F ield         | OpenFOAM: The Open Source CFD Toolbox
   \\    /   O peration     | Website:  https://openfoam.org
    \\  /    A nd           | Version:  7
     \\/     M anipulation  |
\*---------------------------------------------------------------------------*/
FoamFile
{
    version     2.0;
    format      ascii;
    class       volScalarField;
    location    "1000";
    object      k;
}
// * * * * * * * * * * * * * * * * * * * * * * * * * * * * * * * * * * * * * //

dimensions      [0 2 -2 0 0 0 0];

internalField   nonuniform List<scalar> 
34387
(
1.5236584
1.5238542
1.5213497
1.5212179
1.5337246
1.5255062
1.5252393
1.523349
1.5231425
1.545945
1.5459981
1.5241508
1.5241365
1.5216334
1.5216625
1.5244437
1.5461096
1.5462762
1.5242075
1.5218874
1.5216767
1.5211162
1.5207918
1.520051
1.5199469
1.5206407
1.5206007
1.519888
1.5199235
1.5206182
1.5210131
1.5187944
1.5187614
1.5186278
1.5266089
1.5263346
1.5241727
1.5239798
1.5412108
1.541376
1.541395
1.54155
1.5263422
1.5238829
1.5238072
1.5262008
1.5259951
1.5261629
1.5235227
1.5237274
1.5228242
1.5221347
1.5221036
1.523139
1.5227566
1.5229823
1.5226812
1.5220125
1.5218678
1.5224974
1.5213426
1.5212853
1.5901407
1.5897124
1.5375909
1.5765663
1.5771084
1.5896922
1.5376651
1.5778523
1.5767143
1.5328355
1.5328407
1.5766549
1.5372233
1.5760235
1.537323
1.5325045
1.5324871
1.5280014
1.5250862
1.5279977
1.5250597
1.5250969
1.5251132
1.5278046
1.5278104
1.5377863
1.5380454
1.5332195
1.5330539
1.6087028
1.5923555
1.5910282
1.579125
1.5375644
1.5776532
1.5908323
1.5908178
1.5378487
1.577615
1.5778844
1.5326184
1.5329564
1.5254856
1.5282528
1.5283262
1.525324
1.5253112
1.5250108
1.5277829
1.5281186
1.519201
1.5197554
1.5196984
1.5191664
1.5231014
1.5217021
1.5229486
1.5215491
1.5201735
1.5202701
1.520787
1.5206745
1.5201171
1.5206057
1.5206497
1.5201206
1.5214357
1.5227254
1.5229189
1.521519
1.5214717
1.521483
1.5227745
1.5227711
1.5200857
1.5200812
1.5196394
1.5205837
1.5205892
1.5201201
1.5201864
1.5196545
1.5207104
1.5206239
1.5228095
1.521461
1.5215648
1.5228356
1.5191289
1.5191393
1.5190007
1.5189775
1.5269928
1.5229198
1.5212808
1.5272419
1.5270919
1.5246247
1.5244314
1.5269723
1.5268532
1.5243528
1.52426
1.5235162
1.5227636
1.5226374
1.5233491
1.5239333
1.5232625
1.5225362
1.5225061
1.5231953
1.5237962
1.5217608
1.5217159
1.5399493
1.5395707
1.5347805
1.5349968
1.5271825
1.5271476
1.5299225
1.5300735
1.5271145
1.5271242
1.5299723
1.5299594
1.5345648
1.5346163
1.5392061
1.5391675
1.5393697
1.5399237
1.5343965
1.534925
1.5397171
1.5395195
1.534756
1.534668
1.5267634
1.5295537
1.5299246
1.5268531
1.5270038
1.5270057
1.5298191
1.5298616
1.5234205
1.5234549
1.5247901
1.524788
1.5218974
1.5220756
1.5225681
1.5220385
1.5225352
1.5220326
1.5220296
1.5225121
1.5225212
1.5218741
1.5214369
1.5214286
1.5247369
1.5233285
1.524741
1.5233383
1.5217855
1.5216858
1.5213611
1.5213138
1.5233152
1.5233336
1.5246669
1.5246546
1.5219519
1.5219624
1.5224526
1.5224402
1.5218794
1.5223584
1.5222801
1.5217683
1.5231309
1.5231758
1.5244677
1.5244935
1.5213295
1.5212777
1.6779422
1.6778978
1.6752657
1.6752847
1.6757837
1.6760863
1.6769895
1.6769654
1.5661778
1.561743
1.5616114
1.5656348
1.6600339
1.6613579
1.6763694
1.6762873
1.6741841
1.6741626
1.5624458
1.5618839
1.5658001
1.5666566
1.6599371
1.6596778
1.5500751
1.5499895
1.553617
1.5539782
1.5496268
1.5500137
1.5535556
1.5533593
1.6614563
1.5657359
1.5613512
1.5610256
1.5651043
1.6596247
1.5649989
1.5605477
1.5532133
1.5492277
1.5491297
1.5528351
1.5524644
1.5483369
1.54907
1.5434821
1.5401019
1.53992
1.543085
1.5351218
1.5323367
1.5323309
1.5349312
1.543418
1.5399859
1.5401361
1.5433959
1.5349691
1.5321296
1.5324086
1.5350757
1.5322972
1.532176
1.5346413
1.5348668
1.5324633
1.5324954
1.5349596
1.5350507
1.5428274
1.5394798
1.5396516
1.542731
1.5393944
1.5390776
1.5420881
1.54261
1.5655256
1.5657176
1.5611592
1.5611637
1.5670353
1.5667763
1.5625434
1.5624221
1.5503032
1.5509113
1.5540696
1.5543287
1.5493144
1.5496619
1.5531163
1.5530018
1.6889677
1.6893728
1.6857959
1.6850564
1.679853
1.6797586
1.6781576
1.678017
1.6769186
1.6772861
1.6774496
1.6774701
1.662789
1.5677338
1.5619971
1.5630315
1.5663699
1.6602449
1.6804743
1.6803263
1.6775705
1.6774437
1.6759722
1.6763915
1.6771672
1.6771834
1.566909
1.5625518
1.5623152
1.5664877
1.6604612
1.6638403
1.5544667
1.5501153
1.5494501
1.5534751
1.5542245
1.5501117
1.550069
1.5539183
1.5358009
1.5330966
1.5326177
1.5351923
1.5397822
1.5404032
1.5433001
1.5428882
1.5442895
1.5409427
1.5404708
1.5436609
1.535825
1.533007
1.5327815
1.5354033
1.5328319
1.5331838
1.5357532
1.5355018
1.5321518
1.5323566
1.5349961
1.5348247
1.5433599
1.5396706
1.5394857
1.5428167
1.5402429
1.5404996
1.543545
1.5434509
1.5194438
1.5199079
1.5198526
1.5196394
1.5196128
1.5198006
1.5198002
1.5195816
1.5195821
1.5194168
1.5296275
1.527681
1.5273297
1.5291937
1.5254124
1.5240894
1.5238778
1.5251164
1.5294741
1.527453
1.529269
1.5272206
1.5251583
1.5238285
1.523787
1.5250152
1.5207556
1.5207698
1.5212148
1.5212049
1.5208106
1.5209015
1.5213641
1.5212625
1.5227992
1.5220452
1.5219229
1.5226243
1.5218596
1.5218778
1.5225696
1.5225482
1.5207174
1.5207448
1.521185
1.5211781
1.5225783
1.5218468
1.5218532
1.5225474
1.522703
1.5219501
1.5227481
1.5219847
1.5212176
1.5207459
1.5212374
1.5207409
1.5250421
1.5237538
1.523713
1.5249102
1.5269296
1.5271096
1.5289441
1.528775
1.5295982
1.5275702
1.5274508
1.529324
1.5252639
1.523936
1.5239806
1.5252015
1.5238738
1.5237892
1.5249846
1.5250973
1.5238824
1.5238224
1.5249991
1.5250941
1.5289476
1.5270009
1.5271472
1.5289571
1.5271634
1.527008
1.5287944
1.5290016
1.5197601
1.52075
1.5212071
1.5212102
1.5207192
1.5197576
1.5207327
1.5211809
1.5212134
1.5207219
1.5195483
1.5195463
1.5219068
1.5218531
1.5225343
1.5226006
1.5219077
1.5218873
1.5225682
1.5226051
1.5197885
1.5207918
1.521241
1.5212744
1.520781
1.5198258
1.5208763
1.5213356
1.5214847
1.5209563
1.5195704
1.5195889
1.5222095
1.5220161
1.5226895
1.5228926
1.5219714
1.5219108
1.5225808
1.5226646
1.5291086
1.527176
1.5272378
1.5290665
1.5250013
1.5237318
1.5238471
1.5250458
1.5240726
1.5238454
1.5249995
1.5252388
1.5288757
1.5269635
1.5272315
1.5290024
1.5193989
1.5194202
1.52297
1.523134
1.5254503
1.5272932
1.5285346
1.5289505
1.5276172
1.5415785
1.5420726
1.5211076
1.5231466
1.5229867
1.5216408
1.5411585
1.5411478
1.5363382
1.5360439
1.5412765
1.5412045
1.5360946
1.5360994
1.5312223
1.52814
1.5279135
1.5309198
1.5278832
1.5309189
1.5309328
1.5277366
1.5411396
1.540941
1.5358531
1.5359656
1.5405992
1.5406518
1.5356579
1.5355563
1.5278164
1.527758
1.5307319
1.5308444
1.5275856
1.5305195
1.5306291
1.527521
1.5256152
1.5241182
1.523998
1.5254289
1.5225783
1.5226657
1.5231902
1.5230894
1.5224818
1.5230383
1.5224996
1.5224969
1.5230042
1.5224045
1.5239225
1.5238659
1.5253699
1.5252782
1.5219077
1.5218702
1.5238515
1.5252706
1.5238493
1.5253085
1.5224136
1.5224194
1.5229311
1.5223113
1.5229253
1.522379
1.5223964
1.5222863
1.5229042
1.5228866
1.5237445
1.5237646
1.5251545
1.5251315
1.5218103
1.5218022
1.521735
1.5216923
1.5696187
1.5652486
1.5644208
1.5686678
1.5679014
1.5636806
1.5633626
1.5673834
1.5554377
1.551441
1.5512555
1.5550194
1.5566908
1.5524267
1.5518307
1.5558497
1.534103
1.5347426
1.5375084
1.5368932
1.5341857
1.5341987
1.5367666
1.5368237
1.5448649
1.5414189
1.5415147
1.5446808
1.5416864
1.5424081
1.5456467
1.5450743
1.5340811
1.5344778
1.5371025
1.5368456
1.5341793
1.5346597
1.5373582
1.5369791
1.5457697
1.5421883
1.5418054
1.5451052
1.5452764
1.5418373
1.5416147
1.5448889
1.5510319
1.5513577
1.5548792
1.5548481
1.5512856
1.5520139
1.5557048
1.5550899
1.5682973
1.5634663
1.5628047
1.567121
1.5625372
1.562405
1.5664166
1.5668984
1.568813
1.5692902
1.5641703
1.5644433
1.5690858
1.5700388
1.5644976
1.5655731
1.5556712
1.5513657
1.5557853
1.5512167
1.5533034
1.5569842
1.5561213
1.551823
1.5694746
1.5688199
1.5645279
1.5643021
1.5636919
1.5634171
1.5675161
1.5678391
1.5517505
1.5521255
1.5558642
1.5558685
1.5513716
1.5512266
1.5550535
1.5552615
1.5336662
1.5337683
1.5364087
1.5363874
1.5446907
1.5410593
1.5410912
1.5444898
1.5463739
1.5427737
1.5451379
1.541451
1.5374411
1.534396
1.5336654
1.5364082
1.5339697
1.5343365
1.537018
1.5367487
1.5339681
1.5340263
1.5366941
1.5366898
1.5414282
1.5413856
1.5446284
1.5447243
1.5453895
1.5417998
1.5415343
1.5449564
1.5252246
1.5253365
1.5267015
1.5265437
1.5253625
1.5253366
1.5266103
1.5266805
1.5307182
1.5286783
1.5288094
1.5307147
1.5310709
1.528879
1.5286407
1.530603
1.5217859
1.5215506
1.5215447
1.5217606
1.5222033
1.5222316
1.5226569
1.5226172
1.523293
1.5240455
1.5240543
1.5232387
1.522613
1.5221702
1.522186
1.5225961
1.5232083
1.5232451
1.5240156
1.5239557
1.5217507
1.5221736
1.5221887
1.5226015
1.5225979
1.5217529
1.5221643
1.5221669
1.5225787
1.5225774
1.5239956
1.5231934
1.5231928
1.5239379
1.5232248
1.5232192
1.5239589
1.5239751
1.5215305
1.5215299
1.5214156
1.5214069
1.5310376
1.5288997
1.5286527
1.5306369
1.5265868
1.5251877
1.5251113
1.5264047
1.5309015
1.5288002
1.528641
1.5305846
1.5265247
1.5251336
1.5251504
1.5264251
1.5216788
1.5216714
1.5214642
1.5214607
1.521605
1.5214094
1.521373
1.5215248
1.5213495
1.5213099
1.5251621
1.5252419
1.5264611
1.5265521
1.5251869
1.5252842
1.5265759
1.526484
1.528572
1.5286769
1.5305708
1.5305016
1.5307839
1.5286754
1.5285415
1.5304857
1.5221069
1.522124
1.5225359
1.5225267
1.5221125
1.5221416
1.5225591
1.5225331
1.5239885
1.5231839
1.5231578
1.5239076
1.5239507
1.5231517
1.5231483
1.5238924
1.522054
1.5220599
1.5224781
1.5224737
1.5231017
1.5231021
1.5238392
1.52385
1.5240127
1.5231715
1.5230528
1.5238178
1.5224601
1.5220084
1.521958
1.5223746
1.5250135
1.5252885
1.5266355
1.5263053
1.5250241
1.525002
1.526254
1.5262952
1.5303335
1.5282701
1.528338
1.5302508
1.5283514
1.5288215
1.5308044
1.5302681
1.5211662
1.5211979
1.7075857
1.7073987
1.7198143
1.7200227
1.7224435
1.721257
1.7083196
1.7072322
1.6426623
1.6262744
1.6251364
1.6407544
1.7021999
1.7047364
1.7315309
1.7285768
1.7013664
1.7029836
1.7287664
1.7271904
1.7063933
1.7058333
1.7187524
1.7183719
1.6250196
1.6253598
1.6407733
1.6406489
1.7024851
1.7039189
1.7303708
1.7292079
1.7007509
1.702512
1.7283478
1.7265107
1.5956018
1.5962218
1.6098164
1.6092915
1.5957255
1.5972219
1.6107945
1.6094235
1.6425048
1.7026807
1.7037858
1.7299462
1.7292241
1.6259846
1.6244518
1.6401414
1.702454
1.7050383
1.7325738
1.7296784
1.6406036
1.6240589
1.6104532
1.5959796
1.5951446
1.6087595
1.6085477
1.594135
1.594321
1.5837736
1.571561
1.570762
1.5822074
1.5607274
1.5513738
1.551188
1.5599421
1.5827559
1.5705619
1.5706804
1.582108
1.5597849
1.5505416
1.551111
1.5598643
1.551187
1.5510929
1.5597372
1.5597967
1.5515449
1.5518354
1.5605768
1.5603273
1.5826606
1.5706141
1.5704352
1.5817641
1.5697639
1.5696906
1.580895
1.580993
1.6427549
1.6425882
1.6264907
1.6257938
1.6422792
1.6446202
1.6282275
1.6257685
1.5965279
1.5990862
1.6101726
1.6127134
1.5961846
1.5976165
1.6111027
1.6099818
1.7370038
1.7357507
1.7493897
1.7509411
1.7112176
1.7108209
1.723942
1.7237806
1.7240473
1.7230399
1.7096628
1.7087999
1.6434834
1.7056248
1.7070448
1.7339091
1.7324432
1.6246941
1.6266811
1.6405819
1.7039333
1.7061399
1.7335753
1.7311388
1.7111017
1.7100573
1.7233332
1.7223906
1.7216485
1.7207218
1.7079835
1.7071421
1.6449742
1.6284329
1.6258938
1.6413907
1.7019268
1.7044649
1.7309869
1.7282703
1.7051203
1.7075921
1.7338105
1.7309408
1.610876
1.5961106
1.5948995
1.6087613
1.6127902
1.598106
1.596545
1.6102432
1.5625228
1.5529327
1.5517271
1.5606842
1.5710009
1.5727987
1.5842366
1.5825529
1.585485
1.5730736
1.5714962
1.5830009
1.5619984
1.5523908
1.5516344
1.5605425
1.5522359
1.5532365
1.5623815
1.5611906
1.5506772
1.5512029
1.560038
1.5595246
1.5825178
1.5702382
1.5697645
1.5812816
1.5714872
1.5728246
1.584476
1.5829973
1.5230006
1.519971
1.5199486
1.520469
1.5201947
1.520175
1.520411
1.520371
1.5201343
1.520135
1.5203597
1.5203405
1.5201101
1.5201128
1.5203331
1.5203422
1.5201101
1.5201063
1.5203223
1.5199203
1.5199243
1.5230412
1.544814
1.5381721
1.5375087
1.5436845
1.5329226
1.5289462
1.5286765
1.5323488
1.5442708
1.5376598
1.5436258
1.5371563
1.5324858
1.5286269
1.5285217
1.5321033
1.5217314
1.5217344
1.5227995
1.5227994
1.5217592
1.5217813
1.5228526
1.5228189
1.5260839
1.5241103
1.5240662
1.5258886
1.5240311
1.5240438
1.5258639
1.5258114
1.5217063
1.5217401
1.5228287
1.5228005
1.5259698
1.5240671
1.5240647
1.5258793
1.5262271
1.5242251
1.5263065
1.5242951
1.5228757
1.5217484
1.5229163
1.521741
1.5323927
1.528568
1.5284694
1.5320429
1.5367852
1.5372001
1.543279
1.5427908
1.5449624
1.5382178
1.5379749
1.5441735
1.5329258
1.5289586
1.5290448
1.5327689
1.5288661
1.5286581
1.5322137
1.5325032
1.5289037
1.5288316
1.5324527
1.5325547
1.5435344
1.5371802
1.5373412
1.543349
1.537282
1.5368892
1.5428076
1.5432805
1.5203342
1.5201026
1.5200987
1.5203134
1.521803
1.5229346
1.5229444
1.5217761
1.5203228
1.520094
1.5200969
1.5203148
1.5217935
1.5228894
1.5229471
1.5217749
1.5199203
1.5199155
1.5242441
1.5241408
1.5259413
1.5260866
1.5242465
1.5242171
1.5260606
1.5261047
1.5203779
1.5201434
1.5201432
1.5203668
1.5218845
1.523015
1.5230668
1.5218823
1.5204456
1.5201992
1.5202235
1.5204851
1.5220221
1.5231682
1.5234603
1.5221855
1.5199521
1.5199941
1.5248024
1.5244508
1.5262903
1.5266808
1.5243692
1.5242857
1.5261095
1.5262279
1.5439443
1.5375178
1.5375766
1.5436462
1.5324798
1.528695
1.5288692
1.5324901
1.5293169
1.5288869
1.5324226
1.532894
1.543338
1.5370681
1.5375809
1.5434768
1.5232572
1.5233879
1.5230064
1.5230448
1.5232611
1.5233855
1.5229144
1.5229719
1.5231205
1.5230591
1.5254882
1.5248652
1.5222993
1.5224839
1.524353
1.5250684
1.5248426
1.5259482
1.5261908
1.5341278
1.5344802
1.5249464
1.5253904
1.585825
1.5855474
1.5863164
1.5888813
1.5892919
1.5861968
1.5214468
1.5211469
1.5211805
1.523287
1.52329
1.5234076
1.5234008
1.5230448
1.523081
1.5230779
1.5230463
1.5658275
1.5661674
1.5694929
1.5695933
1.566638
1.5705416
1.5717352
1.5668171
1.557883
1.5541503
1.5537548
1.557378
1.5537641
1.5542004
1.5579068
1.5579338
1.5728005
1.5678775
1.5718593
1.5669279
1.5664135
1.5664355
1.5702967
1.5705785
1.5537631
1.5541221
1.557816
1.5577179
1.5538836
1.5546856
1.5588203
1.5580452
1.5473753
1.5440569
1.543703
1.5469088
1.5387296
1.5358278
1.5355671
1.538356
1.5352224
1.5356641
1.5384588
1.5381352
1.5471793
1.5434938
1.5431717
1.5466907
1.5353053
1.5358404
1.5387778
1.5382339
1.54328
1.5439413
1.5474825
1.5468268
1.5471399
1.5435138
1.5433991
1.5467865
1.538101
1.5350192
1.5352031
1.5380396
1.5715803
1.5670132
1.567057
1.5714443
1.5712064
1.5666219
1.5662307
1.5704424
1.5579005
1.5535401
1.5535578
1.5575194
1.5582
1.5537499
1.553981
1.5581479
1.5705182
1.5658182
1.5659042
1.5701919
1.5648871
1.5654988
1.5692772
1.5689871
1.552588
1.5534255
1.5570333
1.5564583
1.5531029
1.5532693
1.5571469
1.5571652
1.5354198
1.5354982
1.5383504
1.53834
1.5354544
1.5350321
1.5378426
1.5382865
1.54655
1.54277
1.5432907
1.5466389
1.5433973
1.5433867
1.5467608
1.5469136
1.5349964
1.5349395
1.537715
1.5378294
1.5463476
1.542602
1.5427526
1.5461955
1.5465707
1.5430175
1.5425085
1.5458314
1.5377015
1.5346798
1.534594
1.5373496
1.5321019
1.5299542
1.5297635
1.5318331
1.5275073
1.5260419
1.5259617
1.5273545
1.525894
1.5259925
1.5273878
1.5272767
1.5318858
1.5296526
1.5294851
1.531534
1.5222934
1.5226648
1.5226874
1.5231116
1.5230951
1.5223455
1.5227131
1.5227914
1.5232356
1.5231488
1.5237956
1.5238962
1.5246867
1.5246034
1.5246126
1.5237549
1.5237428
1.5245431
1.5220511
1.5220253
1.5246932
1.523806
1.5237574
1.5245778
1.5222231
1.5230809
1.5226173
1.5226137
1.5230475
1.5222184
1.5226195
1.522633
1.5230611
1.5230596
1.5245691
1.5237103
1.5237178
1.5245165
1.5219788
1.5219775
1.527559
1.5260235
1.5258641
1.5272638
1.5257658
1.525839
1.5271233
1.5271884
1.529499
1.5298935
1.5320026
1.531587
1.5293785
1.5313838
1.5315157
1.5292875
1.5218538
1.521826
1.5258285
1.5258224
1.5271851
1.5272214
1.5293847
1.5313919
1.5316997
1.5294529
1.5273319
1.5258215
1.5259054
1.5273256
1.5295989
1.5296544
1.5317297
1.5316798
1.5221337
1.5225545
1.5225707
1.5229958
1.5230029
1.5221384
1.5225545
1.5225841
1.5230191
1.5229939
1.5236557
1.5236762
1.5244659
1.5244604
1.5219096
1.5219071
1.5236576
1.524453
1.5245209
1.5236546
1.5221042
1.5225129
1.5225467
1.5229548
1.5229823
1.5221181
1.5225347
1.5225572
1.5229769
1.5229858
1.521894
1.5218884
1.5236335
1.5244131
1.5245064
1.5236375
1.5236403
1.5244262
1.5244643
1.5236115
1.5257108
1.5256701
1.5270045
1.5270295
1.5257802
1.5256454
1.5269778
1.5271448
1.5313036
1.5291178
1.529337
1.5313641
1.5291432
1.5291542
1.5311217
1.5310927
1.5217783
1.52177
1.5214163
1.5214592
1.6483688
1.6315322
1.6278655
1.6434411
1.6466389
1.6302295
1.6292227
1.6450253
1.6145678
1.5997756
1.5991558
1.6132012
1.6155494
1.6005039
1.5980775
1.6120182
1.5524857
1.5540987
1.5636227
1.5617504
1.5533558
1.553525
1.5628228
1.5626765
1.5860009
1.5734089
1.573342
1.585219
1.5723759
1.5744512
1.5864839
1.5842126
1.5525968
1.5537757
1.5632082
1.5618434
1.5527287
1.5538651
1.5632906
1.562102
1.5867814
1.5740231
1.5728465
1.5848054
1.5866554
1.5739308
1.572436
1.5842115
1.5970739
1.5995951
1.6133829
1.6108312
1.597864
1.5997813
1.6137174
1.6118414
1.6451589
1.6284791
1.6266941
1.6423742
1.6254404
1.6279451
1.6432835
1.6408205
1.6457228
1.646733
1.6288617
1.6293052
1.6458857
1.6513925
1.6292648
1.6340585
1.6129765
1.5980999
1.6129358
1.5976706
1.6032406
1.6176651
1.6134245
1.5985235
1.6440943
1.645861
1.6272545
1.6292281
1.6281677
1.6277906
1.6433486
1.6440072
1.5974195
1.5995529
1.6134466
1.6113462
1.5981695
1.5981933
1.612036
1.6121689
1.5519219
1.5522657
1.5613884
1.5611061
1.5843399
1.5718364
1.5716971
1.5836015
1.5888764
1.5757525
1.5846903
1.5721517
1.5640428
1.5538849
1.5519408
1.5609977
1.5521451
1.5530591
1.5623694
1.5613135
1.5525692
1.5529135
1.5621441
1.5618194
1.5724359
1.572687
1.5844499
1.5842739
1.5856758
1.5730023
1.5718394
1.583598
1.5287883
1.5290811
1.533098
1.5326378
1.5291691
1.5291457
1.5330965
1.5331692
1.5451169
1.5382402
1.5383957
1.5449132
1.5454498
1.5383767
1.5377283
1.5441346
1.5216888
1.5216943
1.5219129
1.5218991
1.5215218
1.5215155
1.5216634
1.52187
1.5218841
1.5216647
1.5221901
1.5222264
1.5230199
1.5229507
1.5242178
1.526143
1.5261315
1.5241206
1.5229637
1.5221606
1.5221637
1.5229233
1.5240709
1.5241448
1.5260544
1.5258967
1.5218804
1.5216577
1.5216586
1.5218652
1.5221601
1.5221722
1.5229425
1.522951
1.5216587
1.52166
1.5218654
1.5218634
1.5221426
1.5221479
1.5229096
1.5229043
1.5259886
1.5240512
1.5240569
1.5258933
1.5241299
1.5240996
1.5259493
1.5259915
1.5215019
1.5215017
1.5212341
1.5212293
1.5453072
1.5383121
1.5378253
1.5442944
1.5328281
1.528737
1.5286217
1.5324288
1.5452099
1.538216
1.537873
1.5442645
1.5327433
1.5286845
1.5287308
1.5325223
1.5218253
1.5216026
1.5215998
1.5218044
1.5218136
1.5215948
1.5215955
1.5217984
1.5214483
1.5214459
1.5215489
1.5215511
1.5217495
1.5217453
1.5214079
1.5213833
1.5214858
1.5215086
1.5216966
1.5216568
1.5212704
1.521312
1.528771
1.5288665
1.5325766
1.5327277
1.5288489
1.5291005
1.5330373
1.5327225
1.5378255
1.5381676
1.5445954
1.5442308
1.5446484
1.5378094
1.5375881
1.5438978
1.5221212
1.5221308
1.522888
1.5229006
1.522122
1.5221528
1.5229358
1.5228987
1.5261149
1.5241118
1.5240646
1.5259199
1.5259561
1.5240224
1.5240592
1.5258905
1.5221089
1.5221102
1.5228913
1.522891
1.5240528
1.5240506
1.5259085
1.5259004
1.5263823
1.5242683
1.5242081
1.526094
1.5229752
1.5221255
1.5221449
1.5229607
1.5288494
1.5293451
1.5333949
1.5326294
1.5286276
1.5286338
1.5324099
1.5324062
1.5440388
1.5373662
1.5373972
1.5436881
1.5375906
1.5386727
1.5453
1.5438181
1.5212362
1.5212312
1.5212725
1.5213131
1.7628066
1.760831
1.8461015
1.844731
1.8517468
1.8455032
1.7657767
1.7620837
1.6846028
1.6778008
1.6760874
1.6827394
1.6648649
1.6596143
1.6575165
1.6626882
1.6581751
1.6602088
1.6651544
1.6635638
1.6854334
1.6777584
1.6761838
1.6831337
1.8636194
1.8738294
1.9119321
1.9011749
1.867076
1.8781101
1.9168893
1.9051119
1.7617715
1.7594562
1.8439844
1.8411347
1.6581812
1.6595597
1.6645594
1.6636015
1.6645689
1.6589751
1.6576629
1.6628773
1.6838385
1.6766454
1.6752519
1.6820329
1.6848053
1.6771018
1.6762817
1.6832914
1.8688437
1.8711265
1.9089006
1.9072841
1.8600584
1.8694192
1.9068127
1.8967839
1.6241495
1.6254809
1.6300454
1.629063
1.6244646
1.6260343
1.6302726
1.629175
1.6464053
1.6410042
1.6400687
1.6449219
1.6466689
1.641002
1.6401535
1.6451927
1.6242468
1.6260632
1.6306415
1.6291867
1.6317641
1.6268535
1.6247449
1.6294084
1.647338
1.6423114
1.6401492
1.6449602
1.6472789
1.6416506
1.6402386
1.6452457
1.6850614
1.6780322
1.6767193
1.6835589
1.8739642
1.8811721
1.9201394
1.912831
1.6648376
1.6594281
1.6578327
1.6630524
1.657511
1.6594693
1.6645372
1.6629988
1.6852746
1.6773379
1.6757933
1.6829576
1.8722251
1.8809648
1.9199899
1.9112218
1.6836329
1.6763947
1.6757248
1.6825058
1.6629919
1.6573613
1.6567418
1.6619305
1.6470217
1.6418889
1.6402579
1.6450887
1.6301896
1.6251433
1.6236259
1.628338
1.6235509
1.6252709
1.6297824
1.6284267
1.6464353
1.640768
1.6394718
1.6445029
1.6448402
1.6394874
1.638998
1.6438598
1.6220217
1.6234918
1.6277338
1.6268662
1.6216499
1.624065
1.6286431
1.6265962
1.6158302
1.6111364
1.6091404
1.6135703
1.600842
1.5962332
1.5944065
1.5987329
1.5940905
1.5956904
1.5999308
1.5986149
1.6146964
1.6094946
1.6082154
1.6128696
1.5867419
1.5824621
1.5808793
1.5848573
1.5739274
1.5699826
1.5686383
1.5723211
1.5686906
1.5699657
1.5735642
1.5724784
1.5860367
1.5814029
1.5803236
1.5844639
1.6149019
1.6100295
1.6086783
1.6131609
1.5996725
1.5948557
1.5937737
1.5981754
1.5940802
1.5951796
1.5994283
1.5985708
1.614163
1.6089568
1.608176
1.612767
1.5853602
1.5808908
1.5800403
1.5841481
1.5676243
1.5689831
1.5724367
1.5714224
1.5686262
1.5694188
1.5730479
1.5724129
1.5855453
1.5808553
1.5802745
1.5844214
1.5681028
1.5693298
1.5728742
1.5718016
1.5683417
1.5695055
1.5728871
1.5720336
1.5849808
1.5805396
1.5797761
1.5837734
1.5851168
1.5805522
1.5794319
1.5834688
1.5694131
1.5702044
1.573808
1.573135
1.5693674
1.570516
1.573855
1.5729692
1.5859261
1.5815253
1.5807176
1.5846626
1.5862565
1.5816377
1.580969
1.5850121
1.6141893
1.6093951
1.607906
1.6124189
1.5992012
1.5944322
1.5932574
1.5975839
1.5937218
1.5949911
1.5992151
1.5981415
1.6139297
1.608729
1.6076614
1.6122357
1.5920005
1.5937562
1.597989
1.5964452
1.5982615
1.5934708
1.5923892
1.5967611
1.6124583
1.6075425
1.6062076
1.6107559
1.612715
1.6074481
1.6058063
1.6104672
1.6825742
1.6759951
1.6746886
1.6812518
1.686992
1.6793689
1.6776697
1.6845696
1.6634593
1.6582928
1.6564531
1.661534
1.6584736
1.6606083
1.6655199
1.663819
1.6850546
1.6776549
1.6760492
1.6827913
1.6869631
1.6800236
1.6778069
1.6843379
1.6669562
1.6615688
1.6594407
1.664529
1.6572878
1.659465
1.664251
1.6625708
1.6241214
1.626162
1.6305567
1.6289263
1.6269023
1.6291216
1.6332381
1.6315085
1.6468397
1.6413397
1.6397388
1.6446571
1.6491572
1.6439048
1.6422232
1.6469553
1.6244799
1.6264127
1.630937
1.6294455
1.6310154
1.6261333
1.6239207
1.6286308
1.6463667
1.6412901
1.6392215
1.6440828
1.6476237
1.6419792
1.6405357
1.6455389
1.874117
1.8687816
1.890917
1.8969131
1.7689133
1.7669481
1.8561282
1.8535124
1.8563787
1.8518677
1.7684979
1.7656252
1.6879647
1.6807158
1.6793302
1.6862857
1.8712929
1.8823188
1.9217507
1.9098816
1.6587412
1.6604353
1.6655579
1.6642548
1.6671277
1.6615155
1.6600115
1.6653309
1.6864413
1.6784904
1.6772234
1.6843901
1.8693559
1.8751423
1.9138454
1.9081411
1.7679155
1.7642927
1.8517978
1.8472382
1.8495715
1.8450707
1.7648844
1.7618538
1.6888838
1.6817951
1.6798288
1.6864916
1.6684205
1.6628945
1.6611873
1.6663063
1.6584608
1.6605429
1.6654196
1.6637655
1.6854517
1.6778663
1.6761893
1.6830646
1.8661803
1.8726434
1.911131
1.9047373
1.8668104
1.8776647
1.9164066
1.9048538
1.6487914
1.6435121
1.6419987
1.6469603
1.6315119
1.6262908
1.6248373
1.6297301
1.6242
1.6257082
1.6303383
1.6291719
1.6472629
1.6415226
1.640449
1.6455364
1.6503041
1.6449649
1.6436089
1.6484617
1.6266532
1.6287196
1.6330373
1.6315195
1.6247934
1.6266902
1.6312049
1.6297228
1.6477361
1.6421505
1.6407016
1.6456817
1.5883407
1.5840903
1.582412
1.5863395
1.5755042
1.5715489
1.5701954
1.5738192
1.5692403
1.5708237
1.5744297
1.5731048
1.5870388
1.5824007
1.5810545
1.5852324
1.5940777
1.5959024
1.6001224
1.5986316
1.6014358
1.5968915
1.5949446
1.5992005
1.6153632
1.6105949
1.6084801
1.6129291
1.6149642
1.6097374
1.6082925
1.6130166
1.6179815
1.6132085
1.6113082
1.6157024
1.6027817
1.5980602
1.5965028
1.6008308
1.5945305
1.5962894
1.6003931
1.5989277
1.6149358
1.6098649
1.6083927
1.6129166
1.5884004
1.5839292
1.5827681
1.586814
1.570264
1.5717493
1.5752081
1.5740279
1.5692828
1.5704735
1.5740704
1.573023
1.5866156
1.5820016
1.5808776
1.5849341
1.5700046
1.5710487
1.5747186
1.5738236
1.5715649
1.5726385
1.576259
1.575422
1.5889617
1.5842799
1.5834843
1.5876459
1.5873645
1.5826806
1.5817437
1.5858828
1.5686373
1.5693971
1.5731408
1.5725254
1.5688364
1.5699604
1.5734753
1.5726412
1.5858857
1.5812819
1.5805693
1.5847231
1.5858783
1.5811078
1.5805433
1.5847392
1.6150587
1.6100706
1.608663
1.6133357
1.5995948
1.5946214
1.5935553
1.598056
1.5936744
1.5947997
1.5991499
1.5982149
1.6141814
1.608857
1.6079641
1.6126441
1.5946744
1.5962141
1.6004856
1.5991949
1.6028213
1.5978251
1.5965482
1.6010488
1.6174459
1.6124117
1.6106887
1.6152982
1.6153153
1.6100821
1.6087795
1.6134453
1.5230424
1.5230701
1.5230412
1.5230693
1.5204837
1.5204761
1.5204424
1.5204407
1.521021
1.5210058
1.5209741
1.5209721
1.5209767
1.5204197
1.5204224
1.5209634
1.520978
1.5204215
1.5204161
1.5209531
1.5231313
1.5231401
1.5231315
1.5231405
1.5639546
1.5604012
1.5593801
1.562609
1.5538753
1.5507
1.5500337
1.5528967
1.5491552
1.5502495
1.5531994
1.5522144
1.5630759
1.559233
1.5581587
1.5615972
1.5452575
1.5425099
1.5421731
1.5446313
1.5381292
1.5358438
1.5357345
1.5378119
1.5351563
1.5355658
1.5377174
1.5372801
1.5447087
1.5417481
1.5411951
1.5437714
1.5640059
1.5603154
1.55921
1.5625747
1.5536793
1.5503463
1.5496327
1.5526441
1.5627559
1.5589342
1.5583239
1.5616783
1.5488322
1.5494375
1.5523875
1.5518365
1.5448446
1.5420021
1.5416451
1.5441938
1.5352311
1.5355873
1.537655
1.5373346
1.5350316
1.5350775
1.5371626
1.5371082
1.5439985
1.5410766
1.5409807
1.5435072
1.5238935
1.5239552
1.5245185
1.5244239
1.5238835
1.5244146
1.5239376
1.5244986
1.5261089
1.5255246
1.5254711
1.526033
1.5254888
1.526032
1.5255418
1.5260441
1.5238463
1.5243865
1.523889
1.5244515
1.5237438
1.5243165
1.5244156
1.5238139
1.5254956
1.5253937
1.5259509
1.5260639
1.5254739
1.5260803
1.5254392
1.5259969
1.5307642
1.5309004
1.5325095
1.5323996
1.5285142
1.5272516
1.5273594
1.5284469
1.5272405
1.5273896
1.5284811
1.5283041
1.5303438
1.5305998
1.5322353
1.5319418
1.5272798
1.5272964
1.5283219
1.5283107
1.5286007
1.5273932
1.5273045
1.5283629
1.5304175
1.5307261
1.5323095
1.5320086
1.5303258
1.5303431
1.53189
1.5318739
1.5245245
1.5239792
1.5244984
1.5239523
1.5245417
1.5240015
1.5245465
1.5239743
1.5256124
1.5256168
1.5261224
1.5261591
1.5261829
1.5255615
1.5256056
1.5261827
1.5306309
1.5307107
1.5322413
1.5321929
1.5284725
1.527349
1.5274156
1.5284177
1.5274662
1.527456
1.5284697
1.5285073
1.5305471
1.5305052
1.5320662
1.5321186
1.5310135
1.5312956
1.5328962
1.5326339
1.5289292
1.5277148
1.5276328
1.5287006
1.5312728
1.5312844
1.5329039
1.5328935
1.5278549
1.5278629
1.5289309
1.5289282
1.5256533
1.5262782
1.5256816
1.5262148
1.5240465
1.5245917
1.5240146
1.5245206
1.526412
1.5257549
1.5258562
1.5264243
1.5246492
1.5240015
1.5245604
1.5240331
1.5445114
1.5417149
1.5414986
1.5440423
1.537439
1.535157
1.5351363
1.537204
1.5350531
1.5349962
1.5370798
1.5371463
1.5439044
1.5409765
1.5410578
1.5436278
1.548551
1.5488391
1.551837
1.5515845
1.5527129
1.5494219
1.5489795
1.5519675
1.5623489
1.5586071
1.5578688
1.5612346
1.561686
1.5577625
1.5575249
1.5609591
1.564799
1.5609676
1.5602434
1.5637179
1.554282
1.5508692
1.550407
1.5535241
1.5499832
1.5504881
1.5534514
1.5530035
1.563309
1.5594444
1.5589661
1.5623603
1.54533
1.5424078
1.5422117
1.544842
1.5356725
1.5359573
1.5380443
1.5378211
1.5359561
1.5359737
1.5380808
1.5380613
1.5449811
1.5420652
1.5420282
1.5445572
1.5357172
1.5355332
1.5376091
1.5377842
1.5350465
1.535448
1.5374545
1.5370826
1.5440712
1.5412892
1.5408916
1.5433782
1.5444057
1.5415164
1.541717
1.5441977
1.5356934
1.5358859
1.5379807
1.5377716
1.5380679
1.5357978
1.5354498
1.5374847
1.544661
1.5419726
1.5413488
1.5438067
1.5448293
1.5419469
1.5416933
1.5441983
1.5625191
1.5589985
1.5578318
1.5611256
1.5526264
1.5494732
1.5486008
1.5514864
1.5490627
1.5497681
1.5526562
1.5520076
1.5623518
1.5585422
1.557839
1.5611756
1.5490562
1.5493015
1.5522131
1.5519791
1.5521124
1.5488625
1.5481411
1.5510812
1.5615389
1.5578877
1.5568328
1.5601747
1.5618606
1.5580408
1.5577974
1.5611165
1.5210157
1.5204409
1.5204379
1.520997
1.5242042
1.5247367
1.5247705
1.5241954
1.5264592
1.525838
1.5258808
1.5264099
1.5265343
1.5259026
1.5258984
1.526449
1.524221
1.5247483
1.5247433
1.524197
1.5210082
1.520432
1.5204355
1.5209971
1.5241969
1.5242623
1.5247804
1.5246871
1.5257369
1.5263311
1.5257862
1.5262581
1.5264709
1.5258486
1.5259657
1.5265063
1.5247788
1.5242034
1.5247075
1.5242181
1.5233928
1.5234024
1.5277988
1.5277611
1.5287663
1.5288233
1.5287115
1.5275762
1.5274894
1.5284679
1.5304364
1.5307591
1.5322719
1.5319387
1.5309024
1.5308005
1.5323314
1.532463
1.5277521
1.5278546
1.5289037
1.5287981
1.5289219
1.527759
1.5276707
1.5286731
1.5307149
1.5310288
1.5325577
1.5322553
1.5308778
1.5310125
1.5325987
1.5324506
1.5210911
1.5204954
1.5204948
1.5210821
1.5244073
1.5249048
1.5249498
1.5244052
1.5265694
1.5259805
1.5260421
1.5265508
1.5266984
1.5260915
1.5261504
1.5266735
1.5249857
1.5244459
1.5249545
1.5244368
1.5211937
1.5205611
1.5205967
1.5212595
1.5246768
1.524626
1.5251327
1.5251756
1.526255
1.5268014
1.5262176
1.5267441
1.5271641
1.5265632
1.52694
1.5274148
1.5257155
1.5248347
1.5253854
1.5250733
1.5235667
1.5236779
1.5287123
1.5284744
1.5295084
1.5296985
1.5292313
1.5280844
1.5279842
1.5289733
1.5309985
1.5313375