/*--------------------------------*- C++ -*----------------------------------*\
  =========                 |
  \\      /  F ield         | OpenFOAM: The Open Source CFD Toolbox
   \\    /   O peration     | Website:  https://openfoam.org
    \\  /    A nd           | Version:  7
     \\/     M anipulation  |
\*---------------------------------------------------------------------------*/
FoamFile
{
    version     2.0;
    format      ascii;
    class       volVectorField;
    location    "1000";
    object      UMean;
}
// * * * * * * * * * * * * * * * * * * * * * * * * * * * * * * * * * * * * * //

dimensions      [0 1 -1 0 0 0 0];

internalField   nonuniform List<vector> 
34387
(
(-28649884 -13184.779 -618010.52)
(-28912312 448330.69 -553429.33)
(-26326874 155939.06 -1566498.4)
(-26242624 -124856.44 -1556524.2)
(-35894451 442425.16 -556333.44)
(-29164361 488028.81 -551143.68)
(-28983465 41128.789 -640551.82)
(-26628821 211447.75 -1583723)
(-26507124 -31600.824 -1619991.8)
(-22241294 119357.5 -1016397)
(-22241140 140358.78 -1071291.3)
(-25992983 193452.85 -1171919.9)
(-25518801 47385.89 -1238854.3)
(-25225323 127640.9 -1669277.5)
(-25082405 1904.6651 -1633393.6)
(-26161572 325564.56 -1178066.8)
(-22198925 89522.427 -1127019.4)
(-22241341 165471.11 -1070549.7)
(-25732274 123290.44 -1234558.6)
(-25361194 223226.15 -1703324.1)
(-25214261 69837.729 -1665468.5)
(-29109239 307205.16 -957759.29)
(-26100150 261690.83 -1640521.4)
(-23545756 182553.55 -2420578.3)
(-23889708 -104432.92 -2318004.3)
(-26111550 31538.05 -1516703.3)
(-26148262 142766.05 -1496315.9)
(-23795545 43245.229 -2403341.6)
(-23626043 -167013.49 -2371536.8)
(-25863472 -72008.542 -1545702)
(-28831285 -201756.37 -937318.16)
(-25398411 286919.34 -2759672.5)
(-25271227 -199641.87 -2703814.2)
(-27630660 -64159.422 -2649301.6)
(-29462147 479024.01 -513087.72)
(-29235073 46847.356 -635277.75)
(-26926587 158105.83 -1579552.7)
(-26780528 -2441.3923 -1638028.7)
(-24521487 379166.42 -112118.54)
(-24381188 56672.816 -147809.45)
(-24218497 214887.1 -706378.96)
(-24132758 95735.59 -743470.57)
(-26299383 386980.11 -1075542.3)
(-25639418 287956.51 -1541583.7)
(-25432039 73345.318 -1677841.3)
(-25839587 137804.32 -1286702.7)
(-25901203 86661.735 -1256114.4)
(-26227986 263981.87 -1189937.8)
(-25408470 36967.691 -1695964.5)
(-25482007 203254.56 -1689569.6)
(-26513569 333915.11 -1376507.5)
(-23975314 213707.66 -2380042.1)
(-23989368 -60946.132 -2405895.7)
(-29343364 365566.69 -973968.29)
(-26324025 41037.61 -1542545.6)
(-29089965 -117419.99 -1012658.2)
(-26439736 221861.3 -1524320.7)
(-23989581 114388.4 -2454985.4)
(-23857740 -33539.774 -2434011.8)
(-26232310 10507.419 -1596551.9)
(-25531255 293264.4 -2880624.7)
(-25432317 -194513.16 -2852805.7)
(-19095712 143076.33 -664245.83)
(-19111013 121188.44 -716240.15)
(-22688113 109005.45 -888649.99)
(-19316759 94051.875 -933448.84)
(-19289071 110236.12 -882510.72)
(-19110093 112622.77 -726191.09)
(-22701086 119697.19 -934011.93)
(-19236158 108423.02 -988765.16)
(-19310534 82076.131 -934602.8)
(-22438103 128963.43 -1203901.8)
(-22455219 32832.856 -1143824)
(-19293884 82423.089 -886695.93)
(-22597790 54573.328 -912988.2)
(-19282841 84093.154 -954194.03)
(-22430850 88994.479 -934116.3)
(-22460526 6623.6827 -1084678.9)
(-22257121 90383.507 -1142241.7)
(-23032355 43673.036 -1179540.5)
(-22965627 -14632.56 -1441403.4)
(-23031400 113780.8 -1225148.7)
(-22948313 106570.08 -1495462)
(-22753480 42630.862 -1403192)
(-22874220 -82759.065 -1419148)
(-22979112 -18128.078 -1118628.6)
(-22681969 58332.448 -1230337.8)
(-22953533 173478.08 -917792.1)
(-23042232 172246.16 -896999.01)
(-22849366 196555.23 -1136013.8)
(-22898748 110592.34 -1100890)
(-18441416 164970.93 -760122.57)
(-19000830 100118.79 -783439.51)
(-19031691 150030.05 -811941.39)
(-19184362 70620.003 -1001849.9)
(-22618614 93034.624 -1008646)
(-19224031 133853.1 -1026890.7)
(-19119518 151137.86 -689700.36)
(-19064050 138426.91 -743292.65)
(-22663434 118725.09 -948493.75)
(-19270560 110696.22 -954892.68)
(-19313412 124083.04 -892013.41)
(-22460471 56275.197 -1213101.5)
(-22557002 116904.41 -1122691.7)
(-23324341 30283.691 -1466838.1)
(-23463213 101152.86 -1128063.3)
(-23512025 228040.05 -1147799.3)
(-23333282 259201.48 -1499084.1)
(-23026433 113628.19 -1455353)
(-22999575 30916.427 -1491372.4)
(-22922678 52960.228 -1292656.6)
(-23092861 102554.12 -1141938.2)
(-22776655 -6077.7387 -1728662.9)
(-25894980 188525.89 -1227892)
(-26101123 -68009.699 -1248135.1)
(-22660121 -139509.49 -1736603.7)
(-24009019 66088.4 -1497836.7)
(-23707268 27288.925 -2018085.2)
(-24056031 295152.28 -1499666.6)
(-23700167 263559.87 -2054524)
(-23091093 153120.72 -2770715.1)
(-23053273 29572.102 -2789904.5)
(-24645849 81883.559 -1884606.4)
(-24674096 293620.43 -1903881.6)
(-23220624 -2454.6018 -2705928.8)
(-24521681 65734.717 -1660272.7)
(-24575542 78107.742 -1533522.1)
(-23125219 75099.242 -2702803.7)
(-23492123 61063.717 -1894423.1)
(-23592344 27430.158 -1585588.5)
(-23689758 122120.38 -1463475.1)
(-23478720 112217.58 -1876589.3)
(-23397737 59262.463 -1899317.9)
(-23448741 -58082.076 -1840680.1)
(-23543343 -11801.903 -1510018.7)
(-23545090 110621.54 -1543837.9)
(-23123330 -107650.71 -2740946.2)
(-23049231 -13114.98 -2760096.6)
(-26082732 43980.626 -1239168.5)
(-24359665 58061.162 -1711094.1)
(-24402686 -29388.2 -1666689.2)
(-22941971 -171404.82 -2714344.4)
(-22786259 -68285.564 -2742294.4)
(-25811642 -107002.28 -1184006.8)
(-24131253 -51971.298 -1631893.8)
(-24265671 -151108.46 -1642600.3)
(-23488018 -121159.25 -1480342.8)
(-23310237 -136526.15 -1850773.9)
(-23216627 -14842.054 -1802350.4)
(-23288154 31501.092 -1523093.7)
(-22606641 26193.386 -1691382)
(-22524630 -13726.294 -1624291.8)
(-24173308 -168439.91 -2773073.8)
(-23909823 72544.389 -2721389.2)
(-29330656 543290.48 -291976.71)
(-26295671 -72669.829 686271.78)
(-27878292 -69289.396 -2744333.4)
(-26565527 428714.23 -1042707.3)
(-26221052 164320.16 -1222468.7)
(-25874427 354522.5 -1515420.3)
(-25681764 107362.79 -1703934.2)
(-26508313 315203.49 -1171012.3)
(-26096619 163266.99 -1232337.7)
(-25720212 255268.41 -1692432.8)
(-25627460 127134.77 -1669607.2)
(-26825150 362846.67 -1331204.4)
(-24299476 208363.78 -2349255.8)
(-24180100 -20920.977 -2443801.3)
(-26558928 58174.202 -1581981.2)
(-29518487 273121.54 -1006735.8)
(-26666336 264477.19 -1536279.8)
(-24131952 168701.23 -2503932.2)
(-24037275 -31025.711 -2492410.1)
(-26416970 49606.458 -1597778.8)
(-29351996 -132737.04 -1027848.1)
(-25649920 248895.62 -2969834.7)
(-25577294 -226645.97 -2958021.3)
(-23081960 207857.99 -889044.92)
(-22996741 265978.89 -815340.2)
(-22835592 199627.39 -1020325)
(-22878711 210186.61 -1158499.3)
(-23327041 196878.29 -1479527.8)
(-23254496 130131.02 -1319759.3)
(-23341071 181767.5 -1063801.4)
(-23405708 190960.81 -1197015.9)
(-23107401 164682.82 -1450566.9)
(-23197504 19518.147 -1482676.5)
(-23343470 59286.351 -1141929.2)
(-23252317 149207.25 -1115055.5)
(-22727916 155711.41 -1074879.6)
(-22807075 79532.689 -1104431.3)
(-22821899 120464.84 -1003107.8)
(-22734973 164867.39 -983717.41)
(-22821397 121072.14 -946470.43)
(-22924378 152814.52 -881763.28)
(-22624770 85587.206 -1156030.9)
(-22657072 146216.61 -1147087.1)
(-22898750 169727.45 -962749.76)
(-22879474 156066.43 -919723.8)
(-22699260 177148.83 -1196220.3)
(-22703545 87246.339 -1134238.1)
(-23143381 11521.23 -1425742.5)
(-23084909 61322.144 -1242497.7)
(-23200849 97990.593 -1227173.2)
(-23184370 82666.284 -1493518.1)
(-23175763 181838.13 -1472599.7)
(-23171727 52553.734 -1428865.7)
(-23210577 105425.94 -1187460.2)
(-23236174 181929.74 -1227750.3)
(-23631282 180040.54 -2067230.9)
(-23649772 102379.12 -1760237.3)
(-23827470 138550.25 -1402215.7)
(-23937529 234545.5 -1555625.4)
(-26254061 251087.93 -1247684.7)
(-23152885 90239.207 -2723819.9)
(-24617053 174980.43 -1554568.4)
(-23105896 135588.82 -2780934.9)
(-24548454 215198.77 -1929350.4)
(-23233934 90613.832 -2743419.4)
(-23237847 8553.5867 -2773559.8)
(-24655028 57545.832 -1675657.1)
(-24600526 98283.108 -1654585.9)
(-26325286 3058.1363 -1305782.5)
(-22828366 30269.462 -1839203.5)
(-22722620 -93873.58 -1861307.9)
(-23843951 26068.51 -1540180.8)
(-23637506 48975.642 -1907797)
(-23748504 154809.41 -1508972.5)
(-23593996 128739.41 -1855156)
(-26285788 146207.67 -1330029.8)
(-25980496 52081.637 -1304870.7)
(-22649666 124588.62 -1823021.2)
(-22584295 86448.335 -1749039.2)
(-23605600 127707.17 -1902177.3)
(-23655480 557.13028 -1831228.7)
(-23768744 42240.516 -1502708.1)
(-23780960 177584.55 -1536137.3)
(-23225038 52325.206 -2787791)
(-23285912 -51021.571 -2795656.7)
(-24623339 37954.286 -1668035.1)
(-24605997 125882.21 -1695770.2)
(-23178438 -79607.902 -2744180.2)
(-24593889 -52606.709 -1636099)
(-24498052 8786.1534 -1851988.3)
(-22950497 954.33711 -2842298)
(-23549702 19371.317 -2068051.3)
(-23584199 -53062.502 -1873908)
(-23703201 -41826.369 -1556910.2)
(-23774071 59554.381 -1601772.2)
(-24249542 -141645.38 -2873807.9)
(-24051160 105979 -2844529.9)
(-14733243 200975.05 -527955.47)
(-14733803 122936.97 -528721.1)
(-15173508 210212.54 -518877.12)
(-15174182 130561.03 -519906.3)
(-15177248 193639.74 -559858.26)
(-15162603 113135.67 -560899.72)
(-14722237 176552.78 -581516.71)
(-14722292 104370.67 -584070.83)
(-19615781 99354.021 -832222.2)
(-19497879 76157.336 -905310.23)
(-19486898 56633.104 -970215.17)
(-19616194 54899.597 -876352.71)
(-15306137 138058.28 -581759.35)
(-15318190 167596.82 -527817.47)
(-14741460 173885.47 -574466.96)
(-14737673 101442.54 -576066.31)
(-15172106 183296.45 -559948.06)
(-15169435 110412.45 -562798.98)
(-19421487 73427.252 -1029982.1)
(-19476076 49829.89 -963693.71)
(-19612482 82650.009 -878422.74)
(-19551385 74792.528 -931354.85)
(-15298805 134680.2 -606936.74)
(-15320475 133349.12 -569236.02)
(-19747580 54737.236 -1126192)
(-19777512 6451.1473 -1054219.8)
(-19881529 42765.317 -972129.46)
(-19823980 71457.26 -1044507.5)
(-19802820 38550.906 -1066362.8)
(-19789873 32536.197 -998127.95)
(-19892002 56685.604 -914357.79)
(-19880209 45652.494 -986540.35)
(-15304915 142545.78 -542648.79)
(-19638958 82701.298 -819684.71)
(-19495758 67938.152 -908775.9)
(-19474505 45159.125 -995971.57)
(-19595028 45728.766 -895370.05)
(-15265509 124257.79 -591084.68)
(-19504488 76758.884 -827616.98)
(-19328111 46957.28 -945893.38)
(-19915721 55957.13 -930249.93)
(-19841361 32404.735 -999908.27)
(-19794842 28826.926 -1075774.8)
(-19851825 35653.776 -1014769.5)
(-19733845 34914.364 -975216.69)
(-19690545 9262.0442 -1006233.2)
(-19568721 44740.109 -1113076.6)
(-20222736 33282.962 -972317.98)
(-20068025 -2230.4359 -1109942.8)
(-20084763 28213.797 -1176080.2)
(-20194469 29732.727 -1058057.3)
(-20564760 -14569.439 -1146764.7)
(-20572742 -43405.809 -1226595)
(-20599041 38636.258 -1236289.1)
(-20528200 37825.025 -1224181.8)
(-20217624 4357.3189 -1025293.7)
(-20037088 -43809.577 -1209347.9)
(-20046502 33132.834 -1229895.9)
(-20145890 39743.016 -1112856.2)
(-20529103 -62195.88 -1233400.6)
(-20588852 -98384.74 -1242179.8)
(-20570173 20910.999 -1283488.9)
(-20488187 28538.63 -1278550.8)
(-20398799 -18910.204 -1218278.6)
(-20413474 -82983.565 -1163683)
(-20399753 -58123.797 -1118893)
(-20306692 61.93032 -1225441)
(-20538354 20569.336 -1264283.9)
(-20582578 -68859.086 -1157628.8)
(-20599905 -39575.797 -1075422.3)
(-20512367 23040.558 -1218740.5)
(-20233503 12481.004 -984066.12)
(-20140295 -12708.739 -1056514)
(-20059262 20862.024 -1183046.5)
(-20174266 12312.964 -1068410.8)
(-19901033 7565.7857 -1164587.4)
(-19984715 -33593.691 -1061264.8)
(-20045905 3542.7451 -1006759.2)
(-19928609 29599.34 -1113619.8)
(-19995518 168402.55 -790599.19)
(-19962511 84082.276 -823092.59)
(-19910386 156096.54 -865296.71)
(-19840397 80253.837 -921249.47)
(-19898705 65233.981 -865500.7)
(-19975425 117848.49 -822295.93)
(-19843958 87791.382 -909134.7)
(-19766259 64720.152 -963950.64)
(-20096138 60473.168 -1059756.6)
(-20142862 52141.883 -1005314.6)
(-20182700 70363.789 -974260.31)
(-20254834 83811.696 -918003)
(-20180281 82363.435 -1008902.8)
(-20250681 135481.81 -932592.65)
(-20277167 145245.34 -893340.38)
(-20223395 74569.058 -948962.14)
(-14838415 215595.45 -647248.19)
(-14824713 144592.66 -645920.67)
(-15267648 159792.46 -632088.35)
(-15293881 214534.38 -634204.16)
(-14747895 172819.89 -594229.64)
(-14745404 92600.41 -595012.37)
(-15142301 177571 -591637.96)
(-15145952 102691.82 -592145.67)
(-15156249 193985.75 -608825.23)
(-15133783 116221.49 -606247.82)
(-14728819 177025.69 -620778.36)
(-14726817 105929.29 -620692.21)
(-15341148 133167.82 -593381.56)
(-19520325 74746.796 -936518.28)
(-19396216 106443.52 -1075527.4)
(-19364298 60138.808 -1044371.6)
(-19531642 95977.028 -968244.81)
(-15307355 149696.42 -623623.29)
(-14565838 188920.36 -569786.46)
(-14565707 116033.77 -568555.72)
(-15036091 200284.27 -552634.41)
(-15032540 125068.87 -550995.51)
(-15083944 204351.51 -577163.27)
(-15070350 130941.15 -572813.01)
(-14619562 188935.97 -592946.61)
(-14626161 121035.71 -591855.89)
(-19658764 126687.75 -825540.67)
(-19493999 98617.154 -931623.39)
(-19469902 56058.364 -988852.27)
(-19581460 70823.109 -893755.95)
(-15200134 152751.55 -595821.97)
(-15152914 162896.5 -566120.66)
(-19784480 53807.159 -1074465.8)
(-19721877 34567.385 -1165018.7)
(-19744745 107798.85 -1163514.3)
(-19781630 102368.58 -1104884.7)
(-19913537 85939.796 -958673.91)
(-19856238 68962.472 -996523.51)
(-19803490 31028.493 -1065535.2)
(-19848813 37302.243 -1010616.7)
(-21036110 78608.701 -1029005.1)
(-21000973 47775.868 -1135401.5)
(-20950002 104461.53 -1204019.6)
(-20945683 91914.049 -1121439.1)
(-20477436 82297.615 -1091767.5)
(-20516535 89101.895 -1014825.6)
(-20632844 116153.54 -935693.79)
(-20567745 79486.228 -1015869.4)
(-20593598 64907.025 -993162.03)
(-20433959 16657.688 -1133327.7)
(-20411176 75620.756 -1152830.7)
(-20517292 70913.409 -1045954.5)
(-20968634 22523.278 -1146590.5)
(-20940133 -17843.305 -1256181.8)
(-20866642 107086.99 -1303603.6)
(-20906266 99275.809 -1164956.7)
(-20598180 18346.765 -1234390.6)
(-20578827 -16264.684 -1160105)
(-20605993 10821.504 -1087204.8)
(-20555648 28478.537 -1187406.1)
(-20617477 153040.52 -1296425.9)
(-20617340 19796.642 -1250192.1)
(-20512331 19273.069 -1260886.7)
(-20520189 121746.55 -1287416.9)
(-20103668 27744.502 -1169048.2)
(-20099431 30443.079 -1197735.7)
(-20088186 111806.7 -1230644)
(-20118233 92831.629 -1169284)
(-20090708 16598.501 -1150292.6)
(-20126574 23348.694 -1065796.8)
(-20241058 59942.003 -988303.61)
(-20188159 23976.668 -1058804.5)
(-22056552 -407936.18 -2773506.2)
(-24374113 83889.706 -1709013.2)
(-24556419 191169.93 -1690900.5)
(-21653175 -184681.74 -1432581.1)
(-21698317 65837.962 -1369938.1)
(-24565732 47551.553 -1688227.8)
(-24630336 -97523.452 -1716590.7)
(-21838372 -263805.11 -1513970.6)
(-21824490 120443.33 -1517221.5)
(-21885176 221671.16 -2796689.7)
(-21504309 55695.197 -1121957.6)
(-21391407 2438.7893 -1333644.3)
(-21339310 134115.34 -1356814.6)
(-21387714 120807.52 -1231210.2)
(-21964289 6762.0887 -1358810.8)
(-21947769 -41505.99 -1549404.2)
(-21966815 175287.41 -1576272)
(-21852256 174564.53 -1429226.5)
(-21446949 -7610.5692 -1248000)
(-21303840 -81465.846 -1536338)
(-21369062 135599.02 -1294123.8)
(-21320875 160394.58 -1433243.9)
(-21869954 -75104.708 -1497810.5)
(-22001386 -110450.31 -1663165.6)
(-21986773 222573.9 -1629996.6)
(-21839688 199628.87 -1503399.6)
(-22189471 258376.47 -2887730.1)
(-22187658 -109914.06 -2927435)
(-22947437 -122450.57 -2071809.3)
(-22914724 301657.78 -2067886.8)
(-22092585 207721.95 -2881533.1)
(-22063641 93.290774 -2937974.8)
(-22852480 -9235.5399 -2001865.3)
(-22859073 255216.98 -2013756.9)
(-22439443 -38400.251 -1604415.8)
(-22201347 -50334.643 -1991452.6)
(-22180608 167317.43 -2015660.6)
(-22418642 218722.75 -1622769.8)
(-22264489 254175.1 -2027153.4)
(-22257220 -112781.4 -2077528.7)
(-22455802 -111693.53 -1718357.3)
(-22438627 267973.97 -1685388.8)
(-22036411 249149.16 -2873748)
(-22142551 -44315.716 -2834638.6)
(-22605264 44783.436 -1805677.4)
(-22503485 263209.57 -2100475.9)
(-22108414 28409.17 -1591808.8)
(-21921151 28393.282 -1888643.5)
(-21905886 223766.43 -2062515.5)
(-22128313 269161.64 -1669538.2)
(-22123183 -91277.598 -1484728.8)
(-21777119 -109302.66 -1993104.2)
(-22134012 40423.726 -1508604.1)
(-21786591 62817.112 -2072239)
(-22600155 -151765.46 -1724531.8)
(-21970510 -154439.31 -2819152.1)
(-22411214 52124.264 -1966930.9)
(-21863058 49365.538 -2886919.1)
(-21562660 7493.6258 -1417642.2)
(-21627703 2347.6717 -1556245.9)
(-21698559 228417.11 -1599632)
(-21593959 211757.09 -1472657.2)
(-21094584 182644.63 -1404872.8)
(-21046107 6891.8151 -1387314.3)
(-21017480 8377.2117 -1296966.1)
(-21031088 165134.09 -1340164.5)
(-21080263 -14212.795 -1151755.4)
(-20976067 -43261.316 -1312821.1)
(-21047096 32478.653 -1333705.6)
(-21028634 23860.386 -1246741.7)
(-21562989 -60632.295 -1320433.1)
(-21530865 -90568.52 -1560345.7)
(-21581129 43745.573 -1595679.1)
(-21586176 47554.828 -1362031.9)
(-21592528 12088.296 -1601825.7)
(-21582264 -247979.13 -1552287.9)
(-21501182 -206100.37 -1410301.3)
(-21497571 12004.007 -1453615.5)
(-21633374 71464.985 -1564546.8)
(-21613602 -128069.94 -1485602.4)
(-21508383 -87499.991 -1364454.9)
(-21535073 73461.477 -1411634.2)
(-21005505 -58323.034 -1231027.7)
(-21035849 -75076.383 -1290582.8)
(-21040848 49793.274 -1353719.1)
(-21016674 36265.047 -1262089.6)
(-21006876 151.58931 -1402618)
(-21011022 -174870.79 -1360924.7)
(-21006275 -113178.65 -1265658.6)
(-20989622 17826.959 -1300925.7)
(-24534050 -69325.377 -1685827.2)
(-21985497 -174046.93 -2830583.3)
(-22444870 -126434.42 -1798187.6)
(-22439140 100599.45 -1947958.7)
(-21882887 89916.483 -2828486.3)
(-24540539 62354.101 -1698156.8)
(-21984221 -290434 -2809320.6)
(-22459336 -314532.73 -1800307.8)
(-22380794 4672.8328 -1945441.4)
(-21851505 11028.415 -2821742.5)
(-21833903 -266324.37 -1510435.8)
(-21729193 85365.924 -1496957.3)
(-21765482 16632.263 -2068209.2)
(-21806075 -282293.26 -1899724.1)
(-22016475 -274802.33 -1583045.7)
(-22038796 19197.49 -1624467.2)
(-21793829 63052.368 -2074014.5)
(-21823656 -142499.39 -1856366.6)
(-22016027 -144806.93 -1546347.9)
(-22090515 96722.464 -1594081)
(-24425927 -215662.25 -1579054.5)
(-21851590 -286028.34 -2759837.7)
(-22343517 -234246.29 -1722469.1)
(-22283802 32103.319 -1936362.6)
(-21718941 48073.283 -2844309.3)
(-24151002 -57875.643 -1594475.4)
(-21616301 -302741.69 -2765517.8)
(-22137816 -315964.83 -1675198.4)
(-22050940 -91811.146 -1875667.3)
(-21468081 -87173.582 -2857615.2)
(-21542594 -224716.53 -1367412.1)
(-21364588 128116.71 -1383971.9)
(-21476765 -71983.184 -2038421.1)
(-21515215 -260302.92 -1806712.8)
(-21782174 -259950.07 -1456488.4)
(-21807611 -68694.415 -1537612.6)
(-21664366 47372.131 -2096813.7)
(-21717662 -213731.42 -1822771.9)
(-21927066 -192771.8 -1514824.7)
(-21982153 68916.251 -1602456)
(-21054764 -81327.08 -1142446.9)
(-20954896 -124236.76 -1306712.4)
(-20966302 44334.253 -1406379.9)
(-20949759 19528.179 -1284865.6)
(-21447390 -154625.7 -1377853.4)
(-21514412 -175821.26 -1493015.3)
(-21534303 56231.176 -1595989.6)
(-21453478 51731.751 -1457074.4)
(-21386523 -62070.013 -1525249.5)
(-21364602 -221356.37 -1443474.6)
(-21312081 -186971.11 -1324172)
(-21315189 -42285.46 -1394568.2)
(-20816027 -107010.28 -1202757.9)
(-20844051 -151793.5 -1263041.5)
(-20853094 -51740.09 -1320314.7)
(-20785791 -27798.604 -1268985.4)
(-21866430 -415323.17 -2778016.5)
(-21586160 311428.79 -2736299.9)
(-22439531 -356572.8 538652.05)
(-22148503 150514.76 582508.57)
(-28879204 384591.33 476919.62)
(-25466063 200594.61 848572.62)
(-25818875 272715.45 15604.756)
(-25868675 -5961.1719 42854.61)
(-25369850 -125439.29 938912.11)
(-26340559 256536.15 -375579.31)
(-26176104 40959.471 -185199.84)
(-26545025 -59438.792 721661.66)
(-24462774 -134214.47 1117856.8)
(-24799093 -98629.571 1187201.5)
(-28123965 -87345.197 -2819059.3)
(-23309391 291879.53 -705797.99)
(-23150715 231253.46 -881250.04)
(-23087718 242412.77 -927269.9)
(-22960319 243967.76 -1115184.6)
(-23070567 140232.38 -982885.32)
(-23127024 191459.39 -868949.62)
(-22821734 202852.55 -1129747.4)
(-22888403 105691.01 -1186686.9)
(-23736377 282895.99 -922125.6)
(-23427825 231453.25 -1308256.6)
(-23435899 277898.29 -1406463.6)
(-23501867 266852.57 -1151728.7)
(-23415766 78139.611 -1469467.6)
(-23387016 108102.77 -1252777.6)
(-23358068 191605.27 -1181887.7)
(-23329439 192784.22 -1432006)
(-23119243 227378.25 -952929.06)
(-23087382 228142.77 -926210.83)
(-22911114 173130.49 -1138609.9)
(-22908203 239598.46 -1194020.7)
(-23024020 176162.35 -929619.14)
(-23063448 218768.79 -817387.31)
(-22757922 226549.39 -1075702.5)
(-22825969 139146.51 -1126773.1)
(-23370826 244315.86 -1474503.8)
(-23366414 104380.72 -1429281.3)
(-23444598 159521.45 -1174394.4)
(-23460234 240192.53 -1218222.4)
(-23313513 80867.666 -1421032.9)
(-23289738 127838.24 -1215938.5)
(-23286085 207082.04 -1134033.2)
(-23243451 202468.79 -1386980.5)
(-24116771 273877.08 -1346316.2)
(-23858573 250044.47 -1764900.9)
(-23860933 243231.67 -1858367)
(-24061315 276901.9 -1460564.4)
(-23469804 165061.26 -2758256.6)
(-23459154 188067.1 -2780766.6)
(-24862667 279189.67 -1583338.2)
(-24902780 238850.02 -1628128.9)
(-26423894 129233.48 -1263451)
(-24986366 77336.627 -1614014.1)
(-23389431 46318.366 -2850051)
(-23405673 112789.67 -2815791.2)
(-24813113 110904.51 -1692087.1)
(-26541197 -18071.57 -1323831)
(-23835863 71762.71 -1962451.5)
(-23793568 153012.76 -1879671.8)
(-24046810 60089.124 -1552862)
(-23876196 188601.43 -1573862.5)
(-22909598 -62178.707 -1871825.1)
(-22825217 -135407.83 -1923972.6)
(-23825985 50230.703 -1862731.8)
(-23957233 100623.6 -1513147.8)
(-23766407 181738.88 -1933732.9)
(-23981076 237398.34 -1540802.4)
(-23350451 113012.43 -2861170.8)
(-23428845 8583.8674 -2862980.3)
(-24804414 81403.383 -1713445.3)
(-26492844 163049.68 -1360472.1)
(-24776716 171863.23 -1742465)
(-23230178 124361.2 -2866905.6)
(-23320569 13507.477 -2857951.7)
(-26232112 7045.6188 -1319224.5)
(-24740946 26728.306 -1704119)
(-24648401 126387.45 -1680087.2)
(-23685221 165232.92 -1847712.8)
(-23734493 46567.529 -1901168)
(-23886075 41757.094 -1547877.9)
(-23789424 194772.27 -1527331.4)
(-22749443 134845.2 -1900802.8)
(-22705859 56238.697 -1839167.2)
(-24331812 -177215.79 -2928940)
(-24187078 90916.029 -2921235)
(-20019947 155409.29 -846758.48)
(-19815735 122290.79 -986533.84)
(-19804719 131999.01 -1018657.9)
(-19958310 129042.1 -902865.49)
(-20011911 232955.93 -749897.68)
(-19836809 216652.2 -850328.62)
(-19849477 142000.17 -900397.82)
(-19997541 149155.02 -799336.5)
(-20252811 214529.72 -879398.97)
(-20154734 197381.61 -962751.64)
(-20165850 134921.22 -975294.6)
(-20231506 145439.42 -921435.14)
(-20253611 116067.12 -1013356.2)
(-20197490 91379.421 -1073782.3)
(-20151187 126580.44 -1105992.1)
(-20206514 128468.97 -1038328.8)
(-21018271 122589.79 -1241363.3)
(-20991848 12144.732 -1309357.5)
(-20968714 29732.4 -1222426.3)
(-20932309 115694.24 -1226992)
(-20932199 149678.96 -1096347.1)
(-20847281 153181.79 -1159273.7)
(-20870856 159425.56 -1071980.3)
(-20889287 142178.16 -1074399.4)
(-20541819 187983.69 -952010.98)
(-20431556 173162.66 -1029139.8)
(-20442406 127618.85 -1042907.5)
(-20545133 126978.44 -963579.9)
(-20473701 106969.86 -1184840.8)
(-20496947 42681.607 -1176546)
(-20593391 87508.309 -1072152.3)
(-20549397 117799.83 -1096014.9)
(-20730032 96191.664 -1235867.9)
(-20741386 11314.759 -1152458.1)
(-20784692 40712.222 -1069633)
(-20698450 99849.08 -1200548.5)
(-20818407 146830.97 -1264282.7)
(-20869694 39832.873 -1199509.6)
(-20880037 51599.054 -1125634.7)
(-20789711 128518.54 -1227488.7)
(-20515565 88913.127 -1018337.1)
(-20406529 64378.618 -1103975.4)
(-20319496 116792.01 -1189759.1)
(-20458064 106746.79 -1068320.5)
(-20451501 84816.807 -949371.75)
(-20303551 52947.057 -1047828.3)
(-20235281 84795.308 -1157400)
(-20368150 78962.02 -1038003.5)
(-19981676 76950.735 -1039365.2)
(-20050306 88162.638 -953422.39)
(-20147139 111960.28 -901308.56)
(-20059405 88277.91 -973805.09)
(-20068359 116056.96 -1067639.2)
(-20112871 103111.2 -1023651.5)
(-20185906 115278.65 -968691.88)
(-20151640 111671.4 -999568.42)
(-19855191 126680.55 -941128.12)
(-19825334 131333.64 -950396.46)
(-19782031 121335.11 -980761.6)
(-19844972 112531.8 -944211.65)
(-19698374 93528.254 -954975.54)
(-19785650 123351.45 -881661.72)
(-19844912 152378.09 -863755.67)
(-19744443 117027.76 -925233.29)
(-19769712 142399.83 -879266.47)
(-19724866 141962.67 -913102.22)
(-19602292 120637.18 -986063.14)
(-19532434 131732.02 -1048154.1)
(-19823891 105977.75 -834839.61)
(-19808849 167139.02 -837565.45)
(-19662627 96127.853 -937185.75)
(-19659988 135517.87 -923860.49)
(-20037416 105103.54 -1009750.4)
(-19961682 83688.42 -1085912.5)
(-19961741 122521.04 -1076090.9)
(-19915247 125104.72 -1133738.7)
(-19946781 88451.389 -1025872.2)
(-20077158 115748.8 -927739.65)
(-20105612 91546.266 -943824.86)
(-19964924 69362.313 -1070488.2)
(-19728511 113761.26 -948739.24)
(-19873202 138672.39 -867724.49)
(-19576226 107753 -1061698.3)
(-19717515 99773.148 -960592.13)
(-19661939 96198.414 -978379.46)
(-19691952 114119.02 -962166.47)
(-19822125 143775.05 -868197.42)
(-19814083 107556.94 -876911.87)
(-19926678 82417.748 -1142592.7)
(-20037015 62895.417 -1049008.6)
(-20117312 86405.32 -986162.56)
(-19972573 101635.69 -1085208.6)
(-19983943 87446.929 -1063348.4)
(-20017744 90176.699 -1041809.3)
(-20065756 100282.7 -990313.15)
(-20045708 88183.118 -1005460.1)
(-20740674 128097.62 -1266622.2)
(-20745617 2617.5633 -1250771.8)
(-20727804 28460.846 -1186899.6)
(-20678883 124200.32 -1245336.3)
(-20353612 73325.568 -1075267.9)
(-20299722 53896.356 -1132084.9)
(-20247343 118643.93 -1197174.4)
(-20294812 109867.51 -1129758.2)
(-20400465 87240.425 -998658.46)
(-20224921 45353.891 -1190085.5)
(-20402295 55567.165 -1056557.6)
(-20315567 61796.884 -1184591)
(-20726333 31430.925 -1223267.4)
(-20796326 5605.132 -1242947.5)
(-20848814 40533.799 -1250515.6)
(-20745147 47840.863 -1250906.7)
(-20739093 48417.053 -1274810.5)
(-20798089 -37763.324 -1210373)
(-20798716 -2164.4235 -1159433.5)
(-20684336 68924.124 -1253410.6)
(-20773282 89837.127 -1212445.8)
(-20843659 49062.444 -1157774.7)
(-20762555 58288.718 -1158603.8)
(-20721815 90523.483 -1194674.6)
(-20271233 80812.492 -1150484.6)
(-20325853 73515.721 -1106700.5)
(-20390031 87690.588 -1044246.5)
(-20368492 80766.129 -1061383.4)
(-20445951 61567.034 -1038888.6)
(-20334795 16835.762 -1125263.4)
(-20235592 63889.965 -1215155.4)
(-20320428 75337.333 -1131318.6)
(-22119655 190547.98 -1588058.7)
(-22153659 -84099.413 -1696457.3)
(-22002255 -60706.868 -1509219.7)
(-21988121 174134.01 -1434562.6)
(-21732581 176884.51 -1470415.6)
(-21753399 89533.468 -1504604.9)
(-21722087 113535.08 -1318665.9)
(-21810306 182982.03 -1280196.9)
(-21276116 149231.98 -1158275.4)
(-21252300 127631.86 -1252696.6)
(-21302547 154482.71 -1248388.3)
(-21351566 155012.8 -1109788.9)
(-21452486 10226.97 -1324385.9)
(-21475287 -39997.558 -1449477.7)
(-21472774 135577.49 -1375174.1)
(-21447254 133725.98 -1267927.8)
(-24566457 175219.85 -1666895.9)
(-21688918 -113129.69 -1553586.3)
(-21740861 124463.2 -1483752)
(-24638589 221090.31 -1695956.3)
(-21953815 150804.45 -2851454.8)
(-21917387 36645.58 -2939314)
(-22430413 72478.166 -2012477.4)
(-22502159 184544.72 -1964467)
(-21863976 62223.851 -1976033.8)
(-22147239 88402.239 -1555291.3)
(-22204982 198650.9 -1506953.9)
(-21864260 121467.19 -1985323.5)
(-23022725 -112414.21 -2080543.9)
(-22179318 -163812.01 -2956255.1)
(-22245425 248464.28 -2872351.7)
(-23067613 289399.68 -2009545.1)
(-22380937 226847.48 -1997281.7)
(-22391160 -112881.96 -2231921.9)
(-22637830 -99056.354 -1726568.2)
(-22569934 232876.25 -1630277.6)
(-24676822 81660.558 -1757910.2)
(-21986778 89349.619 -2935192.3)
(-22071053 -80034.214 -2840270.3)
(-22598068 -92764.511 -1795905)
(-22469970 101124.01 -2107154.4)
(-24709457 -42441.877 -1800147.1)
(-22132641 289611.15 -2894950.7)
(-22141161 15837.413 -2883010.7)
(-22622570 53033.851 -2073583.4)
(-22629881 311819.72 -2089112.7)
(-22254082 31081.009 -1635528.6)
(-22014938 27665.896 -2023514.8)
(-22019775 252341.97 -2046363.8)
(-22268301 279284.27 -1650501.8)
(-21914528 89976.763 -2026737.8)
(-21888588 -57990.967 -1900748)
(-22139214 -75919.119 -1556797.3)
(-22156299 106852.14 -1627020.3)
(-21855684 -194295.96 -1599407.5)
(-21863284 160150.65 -1597913.7)
(-22090337 -361506.61 -2890955.8)
(-21966537 271952.38 -2908159)
(-21351048 50698.292 -1185733.8)
(-21241854 23280.506 -1389433)
(-21244450 178813.85 -1402962.2)
(-21241825 156892.07 -1281861.6)
(-21770456 25504.745 -1413981.9)
(-21797192 11024.522 -1586781.7)
(-21818187 230562.52 -1607998.6)
(-21750307 218213.3 -1462354.4)
(-21230428 5327.1942 -1140100.3)
(-21089503 -11333.213 -1321373.4)
(-21167583 99932.492 -1343303.4)
(-21143040 93660.369 -1251451.7)
(-21617807 -35250.367 -1406780.8)
(-21667889 -55277.517 -1541369.9)
(-21725879 97385.167 -1566542.5)
(-21657299 108736.43 -1417633.4)
(-24695506 10981.063 -1783058.1)
(-24733577 153626.8 -1780841.8)
(-21880575 -180055.81 -1609091.8)
(-21795189 180517.05 -1596448.2)
(-24638628 -71760.34 -1710333.9)
(-21636776 -78579.498 -1483425.9)
(-21485938 274313.94 -1491246.9)
(-24288341 101210.41 -1772385.8)
(-21914511 -320250.68 -2897876.7)
(-21701434 419334.86 -2860563.4)
(-21718868 46886.272 -1615132.3)
(-21698271 -165721.5 -1556130.1)
(-21651675 51003.143 -1447663.2)
(-21738677 -140933.08 -1389342.7)
(-21750397 122298.75 -1573113.7)
(-21730278 -32973.848 -1504563.3)
(-21761117 -3533.4842 -1335874.8)
(-21693552 121801.47 -1386994.3)
(-21188609 95992.6 -1333135.3)
(-21261040 10095.061 -1279448.3)
(-21258681 33497.694 -1181948.2)
(-21196149 91825.021 -1232783.1)
(-21255396 -50788.154 -1220878.5)
(-21217590 -110104.72 -1354309.2)
(-21159259 40183.716 -1394855.4)
(-21164428 49582.536 -1292754.9)
(-22041165 74022.902 -2900388.3)
(-22142516 -205693.31 -2875251.3)
(-22643866 -233045.06 -1844603.5)
(-22496504 48998.81 -2101529.2)
(-22021867 162542.93 -2902187)
(-22153547 -98239.373 -2895441.3)
(-22643550 -56169.619 -1828076.1)
(-22520646 172414.3 -2099771.6)
(-22215086 -37360.4 -1556437.2)