/*--------------------------------*- C++ -*----------------------------------*\
  =========                 |
  \\      /  F ield         | OpenFOAM: The Open Source CFD Toolbox
   \\    /   O peration     | Website:  https://openfoam.org
    \\  /    A nd           | Version:  7
     \\/     M anipulation  |
\*---------------------------------------------------------------------------*/
FoamFile
{
    version     2.0;
    format      ascii;
    class       volScalarField;
    location    "2000";
    object      k;
}
// * * * * * * * * * * * * * * * * * * * * * * * * * * * * * * * * * * * * * //

dimensions      [0 2 -2 0 0 0 0];

internalField   nonuniform List<scalar> 
34251
(
1.5239506
1.5257353
1.5237742
1.523251
1.5241892
1.5235385
1.521584
1.5228031
1.5231093
1.5171763
1.5350788
1.5166342
1.5349484
1.5253225
1.5256964
1.5221458
1.522011
1.5260723
1.5258388
1.5224604
1.5223412
1.5231621
1.5228746
1.5226147
1.5228911
1.5203333
1.5203911
1.5201979
1.520514
1.521721
1.5218519
1.520945
1.5210911
1.5216426
1.5217709
1.5220715
1.5219389
1.5180213
1.5187559
1.5157063
1.5174686
1.5178041
1.5161249
1.5177984
1.5173609
1.5591228
1.5595181
1.5171274
1.5171562
1.5156316
1.515556
1.5173872
1.5173025
1.5597456
1.5591609
1.5214426
1.5299156
1.5215773
1.5300898
1.5216685
1.5299539
1.521663
1.5219496
1.53078
1.5219304
1.5304308
1.5298974
1.5218317
1.5217641
1.5220949
1.5219728
1.5218351
1.5217117
1.5217476
1.5218652
1.5218265
1.521943
1.5229908
1.5216752
1.521614
1.5214936
1.5215554
1.5227654
1.521808
1.5216845
1.5214375
1.5215607
1.5226929
1.5224927
1.5196554
1.5197505
1.5198021
1.5204132
1.5197173
1.5196107
1.5196111
1.5197253
1.5195979
1.5196002
1.5196535
1.5196577
1.5202735
1.5196639
1.5197503
1.519856
1.5197796
1.5202209
1.5200699
1.5201164
1.5203349
1.5196208
1.5196776
1.5198324
1.5210176
1.5202211
1.5202999
1.5201649
1.5200915
1.5211054
1.5201212
1.5202133
1.5200099
1.5201292
1.5211555
1.5212311
1.5212202
1.521463
1.5213687
1.5213195
1.5179086
1.518497
1.5154393
1.5170852
1.5174477
1.5158171
1.5161268
1.515942
1.5196154
1.5197942
1.5156685
1.5156275
1.5192396
1.5194197
1.5420862
1.5918547
1.5915993
1.541507
1.5423432
1.5420554
1.5926229
1.516828
1.5168705
1.5154035
1.5153186
1.5156156
1.515662
1.5195006
1.5193855
1.5193423
1.5155614
1.5155709
1.5193397
1.5426443
1.5422069
1.5931454
1.5418783
1.5422641
1.5921627
1.5911308
1.5372601
1.5376982
1.5223755
1.522331
1.5376707
1.53735
1.5224406
1.5224303
1.5224368
1.5376749
1.5368419
1.5223767
1.5389917
1.5384797
1.5227604
1.5227237
1.5381682
1.5376546
1.5226148
1.5225552
1.5372765
1.5364629
1.5224515
1.5223889
1.5200003
1.5209694
1.5213286
1.5208598
1.5208958
1.5211988
1.5212419
1.5209419
1.5207471
1.5206672
1.5206952
1.5208745
1.5208404
1.5207681
1.5207924
1.5208185
1.520791
1.521886
1.5209437
1.5208393
1.5208683
1.522001
1.5206575
1.520683
1.5207834
1.5207525
1.520729
1.5208344
1.5218406
1.5219584
1.5206437
1.520567
1.5205461
1.520657
1.520661
1.5206981
1.5206833
1.5206812
1.5217606
1.5205646
1.5206229
1.5206432
1.5216404
1.5205907
1.5204673
1.5205565
1.5205144
1.5206043
1.5217321
1.5216117
1.5207682
1.5207669
1.5210926
1.5211026
1.5210322
1.5206452
1.520708
1.5209499
1.5206864
1.5205219
1.5204769
1.5206329
1.5207417
1.5205759
1.5205592
1.5207444
1.5227558
1.5221236
1.5221089
1.5220057
1.5220313
1.5225857
1.5219439
1.5219023
1.521793
1.5218422
1.5223153
1.5221961
1.5191763
1.5191701
1.5196979
1.5192318
1.5192392
1.5192556
1.5192328
1.5197903
1.5192985
1.5193409
1.5191461
1.5191873
1.5191326
1.5191819
1.5196008
1.5197047
1.5190842
1.5191324
1.5190801
1.5191267
1.519077
1.5190836
1.5191537
1.5191555
1.5190714
1.5191487
1.5190816
1.5191564
1.519149
1.5192879
1.519157
1.519292
1.5191582
1.5191622
1.5196297
1.5192203
1.519217
1.5191571
1.5191636
1.5196362
1.5192225
1.5192177
1.5190734
1.5191181
1.5190804
1.5191219
1.5190703
1.5191138
1.519079
1.5191219
1.5195415
1.5195375
1.5190842
1.5191639
1.5190811
1.519159
1.5191276
1.5192084
1.5191287
1.5192123
1.5191924
1.5193327
1.5192019
1.5193435
1.5191588
1.519301
1.519156
1.519296
1.5196093
1.5197214
1.5197501
1.5196487
1.5195448
1.5195459
1.5195814
1.5195757
1.5196179
1.519591
1.5196158
1.5196407
1.519659
1.5195727
1.519686
1.5196018
1.5197614
1.5192154
1.5192691
1.5191772
1.5191977
1.5192545
1.5192336
1.5190942
1.5191369
1.5191174
1.5193546
1.5193711
1.5195412
1.5193895
1.5201358
1.5202332
1.5199672
1.5199198
1.5198362
1.519949
1.5197896
1.5199051
1.5197956
1.5198078
1.5196817
1.5196852
1.5196136
1.5196126
1.5196107
1.5196113
1.5197609
1.5197627
1.5197129
1.5197164
1.5199681
1.5201727
1.5201421
1.5198182
1.5198027
1.5197815
1.5197632
1.5196702
1.5196934
1.5196628
1.5196852
1.519807
1.5198277
1.5198804
1.5200348
1.522029
1.5220514
1.5221451
1.5221143
1.5221017
1.5220448
1.5224306
1.5223907
1.5223013
1.5222164
1.5221363
1.5220649
1.5178693
1.5183479
1.5152271
1.5156258
1.5155824
1.5170643
1.5173676
1.5155711
1.5158667
1.5160744
1.5197611
1.5199143
1.5193944
1.5195828
1.5353473
1.53545
1.5622145
1.5619219
1.5976257
1.5963746
1.6116167
1.609762
1.5963621
1.5972454
1.6117763
1.6108035
1.5608966
1.5349826
1.5346377
1.5614859
1.5354205
1.5356741
1.5620943
1.5625125
1.5354506
1.5351936
1.5621391
1.5974511
1.5979492
1.6132769
1.6117999
1.5168027
1.5168569
1.5152177
1.5156357
1.5155776
1.5151286
1.5155408
1.515532
1.5196809
1.5195556
1.5195058
1.5195129
1.5358379
1.5356964
1.5631174
1.562925
1.5617157
1.535206
1.5356419
1.5990451
1.596654
1.614939
1.6127661
1.5623233
1.5615881
1.5352375
1.5353293
1.5620704
1.5625967
1.5356173
1.535299
1.5974295
1.5981141
1.6118647
1.6113696
1.5977673
1.5958057
1.6108955
1.6088192
1.5172238
1.5548709
1.5514832
1.5243818
1.5247301
1.5540706
1.554584
1.5246668
1.5246462
1.555674
1.5519478
1.5245995
1.5248891
1.5530624
1.5535791
1.5247467
1.5246837
1.5550781
1.5527196
1.5246357
1.5248314
1.5515681
1.552447
1.5245844
1.5244948
1.5572405
1.5550196
1.5251815
1.5253798
1.5544698
1.5552243
1.5251837
1.5251186
1.555723
1.5534938
1.5249284
1.5251575
1.5539502
1.5536365
1.5248179
1.5248762
1.5539678
1.5522725
1.5246204
1.5247674
1.5506176
1.5515
1.5244949
1.5244139
1.5222289
1.5208554
1.521177
1.5208157
1.5211463
1.5215448
1.5218673
1.5215117
1.5218388
1.5206767
1.5206315
1.5209822
1.520939
1.5207643
1.5207234
1.5210804
1.5210351
1.5213126
1.5216273
1.5212597
1.5215771
1.5214376
1.5213761
1.521755
1.5216942
1.52023
1.5201881
1.52058
1.520539
1.5198275
1.5197921
1.5200837
1.5200439
1.5197268
1.5197578
1.519997
1.519961
1.5197804
1.5197863
1.5200299
1.5200246
1.5201603
1.5201453
1.5204985
1.5204723
1.5201116
1.5200741
1.5204359
1.5203957
1.5197246
1.5197003
1.5208863
1.5198513
1.5198756
1.5197335
1.5197546
1.5209134
1.5199043
1.5198818
1.5195244
1.5195972
1.5195482
1.5196174
1.5195178
1.5195901
1.5194958
1.5195641
1.5208523
1.5208288
1.5198762
1.5210589
1.520107
1.520025
1.5197556
1.5197386
1.5209664
1.5199049
1.5198889
1.5195454
1.5195296
1.519624
1.5196041
1.5209075
1.5209985
1.519468
1.519445
1.5195948
1.5195671
1.5194739
1.5196042
1.519497
1.5196214
1.5195457
1.5197592
1.5195633
1.5197683
1.5195348
1.5197434
1.5195087
1.5197113
1.5194824
1.5196113
1.5195539
1.5198025
1.5197692
1.5230618
1.5209666
1.5209825
1.5209793
1.5209555
1.5211263
1.5210503
1.5211242
1.5210436
1.5232585
1.5232691
1.5194232
1.5196396
1.5194422
1.5196519
1.5194088
1.5193802
1.5195318
1.5195009
1.5193468
1.5194775
1.5193679
1.5194934
1.519474
1.5194469
1.5196799
1.5196501
1.519602
1.5196176
1.520785
1.5197649
1.5197491
1.519461
1.5195292
1.5194274
1.519495
1.5193955
1.5194681
1.5194148
1.5194847
1.519665
1.5196264
1.5207976
1.5198139
1.519772
1.5207467
1.520734
1.5196331
1.519648
1.5206723
1.5197774
1.5197715
1.5196316
1.5196216
1.520739
1.5197616
1.519776
1.5194317
1.5194981
1.5194266
1.5194935
1.5206861
1.5206069
1.519442
1.5195085
1.5194688
1.5195301
1.5193963
1.5195135
1.5194262
1.5195332
1.51946
1.5196534
1.5194837
1.5196616
1.5193798
1.5195013
1.5193805
1.5195009
1.5194437
1.5196428
1.5194492
1.5196471
1.520884
1.5208836
1.5208675
1.5208725
1.5208298
1.5208131
1.5207282
1.5207415
1.5206241
1.5205922
1.5209288
1.5208973
1.5206499
1.5209591
1.5206388
1.5209446
1.5212692
1.5215785
1.5212291
1.5215398
1.5213111
1.5216175
1.5212881
1.5215938
1.5212173
1.5215177
1.5212454
1.5215401
1.5205112
1.5204352
1.5207861
1.5206949
1.5205669
1.5208625
1.5205945
1.5208885
1.5210919
1.5209635
1.5200099
1.5203239
1.5200301
1.5203443
1.5196548
1.5196665
1.5198861
1.5198976
1.519666
1.5196724
1.5198855
1.5198735
1.5199933
1.5199676
1.520288
1.5202399
1.5200494
1.5203855
1.5200529
1.5203808
1.5196944
1.5196674
1.5199323
1.5199036
1.5196594
1.5199089
1.5196727
1.5199149
1.5200522
1.5200248
1.5203743
1.5203456
1.5221784
1.522108
1.5220173
1.521981
1.5215606
1.5216535
1.5215874
1.5214904
1.5212925
1.5213673
1.5212906
1.5212227
1.5211482
1.5212193
1.5212086
1.5211344
1.5214259
1.521529
1.5215236
1.5214164
1.5219299
1.5220258
1.521896
1.521804
1.5214418
1.5214421
1.5213378
1.5213393
1.5211369
1.5210567
1.5210525
1.5211393
1.5209935
1.5210844
1.5210018
1.5209125
1.5213336
1.5214133
1.5212975
1.5212122
1.5219486
1.5218065
1.5179239
1.5179245
1.5181347
1.5181393
1.5181565
1.5181548
1.5179521
1.5179528
1.519285
1.5192323
1.5192315
1.5192794
1.5179604
1.5179317
1.5177709
1.5177791
1.518022
1.5180381
1.5181171
1.5181181
1.5178864
1.5178886
1.5192933
1.5193434
1.5193925
1.5193491
1.5178966
1.517787
1.5180071
1.5180345
1.5182511
1.5182225
1.5182164
1.5182511
1.5184096
1.5184398
1.518311
1.5181071
1.5183035
1.5181153
1.518483
1.5183024
1.5183145
1.51849
1.5192255
1.5192201
1.5192608
1.5192614
1.5192781
1.5193296
1.5193725
1.519326
1.5183222
1.5181284
1.51831
1.518138
1.5184804
1.5183123
1.518327
1.5184923
1.5183295
1.5181505
1.5183269
1.5181541
1.5184938
1.5183296
1.5183357
1.5184948
1.5185249
1.5186539
1.5186612
1.5185324
1.5185427
1.5185384
1.5186632
1.5186639
1.5188276
1.518687
1.518819
1.5186936
1.5186945
1.5188199
1.5186932
1.5188213
1.5186638
1.518518
1.518646
1.5185351
1.5186784
1.5188105
1.5188319
1.5186977
1.5186596
1.5185283
1.5186565
1.5185315
1.518688
1.5188199
1.5186926
1.5188226
1.5190171
1.5188666
1.5189887
1.5188907
1.519236
1.5190804
1.5191131
1.5192564
1.5188797
1.5189999
1.518875
1.5189961
1.5192405
1.5190864
1.5190921
1.5192362
1.5179671
1.5179671
1.5181701
1.5181729
1.5181966
1.5181955
1.518
1.5180013
1.5192568
1.5192064
1.5192134
1.5192595
1.5180071
1.5179728
1.5179701
1.5179702
1.5181713
1.5181755
1.5181785
1.5181761
1.5179754
1.5179751
1.5192608
1.5192122
1.5192169
1.5192638
1.5179824
1.5179763
1.5181658
1.5181731
1.5183406
1.5183494
1.5183556
1.5185061
1.5185138
1.5183447
1.518192
1.5181965
1.5183651
1.5183622
1.5183659
1.5183722
1.5185215
1.5185241
1.5183506
1.5181657
1.5183388
1.5181746
1.518342
1.5185005
1.5185158
1.5183565
1.5183496
1.5181732
1.5183478
1.5181754
1.5183512
1.5185109
1.5183558
1.5185126
1.5192371
1.5191976
1.5192054
1.5192419
1.5192004
1.5191906
1.5192298
1.5192357
1.5186393
1.5184946
1.5186274
1.5185065
1.5186572
1.5187934
1.5188072
1.5186691
1.5185105
1.518637
1.5185082
1.5186376
1.5186678
1.5188019
1.5186681
1.5188001
1.5185956
1.5184153
1.5185673
1.5184478
1.5185873
1.5186173
1.5187391
1.5187635
1.5186424
1.5184938
1.5186345
1.5185028
1.5188074
1.51866
1.5186704
1.518811
1.5189379
1.5187792
1.5189114
1.5188052
1.5189804
1.5190099
1.519133
1.5191584
1.5188612
1.5189864
1.5188555
1.5189819
1.5192196
1.5190617
1.5190683
1.5192166
1.5189885
1.5188459
1.5189695
1.5188607
1.5192123
1.5190557
1.5190772
1.5192229
1.5188551
1.5189771
1.5188555
1.5189783
1.519224
1.5190669
1.5190669
1.5192144
1.5191992
1.5191822
1.5192352
1.5192237
1.5192368
1.519288
1.519333
1.5192848
1.51925
1.5193025
1.5193556
1.5193082
1.5192461
1.5191946
1.5192064
1.5192524
1.5191656
1.5191485
1.519201
1.5191883
1.5191685
1.5191608
1.5192066
1.5191997
1.5192207
1.5191738
1.5191813
1.5192276
1.5192119
1.5191629
1.5191765
1.5192208
1.519229
1.5192102
1.5192468
1.5192643
1.5192042
1.5191924
1.5192265
1.5192402
1.5192429
1.5191989
1.5192145
1.5192593
1.5192404
1.5192208
1.5192667
1.5192844
1.5192761
1.5192312
1.5192528
1.5192944
1.5192561
1.5192187
1.5192382
1.519275
1.5193085
1.5192611
1.5192813
1.5193224
1.5192839
1.5192445
1.5192649
1.5193009
1.5193699
1.5193495
1.5193919
1.5194093
1.5180809
1.5180812
1.5182708
1.5182736
1.5180866
1.5180556
1.5180564
1.5182415
1.5182464
1.5182593
1.5182575
1.5180687
1.5180689
1.5180753
1.5180624
1.5184091
1.5182347
1.5183961
1.5182451
1.518398
1.5184142
1.5185469
1.5185622
1.5184207
1.5182534
1.5184179
1.5182566
1.5195159
1.5193435
1.5194933
1.5193551
1.5194233
1.519239
1.5193864
1.5192679
1.5195427
1.5195869
1.5197098
1.5197521
1.5194986
1.5193417
1.5194888
1.5193394
1.5198293
1.5198259
1.5197668
1.5197671
1.5199898
1.5199086
1.5198359
1.5198795
1.5197871
1.5197427
1.5195156
1.5195158
1.5194357
1.5194409
1.5195666
1.5196429
1.5195706
1.5194958
1.5193337
1.5193224
1.5193009
1.5193137
1.5193781
1.5194584
1.519434
1.5193622
1.5193259
1.5192851
1.5192281
1.5192758
1.5193475
1.5193492
1.5192776
1.5192897
1.5192397
1.519223
1.5192286
1.5192447
1.519216
1.5191765
1.5191948
1.5192318
1.5191899
1.5191488
1.5191597
1.5191977
1.5191985
1.5191932
1.5192032
1.5192071
1.5191963
1.5191814
1.5191876
1.5192016
1.5191786
1.51914
1.5191567
1.5191934
1.5194546
1.5194542
1.5193804
1.519385
1.5194623
1.5194598
1.519387
1.5193943
1.5192866
1.5192766
1.5192562
1.5192675
1.5192958
1.5192856
1.5192657
1.5192752
1.519814
1.5198012
1.5198555
1.5198635
1.519807
1.5195366
1.5195295
1.5194668
1.519475
1.5195202
1.5195046
1.5194383
1.5194555
1.519383
1.5193702
1.5193445
1.5193579
1.5193605
1.5193425
1.5193195
1.5193342
1.5192486
1.5192628
1.5192593
1.5192478
1.5192872
1.51927
1.5192833
1.5192673
1.5191966
1.5192261
1.5192362
1.5192078
1.5192137
1.5192441
1.5192598
1.5192325
1.5193912
1.5193876
1.5194086
1.5194101
1.5193617
1.51934
1.5193801
1.5193988
1.5194736
1.5194593
1.5171428
1.5172964
1.5243656
1.5247817
1.5246778
1.5246648
1.5245894
1.5249507
1.524757
1.5246792
1.5246227
1.5248556
1.5245788
1.524467
1.5251743
1.5254174
1.5251968
1.5251064
1.5249094
1.5252025
1.5247897
1.524871
1.5246041
1.5247865
1.5244864
1.5243753
1.517931
1.5164617
1.5165228
1.5183288
1.5166499
1.5169824
1.5225881
1.5155164
1.5154786
1.5150467
1.5154319
1.5154707
1.5159421
1.5157561
1.5153613
1.515674
1.5159016
1.5170328
1.5170912
1.5170753
1.5235425
1.5236113
1.5425809
1.5430099
1.5173881
1.5172109
1.5235478
1.5426837
1.5235926
1.5168185
1.5167956
1.5230167
1.5231738
1.5415614
1.5421968
1.5169485
1.5168525
1.5233405
1.5234685
1.5426431
1.5426529
1.5810054
1.5594971
1.5825604
1.56028
1.559421
1.5596872
1.5809618
1.5811117
1.6237903
1.5993535
1.6012998
1.6256733
1.5996818
1.5993251
1.6229272
1.6235761
1.6157277
1.6412142
1.6442323
1.6195441
1.6150237
1.6405657
1.6403862
1.6141707
1.5979347
1.5999254
1.6216731
1.6242381
1.6244302
1.5996603
1.5992955
1.6230562
1.6154166
1.6401616
1.6445089
1.6209016
1.6410864
1.6425634
1.6162799
1.615787
1.5580867
1.5588935
1.5807319
1.5791171
1.5807295
1.5589765
1.559304
1.5805557
1.5809065
1.5594238
1.5822713
1.5601194
1.5600949
1.5602412
1.5820788
1.5816514
1.5809283
1.5594708
1.5601981
1.5822866
1.6236675
1.5992767
1.6009808
1.6254141
1.60003
1.6007371
1.6236591
1.6251349
1.6447144
1.6201566
1.6202038
1.643219
1.6152001
1.6412458
1.6452891
1.6209047
1.5154769
1.5155272
1.5150579
1.5154951
1.5154295
1.515436
1.5154259
1.514964
1.5153885
1.5154009
1.5169359
1.5169871
1.523617
1.5236073
1.543355
1.5168615
1.5168439
1.5235277
1.5233153
1.5423028
1.5431611
1.5168031
1.5168037
1.5233981
1.523317
1.543064
1.5424974
1.5168827
1.5167912
1.5233063
1.523394
1.5423966
1.5426994
1.5608454
1.5608388
1.5826034
1.5831212
1.5606246
1.5607959
1.5828996
1.5824636
1.5591392
1.5594023
1.5807934
1.5807914
1.6011071
1.6016119
1.6256075
1.6262907
1.5993372
1.5992223
1.6237675
1.6232398
1.6207735
1.6450228
1.6467864
1.6232112
1.6423396
1.6435588
1.6192454
1.6181796
1.5598904
1.560199
1.5822077
1.5814977
1.5591982
1.5592495
1.5804252
1.5808618
1.5594426
1.5600144
1.5820763
1.5807486
1.5601044
1.5603815
1.581942
1.5819892
1.5991119
1.6008553
1.6232855
1.625679
1.6006467
1.6004418
1.6254184
1.6247391
1.6169532
1.6415152
1.6445403
1.6197405
1.642914
1.6429677
1.6164399
1.61752
1.6000223
1.6009473
1.6242215
1.6255187
1.5994329
1.5987357
1.6236614
1.6222286
1.6155404
1.6415742
1.6437269
1.6178906
1.6395084
1.6407235
1.6138615
1.6130608
1.5173487
1.5148804
1.5523575
1.5491577
1.5516434
1.5518592
1.5533224
1.5496557
1.5506643
1.5511937
1.5524612
1.5502954
1.5491536
1.5499518
1.5545965
1.5523534
1.5519019
1.552718
1.5531055
1.5508005
1.551377
1.5508722
1.55147
1.5497758
1.5481541
1.5490596
1.5219593
1.5216696
1.5218545
1.5217444
1.5222851
1.5224347
1.5225752
1.5224034
1.5218984
1.5216657
1.521846
1.5216766
1.5222811
1.5224247
1.5223417
1.522483
1.5232242
1.5229207
1.5230521
1.5230741
1.5238865
1.5236218
1.5238251
1.5240462
1.5229768
1.5230956
1.5229116
1.5230349
1.5238858
1.523611
1.5236689
1.5238607
1.5213507
1.5215322
1.5216219
1.5214155
1.5212517
1.5212786
1.5214598
1.5214456
1.5219242
1.5220793
1.5221966
1.5220225
1.5218339
1.5218444
1.5219985
1.5219998
1.5215262
1.5217104
1.5218322
1.5216286
1.5214255
1.5216114
1.5217194
1.5215065
1.5224246
1.5221269
1.5222792
1.5222586
1.5223133
1.5220135
1.5221674
1.5221347
1.5228001
1.5225255
1.5226596
1.5226487
1.5234392
1.5231846
1.5233476
1.5235648
1.5224388
1.5225793
1.5224328
1.5225631
1.5233433
1.5230792
1.5230935
1.5232953
1.5227523
1.5228876
1.5230504
1.5229044
1.5226213
1.5227559
1.522781
1.5228918
1.5236908
1.5238869
1.5234401
1.5236288
1.5234439
1.5233015
1.5235506
1.5236546
1.5207652
1.5204597
1.5207007
1.5205001
1.520429
1.5206684
1.5206774
1.5204114
1.5210452
1.5212615
1.5211217
1.5213262
1.5212543
1.5212647
1.5210129
1.5210218
1.5197248
1.5194668
1.5196928
1.5194868
1.5194332
1.5196543
1.5196374
1.5194017
1.5198959
1.5201553
1.5199331
1.5201894
1.5201266
1.5201104
1.5198513
1.5198341
1.5193328
1.5193137
1.5195225
1.5195405
1.5193723
1.519585
1.519596
1.5193739
1.5197752
1.5197636
1.5200072
1.5200159
1.5199672
1.5197108
1.5196936
1.5199349
1.5194145
1.5196348
1.5196621
1.5194318
1.5194037
1.5196168
1.519619
1.5193928
1.5198291
1.5200826
1.5201274
1.5198594
1.5197969
1.5200431
1.5200651
1.5198022
1.5203507
1.5205876
1.5206562
1.5204008
1.5202937
1.520524
1.5205707
1.5203205
1.5209174
1.521134
1.521225
1.5209951
1.5208365
1.5210485
1.5211198
1.5208878
1.5202531
1.5204762
1.5205066
1.5202619
1.5201715
1.5202056
1.5204256
1.5203961
1.5207779
1.5209859
1.5210418
1.5208139
1.5206868
1.5207198
1.5209232
1.5208977
1.5170801
1.5170797
1.5175249
1.5175249
1.5175401
1.5175269
1.5171044
1.5171037
1.5199004
1.5199155
1.5199958
1.5199736
1.5171145
1.5170892
1.5171154
1.5171144
1.5175535
1.5175553
1.5175599
1.5175486
1.5171072
1.5171062
1.5199326
1.5200091
1.5200256
1.5199494
1.5171175
1.5171241
1.5175392
1.5175491
1.5179178
1.5179069
1.5178985
1.5182219
1.5182356
1.5179131
1.517916
1.517546
1.5179232
1.5175437
1.5179148
1.5182443
1.5179125
1.5182349
1.5175126
1.5175215
1.5178868
1.5178956
1.5178922
1.5182083
1.5182159
1.5178788
1.5175273
1.5175243
1.517883
1.5178935
1.517886
1.5178814
1.5182075
1.5181943
1.5199801
1.519966
1.5200296
1.5200438
1.5200063
1.5199423
1.5199334
1.5199935
1.5219083
1.5176372
1.5176221
1.5171651
1.5171621
1.5200635
1.5201462
1.5201488
1.5202246
1.5171698
1.5171077
1.5171065
1.5175516
1.5175518
1.5175605
1.5175498
1.517119
1.5171191
1.5199529
1.5200329
1.5200187
1.5199453
1.5171148
1.517128
1.517539
1.5179113
1.5179199
1.5175463
1.5175476
1.5179165
1.5179085
1.5175457
1.5179043
1.5182327
1.518243
1.5179156
1.517906
1.5179093
1.5182344
1.5182231
1.5199915
1.5199886
1.5200479
1.5200532
1.5200829
1.5201621
1.5202322
1.5201586
1.5182087
1.5184547
1.5184615
1.5182175
1.5181969
1.518207
1.5184465
1.5184302
1.518715
1.5184669
1.518707
1.5184742
1.5184428
1.5186738
1.5184568
1.5186918
1.5184801
1.5182223
1.5184658
1.5182375
1.5184797
1.5187203
1.5187382
1.5184956
1.51848
1.5182436
1.5184892
1.5182368
1.5185004
1.5187408
1.5184939
1.518731
1.518984
1.5187581
1.5189591
1.5187789
1.5192763
1.5190325
1.5190613
1.5192922
1.5187682
1.518965
1.5187742
1.518972
1.5192765
1.5190382
1.519035
1.5192635
1.5187416
1.5189403
1.5189527
1.518751
1.5192455
1.5190072
1.5190215
1.5192477
1.5187233
1.5187087
1.5189166
1.5189009
1.5192124
1.5189668
1.5191911
1.518979
1.5182258
1.5182347
1.5184772
1.5184627
1.5184778
1.5187354
1.5187147
1.5184905
1.5187738
1.5187545
1.5189534
1.5189738
1.5190811
1.5193218
1.5191001
1.5193387
1.5192934
1.5190482
1.5190287
1.5192633
1.5221578
1.5221443
1.5220557
1.5220746
1.5200197
1.5200003
1.5200653
1.5200596
1.520045
1.5200339
1.5200931
1.5201024
1.5199997
1.5199896
1.5200628
1.5200741
1.5199583
1.5200342
1.5200278
1.5199618
1.5202613
1.520198
1.5201245
1.5201951
1.520094
1.5200791
1.5201293
1.5201384
1.5200903
1.5201665
1.5202489
1.520178
1.5200905
1.5200219
1.5200301
1.5200946
1.5233363
1.5231384
1.5223552
1.5224236
1.5223475
1.5222716
1.522705
1.5227556
1.522651
1.5225938
1.5188921
1.5186581
1.5188573
1.5186875
1.5189326
1.5191651
1.5192169
1.5189759
1.5186806
1.5188783
1.5186799
1.5188799
1.5189566
1.5191902
1.5189581
1.5191892
1.5181857
1.5184251
1.5184358
1.5181996
1.5181675
1.5181719
1.5184071
1.5183959
1.5186855
1.5184384
1.5186731
1.51845
1.5184115
1.5186396
1.51842
1.5186527
1.518381
1.5181264
1.5183642
1.5181434
1.5183784
1.5186143
1.518637
1.5183985
1.5183789
1.518141
1.5183821
1.5181411
1.5183967
1.518635
1.5183968
1.5186311
1.5187096
1.5189052
1.5189222
1.5187239
1.5186891
1.5188827
1.5186794
1.518871
1.5192118
1.519228
1.5189756
1.5189951
1.5189444
1.5189531
1.5191798
1.5191691
1.517064
1.5170623
1.5174843
1.5174837
1.517479
1.5174705
1.5170466
1.5170474
1.5198761
1.5198042
1.5198129
1.5198872
1.5170571
1.5170733
1.5175131
1.517526
1.5178738
1.5178863
1.5178826
1.5181836
1.5181956
1.5178648
1.5175064
1.5175076
1.5178562
1.517863
1.5178558
1.5178554
1.5181696
1.5181609
1.517832
1.5174684
1.5178223
1.5174766
1.5178121
1.5181252
1.5181389
1.5178266
1.5178246
1.517465
1.5178276
1.5174665
1.5178191
1.5181385
1.5178224
1.5181347
1.5171013
1.5171012
1.5175276
1.5175291
1.5175191
1.5175083
1.5170964
1.5170974
1.5198217
1.5198608
1.5199336
1.5198929
1.5171129
1.5171075
1.5198513
1.5198866
1.5199501
1.5199128
1.5198441
1.5198441
1.5199028
1.519908
1.5171819
1.5171857
1.5175991
1.517606
1.5177656
1.5177722
1.5173761
1.5173884
1.5198773
1.5197989
1.5198061
1.5198802
1.517389
1.5171923
1.5171414
1.5171411
1.5175598
1.5175618
1.5175521
1.5175437
1.5171337
1.5171346
1.5198941
1.5198204
1.5198052
1.5198778
1.5171456
1.5171518
1.5175435
1.5175562
1.5179078
1.5178939
1.5178834
1.5179033
1.5181914
1.5182079
1.5178865
1.5175377
1.517889
1.5175397
1.5181924
1.5178805
1.5178848
1.5181874
1.5199094
1.5198471
1.5198355
1.5198954
1.5198181
1.5198111
1.5198782
1.5198815
1.5179553
1.5175855
1.5179345
1.5176038
1.5182337
1.517926
1.5179545
1.5182566
1.5180934
1.517752
1.518076
1.5177732
1.5183536
1.5180676
1.5180956
1.5183708
1.518489
1.5182349
1.5184654
1.5182614
1.5184789
1.5187037
1.5187292
1.5185055
1.5183773
1.5185813
1.5183541
1.5185669
1.5185786
1.5187872
1.5185971
1.5187972
1.5189552
1.5187391
1.5189256
1.518768
1.5192149
1.5189924
1.5190255
1.5192335
1.5188322
1.5189968
1.5188191
1.5189905
1.5192558
1.5190507
1.519058
1.5192479
1.5184389
1.5181899
1.518422
1.5182091
1.5184334
1.5184526
1.5186616
1.518677
1.5184219
1.5181931
1.5184263
1.5181916
1.5186747
1.5184399
1.5184392
1.5186655
1.5189056
1.518695
1.5188847
1.5187131
1.5191784
1.5189504
1.5189753
1.5191917
1.5187071
1.5188973
1.5187129
1.5189049
1.5192096
1.5189773
1.5189728
1.5191941
1.5199173
1.5199401
1.5199973
1.5199677
1.5199277
1.5199348
1.5199815
1.5199758
1.5198768
1.5199422
1.5199394
1.5198708
1.5198665
1.5198983
1.5199751
1.5199407
1.5198998
1.5199137
1.5199665
1.5199527
1.5199363
1.5198675
1.5198539
1.5199248
1.5198909
1.519809
1.5198174
1.5198949
1.5199042
1.5198542
1.5198572
1.5199075
1.5213471
1.5215247
1.5216327
1.5214317
1.5213028
1.5212829
1.5214653
1.521486
1.5222116
1.5219251
1.5220744
1.522044
1.5218847
1.5220394
1.5218613
1.5220123
1.5217577
1.5213601
1.521543
1.5215669
1.5219472
1.5221003
1.5223356
1.5221845
1.5216214
1.5214079
1.5215838
1.521407
1.5219926
1.5221331
1.522035
1.5221747
1.522529
1.5226609
1.5228219
1.5226755
1.5234533
1.5233854
1.5231968
1.5236068
1.5224591
1.5224895
1.522589
1.5226217
1.5233987
1.523152
1.5233603
1.5231227
1.5229497
1.5225616
1.5226985
1.5228163
1.52346
1.5232322
1.5235218
1.5236999
1.5226382
1.5227588
1.5225929
1.5227159
1.5235371
1.5232664
1.5233062
1.5235108
1.5227574
1.5224278
1.5225619
1.5226121
1.5230845
1.5232744
1.5235596
1.5233159
1.5226152
1.5227282
1.5225527
1.5226719
1.5232234
1.5234583
1.5232749
1.5234876
1.5211733
1.5213349
1.521389
1.521206
1.520929
1.5209953
1.5211497
1.521093
1.5219134
1.5217042
1.5218411
1.5217565
1.521416
1.5215613
1.5214828
1.521616
1.5215456
1.5212323
1.5214072
1.5213504
1.5217909
1.5219406
1.5221078
1.5219454
1.5215796
1.5213475
1.5215185
1.521378
1.5219178
1.5220548
1.5219829
1.5221138
1.522262
1.52238
1.5224679
1.5223305
1.5219958
1.5221079
1.5219297
1.522055
1.5204496
1.5201596
1.5203757
1.5202142
1.5206716
1.5208747
1.520977
1.520759
1.5204968
1.5202374
1.5204598
1.5202557
1.5207762
1.5209736
1.5208138
1.5210054
1.5192903
1.5194936
1.5195192
1.519306
1.5193308
1.5195381
1.5195361
1.5193161
1.5196655
1.5198992
1.5199444
1.519696
1.5197221
1.51996
1.5199759
1.5197215
1.5193261
1.5195221
1.5195472
1.519345
1.5193455
1.519356
1.5195353
1.519519
1.5196901
1.5199128
1.5199479
1.5197158
1.5196632
1.5196862
1.5198903
1.5198613
1.5201417
1.5203435
1.5203921
1.5201778
1.520056
1.5200952
1.5202778
1.5202354
1.5208326
1.5208675
1.5206207
1.5206711
1.5204687
1.5205243
1.5206927
1.52064
1.5205998
1.5202207
1.5204506
1.5203537
1.520767
1.5209805
1.5211608
1.5209422
1.520273
1.5205004
1.5202577
1.5204889
1.520815
1.5210206
1.5208228
1.5210235
1.5193308
1.5195411
1.5195688
1.5193489
1.5192968
1.5195071
1.519511
1.5192885
1.5200095
1.5197225
1.5199635
1.5197541
1.519952
1.5196863
1.5199288
1.5196934
1.5195807
1.5192878
1.5195045
1.5193519
1.5196915
1.51994
1.5200488
1.519785
1.5195457
1.5193153
1.519532
1.519317
1.5197225
1.519971
1.5197396
1.5199848
1.5202124
1.5204341
1.5205072
1.5202659
1.5201766
1.5204022
1.5202046
1.520427
1.5209733
1.5210466
1.5207388
1.5208247
1.5207334
1.5207083
1.5209148
1.5209361
1.5216175
1.5217269
1.5216833
1.5215891
1.5216242
1.5216175
1.5215242
1.5215288
1.5215879
1.521529
1.5206191
1.5206878
1.5205506
1.5206109
1.5209158
1.5210297
1.5209683
1.5208426
1.5208057
1.5209391
1.5209417
1.5208036
1.5205813
1.520572
1.5205064
1.520518
1.5203065
1.5202564
1.5202399
1.5201826
1.5204063
1.5204318
1.5203391
1.5203568
1.5203378
1.5203216
1.520302
1.5203187
1.5201741
1.5201551
1.520196
1.5202109
1.5201461
1.5200949
1.5201095
1.5201578
1.5202465
1.5202689
1.5202843
1.5202615
1.5202592
1.5202319
1.5202154
1.5202373
1.520112
1.5200679
1.5200936
1.5201321
1.5204588
1.5205239
1.5205332
1.5204699
1.5207523
1.5208839
1.5208926
1.520758
1.520882
1.5208819
1.520731
1.5207391
1.5204245
1.5204994
1.520517
1.5204493
1.521515
1.5214422
1.521353
1.5214237
1.5215378
1.5215328
1.5214414
1.5214434
1.5214437
1.5213649
1.5208048
1.520815
1.5206636
1.5206852
1.5208013
1.5207967
1.5206527
1.5206586
1.5204336
1.5204296
1.5203647
1.520364
1.5204656
1.5203932
1.5203628
1.5204406
1.5201796
1.5201833
1.520163
1.5201569
1.5200078
1.5200165
1.5200506
1.5200435
1.5200535
1.5200105
1.5199937
1.5200315
1.5201669
1.5202044
1.5201747
1.5201484
1.5200694
1.520086
1.5200631
1.5200494
1.5201467
1.5201619
1.5201389
1.5201206
1.5200265
1.5199918
1.5199697
1.5200107
1.5199121
1.519919
1.519962
1.5199579
1.5206933
1.5207482
1.5205952
1.52055
1.5207879
1.5207912
1.5206508
1.5206465
1.5204267
1.5203559
1.5203424
1.5204223
1.5203272
1.5203622
1.5202859
1.5202593
1.5149113
1.5150047
1.5178797
1.5178788
1.5178905
1.5178899
1.5179144
1.5179184
1.5179027
1.5179064
1.5179501
1.5179668
1.5179966
1.5179799
1.5178661
1.5178546
1.5178069
1.5178177
1.5178378
1.5178396
1.5177931
1.5177909
1.517703
1.5177343
1.5177093
1.5177454
1.5178441
1.5178537
1.5178335
1.5178417
1.5179347
1.5178275
1.5178093
1.5179172
1.5178061
1.5177896
1.5177371
1.5177557
1.517599
1.5176692
1.5177223
1.5176658
1.5177184
1.5177599
1.5177811
1.5177347
1.5177609
1.5178113
1.5177992
1.5178528
1.5178941
1.517858
1.5178801
1.5178688
1.5179634
1.5179129
1.5179282
1.5179751
1.5180298
1.5179998
1.5179839
1.518014
1.51797
1.5178632
1.5178465
1.5179531
1.5179309
1.517906
1.5179295
1.5179052
1.518016
1.5179638
1.5179654
1.5180128
1.5179596
1.5179297
1.5179534
1.5179336
1.5180417
1.5179883
1.5179948
1.5180438
1.5181498
1.5182417
1.5182299
1.5181335
1.5181551
1.5181563
1.5182423
1.5182385
1.5185097
1.5183618
1.5185137
1.5183469
1.5183482
1.5184879
1.518355
1.5184984
1.5182493
1.5181453
1.5182354
1.51815
1.5183533
1.5185025
1.5185366
1.5183696
1.5182387
1.5181443
1.5182346
1.5181406
1.5183529
1.5185031
1.5183581
1.5185098
1.5190013
1.5186921
1.5189277
1.5187331
1.5196167
1.5192235
1.5193121
1.5196884
1.5187032
1.5189442
1.5186941
1.5189325
1.5196313
1.5192322
1.5192464
1.5196133
1.5179292
1.517926
1.5179411
1.5179376
1.5179676
1.5179718
1.517956
1.5179599
1.517989
1.5180038
1.5180374
1.5180237
1.5179242
1.5179114
1.5178681
1.5178798
1.5178821
1.5178892
1.5178491
1.5178408
1.5179319
1.5179301
1.5179437
1.5179418
1.5179449
1.5179427
1.5179328
1.5179309
1.5179927
1.518008
1.5180167
1.5180008
1.5178897
1.51789
1.5178467
1.5178444
1.5178912
1.5178939
1.5178521
1.5178485
1.5179579
1.5179538
1.5179831
1.517978
1.5180131
1.5180742
1.5180615
1.5180194
1.5179827
1.5179867
1.5180092
1.5180058
1.5180396
1.5180419
1.5180864
1.5180872
1.5179851
1.5179603
1.5179854
1.5179581
1.5180217
1.5180715
1.5180754
1.5180211
1.5179838
1.517961
1.5179855
1.5179579
1.5180212
1.5180706
1.518019
1.5180677
1.5180237
1.5180387
1.5180491
1.5180336
1.5180638
1.5180329
1.5180189
1.5180514
1.5181694
1.5180815
1.5181676
1.5180769
1.5182805
1.5184237
1.5184389
1.5182821
1.5181103
1.5181982
1.5181088
1.5181974
1.5183135
1.518461
1.5183135
1.5184601
1.5179899
1.5178526
1.517924
1.5179088
1.5180189
1.5180891