/*--------------------------------*- C++ -*----------------------------------*\
  =========                 |
  \\      /  F ield         | OpenFOAM: The Open Source CFD Toolbox
   \\    /   O peration     | Website:  https://openfoam.org
    \\  /    A nd           | Version:  7
     \\/     M anipulation  |
\*---------------------------------------------------------------------------*/
FoamFile
{
    version     2.0;
    format      ascii;
    class       volScalarField;
    location    "2000";
    object      nut;
}
// * * * * * * * * * * * * * * * * * * * * * * * * * * * * * * * * * * * * * //

dimensions      [0 2 -1 0 0 0 0];

internalField   nonuniform List<scalar> 
34251
(
2.4559845e-13
1.2560269e-12
1.1093067e-13
1.5919279e-14
1.0268699e-13
2.1361967e-14
3.0680342e-15
7.4055572e-15
9.4372157e-15
1.4580677e-14
5.6566835e-13
1.4055553e-14
4.7569699e-13
6.166281e-14
7.1059068e-14
5.2589574e-14
2.4063505e-14
5.6024729e-14
5.6287949e-14
2.4470748e-14
2.5150719e-14
6.314866e-15
3.6160405e-15
3.8644727e-15
5.0295809e-15
3.8748557e-15
5.153415e-15
3.8491904e-15
5.5454176e-15
1.4640418e-15
1.3833378e-15
1.4614406e-15
1.4806652e-15
1.0922052e-14
1.3319329e-14
1.3154196e-14
1.1383877e-14
7.2873908e-15
6.9809591e-15
4.3496854e-14
5.9512161e-15
4.7826785e-15
3.5291887e-14
2.9952878e-14
2.9347387e-14
2.6815543e-13
3.0235329e-13
5.210023e-15
4.7774152e-15
3.4822357e-14
4.2785818e-14
2.5412836e-14
2.6888603e-14
2.1923238e-13
2.6223585e-13
1.3576148e-14
2.6577245e-14
1.5576936e-14
2.645595e-14
1.659212e-14
2.5165987e-14
1.498015e-14
1.4051245e-14
2.4291029e-14
1.5668766e-14
2.6296511e-14
2.3874547e-14
1.6079849e-14
1.3814818e-14
8.2456663e-15
7.7068848e-15
8.7816464e-15
9.2512159e-15
3.9959535e-15
4.0888974e-15
5.1669853e-15
5.948086e-15
1.5883068e-15
6.545841e-15
4.2114481e-15
4.2049228e-15
5.5144552e-15
1.4999324e-15
8.1900229e-15
7.0589816e-15
8.0834202e-15
7.989568e-15
1.625839e-15
1.6560879e-15
3.3246598e-15
3.3560576e-15
3.7311406e-15
2.132934e-15
3.627716e-15
4.4139441e-15
4.3798978e-15
4.0343863e-15
3.2450291e-15
3.1953284e-15
3.454898e-15
3.5407151e-15
1.9490255e-15
4.6342652e-15
4.4572222e-15
4.3355868e-15
4.3293115e-15
2.2848359e-15
2.2830746e-15
2.1822803e-15
1.9745703e-15
3.6527959e-15
4.6196911e-15
6.0008915e-15
9.8355048e-16
1.5306191e-15
1.0793046e-15
9.9796024e-16
1.6454514e-15
9.7898817e-16
1.6168676e-15
1.075628e-15
3.248679e-15
3.0139544e-15
1.135978e-14
1.1199485e-14
1.0618034e-14
1.0355188e-14
1.090555e-14
9.9882257e-15
5.7777925e-15
4.8161008e-15
9.3825521e-15
6.0887195e-15
5.0021583e-15
9.0739013e-15
1.4138251e-14
1.5220494e-14
2.7168423e-14
2.4529392e-14
1.4872602e-14
1.4402006e-14
2.5602872e-14
2.5572755e-14
2.5195021e-14
1.304762e-13
1.1357928e-13
2.367182e-14
2.69978e-14
2.7408019e-14
1.3114018e-13
4.8510651e-15
6.0559781e-15
9.8305545e-15
9.1344139e-15
1.5591137e-14
1.4992644e-14
2.5132172e-14
2.5172342e-14
2.725081e-14
1.587398e-14
1.4622197e-14
2.4365928e-14
2.3621614e-14
2.5155691e-14
1.2709572e-13
2.7323241e-14
2.7008179e-14
1.3320387e-13
1.3199477e-13
1.1057251e-14
1.1291039e-14
8.3976457e-15
8.546993e-15
1.1369415e-14
1.1485195e-14
9.5139909e-15
1.0065308e-14
9.5682194e-15
1.1963884e-14
1.0979535e-14
8.5053418e-15
1.2501938e-14
1.1294788e-14
1.0487809e-14
9.5174824e-15
1.1535967e-14
1.128352e-14
9.7022126e-15
9.2779321e-15
1.1671854e-14
1.0539717e-14
9.0525367e-15
8.0307829e-15
1.9265326e-15
9.0062515e-15
7.6446735e-15
8.2426637e-15
7.920577e-15
6.6652458e-15
7.3863176e-15
6.2997328e-15
6.2788586e-15
5.9738691e-15
5.9243031e-15
6.1354923e-15
5.9042821e-15
3.1070672e-15
3.0688402e-15
3.4235395e-15
3.3499613e-15
2.0599553e-15
3.3488148e-15
3.3271268e-15
3.5883424e-15
2.2826697e-15
4.1732914e-15
4.1257743e-15
4.0010794e-15
3.9018405e-15
4.6168246e-15
4.3829392e-15
2.5114199e-15
2.4871815e-15
4.6245044e-15
4.5705963e-15
4.7294065e-15
4.1090535e-15
3.3420781e-15
3.6162809e-15
3.7949208e-15
3.2245055e-15
2.1674251e-15
3.036817e-15
3.2490659e-15
3.6140911e-15
2.0318638e-15
3.3897646e-15
4.1573004e-15
3.903186e-15
4.2583785e-15
4.1946941e-15
2.2853122e-15
2.2332947e-15
9.3100024e-15
9.0313889e-15
8.1035468e-15
8.8097156e-15
8.370331e-15
8.3514613e-15
8.5547099e-15
6.9777199e-15
6.546947e-15
6.1503243e-15
5.916987e-15
5.8494876e-15
6.3132891e-15
5.9121293e-15
6.1700404e-15
5.7888538e-15
1.0615579e-15
1.6060709e-15
1.1312489e-15
1.0567782e-15
1.7591335e-15
1.0369731e-15
1.7940978e-15
1.1173213e-15
1.0576166e-15
1.6747001e-15
3.610716e-15
3.2773926e-15
2.3224247e-15
2.3536127e-15
2.6362882e-15
2.7122518e-15
2.7247956e-15
2.1132664e-15
2.1893874e-15
2.7686024e-15
2.5116247e-15
2.4070914e-15
3.0539362e-15
3.0321957e-15
3.2626653e-15
3.1536864e-15
3.1400443e-15
2.9462278e-15
3.2981666e-15
3.2531719e-15
3.4363349e-15
3.2556248e-15
4.780347e-15
4.6690572e-15
4.5213088e-15
4.3063381e-15
4.6251724e-15
4.3550692e-15
4.6416555e-15
4.2677207e-15
5.152355e-15
4.2045721e-15
5.1867354e-15
4.1658152e-15
2.3296604e-15
2.3168028e-15
2.2273251e-15
2.6670722e-15
2.7013675e-15
2.2473917e-15
2.2254655e-15
2.2861339e-15
2.5101675e-15
2.6062172e-15
3.2936246e-15
3.2501047e-15
3.3279849e-15
3.1406638e-15
3.2441888e-15
3.2275152e-15
3.3219961e-15
3.2086524e-15
2.380516e-15
2.5980204e-15
4.7483388e-15
4.4667573e-15
4.8089811e-15
4.4067642e-15
4.2991801e-15
4.0641278e-15
4.5018559e-15
4.1276141e-15
4.9600556e-15
4.1270507e-15
5.1862176e-15
4.1977385e-15
5.33029e-15
4.3550925e-15
5.368054e-15
4.2808481e-15
2.3395827e-15
2.5845282e-15
3.0054661e-15
2.7021008e-15
2.1962308e-15
2.3494096e-15
2.1574722e-15
2.4290862e-15
2.4372137e-15
2.5344312e-15
3.5913312e-15
3.0724248e-15
3.0354445e-15
3.1117449e-15
2.727397e-15
2.9433885e-15
2.2110679e-15
2.707646e-15
3.1129535e-15
2.6668991e-15
2.6861729e-15
3.0810776e-15
3.0958556e-15
3.8072875e-15
3.7687718e-15
3.9452673e-15
5.3267615e-15
4.8483075e-15
4.2544671e-15
5.0371809e-15
5.6667786e-16
5.6988735e-16
8.3086884e-16
8.234952e-16
8.7571275e-16
8.5283819e-16
5.3981387e-16
5.7479537e-16
1.1176137e-15
1.1603796e-15
1.1498559e-15
9.7505024e-16
1.0165255e-15
1.1054404e-15
1.0668402e-15
8.7634943e-16
7.9118578e-16
8.3957511e-16
5.268792e-16
5.4720065e-16
9.5856375e-16
5.6297386e-16
9.0765148e-16
8.6371856e-16
8.7458894e-16
5.4891206e-16
5.647402e-16
1.4517355e-15
1.4092865e-15
1.15318e-15
1.0802836e-15
1.1100521e-15
8.9829713e-16
6.9059208e-16
6.4005695e-16
6.3554462e-15
6.1697896e-15
6.7978019e-15
6.9213049e-15
6.9589041e-15
6.5700808e-15
6.9262477e-15
6.6324778e-15
6.6440621e-15
6.289671e-15
6.7045365e-15
6.3160203e-15
8.5019836e-15
7.1492114e-15
2.5471534e-14
1.8150174e-14
1.7462227e-14
1.2808322e-14
7.7066738e-15
2.3147887e-14
1.9285099e-14
1.7743467e-14
9.612552e-15
9.7385757e-15
9.2738559e-15
9.7590145e-15
1.4138265e-14
1.2921885e-14
1.0133965e-14
1.0414391e-14
9.4479298e-15
9.791985e-15
2.5715961e-14
2.6543107e-14
8.4950399e-15
9.5159135e-15
2.2815431e-14
2.592871e-14
9.5753371e-15
1.3679362e-14
1.3463096e-14
1.0038419e-14
1.3900294e-14
1.4033282e-14
9.4794772e-15
1.0138794e-14
1.3964338e-14
1.3089592e-14
1.0189962e-14
8.5076918e-15
9.2743752e-15
2.4507231e-14
2.2594752e-14
8.4514762e-15
9.0362883e-15
2.6774877e-14
1.8561905e-14
1.7568433e-14
1.9523937e-14
1.7134724e-14
1.9390837e-14
9.5234877e-15
9.7253048e-15
9.647125e-15
9.6319033e-15
1.3694921e-14
1.3633628e-14
1.0092459e-14
1.0225641e-14
1.05137e-14
1.3051557e-14
1.4223424e-14
9.5838231e-15
9.9511705e-15
2.5402483e-14
2.6403301e-14
1.0281537e-14
1.0448254e-14
1.290461e-14
1.4036153e-14
9.6610656e-15
1.0127065e-14
1.3968781e-14
1.4074117e-14
8.6881521e-15
9.5679294e-15
2.2637382e-14
2.5118638e-14
9.61251e-15
9.8148836e-15
2.5798482e-14
2.6102967e-14
1.6892383e-15
7.059567e-15
7.3076231e-15
2.7334645e-15
3.0186293e-15
7.2727322e-15
7.8780191e-15
3.0429715e-15
2.8715763e-15
8.188514e-15
7.7107019e-15
2.9048877e-15
3.1990641e-15
7.8155633e-15
9.7175153e-15
3.3047506e-15
3.0416503e-15
7.4527916e-15
8.0052489e-15
2.9192795e-15
2.9755867e-15
7.1476368e-15
8.451922e-15
3.0103897e-15
2.759644e-15
8.4493785e-15
8.1847608e-15
3.1441867e-15
3.2754012e-15
7.7555279e-15
9.5071668e-15
3.3252837e-15
3.0432603e-15
7.8789996e-15
7.553345e-15
2.8860523e-15
3.145543e-15
7.5911779e-15
8.7871124e-15
3.1150624e-15
2.9288404e-15
7.6003654e-15
7.666181e-15
2.9009192e-15
2.9773273e-15
6.9152758e-15
8.2274555e-15
2.9698403e-15
2.7259874e-15
1.9626674e-15
4.9149069e-15
4.3473469e-15
4.943945e-15
4.1519945e-15
4.8999408e-15
3.4329749e-15
4.9015448e-15
3.2640876e-15
4.7590419e-15
4.73755e-15
4.4154076e-15
4.1066005e-15
4.7564578e-15
4.7076164e-15
4.3733492e-15
4.1130397e-15
4.8088074e-15
3.3355858e-15
4.8634281e-15
3.1610911e-15
4.9203393e-15
5.0307595e-15
3.5051401e-15
3.3415898e-15
4.9344379e-15
4.9607354e-15
3.7163558e-15
3.6206364e-15
5.3447488e-15
5.2473247e-15
4.5874666e-15
4.4459139e-15
4.8906188e-15
4.957594e-15
4.3801876e-15
4.2083971e-15
4.9240206e-15
4.8124183e-15
4.3082233e-15
4.1169981e-15
4.6769358e-15
4.6435514e-15
3.6827104e-15
3.5435187e-15
4.5800065e-15
4.569254e-15
3.5641535e-15
3.4236256e-15
2.2541815e-15
2.2858785e-15
2.2233324e-15
2.5882547e-15
2.4890355e-15
2.1912989e-15
2.0956212e-15
2.23375e-15
2.388796e-15
2.429104e-15
3.1654537e-15
3.1310586e-15
3.0940264e-15
3.0316269e-15
3.1864215e-15
3.1201782e-15
3.2540272e-15
3.0677854e-15
2.3347535e-15
2.5426372e-15
2.1158669e-15
2.813981e-15
2.3882327e-15
2.3995224e-15
2.4024408e-15
2.3495679e-15
2.6756617e-15
2.7161556e-15
2.7159653e-15
3.4110721e-15
3.3973588e-15
3.3576921e-15
3.2633774e-15
3.0876965e-15
2.9460861e-15
4.4763926e-15
4.4509602e-15
4.2389016e-15
4.1026478e-15
4.4044352e-15
4.1567278e-15
4.3036901e-15
3.9765997e-15
5.0175668e-15
4.1588238e-15
4.915843e-15
3.9997256e-15
4.9935949e-15
4.1105379e-15
4.9198625e-15
3.9630917e-15
4.7407221e-15
4.3596059e-15
5.2820601e-15
4.409358e-15
4.2092185e-15
2.1085057e-15
2.1353819e-15
2.1208969e-15
2.1689452e-15
2.4401067e-15
2.4800691e-15
2.3604981e-15
3.1899691e-15
2.7647356e-15
1.0573716e-15
1.7856525e-15
5.5244493e-15
4.4262524e-15
5.5059125e-15
4.3478299e-15
4.4365094e-15
4.5453737e-15
4.1350661e-15
4.1243913e-15
4.9298505e-15
4.5953953e-15
4.8789068e-15
4.460984e-15
4.8715884e-15
4.9340914e-15
3.9957506e-15
3.9121295e-15
2.5269695e-15
2.4786736e-15
2.7990767e-15
2.811136e-15
2.9100756e-15
3.2048606e-15
3.0559013e-15
3.4245318e-15
3.1178479e-15
3.575523e-15
3.5029342e-15
3.6106318e-15
3.434509e-15
2.242067e-15
2.3636061e-15
2.5628355e-15
2.5095003e-15
2.7197615e-15
2.7706625e-15
3.0688165e-15
2.2067529e-15
2.1292628e-15
2.1706079e-15
2.4051113e-15
2.5250337e-15
2.2773574e-15
2.3349919e-15
2.4762546e-15
2.6484054e-15
2.6429912e-15
3.2464712e-15
3.2204975e-15
3.4363434e-15
3.2962151e-15
2.7034455e-15
2.8013866e-15
3.1509815e-15
3.1152894e-15
3.1054115e-15
2.9701681e-15
4.4762397e-15
4.2317419e-15
4.2928414e-15
3.9679698e-15
5.0041915e-15
4.1225665e-15
4.7728722e-15
3.8271923e-15
4.5065913e-15
4.2745119e-15
4.6718968e-15
4.292998e-15
5.1457027e-15
4.2952595e-15
5.3277401e-15
4.3051917e-15
2.4526403e-15
2.5098167e-15
3.0376609e-15
2.7532727e-15
2.3121565e-15
2.8002129e-15
2.8865107e-15
2.3124441e-15
4.8358312e-15
4.8626514e-15
4.500804e-15
4.2021327e-15
4.9039251e-15
4.3992208e-15
4.9370227e-15
4.206304e-15
5.0462068e-15
3.465316e-15
5.0983443e-15
3.2741771e-15
5.1011364e-15
3.6420961e-15
5.3619192e-15
3.5629512e-15
4.975618e-15
3.4057886e-15
5.2450938e-15
3.3103407e-15
4.6730274e-15
4.4405858e-15
4.3851687e-15
3.8931527e-15
4.7503267e-15
4.316894e-15
4.8678559e-15
4.141845e-15
4.8584629e-15
4.7506069e-15
4.8060279e-15
3.756841e-15
4.9551749e-15
3.7227161e-15
4.9753302e-15
5.1230337e-15
4.3859135e-15
4.3354846e-15
4.9665474e-15
4.7208916e-15
4.3614422e-15
4.0046823e-15
4.5784319e-15
4.3582387e-15
3.543873e-15
3.2576277e-15
5.0065135e-15
3.8246132e-15
5.0359465e-15
3.7227038e-15
4.9884795e-15
5.0275957e-15
4.3522772e-15
4.2275567e-15
5.2376067e-15
4.5164552e-15
5.2180362e-15
4.3860989e-15
4.6513809e-15
4.6720741e-15
3.6226366e-15
3.4851167e-15
5.8438277e-16
5.766678e-16
8.4466183e-16
8.0408129e-16
6.2175945e-16
9.7295216e-16
8.5125602e-16
5.5637885e-16
1.2336394e-15
1.395179e-15
1.1499338e-15
1.0138872e-15
9.7993961e-16
1.1427508e-15
1.1563118e-15
9.2556362e-16
5.7787663e-16
9.1228801e-16
8.4331091e-16
5.5147379e-16
5.4763332e-16
5.6212489e-16
9.5103428e-16
9.2026818e-16
9.3989453e-16
8.3762147e-16
5.5969904e-16
5.5502809e-16
1.1274418e-15
1.0650133e-15
1.1035351e-15
1.2277464e-15
1.2373571e-15
1.2375763e-15
1.0052947e-15
1.0059078e-15
8.1612421e-16
8.5274764e-16
5.6433714e-16
5.7358429e-16
7.4782401e-16
6.8033713e-16
1.0649041e-14
1.0576877e-14
7.2363238e-15
7.2675106e-15
7.4261007e-15
7.4258818e-15
1.1362764e-14
1.1241272e-14
1.7725473e-15
1.9122107e-15
1.9575831e-15
1.7206357e-15
5.8068809e-15
5.8277084e-15
9.7889841e-15
9.6463181e-15
6.3891792e-15
6.4286481e-15
6.8912474e-15
6.9403676e-15
1.0593715e-14
1.0746535e-14
1.8559439e-15
1.7887701e-15
1.6027188e-15
1.6559348e-15
5.6242282e-15
5.1414329e-15
5.4726746e-15
5.3970562e-15
4.4555592e-15
4.5515054e-15
4.6717422e-15
4.6243326e-15
3.62808e-15
3.5882626e-15
4.8960209e-15
5.918436e-15
4.9390364e-15
5.8773563e-15
3.877788e-15
5.0129129e-15
5.0259816e-15
3.824938e-15
1.6724292e-15
1.773372e-15
1.6726609e-15
1.6405241e-15
1.6404914e-15
1.5696239e-15
1.5321229e-15
1.5724147e-15
5.1973351e-15
6.2959054e-15
5.2543479e-15
6.2872003e-15
4.1901701e-15
5.3863673e-15
5.3437236e-15
4.1131055e-15
5.3023505e-15
6.3605332e-15
5.4182071e-15
6.253895e-15
4.2838122e-15
5.4787273e-15
5.4288931e-15
4.1759511e-15
4.637404e-15
3.9989952e-15
4.0039316e-15
4.5636321e-15
4.5677316e-15
4.6456263e-15
4.047176e-15
3.9471484e-15
3.033657e-15
3.8589767e-15
3.0753847e-15
3.9026012e-15
3.8089937e-15
2.9735278e-15
3.8668875e-15
3.0449711e-15
3.9253266e-15
4.4548365e-15
3.8544904e-15
4.4610591e-15
3.7316438e-15
2.95704e-15
2.9421995e-15
3.8490118e-15
3.9821843e-15
4.5643283e-15
3.93608e-15
4.5693723e-15
3.7923913e-15
2.9885356e-15
3.8427051e-15
2.9286647e-15
2.8851958e-15
3.2761106e-15
2.9390468e-15
3.2894721e-15
2.4498695e-15
2.9952204e-15
2.9843747e-15
2.3988515e-15
3.3451202e-15
2.9557715e-15
3.3668479e-15
3.0030591e-15
2.4518857e-15
3.0170372e-15
3.0048932e-15
2.4196097e-15
1.0932416e-14
1.0941724e-14
7.379231e-15
7.4396615e-15
7.2583054e-15
7.2855836e-15
1.1059583e-14
1.128328e-14
1.743773e-15
1.8743967e-15
1.9192142e-15
1.6800929e-15
5.7505911e-15
5.9943892e-15
1.0528965e-14
1.033854e-14
6.9668243e-15
7.0298256e-15
7.1446019e-15
7.1724448e-15
1.0901846e-14
1.1010088e-14
1.6931799e-15
1.8689673e-15
1.8197336e-15
1.6330191e-15
5.72551e-15
5.4829708e-15
6.4182681e-15
6.3700712e-15
5.3486079e-15
5.2408268e-15
5.4011928e-15
4.2518447e-15
4.1740796e-15
5.4609548e-15
6.2316015e-15
6.0985809e-15
5.157148e-15
5.3004435e-15
5.3394267e-15
5.2463432e-15
4.1626105e-15
4.0504036e-15
4.9930309e-15
6.0749474e-15
5.0559519e-15
6.0350162e-15
5.1990223e-15
4.0540173e-15
4.0236942e-15
5.1719598e-15
5.116354e-15
6.1367813e-15
5.1872309e-15
6.0556626e-15
5.2419303e-15
4.0755419e-15
5.2384985e-15
4.0150686e-15
1.6376913e-15
1.6723253e-15
1.5708472e-15
1.5268434e-15
1.6737259e-15
1.7578573e-15
1.6639849e-15
1.654748e-15
3.8833377e-15
4.5544576e-15
3.9349767e-15
4.5156924e-15
3.8731632e-15
3.0615994e-15
3.0467063e-15
3.8629755e-15
4.7075961e-15
4.0439701e-15
4.7772053e-15
4.1413238e-15
4.0097671e-15
3.1567741e-15
3.9649696e-15
3.0993629e-15
3.3786753e-15
3.9713636e-15
3.4148838e-15
3.9589568e-15
3.3533755e-15
3.3749825e-15
2.6347145e-15
2.6322539e-15
3.671073e-15
4.3426235e-15
3.6974308e-15
4.3281773e-15
2.8244362e-15
3.6099246e-15
3.6233707e-15
2.7935219e-15
2.5595273e-15
2.8963428e-15
2.5706593e-15
2.9125605e-15
2.6360696e-15
2.6756112e-15
2.1589553e-15
2.1682063e-15
3.164943e-15
2.7726337e-15
3.1700326e-15
2.793424e-15
2.2982264e-15
2.8312483e-15
2.8431511e-15
2.2812309e-15
2.9517747e-15
3.351205e-15
2.9938757e-15
3.3427803e-15
2.5001338e-15
3.0498896e-15
3.0689937e-15
2.4784173e-15
3.4871841e-15
3.1020224e-15
3.5178797e-15
3.1583945e-15
2.5937838e-15
3.1774172e-15
3.1650349e-15
2.5557309e-15
1.154778e-15
1.348278e-15
1.2499795e-15
1.329069e-15
1.3318748e-15
1.2497179e-15
1.2577836e-15
1.3517123e-15
1.4645275e-15
1.3690907e-15
1.2558278e-15
1.303935e-15
1.3793133e-15
1.4557173e-15
1.4949116e-15
1.3162944e-15
1.2241678e-15
1.3497561e-15
1.31277e-15
1.3324705e-15
1.1910828e-15
1.1915168e-15
1.223761e-15
1.198104e-15
1.2298287e-15
1.3171661e-15
1.3209373e-15
1.1904593e-15
1.3468262e-15
1.450473e-15
1.4760328e-15
1.2913792e-15
1.3398842e-15
1.3061095e-15
1.4111606e-15
1.3511866e-15
1.3801751e-15
1.2894188e-15
1.4011179e-15
1.3739869e-15
1.5280698e-15
1.6339321e-15
1.5507123e-15
1.4653195e-15
1.5315782e-15
1.6406541e-15
1.467148e-15
1.4185074e-15
2.0986491e-15
2.2360863e-15
2.1160193e-15
1.9652462e-15
1.8496684e-15
1.8257995e-15
1.7746278e-15
1.7716179e-15
2.0411793e-15
2.2489474e-15
2.1211101e-15
1.9283999e-15
1.8491865e-15
1.8338466e-15
1.7525232e-15
1.7593477e-15
1.2006125e-15
1.1506413e-15
1.2445265e-15
1.2565212e-15
1.2219842e-14
1.1994214e-14
8.1955467e-15
8.1967577e-15
6.2755615e-15
1.1519029e-14
1.1431681e-14
7.7126714e-15
7.8386182e-15
7.9847798e-15
8.0537373e-15
1.2488176e-14
1.2600443e-14
6.286924e-15
5.9622868e-15
5.5810283e-15
6.6690437e-15
5.5962019e-15
6.6741167e-15
5.7488815e-15
5.8011576e-15
4.5004514e-15
4.4943442e-15
5.7408459e-15
6.8183647e-15
5.7788144e-15
6.7618129e-15
2.3509147e-15
2.6109942e-15
2.3710153e-15
2.5998113e-15
2.0508627e-15
2.2636143e-15
2.044766e-15
2.2930742e-15
2.0282173e-15
2.0810007e-15
1.6451536e-15
1.6686594e-15
2.2022432e-15
2.4668761e-15
2.2187565e-15
2.4727314e-15
2.2618413e-16
2.2406966e-16
3.491144e-16
3.4249585e-16
2.2828449e-16
2.2840859e-16
3.3575792e-16
3.3931472e-16
5.3617681e-16
5.4890193e-16
4.6479306e-16
6.6374642e-16
5.5904933e-16
5.3894766e-16
5.0223736e-16
5.7581146e-16
5.4219232e-16
5.6096298e-16
4.6569494e-16
4.9997755e-16
5.1647093e-16
4.768276e-16
4.9968855e-16
5.5410403e-16
5.7513563e-16
5.1955964e-16
1.2070138e-15
1.4430944e-15
1.2061555e-15
1.0874984e-15
1.2983995e-15
1.102509e-15
1.0299846e-15
1.1609228e-15
9.330054e-16
1.0153136e-15
1.1409889e-15
1.0437384e-15
1.0611019e-15
1.1221648e-15
1.0429749e-15
9.5867415e-16
9.7549272e-16
1.1726833e-15
1.0863534e-15
9.5382914e-16
1.3174765e-15
1.0139999e-15
9.3097658e-16
1.0571121e-15
9.5649534e-16
1.0321366e-15
1.1671452e-15
1.0947244e-15
1.0507958e-15
1.0714967e-15
1.0408201e-15
9.6621617e-16
4.2361228e-16
6.5280995e-16
5.2446934e-16
5.1370914e-16
5.1426758e-16
6.4349031e-16
5.5617608e-16
5.5400264e-16
4.5689506e-16
4.8150038e-16
5.0006139e-16
4.7185617e-16
4.5897005e-16
5.1583979e-16
5.2159572e-16
4.7254914e-16
5.075984e-16
3.4484547e-16
2.3566357e-16
2.3335257e-16
3.5373102e-16
4.996577e-16
5.8638183e-16
5.128502e-16
4.9658668e-16
5.5547839e-16
5.6493172e-16
4.7444307e-16
4.9410967e-16
5.2503751e-16
5.3643608e-16
5.4026969e-16
5.2981406e-16
5.5813613e-16
5.8171741e-16
5.899261e-16
5.5379855e-16
9.5686121e-16
9.5084565e-16
1.160535e-15
1.1675369e-15
8.8459628e-16
9.459984e-16
1.0345815e-15
1.153771e-15
1.1525405e-15
1.1187588e-15
1.1448916e-15
1.1676698e-15
1.1518426e-15
1.0882952e-15
1.0973647e-15
1.1107317e-15
1.2133059e-15
9.4714829e-16
9.3256318e-16
1.1156966e-15
1.034045e-15
9.6046327e-16
8.9625063e-16
9.922061e-16
5.1540084e-16
5.0312242e-16
6.6104181e-16
6.0822681e-16
3.0373173e-15
3.5692286e-15
3.4288517e-15
3.3865455e-15
3.3713118e-15
3.8531289e-15
3.7413991e-15
3.5785197e-15
3.3821054e-15
3.3597739e-15
3.5382423e-15
3.4219817e-15
3.4956618e-15
3.5810372e-15
3.6669264e-15
3.5098152e-15
3.2822027e-15
3.6516584e-15
3.3667307e-15
3.267528e-15
3.2550471e-15
3.2790562e-15
3.463778e-15
3.3794231e-15
4.3762367e-15
6.8767601e-15
6.5251717e-15
4.437728e-15
9.7069816e-15
7.0780477e-15
2.4607479e-15
6.3460227e-15
6.3350968e-15
1.4757733e-14
7.5520581e-15
7.5681663e-15
6.2218974e-15
6.5748545e-15
1.4501869e-14
7.6470235e-15
7.5896684e-15
1.1952122e-14
1.2280671e-14
1.2388841e-14
1.3021597e-14
1.3942917e-14
7.7277653e-15
7.8892265e-15
1.1305131e-14
1.1632682e-14
1.2937166e-14
7.6848059e-15
1.3084508e-14
1.1975804e-14
1.1810877e-14
1.2353814e-14
1.3231177e-14
7.706565e-15
7.8999055e-15
1.1070844e-14
1.1569644e-14
1.2651165e-14
1.2855169e-14
7.7826768e-15
7.5107876e-15
5.2901794e-15
1.1688129e-14
5.409669e-15
1.1728588e-14
1.2037923e-14
1.1384666e-14
5.4713338e-15
5.538371e-15
4.1860823e-15
3.2892871e-15
3.485852e-15
4.3261101e-15
3.3981545e-15
3.4801264e-15
4.3900373e-15
4.5662547e-15
3.3106086e-15
2.7067609e-15
2.9992099e-15
3.6340972e-15
3.618474e-15
2.7869171e-15
2.8630849e-15
3.6140096e-15
3.2154559e-15
3.4794398e-15
4.1138335e-15
4.210355e-15
4.5715107e-15
3.4538785e-15
3.5444956e-15
4.3027181e-15
3.1122902e-15
2.5731422e-15
2.8348805e-15
3.3869591e-15
2.9192888e-15
2.9250464e-15
3.4433556e-15
3.5156274e-15
1.1282982e-14
1.1656443e-14
5.3944945e-15
5.1765295e-15
5.6945555e-15
1.2210396e-14
1.1723375e-14
5.5402723e-15
5.2704079e-15
1.1710696e-14
5.3964164e-15
1.1777231e-14
1.2330603e-14
1.1924654e-14
5.6579243e-15
5.5980229e-15
5.3637638e-15
1.1458613e-14
1.1692349e-14
5.4185385e-15
4.3587543e-15
3.2024219e-15
3.4065827e-15
4.4515982e-15
3.4811881e-15
3.4224223e-15
4.5851223e-15
4.4717011e-15
2.9473671e-15
3.6391138e-15
3.642098e-15
2.7540066e-15
3.1978166e-15
2.6368832e-15
2.9117433e-15
3.5251002e-15
6.4151648e-15
6.7138947e-15
1.6882194e-14
7.4739957e-15
8.0498297e-15
6.2601582e-15
6.7072e-15
1.6850408e-14
7.5524055e-15
7.615671e-15
1.3015866e-14
1.2325626e-14
1.3274097e-14
1.1971886e-14
8.0807581e-15
1.141211e-14
1.2087797e-14
1.2341275e-14
1.2445693e-14
7.8801542e-15
8.0171299e-15
1.27752e-14
1.2581592e-14
1.3669639e-14
1.2743173e-14
8.0159823e-15
7.9141327e-15
1.1573351e-14
1.1639938e-14
1.2435822e-14
1.2620793e-14
7.5824629e-15
7.8496527e-15
1.2369617e-14
1.1888201e-14
5.6895774e-15
5.6613397e-15
1.1845356e-14
1.1974565e-14
5.4745983e-15
5.2457367e-15
1.2495679e-14
1.1860741e-14
5.5766856e-15
5.5705113e-15
3.3091881e-15
3.5270071e-15
4.4727006e-15
4.7170776e-15
3.4131338e-15
3.5339102e-15
4.7310084e-15
4.4358563e-15
3.2497482e-15
2.6799612e-15
2.9349428e-15
3.4435351e-15
2.8562617e-15
2.9079703e-15
3.4160178e-15
3.4312797e-15
1.1793811e-14
1.1859453e-14
5.4310837e-15
5.2550543e-15
1.2224532e-14
1.1616077e-14
5.5131908e-15
5.5318351e-15
1.1984635e-14
1.1977455e-14
5.4926813e-15
5.2649924e-15
1.2374954e-14
1.1928257e-14
5.643989e-15
5.6651719e-15
3.2393249e-15
3.4682384e-15
4.6194776e-15
4.957133e-15
3.4081494e-15
3.5483022e-15
5.3197568e-15
4.7090067e-15
3.1941641e-15
2.6117995e-15
2.8992653e-15
3.3962593e-15
2.9830668e-15
2.9830148e-15
3.4807799e-15
3.534303e-15
3.2734613e-15
3.4878326e-15
4.3733415e-15
4.4706499e-15
3.3714794e-15
3.48596e-15
4.7074206e-15
4.5276116e-15
3.3092418e-15
2.701044e-15
2.9915389e-15
3.5386935e-15
2.7943261e-15
2.9181665e-15
3.5022643e-15
3.4899018e-15
7.9467278e-16
1.7598892e-15
3.7549055e-15
3.5644592e-15
3.7071378e-15
3.8729173e-15
3.9499304e-15
3.6546996e-15
3.7467054e-15
3.9778925e-15
3.8614476e-15
3.7473761e-15
3.5146408e-15
3.7923635e-15
4.1122738e-15
3.9128045e-15
3.6929009e-15
3.9521499e-15
3.9124446e-15
3.7077921e-15
3.6600425e-15
3.8112916e-15
3.7884112e-15
3.6693588e-15
3.4298393e-15
3.6320533e-15
1.5490062e-15
1.616919e-15
1.5296882e-15
1.6293462e-15
1.548693e-15
1.3769197e-15
1.3631791e-15
1.5971177e-15
1.6033628e-15
1.6987215e-15
1.616625e-15
1.7143848e-15
1.5538893e-15
1.3682097e-15
1.6306787e-15
1.3549497e-15
1.6503007e-15
1.6923593e-15
1.6877429e-15
1.7431015e-15
1.4185118e-15
2.0059203e-15
2.0822598e-15
1.4104684e-15
1.7632721e-15
1.6866974e-15
1.732259e-15
1.7197751e-15
1.4003411e-15
2.0114785e-15
2.0212332e-15
1.3566102e-15
1.5142834e-15
1.4408844e-15
1.4644098e-15
1.5301819e-15
1.561952e-15
1.5522374e-15
1.4802566e-15
1.4705189e-15
1.4712867e-15
1.3205217e-15
1.3261257e-15
1.5758698e-15
1.4898709e-15
1.4660447e-15
1.2997948e-15
1.2925733e-15
1.5815574e-15
1.4990382e-15
1.5125182e-15
1.6010443e-15
1.5355892e-15
1.4521795e-15
1.4791759e-15
1.5646191e-15
1.3519181e-15
1.5244463e-15
1.3503971e-15
1.6248933e-15
1.2863599e-15
1.4540898e-15
1.2861725e-15
1.5420303e-15
1.5507091e-15
1.6044788e-15
1.6056626e-15
1.6541007e-15
1.3282286e-15
1.8715701e-15
1.9300316e-15
1.3069243e-15
1.6634641e-15
1.6100338e-15
1.642174e-15
1.6368978e-15
1.3100951e-15
1.8963414e-15
1.9419052e-15
1.2852183e-15
1.6426932e-15
1.6509093e-15
1.6002549e-15
1.6926506e-15
1.6153223e-15
1.5989603e-15
1.6717047e-15
1.5696007e-15
1.3738903e-15
1.373709e-15
1.9479503e-15
2.018004e-15
1.8783327e-15
1.8640502e-15
1.3121682e-15
1.272503e-15
1.937518e-15
2.1227121e-15
1.9307539e-15
2.1265836e-15
2.199594e-15
2.0195551e-15
2.0139865e-15
2.2156137e-15
1.9103936e-15
1.5529151e-15
1.9450416e-15
1.5444945e-15
1.5814323e-15
1.5714406e-15
1.9417865e-15
2.0186044e-15
2.4388603e-15
2.6777331e-15
2.4000359e-15
2.6599281e-15
2.7281226e-15
2.4914328e-15
2.4815509e-15
2.7220942e-15
2.3679974e-15
1.9415303e-15
2.4186328e-15
1.9281738e-15
1.9733227e-15
1.9385365e-15
2.4080533e-15
2.433734e-15
2.5106869e-15
2.5164459e-15
2.276889e-15
2.2862956e-15
2.4636015e-15
2.2293038e-15
2.2244122e-15
2.445893e-15
2.22724e-15
2.1957095e-15
1.8045503e-15
1.7883526e-15
1.8121909e-15
2.2039651e-15
2.2401035e-15
1.8096868e-15
2.5369185e-15
2.2937138e-15
2.2864661e-15
2.5107481e-15
2.4317465e-15
2.2017472e-15
2.2171737e-15
2.4420817e-15
2.2710119e-15
1.8503039e-15
1.8263556e-15
2.3000245e-15
2.1465415e-15
1.7560076e-15
1.7414832e-15
2.1849551e-15
2.0088404e-15
1.8311486e-15
1.8235145e-15
2.0341262e-15
1.9418258e-15
1.7820918e-15
1.7838824e-15
1.9871148e-15
1.8520776e-15
1.5232954e-15
1.5117632e-15
1.879461e-15
1.7612563e-15
1.4441316e-15
1.433054e-15
1.7855357e-15
1.9464393e-15
1.7761253e-15
1.7569684e-15
1.9498371e-15
2.0105903e-15
2.0170509e-15
1.8406515e-15
1.8149031e-15
1.7772677e-15
1.4646407e-15
1.4607163e-15
1.7973427e-15
1.8015375e-15
1.7934429e-15
1.4665674e-15
1.4566894e-15
1.0833643e-14
1.1066142e-14
7.2597674e-15
7.3480884e-15
6.9549765e-15
7.1359424e-15
1.0343803e-14
1.0952785e-14
1.8252242e-15
1.8717744e-15
1.6251236e-15
1.6603432e-15
5.5661163e-15
5.546006e-15
1.0285338e-14
1.0481477e-14
6.8436329e-15
6.9445872e-15
6.4487452e-15
6.5903717e-15
9.2918181e-15
9.5523092e-15
1.7810814e-15
1.6142161e-15
1.6018786e-15
1.732266e-15
5.5556201e-15
5.4528426e-15
5.8846773e-15
5.8460974e-15
4.8792944e-15
4.9377642e-15
5.048765e-15
3.9307788e-15
3.9091861e-15
5.0396491e-15
4.8188928e-15
5.790636e-15
4.8150825e-15
5.8180457e-15
4.8508127e-15
3.7668728e-15
4.9181724e-15
3.7568436e-15
6.1387682e-15
6.1115117e-15
5.1392589e-15
5.0664087e-15
5.1929191e-15
4.0494786e-15
4.0059157e-15
5.2067786e-15
6.0426446e-15
6.0028951e-15
5.0565397e-15
5.1107835e-15
5.1308255e-15
5.1385428e-15
3.9837032e-15
3.9482235e-15
1.502618e-15
1.5286757e-15
1.5048836e-15
1.4578906e-15
1.6844673e-15
1.627493e-15
1.7107579e-15
1.618554e-15
2.5615789e-15
6.4941591e-15
6.5762769e-15
9.7900395e-15
9.9291073e-15
1.7923668e-15
1.8044873e-15
1.6111557e-15
1.62131e-15
5.473775e-15
1.1492318e-14
1.1801633e-14
7.6981105e-15
7.7753799e-15
7.2907836e-15
7.2384983e-15
1.0579085e-14
1.028188e-14
1.9281042e-15
1.7600306e-15
1.775311e-15
1.958261e-15
5.9653732e-15
6.0639168e-15
6.550936e-15
5.4900824e-15
5.4670758e-15
6.5337515e-15
6.4924156e-15
5.4277758e-15
5.3296144e-15
6.3708391e-15
5.5792076e-15
4.3573606e-15
4.3322243e-15
5.5865668e-15
5.4267575e-15
5.4760067e-15
4.2514703e-15
4.1761181e-15
1.6675796e-15
1.7842957e-15
1.6455996e-15
1.6875186e-15
1.5856745e-15
1.5901122e-15
1.5435138e-15
1.5178352e-15
4.3420093e-15
3.7478864e-15
3.7078037e-15
4.339946e-15
4.4098463e-15
4.3986115e-15
3.8070787e-15
3.7757937e-15
2.9176438e-15
3.6980987e-15
2.9316012e-15
3.6989014e-15
3.694373e-15
2.8918497e-15
3.6794625e-15
2.9030549e-15
3.6850434e-15
4.286283e-15
3.7078447e-15
4.2865482e-15
3.6672008e-15
2.9006783e-15
2.8815748e-15
3.6885973e-15
3.6105368e-15
4.1727952e-15
3.5948085e-15
4.2314146e-15
3.5022991e-15
2.7678898e-15
3.5576019e-15
2.7642568e-15
2.8141587e-15
3.1942532e-15
2.8528594e-15
3.2061697e-15
2.3973823e-15
2.9265067e-15
2.9432405e-15
2.3672249e-15
3.1216785e-15
2.7538088e-15
3.086869e-15
2.7544928e-15
2.2665534e-15
2.7724743e-15
2.8006231e-15
2.2590136e-15
3.1803385e-15
2.8381107e-15
2.7930279e-15
3.1779614e-15
2.3624916e-15
2.8838749e-15
2.897709e-15
2.3375751e-15
3.2167631e-15
3.2355069e-15
2.8867905e-15
2.8688556e-15
2.362708e-15
2.9072238e-15
2.3574339e-15
2.8863937e-15
4.6700079e-15
4.6930631e-15
4.0628664e-15
4.0139202e-15
3.9384159e-15
3.132899e-15
3.0858835e-15
3.9420013e-15
3.481766e-15
3.4628275e-15
3.0734305e-15
3.1182835e-15
3.1635513e-15
2.5719412e-15
3.1748118e-15
2.5539573e-15
2.5536199e-15
3.1248265e-15
3.1282582e-15
2.5277664e-15
2.1442198e-15
2.474037e-15
2.6356082e-15
2.1813048e-15
1.2162186e-15
1.2950576e-15
1.3048652e-15
1.2783201e-15
1.1390561e-15
1.1361803e-15
1.1229691e-15
1.1476752e-15
1.2743414e-15
1.2607203e-15
1.1652116e-15
1.1547561e-15
1.3925195e-15
1.2805976e-15
1.318749e-15
1.4670269e-15
1.3281346e-15
1.2759095e-15
1.2566009e-15
1.2558297e-15
1.1486006e-15
1.2825495e-15
1.3695951e-15
1.2226839e-15
1.4059437e-15
1.427124e-15
1.2542957e-15
1.2688117e-15
1.418355e-15
1.5708121e-15
1.4891393e-15
1.3178063e-15
5.7221257e-16
9.5708525e-16
1.1852827e-15
1.0844764e-15
9.1391142e-16
9.4707577e-16
8.6015153e-16
8.2879199e-16
5.9348085e-16
5.9570605e-16
3.1855027e-15
3.512927e-15
3.1182549e-15
3.6221561e-15
3.1333607e-15
2.5416953e-15
2.5720417e-15
3.2908836e-15
3.5115408e-15
3.11229e-15
3.5511284e-15
3.1372075e-15
3.120297e-15
2.5180753e-15
3.1199534e-15
2.4808432e-15
4.3233317e-15
3.7242471e-15
3.7124803e-15
4.2778618e-15
4.4918336e-15
4.5247254e-15
3.8956815e-15
3.8393133e-15
2.8355894e-15
3.6056566e-15
2.8648396e-15
3.6548596e-15
3.7308028e-15
2.9044214e-15
3.7355661e-15
2.9400983e-15
4.248578e-15
4.781874e-15
4.1096388e-15
4.8829713e-15
4.0041581e-15
3.1531699e-15
3.1987198e-15
4.199628e-15
4.1995966e-15
4.8484953e-15
4.1564098e-15
4.8412614e-15
4.0151627e-15
3.1484058e-15
4.0582982e-15
3.0830607e-15
3.1650797e-15
2.8259062e-15
2.7985063e-15
3.1967883e-15
3.3135836e-15
2.9548687e-15
3.3057232e-15
2.9147964e-15
2.3609295e-15
2.3360099e-15
2.8836481e-15
2.9009714e-15
2.9662993e-15
2.9621789e-15
2.409769e-15
2.3842115e-15
1.1060781e-14
1.1020119e-14
7.4986615e-15
7.6344843e-15