/*--------------------------------*- C++ -*----------------------------------*\
  =========                 |
  \\      /  F ield         | OpenFOAM: The Open Source CFD Toolbox
   \\    /   O peration     | Website:  https://openfoam.org
    \\  /    A nd           | Version:  7
     \\/     M anipulation  |
\*---------------------------------------------------------------------------*/
FoamFile
{
    version     2.0;
    format      ascii;
    class       volScalarField;
    location    "2000";
    object      omega;
}
// * * * * * * * * * * * * * * * * * * * * * * * * * * * * * * * * * * * * * //

dimensions      [0 0 -1 0 0 0 0];

internalField   nonuniform List<scalar> 
34251
(
2143.622
4821.5592
3957.9375
753.1209
3930.9447
738.56903
586.83877
755.18239
748.2715
1237.3764
9992.9156
1247.5215
9939.2019
7433.2764
7637.2278
1815.3402
1809.2143
7509.072
7560.961
1782.4667
1783.2845
652.45414
592.39123
592.67486
661.19705
1292.1725
1438.4554
1271.8449
1445.1271
478.80805
481.50532
404.1356
403.5572
1955.3357
1973.8394
1956.9744
1941.9996
484.06384
481.93463
2026.2502
601.18279
604.44763
2038.4012
4735.3155
4715.8988
19718.393
19734.045
604.63572
606.56387
2043.5032
2050.4178
4754.878
4764.1439
19572.031
19660.306
4256.4739
13139.613
4315.224
13351.313
4424.3993
13297.214
4362.6775
4235.7784
13464.999
4371.44
13280.161
13173.406
4325.1971
4346.9845
1765.511
1756.6853
1765.1262
1737.2488
1268.1862
1297.1501
1433.3033
1451.665
484.11349
1453.6949
1289.5311
1293.4551
1457.7898
487.01237
1778.1572
1776.6951
1759.3003
1769.1061
407.87596
406.11462
2889.8178
2886.4331
3205.1288
1061.7939
3242.871
3905.4158
3869.2578
4056.4665
2906.1483
2873.5549
3258.7144
3214.9078
1047.8351
3891.8817
3840.5896
4014.3626
4092.1276
931.49367
907.9947
931.35421
1076.1557
3046.8197
3422.9771
4606.9019
330.02565
648.50763
772.00061
754.67793
633.82902
331.04584
633.50233
766.35948
258.11632
259.03408
4802.3044
4926.6831
4821.4303
4876.225
4794.0698
4804.7796
476.27986
474.80278
2179.2189
631.97049
631.71675
2194.7757
3617.6739
3617.7318
6995.8274
6948.9849
3619.1795
3586.6174
6910.2852
6983.8071
13761.319
34210.966
34111.321
13710.585
13832.419
13714.216
34212.918
633.77585
636.91315
2198.7636
2211.8504
3642.9016
3629.0959
6982.6556
7023.0384
7042.5208
3645.2673
3643.7987
6984.6077
13779.362
13804.469
34104.737
13700.297
13887.053
34114.898
33914.266
21407.236
21884.237
8046.2991
7990.4771
21702.848
22000.682
8169.4567
8170.1727
8057.2732
21852.802
21800.762
8118.3146
22287.267
22111.639
8178.3437
8222.5669
21790.167
21806.276
8063.577
8008.0546
21589.773
21468.314
7970.3165
8049.7515
219.47224
5110.0759
4608.7243
5014.7585
4995.2903
4547.5957
4512.8084
4648.8965
4735.8259
4642.5855
4613.2416
4530.6893
4572.9712
2871.8633
2846.7834
3184.9551
3220.9248
1048.8551
2888.506
2906.5369
3268.1971
1068.5014
3854.35
3823.5047
4016.2092
4061.1656
3924.501
4130.7549
911.7478
939.64958
4187.411
3865.1456
3992.7532
4071.5688
2957.286
3227.0557
3318.0795
2869.1778
1059.7618
2904.9531
2905.6077
3242.7071
1073.0095
3234.1347
3851.5605
4041.0369
3888.0668
4074.6527
925.77729
935.41428
5020.8552
5164.1596
4560.6283
4649.2391
4530.9357
4922.5481
5024.9463
4468.7329
4569.7738
4670.1645
4598.0954
4510.8218
4692.375
4653.1607
4803.1878
4577.6877
331.02178
658.43103
781.45128
760.36626
640.354
331.40695
641.84657
767.0276
774.78529
647.80472
258.51395
259.3704
7029.2337
7121.0039
2458.8811
5918.102
5842.0782
6740.5792
6916.1938
2466.3463
5742.9206
5608.5397
7945.4202
8073.3248
8160.6904
8290.7594
2292.0161
2324.4003
8289.293
8424.6834
8387.9552
8547.8105
9378.9735
9345.7009
9178.1006
9182.2463
9303.7294
9112.2093
9295.1397
9117.5305
9849.7607
9424.0043
9844.1672
9428.6222
7072.9595
7076.2471
2479.3429
5894.8663
5868.156
7007.5195
6988.2241
2441.5731
5798.9824
5834.2241
8346.3766
8482.0708
8319.739
8477.324
8265.7523
8405.2571
8250.9707
8405.7195
2279.5079
2311.4482
9317.6931
9125.4669
9440.6625
9270.9955
8931.4475
8742.4289
9161.3226
8960.5427
9446.9668
9035.4528
9667.4292
9241.491
9858.0384
9426.8431
10002.86
9591.6595
1811.632
1865.0996
2008.1281
1974.4811
1821.46
1789.8119
1953.3226
1988.9708
1827.5517
1866.7123
2046.034
2014.2378
2575.4696
2388.6783
2543.9757
2349.1947
1743.4094
7462.5622
6216.2073
7412.5709
7405.2632
6158.1746
6204.617
8706.8078
8861.1656
8719.3937
10075.304
9654.8713
9201.0002
9858.843
539.42674
543.01039
418.7688
416.92763
993.21643
1034.0995
1162.6855
1207.8265
1601.4726
1424.4543
1366.8053
1555.1867
1530.8511
1348.1475
1361.9992
1561.6737
977.03884
973.99879
1150.9046
1141.9491
412.2447
536.58063
413.68147
956.28856
982.31816
1135.4154
1167.4825
1382.5821
1343.3202
1590.5076
1557.2901
1293.9509
1486.2254
335.56434
338.56396
8749.2726
8799.001
8967.0659
8948.8917
8798.0465
8851.4136
8982.6303
9010.1584
8842.4458
8747.1355
8731.5709
8790.0768
454.36671
453.06217
2243.3523
4153.6788
4109.455
622.71338
623.342
2261.6617
4163.7401
4133.2203
7662.5278
7595.705
7563.4118
7648.6626
13133.155
13067.717
19575.244
19357.272
31173.874
30580.63
49984.678
49893.225
30738.99
31235.222
49560.823
50129.445
19311.825
13087.288
12951.583
19523.109
13076.1
13200.556
19452.157
19633.558
13072.738
13014.748
19555.622
30997.619
31110.177
50097.384
49677.295
624.6285
627.77529
2264.1384
4160.4378
4176.4618
2276.4408
4162.4407
4189.4534
7647.7552
7695.4918
7714.3169
7642.8187
13154.767
13010.864
19541.277
19588.265
19372.764
13110.049
13180.138
31318.094
30646.326
50176.704
49853.961
19528.471
19264.841
13027.69
13106.261
19505.883
19652.573
13257.254
13163.747
31097.823
31314.189
49677.554
49987.776
31182.951
30390.749
49772.027
49390.248
213.91971
39147.375
38037.898
11507.519
11576.178
39321.805
40191.191
11775.317
11727.561
39575.927
38429.395
11726.575
11804.226
39446.447
40182.831
11906.169
11861.551
39867.749
39125.823
11691.312
11738.429
38749.571
39779.214
11784.897
11734.286
40632.848
39958.951
11945.007
12009.619
39263.319
40178.131
11985.235
11948.198
39615.96
39033.234
11748.058
11762.289
39195.487
39821.703
11738.906
11704.278
39303.583
38828.404
11606.308
11638.947
38183.288
38838.456
11639.608
11635.53
219.64702
10140.29
9305.7466
10172.047
9358.0107
9654.0425
8635.2068
9691.57
8686.9598
9791.0855
9873.7408
9010.796
9107.6333
9944.3897
9772.0297
9135.5085
9019.4073
9350.6393
8397.2665
9431.0223
8483.5863
9481.344
9352.7033
8502.4228
8421.0187
10402.06
10424.918
9671.1038
9724.4756
10284.098
10292.715
9801.8079
9843.5621
9987.6533
9915.865
9459.7743
9562.738
10036.772
9841.3305
9576.6851
9417.3467
10171.127
9982.6522
9480.9143
9332.2735
10029.611
10116.126
9344.2366
9450.6245
6931.7909
6993.2244
2456.1294
5830.4272
5753.5244
6979.8259
6834.634
2424.796
5682.2008
5827.1073
8217.2407
8357.6061
8048.4934
8204.7518
8162.249
8304.5292
8203.8563
8363.9975
2264.6002
2292.137
6885.0503
2472.8109
5717.1256
5728.6725
7161.2029
7172.5038
2471.7883
5943.1287
5964.3491
8442.6188
8432.8303
8587.3761
8592.8867
2300.9103
2331.9713
9176.5744
9216.5938
8995.2115
9063.5645
9243.9959
9062.9306
9063.0013
8903.7815
9797.1107
9384.5661
9607.9324
9222.5422
9707.2913
9288.6179
9761.6918
9377.4943
9482.68
9321.6597
10053.88
9622.3493
9649.7884
915.4073
1815.6825
1787.4203
1948.1359
1979.1054
1873.6389
1819.1549
2019.0733
1982.5105
759.36304
638.91932
10177.186
9723.5506
10097.536
9662.5408
9192.7981
9336.5306
9020.781
9178.8356
9610.6864
9419.5284
9550.2973
9369.6921
9743.6211
9884.8343
9324.123
9479.4258
7260.48
7228.185
2508.1808
6001.6871
6047.0806
8164.0061
8311.2227
8318.0309
8474.9155
8544.1831
8689.0125
8502.7028
8655.3081
6931.44
7093.5595
2449.3566
5761.1419
5916.4484
2281.8196
2335.1194
6953.2307
6894.625
2502.2148
5745.5871
5785.242
6978.7681
7110.1309
2477.8468
5928.0482
5818.0871
8212.5363
8349.193
8362.6385
8511.9534
2319.6621
2358.284
8190.2766
8313.9637
8089.415
8230.3297
9183.6677
8976.068
9052.6436
8873.807
9676.4458
9229.4932
9527.5555
9123.5408
9228.8835
9044.4518
9396.0315
9214.1522
9768.7008
9350.7362
9931.9741
9508.704
1805.1755
1837.9132
2004.8774
1970.1569
1836.0382
1997.2981
2047.117
1888.997
9845.2888
9944.9466
9061.9257
9166.5698
10177.807
9323.2669
10109.392
9296.2003
9408.2745
8459.2081
9489.878
8544.1292
9658.0559
8644.5502
9620.5128
8637.2923
9381.648
8422.9537
9451.8295
8492.6751
9609.2895
9466.9535
8822.9845
8741.4511
9842.0964
9044.2517
9932.8088
9136.1241
9150.6134
9039.3242
10091.77
9395.2536
10208.792
9509.2408
9986.29
10129.62
9518.3214
9656.3384
9836.1849
9683.4117
9348.8947
9242.3415
9892.9755
9740.9016
9186.2606
9087.376
10471.902
9721.79
10384.438
9671.6703
9958.3187
10092.613
9497.4528
9641.8317
10382.102
9879.597
10294.002
9816.9432
10076.229
10197.303
9388.5835
9519.3629
550.58125
546.15125
423.08231
421.80286
1213.4131
1040.9269
1009.0963
1177.1629
1605.1511
1427.1759
1380.7535
1565.7502
1532.2055
1346.349
1367.986
1562.7092
1140.8146
982.59166
990.30808
1162.683
548.88097
545.28625
417.92499
420.73495
986.66982
1007.2597
1176.8945
1152.181
1385.951
1576.5167
1546.1959
1354.3945
1430.8449
1380.5061
1572.6654
1628.6812
1025.6919
1003.2676
1172.9891
1209.8658
335.0138
339.06116
20455.394
20460.284
18680.595
18646.604
18804.12
18812.831
20541.918
20527.082
5140.9014
5059.6937
5070.3828
5185.3721
19621.073
19581.631
19347.373
19369.571
17613.379
17607.065
18491.335
18545.016
20342.018
20358.161
4987.8855
4882.7258
4945.6695
5057.2147
19495.953
18559.175
17982.686
17921.297
16291.834
16366.374
16782.937
16681.054
15454.282
15369.67
17179.637
18868.536
17135.249
18886.277
16127.22
17558.362
17584.796
16183.639
4446.7637
4485.0512
4560.5048
4556.7477
4438.9403
4371.7795
4421.6478
4501.5089
17265.336
19057.539
17365.672
18975.092
16393.03
17793.288
17670.522
16278.549
17505.807
19196.65
17520.733
19152.336
16574.1
17964.143
17919.209
16571.251
17023.002
15991.844
15881.401
16885.63
16775.898
16835.393
15853.029
15838.819
15419.554
16483.899
15534.275
16358.156
16316.132
15434.757
16346.335
15429.856
15581.878
16735.918
15765.888
16539.42
16271.069
15366.737
15171.992
16062.647
15929.599
16887.214
15882.042
16902.884
16388.209
15449.183
16426.944
15509.019
15006.515
15870.864
15207.215
15648.478
14990.089
15752.508
15529.459
14793.631
15998.628
15330.593
15950.45
15269.257
15032.547
15814.784
15864.864
15096.236
20775.098
20777.649
18939.647
18908.958
18623.512
18630.023
20366.044
20354.34
5165.514
5084.1881
5087.5515
5187.6138
19491.777
19904.099
20222.276
20213.284
18474.824
18413.166
18708.228
18747.902
20500.576
20514.57
5124.8303
5046.3724
4993.9668
5090.2401
19601.415
19363.524
19315.476
19232.513
17578.897
17478.52
17881.668
16579.339
16460.01
18010.972
19005.241
18946.388
17304.185
17340.157
17773.912
17696.632
16392.8
16360.501
17064.571
18862.14
17207.787
18741.947
17646.191
16280.375
16110.18
17469.443
17418.283
19107.066
17400.545
19102.651
17845.465
16429.877
17841.4
16459.066
4548.7673
4478.8542
4400.4688
4490.1038
4494.3201
4510.8442
4586.0095
4591.8216
15734.349
16830.787
15835.458
16708.908
16330.477
15406.817
15309.485
16221.333
17016.702
16076.174
17032.786
16053.505
16569.096
15644.534
16581.261
15689.45
14868.632
15877.384
14932.521
15783.785
15399.963
15332.033
14518.13
14471.499
15620.123
16557.112
15542.617
16607.669
15078.134
16024.547
16097.736
15171.782
14299.868
14978.658
14326.561
14927.517
14818.967
14791.255
14087.954
14080.509
15642.315
14963.826
15552.493
14862.714
14601.429
15379.526
15475.429
14708.301
15121.708
15898.425
15217.008
15787.899
14980.672
15750.974
15647.239
14895.953
16184.93
15530.817
16152.231
15475.641
15245.199
16024.32
16066.939
15310.171
3272.9689
3345.3611
3438.8611
3496.4615
3347.9297
3390.9315
3496.5461
3489.9441
3911.4112
3891.8791
3960.7985
4002.7442
4033.684
3921.6844
3856.7237
3989.642
3347.5956
3372.4137
3504.4426
3522.1854
3270.4598
3328.9244
3416.361
3473.6967
4022.9443
3906.5397
3840.0764
3952.6846
4060.4243
3951.4867
3927.1999
4047.9941
3443.861
3452.4453
3625.7162
3613.6745
3465.8686
3482.7212
3647.5998
3626.3356
4224.1896
4089.8254
4069.3926
4184.8787
4054.894
4076.2781
4209.2078
4183.5317
5446.5747
5329.7431
5256.0605
5394.5287
4799.4796
4698.6093
4644.2391
4734.427
5449.0925
5332.0346
5270.4913
5421.5123
4793.9987
4686.268
4645.1961
4753.8454
3210.6273
3217.8031
3367.1734
3371.6822
21546.143
21537.925
19713.771
19675.664
20633.986
20792.702
20823.919
19051.282
19055.416
19493.032
19534.07
21317.165
21326.607
20402.875
19944.967
17743.539
19440.895
17794.695
19404.641
18250.017
18184.21
16901.791
16842.733
18193.319
19903.094
18171.528
19898.661
14834.152
15496.375
14899.374
15408.768
14013.45
14562.711
13995.798
14556.632
14484.504
14510.573
13801.933
13848.981
14607.349
15099.486
14505.559
15199.068
872.00955
875.99927
652.91771
650.56598
910.28493
890.69961
667.3554
674.83818
505.6542
497.57502
1276.1673
1268.6908
1492.0658
1477.3045
1365.5013
1397.8986
1632.7778
1565.8824
1755.5095
1783.8784
2006.105
1971.2169
1850.289
1941.0685
2150.1165
2059.0408
3032.5174
2911.9593
2834.6297
2985.0174
2592.4573
2441.0287
2343.0065
2511.7064
2247.1826
2294.0022
2471.2769
2420.4
2968.594
2800.8109
2738.8538
2910.3953
2949.3133
2789.9402
2733.913
2902.5782
2440.4922
2260.9295
2219.0101
2406.5958
2309.6343
2294.0202
2482.7316
2492.0478
2989.6451
2821.7248
2821.0088
2983.2985
1271.6875
1242.6036
1465.5172
1486.7067
1243.7899
1237.9908
1460.9745
1438.5205
1782.2153
1758.9927
1996.5452
2017.21
1710.7572
1747.6267
1976.6918
1937.868
494.53184
650.21017
875.30622
862.06706
643.13756
1214.9444
1215.6958
1428.2159
1428.0914
1261.8132
1276.95
1522.776
1476.6326
1719.6191
1721.7964
1973.4249
1972.6963
1768.052
1826.501
2073.3696
2019.2659
2380.0669
2326.0255
2535.0561
2576.379
2280.9925
2285.4804
2496.2841
2498.8517
2919.4935
3097.7514
3073.7736
2886.1158
2858.5111
3053.5493
3048.8779
2850.3691
2342.1659
2152.6434
2156.9631
2349.6464
2677.9729
2685.993
2852.5495
2847.2666
1640.4544
1868.3575
323.45191
324.668
12309.264
12405.653
12636.888
12567.805
12543.354
12659.584
12773.907
12696.284
12506.788
12572.033
12633.14
12543.995
12792.175
12888.038
12857.634
12777.717
12570.264
12614.153
12578.59
12523.248
12423.316
12477.141
12471.783
12436.804
424.92921
652.82908
659.94248
423.30461
654.66694
650.08756
375.54325
4115.0903
4058.8989
2208.1226
4728.7838
4783.1075
4094.7676
4118.452
2230.059
4810.2332
4754.171
2021.2431
6370.0991
6362.4454
10710.417
10796.81
16405.177
16646.781
6329.6779
6271.9941
10658.076
16492.688
10613.32
6286.2252
6260.1232
10558.192
10687.072
16254.827
16532.727
6372.1226
6326.4579
10742.234
10673.467
16554.193
16384.056
24723.017
20094.474
24892.286
20179.369
19827.799
19861.708
24438.883
24513.805
44384.237
28987.699
29204.966
45027.456
28814.899
28710.583
43931.07
44091.644
56502.054
68357.432
68658.182
57091.456
56946.079
68231.205
68010.724
56348.615
28576.607
28972.875
43438.766
44330.465
44833.883
29061.859
28986.106
44438.465
55880.957
67835.448
68331.689
56537.093
68232.809
68902.093
56746.054
56526.304
19743.956
19899.551
24637.975
24324.084
24758.125
20047.846
20093.026
24712.496
24495.683
19892.875
24782.356
20038.817
20159.009
20190.613
24882.722
24808.672
24731.764
20061.729
20154.327
24906.408
44044.394
28780.716
29135.266
44679.627
29077.795
29203.502
43922.826
44851.313
68829.789
57299.088
56855.517
68048.164
56063.473
68276.424
68598.577
56785.608
4136.2411
4113.0683
2228.9104
4794.75
4804.3142
4127.7264
4145.0437
2236.4045
4826.4729
4786.3605
6366.6727
6342.5413
10795.545
10662.016
16602.52
6409.4387
6366.9384
10814.975
10749.388
16445.205
16624
6394.5829
6407.061
10838.165
10799.811
16712.888
16517.558
6372.6373
6322.3547
10725.056
10662.225
16333.283
16532.406
20084.631
20135.845
24696.164
24730.862
20138.368
20224.602
24883.435
24730.609
19867.974
19914.806
24438.787
24490.404
28959.389
29125.257
44622.795
45100.684
28727.337
28635.619
44515.485
44234.943
57072.989
68717.79
68785.902
57112.353
67991.351
68589.084
56710.586
56347.926
20071.711
20140.969
24829.725
24703.172
19749.301
19778.141
24310.809
24398.891
19978.521
20122.567
24802.18
24525.504
20197.933
20243.767
24821.864
24864.959
28749.152
29086.492
44414.323
45300.49
29129.817
29048.843
45413.115
44951.667
56519.288
68475.608
68821.49
56717.822
68538.951
69161.711
56905.176
56614.381
28964.251
29113.631
44499.234
45084.435
28676.928
28527.518
44438.92
43605.612
56515.446
68578.882
68731.458
56651.043
67506.663
68340.424
56309.608
55903.49
312.16324
213.80201
41426.762
40287.763
41687.707
42503.074
41958.806
40779.36
41782.594
42639.537
42101.925
41421.22
41034.298
42136.765
42982.057
42279.452
41529.333
42593.569
41884.175
41245.152
41417.519
42040.779
41586.087
41097.514
40418.527
41151.71
13727.739
14492.232
13700.555
14504.391
13925.587
13011.813
13042.654
13956.187
13740.893
14510.815
13726.272
14500.7
13962.741
13046.124
13968.732
13075.507
12513.268
13206.05
12487.127
13231.658
12058.641
12706.222
12746.511
12129.373
13262.616
12550.667
13244.271
12522.92
12111.535
12751.266
12761.813
12098.546
13949.205
13212.25
13201.906
13919.366
14010.526
13946.498
13229.93
13309.158
13450.608
12594.912
12589.732
13435.266
13550.606
13476.171
12627.892
12713.872
14249.648
13471.221
13391.397
14135.145
13984.227
13249.617
13272.205
13984.124
12740.777
13698.028
12802.306
13613.621
12672.292
13501.017
12635.836
13516.173
12112.507
12800.78
12118.798
12784.266
11728.914
12347.259
12350.136
11772.475
12909.217
12230.662
12832.958
12155.514
11782.302
12388.197
12446.857
11812.412
13001.548
12296.053
12243.044
12928.669
12845.666
12159.759
12870.659
12192.174
11870.09
11880.489
12515.378
12473.852
12426.256
12409.509
11830.109
11830.919
14905.92
15602.697
14893.889
15589.233
15595.858
14914.396
14943.761
15625.444
15268.07
14261.396
15291.459
14277.076
14279.172
14298.769
15302.412
15302.739
15266.88
15914.28
15295.23
15870.876
15859.341
15265.477
15332.521
15908.509
15852.591
15105.378
15821.388
15092.172
15091.598
15150.452
15827.813
15873.872
15230.893
15355.289
14806.044
14665.956
15269.318
14670.827
14626.14
15199.683
15145.185
15199.871
14491.017
14457.55
14490.25
15189.764
15316.223
14633.55
15544.71
14953.116
14809.13
15371.294
15146.138
14577.587
14658.907
15218.681
15509.325
14788.817
14651.459
15347.972
15123.424
14432.93
14497.508
15185.901
15294.448
14613.456
14494.051
15139.116
14930.149
14289.318
14326.839
14969.487
14991.322
14020.162
13909.244
14871.661
14677.725
13733.207
13750.421
14691.378
14966.922
14293.482
14274.193
14924.181
15080.155
14956.317
14309.972
14428.924
14651.223
13712.016
13690.598
14635.623
14756.979
14666.542
13720.524
13813.147
20306.432
20314.858
18539.768
18546.157
18316.122
18393.198
20020.857
20040.051
5039.2227
4992.0075
5073.8522
5141.3955
19169.47
19436.656
20079.468
20066.235
18394.051
18356.149
18208.574
18282.041
19953.878
19977.312
5030.8782
5118.9053
5006.3322
4915.651
19069.631
19179.133
18781.127
18692.813
17055.825
17150.031
17587.098
16235.412
16122.369
17462.378
16977.139
18583.465
16912.555
18614.25
17332.389
15951.969
17376.057
16031.522
18898.209
18858.125
17202.698
17162.631
17551.028
16221.497
16169.161
17619.142
18672.739
18700.505
17103.213
17033.618
17442.177
17483.435
16084.238
16174.132
4351.0806
4454.5882
4533.695
4434.4691
4515.4817
4431.4134
4463.7662
4557.3054
2237.0327
18359.028
18451.559
20177.752
20212.419
4985.4137
4995.2242
5054.9115
5050.1349
19329.025
20978.904
20996.639
19163.599
19177.387
18952.294
18973.787
20733.561
20709.744
5121.677
5217.3076
5233.5029
5118.0141
20086.351
19826.119
19539.555
17806.249
17783.588
19519.206
19323.452
17617.412
17627.147
19291.838
18241.586
16808.982
16781.751
18204.651
18023.419
18046.786
16639.467
16662.105
4489.21
4520.9581
4602.3499
4610.1227
4454.1132
4494.1636
4533.7845
4511.7277
16651.881
15656.998
15606.087
16582.438
16585.404
16507.611
15551.544
15668.582
15165.292
16144.111
15220.377
16076.674
16139.346
15275.165
16031.443
15138.258
15618.909
16690.344
15737.79
16555.832
16252.363
15356.944
15222.681
16108.736
15509.681
16385.457
15414.739
16453.467
15905.343
15002.819
15989.977
15107.253
15063.542
15869.833
15212.276
15706.032
15008.725
15767.925
15593.397
14859.488
15580.486
14938.015
15491.306
14838.907
14627.824
15372.746
15455.745
14723.528
15699.475
15015.223
14954.604
15624.374
14765.946
15537.367
15460.447
14712.246
15611.723
15736.971
14961.072
15103.778
14732.149
15606.507
14878.962
15477.706
17096.915
17095.691
16115.168
16153.588
16652.356
15708.741
15762.086
16633.035
16218.434
16255.372
15607.684
15546.613
16183.2
15379.536
16139.363
15346.623
15323.082
16102.692
16145.3
15393.742
1780.9139
1934.5762
1948.5866
1803.2564
3322.6232
3339.1716
3482.7309
3481.0311
3269.9434
3344.7482
3478.8681
3405.0831
3815.311
3902.3157
4010.0239
3922.5244
3894.2103
4000.95
4024.9844
3898.8267
3606.9545
3499.323
3409.3605
3533.3088
3304.8866
3349.3775
3507.7806
3472.9209
3947.1246
4013.1687
4076.6385
4029.1736
4059.3866
3932.4095
3893.8017
4030.5988
547.25409
420.10553
1371.8023
1341.9605
1528.8999
1559.9193
996.97109
979.50482
1135.1092
1163.8809
15637.457
16328.992
15638.131
16324.701
16177.753
15372.133
15370.684
16168.122
16326.879
15641.259
16357.14
15647.331
16192.458
15369.398
16158.879
15362.407
16659.655
15675.508
15582.676
16534.58
16822.883
16791.012
15818.876
15893.038
15156.811
16172.708
15258.155
16057.303
16370.391
15489.618
16312.755
15399.332
16243.835
17206.3
16225.837
17216.859
16741.421
15817.912
15829.475
16751.39
16311.272
17333.886
16304.239
17305.515
16815.232
15851.102
16793.378
15856.27
15745.966
15070.106
14963.368
15619.243
15883.378
15215.992
15953.749
15308.125
14824.831
14724.838
15600.377
15474.094
15813.731
15742.245
14970.926
15064.536
20758.032
20807.287
18994.091
19052.106
19295.963
19317.5
21138.791
21117.307
5302.6709
5192.1741
5171.7939
5275.4392
20232.628
19899.361
18831.776
18743.953
17167.206
17081.437
17471.501
16215.168
16114.255
17593.178
18998.388
18992.783
17369.883
17325.802
17738.394
17748.618
16354.782
16412.434
17708.17
19366.441
17686.415
19389.702
18123.538
16739.764
16759.064
18132.729
17905.029
19667.199
17903.031
19632.879
18333.457
16878.236
18296.556
16881.793
20170.217
20167.028
18453.82
18434.513
18634.882
18690.768
20366.424
20364.076
5099.5636
4977.9649
5073.7723
5208.8368
19287.666
19491.324
4509.1849
4416.0632
4498.6809
4605.7498
4564.5989
4559.1693
4666.2212
4657.682
20499.016
20507.311
18652.376
18646.504
18269.948
18263.327
20083.034
20045.487
5120.3547
5064.3578
5027.2483
5092.5341
19248.524
19660.067
20057.222
20089.04
18313.525
18339.718
18890.608
18946.568
20658.402
20661.861
5123.9134
5044.2765
5127.5497
5220.7145
19742.789
19228.609
18679.343
18652.904
16997.55
17031.28
17450.385
17390.699
16091.285
16047.453
17628.133
19282.541
17577.248
19290.954
16597.719
18018.48
18041.698
16663.83
4555.8823
4479.0753
4531.2072
4623.4077
4524.2105
4545.0357
4593.4881
4576.2108
17200.155
19013.88
17277.325
18946.503
16258.852
17694.581
17577.332
16156.053
16853.426
18616.141
16908.703
18534.177
15893.287
17302.904
17190.115
15828.859
15543.151
16679.61
15651.068
16550.223
16122.844
15168.976
15046.552
15986.248
16187.422
15231.063
16291.181
15290.842
15738.298
14809.096
15640.635
14752.931
14782.869
15629.359
14919.691
15473.49
14623.817
15419.487
15252.704
14490.746
15149.242
14499.529
15243.57
14560.363
14269.164
15034.204
14934.855
14213.546
15532.365
16528.194
15567.775
16471.292
16057.673
16011.45
15159
15127.77
16122.775
17050.395
16041.361
17098.427
15593.189
16546.554
16610.41
15686.366
14951.598
15643.645
14980.868
15598.274
14745.621
15502.826
15462.829
14726.619
16160.48
15480.331
16087
15389.116
15123.728
15924.659
15993.559
15213.275
3361.6126
3321.0219
3467.7621
3525.1778
3371.5937
3370.3196
3532.6499
3540.2119
3960.0497
4092.6105
4101.6711
3973.3906
3952.4531
3884.1786
3987.5267
4069.3791
3393.5735
3350.3579
3499.9151
3542.1095
4035.907
3922.112
3968.6773
4082.6542
4117.8219
4045.9991
4028.5551
4109.7421
3618.8107
3474.7951
3475.6122
3617.1778
14035.909
13297.572
13267.366
13979.995
14142.553
14150.096
13406.155
13420.244
12658.507
13540.012
12679.564
13503.894
13653.402
12804.626
13651.131
12775.952
13618.159
14367.148
13588.78
14385.681
13802.022
12902.188
12926.952
13827.34
13619.32
14441.577
13653.68
14365.74
13885.664
12969.337
13845.111
12965.272
12889.15
12206.044
12186.893
12855.995
11824.9
12430.886
12440.044
11865.422
12980.548
12996.492
12286.616
12315.542
11927.244
12537.54
11920.218
12527.265
12404.189
13092.152
12386.8
13106.639
11912.445
12586.148
12618.063
11986.993
13150.015
12450.809
13164.738
12447.735
12061.474
12683.154
12671.442
12043.728
12088.285
12769.914
12097.299
12752.84
12318.022
11684.005
11732.972
12317.887
12978.09
12290.416
12980.121
12276.95
12525.359
11930.407
12518.953
11919.675
13652.411
12933.184
12837.752
13515.064
13231.735
13325.45
12656.604
12612.081
12260.076
13174.292
12338.316
13065.578
12853.571
12095.979
12908.275
12110.881
13190.38
13922.739
13190.148
13905.548
13419.304
12566.44
12565.606
13411.432
13437.688
14214.397
13442.849
14181.863
13677.827
12781.526
13660.959
12796.439
12549.521
11880.543
11808.646
12451.684
12320.087
11673.331
12288.586
11665.329
14266.874
14934.503
14262.804
14924.475
14610.002
13691.991
13687.217
14615.756
14621.186
15297.517
14612.794
15312.729
14986.434
13993.205
14960.615
13992.47
15244.742
14658.243
14649.266
15217.853
15636.119
15021.181
15090.397
15700.447
15179.045
14469.616
14470.109
15165.525
15558.586
14814.51
14869.561
15603.46
15099.699
14483.302
14354.179
14942.642
14630.629
14724.556
14144.753
14080.908
14985.066
14259.249
14134.632
14832.968
14520.498
14624.886
13930.741
13862.251
14706.503
14021.023
13905.252
14557.755
14241.44
14351.381
13697.749
13619.525
13422.821
13306.594
14348.463
14220.845
13894.213
14005.43
13103.01
13040.809
14815.45
15501.599
14783.411
15522.598
15124.925
14148.937
14170.318
15164.391
15487.098
14806.478
15541.803
14840.98
15218.461
14207.744
15151.769
14159.54
15330.694
14732.15
14645.335
15215.947
15476.914
14888.301
14965.973
15547.297
14481.605
15268.198
14556.097
15169.463
14773.662
15423.248
14707.829
15478.112
15269.551
15886.11
15259.833
15879.099
15790.02
15031.682
15055.062
15802.623
15238.22
15888.867
15257.984
15852.731
15805.75
15047.903
15759.439
15030.381
15037.316
14362.035
14310.705
14952.584
15188.46
14522.331
15226.537
14570.135
13789.668
13743.322
14724.699
14677.03
14906.622
14891.175
13920.534
13953.04
689.97575
924.83018
906.94455
682.98431
885.59878
893.07661
668.85452
665.17514
511.40083
504.03052
2173.1109
1958.3695
2074.9058
1859.6542
1640.2404
1410.008
1371.6641
1574.4916
1513.6419
1299.3137
1291.9477
1506.1835
1786.2526
1806.0676
2025.1987
2005.622
3130.7947
2998.9359
3038.9924
2892.4758
2659.0026
2492.589
2556.2468
2383.6281
2282.8914
2313.4331
2492.4571
2459.6304
2775.7762
2817.854
2983.7664
2944.5592
2971.5918
2812.7977
2756.2185
2914.4928
2465.0741
2276.5853
2240.2919
2427.281
2299.0354
2293.3027
2482.1979
2478.4345
2975.6192
2816.249
2801.0356
2965.5638
1978.9832
1759.318
1741.9086
1963.9656
1478.2154
1279.0222
1267.1577
1465.2038
1287.2241
1267.7076
1482.778
1492.846
2003.8346
1772.9056
1782.6809
2012.8432
901.12974
912.27241
678.42631
672.74396
901.67526
895.58742
674.40495
676.62014
503.90557
516.97089
1267.6835
1286.3033
1468.8771
1461.9662
1310.3587
1306.297
1534.9015
1521.7419
1797.5537
1824.3204
2049.3805
2023.1833
1731.3238
1957.2185
1983.2135
1751.6525
2309.5945
2336.0016
2511.2487
2494.204
2824.5919
2835.6511
3003.317
2999.8039
2944.3673
2780.0812
2806.0446
2985.9607
2444.6109
2249.2729
2278.3626
2469.4674
2478.1247
2435.2771
2613.4674
2647.2171
2314.545
2293.3438
2473.5807
2512.9877
2974.3647
2807.6751
2861.6632
3024.2041
2977.4169
2954.0452
3104.9397
3118.4836
1402.1718
1350.3475
1575.9868
1628.4155
1290.833
1285.2027
1489.5362
1496.1112
1774.4629
2003.1183
2016.7644
1782.9632
1944.0136
1888.2355
2123.2568
2172.8603
323.71256
328.07859
27719.387
27892.14
27865.583
28003.319
28389.17
28108.982
28244.311
28018.41
18010.016
16935.115
16806.711
17947.793
29635.616
30094.243
36828.402
36367.255
29453.243
28998.43
35509.471
36067.176
26010.723
26335.563
26131.065
26416.242
27831.493
27771.006
27727.493
27698.241
16894.85
16231.175
17164.095
17945.788
29162.365
29217.92
35748.752
35763.482
32690.223
26589.35
27273.54
33620.371
26532.081
26828.871
27345.711
27031.782
27586.049
27924.785
28148.53
28511.978
28838.427
28293.17
28833.336
28260.33
30003.376
29421.134
29469.131
30082
14649.555
14877.562
15902.783
15716.318
14875.149
14452.86
15335.943
15883.179
29010.458
28326.847
28872.464
28459.944
30061.38
29469.294
29630.461
30246.803
29260.441
28906.863
29508.338
28637.13
30804.445
30158.443
29938.298
30603.162
31094.972
31761.236
31957.35
31290.278
30820.136
31098.61
31789.096
31501.938
33323.939
32467.397
33152.78
32649.37
32212.723
32902.887
32510.723
33212.887
31098.012
30422.353
31101.393
30436.084
31818.393
32517.222
32480.674
31793.543
31979.625
31178.491
31878.148
31274.955
32612.253
33323.26
32710.158
33420.651
33852.092
33224.582
33911.478
33172.859
35266.883
34612.413
34548.652
35213.492
34134.832
34829.761
34037.245
34730.467
36099.169
35436.687
35540.512
36209.769
28040.29
28235.08
28187.343
28331.42
28003.165
27712.837
27886.953
27666.561
18309.377
17208.117
16798.734
17888.435
29168.92
29606.77
36221.019
35785.065
30035.793
29445.098
35919.752
36623.701
27379.825
27451.088
27527.694
27553.299
28115.223
28060.638
27967.795
27957.563
17831.042
16782.63
16824.635
17954.609
29579.846
29560.222
36156.46
36253.268
28860.447
28640.871
35063.269
35348.386
28653.721
28794.149
29214.576
29368.824
30002.57
30441.445
30632.853
29829.761
28513.227
28219.54
28839.421
29122.105
29777.364
29503.713
30426.334
30155.304
28553.34
27989.68
28546.529
28000.817
29155.988
29769.482
29786.229
29174.043
29233.596
28625.132
29220.821
28597.294
29862.199
30502.219
29918.116
30583.325
15779.529
14773.943
14677.584
15741.135
14735.068
15097.97
16148.462
15758.002
31572.996
30701.482
31361.717
30900.292
32064.098
32748.861
32965.936
32278.216
31301.935
32015.693
31497.745
32207.902
32952.914
33673.181
32759.997
33478.949
29780.096
28748.77
29369.284
29135.551
30022.546