/*--------------------------------*- C++ -*----------------------------------*\
  =========                 |
  \\      /  F ield         | OpenFOAM: The Open Source CFD Toolbox
   \\    /   O peration     | Website:  https://openfoam.org
    \\  /    A nd           | Version:  7
     \\/     M anipulation  |
\*---------------------------------------------------------------------------*/
FoamFile
{
    version     2.0;
    format      ascii;
    class       volScalarField;
    location    "2000";
    object      p;
}
// * * * * * * * * * * * * * * * * * * * * * * * * * * * * * * * * * * * * * //

dimensions      [0 2 -2 0 0 0 0];

internalField   nonuniform List<scalar> 
34251
(
-6.5766343e+29
-6.6553303e+29
-6.3740504e+29
-6.2482071e+29
-6.3479152e+29
-6.2222023e+29
-5.5192838e+29
-5.9867268e+29
-5.9634512e+29
-6.4330516e+29
-6.4301107e+29
-6.411433e+29
-6.4066607e+29
-6.2637581e+29
-6.2525722e+29
-6.1582607e+29
-6.1696955e+29
-6.226337e+29
-6.2407954e+29
-6.1330337e+29
-6.1467944e+29
-5.7209077e+29
-5.4793921e+29
-5.5009612e+29
-5.7429025e+29
-5.5107504e+29
-5.6315069e+29
-5.5189955e+29
-5.6215741e+29
-5.2945773e+29
-5.3102581e+29
-5.0531833e+29
-5.0682221e+29
-6.0102601e+29
-5.997853e+29
-5.9744958e+29
-5.9862126e+29
-6.3807259e+29
-6.3999989e+29
-6.2858683e+29
-6.2509794e+29
-6.2591345e+29
-6.2946011e+29
-6.3167493e+29
-6.3068761e+29
-6.2972291e+29
-6.3078587e+29
-6.2418525e+29
-6.2289349e+29
-6.2632143e+29
-6.2764839e+29
-6.2833753e+29
-6.2972198e+29
-6.2723209e+29
-6.2864302e+29
-6.1340914e+29
-6.1947851e+29
-6.128194e+29
-6.1827269e+29
-6.1161366e+29
-6.1891818e+29
-6.1226885e+29
-6.0906994e+29
-6.1635215e+29
-6.097994e+29
-6.170088e+29
-6.1763829e+29
-6.1040349e+29
-6.1101651e+29
-5.8323901e+29
-5.8434031e+29
-5.6920784e+29
-5.7034953e+29
-5.4803869e+29
-5.469882e+29
-5.5908649e+29
-5.5794522e+29
-5.2571301e+29
-5.6021829e+29
-5.4915621e+29
-5.5020999e+29
-5.6125829e+29
-5.277449e+29
-5.8542564e+29
-5.8667904e+29
-5.7256337e+29
-5.7138227e+29
-5.0177212e+29
-5.0368881e+29
-5.5147282e+29
-5.5106135e+29
-5.5604269e+29
-5.4052501e+29
-5.564837e+29
-5.6253432e+29
-5.6193377e+29
-5.6765578e+29
-5.5243781e+29
-5.5187356e+29
-5.5751254e+29
-5.5693859e+29
-5.4127185e+29
-5.6144328e+29
-5.6098954e+29
-5.6675605e+29
-5.671945e+29
-5.2908693e+29
-5.2983398e+29
-5.3053379e+29
-5.4200577e+29
-5.5290662e+29
-5.5800239e+29
-5.7249118e+29
-4.8265579e+29
-5.0477578e+29
-5.1786609e+29
-5.1856105e+29
-5.0519407e+29
-4.840989e+29
-5.0577135e+29
-5.1921247e+29
-4.575676e+29
-4.5906316e+29
-6.0295687e+29
-6.0169051e+29
-6.023251e+29
-5.9984187e+29
-6.0044652e+29
-6.0110233e+29
-6.1264261e+29
-6.1451682e+29
-6.155001e+29
-6.1179997e+29
-6.1262003e+29
-6.1631768e+29
-6.2266075e+29
-6.2224337e+29
-6.2406759e+29
-6.2452125e+29
-6.2183403e+29
-6.2127565e+29
-6.2306209e+29
-6.2361974e+29
-6.2418541e+29
-6.2253152e+29
-6.2190703e+29
-6.2359246e+29
-6.2464305e+29
-6.2514649e+29
-6.2304265e+29
-6.1083054e+29
-6.0971442e+29
-6.1339823e+29
-6.145375e+29
-6.1970563e+29
-6.189642e+29
-6.2065229e+29
-6.2140744e+29
-6.2199031e+29
-6.2027487e+29
-6.2078922e+29
-6.2253918e+29
-6.2107131e+29
-6.2184868e+29
-6.2003499e+29
-6.2303625e+29
-6.2243917e+29
-6.2066924e+29
-6.2130054e+29
-6.1524564e+29
-6.1556915e+29
-6.1114887e+29
-6.1081912e+29
-6.139976e+29
-6.1434101e+29
-6.0957815e+29
-6.0991379e+29
-6.10204e+29
-6.1464464e+29
-6.1493276e+29
-6.1051092e+29
-6.1205054e+29
-6.1236854e+29
-6.07673e+29
-6.0799323e+29
-6.127135e+29
-6.1305668e+29
-6.0830655e+29
-6.0863748e+29
-6.1335758e+29
-6.1365919e+29
-6.0892968e+29
-6.0924601e+29
-4.2946181e+29
-5.8229684e+29
-5.9096541e+29
-5.8345177e+29
-5.8282578e+29
-5.9216661e+29
-5.9152192e+29
-5.7530597e+29
-5.6863561e+29
-5.6982011e+29
-5.6919649e+29
-5.758584e+29
-5.7643981e+29
-5.4854817e+29
-5.4788616e+29
-5.5286191e+29
-5.5350212e+29
-5.3761728e+29
-5.4684278e+29
-5.4737893e+29
-5.5232854e+29
-5.3660021e+29
-5.584412e+29
-5.5777748e+29
-5.6348543e+29
-5.6413776e+29
-5.5722698e+29
-5.6292498e+29
-5.2636639e+29
-5.2534634e+29
-5.646567e+29
-5.5951601e+29
-5.5898989e+29
-5.6513292e+29
-5.4911268e+29
-5.546129e+29
-5.5405461e+29
-5.4963641e+29
-5.3866706e+29
-5.5063433e+29
-5.501131e+29
-5.5508297e+29
-5.3973359e+29
-5.556145e+29
-5.6057213e+29
-5.6630492e+29
-5.5999338e+29
-5.6567874e+29
-5.2731368e+29
-5.2841416e+29
-5.8458406e+29
-5.839666e+29
-5.9338925e+29
-5.92745e+29
-5.9402702e+29
-5.8584642e+29
-5.8520547e+29
-5.9465599e+29
-5.7813064e+29
-5.7138425e+29
-5.720384e+29
-5.7875711e+29
-5.7691271e+29
-5.7077451e+29
-5.7026345e+29
-5.7749626e+29
-4.7916176e+29
-5.0136388e+29
-5.1432336e+29
-5.1532892e+29
-5.0217487e+29
-4.8097253e+29
-5.0306477e+29
-5.1622259e+29
-5.1729302e+29
-5.0419598e+29
-4.5418126e+29
-4.559595e+29
-5.5356141e+29
-5.5378934e+29
-5.4673209e+29
-5.5133603e+29
-5.5112228e+29
-5.5316506e+29
-5.5337901e+29
-5.4636428e+29
-5.509365e+29
-5.5072737e+29
-5.5552975e+29
-5.5809302e+29
-5.5573944e+29
-5.5829398e+29
-5.4178701e+29
-5.4145197e+29
-5.5591818e+29
-5.5848683e+29
-5.5616736e+29
-5.5874297e+29
-5.6203288e+29
-5.6236076e+29
-5.6470563e+29
-5.6500578e+29
-5.6149158e+29
-5.6415824e+29
-5.6175233e+29
-5.6442523e+29
-5.6683467e+29
-5.6978343e+29
-5.6709203e+29
-5.7001514e+29
-5.5452814e+29
-5.5487471e+29
-5.4760215e+29
-5.5239931e+29
-5.5204905e+29
-5.5398492e+29
-5.542531e+29
-5.4707194e+29
-5.5176818e+29
-5.5152365e+29
-5.5691585e+29
-5.5950728e+29
-5.5726643e+29
-5.5984889e+29
-5.5637564e+29
-5.5897245e+29
-5.5664758e+29
-5.5923079e+29
-5.4205694e+29
-5.425732e+29
-5.6099343e+29
-5.636849e+29
-5.6125224e+29
-5.6392885e+29
-5.6058389e+29
-5.632599e+29
-5.6079158e+29
-5.6347872e+29
-5.6596865e+29
-5.68951e+29
-5.6618539e+29
-5.6916041e+29
-5.6638186e+29
-5.6935427e+29
-5.6662327e+29
-5.6958404e+29
-5.3232291e+29
-5.321636e+29
-5.3686807e+29
-5.3714439e+29
-5.3298157e+29
-5.3258802e+29
-5.374049e+29
-5.3787217e+29
-5.3365483e+29
-5.3332763e+29
-5.3827475e+29
-5.3860612e+29
-5.4804708e+29
-5.429663e+29
-5.4833233e+29
-5.4327231e+29
-5.3398391e+29
-5.5553916e+29
-5.5304609e+29
-5.5514231e+29
-5.5538325e+29
-5.5289014e+29
-5.5267957e+29
-5.5752294e+29
-5.6011345e+29
-5.5776965e+29
-5.7224829e+29
-5.7183968e+29
-5.7499957e+29
-5.7205359e+29
-4.9120883e+29
-4.9093301e+29
-4.7342568e+29
-4.7352643e+29
-5.0829646e+29
-5.084546e+29
-5.1586494e+29
-5.1583216e+29
-5.2721968e+29
-5.2159971e+29
-5.2168856e+29
-5.2734711e+29
-5.2761768e+29
-5.2190899e+29
-5.2221206e+29
-5.2791652e+29
-5.0864299e+29
-5.083661e+29
-5.1624598e+29
-5.1598857e+29
-4.7418755e+29
-4.9182334e+29
-4.755081e+29
-5.0907136e+29
-5.0873674e+29
-5.1686355e+29
-5.1648283e+29
-5.2251457e+29
-5.2286598e+29
-5.2825863e+29
-5.2859195e+29
-5.2331329e+29
-5.2895773e+29
-4.5129173e+29
-4.527121e+29
-6.0464657e+29
-6.0496789e+29
-6.0338141e+29
-6.0367365e+29
-6.0397749e+29
-6.043338e+29
-6.0144021e+29
-6.0179057e+29
-6.0210297e+29
-6.02402e+29
-6.0271533e+29
-6.0307588e+29
-5.8642728e+29
-5.8834753e+29
-6.022634e+29
-6.1530183e+29
-6.1478721e+29
-5.9917903e+29
-5.9999758e+29
-6.0305806e+29
-6.157273e+29
-6.1614079e+29
-6.1814129e+29
-6.1857833e+29
-6.1716002e+29
-6.1766521e+29
-6.1994964e+29
-6.2018956e+29
-6.2043705e+29
-6.2070617e+29
-6.1972455e+29
-6.1999483e+29
-6.1764904e+29
-6.1793198e+29
-6.1913458e+29
-6.1945982e+29
-6.170172e+29
-6.1735507e+29
-6.19873e+29
-6.1969942e+29
-6.1940278e+29
-6.2018783e+29
-6.2045042e+29
-6.2071581e+29
-6.2096139e+29
-6.2125211e+29
-6.2093419e+29
-6.2115372e+29
-6.2147877e+29
-6.2027406e+29
-6.2057964e+29
-6.1856216e+29
-6.1824162e+29
-5.9827449e+29
-5.9718593e+29
-6.0036417e+29
-6.126184e+29
-6.1328893e+29
-6.0138797e+29
-6.1432306e+29
-6.1383619e+29
-6.1488509e+29
-6.1556628e+29
-6.161485e+29
-6.1665135e+29
-6.1733957e+29
-6.1694284e+29
-6.1772778e+29
-6.1806034e+29
-6.1840276e+29
-6.1799773e+29
-6.1768185e+29
-6.1726661e+29
-6.1759547e+29
-6.150761e+29
-6.1539882e+29
-6.192928e+29
-6.1958658e+29
-6.1911593e+29
-6.1885875e+29
-6.1870652e+29
-6.1903553e+29
-6.1860782e+29
-6.1830451e+29
-6.1791792e+29
-6.1825811e+29
-6.1574979e+29
-6.1609835e+29
-6.1853405e+29
-6.1882559e+29
-6.1638914e+29
-6.1668761e+29
-4.2696805e+29
-6.1174599e+29
-6.1158702e+29
-6.0947753e+29
-6.0963557e+29
-6.1207353e+29
-6.119075e+29
-6.0978471e+29
-6.099665e+29
-6.1051696e+29
-6.1033579e+29
-6.0821904e+29
-6.0839463e+29
-6.1080787e+29
-6.106762e+29
-6.0854163e+29
-6.0869166e+29
-6.1112331e+29
-6.1096083e+29
-6.0883596e+29
-6.0899295e+29
-6.1141697e+29
-6.1127455e+29
-6.0913546e+29
-6.0930333e+29
-6.0852705e+29
-6.0834787e+29
-6.0626384e+29
-6.0642888e+29
-6.0883767e+29
-6.0868524e+29
-6.0657924e+29
-6.0675532e+29
-6.0920242e+29
-6.0901319e+29
-6.0693008e+29
-6.071021e+29
-6.0950672e+29
-6.0935962e+29
-6.0724338e+29
-6.0740288e+29
-6.0984547e+29
-6.0966516e+29
-6.0754934e+29
-6.0771722e+29
-6.1015024e+29
-6.0999941e+29
-6.0786298e+29
-6.0803797e+29
-4.2619384e+29
-5.814203e+29
-5.8568827e+29
-5.817697e+29
-5.8601008e+29
-5.9017059e+29
-5.9572586e+29
-5.9050952e+29
-5.9606776e+29
-5.8264111e+29
-5.8294968e+29
-5.8692914e+29
-5.8723327e+29
-5.8205103e+29
-5.8235625e+29
-5.8630157e+29
-5.8663148e+29
-5.9143328e+29
-5.9699692e+29
-5.9177186e+29
-5.9735263e+29
-5.9081117e+29
-5.9113869e+29
-5.9638103e+29
-5.966903e+29
-5.7414334e+29
-5.7449812e+29
-5.7777636e+29
-5.7812443e+29
-5.6786419e+29
-5.6819862e+29
-5.7099139e+29
-5.7132746e+29
-5.6935532e+29
-5.6905944e+29
-5.7218532e+29
-5.7246112e+29
-5.6847433e+29
-5.6877501e+29
-5.716009e+29
-5.7190664e+29
-5.7476683e+29
-5.7506488e+29
-5.7840707e+29
-5.7870365e+29
-5.7533319e+29
-5.7562652e+29
-5.7897928e+29
-5.7928086e+29
-5.5052154e+29
-5.5089427e+29
-5.438505e+29
-5.4847758e+29
-5.4808449e+29
-5.4992982e+29
-5.502219e+29
-5.4315384e+29
-5.4779531e+29
-5.475011e+29
-5.5228248e+29
-5.5482274e+29
-5.5257215e+29
-5.5511014e+29
-5.528764e+29
-5.5541793e+29
-5.5323996e+29
-5.5577371e+29
-5.3821416e+29
-5.3894805e+29
-5.4911616e+29
-5.4219259e+29
-5.4637289e+29
-5.4666675e+29
-5.4937624e+29
-5.4967491e+29
-5.4268914e+29
-5.4693429e+29
-5.4725574e+29
-5.5172427e+29
-5.5202108e+29
-5.5424588e+29
-5.5455674e+29
-5.3780516e+29
-5.3733757e+29
-5.5790526e+29
-5.5825862e+29
-5.6057234e+29
-5.6090686e+29
-5.5729936e+29
-5.5995415e+29
-5.5759571e+29
-5.6026284e+29
-5.626427e+29
-5.6559655e+29
-5.6295195e+29
-5.6589812e+29
-5.632502e+29
-5.6619104e+29
-5.6358185e+29
-5.6650396e+29
-5.570343e+29
-5.5968238e+29
-5.6236638e+29
-5.6498137e+29
-5.6531667e+29
-5.2451062e+29
-5.2955959e+29
-5.2888017e+29
-5.3363011e+29
-5.343279e+29
-5.2821799e+29
-5.2849547e+29
-5.3282661e+29
-5.3322743e+29
-5.1348784e+29
-5.0049465e+29
-5.6381969e+29
-5.667182e+29
-5.6405013e+29
-5.6693134e+29
-5.5902e+29
-5.5928368e+29
-5.6163388e+29
-5.6189612e+29
-5.5852947e+29
-5.6116239e+29
-5.587907e+29
-5.6141259e+29
-5.6425913e+29
-5.6454544e+29
-5.6715953e+29
-5.674687e+29
-5.5117269e+29
-5.5146429e+29
-5.4443143e+29
-5.4903723e+29
-5.4877718e+29
-5.5407158e+29
-5.5657196e+29
-5.543389e+29
-5.5683542e+29
-5.5350509e+29
-5.56046e+29
-5.5380756e+29
-5.5632292e+29
-5.5171746e+29
-5.5198295e+29
-5.4494555e+29
-5.4928534e+29
-5.4956281e+29
-5.4005148e+29
-5.3953848e+29
-5.5265731e+29
-5.5294933e+29
-5.4594393e+29
-5.5050723e+29
-5.5022609e+29
-5.521753e+29
-5.5241837e+29
-5.4542552e+29
-5.4999077e+29
-5.4976606e+29
-5.5452168e+29
-5.570525e+29
-5.547686e+29
-5.573005e+29
-5.4056546e+29
-5.4111031e+29
-5.5500954e+29
-5.5755952e+29
-5.5531968e+29
-5.5787242e+29
-5.6005334e+29
-5.6273179e+29
-5.6036584e+29
-5.6303722e+29
-5.6542469e+29
-5.6838965e+29
-5.6574444e+29
-5.6871653e+29
-5.5951711e+29
-5.6215329e+29
-5.5978098e+29
-5.6244604e+29
-5.6482535e+29
-5.6777042e+29
-5.6513446e+29
-5.6808821e+29
-5.3071949e+29
-5.3010462e+29
-5.3491151e+29
-5.3545601e+29
-5.3123862e+29
-5.3599177e+29
-5.3657202e+29
-5.3182345e+29
-5.8375686e+29
-5.8411992e+29
-5.8809797e+29
-5.8845144e+29
-5.8318683e+29
-5.8748248e+29
-5.8345755e+29
-5.877845e+29
-5.9264985e+29
-5.9825031e+29
-5.930281e+29
-5.986216e+29
-5.9203834e+29
-5.9764934e+29
-5.923419e+29
-5.9794213e+29
-5.9334452e+29
-5.9894305e+29
-5.9367734e+29
-5.9926698e+29
-5.8505824e+29
-5.8536878e+29
-5.8940816e+29
-5.8971086e+29
-5.8442847e+29
-5.8875627e+29
-5.8475206e+29
-5.8909364e+29
-5.939793e+29
-5.9430922e+29
-5.7703157e+29
-5.807347e+29
-5.7736737e+29
-5.8105726e+29
-5.7064604e+29
-5.7097432e+29
-5.7380959e+29
-5.7415095e+29
-5.7128123e+29
-5.7161017e+29
-5.7445939e+29
-5.7477238e+29
-5.7766127e+29
-5.7797957e+29
-5.8135803e+29
-5.8167246e+29
-5.7584252e+29
-5.7951148e+29
-5.7608991e+29
-5.7976607e+29
-5.7001729e+29
-5.7034334e+29
-5.731689e+29
-5.7349945e+29
-5.6954584e+29
-5.7265887e+29
-5.6976661e+29
-5.7290109e+29
-5.7636024e+29
-5.76715e+29
-5.8005322e+29
-5.8041636e+29
-4.8752783e+29
-4.8812808e+29
-4.7005686e+29
-4.7036896e+29
-5.1241828e+29
-5.04886e+29
-5.0505191e+29
-5.1259364e+29
-5.2343226e+29
-5.18093e+29
-5.1827104e+29
-5.2368687e+29
-5.2408203e+29
-5.1869674e+29
-5.1919904e+29
-5.2466543e+29
-5.1297301e+29
-5.054448e+29
-5.0599093e+29
-5.1342593e+29
-4.9023431e+29
-4.8901995e+29
-4.7119596e+29
-4.7266878e+29
-5.0680279e+29
-5.0634101e+29
-5.1382169e+29
-5.143846e+29
-5.1959067e+29
-5.2517608e+29
-5.2578824e+29
-5.2016951e+29
-5.214119e+29
-5.2081109e+29
-5.2632762e+29
-5.2691158e+29
-5.0831557e+29
-5.0747564e+29
-5.1503987e+29
-5.1567741e+29
-4.4805322e+29
-4.4975706e+29
-5.5324405e+29
-5.5332829e+29
-5.5463601e+29
-5.5472336e+29
-5.548465e+29
-5.5495758e+29
-5.5343549e+29
-5.5353799e+29
-5.4900417e+29
-5.4681571e+29
-5.4701951e+29
-5.4921488e+29
-5.5159325e+29
-5.5140496e+29
-5.5284844e+29
-5.5296234e+29
-5.5424856e+29
-5.5436018e+29
-5.5447316e+29
-5.545665e+29
-5.5307087e+29
-5.5316239e+29
-5.4664652e+29
-5.4644772e+29
-5.4862805e+29
-5.4882944e+29
-5.5123102e+29
-5.5101721e+29
-5.554213e+29
-5.5553642e+29
-5.5673455e+29
-5.5662018e+29
-5.578317e+29
-5.5794412e+29
-5.5909428e+29
-5.5920439e+29
-5.5693477e+29
-5.5564334e+29
-5.5683156e+29
-5.5574018e+29
-5.5930139e+29
-5.5803887e+29
-5.5814705e+29
-5.5940819e+29
-5.4279057e+29
-5.4262416e+29
-5.4474406e+29
-5.4492826e+29
-5.4246348e+29
-5.4230048e+29
-5.4438603e+29
-5.4457503e+29
-5.5711975e+29
-5.5581149e+29
-5.5702012e+29
-5.5590617e+29
-5.5950421e+29
-5.5823628e+29
-5.5833758e+29
-5.5960497e+29
-5.5735329e+29
-5.5602547e+29
-5.5722767e+29
-5.5614345e+29
-5.597181e+29
-5.5844482e+29
-5.58578e+29
-5.5985253e+29
-5.6174625e+29
-5.6302698e+29
-5.6317655e+29
-5.6189628e+29
-5.62217e+29
-5.6204834e+29
-5.6332481e+29
-5.6348549e+29
-5.6577841e+29
-5.6428683e+29
-5.656329e+29
-5.6443434e+29
-5.6473372e+29
-5.6606573e+29
-5.645738e+29
-5.6591249e+29
-5.6263123e+29
-5.6121452e+29
-5.6249832e+29
-5.6134351e+29
-5.6376065e+29
-5.6510825e+29
-5.6522043e+29
-5.6388289e+29
-5.6289628e+29
-5.614624e+29
-5.6274856e+29
-5.6161178e+29
-5.6400621e+29
-5.6534723e+29
-5.6415635e+29
-5.6549889e+29
-5.6794448e+29
-5.6642844e+29
-5.6783308e+29
-5.6653905e+29
-5.7073799e+29
-5.6923365e+29
-5.6933895e+29
-5.7083642e+29
-5.6681378e+29
-5.6820777e+29
-5.6666288e+29
-5.6806444e+29
-5.7094248e+29
-5.6944976e+29
-5.6959009e+29
-5.7107312e+29
-5.5417476e+29
-5.5432716e+29
-5.55586e+29
-5.5574033e+29
-5.5592403e+29
-5.5609228e+29
-5.5450156e+29
-5.5467068e+29
-5.4988572e+29
-5.4763767e+29
-5.4799239e+29
-5.5024377e+29
-5.5267937e+29
-5.5234261e+29
-5.5362691e+29
-5.537395e+29
-5.5504317e+29
-5.5515971e+29
-5.5531363e+29
-5.5546332e+29
-5.5388628e+29
-5.54037e+29
-5.4939768e+29
-5.4718688e+29
-5.4737634e+29
-5.4961412e+29
-5.520495e+29
-5.51778e+29
-5.567763e+29
-5.5693653e+29
-5.5799765e+29
-5.5815622e+29
-5.593807e+29
-5.6050337e+29
-5.6065534e+29
-5.5922447e+29
-5.5711092e+29
-5.572781e+29
-5.5848236e+29
-5.5831549e+29
-5.5953438e+29
-5.5970578e+29
-5.6080936e+29
-5.6098152e+29
-5.5758398e+29
-5.5623439e+29
-5.5745742e+29
-5.5635845e+29
-5.586881e+29
-5.5996972e+29
-5.6009324e+29
-5.5881309e+29
-5.5786485e+29
-5.5650384e+29
-5.5771306e+29
-5.5665409e+29
-5.5893655e+29
-5.6021581e+29
-5.5909009e+29
-5.6036524e+29
-5.4507215e+29
-5.4289368e+29
-5.4304496e+29
-5.4523963e+29
-5.4366476e+29
-5.4331112e+29
-5.4550289e+29
-5.4584709e+29
-5.6213004e+29
-5.6073835e+29
-5.6202118e+29
-5.6084267e+29
-5.6329539e+29
-5.6465972e+29
-5.6476145e+29
-5.6340202e+29
-5.6109465e+29
-5.6237999e+29
-5.6095734e+29
-5.6224371e+29
-5.6351185e+29
-5.6486984e+29
-5.6364873e+29
-5.650029e+29
-5.6171531e+29
-5.6032236e+29
-5.6159911e+29
-5.6043482e+29
-5.6286896e+29
-5.6298355e+29
-5.6423062e+29
-5.6434261e+29
-5.6192513e+29
-5.6053355e+29
-5.61815e+29
-5.6064271e+29
-5.6444505e+29
-5.630837e+29
-5.6319922e+29
-5.6456212e+29
-5.6710095e+29
-5.6556291e+29
-5.6698131e+29
-5.6567737e+29
-5.6839514e+29
-5.6851202e+29
-5.6991094e+29
-5.7002532e+29
-5.6589603e+29
-5.6731356e+29
-5.6578012e+29
-5.6720294e+29
-5.7012455e+29
-5.6861041e+29
-5.6872438e+29
-5.7023768e+29
-5.6751483e+29
-5.6599156e+29
-5.6740882e+29
-5.660936e+29
-5.7033134e+29
-5.6881817e+29
-5.6892033e+29
-5.7042844e+29
-5.6632857e+29
-5.6773756e+29
-5.6620005e+29
-5.6761893e+29
-5.7052935e+29
-5.6902051e+29
-5.6914094e+29
-5.7064754e+29
-5.3466979e+29
-5.3460967e+29
-5.3667085e+29
-5.3659598e+29
-5.3457112e+29
-5.3453625e+29
-5.3643038e+29
-5.3651046e+29
-5.3837698e+29
-5.3826211e+29
-5.4029114e+29
-5.404248e+29
-5.40573e+29
-5.3849774e+29
-5.3860704e+29
-5.4072186e+29
-5.3534592e+29
-5.3503753e+29
-5.3742619e+29
-5.3709321e+29
-5.3480754e+29
-5.3471039e+29
-5.3682599e+29
-5.3670321e+29
-5.4079041e+29
-5.3864746e+29
-5.3878464e+29
-5.4092362e+29
-5.4119391e+29
-5.3905546e+29
-5.3941319e+29
-5.4155971e+29
-5.3600134e+29
-5.3581221e+29
-5.3792312e+29
-5.3810621e+29
-5.3568086e+29
-5.3554947e+29
-5.3764921e+29
-5.3779655e+29
-5.4180671e+29
-5.3965031e+29
-5.3980243e+29
-5.4195568e+29
-5.40103e+29
-5.3993033e+29
-5.4208322e+29
-5.4225108e+29
-5.505328e+29
-5.4826173e+29
-5.4844151e+29
-5.5072129e+29
-5.4609773e+29
-5.4390382e+29
-5.4406102e+29
-5.4627125e+29
-5.5086457e+29
-5.4856901e+29
-5.4867586e+29
-5.5096915e+29
-5.4639788e+29
-5.4419136e+29
-5.4433797e+29
-5.465206e+29
-5.363026e+29
-5.3613225e+29
-5.3821913e+29
-5.3837676e+29
-5.552496e+29
-5.5531186e+29
-5.5666966e+29
-5.567357e+29
-5.5337299e+29
-5.5480269e+29
-5.5493504e+29
-5.5621385e+29
-5.5634762e+29
-5.5649325e+29
-5.5660555e+29
-5.5507079e+29
-5.5517974e+29
-5.5322114e+29
-5.529716e+29
-5.5875699e+29
-5.5739939e+29
-5.5861774e+29
-5.5753793e+29
-5.5984189e+29
-5.5997702e+29
-5.6111555e+29
-5.6124417e+29
-5.5899595e+29
-5.5767416e+29
-5.5887701e+29
-5.5779069e+29
-5.7342378e+29
-5.7178114e+29
-5.7332203e+29
-5.7187916e+29
-5.7302046e+29
-5.7136e+29
-5.7289925e+29
-5.7147604e+29
-5.7441026e+29
-5.7452839e+29
-5.7606419e+29
-5.7617865e+29
-5.7323065e+29
-5.7157649e+29
-5.7312207e+29
-5.7168946e+29
-4.992509e+29
-4.9960312e+29
-4.8754054e+29
-4.8693521e+29
-4.9951603e+29
-4.9920721e+29
-4.8692295e+29
-4.8747445e+29
-4.7093349e+29
-4.7096722e+29
-5.1240738e+29
-5.1236827e+29
-5.1689927e+29
-5.1683378e+29
-5.1262789e+29
-5.129257e+29
-5.1722405e+29
-5.1702305e+29
-5.2009356e+29
-5.201797e+29
-5.2323205e+29
-5.2321037e+29
-5.20221e+29
-5.2041423e+29
-5.2339706e+29
-5.2327756e+29
-5.3257277e+29
-5.3042668e+29
-5.3041866e+29
-5.3256955e+29
-5.2830159e+29
-5.2596948e+29
-5.2589464e+29
-5.2826948e+29
-5.2588041e+29
-5.2586535e+29
-5.2825601e+29
-5.2830123e+29
-5.3257645e+29
-5.3040756e+29
-5.3046637e+29
-5.3264264e+29
-5.3270932e+29
-5.3054719e+29
-5.3057392e+29
-5.3275651e+29
-5.2834853e+29
-5.2591547e+29
-5.2593515e+29
-5.283787e+29
-5.2630814e+29
-5.2609157e+29
-5.2852447e+29
-5.2875984e+29
-5.3292803e+29
-5.3070919e+29
-5.3096775e+29
-5.3322297e+29
-5.1288709e+29
-5.1250584e+29
-5.1702323e+29
-5.1722608e+29
-5.1235257e+29
-5.1232833e+29
-5.1680831e+29
-5.1682448e+29
-5.2047887e+29
-5.2032286e+29
-5.2340143e+29
-5.2359882e+29
-5.200995e+29
-5.2013079e+29
-5.232365e+29
-5.2323284e+29
-4.7164017e+29
-4.878196e+29
-4.9977437e+29
-5.0006996e+29
-4.8795511e+29
-5.1322241e+29
-5.1278446e+29
-5.1743349e+29
-5.1775357e+29
-5.1267925e+29
-5.1282283e+29
-5.172926e+29
-5.1728921e+29
-5.2111387e+29
-5.2081915e+29
-5.2396741e+29
-5.2425076e+29
-5.2065643e+29
-5.2062973e+29
-5.2375351e+29
-5.2381056e+29
-5.2644744e+29
-5.2652215e+29
-5.290195e+29
-5.2892339e+29
-5.2694119e+29
-5.2667527e+29
-5.2940961e+29
-5.2916731e+29
-5.3114897e+29
-5.3342796e+29
-5.3353826e+29
-5.3125777e+29
-5.313941e+29
-5.3367008e+29
-5.3387513e+29
-5.3161348e+29
-5.2961001e+29
-5.2716921e+29
-5.2742403e+29
-5.2982174e+29
-5.3197589e+29
-5.317865e+29
-5.3402376e+29
-5.3419383e+29
-5.2142154e+29
-5.2451692e+29
-4.4939665e+29
-4.5083808e+29
-6.0562448e+29
-6.0576982e+29
-6.0593072e+29
-6.0614407e+29
-6.0434888e+29
-6.0449767e+29
-6.0463811e+29
-6.0480833e+29
-6.0495804e+29
-6.0511121e+29
-6.052702e+29
-6.0546567e+29
-6.0237488e+29
-6.0252427e+29
-6.0268192e+29
-6.028827e+29
-6.0304509e+29
-6.0320217e+29
-6.0334139e+29
-6.0352102e+29
-6.0367127e+29
-6.0383176e+29
-6.0399316e+29
-6.0419014e+29
-5.6006325e+29
-5.8483964e+29
-5.8372638e+29
-5.6201618e+29
-5.8563203e+29
-5.8644161e+29
-5.364612e+29
-6.0871066e+29
-6.0824498e+29
-5.8924126e+29
-6.0120411e+29
-6.0159691e+29
-6.0950919e+29
-6.0911875e+29
-5.9003571e+29
-6.0199171e+29
-6.0237115e+29
-5.7805794e+29
-6.1290425e+29
-6.1269686e+29
-6.1378201e+29
-6.1400991e+29
-6.1736491e+29
-6.1761471e+29
-6.1333194e+29
-6.1310013e+29
-6.1422726e+29
-6.1784266e+29
-6.1445049e+29
-6.1197005e+29
-6.1173972e+29
-6.1281904e+29
-6.1305931e+29
-6.1635785e+29
-6.1662726e+29
-6.1248247e+29
-6.1220743e+29
-6.1330235e+29
-6.1354933e+29
-6.1687218e+29
-6.1711336e+29
-6.1832293e+29
-6.18098e+29
-6.1846697e+29
-6.1825418e+29
-6.1836613e+29
-6.1846096e+29
-6.1869847e+29
-6.1857748e+29
-6.1746228e+29
-6.1809321e+29
-6.1823774e+29
-6.1761316e+29
-6.1834433e+29
-6.1847742e+29
-6.1786624e+29
-6.1772445e+29
-6.1339069e+29
-6.1608433e+29
-6.1625127e+29
-6.1355742e+29
-6.137032e+29
-6.1637396e+29
-6.1650955e+29
-6.1383957e+29
-6.1752605e+29
-6.1770487e+29
-6.1686826e+29
-6.1705611e+29
-6.1719502e+29
-6.1783648e+29
-6.1796613e+29
-6.1733526e+29
-6.1276559e+29
-6.1546318e+29
-6.1565924e+29
-6.1294472e+29
-6.1594851e+29
-6.1582204e+29
-6.1309486e+29
-6.1322798e+29
-6.175516e+29
-6.1773422e+29
-6.1794195e+29
-6.1776727e+29
-6.1807706e+29
-6.178713e+29
-6.1796538e+29
-6.1819515e+29
-6.188399e+29
-6.1860526e+29
-6.1899828e+29
-6.1877387e+29
-6.188984e+29
-6.1898748e+29
-6.1912231e+29
-6.1924056e+29
-6.1936877e+29
-6.1911485e+29
-6.1926498e+29
-6.1950675e+29
-6.1801315e+29
-6.1862357e+29
-6.1878458e+29
-6.1818412e+29
-6.1903866e+29
-6.1890734e+29
-6.1844531e+29
-6.1831432e+29
-6.1699005e+29
-6.1433235e+29
-6.1448495e+29
-6.1711116e+29
-6.1400557e+29
-6.1666323e+29
-6.1684557e+29
-6.1417669e+29
-6.0685168e+29
-6.0620576e+29
-5.8749948e+29
-5.9928688e+29
-5.9994329e+29
-6.0781269e+29
-6.073604e+29
-5.8848511e+29
-6.0039116e+29
-6.0081294e+29
-6.0989588e+29
-6.0955881e+29
-6.1092348e+29
-6.1057823e+29
-6.1435362e+29
-6.1054472e+29
-6.1019825e+29
-6.1124263e+29
-6.1157434e+29
-6.1500925e+29
-6.1468785e+29
-6.1105751e+29
-6.1081789e+29
-6.121148e+29
-6.1186004e+29
-6.155823e+29
-6.1530371e+29
-6.1152495e+29
-6.1126909e+29
-6.1234399e+29
-6.1258139e+29
-6.1609021e+29
-6.1583369e+29
-6.1547224e+29
-6.1561982e+29
-6.1579862e+29
-6.1562657e+29
-6.1579177e+29
-6.1599393e+29
-6.1615322e+29
-6.1596396e+29
-6.1614445e+29
-6.1627086e+29
-6.1644887e+29
-6.1629749e+29
-6.156858e+29
-6.1587138e+29
-6.1497624e+29
-6.151626e+29
-6.1600839e+29
-6.1616825e+29
-6.1530467e+29
-6.1546956e+29
-6.1075846e+29
-6.1351274e+29
-6.1371592e+29
-6.1093908e+29
-6.1401954e+29
-6.1386822e+29
-6.1109037e+29
-6.112453e+29
-6.1700019e+29
-6.1716921e+29
-6.1735327e+29
-6.1719205e+29
-6.1729087e+29
-6.1739912e+29
-6.1761299e+29
-6.1747497e+29
-6.1642965e+29
-6.1661967e+29
-6.1678703e+29
-6.1660678e+29
-6.167587e+29
-6.1686252e+29
-6.1705536e+29
-6.1692433e+29
-6.1633122e+29
-6.1651117e+29
-6.1563132e+29
-6.1581703e+29
-6.1664597e+29
-6.1679046e+29
-6.1595833e+29
-6.1611269e+29
-6.1143709e+29
-6.1418304e+29
-6.1439119e+29
-6.1162678e+29
-6.1469281e+29
-6.145507e+29
-6.1178136e+29
-6.1193136e+29
-6.1693152e+29
-6.1709482e+29
-6.1625474e+29
-6.1642768e+29
-6.1721438e+29
-6.1736514e+29
-6.1655527e+29
-6.1670808e+29
-6.1210064e+29
-6.1483101e+29
-6.1502329e+29
-6.1228022e+29
-6.1530232e+29
-6.1516686e+29
-6.1243093e+29
-6.125823e+29
-4.5185091e+29
-4.2360204e+29
-6.071963e+29
-6.0704263e+29
-6.0756343e+29
-6.073731e+29
-6.0593112e+29
-6.0576611e+29
-6.0622588e+29
-6.0608009e+29
-6.0654782e+29
-6.0638938e+29
-6.0686539e+29
-6.0670362e+29
-6.0394067e+29
-6.0378141e+29
-6.0426158e+29
-6.040936e+29
-6.0461696e+29
-6.0444246e+29
-6.0492596e+29
-6.0476738e+29
-6.0526346e+29
-6.0509401e+29
-6.0558421e+29
-6.0541981e+29
-5.8307656e+29
-5.8082742e+29
-5.8289874e+29
-5.8099698e+29
-5.8497117e+29
-5.8738966e+29
-5.8754201e+29
-5.8513322e+29
-5.8342098e+29
-5.8116255e+29
-5.8323635e+29
-5.8134823e+29
-5.8528522e+29
-5.8769063e+29
-5.8547303e+29
-5.878701e+29
-5.9273688e+29
-5.8978214e+29
-5.925865e+29
-5.8993063e+29
-5.988689e+29
-5.9546568e+29
-5.956116e+29
-5.990137e+29
-5.9026782e+29
-5.930779e+29
-5.9008242e+29
-5.9289637e+29
-5.9917054e+29
-5.9576617e+29
-5.9596396e+29
-5.9937264e+29
-5.8209515e+29
-5.8418191e+29
-5.8434212e+29
-5.8224353e+29
-5.8252331e+29
-5.8237107e+29
-5.8446673e+29
-5.8461248e+29
-5.862555e+29
-5.8867518e+29
-5.8881934e+29
-5.8640518e+29
-5.8669652e+29
-5.8653848e+29
-5.8896566e+29
-5.8913196e+29
-5.81494e+29
-5.8356543e+29
-5.8374661e+29
-5.8166049e+29
-5.8180155e+29
-5.8388947e+29
-5.84056e+29
-5.8196863e+29
-5.8819675e+29
-5.8562411e+29
-5.8803156e+29
-5.8579556e+29
-5.8853127e+29
-5.8594726e+29
-5.8835716e+29
-5.8611873e+29
-5.940351e+29
-5.9106674e+29
-5.9387185e+29
-5.9121771e+29
-6.001643e+29
-5.9675377e+29
-5.9691557e+29
-6.0032463e+29
-5.9154543e+29
-5.9436964e+29
-5.9137104e+29
-5.9419688e+29
-6.0048602e+29
-5.970747e+29
-5.9726582e+29
-6.0068339e+29
-5.9042403e+29
-5.9323251e+29
-5.934004e+29
-5.9058912e+29
-5.9074885e+29
-5.9355878e+29
-5.9092569e+29
-5.9372514e+29
-5.9953217e+29
-5.996883e+29
-5.9611932e+29
-5.9627816e+29
-5.9660414e+29
-5.9642387e+29
-5.9983085e+29
-6.0001259e+29
-5.7548367e+29
-5.7356073e+29
-5.7530259e+29
-5.7373377e+29
-5.7390428e+29
-5.7564899e+29
-5.7582512e+29
-5.7408579e+29
-5.7703256e+29
-5.789641e+29
-5.7720481e+29
-5.7913027e+29
-5.7929712e+29
-5.7947925e+29
-5.7736632e+29
-5.7754981e+29
-5.690349e+29
-5.673478e+29
-5.6886796e+29
-5.6750719e+29
-5.6766093e+29
-5.6918876e+29
-5.6936276e+29
-5.6783871e+29
-5.7035305e+29
-5.7197447e+29
-5.7051541e+29
-5.7213727e+29
-5.7230829e+29
-5.7249219e+29
-5.7067651e+29
-5.7085657e+29
-5.6882932e+29
-5.6896685e+29
-5.7047386e+29
-5.7034447e+29
-5.6855527e+29
-5.7007352e+29
-5.7021844e+29
-5.6869785e+29
-5.717015e+29
-5.7156235e+29
-5.7319057e+29
-5.7332394e+29
-5.7345316e+29
-5.7182436e+29
-5.7196242e+29
-5.7359402e+29
-5.6797371e+29
-5.6949602e+29
-5.6965044e+29
-5.6812162e+29
-5.6826223e+29
-5.697894e+29
-5.6994556e+29
-5.6842427e+29
-5.7098759e+29
-5.7261994e+29
-5.7276711e+29
-5.7113834e+29
-5.7127683e+29
-5.7290572e+29
-5.7306823e+29
-5.7143681e+29
-5.7421088e+29
-5.7595375e+29
-5.7610792e+29
-5.7435706e+29
-5.7449621e+29
-5.7625018e+29
-5.7640082e+29
-5.7465545e+29
-5.7769015e+29
-5.7962881e+29
-5.7978976e+29
-5.778467e+29
-5.7798552e+29
-5.7993e+29
-5.8009189e+29
-5.7814392e+29
-5.7477683e+29
-5.7652702e+29
-5.7667412e+29
-5.7491444e+29
-5.7519108e+29
-5.7504535e+29
-5.7680468e+29
-5.7694901e+29
-5.7827079e+29
-5.8022029e+29
-5.803654e+29
-5.7841757e+29
-5.7869856e+29
-5.7854688e+29
-5.8049615e+29
-5.806476e+29
-5.5015345e+29
-5.5032311e+29
-5.5154393e+29
-5.5171502e+29
-5.5189961e+29
-5.5207083e+29
-5.505099e+29
-5.5068898e+29
-5.4421613e+29
-5.4381615e+29
-5.4599198e+29
-5.4638283e+29
-5.4872732e+29
-5.4835626e+29
-5.4958353e+29
-5.4972369e+29
-5.5096546e+29
-5.5110298e+29
-5.5124321e+29
-5.5139343e+29
-5.4986624e+29
-5.5000666e+29
-5.4317282e+29
-5.4538227e+29
-5.4567821e+29
-5.4347283e+29
-5.4806141e+29
-5.4777222e+29
-5.5213277e+29
-5.5227717e+29
-5.5347006e+29
-5.5332574e+29
-5.545314e+29
-5.5578526e+29
-5.5592639e+29
-5.5467462e+29
-5.5376502e+29
-5.524142e+29
-5.5360473e+29
-5.5256924e+29
-5.5480934e+29
-5.5606376e+29
-5.5497353e+29
-5.5622709e+29
-5.5271695e+29
-5.5289428e+29
-5.5391431e+29
-5.5408787e+29
-5.5529186e+29
-5.5637779e+29
-5.5654443e+29
-5.5512106e+29
-5.5306729e+29
-5.532349e+29
-5.5441708e+29
-5.5424945e+29
-5.5544971e+29
-5.5562343e+29
-5.5670535e+29
-5.5688277e+29
-5.3917559e+29
-5.3890986e+29
-5.4106313e+29
-5.413502e+29
-5.417153e+29
-5.3955604e+29
-5.4003773e+29
-5.4214965e+29
-5.3695473e+29
-5.5014372e+29
-5.5029509e+29
-5.4873924e+29
-5.4888784e+29
-5.4239431e+29
-5.4212105e+29
-5.4456549e+29
-5.4428387e+29
-5.4690443e+29
-5.4902262e+29
-5.4915473e+29
-5.5041561e+29
-5.5054075e+29
-5.5068067e+29
-5.508295e+29
-5.4930175e+29
-5.4944587e+29
-5.4264488e+29
-5.4482329e+29
-5.451389e+29
-5.4294223e+29
-5.4719455e+29
-5.4749393e+29
-5.5158705e+29
-5.5277373e+29
-5.5290989e+29
-5.5171647e+29
-5.5185079e+29
-5.5304092e+29
-5.531953e+29
-5.5200151e+29
-5.5396528e+29
-5.5520553e+29
-5.5535305e+29
-5.5410796e+29
-5.5440155e+29
-5.5424152e+29
-5.5549254e+29
-5.5565305e+29
-5.387314e+29
-5.3847157e+29
-5.4085476e+29
-5.4058241e+29
-5.3822853e+29
-5.3800541e+29
-5.4007596e+29
-5.4033147e+29
-5.5760465e+29
-5.5887755e+29
-5.5904582e+29
-5.5777126e+29
-5.5811115e+29
-5.5793311e+29
-5.5920672e+29
-5.5937965e+29
-5.616545e+29
-5.6014457e+29
-5.6149678e+29
-5.6030877e+29
-5.6063577e+29
-5.6197432e+29
-5.6046384e+29
-5.6180681e+29
-5.5842525e+29
-5.5700917e+29
-5.582775e+29
-5.571526e+29
-5.5954134e+29
-5.6089162e+29
-5.6103803e+29
-5.5968864e+29
-5.5873226e+29
-5.5729199e+29
-5.5856745e+29
-5.574576e+29
-5.5982988e+29
-5.611811e+29
-5.5999985e+29
-5.6135192e+29
-5.6377563e+29
-5.6221664e+29
-5.6362291e+29
-5.623647e+29
-5.6653019e+29
-5.650273e+29
-5.6517651e+29
-5.6667593e+29
-5.6267824e+29
-5.6408417e+29
-5.6250816e+29
-5.6392015e+29
-5.6681792e+29
-5.6531699e+29
-5.6548417e+29
-5.6698265e+29
-5.6281978e+29
-5.6422393e+29
-5.6438197e+29
-5.6297592e+29
-5.6711819e+29
-5.6562215e+29
-5.6577412e+29
-5.6726248e+29
-5.6312473e+29
-5.632884e+29