/*--------------------------------*- C++ -*----------------------------------*\
  =========                 |
  \\      /  F ield         | OpenFOAM: The Open Source CFD Toolbox
   \\    /   O peration     | Website:  https://openfoam.org
    \\  /    A nd           | Version:  7
     \\/     M anipulation  |
\*---------------------------------------------------------------------------*/
FoamFile
{
    version     2.0;
    format      ascii;
    class       volVectorField;
    location    "2000";
    object      UMean;
}
// * * * * * * * * * * * * * * * * * * * * * * * * * * * * * * * * * * * * * //

dimensions      [0 1 -1 0 0 0 0];

internalField   nonuniform List<vector> 
34251
(
(-4.3894221e+12 1.6308802e+11 4.0752902e+11)
(-3.9934845e+12 2.6321867e+11 2.5344959e+10)
(-4.0796916e+12 1.3422993e+11 5.5330693e+11)
(-4.4419489e+12 2.2980103e+10 4.406453e+11)
(-4.0709798e+12 3.9923906e+10 5.7646053e+11)
(-4.4532119e+12 7.3041281e+10 4.8161939e+11)
(-4.4478121e+12 1.2181395e+10 -7.2621321e+10)
(-4.3809256e+12 -1.2913587e+10 3.1661333e+11)
(-4.4046803e+12 4.281919e+10 3.560386e+11)
(-3.9943463e+12 1.391694e+11 -4.1103639e+11)
(-3.1230122e+12 2.6849295e+11 -79906461)
(-3.9590095e+12 2.3360913e+10 -4.0457057e+11)
(-3.0898684e+12 4.1716176e+10 6.5948231e+09)
(-3.4812738e+12 5.0612806e+10 4.4154473e+11)
(-3.4656333e+12 2.6102213e+10 4.3378658e+11)
(-4.2277282e+12 5.0702494e+10 4.8518623e+11)
(-4.2289182e+12 -2.6351316e+10 4.8258964e+11)
(-3.4754636e+12 2.8129768e+10 4.5803798e+11)
(-3.4887152e+12 4.2447216e+10 4.3862993e+11)
(-4.2548106e+12 7.7833711e+10 5.3124356e+11)
(-4.278583e+12 -1.8520964e+10 5.1389726e+11)
(-4.6238512e+12 4.7472583e+10 2.1889108e+11)
(-4.4465277e+12 1.2886836e+10 -5.8151881e+10)
(-4.4380835e+12 -1.6949911e+10 -7.0568305e+10)
(-4.608917e+12 -2.9272889e+10 1.9314276e+11)
(-3.9558188e+12 -1.3099978e+10 -1.5259657e+11)
(-4.1190183e+12 -3.0626033e+10 -5.8770128e+10)
(-3.9873494e+12 -2.9105732e+10 -1.5666553e+11)
(-4.0860081e+12 2.2089981e+09 -5.382609e+10)
(-4.4697828e+12 3.3423363e+10 -2.6963824e+10)
(-4.4625227e+12 -3.3925776e+10 -3.7109604e+10)
(-4.0952443e+12 1.2509183e+10 -1.8918593e+11)
(-4.0697008e+12 -2.2565524e+10 -1.9448878e+11)
(-4.0178086e+12 -3.9316483e+10 3.2711106e+11)
(-4.0237883e+12 3.4848065e+10 3.2356632e+11)
(-4.0383265e+12 5.0292091e+10 3.4835488e+11)
(-4.0488783e+12 -3.1633508e+10 3.2810489e+11)
(-4.3931134e+12 3.3481704e+10 -2.6627977e+11)
(-4.3884178e+12 1.3972974e+11 -2.6081424e+11)
(-3.7203319e+12 4.5188529e+10 -3.9741587e+11)
(-3.9411071e+12 6.2331724e+10 -3.4907359e+11)
(-3.953629e+12 2.9249204e+09 -3.4422305e+11)
(-3.7165544e+12 5.8116448e+10 -4.0461773e+11)
(-3.0307719e+12 9.0746109e+10 -5.3600493e+11)
(-3.0299768e+12 4.1367592e+10 -5.3717845e+11)
(-2.2738138e+12 4.2499431e+10 4.1596143e+10)
(-2.2501543e+12 1.8150825e+11 2.5553834e+10)
(-3.9477984e+12 4.528112e+09 -3.4572862e+11)
(-3.9220447e+12 7.8383494e+10 -3.4212062e+11)
(-3.7092915e+12 5.2741077e+10 -4.0099145e+11)
(-3.7133784e+12 5.2335826e+10 -3.91397e+11)
(-2.9960483e+12 4.5449471e+10 -5.3644443e+11)
(-3.0163656e+12 8.620145e+10 -5.3452002e+11)
(-2.2643889e+12 3.4533898e+10 5.0763672e+10)
(-2.2903687e+12 1.8037563e+11 5.6020975e+10)
(-3.7454437e+12 -3.2611354e+10 4.2616854e+11)
(-2.9478862e+12 1.5389063e+10 3.5132067e+11)
(-3.7668156e+12 2.3664882e+10 4.3860619e+11)
(-2.9376847e+12 6.2124053e+09 3.536749e+11)
(-3.7394219e+12 4.0754689e+10 4.2884243e+11)
(-2.9533855e+12 1.6268675e+10 3.4188907e+11)
(-3.7551307e+12 -1.9574776e+10 4.1878839e+11)
(-3.7588159e+12 5.3858074e+10 4.6200458e+11)
(-2.9458662e+12 1.4878658e+10 3.4933485e+11)
(-3.7629755e+12 -1.1627215e+10 4.4386858e+11)
(-2.942463e+12 1.3045278e+10 3.4348713e+11)
(-2.9467569e+12 1.9006091e+10 3.5036082e+11)
(-3.7620535e+12 2.6935788e+10 4.2938371e+11)
(-3.7598805e+12 -3.0065707e+10 4.3026279e+11)
(-4.2167825e+12 4.2386671e+10 2.7614529e+11)
(-4.2376333e+12 -2.810754e+10 2.6392589e+11)
(-4.0741662e+12 1.5505767e+10 3.4227659e+10)
(-4.0783726e+12 -1.9244914e+10 1.7405659e+10)
(-4.0010759e+12 -2.0333831e+10 -1.5116355e+11)
(-3.9699678e+12 1.764939e+09 -1.4411304e+11)
(-4.1183736e+12 -2.2899943e+10 -5.6789225e+10)
(-4.100823e+12 1.6510449e+10 -4.5875153e+10)
(-4.466132e+12 3.329168e+10 -1.1742338e+10)
(-4.1140762e+12 4.0191378e+09 -5.7021134e+10)
(-3.9751547e+12 -9.2625205e+09 -1.6031017e+11)
(-3.989498e+12 -2.9653058e+10 -1.4511861e+11)
(-4.1120791e+12 -3.4513038e+10 -5.0454471e+10)
(-4.4666969e+12 -4.2835152e+10 -2.0905075e+10)
(-4.2110708e+12 2.874115e+10 2.5323579e+11)
(-4.193889e+12 -3.9894302e+10 2.5369835e+11)
(-4.0678669e+12 -2.9915939e+10 2.893914e+10)
(-4.0662333e+12 9.6175433e+09 2.2378041e+10)
(-4.0956989e+12 1.8143027e+10 -1.7358978e+11)
(-4.0804952e+12 -2.4813743e+10 -1.798902e+11)
(-3.5008433e+12 -2.4907771e+10 -1.5541832e+11)
(-3.5064368e+12 -2.9729732e+10 -1.4418626e+11)
(-3.5434162e+12 -2.2064627e+10 -1.1953335e+11)
(-3.9724124e+12 -8.168004e+09 -1.5574019e+11)
(-3.544322e+12 -2.6524085e+10 -1.2847617e+11)
(-3.4916057e+12 -3.0125866e+10 -1.3021699e+11)
(-3.4936338e+12 -3.0624544e+10 -1.3005841e+11)
(-3.5515349e+12 -2.2042613e+10 -7.7553577e+10)
(-3.5161084e+12 -3.0940199e+10 -1.5439242e+11)
(-3.5217529e+12 -3.5647608e+10 -1.5264747e+11)
(-3.563223e+12 -3.353957e+10 -1.26032e+11)
(-3.5635525e+12 -2.8456171e+10 -1.2658912e+11)
(-4.045167e+12 -3.3686102e+10 -1.5225909e+11)
(-3.4750588e+12 -2.5279819e+10 -1.3196751e+11)
(-3.4811059e+12 -2.3621833e+10 -1.207684e+11)
(-3.5216633e+12 -1.6091125e+10 -7.5058894e+10)
(-3.5262409e+12 -2.9382551e+10 -8.3093531e+10)
(-3.8925558e+12 -9.1973601e+09 -2.1270356e+11)
(-3.9048252e+12 -3.3274014e+10 -2.2423291e+11)
(-3.8480191e+12 -1.0488429e+10 -2.7172766e+11)
(-3.9562676e+12 -1.4582537e+10 -2.0147958e+11)
(-3.499983e+12 -3.6439414e+10 -1.8093674e+11)
(-3.5225047e+12 -2.7924937e+10 -1.5558756e+11)
(-3.4925738e+12 -1.4111503e+10 -5.0974122e+10)
(-4.5100163e+12 4.9639887e+10 -9.269086e+10)
(-3.6178288e+12 4.3078325e+09 -3.0525263e+11)
(-4.0019936e+12 7.0299482e+09 -1.870711e+11)
(-4.0470388e+12 -2.8197177e+10 -1.8234279e+11)
(-3.6360984e+12 -2.8286198e+10 -3.1045718e+11)
(-4.5013772e+12 -3.1438777e+10 -9.8331821e+10)
(-3.5417649e+12 -5.5864742e+08 -3.3283097e+11)
(-3.9589061e+12 -1.729225e+09 -2.5781263e+11)
(-3.9075758e+12 4.1886013e+10 -4.2036813e+11)
(-3.9016048e+12 -3.6546072e+10 -4.1842556e+11)
(-3.5653448e+12 2.250959e+10 2.9757799e+11)
(-3.5513664e+12 2.7177477e+10 2.9260302e+11)
(-3.5580476e+12 -3.2071911e+10 2.8065295e+11)
(-3.5653246e+12 -2.5342156e+10 2.9566677e+11)
(-3.5691932e+12 2.5656084e+10 2.873877e+11)
(-3.5627998e+12 -3.1457036e+10 2.8995118e+11)
(-4.6238917e+12 7.6766083e+10 -3.4769498e+11)
(-4.6207709e+12 6.3213895e+10 -3.4661373e+11)
(-3.9543694e+12 5.7934099e+10 -4.7049951e+11)
(-3.8698246e+12 5.3071716e+10 -2.6541696e+11)
(-3.874769e+12 -1.5940729e+10 -2.6243728e+11)
(-3.9452467e+12 3.7917314e+10 -4.7187736e+11)
(-3.1846226e+12 1.419529e+10 -4.8574447e+11)
(-3.1786249e+12 5.4856326e+10 -4.8199296e+11)
(-2.6526e+12 5.7634376e+10 -5.7821272e+11)
(-2.6611734e+12 4.6821225e+10 -5.85547e+11)
(-3.1847511e+12 1.6897138e+10 -4.8315778e+11)
(-3.174473e+12 5.9721998e+10 -4.8295851e+11)
(-2.6533405e+12 5.938138e+10 -5.886961e+11)
(-2.6575171e+12 4.791371e+10 -5.7847493e+11)
(-1.8262528e+12 7.3166008e+10 -5.1749376e+11)
(-1.6202573e+12 1.0460079e+11 1.5445122e+11)
(-1.6023821e+12 1.1177e+10 1.5033348e+11)
(-1.8113515e+12 5.7710623e+10 -5.2062309e+11)
(-1.824232e+12 5.7264527e+10 -5.1258077e+11)
(-1.8248841e+12 6.8956312e+10 -5.2734897e+11)
(-1.6116769e+12 2.3248041e+10 1.5884559e+11)
(-3.8827102e+12 -1.3675677e+10 -2.5929343e+11)
(-3.8447581e+12 6.1778437e+10 -2.6556248e+11)
(-3.94025e+12 5.8233131e+10 -4.6753275e+11)
(-3.9411914e+12 3.3519124e+10 -4.5778875e+11)
(-3.1787106e+12 1.6581956e+10 -4.8127017e+11)
(-3.1698225e+12 6.4933845e+10 -4.8355307e+11)
(-2.641276e+12 6.2347006e+10 -5.9086665e+11)
(-2.6452368e+12 4.3967476e+10 -5.8280037e+11)
(-2.6364912e+12 5.4463797e+10 -5.7626541e+11)
(-3.1628177e+12 5.1761183e+10 -4.7190703e+11)
(-3.1663344e+12 1.3253733e+10 -4.754272e+11)
(-2.6429575e+12 4.8708176e+10 -5.8485209e+11)
(-1.8007981e+12 6.0896078e+10 -5.2113757e+11)
(-1.8118503e+12 6.9135626e+10 -5.1652683e+11)
(-1.6204625e+12 1.0094086e+11 1.6107146e+11)
(-1.8022332e+12 7.5533076e+10 -5.2228112e+11)
(-1.8073524e+12 5.4644626e+10 -5.0930278e+11)
(-1.6047666e+12 1.8958911e+10 1.5695129e+11)
(-1.5918823e+12 1.1051373e+11 1.4008909e+11)
(-2.5870229e+12 8.4513002e+09 3.4994328e+11)
(-2.582314e+12 1.1610307e+10 3.3418721e+11)
(-3.2653652e+12 -1.3664313e+10 4.0141532e+11)
(-3.2576144e+12 2.5717527e+10 4.0919328e+11)
(-2.5801544e+12 -1.1995121e+09 3.5065142e+11)
(-2.5875103e+12 2.6969344e+09 3.3984678e+11)
(-3.2416843e+12 2.5442076e+10 4.08396e+11)
(-3.2551678e+12 -1.4071957e+10 4.0245854e+11)
(-3.2604216e+12 8.0473965e+09 3.914047e+11)
(-2.5873619e+12 6.0295274e+09 3.3422513e+11)
(-2.588711e+12 1.5428174e+10 3.3853231e+11)
(-3.2573154e+12 -2.1858662e+10 3.9159957e+11)
(-2.5917314e+12 6.9836051e+09 3.4361701e+11)
(-2.5844304e+12 1.5040934e+10 3.4445666e+11)
(-3.2597109e+12 1.384073e+10 4.0522294e+11)
(-3.2552369e+12 -2.0538031e+10 4.0493383e+11)
(-2.5928505e+12 2.4367574e+09 3.4876478e+11)
(-2.5927177e+12 1.3457425e+10 3.3594184e+11)
(-3.2582324e+12 2.6072177e+10 4.0318855e+11)
(-3.2683513e+12 -7.0762664e+09 3.9716178e+11)
(-2.5964894e+12 1.4935917e+10 3.4450235e+11)
(-2.5899049e+12 1.5968252e+10 3.4602469e+11)
(-3.2647168e+12 1.4079444e+10 4.054648e+11)
(-3.25714e+12 -2.4168267e+10 4.0501947e+11)
(-4.3003263e+12 6.9076957e+09 -4.0778471e+11)
(-3.5888746e+12 -1.8739852e+10 1.2142994e+11)
(-3.758103e+12 -2.2130005e+10 3.0363746e+11)
(-3.5962324e+12 -2.0354866e+10 1.2028658e+11)
(-3.598803e+12 1.2931992e+10 1.1879363e+11)
(-3.75334e+12 -3.2395749e+10 2.9646591e+11)
(-3.7559678e+12 2.2580771e+10 2.9310681e+11)
(-3.6300451e+12 -1.5702476e+10 4.7323241e+10)
(-3.5046709e+12 -9.1523974e+09 -6.1634512e+10)
(-3.5136544e+12 -1.2706531e+10 -5.988807e+10)
(-3.5207059e+12 -1.7942549e+09 -5.8776378e+10)
(-3.639402e+12 7.5306319e+09 4.5208815e+10)
(-3.6367923e+12 -2.2037735e+10 4.6206438e+10)
(-3.5258057e+12 -1.4866113e+10 -1.538726e+11)
(-3.5367531e+12 -1.8667564e+10 -1.4982532e+11)
(-3.5748826e+12 -1.1625157e+10 -1.2447207e+11)
(-3.5683791e+12 -1.8229212e+10 -1.2543078e+11)
(-4.054932e+12 -2.4144822e+10 -1.4719519e+11)
(-3.5301448e+12 -8.6309337e+09 -1.4486336e+11)
(-3.5092862e+12 -3.6047769e+09 -1.5557017e+11)
(-3.5517125e+12 -5.9723e+09 -1.2868458e+11)
(-3.9821564e+12 4.4583685e+09 -1.4786728e+11)
(-3.500909e+12 -1.2391772e+10 -1.2824145e+11)
(-3.5062581e+12 -1.1393621e+10 -1.2712632e+11)
(-3.5547055e+12 -4.168185e+09 -7.9256894e+10)
(-3.5470029e+12 -1.5001659e+10 -8.0408593e+10)
(-3.4846196e+12 -3.0219796e+09 -1.3277862e+11)
(-3.5374131e+12 -8.2207766e+09 -8.2229386e+10)
(-3.9119482e+12 -2.5641196e+10 -2.2171038e+11)
(-3.8981473e+12 1.95941e+09 -2.080807e+11)
(-3.5413786e+12 -5.9862941e+09 -8.0327487e+10)
(-3.5020157e+12 -7.1992803e+09 -1.3676516e+11)
(-3.4850728e+12 -1.5599348e+10 -1.3562367e+11)
(-3.565995e+12 -1.3661587e+10 -7.8560609e+10)
(-3.5070809e+12 -2.1951534e+10 -1.6129857e+11)
(-3.5760154e+12 -1.1260657e+10 -1.3278296e+11)
(-3.5492649e+12 -1.4250464e+10 -1.3325258e+11)
(-3.532933e+12 -8.7638776e+09 -1.6085475e+11)
(-3.9914492e+12 -8.1637852e+09 -1.6383775e+11)
(-3.5295683e+12 -2.5017297e+10 -1.3730582e+11)
(-3.5257193e+12 -2.0022041e+10 -1.487733e+11)
(-3.5661272e+12 -1.4148432e+10 -1.2107511e+11)
(-4.0442754e+12 -3.5141869e+10 -1.4266876e+11)
(-3.565199e+12 -2.8278457e+10 -1.1298344e+11)
(-3.4982617e+12 -2.2062438e+10 -1.1487616e+11)
(-3.5452762e+12 -2.6148893e+10 -6.7753975e+10)
(-3.496816e+12 -1.3650219e+10 -1.231108e+11)
(-3.5455447e+12 -8.4314223e+09 -7.4877048e+10)
(-3.894409e+12 -6.847016e+09 -2.2918784e+11)
(-3.9176719e+12 -3.0639065e+10 -2.1010449e+11)
(-3.6005319e+12 -2.2015077e+10 1.1735874e+11)
(-3.5944079e+12 1.4804207e+10 1.2499055e+11)
(-3.7459475e+12 -2.8163086e+10 2.8619778e+11)
(-3.7357651e+12 2.88259e+10 2.9497854e+11)
(-3.7540151e+12 1.7997331e+10 3.0228865e+11)
(-3.5940813e+12 -2.8488586e+10 1.3685011e+11)
(-3.5963707e+12 9.9110732e+09 1.2870854e+11)
(-3.7349615e+12 -3.8169737e+10 3.0273502e+11)
(-3.6305729e+12 3.6030163e+09 5.2766338e+10)
(-3.5142998e+12 -5.3546733e+09 -5.1795892e+10)
(-3.5102352e+12 -2.4433097e+10 -4.4842584e+10)
(-3.629211e+12 -3.2065485e+10 5.9840759e+10)
(-3.6338447e+12 1.3327779e+10 5.1328612e+10)
(-3.5220181e+12 -1.243124e+10 -6.1148835e+10)
(-3.5010192e+12 -1.5693466e+09 -5.8330459e+10)
(-3.6450241e+12 -1.849148e+10 4.5440807e+10)
(-4.5074005e+12 4.633457e+10 -7.5610902e+10)
(-3.5974125e+12 1.5103064e+10 -2.9890579e+11)
(-4.0059776e+12 1.2700377e+10 -1.8341454e+11)
(-4.048843e+12 -2.7746207e+10 -1.8421153e+11)
(-3.6223549e+12 -3.1946509e+10 -3.1006345e+11)
(-4.5060827e+12 -3.7221196e+10 -7.7717694e+10)
(-3.6130145e+12 3.8375432e+09 -3.1695607e+11)
(-4.0116754e+12 -3.6622322e+08 -2.0468038e+11)
(-4.0382202e+12 -3.6541633e+10 -1.8126234e+11)
(-3.6101089e+12 -3.9862622e+10 -3.1145155e+11)
(-3.899705e+12 4.4020687e+10 -4.1076681e+11)
(-3.8965498e+12 -3.6634442e+10 -4.1097681e+11)
(-3.0531183e+12 -3.0818829e+10 -1.0926558e+11)
(-3.0457957e+12 -2.5317846e+10 -1.1773566e+11)
(-3.5540575e+12 -2.7364578e+10 -1.3086035e+11)
(-3.0677205e+12 -2.6262583e+10 -1.4992227e+11)
(-3.0720475e+12 -3.3625012e+10 -1.4224498e+11)
(-3.0614722e+12 -2.5569136e+10 -9.9926585e+10)
(-3.0634509e+12 -2.7031491e+10 -1.0409096e+11)
(-3.5543587e+12 -2.5710697e+10 -1.2163122e+11)
(-3.0878276e+12 -2.7860119e+10 -1.3435165e+11)
(-3.0893608e+12 -2.7345911e+10 -1.3066834e+11)
(-2.9752777e+12 -2.5581812e+10 -1.0438685e+11)
(-3.0037325e+12 -2.324266e+10 -9.3115203e+10)
(-2.9753496e+12 -2.3886358e+10 -1.0926415e+11)
(-3.0083933e+12 -2.5135477e+10 -9.6749842e+10)
(-3.5142611e+12 -2.6581614e+10 -1.6032951e+11)
(-3.5288814e+12 -2.9815226e+10 -1.4379518e+11)
(-2.9646737e+12 -3.1982993e+10 -1.152498e+11)
(-2.9968465e+12 -2.7990351e+10 -1.0244509e+11)
(-2.9583033e+12 -2.2947315e+10 -1.2190956e+11)
(-2.9918919e+12 -2.4381454e+10 -1.077555e+11)
(-2.9472136e+12 -3.030983e+10 -1.0944778e+11)
(-2.9427768e+12 -2.9918506e+10 -1.1355979e+11)
(-2.9865811e+12 -2.7803499e+10 -9.6017365e+10)
(-2.9828031e+12 -3.1232897e+10 -9.8983604e+10)
(-2.9385502e+12 -2.8982542e+10 -1.1307059e+11)
(-2.9782024e+12 -2.6400061e+10 -9.8627472e+10)
(-2.9519728e+12 -2.5728403e+10 -1.1423851e+11)
(-2.9917295e+12 -2.7897733e+10 -9.9989748e+10)
(-2.9212128e+12 -2.6280351e+10 -1.0156019e+11)
(-2.9850402e+12 -2.2595333e+10 -7.5555339e+10)
(-2.9330943e+12 -2.727526e+10 -1.029835e+11)
(-2.998124e+12 -2.9964848e+10 -7.7019564e+10)
(-3.0644106e+12 -3.2421071e+10 -1.0397693e+11)
(-3.0590547e+12 -3.4643441e+10 -1.1251712e+11)
(-3.5757159e+12 -3.4439827e+10 -1.3153018e+11)
(-3.0818894e+12 -3.6041169e+10 -1.4486893e+11)
(-3.0834622e+12 -3.4563742e+10 -1.3671226e+11)
(-3.0572078e+12 -2.9398262e+10 -1.0761434e+11)
(-3.0691674e+12 -2.9777235e+10 -1.1160885e+11)
(-3.5796949e+12 -3.5200591e+10 -1.3086264e+11)
(-3.0934933e+12 -3.0864263e+10 -1.4268465e+11)
(-3.079767e+12 -3.1346127e+10 -1.3965914e+11)
(-2.9739461e+12 -3.270185e+10 -1.0996605e+11)
(-3.0072361e+12 -2.9418491e+10 -9.816805e+10)
(-2.9696848e+12 -3.1379869e+10 -1.1624669e+11)
(-3.0035432e+12 -3.2006481e+10 -1.0294141e+11)
(-2.9678456e+12 -3.0177774e+10 -1.133889e+11)
(-2.9983215e+12 -2.8356627e+10 -1.0183142e+11)
(-2.9792315e+12 -2.6084402e+10 -1.1614833e+11)
(-3.0133059e+12 -2.7884158e+10 -1.0318973e+11)
(-3.5451058e+12 -4.2315494e+10 -1.6335435e+11)
(-3.5341528e+12 -2.9027732e+10 -1.6628083e+11)
(-2.9373306e+12 -2.9173634e+10 -1.1283151e+11)
(-2.9770927e+12 -2.617506e+10 -9.8784231e+10)
(-2.9311256e+12 -2.3393068e+10 -1.1799443e+11)
(-2.9725085e+12 -2.5430214e+10 -1.0279475e+11)
(-2.9448521e+12 -2.3008615e+10 -1.0324978e+11)
(-2.9826278e+12 -2.0024042e+10 -8.9068921e+10)
(-2.9476899e+12 -2.3414824e+10 -1.0729301e+11)
(-2.9874169e+12 -2.5157834e+10 -9.3095726e+10)
(-2.9292055e+12 -1.9540675e+10 -9.1427323e+10)
(-2.9838371e+12 -1.6651111e+10 -6.8263146e+10)
(-2.9315005e+12 -2.4824311e+10 -9.5853608e+10)
(-2.9909418e+12 -2.7804545e+10 -7.1587529e+10)
(-2.9217673e+12 -2.6009753e+10 -1.0111892e+11)
(-2.9816175e+12 -2.2366804e+10 -7.6826385e+10)
(-2.9164492e+12 -2.518004e+10 -1.0515213e+11)
(-2.9769687e+12 -2.844031e+10 -8.0059994e+10)
(-3.5647573e+12 -2.1529576e+10 -1.9814792e+11)
(-3.5579275e+12 -3.0925847e+10 -1.9244283e+11)
(-3.5935216e+12 -2.636922e+10 -1.4693822e+11)
(-3.5711461e+12 -2.5064827e+10 -1.6994266e+11)
(-3.577409e+12 -2.8850977e+10 -2.0476602e+11)
(-3.5759612e+12 -4.711917e+10 -2.069564e+11)
(-3.6272053e+12 -4.1045499e+10 -1.5644231e+11)
(-3.6051476e+12 -3.1558475e+10 -1.6732628e+11)
(-3.6085823e+12 -3.0852796e+09 -2.2890499e+11)
(-3.5998881e+12 -4.3648375e+10 -2.2771108e+11)
(-3.5963139e+12 -3.8633326e+10 -1.9652116e+11)
(-3.6113321e+12 -7.4735623e+09 -1.97072e+11)
(-3.5417507e+12 -3.5866562e+10 -1.6701674e+11)
(-3.5380513e+12 -3.8380336e+10 -1.8248456e+11)
(-3.5548056e+12 -1.7328038e+10 -1.690922e+11)
(-3.5458031e+12 -1.241133e+10 -1.8709088e+11)
(-3.5843599e+12 -2.7465528e+10 -2.0572338e+11)
(-3.0561978e+12 -2.0817806e+10 -1.2404594e+11)
(-3.0782254e+12 -2.4385787e+10 -1.5781129e+11)
(-3.0375819e+12 -3.2753804e+10 -1.2499067e+11)
(-3.056003e+12 -2.573169e+10 -1.2798349e+11)
(-3.0873788e+12 -2.6915728e+10 -1.5908586e+11)
(-3.0635922e+12 -3.4826619e+10 -1.5796205e+11)
(-2.9506705e+12 -3.3178829e+10 -1.2833133e+11)
(-2.9776358e+12 -3.0814324e+10 -1.1616267e+11)
(-2.9666997e+12 -2.2710083e+10 -1.3024534e+11)
(-2.9444299e+12 -2.3157327e+10 -8.7626616e+10)
(-2.9477577e+12 -1.6966296e+10 -7.9111906e+10)
(-3.0189217e+12 -1.3201389e+10 -5.3571413e+10)
(-2.9525583e+12 -2.6376068e+10 -8.3015267e+10)
(-4.033799e+12 -8.3904739e+09 -1.3360372e+11)
(-4.0157943e+12 1.7184976e+10 -1.1868292e+11)
(-3.438753e+12 -1.3733603e+10 -2.0761906e+11)
(-3.4355919e+12 -2.6691338e+10 -2.135724e+11)
(-3.5073769e+12 -2.0508809e+10 -3.6276734e+11)
(-3.4869857e+12 -1.6634175e+10 -3.684999e+11)
(-3.7607317e+12 -9.9054431e+09 -2.0205251e+11)
(-3.7420089e+12 -1.1096424e+10 -2.017051e+11)
(-3.6349726e+12 -2.7264589e+10 -2.0092871e+11)
(-3.5962428e+12 -2.4140182e+10 -2.4371608e+11)
(-3.6025345e+12 -1.9247082e+10 -2.5199957e+11)
(-3.6417833e+12 -1.347886e+10 -2.0995178e+11)
(-3.6703899e+12 -4.4065902e+10 -2.0206872e+11)
(-3.6104666e+12 -4.0823959e+10 -2.6354783e+11)
(-3.6228551e+12 -3.1462411e+10 -2.5170724e+11)
(-3.6601072e+12 -3.2863599e+10 -2.0766112e+11)
(-3.5354539e+12 -2.4992258e+10 -3.6837727e+11)
(-3.5166916e+12 -3.5482037e+10 -3.771475e+11)
(-3.7795948e+12 -3.0648165e+10 -2.0907479e+11)
(-3.7654878e+12 -3.4725886e+10 -2.2018822e+11)
(-3.4230603e+12 1.6933893e+09 -2.1180515e+11)
(-4.0014099e+12 6.9494362e+09 -1.391943e+11)
(-3.4212031e+12 -1.3545451e+10 -1.9522791e+11)
(-3.4991127e+12 -1.4270628e+09 -3.8472114e+11)
(-3.4855398e+12 -3.5777108e+10 -3.9132427e+11)
(-3.7910277e+12 8.5626576e+09 -2.691442e+11)
(-3.7785049e+12 -3.6944084e+10 -2.8288889e+11)
(-3.636472e+12 -4.5348751e+10 -3.0343383e+11)
(-3.641131e+12 4.9523176e+08 -2.9919507e+11)
(-3.670254e+12 -4.5595597e+10 -2.5082659e+11)
(-3.6868029e+12 6.2358144e+09 -2.463078e+11)
(-3.623754e+12 -1.3308789e+10 -2.6730569e+11)
(-3.6690029e+12 -2.3316819e+10 -2.0296499e+11)
(-3.7177494e+12 -2.2649973e+10 -4.0438188e+11)
(-3.7168135e+12 1.1877214e+10 -4.0035232e+11)
(-3.0906764e+12 1.8973098e+10 2.9796487e+11)
(-3.0959896e+12 -2.3411351e+10 2.8835235e+11)
(-3.0740373e+12 1.8639909e+10 3.0230688e+11)
(-3.0842811e+12 -2.4981166e+10 2.9326842e+11)
(-3.092254e+12 1.2555071e+10 2.8677081e+11)
(-3.0870947e+12 -2.2434527e+10 2.8786277e+11)
(-3.0869399e+12 1.6497801e+10 2.9296364e+11)
(-3.08002e+12 -2.2596778e+10 2.9448385e+11)
(-3.0874133e+12 1.8903178e+10 2.9399083e+11)
(-3.0957432e+12 -1.8228347e+10 2.8546863e+11)
(-3.0949064e+12 1.8057311e+10 2.9643467e+11)
(-3.0866432e+12 -2.4685271e+10 2.9970769e+11)
(-4.6857531e+12 6.0746863e+10 -1.9801639e+11)
(-4.6810695e+12 4.0824534e+10 -1.9215112e+11)
(-4.0576663e+12 5.0776968e+10 -3.9695839e+11)
(-3.1995592e+12 7.7022692e+09 -5.0362204e+11)
(-3.2095334e+12 6.0088963e+10 -5.0916948e+11)
(-4.0352232e+12 4.5875658e+10 -1.9841052e+11)
(-4.0542331e+12 -1.0103421e+10 -1.983351e+11)
(-4.0561059e+12 2.892886e+10 -4.0168456e+11)
(-3.1997977e+12 5.9436187e+10 -5.073266e+11)
(-3.2035948e+12 6.7289939e+09 -5.099155e+11)
(-2.7908992e+12 5.7480081e+10 -6.3672698e+11)
(-2.8002469e+12 4.3133271e+10 -6.4293359e+11)
(-2.7900276e+12 5.6514041e+10 -6.41771e+11)
(-2.7941763e+12 4.2474564e+10 -6.3507101e+11)
(-1.9028084e+12 4.5376081e+10 -5.3343811e+11)
(-1.8985923e+12 2.930642e+10 -5.3985071e+11)
(-1.3491267e+12 5.0581822e+10 -6.0070217e+11)
(-1.353849e+12 4.3220042e+10 -6.0912171e+11)
(-1.0896979e+12 5.946202e+10 -1.2662422e+11)
(-1.0650976e+12 6.4346704e+10 -1.6999297e+11)
(-1.6391374e+12 9.9018418e+09 2.573587e+11)
(-1.6156486e+12 4.4327543e+10 2.3979729e+11)
(-1.0740262e+12 6.3343796e+10 -1.546872e+11)
(-1.097389e+12 5.8952596e+10 -1.2240609e+11)
(-1.6226701e+12 -4.2465623e+09 2.4873106e+11)
(-1.6454515e+12 3.0869093e+10 2.6213453e+11)
(-1.3481986e+12 6.2169394e+10 -6.1522335e+11)
(-1.906229e+12 3.2449191e+10 -5.3812707e+11)
(-1.9072794e+12 5.4116968e+10 -5.454482e+11)
(-1.3535067e+12 4.1852295e+10 -6.0105416e+11)
(-1.8961708e+12 5.2035658e+10 -5.3829197e+11)
(-1.8979102e+12 3.4535004e+10 -5.341176e+11)
(-1.343264e+12 5.7884171e+10 -6.062522e+11)
(-1.3554448e+12 4.507129e+10 -5.9565108e+11)
(-1.9146878e+12 4.6880272e+10 -5.4024804e+11)
(-1.9132312e+12 2.7361568e+10 -5.486523e+11)
(-1.3653407e+12 5.5369148e+10 -6.0106444e+11)
(-1.0718502e+12 6.110754e+10 -1.3934797e+11)
(-1.0851442e+12 6.7650086e+10 -1.3698473e+11)
(-1.6367679e+12 4.4976063e+10 2.5705789e+11)
(-1.6276524e+12 6.8760053e+09 2.5602906e+11)
(-4.0808683e+12 -6.981593e+09 -2.1199194e+11)
(-4.0159936e+12 4.5806503e+10 -1.9668941e+11)
(-4.0469516e+12 4.6142147e+10 -3.9862478e+11)
(-3.1964169e+12 6.1409345e+10 -5.0924731e+11)
(-3.2017082e+12 6.323559e+09 -5.0244869e+11)
(-4.0500171e+12 2.7172022e+10 -3.8246814e+11)
(-3.1949853e+12 7.7174147e+09 -4.9843763e+11)
(-3.1874766e+12 5.656425e+10 -4.9460436e+11)
(-2.7740365e+12 5.6027454e+10 -6.4037066e+11)
(-2.7763606e+12 3.9184383e+10 -6.3500071e+11)
(-2.7724641e+12 5.555193e+10 -6.2914441e+11)
(-2.7817129e+12 4.6186515e+10 -6.3724312e+11)
(-1.8980275e+12 3.8204997e+10 -5.396423e+11)
(-1.9004495e+12 6.0844692e+10 -5.4888783e+11)
(-1.3376152e+12 4.910346e+10 -6.064356e+11)
(-1.3316844e+12 5.7279563e+10 -6.0483951e+11)
(-1.3370788e+12 4.5264616e+10 -6.1437825e+11)
(-1.8925337e+12 3.0838538e+10 -5.4092722e+11)
(-1.8933747e+12 4.8958063e+10 -5.3503321e+11)
(-1.0919747e+12 6.6020259e+10 -1.1609216e+11)
(-1.0660771e+12 6.6880773e+10 -1.6445646e+11)
(-1.6595477e+12 1.2321916e+10 2.6496708e+11)
(-1.6255238e+12 4.8201771e+10 2.4050125e+11)
(-1.3430881e+12 6.1205014e+10 -6.0390923e+11)
(-1.3462333e+12 4.819751e+10 -6.1397307e+11)
(-1.8927875e+12 3.3498974e+10 -5.4198048e+11)
(-1.8968334e+12 5.1353673e+10 -5.3479644e+11)
(-1.3252046e+12 6.1811661e+10 -6.0999086e+11)
(-1.3373115e+12 5.1392102e+10 -5.9994654e+11)
(-1.8892813e+12 3.768291e+10 -5.3078511e+11)
(-1.8861283e+12 5.3922186e+10 -5.3468589e+11)
(-1.0710458e+12 6.5387243e+10 -1.3784092e+11)
(-1.0901696e+12 7.3243174e+10 -1.2756428e+11)
(-1.6424214e+12 1.2292775e+09 2.5393872e+11)
(-1.6548443e+12 4.8586972e+10 2.5995306e+11)
(-1.0966788e+12 7.5464987e+10 -1.2014421e+11)
(-1.065829e+12 7.2270403e+10 -1.7194912e+11)
(-1.6527535e+12 2.3845781e+10 2.6419327e+11)
(-1.6167951e+12 5.2168032e+10 2.3973265e+11)
(-4.1258695e+12 1.4409733e+10 1.394845e+11)
(-2.2476397e+12 2.090303e+10 3.2423074e+11)
(-2.2471087e+12 3.4485239e+09 3.3646308e+11)
(-2.8487223e+12 1.9513338e+10 3.5216527e+11)
(-2.85937e+12 -8.6265615e+09 3.5541773e+11)
(-2.236963e+12 1.8085555e+10 3.2463674e+11)
(-2.227724e+12 -1.4530069e+09 3.1250302e+11)
(-2.8571585e+12 3.1346231e+09 3.4079489e+11)
(-2.8553402e+12 -2.1620587e+10 3.4147103e+11)
(-2.2479228e+12 5.2253609e+09 3.2915796e+11)
(-2.2459677e+12 -8.8155694e+09 3.4049603e+11)
(-2.8465501e+12 1.6095137e+10 3.6259418e+11)
(-2.8479181e+12 -1.4537811e+10 3.5655607e+11)
(-2.2462718e+12 2.0015015e+10 3.3169618e+11)
(-2.237237e+12 -7.2988334e+09 3.2288448e+11)
(-2.8604012e+12 9.0058242e+08 3.5280123e+11)
(-2.8567877e+12 -2.240754e+10 3.4705793e+11)
(-2.2472776e+12 2.2734779e+10 3.1920633e+11)
(-2.2411679e+12 -4.1759429e+09 3.292466e+11)
(-2.8620853e+12 1.3764128e+10 3.4757682e+11)
(-2.8627348e+12 -7.1663628e+09 3.4043341e+11)
(-2.2425069e+12 2.4940737e+10 3.2815161e+11)
(-2.2321113e+12 6.1590291e+09 3.1521814e+11)
(-2.8626437e+12 9.0082939e+09 3.5117071e+11)
(-2.8543418e+12 -1.8101874e+10 3.456984e+11)
(-2.2514042e+12 1.8830941e+10 3.2295285e+11)
(-2.2375971e+12 -5.987603e+09 3.2593775e+11)
(-2.8594868e+12 1.6841879e+10 3.5062254e+11)
(-2.8611504e+12 -4.8256092e+09 3.4638603e+11)
(-2.233201e+12 2.7675813e+10 3.2744259e+11)
(-2.2346165e+12 8.0729737e+09 3.2052224e+11)
(-2.8588064e+12 1.1750004e+10 3.5751607e+11)
(-2.8491039e+12 -1.8610844e+10 3.5042325e+11)
(-2.2425057e+12 1.3293021e+10 3.2065223e+11)
(-2.2286339e+12 -6.0923471e+09 3.2421037e+11)
(-2.8547933e+12 1.8428585e+10 3.5130894e+11)
(-2.8646501e+12 -8.4644509e+09 3.5313437e+11)
(-2.2409277e+12 2.5420423e+10 3.2425407e+11)
(-2.230651e+12 -1.08991e+09 3.1121456e+11)
(-2.8639602e+12 7.6748821e+09 3.39593e+11)
(-2.8625497e+12 -1.5328508e+10 3.4090968e+11)
(-2.2540256e+12 2.4660058e+10 3.2319099e+11)
(-2.2409036e+12 -1.4199047e+09 3.2728428e+11)
(-2.8653231e+12 2.0109642e+10 3.5186911e+11)
(-2.8662436e+12 -2.7224784e+09 3.4771424e+11)
(-2.2479741e+12 2.0431487e+10 3.3361392e+11)
(-2.2388972e+12 1.1576687e+10 3.2086385e+11)
(-2.8644536e+12 1.1698491e+10 3.6070456e+11)
(-2.8567031e+12 -2.1381823e+10 3.5577463e+11)
(-4.2985377e+12 9.0989352e+09 -4.0370728e+11)
(-3.0869709e+12 5.8431303e+09 4.0578412e+10)
(-3.2039533e+12 9.4911419e+09 1.4118057e+11)
(-3.0803243e+12 -1.2843972e+10 4.0085084e+10)
(-3.2005279e+12 -1.9921042e+10 1.4203831e+11)
(-3.1301975e+12 1.3551958e+10 2.034541e+11)
(-3.2584035e+12 1.6608374e+10 3.2297833e+11)
(-3.1268107e+12 -2.1127866e+10 2.0505481e+11)
(-3.2545505e+12 -2.6576039e+10 3.2553332e+11)
(-3.096818e+12 8.2460291e+09 4.4421029e+10)
(-3.0893093e+12 -1.3889875e+10 4.5026941e+10)
(-3.2085293e+12 1.1564237e+10 1.425725e+11)
(-3.2050317e+12 -2.0075734e+10 1.4514001e+11)
(-3.0862734e+12 8.0065883e+09 4.0636879e+10)
(-3.099168e+12 -1.2092677e+10 3.8912968e+10)
(-3.1994327e+12 1.5755887e+10 1.3996031e+11)
(-3.2120516e+12 -1.3677517e+10 1.369939e+11)
(-3.1369663e+12 1.7423812e+10 2.0763624e+11)
(-3.2654161e+12 1.6906135e+10 3.25539e+11)
(-3.1331193e+12 -2.0685102e+10 2.1151474e+11)
(-3.2597394e+12 -2.8360788e+10 3.2970322e+11)
(-3.1304801e+12 1.6600886e+10 2.0455933e+11)
(-3.1388344e+12 -1.7257861e+10 1.994502e+11)
(-3.2564859e+12 2.2678097e+10 3.2196297e+11)
(-3.2690043e+12 -1.7676752e+10 3.1754623e+11)
(-2.9969021e+12 7.4719586e+08 -5.7141237e+10)
(-2.9908343e+12 -6.4302515e+09 -5.8671948e+10)
(-3.1096148e+12 4.4845819e+09 1.2212898e+10)
(-3.1039414e+12 -1.242794e+10 1.1146925e+10)
(-2.9517633e+12 -1.7418729e+09 -8.9566569e+10)
(-2.943807e+12 -3.8779801e+09 -9.1700972e+10)
(-3.0280628e+12 5.3047848e+08 -6.3059171e+10)
(-3.0209585e+12 -7.0065578e+09 -6.5235596e+10)
(-2.9570244e+12 -7.0675222e+09 -8.6552839e+10)
(-2.9653322e+12 -2.2337985e+09 -8.4142433e+10)
(-3.0394478e+12 -64271254 -5.9567424e+10)
(-3.0328359e+12 -9.6314455e+09 -6.0664429e+10)
(-2.955224e+12 -1.5446246e+09 -8.8451884e+10)
(-2.9682162e+12 -6.1026024e+09 -8.7985403e+10)
(-3.0302272e+12 1.833125e+09 -6.2374613e+10)
(-3.0430089e+12 -7.6955986e+09 -6.2830072e+10)
(-3.0000367e+12 2.2093798e+09 -5.5714596e+10)
(-3.0113241e+12 -7.3308355e+09 -5.6591835e+10)
(-3.1072928e+12 6.4938053e+09 1.0101735e+10)
(-3.1219786e+12 -1.107389e+10 9.5456495e+09)
(-3.0083624e+12 2.0172247e+09 -5.2219076e+10)
(-3.0019592e+12 -8.0499704e+09 -5.3233228e+10)
(-3.1184922e+12 5.1550227e+09 1.3915093e+10)
(-3.1121953e+12 -1.3771794e+10 1.3989137e+10)
(-3.0727977e+12 -1.2769918e+10 -1.0561959e+11)
(-3.063433e+12 -1.1918276e+10 -1.1241285e+11)
(-3.5797796e+12 -1.8439528e+10 -1.3219248e+11)
(-3.0878254e+12 -1.3069373e+10 -1.4407846e+11)
(-3.0984216e+12 -1.5911194e+10 -1.350744e+11)
(-3.0658968e+12 -8.6448943e+09 -1.0985461e+11)
(-3.0810895e+12 -8.5063022e+09 -1.0582325e+11)
(-3.5928261e+12 -1.9818812e+10 -1.2808411e+11)
(-3.1015093e+12 -9.6634867e+09 -1.389688e+11)
(-3.0926616e+12 -1.0873641e+10 -1.4089599e+11)
(-2.9765528e+12 -8.3462561e+09 -1.1427156e+11)
(-3.0087026e+12 -6.6965349e+09 -1.01542e+11)
(-2.9895962e+12 -4.023178e+09 -1.1183966e+11)
(-3.0225274e+12 -6.2774757e+09 -9.9052425e+10)
(-2.9839522e+12 -1.2138452e+10 -1.0947366e+11)
(-3.0179573e+12 -9.0876906e+09 -9.6851183e+10)
(-2.9752282e+12 -7.7761862e+09 -1.1566415e+11)
(-3.0089966e+12 -8.9804021e+09 -1.0146716e+11)
(-3.5629915e+12 -2.8329479e+10 -1.6041192e+11)
(-3.5438591e+12 -1.4084286e+10 -1.6608512e+11)
(-3.0842262e+12 -3.708085e+09 -1.0266749e+11)
(-3.5784328e+12 -4.8114181e+09 -1.2219902e+11)
(-3.1049526e+12 -3.4625367e+09 -1.3273747e+11)
(-3.1121677e+12 -4.7034684e+09 -1.3339394e+11)
(-3.0558147e+12 -9.8052707e+09 -1.1378027e+11)
(-3.048643e+12 -1.8755823e+09 -1.1448505e+11)
(-3.5599968e+12 -7.295389e+09 -1.3087886e+11)
(-3.0798865e+12 -1.2657789e+10 -1.4518378e+11)
(-3.0659695e+12 -2.3050089e+09 -1.4869699e+11)
(-2.9675732e+12 -1.015058e+10 -1.1807127e+11)
(-2.959721e+12 1.1331196e+09 -1.2027206e+11)
(-3.002326e+12 -6.576179e+09 -1.0439112e+11)
(-2.9928969e+12 -6.6143079e+08 -1.0634931e+11)
(-3.524241e+12 -6.2541613e+09 -1.5974317e+11)
(-3.5600231e+12 -8.9157049e+09 -1.4546254e+11)
(-2.9576028e+12 -8.9399106e+09 -1.0722518e+11)
(-2.9483341e+12 -6.6015405e+09 -1.1169415e+11)
(-2.997811e+12 -6.2912337e+09 -9.3918002e+10)
(-2.9895896e+12 -8.4885265e+09 -9.6932027e+10)
(-2.9479374e+12 -6.5580612e+09 -1.1252671e+11)
(-2.9889376e+12 -4.2357432e+09 -9.8104569e+10)
(-2.9608773e+12 -3.3397354e+09 -1.1031531e+11)
(-3.0017813e+12 -5.5994973e+09 -9.6855936e+10)
(-2.9328487e+12 -3.8101164e+09 -1.0123888e+11)