/*--------------------------------*- C++ -*----------------------------------*\
  =========                 |
  \\      /  F ield         | OpenFOAM: The Open Source CFD Toolbox
   \\    /   O peration     | Website:  https://openfoam.org
    \\  /    A nd           | Version:  7
     \\/     M anipulation  |
\*---------------------------------------------------------------------------*/
FoamFile
{
    version     2.0;
    format      ascii;
    class       volScalarField;
    location    "6000";
    object      pMean;
}
// * * * * * * * * * * * * * * * * * * * * * * * * * * * * * * * * * * * * * //

dimensions      [0 2 -2 0 0 0 0];

internalField   nonuniform List<scalar> 
34158
(
-1.0111521e+70
-1.0122093e+70
-1.0128571e+70
-1.0132009e+70
-1.0032223e+70
-1.0017854e+70
-9.9231762e+69
-9.9371326e+69
-8.9434159e+69
-8.9431867e+69
-1.003603e+70
-1.0035225e+70
-9.9502449e+69
-9.9553782e+69
-1.0040282e+70
-9.8533794e+69
-1.0019145e+70
-9.8411821e+69
-9.7422502e+69
-9.7586605e+69
-9.2092206e+69
-9.1908548e+69
-8.9563384e+69
-8.9530663e+69
-8.4844484e+69
-8.7076328e+69
-8.7177538e+69
-8.492562e+69
-9.0035836e+69
-9.1444252e+69
-9.1415449e+69
-8.9915061e+69
-8.9787128e+69
-9.1313771e+69
-8.2847399e+69
-8.2766038e+69
-9.9633294e+69
-9.9591678e+69
-1.0048501e+70
-9.866845e+69
-1.0047253e+70
-9.8632581e+69
-9.7757632e+69
-9.7901288e+69
-9.8948802e+69
-9.8839799e+69
-1.0036907e+70
-9.8479725e+69
-9.6824943e+69
-1.0007917e+70
-9.8361875e+69
-9.6698831e+69
-9.5225813e+69
-9.5361673e+69
-9.2304384e+69
-9.2503283e+69
-9.1627117e+69
-9.1469625e+69
-8.9404888e+69
-8.9246117e+69
-8.0785601e+69
-8.9593496e+69
-8.7391815e+69
-8.4997161e+69
-8.5035338e+69
-8.7212127e+69
-9.0058532e+69
-9.1365066e+69
-9.148819e+69
-9.0001377e+69
-9.0050166e+69
-9.1507157e+69
-9.1512316e+69
-9.0071803e+69
-8.2442996e+69
-8.9001924e+69
-8.8923428e+69
-8.7251036e+69
-8.7104001e+69
-8.7120355e+69
-8.8855305e+69
-8.2487899e+69
-9.0414325e+69
-9.049207e+69
-9.09621e+69
-9.0956557e+69
-9.1101726e+69
-9.110125e+69
-9.1658306e+69
-9.1017507e+69
-9.1116409e+69
-9.164077e+69
-9.1558087e+69
-9.0376677e+69
-9.0962467e+69
-9.0250914e+69
-9.0844178e+69
-9.0121707e+69
-9.0240719e+69
-9.0825469e+69
-9.0789555e+69
-9.1588802e+69
-9.1019159e+69
-9.1574095e+69
-9.1011583e+69
-8.3005546e+69
-8.292162e+69
-8.2557407e+69
-8.2467092e+69
-8.6018382e+69
-8.5893543e+69
-9.8733259e+69
-9.868192e+69
-9.8074781e+69
-9.7964073e+69
-9.9006147e+69
-9.9073444e+69
-1.0051537e+70
-9.8554746e+69
-9.7122701e+69
-1.0045009e+70
-9.8523942e+69
-9.7003256e+69
-9.5568105e+69
-9.5671999e+69
-9.6313244e+69
-1.0006958e+70
-1.0001297e+70
-9.6222199e+69
-9.9971887e+69
-9.995026e+69
-1.003693e+70
-9.8423389e+69
-9.6613412e+69
-9.4785625e+69
-1.0007515e+70
-9.8218237e+69
-9.6498766e+69
-9.463033e+69
-9.2702095e+69
-9.280305e+69
-9.2069759e+69
-9.1821105e+69
-8.9601216e+69
-8.9765004e+69
-9.1616542e+69
-8.8762488e+69
-9.149588e+69
-8.8658541e+69
-1.0157073e+70
-1.0159566e+70
-8.0339822e+69
-8.084451e+69
-9.2447365e+69
-8.7478415e+69
-8.5150617e+69
-9.0037259e+69
-9.1413987e+69
-9.1368846e+69
-9.0020185e+69
-8.9255167e+69
-8.7661286e+69
-8.7457104e+69
-8.9159149e+69
-8.2553273e+69
-8.261009e+69
-8.9104652e+69
-8.9044761e+69
-8.730331e+69
-8.7392206e+69
-9.0919193e+69
-9.0412001e+69
-9.0377637e+69
-9.0888907e+69
-9.1652158e+69
-9.1141045e+69
-9.1111193e+69
-9.1681382e+69
-9.1705291e+69
-9.1216855e+69
-9.1145151e+69
-9.1634172e+69
-9.0423304e+69
-9.0466815e+69
-9.1047552e+69
-9.0992388e+69
-9.1031618e+69
-9.0527321e+69
-9.0482973e+69
-9.1051974e+69
-9.1157053e+69
-9.1689162e+69
-9.1176899e+69
-9.1716457e+69
-9.1108886e+69
-9.1197157e+69
-9.1682014e+69
-9.0533638e+69
-9.1104375e+69
-9.0987119e+69
-9.0515047e+69
-8.1797136e+69
-8.7022015e+69
-8.6773398e+69
-9.0087935e+69
-9.0088795e+69
-9.0290763e+69
-9.0087471e+69
-9.0052048e+69
-8.9979181e+69
-9.0023601e+69
-8.9889174e+69
-8.6730727e+69
-8.9881568e+69
-8.980011e+69
-8.9967447e+69
-8.9841951e+69
-8.1801118e+69
-9.056158e+69
-9.0642994e+69
-9.0592488e+69
-9.0656584e+69
-9.0667372e+69
-9.0635004e+69
-9.0667894e+69
-9.0566822e+69
-9.0410506e+69
-9.0593332e+69
-9.0649972e+69
-9.0499709e+69
-9.0490149e+69
-9.0656564e+69
-9.0619744e+69
-9.0473631e+69
-9.1095982e+69
-9.1130046e+69
-9.1445239e+69
-9.1420919e+69
-9.1121445e+69
-9.1096595e+69
-9.143012e+69
-9.1445158e+69
-9.184433e+69
-9.1825578e+69
-9.1842361e+69
-9.2103739e+69
-9.2097551e+69
-9.1037252e+69
-9.1046997e+69
-9.136767e+69
-9.1357103e+69
-9.1082311e+69
-9.1099121e+69
-9.1411243e+69
-9.138687e+69
-9.208967e+69
-9.1821309e+69
-9.1798107e+69
-9.2054231e+69
-9.2050679e+69
-9.1794117e+69
-9.1783758e+69
-9.2042756e+69
-9.0567624e+69
-9.0576513e+69
-9.0624234e+69
-9.0648257e+69
-9.0494614e+69
-9.0640921e+69
-9.0628799e+69
-9.0501982e+69
-9.0676528e+69
-9.0581227e+69
-9.0443015e+69
-9.0497152e+69
-9.0407312e+69
-9.0509298e+69
-9.0614855e+69
-9.0565876e+69
-9.0263814e+69
-9.0372582e+69
-9.047786e+69
-9.037541e+69
-9.0428489e+69
-9.0448177e+69
-9.0476814e+69
-9.0522307e+69
-9.0558387e+69
-9.0381444e+69
-9.0424507e+69
-9.0588073e+69
-9.0363775e+69
-9.0391034e+69
-9.0569379e+69
-9.053755e+69
-9.2050082e+69
-9.1794551e+69
-9.1774631e+69
-9.2023269e+69
-9.1368359e+69
-9.1028666e+69
-9.1042379e+69
-9.1353164e+69
-9.199383e+69
-9.1754401e+69
-9.1727762e+69
-9.1985044e+69
-9.1329105e+69
-9.1019553e+69
-9.1005553e+69
-9.1309738e+69
-8.2529424e+69
-8.3170935e+69
-8.3084448e+69
-8.2698572e+69
-8.2600841e+69
-8.6306754e+69
-8.6181658e+69
-8.2809595e+69
-8.5360163e+69
-8.2746997e+69
-8.5286481e+69
-9.8086785e+69
-9.8165476e+69
-9.8571834e+69
-9.7327155e+69
-9.8507499e+69
-9.7230967e+69
-9.5862909e+69
-9.5769639e+69
-9.6417316e+69
-1.0021572e+70
-1.0003257e+70
-9.6491862e+69
-1.0029334e+70
-1.0027608e+70
-1.0051873e+70
-9.8590652e+69
-9.6843922e+69
-9.5119019e+69
-1.0044976e+70
-9.8489166e+69
-9.6768922e+69
-9.4981188e+69
-9.2958613e+69
-9.3033553e+69
-9.3145895e+69
-9.663819e+69
-9.6727196e+69
-9.8494266e+69
-9.8443961e+69
-9.3057548e+69
-9.6658491e+69
-9.6529764e+69
-9.832297e+69
-9.842671e+69
-9.8428151e+69
-9.6621964e+69
-9.4661706e+69
-9.2372725e+69
-9.8227307e+69
-9.6542357e+69
-9.4490156e+69
-9.226936e+69
-8.9933884e+69
-9.0047097e+69
-9.2048376e+69
-8.9198998e+69
-9.1756328e+69
-8.9008083e+69
-9.1597158e+69
-8.8742243e+69
-9.1494667e+69
-8.8676524e+69
-1.0002713e+70
-9.9988095e+69
-1.0173004e+70
-1.0159062e+70
-1.0011107e+70
-1.0270459e+70
-1.0271324e+70
-1.0314634e+70
-1.0313484e+70
-1.0008739e+70
-1.0271709e+70
-1.0268436e+70
-1.0182306e+70
-1.0178114e+70
-8.2354737e+69
-8.2406505e+69
-8.0410338e+69
-8.0927313e+69
-9.2406747e+69
-9.2865766e+69
-9.2612795e+69
-9.2857624e+69
-9.2621399e+69
-9.2614875e+69
-9.2594961e+69
-9.2467265e+69
-9.2466361e+69
-8.9312841e+69
-8.9254592e+69
-8.7602852e+69
-8.7762878e+69
-8.2724654e+69
-9.0284479e+69
-9.0304788e+69
-9.0356763e+69
-9.0881576e+69
-9.088221e+69
-9.111645e+69
-9.1117606e+69
-9.170067e+69
-9.1690447e+69
-9.1153744e+69
-9.107286e+69
-9.1681122e+69
-9.1591913e+69
-9.0351518e+69
-9.0372583e+69
-9.0937898e+69
-9.0848365e+69
-9.0555573e+69
-9.0075953e+69
-9.0192065e+69
-9.0413331e+69
-8.732119e+69
-8.7102245e+69
-9.0191578e+69
-9.0103541e+69
-9.0300035e+69
-9.0373743e+69
-8.191185e+69
-8.7026933e+69
-8.7144869e+69
-8.1908325e+69
-9.0166021e+69
-9.0173834e+69
-9.0332804e+69
-9.021968e+69
-9.0057818e+69
-9.0196868e+69
-9.0167393e+69
-9.0336265e+69
-9.0529143e+69
-9.0430818e+69
-9.0504941e+69
-9.0651961e+69
-9.0572895e+69
-9.061158e+69
-9.0671466e+69
-9.0672123e+69
-9.0530357e+69
-9.0601675e+69
-9.0653025e+69
-9.0597169e+69
-9.0704362e+69
-9.056416e+69
-9.0543823e+69
-9.0694977e+69
-9.2118407e+69
-9.183816e+69
-9.1867147e+69
-9.2134831e+69
-9.1442616e+69
-9.1075813e+69
-9.1155536e+69
-9.1486201e+69
-9.1175177e+69
-9.118416e+69
-9.1493747e+69
-9.1478288e+69
-9.2142799e+69
-9.1883939e+69
-9.1885203e+69
-9.2137733e+69
-9.2139188e+69
-9.1897513e+69
-9.1873509e+69
-9.2110938e+69
-9.1477565e+69
-9.1185056e+69
-9.1183908e+69
-9.1475187e+69
-9.1139773e+69
-9.1177071e+69
-9.1468535e+69
-9.1444249e+69
-9.211371e+69
-9.1866654e+69
-9.1857282e+69
-9.2123639e+69
-9.0642083e+69
-9.0731543e+69
-9.0776056e+69
-9.0655442e+69
-9.0690133e+69
-9.0670316e+69
-9.0703485e+69
-9.0761547e+69
-9.0614253e+69
-9.0569753e+69
-9.0734272e+69
-9.0748392e+69
-9.07374e+69
-9.0624099e+69
-9.0547666e+69
-9.0667483e+69
-9.0602505e+69
-9.0538189e+69
-9.0593922e+69
-9.0692936e+69
-9.0715818e+69
-9.07067e+69
-9.0726334e+69
-9.0781466e+69
-9.0678021e+69
-9.0724901e+69
-9.0775146e+69
-9.0709842e+69
-9.0722727e+69
-9.0605247e+69
-9.0571627e+69
-9.069352e+69
-9.1476182e+69
-9.1142601e+69
-9.1488198e+69
-9.1192315e+69
-9.2144245e+69
-9.1870958e+69
-9.1884672e+69
-9.2141145e+69
-9.1175943e+69
-9.1495627e+69
-9.1460427e+69
-9.1152594e+69
-9.186829e+69
-9.1884149e+69
-9.2134304e+69
-9.1093316e+69
-9.1118756e+69
-9.1397533e+69
-9.1421374e+69
-9.1139019e+69
-9.1157138e+69
-9.1446504e+69
-9.143108e+69
-9.1828855e+69
-9.1842833e+69
-9.0757771e+69
-9.0721533e+69
-9.0742319e+69
-9.0755607e+69
-9.0556342e+69
-9.0708041e+69
-9.0581032e+69
-9.0682044e+69
-9.059911e+69
-9.0494238e+69
-9.042885e+69
-9.0560501e+69
-9.0727459e+69
-9.0789888e+69
-9.0620722e+69
-9.0580535e+69
-8.6409494e+69
-8.6078769e+69
-8.6439353e+69
-8.611994e+69
-9.091048e+69
-9.0675367e+69
-9.0612014e+69
-9.0613373e+69
-9.0401757e+69
-9.1344092e+69
-9.1219912e+69
-9.0459354e+69
-9.0433766e+69
-9.1135613e+69
-9.1238578e+69
-9.0349322e+69
-9.1064724e+69
-9.1232646e+69
-9.0366904e+69
-9.034215e+69
-9.108003e+69
-9.1006294e+69
-9.0318164e+69
-9.0194184e+69
-8.6043749e+69
-9.0547453e+69
-9.0366768e+69
-9.0219563e+69
-9.1094169e+69
-9.0910036e+69
-9.0205032e+69
-9.0136456e+69
-9.0821697e+69
-9.08666e+69
-9.0008888e+69
-8.6292406e+69
-8.6026456e+69
-8.6196422e+69
-9.1014254e+69
-9.1067908e+69
-9.1096451e+69
-9.1119008e+69
-9.1083721e+69
-9.1051022e+69
-9.1117033e+69
-9.105077e+69
-9.0801318e+69
-9.0854439e+69
-9.0873195e+69
-9.0850244e+69
-9.0865339e+69
-9.0886733e+69
-9.0873365e+69
-9.0857438e+69
-9.1240155e+69
-9.1249242e+69
-9.1566828e+69
-9.1555396e+69
-9.124481e+69
-9.1235441e+69
-9.1572386e+69
-9.1565627e+69
-9.1919184e+69
-9.1908046e+69
-9.1922285e+69
-9.2239937e+69
-9.2222659e+69
-9.1170521e+69
-9.1175517e+69
-9.1513363e+69
-9.1504742e+69
-9.119809e+69
-9.1230114e+69
-9.1554613e+69
-9.1540043e+69
-9.2211318e+69
-9.1903678e+69
-9.1894531e+69
-9.2182058e+69
-9.2174518e+69
-9.1878537e+69
-9.1866831e+69
-9.2163403e+69
-9.1008489e+69
-9.1011967e+69
-9.1101163e+69
-9.1112093e+69
-9.0855046e+69
-9.0878147e+69
-9.0847884e+69
-9.0850941e+69
-9.1098429e+69
-9.1012069e+69
-9.0925217e+69
-9.1018367e+69
-9.0792279e+69
-9.0873359e+69
-9.0840812e+69
-9.0817036e+69
-9.0782585e+69
-9.084025e+69
-9.0964223e+69
-9.0912126e+69
-9.0876033e+69
-9.0886888e+69
-9.0979587e+69
-9.0995914e+69
-9.0812871e+69
-9.0769761e+69
-9.0777448e+69
-9.0810066e+69
-9.0723092e+69
-9.0758726e+69
-9.0791713e+69
-9.0768562e+69
-9.2169614e+69
-9.1866829e+69
-9.1838271e+69
-9.2145844e+69
-9.1499284e+69
-9.117734e+69
-9.1159368e+69
-9.148003e+69
-9.2131486e+69
-9.1818882e+69
-9.1788411e+69
-9.1458786e+69
-9.1140828e+69
-9.1122887e+69
-9.1439187e+69
-8.2673149e+69
-8.3529937e+69
-8.3638967e+69
-8.3709227e+69
-8.3643101e+69
-8.4446765e+69
-8.3253614e+69
-8.3170252e+69
-8.4342845e+69
-8.2857056e+69
-8.2749451e+69
-8.6525009e+69
-8.642074e+69
-8.2945102e+69
-8.5659883e+69
-8.2870396e+69
-8.5547172e+69
-8.5569005e+69
-8.293747e+69
-8.2883594e+69
-8.5505018e+69
-9.7392192e+69
-9.7326343e+69
-9.5931888e+69
-9.5996281e+69
-9.656694e+69
-9.6637247e+69
-9.8604766e+69
-9.7050658e+69
-9.5277251e+69
-9.8481688e+69
-9.6925784e+69
-9.5193537e+69
-9.3169583e+69
-9.3115727e+69
-9.3230596e+69
-9.6769203e+69
-9.6792289e+69
-9.8575759e+69
-9.8519741e+69
-9.3280474e+69
-9.6848037e+69
-9.8624212e+69
-9.865421e+69
-9.6846396e+69
-9.8593746e+69
-9.6878444e+69
-9.5008088e+69
-9.2632573e+69
-9.849229e+69
-9.6736638e+69
-9.4861248e+69
-9.2510241e+69
-9.0205517e+69
-9.0284101e+69
-9.0168169e+69
-9.4834079e+69
-9.3346565e+69
-9.3303028e+69
-9.4801861e+69
-9.8038593e+69
-9.8127169e+69
-9.0060732e+69
-9.478871e+69
-9.3273975e+69
-9.3111459e+69
-9.4663403e+69
-9.8048914e+69
-9.7925431e+69
-9.6622207e+69
-9.4667508e+69
-9.2428835e+69
-8.9435379e+69
-9.653916e+69
-9.4543118e+69
-9.2299378e+69
-8.9378155e+69
-9.2073079e+69
-8.9260327e+69
-9.1620176e+69
-8.9027176e+69
-9.1593753e+69
-8.8746163e+69
-9.1492868e+69
-8.8694841e+69
-1.0083253e+70
-1.0081843e+70
-1.0171046e+70
-1.0171441e+70
-1.0337244e+70
-1.0339454e+70
-1.0341001e+70
-1.0341512e+70
-1.0082938e+70
-1.0171019e+70
-1.0169353e+70
-1.0083996e+70
-1.0336324e+70
-1.0336673e+70
-1.0019611e+70
-1.028514e+70
-1.0284107e+70
-1.032607e+70
-1.0326381e+70
-1.0012472e+70
-1.0276945e+70
-1.0273464e+70
-1.0315869e+70
-1.0320598e+70
-1.0179249e+70
-1.0093995e+70
-1.0095197e+70
-1.0181612e+70
-1.0348344e+70
-1.0368679e+70
-1.0372456e+70
-1.035035e+70
-1.0349236e+70
-1.0371637e+70
-1.0367197e+70
-1.0347201e+70
-1.0424256e+70
-1.0408539e+70
-1.0405342e+70
-1.0406184e+70
-1.0425422e+70
-1.0421513e+70
-1.0409429e+70
-1.0095346e+70
-1.0088296e+70
-1.0177311e+70
-1.0181748e+70
-1.0346482e+70
-1.0367451e+70
-1.0346536e+70
-1.0344921e+70
-1.0342595e+70
-1.0030209e+70
-1.0295297e+70
-1.0295857e+70
-1.0026765e+70
-1.0288008e+70
-1.0292817e+70
-1.0328178e+70
-1.0331843e+70
-8.6786029e+69
-8.6686479e+69
-8.6709641e+69
-8.679398e+69
-8.2523679e+69
-8.6864278e+69
-8.6777121e+69
-8.6831171e+69
-8.7042205e+69
-8.0501185e+69
-8.2563549e+69
-9.2595906e+69
-9.2606128e+69
-9.2865265e+69
-9.2851569e+69
-9.2964409e+69
-9.2635599e+69
-9.2621181e+69
-9.2631984e+69
-9.2613151e+69
-9.289159e+69
-9.2629253e+69
-9.2615507e+69
-9.2873381e+69
-9.2679302e+69
-9.2642284e+69
-9.2665389e+69
-9.2918525e+69
-9.2906398e+69
-8.2042407e+69
-9.006302e+69
-9.0506328e+69
-9.0148676e+69
-9.0168495e+69
-9.0542218e+69
-9.0479073e+69
-9.0170337e+69
-9.0050064e+69
-9.0466191e+69
-9.0581833e+69
-8.7254403e+69
-8.7405313e+69
-8.2010998e+69
-9.0453824e+69
-9.0592653e+69
-9.0676721e+69
-9.0541995e+69
-9.0581381e+69
-9.0721403e+69
-9.0454612e+69
-9.0501409e+69
-9.0529216e+69
-9.0513241e+69
-9.0461268e+69
-9.0492543e+69
-9.0477276e+69
-9.0578158e+69
-9.0577229e+69
-9.0489091e+69
-9.0720842e+69
-9.0754908e+69
-9.0734578e+69
-9.0534868e+69
-9.0543703e+69
-9.0710237e+69
-9.1542867e+69
-9.1218572e+69
-9.1223407e+69
-9.1528608e+69
-9.1186172e+69
-9.1208444e+69
-9.152212e+69
-9.1482182e+69
-9.1948763e+69
-9.2211876e+69
-9.2192712e+69
-9.1929421e+69
-9.1903178e+69
-9.2177821e+69
-9.1458875e+69
-9.1189366e+69
-9.1162983e+69
-9.1448245e+69
-9.1083982e+69
-9.1150448e+69
-9.1437815e+69
-9.1401884e+69
-9.1867058e+69
-9.1883146e+69
-9.2174797e+69
-9.2137452e+69
-9.2123424e+69
-9.1858357e+69
-9.1833408e+69
-9.2113212e+69
-9.0505544e+69
-9.0612395e+69
-9.0544183e+69
-9.0464306e+69
-9.0520353e+69
-9.0533232e+69
-9.0507233e+69
-9.0581219e+69
-9.0696415e+69
-9.0497615e+69
-9.0546316e+69
-9.0697511e+69
-9.0672079e+69
-9.0499567e+69
-9.0433794e+69
-9.0581458e+69
-9.1159095e+69
-9.1412664e+69
-9.0398492e+69
-9.0491906e+69
-9.1336308e+69
-9.1425244e+69
-9.1283798e+69
-9.0457201e+69
-9.0398766e+69
-9.0979924e+69
-8.6703459e+69
-8.6412971e+69
-9.0952977e+69
-9.0993026e+69
-9.0487998e+69
-9.1447547e+69
-9.1308843e+69
-9.0500848e+69
-9.0512808e+69
-9.127664e+69
-9.1376118e+69
-9.0410633e+69
-8.6349478e+69
-8.6528377e+69
-8.633832e+69
-8.655769e+69
-9.096234e+69
-9.0833034e+69
-9.0838353e+69
-9.0948343e+69
-8.6692139e+69
-8.6390112e+69
-9.1286322e+69
-9.1412286e+69
-9.0468829e+69
-9.0510176e+69
-9.0496706e+69
-9.1239617e+69
-9.1356231e+69
-9.0453854e+69
-9.0497354e+69
-9.1222677e+69
-9.1299452e+69
-9.0351118e+69
-9.1357448e+69
-9.0470885e+69
-9.0493711e+69
-9.122175e+69
-9.0828947e+69
-9.0798518e+69
-9.085641e+69
-9.0889666e+69
-9.1055528e+69
-9.109163e+69
-9.1113917e+69
-9.1118608e+69
-9.1082226e+69
-9.1110624e+69
-9.1156785e+69
-9.1158063e+69
-9.0931323e+69
-9.0923869e+69
-9.0930405e+69
-9.0941919e+69
-9.2259437e+69
-9.1936862e+69
-9.1922533e+69
-9.2247868e+69
-9.1576689e+69
-9.1269783e+69
-9.1272424e+69
-9.1576201e+69
-9.1292107e+69
-9.1298646e+69
-9.1599398e+69
-9.1602332e+69
-9.2259966e+69
-9.1943448e+69
-9.1951537e+69
-9.2251399e+69
-9.227075e+69
-9.1993391e+69
-9.1949721e+69
-9.2252735e+69
-9.1617308e+69
-9.1301505e+69
-9.1296596e+69
-9.1606475e+69
-9.1281417e+69
-9.1291803e+69
-9.1625145e+69
-9.1598442e+69
-9.2252639e+69
-9.1969957e+69
-9.1951435e+69
-9.2249513e+69
-9.1123249e+69
-9.1168303e+69
-9.1239428e+69
-9.1194479e+69
-9.1138563e+69
-9.1116172e+69
-9.1194527e+69
-9.1239995e+69
-9.0966145e+69
-9.0947244e+69
-9.09682e+69
-9.0963706e+69
-9.0949855e+69
-9.096477e+69
-9.0922785e+69
-9.0928066e+69
-9.0921893e+69
-9.0915856e+69
-9.0961928e+69
-9.096995e+69
-9.1179056e+69
-9.1135388e+69
-9.1144535e+69
-9.1234711e+69
-9.1134059e+69
-9.1142795e+69
-9.1239674e+69
-9.1233626e+69
-9.0967464e+69
-9.0974843e+69
-9.0951378e+69
-9.0947341e+69
-9.1620991e+69
-9.1334883e+69
-9.1603338e+69
-9.1321997e+69
-9.2273229e+69
-9.1972144e+69
-9.1954023e+69
-9.2257893e+69
-9.1316402e+69
-9.1614806e+69
-9.1600327e+69
-9.1292639e+69
-9.1943914e+69
-9.1954057e+69
-9.2261066e+69
-9.1229925e+69
-9.1272608e+69
-9.1565833e+69
-9.1582601e+69
-9.1250096e+69
-9.1273329e+69
-9.1605682e+69
-9.1561497e+69
-9.1909711e+69
-9.1948428e+69
-9.1162752e+69
-9.1152529e+69
-9.1233348e+69
-9.1224191e+69
-9.0917641e+69
-9.093251e+69
-9.0942528e+69
-9.0903871e+69
-9.0857886e+69
-9.0850561e+69
-9.0809824e+69
-9.0856925e+69
-9.1156646e+69
-9.1174571e+69
-9.1093612e+69
-9.1095357e+69
-8.9190812e+69
-8.9349506e+69
-8.9515962e+69
-8.9312992e+69
-8.9058826e+69
-8.906486e+69
-8.9250736e+69
-8.9210786e+69
-8.9234915e+69
-8.9470117e+69
-8.9985324e+69
-8.9753708e+69
-8.9194943e+69
-8.9170509e+69
-8.9684086e+69
-8.9714942e+69
-9.1637121e+69
-9.1531313e+69
-9.151265e+69
-9.1557195e+69
-9.156601e+69
-9.139591e+69
-9.134378e+69
-9.1366574e+69
-9.0605006e+69
-9.0599689e+69
-9.0610482e+69
-9.055002e+69
-9.0552781e+69
-9.0501271e+69
-9.0487539e+69
-9.0416158e+69
-8.9130964e+69
-8.898327e+69
-8.9624914e+69
-8.9460557e+69
-9.1404049e+69
-9.125471e+69
-9.1199569e+69
-9.1220091e+69
-9.041729e+69
-9.0371686e+69
-9.0341085e+69
-9.028394e+69
-8.9448551e+69
-8.8965382e+69
-8.9010372e+69
-8.8956941e+69
-8.9089734e+69
-8.919094e+69
-8.8968238e+69
-8.908182e+69
-8.9140334e+69
-8.9066676e+69
-9.1114952e+69
-9.1372266e+69
-9.1306206e+69
-9.1016529e+69
-9.1146135e+69
-9.1354034e+69
-9.1355202e+69
-9.1109016e+69
-9.1201139e+69
-9.1461449e+69
-9.1438215e+69
-9.1172109e+69
-9.120696e+69
-9.1454635e+69
-9.1452864e+69
-9.1205483e+69
-9.1331871e+69
-9.1166881e+69
-9.1334995e+69
-9.1152837e+69
-9.1351601e+69
-9.1124545e+69
-9.1267971e+69
-9.1143061e+69
-9.1425337e+69
-9.1432045e+69
-9.1173564e+69
-9.1194535e+69
-9.1357742e+69
-9.1106351e+69
-9.1120068e+69
-9.1420245e+69
-9.1025339e+69
-9.1001435e+69
-9.1049407e+69
-9.1071464e+69
-9.1191392e+69
-9.1177296e+69
-9.1280502e+69
-9.1289516e+69
-9.1200881e+69
-9.1197257e+69
-9.1296767e+69
-9.1290467e+69
-9.1066095e+69
-9.1056301e+69
-9.1087827e+69
-9.1090088e+69
-9.1091778e+69
-9.1077036e+69
-9.108712e+69
-9.1104228e+69
-9.1207288e+69
-9.1199256e+69
-9.1297727e+69
-9.1294368e+69
-9.11929e+69
-9.1200817e+69
-9.1287867e+69
-9.1276345e+69
-9.1068189e+69
-9.1088732e+69
-9.1103103e+69
-9.1088531e+69
-9.1474884e+69
-9.1486273e+69
-9.1578038e+69
-9.1563903e+69
-9.1486696e+69
-9.1486905e+69
-9.1585298e+69
-9.1580197e+69
-9.1875318e+69
-9.1772232e+69
-9.176818e+69
-9.1868617e+69
-9.1861452e+69
-9.1760697e+69
-9.1750428e+69
-9.1845958e+69
-9.1489385e+69
-9.1495299e+69
-9.1593769e+69
-9.1585243e+69
-9.1576217e+69
-9.1472926e+69
-9.1486691e+69
-9.1584686e+69
-9.186842e+69
-9.1769705e+69
-9.1776997e+69
-9.1877212e+69
-9.1883218e+69
-9.1778634e+69
-9.177151e+69
-9.1875428e+69
-9.2070822e+69
-9.2076749e+69
-9.2181296e+69
-9.2174734e+69
-9.2039817e+69
-9.2056573e+69
-9.2161302e+69
-9.2142502e+69
-9.2173999e+69
-9.2071134e+69
-9.206572e+69
-9.2167717e+69
-9.247361e+69
-9.236499e+69
-9.2357847e+69
-9.2466178e+69
-9.2458995e+69
-9.2350322e+69
-9.2334139e+69
-9.244155e+69
-9.1414803e+69
-9.1421689e+69
-9.1519131e+69
-9.1507367e+69
-9.1430576e+69
-9.1434881e+69
-9.1529062e+69
-9.1526382e+69
-9.1816908e+69
-9.1726236e+69
-9.1724023e+69
-9.1815418e+69
-9.1806738e+69
-9.1714336e+69
-9.1704479e+69
-9.1798005e+69
-9.1446437e+69
-9.14584e+69
-9.1544418e+69
-9.1530544e+69
-9.1556999e+69
-9.1470283e+69
-9.146304e+69
-9.1551866e+69
-9.1846686e+69
-9.1750633e+69
-9.1742814e+69
-9.1831738e+69
-9.1829342e+69
-9.1744604e+69
-9.173626e+69
-9.1820817e+69
-9.2430061e+69
-9.2326072e+69
-9.2312169e+69
-9.2419904e+69
-9.21368e+69
-9.2033302e+69
-9.2020316e+69
-9.2121506e+69
-9.2001702e+69
-9.2008624e+69
-9.2116116e+69
-9.2103151e+69
-9.2413447e+69
-9.2301186e+69
-9.2290914e+69
-9.2400962e+69
-9.2390179e+69
-9.2286949e+69
-9.2284458e+69
-9.23891e+69
-9.2101239e+69
-9.2002612e+69
-9.2003599e+69
-9.2099824e+69
-9.1989971e+69
-9.1995556e+69
-9.2094289e+69
-9.2084198e+69
-9.2381564e+69
-9.2276343e+69
-9.2268562e+69
-9.2370807e+69
-9.1034451e+69
-9.1336474e+69
-9.13213e+69
-9.103299e+69
-9.1041601e+69
-9.1282058e+69
-9.1355288e+69
-9.1024933e+69
-9.1179563e+69
-9.1412261e+69
-9.1457378e+69
-9.1182408e+69
-9.1195478e+69
-9.1453104e+69
-9.1450583e+69
-9.1180968e+69
-9.1090918e+69
-9.1074464e+69
-9.1081541e+69
-9.1096486e+69
-9.1192833e+69
-9.1193821e+69
-9.128504e+69
-9.1274155e+69
-9.1178309e+69
-9.1186808e+69
-9.1267742e+69
-9.1252617e+69
-9.1082711e+69
-9.1087097e+69
-9.1099147e+69
-9.1087889e+69
-9.113204e+69
-9.1437796e+69
-9.1425712e+69
-9.1113336e+69
-9.105347e+69
-9.1345058e+69
-9.1326915e+69
-9.0996512e+69
-9.099333e+69
-9.1274403e+69
-9.1178546e+69
-9.08863e+69
-9.1329173e+69
-9.1114498e+69
-9.1380945e+69
-9.1067904e+69
-9.0996682e+69
-9.1040203e+69
-9.1056325e+69
-9.1024177e+69
-9.108584e+69
-9.1077345e+69
-9.1069986e+69
-9.1082075e+69
-9.1163435e+69
-9.1164009e+69
-9.1251888e+69
-9.1244007e+69
-9.1137393e+69
-9.1149857e+69
-9.1235732e+69
-9.1224122e+69
-9.1080116e+69
-9.0795922e+69
-9.0731324e+69
-9.1127964e+69
-9.0872289e+69
-9.0812998e+69
-9.1169704e+69
-9.1154441e+69
-9.1287014e+69
-9.1071704e+69
-9.1291907e+69
-9.1060192e+69
-9.1022219e+69
-9.1236588e+69
-9.1235681e+69
-9.1004011e+69
-9.0911848e+69
-9.1196616e+69
-9.117645e+69
-9.0895207e+69
-9.0888648e+69
-9.0904613e+69
-9.1142517e+69
-9.1190873e+69
-9.107525e+69
-9.1299374e+69
-9.1328098e+69
-9.1096881e+69
-9.1304e+69
-9.1317628e+69
-9.1092803e+69
-9.1082282e+69
-9.1125433e+69
-9.1123213e+69
-9.1216046e+69
-9.1214404e+69
-9.1010361e+69
-9.098842e+69
-9.0997077e+69
-9.1016051e+69
-9.1013458e+69
-9.099546e+69
-9.0990442e+69
-9.1008015e+69
-9.1114023e+69
-9.1122644e+69
-9.1216948e+69
-9.1197605e+69
-9.0922019e+69
-9.0940287e+69
-9.0960571e+69
-9.0940245e+69
-9.0969495e+69
-9.0975836e+69
-9.0992585e+69
-9.0982201e+69
-9.1083166e+69
-9.1091497e+69
-9.1182445e+69
-9.1168795e+69
-9.1050557e+69
-9.1062727e+69
-9.1152056e+69
-9.1132477e+69
-9.2359324e+69
-9.2261142e+69
-9.2258424e+69
-9.2355006e+69
-9.2077781e+69
-9.1988281e+69
-9.1986581e+69
-9.2074243e+69
-9.196841e+69
-9.1978959e+69
-9.207277e+69
-9.2062166e+69
-9.2358292e+69
-9.2258722e+69
-9.2249706e+69
-9.2347231e+69
-9.1786077e+69
-9.1693871e+69
-9.1687486e+69
-9.1784447e+69
-9.150913e+69
-9.1417953e+69
-9.1411987e+69
-9.1503165e+69
-9.138753e+69
-9.1402109e+69
-9.149992e+69
-9.1483522e+69
-9.1785918e+69
-9.1685329e+69
-9.1673495e+69
-9.1772122e+69
-9.232983e+69
-9.2237055e+69
-9.2228637e+69
-9.2322922e+69
-9.2046037e+69
-9.1955452e+69
-9.1942504e+69
-9.2035492e+69
-9.1900541e+69
-9.1920242e+69
-9.202251e+69
-9.2006275e+69
-9.1755654e+69
-9.1657071e+69
-9.1644079e+69
-9.1742786e+69
-9.1359214e+69
-9.1370717e+69
-9.1470616e+69
-9.1455507e+69
-9.1327011e+69
-9.1341201e+69
-9.1439554e+69
-9.1417853e+69
-9.1726693e+69
-9.1625102e+69
-9.160973e+69
-9.1705223e+69
-8.2822978e+69
-8.3876976e+69
-8.3763594e+69
-8.3682927e+69
-8.3796122e+69
-8.4641809e+69
-8.3403894e+69
-8.3346394e+69
-8.4559737e+69
-8.3127795e+69
-8.3236835e+69
-8.2579612e+69
-8.2944341e+69
-8.2576225e+69
-8.2862848e+69
-8.7642172e+69
-8.6699296e+69
-8.6612194e+69
-8.7503459e+69
-8.3099904e+69
-8.5845428e+69
-8.3034289e+69
-8.5786157e+69
-8.3061551e+69
-8.5929893e+69
-8.5815008e+69
-8.2983628e+69
-8.5617743e+69
-8.2947126e+69
-8.2892922e+69
-8.5547913e+69
-9.7208514e+69
-9.5380705e+69
-9.7071483e+69
-9.5297542e+69
-9.3277509e+69
-9.333489e+69
-9.3379286e+69
-9.6866607e+69
-9.6989199e+69
-9.8733336e+69
-9.8667849e+69
-9.3421237e+69
-9.7033217e+69
-9.874735e+69
-9.877292e+69
-9.7021734e+69
-9.8602137e+69
-9.7129854e+69
-9.5220007e+69
-9.274771e+69
-9.848246e+69
-9.6967419e+69
-9.5117804e+69
-9.2655949e+69
-9.0357497e+69
-9.0329656e+69
-9.0221171e+69
-9.3421754e+69
-9.4960032e+69
-9.4891428e+69
-9.3405356e+69
-9.8176514e+69
-9.8167779e+69
-9.0257863e+69
-9.3436642e+69
-9.3452056e+69
-9.5010155e+69
-9.5017519e+69
-9.8208898e+69
-9.8198156e+69
-9.6874475e+69
-9.5028946e+69
-9.2765233e+69
-8.9702031e+69
-9.6736367e+69
-9.4849137e+69
-9.2597317e+69
-8.9623534e+69
-9.1763886e+69
-9.1761144e+69
-8.9722846e+69
-8.9756757e+69
-9.5669042e+69
-9.3636454e+69
-9.3560532e+69
-9.5604582e+69
-9.8547808e+69
-9.8581238e+69
-9.975943e+69
-9.9700591e+69
-9.8612174e+69
-9.8578365e+69
-9.977123e+69
-9.9758674e+69
-9.1586569e+69
-9.1675062e+69
-8.9642649e+69
-8.9655801e+69
-9.5583276e+69
-9.354178e+69
-9.3429474e+69
-9.5508518e+69
-9.8502731e+69
-9.8525278e+69
-9.966166e+69
-9.9662922e+69
-9.848864e+69
-9.8430474e+69
-9.9629368e+69
-9.9653466e+69
-9.4656689e+69
-9.2607456e+69
-8.9519355e+69
-9.4513003e+69
-9.24267e+69
-8.9477319e+69
-9.2069184e+69
-8.9342356e+69
-9.1599944e+69
-8.90539e+69
-8.8747054e+69
-8.8695777e+69
-1.0132283e+70
-1.0178924e+70
-1.0177518e+70
-1.0132369e+70
-1.0179811e+70
-1.0134727e+70
-1.0133644e+70
-1.0180314e+70
-1.0241722e+70
-1.0241116e+70
-1.0282891e+70
-1.0283836e+70
-1.023998e+70
-1.0238913e+70
-1.0279384e+70
-1.0281795e+70
-1.0376289e+70
-1.0379957e+70
-1.0364473e+70
-1.0361904e+70
-1.0380573e+70
-1.0378733e+70
-1.036436e+70
-1.0365265e+70
-1.0366416e+70
-1.0367852e+70
-1.0383659e+70
-1.0381117e+70
-1.0367444e+70
-1.0379176e+70
-1.0383207e+70
-1.0364718e+70
-1.0131717e+70
-1.0132372e+70
-1.0178397e+70
-1.0177254e+70
-1.0278853e+70
-1.0238071e+70
-1.0238743e+70
-1.0279916e+70
-1.0277221e+70
-1.0237659e+70
-1.0131914e+70
-1.0131639e+70
-1.0176099e+70
-1.0177518e+70
-1.0363235e+70
-1.0361227e+70
-1.037605e+70
-1.0378704e+70
-1.0362732e+70
-1.0378053e+70
-1.0374443e+70
-1.036023e+70
-1.0108262e+70
-1.0195155e+70
-1.0193044e+70
-1.0105584e+70
-1.0362482e+70
-1.0382635e+70
-1.0384154e+70
-1.0362508e+70
-1.035708e+70
-1.0359813e+70
-1.0382023e+70
-1.0377802e+70
-1.0414976e+70
-1.0418032e+70
-1.0429887e+70
-1.0433846e+70
-1.0436186e+70
-1.0433488e+70
-1.0418763e+70
-1.0420331e+70
-1.0096762e+70
-1.0185538e+70
-1.0181275e+70
-1.0095479e+70
-1.0355772e+70
-1.0376213e+70
-1.0377369e+70
-1.0355554e+70
-1.0352607e+70
-1.0374987e+70
-1.0369414e+70
-1.0349563e+70
-1.0407241e+70
-1.0411672e+70
-1.0428326e+70
-1.042242e+70
-1.0413273e+70
-1.0431068e+70
-1.0428556e+70
-1.0414459e+70
-1.0249667e+70
-1.0250818e+70
-1.0292447e+70
-1.0289792e+70
-1.0190482e+70
-1.0189103e+70
-1.0144311e+70
-1.014501e+70
-1.0144117e+70
-1.0189764e+70
-1.0188428e+70
-1.0143941e+70
-1.0249902e+70
-1.0249052e+70
-1.0289466e+70
-1.0291601e+70
-1.0373891e+70
-1.0375853e+70
-1.0391598e+70
-1.0388547e+70
-1.0407556e+70
-1.0424955e+70
-1.0430215e+70
-1.0410884e+70
-1.0429507e+70
-1.0410031e+70
-1.0425241e+70
-1.0407156e+70
-1.0375916e+70
-1.0391561e+70
-1.0388471e+70
-1.0374074e+70
-1.0374165e+70
-1.0375665e+70
-1.039121e+70
-1.0388579e+70
-1.0407009e+70
-1.0425657e+70
-1.0429677e+70
-1.040972e+70
-1.0428664e+70
-1.0409085e+70
-1.0404779e+70
-1.0422785e+70
-1.0375079e+70
-1.0390637e+70
-1.0386316e+70
-1.0372392e+70
-1.0481349e+70
-1.0485765e+70
-1.0483201e+70
-1.0485295e+70
-1.0461156e+70
-1.0450267e+70
-1.0452963e+70
-1.0465238e+70
-1.0452106e+70
-1.0464525e+70
-1.0458254e+70
-1.0447765e+70
-1.0460797e+70
-1.0449662e+70
-1.0453448e+70
-1.0465998e+70
-1.0486603e+70
-1.0486716e+70
-1.0481828e+70
-1.0483462e+70
-1.0483253e+70
-1.0487106e+70
-1.0487512e+70
-1.0482715e+70
-1.0453184e+70
-1.0465922e+70
-1.0461326e+70
-1.0450333e+70
-1.0143412e+70
-1.0188216e+70
-1.0187879e+70
-1.0142273e+70
-1.0138607e+70
-1.0184714e+70
-1.0181704e+70
-1.0136991e+70
-1.0245637e+70
-1.0287462e+70
-1.0284358e+70
-1.0243155e+70
-1.024816e+70
-1.0289108e+70
-1.0289719e+70
-1.0248198e+70
-1.0372519e+70
-1.0373386e+70
-1.0388835e+70
-1.0386771e+70
-1.0405011e+70
-1.0407364e+70
-1.042753e+70
-1.0423446e+70
-1.037265e+70
-1.0388085e+70
-1.0384851e+70
-1.0370309e+70
-1.0385915e+70
-1.0383939e+70
-1.0369699e+70
-1.0370829e+70
-1.0369687e+70
-1.0381373e+70
-1.0385263e+70
-1.0366659e+70
-1.003198e+70
-1.0033452e+70
-1.0206043e+70
-1.0120336e+70
-1.011969e+70
-1.0206534e+70
-1.0371716e+70
-1.0373807e+70
-1.0372978e+70
-1.0393508e+70
-1.038954e+70
-1.0370921e+70
-1.0116813e+70
-1.0203273e+70
-1.0199664e+70
-1.011342e+70
-1.0366142e+70
-1.0387573e+70
-1.038311e+70
-1.0363802e+70
-1.0369742e+70
-1.0388864e+70
-1.039003e+70
-1.036913e+70
-1.0438686e+70
-1.0423189e+70
-1.0419654e+70
-1.0433867e+70
-1.0424732e+70
-1.0425607e+70
-1.0032983e+70
-1.003191e+70
-8.8991004e+69
-8.8378357e+69
-8.83264e+69
-8.8913811e+69
-8.6939924e+69
-8.6973615e+69
-8.7115525e+69
-8.7096499e+69
-8.8470294e+69
-8.8448547e+69
-8.9051727e+69
-8.9140055e+69
-8.2671037e+69
-8.2715674e+69
-8.7070291e+69
-8.7015575e+69
-8.7135409e+69
-8.7313266e+69
-9.2610291e+69
-9.2622217e+69
-9.2977887e+69
-9.2959438e+69
-9.3104545e+69
-9.2986589e+69
-9.2985524e+69
-9.3103444e+69
-9.2786074e+69
-9.2664668e+69
-9.2666598e+69
-9.2788281e+69
-9.2683849e+69
-9.267823e+69
-9.2796145e+69
-9.279952e+69
-9.269418e+69
-9.2690744e+69
-9.2804191e+69
-9.2804283e+69
-9.267574e+69
-9.2689551e+69
-9.2804486e+69
-9.2792068e+69
-9.2997758e+69
-9.2640438e+69
-9.2622949e+69
-9.2978934e+69
-9.2690252e+69
-9.2656774e+69
-9.2687735e+69
-9.3035872e+69
-9.3013959e+69
-8.6632208e+69
-8.6582918e+69
-9.1091103e+69
-9.0340218e+69
-9.115923e+69
-9.1238554e+69
-9.0186356e+69
-9.0345633e+69
-9.1385625e+69
-9.1270577e+69
-9.0351345e+69