/*--------------------------------*- C++ -*----------------------------------*\
  =========                 |
  \\      /  F ield         | OpenFOAM: The Open Source CFD Toolbox
   \\    /   O peration     | Website:  https://openfoam.org
    \\  /    A nd           | Version:  7
     \\/     M anipulation  |
\*---------------------------------------------------------------------------*/
FoamFile
{
    version     2.0;
    format      ascii;
    class       volScalarField;
    location    "2000";
    object      nut;
}
// * * * * * * * * * * * * * * * * * * * * * * * * * * * * * * * * * * * * * //

dimensions      [0 2 -1 0 0 0 0];

internalField   nonuniform List<scalar> 
34378
(
1.0719808e-13
8.3078625e-13
5.8522269e-14
2.760058e-13
9.8255674e-15
5.9226563e-14
5.3012635e-15
7.6905744e-15
3.199165e-13
7.8746931e-15
3.2970231e-13
9.7790881e-13
4.7913468e-14
5.8120296e-14
2.253494e-14
1.6791977e-14
1.1045302e-13
9.7686737e-14
1.7367906e-14
1.4933174e-14
5.5833632e-14
2.3182784e-14
5.2027921e-15
2.7892951e-15
7.0695582e-15
1.22072e-14
1.2503503e-14
1.0436193e-14
5.8851353e-15
6.3603305e-15
4.8198208e-14
4.2920459e-15
3.7035637e-15
2.3423403e-13
2.3997944e-14
1.1775655e-14
4.8268119e-15
3.6744368e-15
3.4249329e-14
7.3540301e-14
2.2259802e-14
2.2448853e-14
2.0184415e-13
5.0589464e-13
2.1715953e-13
1.2383633e-14
4.6030265e-13
2.380652e-14
2.9161753e-14
7.0420829e-14
1.6233754e-14
1.4428067e-14
3.2679331e-14
3.2586226e-14
1.6030258e-14
1.9264349e-14
2.5351839e-14
5.9494915e-14
8.0272582e-14
5.75142e-14
2.5557133e-14
6.2529441e-14
3.1940705e-14
2.8289657e-14
3.1636182e-14
2.4028551e-14
2.3336912e-14
3.2233528e-15
5.5841857e-15
4.4408499e-15
6.8841531e-15
7.7484053e-15
9.6691332e-15
8.3073766e-15
5.592544e-15
3.676894e-15
3.9020226e-15
5.1410561e-15
1.3422709e-15
6.3884693e-15
4.0387649e-15
1.3151619e-15
1.3496283e-15
1.4012243e-15
4.4088298e-15
4.1550143e-15
4.4488544e-15
4.8577356e-15
8.0528265e-15
8.1931293e-15
1.3641562e-14
1.3877373e-14
1.2468904e-14
1.229763e-14
1.1353848e-14
1.0331244e-14
1.074508e-14
1.3812492e-14
1.1632173e-14
1.0165157e-14
4.5594723e-15
4.7175966e-15
8.7255686e-15
4.6057549e-15
4.6689306e-15
2.1911219e-14
2.1998084e-14
9.8302209e-14
1.0218314e-13
1.4281092e-14
1.3289392e-14
3.3165819e-14
3.0541485e-14
4.2533606e-14
5.1223006e-15
4.3503062e-15
4.420239e-14
4.1720263e-15
4.0991605e-15
8.8033316e-15
8.1790372e-15
2.569462e-14
1.4389671e-14
1.3569862e-14
2.9175037e-14
3.0919875e-14
1.3596553e-14
1.4155767e-14
3.1421291e-14
3.2184604e-14
2.068682e-14
2.1133012e-14
8.9224747e-14
2.4595888e-13
1.0121846e-13
2.422757e-13
2.4850354e-14
2.1265454e-14
2.0284485e-14
9.465004e-14
1.0301257e-13
3.7907224e-14
4.4417691e-15
4.7780998e-15
4.8629794e-14
2.4688531e-14
2.5525695e-14
2.6099191e-13
2.248077e-13
2.8409733e-14
1.0218107e-14
1.1398746e-14
1.0221803e-14
9.114892e-15
1.2708838e-14
1.1957237e-14
1.0624494e-14
1.1534352e-14
2.9582359e-14
1.6254896e-14
1.2682944e-14
1.3547894e-14
1.3838937e-14
1.3400873e-14
1.2503062e-14
1.3900733e-14
1.2540476e-14
1.0908942e-14
1.2694841e-14
3.0904861e-14
3.1196316e-14
2.0531793e-14
1.9137768e-14
2.4997562e-14
2.692639e-14
1.6670174e-14
1.5487287e-14
1.7754463e-14
2.8802899e-14
2.7168161e-14
1.5239574e-14
1.1224675e-14
1.2636332e-14
1.5493983e-14
1.3526131e-14
1.3679094e-14
1.2784939e-14
1.4997336e-14
1.5627644e-14
3.6285684e-15
4.6580335e-15
7.0342236e-15
4.086235e-15
9.1402086e-15
8.4906193e-15
7.3001035e-15
7.1742461e-15
8.2227477e-15
7.9655351e-15
6.6594252e-15
7.0906759e-15
8.0705509e-15
9.0959366e-15
8.1168915e-15
8.5094927e-15
9.6259469e-15
9.2851056e-15
8.6520782e-15
9.0463265e-15
7.1471523e-15
6.6629381e-15
6.5811956e-15
6.7073427e-15
5.7591952e-15
5.9893629e-15
5.7742232e-15
5.8031366e-15
4.2563598e-15
4.7842788e-15
4.6579808e-15
4.1914962e-15
3.7860589e-15
3.8931889e-15
3.3960492e-15
3.3562886e-15
2.0285387e-15
3.478666e-15
3.5368413e-15
3.9593807e-15
2.0178093e-15
3.8687258e-15
4.7546295e-15
4.752441e-15
4.5904165e-15
4.4740728e-15
2.3344114e-15
2.1672143e-15
4.8098774e-15
5.1740064e-15
5.0314938e-15
4.768229e-15
3.4721259e-15
3.372514e-15
3.8891354e-15
3.9232487e-15
1.976055e-15
1.9884736e-15
2.1565593e-15
2.2801594e-15
1.5275478e-15
1.0463498e-15
9.4917128e-16
1.5809293e-15
1.016829e-15
3.2638075e-15
2.9382716e-15
9.6236057e-16
1.0314366e-15
1.9091518e-15
1.5817887e-15
1.0317405e-15
6.5471014e-15
6.6286928e-15
6.3965702e-15
6.619099e-15
1.1147073e-14
1.0905349e-14
9.9029093e-15
1.1208718e-14
8.2272184e-15
7.8835451e-15
7.8758633e-15
7.3756314e-15
8.1973546e-15
7.4153763e-15
8.1279682e-15
7.5166054e-15
7.2936809e-15
7.0387939e-15
5.9105611e-15
6.2004827e-15
1.0619699e-14
1.1424454e-14
1.364028e-14
1.3218744e-14
1.1891837e-14
1.0972102e-14
1.1496463e-14
1.0769498e-14
4.9282077e-15
4.3633878e-15
7.5115878e-15
7.3044431e-15
3.7844358e-14
1.8344415e-14
1.8127211e-14
8.6159314e-15
7.6705489e-15
1.3355931e-14
1.4201441e-14
8.4178601e-15
8.6944879e-15
1.4247352e-14
1.3687744e-14
8.7830832e-15
8.7659729e-15
7.4242665e-15
7.7343171e-15
2.2549851e-14
2.2011833e-14
2.250996e-14
2.2263627e-14
7.7620376e-15
7.4231963e-15
9.8434172e-15
9.8693323e-15
8.1721295e-15
4.410028e-15
4.477284e-15
8.5929243e-15
9.4671959e-15
5.6448192e-15
3.5115946e-14
1.8894431e-14
1.9168872e-14
2.7312519e-14
1.8919727e-14
1.8364328e-14
1.4447194e-14
1.3812389e-14
2.7511846e-14
2.9200566e-14
9.9943819e-15
9.9485852e-15
9.8599045e-15
9.9184323e-15
2.2759698e-14
1.3201708e-14
1.3997108e-14
8.6887535e-15
9.1986848e-15
1.3632236e-14
1.3228714e-14
9.0218232e-15
9.1529644e-15
7.136844e-15
7.7515971e-15
1.9245777e-14
2.1586397e-14
1.0725713e-13
2.3222961e-14
1.1102458e-13
7.7173217e-15
2.1970215e-14
2.2517959e-14
7.5682678e-15
2.1996039e-14
2.3225822e-14
1.0498959e-13
1.189595e-13
1.3954992e-14
1.294867e-14
2.7595885e-14
2.6634962e-14
1.3312299e-14
1.3980972e-14
8.6333781e-15
8.9550086e-15
1.3684586e-14
1.3256567e-14
8.7575584e-15
8.6948869e-15
7.4731506e-15
7.2192569e-15
2.2355603e-14
2.2280413e-14
7.2127646e-15
2.0814302e-14
7.6975004e-15
2.2575897e-14
9.2480051e-15
5.4095365e-15
4.7669763e-15
8.5168333e-15
1.4817038e-14
1.4390748e-14
2.698445e-14
2.694555e-14
1.3955996e-14
1.4810543e-14
2.6138981e-14
2.8297578e-14
2.5327571e-14
1.2079861e-13
2.5133514e-14
1.2127649e-13
2.3356097e-14
1.0470813e-13
2.447246e-14
1.2405097e-13
1.1589882e-14
1.0489111e-14
7.5358489e-15
8.5051196e-15
7.1830275e-15
6.6062893e-15
2.7628822e-15
3.2386568e-15
7.6694754e-15
7.8896453e-15
3.261471e-15
3.16114e-15
9.001953e-15
7.6063449e-15
3.222526e-15
3.485278e-15
8.4686419e-15
9.4104597e-15
3.4308176e-15
3.1951221e-15
1.1138031e-14
1.1396087e-14
9.3522721e-15
9.6658056e-15
9.0846261e-15
7.9123689e-15
3.6093893e-15
3.9837678e-15
9.6042226e-15
9.5009035e-15
3.7373584e-15
3.6533593e-15
9.5508124e-15
8.4828888e-15
3.4932435e-15
3.7545995e-15
9.2498943e-15
9.6838281e-15
3.577332e-15
3.5308783e-15
1.2100063e-14
1.2674293e-14
1.1200316e-14
1.1449161e-14
1.372094e-14
1.2226963e-14
9.603415e-15
1.1848705e-14
2.3470581e-14
1.0015974e-14
1.1093786e-14
1.0069346e-14
9.1393043e-15
1.2180688e-14
1.119693e-14
9.2634324e-15
1.0281041e-14
1.1313829e-14
9.3241165e-15
1.1521836e-14
9.3230772e-15
1.1907986e-14
1.084173e-14
8.0232489e-15
9.3774453e-15
9.0738688e-15
8.9080733e-15
3.7192649e-15
3.529037e-15
9.3544862e-15
9.3516605e-15
3.7500861e-15
3.8283254e-15
8.4454682e-15
3.7724669e-15
4.159894e-15
1.0981974e-14
1.1109942e-14
9.4085504e-15
3.5943629e-15
3.9665319e-15
1.8981829e-15
4.0744801e-15
1.7666495e-15
1.9057551e-15
2.8995386e-15
2.8356887e-15
3.441991e-15
3.2437127e-15
3.949487e-15
4.073685e-15
3.8915713e-15
3.6558875e-15
5.2743399e-15
5.5165549e-15
5.0015618e-15
5.6033818e-15
3.5608879e-15
4.3226401e-15
6.1072722e-15
5.9718869e-15
5.7836633e-15
5.9744586e-15
6.2964052e-15
6.3446621e-15
6.1897464e-15
9.4523782e-15
8.4243456e-15
8.1494086e-15
8.4001377e-15
7.7622529e-15
7.4530934e-15
8.0589716e-15
6.8251414e-15
6.8906284e-15
7.2220713e-15
7.0152815e-15
6.9487273e-15
1.0689068e-14
1.083627e-14
1.1279327e-14
1.0068337e-14
8.3245742e-15
8.6151167e-15
8.2686877e-15
7.6286423e-15
5.5933534e-15
6.2958671e-15
5.8223891e-15
5.6925231e-15
9.7337554e-16
1.5636827e-15
4.5779743e-15
3.2713952e-15
4.872263e-15
3.321555e-15
5.0002805e-15
4.8262964e-15
4.5762385e-15
4.3004149e-15
4.3016828e-15
3.8108865e-15
4.4372439e-15
3.8121524e-15
5.1963236e-15
3.6331256e-15
5.0835884e-15
3.4969412e-15
5.3799287e-15
5.2208085e-15
5.0402082e-15
4.6923089e-15
5.2369083e-15
4.7010816e-15
5.3378601e-15
4.6580054e-15
5.6289957e-15
5.4951792e-15
3.9490573e-15
3.7362449e-15
3.9872661e-15
5.4784542e-15
5.6696775e-15
3.9068366e-15
5.4820454e-15
4.1136332e-15
5.6533887e-15
4.1580198e-15
5.6533078e-15
5.8264924e-15
5.008227e-15
5.0685558e-15
5.7740505e-15
5.563793e-15
5.1055796e-15
4.8604458e-15
5.3905134e-15
5.2103471e-15
4.0959963e-15
3.9034053e-15
4.4941891e-15
3.3138619e-15
4.6297899e-15
3.362586e-15
5.4383777e-15
5.137999e-15
4.6932103e-15
4.3804281e-15
4.8849515e-15
4.1419857e-15
5.0057379e-15
4.1669824e-15
4.9542878e-15
4.7311261e-15
3.7423849e-15
3.524278e-15
5.0620976e-15
4.024583e-15
5.2278976e-15
4.1075231e-15
4.8848653e-15
4.5650601e-15
4.5080297e-15
4.1920649e-15
4.4933613e-15
4.1560921e-15
4.6256013e-15
4.2291195e-15
5.3581252e-15
5.0351788e-15
4.3247345e-15
4.0217797e-15
3.4625194e-15
3.308702e-15
3.3406987e-15
3.0949345e-15
3.2911138e-15
3.1136198e-15
3.4566751e-15
3.2202698e-15
2.2440257e-15
2.2675693e-15
2.7617233e-15
2.6970036e-15
2.6724087e-15
2.3748679e-15
2.2188072e-15
2.6094206e-15
2.6186167e-15
2.8818789e-15
3.099935e-15
3.2289906e-15
2.5242786e-15
2.49475e-15
2.6435539e-15
2.9739588e-15
3.020088e-15
2.4881971e-15
2.5561946e-15
2.7732569e-15
2.9835908e-15
3.0131582e-15
3.5482453e-15
3.5225381e-15
3.7766838e-15
3.6562448e-15
3.1085556e-15
3.047419e-15
3.5977375e-15
3.5557098e-15
3.6290922e-15
3.4606409e-15
5.131527e-15
4.8946968e-15
4.9903041e-15
4.6794601e-15
5.0211394e-15
4.8072794e-15
5.2200861e-15
4.9057444e-15
5.800034e-15
4.8042972e-15
6.0214269e-15
4.9064525e-15
5.8744584e-15
4.8355728e-15
5.6558914e-15
4.612259e-15
2.2324394e-15
2.3037218e-15
3.1883412e-15
2.9293695e-15
2.2385958e-15
2.4001988e-15
2.9953034e-15
2.6193031e-15
5.6997026e-15
4.5948009e-15
5.9834078e-15
4.7741648e-15
5.3935059e-15
5.3407685e-15
5.1087627e-15
5.0010067e-15
4.9607491e-15
4.7218358e-15
5.2064658e-15
4.8751689e-15
6.0610633e-15
5.9617438e-15
4.9197907e-15
4.7678861e-15
2.6508826e-15
2.7004957e-15
2.6098342e-15
3.1877638e-15
3.1631385e-15
2.425913e-15
2.5074534e-15
2.4798789e-15
2.9134409e-15
2.9221128e-15
3.7920684e-15
3.7287219e-15
3.9111015e-15
3.7103721e-15
3.5153074e-15
3.4880194e-15
3.7645568e-15
3.6597483e-15
2.903502e-15
2.7805778e-15
2.7343024e-15
2.4290539e-15
2.779758e-15
2.8931299e-15
2.8844381e-15
3.1418705e-15
3.408773e-15
2.1119999e-15
2.2330624e-15
2.8331317e-15
2.2238211e-15
2.3088275e-15
3.2392419e-15
3.1009866e-15
8.7230153e-16
5.2294952e-16
5.685603e-16
8.5761498e-16
5.5876199e-16
1.1468558e-15
1.0579867e-15
1.0282497e-15
9.3389611e-16
8.4730838e-16
8.3342015e-16
5.8079804e-16
4.831241e-16
5.0029028e-16
7.5251751e-16
8.1734273e-16
1.1773206e-15
1.1679066e-15
1.0572902e-15
1.0199731e-15
6.4873603e-16
6.0873248e-16
1.0361506e-15
5.8097898e-16
5.5248271e-16
9.9422987e-16
1.3812989e-15
1.4153955e-15
1.0319749e-15
1.0275066e-15
5.0612363e-16
7.8996713e-16
8.0737868e-16
5.1295467e-16
5.1388233e-16
8.4713634e-16
8.0517929e-16
5.5077004e-16
1.1392902e-15
1.2355158e-15
1.4121102e-15
1.1375956e-15
5.2312996e-15
5.4858974e-15
3.9861704e-15
4.0845298e-15
6.017482e-15
5.9218621e-15
5.2526532e-15
5.083491e-15
5.4548301e-15
4.7553025e-15
5.7096374e-15
4.9005862e-15
5.6406754e-15
5.5404491e-15
4.3006441e-15
4.1508646e-15
5.5656869e-15
4.1082847e-15
6.0622796e-15
4.2979643e-15
5.5601885e-15
5.1466886e-15
5.4962679e-15
4.9464394e-15
4.9861651e-15
4.6171318e-15
5.222942e-15
4.7429983e-15
6.1282458e-15
6.0435262e-15
4.357131e-15
4.2433854e-15
4.8714566e-15
4.6114813e-15
4.7985461e-15
4.366396e-15
4.312566e-15
4.6158137e-15
4.0647966e-15
4.2556691e-15
4.3392271e-15
4.9053752e-15
4.7183221e-15
5.0767397e-15
4.6024367e-15
4.6515882e-15
4.9021848e-15
4.7418626e-15
4.249182e-15
4.3834571e-15
4.3346616e-15
4.2094241e-15
6.7014697e-15
3.0839669e-15
3.9819958e-15
3.9377362e-15
3.7798802e-15
6.7742562e-15
6.7248628e-15
6.5861212e-15
7.9163426e-15
7.9156799e-15
8.7123689e-15
7.5228964e-15
7.1909044e-15
6.9874433e-15
1.0094779e-14
6.263562e-15
6.725756e-15
6.6700072e-15
6.6525327e-15
7.2784727e-15
6.6881525e-15
7.3388708e-15
7.0258959e-15
3.6065389e-15
7.1945417e-15
4.8407521e-15
3.6544306e-15
6.1005742e-15
7.4071914e-15
6.135165e-15
6.1971415e-15
1.6058587e-14
7.540671e-15
6.7948728e-15
7.0157904e-15
5.1887544e-15
1.0458371e-14
5.3428805e-15
1.070018e-14
1.100039e-14
1.0750132e-14
5.3811435e-15
5.2795579e-15
7.0158902e-15
6.9642788e-15
5.3595668e-15
1.0737205e-14
5.5096039e-15
1.1095946e-14
1.1178414e-14
1.0655735e-14
5.4060773e-15
5.2669912e-15
2.5504313e-15
2.9863157e-15
3.0874501e-15
2.587725e-15
3.1138281e-15
3.1617139e-15
2.6053944e-15
2.7295318e-15
2.8079712e-15
3.188471e-15
3.0704045e-15
2.6958499e-15
2.8445397e-15
2.4285463e-15
2.7494821e-15
3.0699961e-15
2.7398005e-15
2.8849767e-15
3.160767e-15
3.1756676e-15
3.2617458e-15
2.7426115e-15
2.7326058e-15
3.1904743e-15
3.2454917e-15
3.1682998e-15
2.6875026e-15
2.6755624e-15
3.206419e-15
3.2422792e-15
2.4402809e-15
2.652039e-15
9.5109305e-15
1.0245958e-14
1.5552427e-14
1.4239289e-14
1.0320359e-14
1.017662e-14
1.4934887e-14
1.5377656e-14
2.3781469e-14
1.7865468e-14
1.7789947e-14
8.3497539e-15
6.6629583e-15
3.8378778e-14
1.8996317e-14
1.7957774e-14
6.1265859e-15
6.2980788e-15
1.650195e-14
7.6732521e-15
7.6054737e-15
5.9738376e-15
6.1314288e-15
1.5062863e-14
7.5069908e-15
7.3998357e-15
9.9234988e-15
9.7664124e-15
1.0849494e-14
1.0594783e-14
1.4584125e-14
1.5774492e-14
7.0753401e-15
7.2722765e-15
9.7186288e-15
1.0068619e-14
1.4531056e-14
1.452372e-14
7.0344429e-15
6.9483406e-15
9.6516728e-15
1.006526e-14
1.5062819e-14
1.4550959e-14
6.9066977e-15
6.7869449e-15
9.9823773e-15
1.0184639e-14
1.5032726e-14
1.5305823e-14
6.9223167e-15
7.0383552e-15
1.3571801e-14
1.3029241e-14
9.3317977e-15
9.4105726e-15
1.1125106e-14
1.0727692e-14
5.1651912e-15
5.3122558e-15
5.6151142e-15
1.1461385e-14
1.1301599e-14
5.43969e-15
5.3589858e-15
1.0850357e-14
5.4749739e-15
1.1217652e-14
1.1223836e-14
1.0842183e-14
5.4411103e-15
5.3368776e-15
7.7275819e-15
3.1022384e-15
3.2465995e-15
3.0981508e-15
2.8197038e-15
3.3154929e-15
3.3070254e-15
3.1053391e-15
3.0787968e-15
2.3525391e-14
2.8048651e-15
2.3019151e-15
2.6368118e-15
2.9954683e-15
3.1807443e-15
2.5387855e-15
2.6690728e-15
3.1041973e-15
7.861413e-15
2.2960569e-14
1.3507782e-14
1.3786066e-14
9.0699453e-15
9.4995694e-15
8.3484641e-15
7.7494026e-15
2.1504754e-14
2.3518547e-14
3.215374e-15
3.3285157e-15
3.0188745e-15
2.8481894e-15
3.111856e-15
2.4089053e-15
2.6727578e-15
3.1302552e-15
3.1951521e-15
2.5636954e-15
2.6405711e-15
3.1085132e-15
3.2594792e-15
3.2477667e-15
2.8318558e-15
2.9342007e-15
1.310922e-14
1.3648524e-14
8.9779168e-15
9.5921725e-15
1.3988407e-14
1.2888722e-14
9.6127838e-15
9.7843448e-15
7.7268148e-15
2.1822722e-14
8.5808661e-15
2.4453926e-14
8.6040375e-15
8.7939348e-15
2.4782189e-14
2.6466408e-14
9.7877419e-15
9.3365573e-15
1.0984785e-14
1.0764363e-14
5.2030436e-15
5.3657865e-15
5.5467297e-15
1.128203e-14
1.1012859e-14
5.4107165e-15
5.3253426e-15
1.0697413e-14
5.4592222e-15
1.0976851e-14
1.1019975e-14
1.0734801e-14
5.3815587e-15
5.2563605e-15
3.2523683e-15
3.1379989e-15
2.7143122e-15
2.7891697e-15
3.1165935e-15
3.1912964e-15
2.7015975e-15
2.4781171e-15
3.1711879e-15
2.5024379e-15
2.7591359e-15
3.2004793e-15
2.5719262e-15
2.7112136e-15
3.3136765e-15
3.0940517e-15
3.1930706e-15
3.0698968e-15
2.7467207e-15
2.9411469e-15
2.9873557e-15
2.3338222e-15
2.6743616e-15
3.076016e-15
3.26452e-15
3.2721174e-15
2.9566531e-15
2.882586e-15
2.7060741e-15
2.7661516e-15
3.3526563e-15
3.2340745e-15
3.039892e-14
1.9565718e-14
1.8653045e-14
9.499482e-15
8.6672336e-15
2.3397821e-14
1.9122101e-14
1.674691e-14
9.8293414e-15
9.6796672e-15
9.7009774e-15
9.6201711e-15
1.368825e-14
9.3459923e-15
1.3925276e-14
9.8954184e-15
8.1544602e-15
2.189399e-14
8.9191321e-15
2.4723366e-14
1.3838187e-14
1.3031817e-14
9.6946581e-15
9.9155942e-15
2.4588821e-14
2.5552679e-14
8.6501679e-15
8.7435637e-15
1.2648894e-13
1.3746386e-14
1.4088709e-14
9.9699699e-15
9.421947e-15
8.0313306e-15
8.9538502e-15
2.0961146e-14
2.3919827e-14
1.0010678e-14
1.0188205e-14
1.413746e-14
1.3219166e-14
9.0255067e-15
2.4474687e-14
9.3530565e-15
2.6325834e-14
1.6476093e-15
7.6726233e-15
6.9396883e-15
2.8465044e-15
3.0553176e-15
6.8527832e-15
8.5576731e-15
3.03286e-15
2.8034287e-15
3.5363261e-15
3.2802032e-15
3.7038165e-15
3.6938545e-15
4.1630242e-15
3.826525e-15
3.7527464e-15
3.9470872e-15
7.2597825e-15
7.3508171e-15
2.8293412e-15
3.0893878e-15
7.28131e-15
7.9143933e-15
3.0955142e-15
2.8799947e-15
4.5429431e-15
4.1751281e-15
4.3758476e-15
4.320461e-15
4.460196e-15
4.1903069e-15
4.0013859e-15
4.1993153e-15
8.3321206e-15
7.7956057e-15
3.1953813e-15
3.5111623e-15
9.0583824e-15
8.4418382e-15
3.585072e-15
3.3500783e-15
8.5097049e-15
8.0074595e-15
3.54476e-15
3.6341438e-15
8.1356826e-15
9.5448183e-15
3.3281503e-15
3.1496182e-15
1.0870549e-14
9.4825305e-15
8.8090354e-15
7.3507364e-15
6.807001e-15
6.7564512e-15
2.6325163e-15
2.9522857e-15
7.0383736e-15
8.420718e-15
3.1451733e-15
2.9130051e-15
7.7929097e-15
7.502755e-15
3.0074125e-15
3.1512507e-15
7.3162575e-15
9.1942749e-15
3.1764564e-15
2.9134317e-15
7.1381543e-15
7.6266327e-15
3.1302434e-15
2.8950615e-15
9.0456722e-15
7.537559e-15
3.2068769e-15
2.9880496e-15
7.6863948e-15
7.5666003e-15
2.8818644e-15
3.0744536e-15
7.2047464e-15
8.6625362e-15
3.000414e-15
2.7773712e-15
4.1187077e-15
3.8982541e-15
4.325259e-15
4.3232542e-15
4.3357937e-15
4.7127724e-15
4.5839769e-15
4.2052022e-15
5.3599168e-15
5.1572125e-15
4.254231e-15
4.0270292e-15
2.4670788e-15
2.544025e-15
1.9208842e-15
1.9666621e-15
2.0698496e-15
2.7072707e-15
2.2961857e-15
2.1915266e-15
2.1572424e-15
2.5088173e-15
2.527377e-15
2.1086665e-15
2.0746334e-15
2.40656e-15
2.4229167e-15
3.0818542e-15
3.0577689e-15
3.2535609e-15
3.1038873e-15
3.0483477e-15
2.9582275e-15
3.0549595e-15
2.8736802e-15
4.3228659e-15
4.1808384e-15
4.1198521e-15
3.9213353e-15
4.3814722e-15
4.1936737e-15
4.4567644e-15
4.1562196e-15
5.0703918e-15
4.2185411e-15
5.1370656e-15
4.159889e-15
4.9003588e-15
4.010341e-15
4.7152424e-15
3.7979013e-15
5.937795e-15
4.8455259e-15
6.0117802e-15
4.7879466e-15
5.398689e-15
5.1688478e-15
5.2467532e-15
4.8884607e-15
6.0042735e-15
4.9000948e-15
5.7754734e-15
4.5772398e-15
5.2625743e-15
4.952435e-15
5.3892936e-15
4.9098922e-15
2.6480484e-15
3.113184e-15
3.8627984e-15
3.8688113e-15
3.7042376e-15
3.7874021e-15
3.5909301e-15
4.7962694e-15
4.8660446e-15
3.6240479e-15
3.5717816e-15
5.0770769e-15
5.1069173e-15
4.4252753e-15
4.3545347e-15
4.7930844e-15
3.6661889e-15
4.6650839e-15
3.4407167e-15
5.1272948e-15
4.9818316e-15
4.4554758e-15
4.2267747e-15
4.6629431e-15
5.3767594e-15
4.5442359e-15
4.281747e-15
4.6127889e-15
3.507318e-15
4.8207696e-15
3.5669195e-15
4.9631588e-15
3.7618188e-15
4.9576191e-15
3.6812458e-15
5.0166892e-15
4.5877317e-15
5.0736727e-15
4.4264275e-15
4.4613486e-15
4.0865538e-15
4.6990367e-15
4.0665763e-15
4.7985639e-15
3.4064426e-15
5.2877926e-15
3.4721797e-15
5.2582233e-15
3.5790264e-15
5.4162814e-15
3.4529288e-15
4.6983324e-15
4.2401605e-15
4.7404958e-15
4.1040978e-15
5.051959e-15
5.3195847e-15
3.5075883e-15
3.5676682e-15
4.8694965e-15
4.4946613e-15
4.7833e-15
4.1729384e-15
5.1347912e-15
3.5244719e-15
5.130536e-15
3.2935979e-15
5.7273259e-15
5.8045903e-15
4.9920861e-15
4.9108526e-15
5.4989087e-15
5.6121466e-15
4.2720225e-15
4.192763e-15
5.6194152e-15
5.3874524e-15
4.2878052e-15
3.9683031e-15
6.0214943e-15
5.2806344e-15
5.8147383e-15
4.9233551e-15
5.4000426e-15
5.4940806e-15
5.0108426e-15
4.8257313e-15
5.9428176e-15
4.1576409e-15
6.2743901e-15
4.0697047e-15
5.6395646e-15
5.1244135e-15
5.5095226e-15
4.7635708e-15
4.0873282e-15
5.9846327e-15
5.9226168e-15
3.7221816e-15
4.5199255e-15
4.2327133e-15
4.3591056e-15
3.9012857e-15
4.7094323e-15
4.2755412e-15
4.7355016e-15
4.1229742e-15
4.9258481e-15
3.4573279e-15
5.1544633e-15
3.3618111e-15
4.8182384e-15
3.3092823e-15
4.730383e-15
3.1601656e-15
4.8363766e-15
4.2609174e-15
4.6405907e-15
3.9966398e-15
4.7833247e-15
4.8424186e-15
3.7167611e-15
3.6089479e-15
4.9296209e-15
4.3658985e-15
4.9617828e-15
4.2530431e-15
4.5154917e-15
3.4576174e-15
4.3427456e-15
3.254806e-15
5.4267704e-16
1.0553382e-15
8.6357026e-16
7.4602501e-16
8.7148367e-16
5.324506e-16
5.3810843e-16
1.8299529e-15
1.6627844e-15
1.7381589e-15
1.7533772e-15
2.0126992e-15
1.437107e-15
1.4625692e-15
2.4641352e-15
1.7219318e-15
1.7588125e-15
1.7308225e-15
1.7352747e-15
2.1512424e-15
1.4038793e-15
2.1901577e-15
1.3939789e-15
1.7131416e-15
1.6410776e-15
1.6706434e-15
1.722537e-15
1.6539693e-15
1.6881937e-15
1.6238287e-15
1.5934012e-15
1.5041968e-15
1.6732633e-15
1.488229e-15
1.8014725e-15
1.6209732e-15
1.4114118e-15
1.642288e-15
1.4373259e-15
1.4929845e-15
1.5136337e-15
1.4647724e-15
1.5638309e-15
1.4721467e-15
1.3051844e-15
1.3316726e-15
1.5921577e-15
1.4949658e-15
1.5855986e-15
1.5027914e-15
1.5724628e-15
1.5241825e-15
1.3306079e-15
1.5312307e-15
1.3018672e-15
1.8352698e-15
1.907372e-15
1.8770289e-15
1.898987e-15
1.5453965e-15
2.3660936e-15
2.4683036e-15
1.5573977e-15
1.8236114e-15
1.8121568e-15
1.8776018e-15
1.8646099e-15
1.5166918e-15
2.3672095e-15
1.4977617e-15
2.3580811e-15
1.8707187e-15
1.8091957e-15
1.8274622e-15
1.8722228e-15
1.8154785e-15
1.8537394e-15
1.7825876e-15
1.7476364e-15
1.6363223e-15
1.8222322e-15
1.6283016e-15
1.9560435e-15
1.7750191e-15
1.535845e-15
1.787884e-15
1.5609193e-15
1.9034729e-15
1.897659e-15
1.8322598e-15
1.9835071e-15
1.8121022e-15
1.6012721e-15
1.6351432e-15
1.975593e-15
1.8533895e-15
1.9506418e-15
1.8528819e-15
1.9468792e-15
1.8336447e-15
1.6001168e-15
1.8350687e-15
1.5498471e-15
1.9901021e-15
2.0929397e-15
2.034064e-15
2.0463258e-15
1.9682539e-15
2.036576e-15
1.9621788e-15
2.0177529e-15
1.677248e-15
1.6934056e-15
2.5535742e-15
2.6445147e-15
2.5707714e-15
2.5557609e-15
1.6349136e-15
1.6219765e-15
2.6162383e-15
1.6965406e-15
1.9223453e-15
2.827714e-15
2.1143171e-15
1.9981185e-15
2.1083065e-15
2.0876305e-15
2.0169933e-15
2.0391822e-15
2.0824191e-15
2.0243198e-15
2.5562473e-15
2.6255485e-15
1.6650687e-15
1.6368834e-15
2.2949809e-15
2.3823435e-15
2.2183858e-15
2.4817561e-15
2.2052248e-15
1.8082521e-15
1.8622068e-15
2.3715825e-15
2.324145e-15
2.475916e-15
2.2835099e-15
2.5330061e-15
2.2478051e-15
1.8295976e-15
2.3538514e-15
1.8267154e-15
2.9739391e-15
2.7251722e-15
2.764241e-15
2.9768821e-15
3.0850057e-15
2.8214042e-15
2.817857e-15
3.0608354e-15
2.6797008e-15
2.1843811e-15
2.2119634e-15
2.7698418e-15
2.758889e-15
2.2397692e-15
2.2172325e-15
2.7761923e-15
2.9826463e-15
2.7272794e-15
2.7196261e-15
2.9309713e-15
2.8911919e-15
2.9588913e-15
2.7162338e-15
2.6534191e-15
2.6697077e-15
2.1833869e-15
2.1599836e-15
2.6926483e-15
2.6047952e-15
2.6327845e-15
2.1410764e-15
2.1048813e-15
2.3681938e-15
2.1813507e-15
2.1792703e-15
2.3935929e-15
2.3098919e-15
2.3514247e-15
2.1789588e-15
2.1230862e-15
1.8011033e-15
1.7934299e-15
2.1879708e-15
2.2114765e-15
2.1265844e-15
2.1728789e-15
1.7722803e-15
1.7282462e-15
1.7703208e-15
1.9040263e-15
1.7266117e-15
1.9582102e-15
1.6981472e-15
1.396608e-15
1.4292397e-15
1.819708e-15
1.9976048e-15
1.8191568e-15
2.0156198e-15
1.8189783e-15
1.7935848e-15
1.4517256e-15
1.8008275e-15
1.4365821e-15
2.7640324e-15
2.4923502e-15
2.5346474e-15
2.766111e-15
2.6458591e-15
2.3975235e-15
2.3741667e-15
2.58673e-15
1.9999394e-15
2.4390191e-15
1.9886308e-15
2.5518243e-15
1.8470598e-15
2.3469637e-15
1.8980596e-15
2.3225299e-15
2.2447452e-15
2.4483307e-15
2.204894e-15
2.4977512e-15
2.1260944e-15
1.7148864e-15
1.7414504e-15
2.2350407e-15
2.2861308e-15
2.5587289e-15
2.2881569e-15
2.5405355e-15
2.227688e-15
1.7942571e-15
2.2361152e-15
1.7679195e-15
2.1694582e-15
1.991083e-15
1.9897388e-15
2.206234e-15
2.1025527e-15
1.9434436e-15
2.1062819e-15
1.904907e-15
1.6415939e-15
1.6342782e-15
2.0051229e-15
2.0288927e-15
1.9091331e-15
1.9473339e-15
1.5885087e-15
1.5466712e-15
2.8466231e-15
3.1486628e-15
2.7951082e-15
3.2121471e-15
2.7999596e-15
2.27407e-15
2.2969721e-15
2.9285633e-15
3.2653142e-15
2.9029686e-15
3.3115344e-15
2.9110709e-15
2.919431e-15
2.3537353e-15
2.9256192e-15
2.3339854e-15
4.8306644e-15
4.1981137e-15
4.1627778e-15
4.7343351e-15
4.39473e-15
4.486573e-15
3.9032237e-15
3.811421e-15
3.1146603e-15
3.9947856e-15
3.1511539e-15
4.0182151e-15
3.6688759e-15
2.8674366e-15
3.7468908e-15
2.9477122e-15
3.7651668e-15
4.2475143e-15
3.6711499e-15
4.3611392e-15
3.5198628e-15
2.7666606e-15
2.7952113e-15
3.6602173e-15
3.9049029e-15
4.5111497e-15
3.8610638e-15
4.4935334e-15
3.7155822e-15
2.9044634e-15
3.7390894e-15
2.8521299e-15
3.5223089e-15
3.148684e-15
3.1325661e-15
3.5481046e-15
3.3359274e-15
2.9887067e-15
3.2609961e-15
2.9091845e-15
2.617153e-15
2.6029826e-15
3.2165726e-15
3.2323334e-15
2.9738106e-15
3.043491e-15
2.4750005e-15
2.405744e-15
6.5757135e-15
6.5332683e-15
5.4964604e-15
5.4452517e-15
5.4185228e-15
4.2663698e-15
4.2058059e-15
5.4572654e-15
5.7764131e-15
5.7598202e-15
5.0050442e-15
5.0857237e-15
5.0685023e-15
5.001535e-15
3.9484584e-15
3.8513904e-15
4.7844908e-15
5.7563507e-15
4.820464e-15
5.692239e-15
4.7761201e-15
3.7162837e-15
3.718822e-15
4.7784824e-15
5.1219919e-15
5.9986295e-15
5.1596775e-15
5.954574e-15
5.1287266e-15
3.9366841e-15
5.2561764e-15
3.9125691e-15
1.09258e-14
1.0175648e-14
6.9478643e-15
6.8108893e-15
7.2806825e-15
7.1435028e-15
1.1540303e-14
1.1206357e-14
1.9608678e-15
1.9963144e-15
1.7473013e-15
1.7297203e-15
5.2220393e-15
5.8029959e-15
1.1285139e-14
1.1152031e-14
7.6474814e-15
7.5462255e-15
6.9693585e-15
6.9529936e-15
1.077276e-14
1.0900472e-14
1.8402705e-15
1.9814725e-15
1.8760449e-15
1.6512886e-15
5.427602e-15
5.99898e-15
1.5876046e-15
1.8113796e-15
1.7085058e-15
1.5752354e-15
1.6804872e-15
1.7189961e-15
1.6913265e-15
1.6460771e-15
1.1822139e-14
1.154937e-14
7.9764112e-15
7.8739905e-15
7.7505725e-15
7.6916304e-15
1.2222196e-14
1.1934706e-14
1.9633111e-15
2.0984315e-15
2.1639324e-15
1.9140465e-15
5.9355913e-15
6.1956239e-15
1.0985e-14
1.1132561e-14
7.485496e-15
7.525299e-15
8.0069393e-15
7.9386355e-15
1.2455975e-14
1.2283981e-14
1.9484351e-15
2.1566524e-15
2.1687849e-15
1.9385009e-15
6.1282096e-15
5.6226088e-15
6.442776e-15
6.4979183e-15
5.4531458e-15
5.4571112e-15
5.6083112e-15
5.6546497e-15
4.4410167e-15
4.4402615e-15
5.7677612e-15
6.7075969e-15
5.7625464e-15
6.7192734e-15
4.6466049e-15
5.8895921e-15
5.9445199e-15
4.6123415e-15
1.8730239e-15
1.8593299e-15
1.8029405e-15
1.8101916e-15
1.8049611e-15
1.886149e-15
1.8181988e-15
1.817346e-15
5.7362353e-15
6.8598542e-15
5.8017359e-15
6.8264587e-15
4.6590162e-15
5.9439618e-15
5.8737811e-15
4.5762659e-15
5.5594606e-15
6.5288084e-15
5.645843e-15
6.4753128e-15
4.5247106e-15
5.7499693e-15
5.709199e-15
4.4284368e-15
4.3873616e-15
5.0781904e-15
4.4509488e-15
5.006131e-15
4.3676499e-15
3.4615081e-15
3.4396958e-15
4.3360531e-15
4.9254308e-15
4.2986087e-15
5.011297e-15
4.3961664e-15
4.2780543e-15
3.3772124e-15
4.2043583e-15
3.3067795e-15
4.302344e-15
4.8859444e-15
4.2961841e-15
4.9012491e-15
4.218559e-15
4.259727e-15
3.3504082e-15
3.3571449e-15
4.4858561e-15
5.1470668e-15
4.4834674e-15
5.1538952e-15
3.4828785e-15
4.3956718e-15
4.4179283e-15
3.4510836e-15
3.3381591e-15
3.6871834e-15
3.3369505e-15
3.7022638e-15
2.8189556e-15
3.4264377e-15
3.4584403e-15
2.824733e-15
3.8624895e-15
3.4567756e-15
3.8679519e-15
3.4728195e-15
2.8938986e-15
3.5369107e-15
3.5354147e-15
2.8673736e-15
3.3657014e-15
3.7850423e-15
3.4237924e-15
3.7504694e-15
2.8532864e-15
3.473263e-15
3.473077e-15
2.8193658e-15
3.6614557e-15
3.3048711e-15
3.7308694e-15
3.3838588e-15
2.8045963e-15
3.4261046e-15
3.3678914e-15
2.7490526e-15
1.2732982e-15
1.3967576e-15
1.3765643e-15
1.3607761e-15
1.2462197e-15
1.2276736e-15
1.3166611e-15
1.3126235e-15
1.445935e-15
1.5464109e-15
1.5547099e-15
1.418311e-15
1.4562252e-15
1.538084e-15
1.5727054e-15
1.408814e-15
1.2425678e-15
1.2530562e-15
1.3097057e-15
1.2087616e-15
1.3937071e-15
1.3102398e-15
1.3730853e-15
1.3342782e-15
1.4676618e-15
1.5697233e-15
1.382385e-15
1.3500188e-15
1.3776059e-15
1.5215443e-15
1.3512049e-15
1.2334395e-15
3.2208161e-15
3.4654561e-15
3.1133909e-15
3.591754e-15
3.1123999e-15
2.5551946e-15
2.6095336e-15
3.3049175e-15
3.7323337e-15
3.3509315e-15
3.7669538e-15
3.3451409e-15
3.3548531e-15
2.7202059e-15
3.3627755e-15
2.7025569e-15
5.2705732e-15
4.5885978e-15
4.6458258e-15
5.2188794e-15
5.2379257e-15
5.3166153e-15
4.6747433e-15
4.6030416e-15
3.5341035e-15
4.4325322e-15
3.5302838e-15
4.5087715e-15
4.4717604e-15
3.5095467e-15
4.5171692e-15
3.5633069e-15
4.230107e-15
4.6497235e-15
4.0566508e-15
4.7211666e-15
3.9164391e-15
3.1196117e-15
3.1978643e-15
4.1482321e-15
4.4458338e-15
5.0463733e-15
4.3646856e-15
5.0571013e-15
4.2488354e-15
3.3564069e-15
4.3094452e-15
3.3173816e-15
3.8854665e-15
3.5085625e-15
3.5306849e-15
3.9605702e-15
3.9745096e-15
3.5881037e-15
3.9284312e-15
3.5283724e-15
2.9179481e-15
2.9242012e-15
3.5629688e-15
3.6159811e-15
3.5913812e-15
3.630808e-15
2.9549221e-15
2.9047043e-15
1.1946506e-14
1.2245136e-14
8.2256651e-15
8.2813016e-15
8.3356123e-15
8.269551e-15
1.2888578e-14
1.2717716e-14
2.0630942e-15
2.2080497e-15
2.3039572e-15
2.0420273e-15
6.3641131e-15
6.4702215e-15
1.1253015e-14
1.0897923e-14
7.4084089e-15
7.3901186e-15
8.0336804e-15
7.995452e-15
1.2713286e-14
1.2722046e-14
1.8761057e-15
2.0754755e-15
2.0526278e-15
1.8623455e-15
6.335178e-15
5.7578208e-15
7.0979554e-15
7.1102189e-15
6.0021043e-15
5.9676423e-15
6.1092485e-15
4.804261e-15
4.7771248e-15
6.1345158e-15
7.0039933e-15
6.8929176e-15
5.9501451e-15
6.0492038e-15
6.1402511e-15
6.059035e-15
4.8161635e-15
4.7334059e-15
5.2917747e-15
6.334127e-15
5.2901478e-15
6.3450816e-15
5.422832e-15
4.2437819e-15
4.2862387e-15
5.4526414e-15
5.7218225e-15
6.7303542e-15
5.7252954e-15
6.7192467e-15
5.8352942e-15
4.5522938e-15
5.8719194e-15
4.5366963e-15
1.8356775e-15
1.8529655e-15
1.8378895e-15
1.7880252e-15
1.9354779e-15
1.9691272e-15
1.9065049e-15
1.9376189e-15
1.9387991e-15
2.104519e-15
2.226395e-15
1.9509261e-15