/*--------------------------------*- C++ -*----------------------------------*\
  =========                 |
  \\      /  F ield         | OpenFOAM: The Open Source CFD Toolbox
   \\    /   O peration     | Website:  https://openfoam.org
    \\  /    A nd           | Version:  7
     \\/     M anipulation  |
\*---------------------------------------------------------------------------*/
FoamFile
{
    version     2.0;
    format      ascii;
    class       volVectorField;
    location    "2000";
    object      U;
}
// * * * * * * * * * * * * * * * * * * * * * * * * * * * * * * * * * * * * * //

dimensions      [0 1 -1 0 0 0 0];

internalField   nonuniform List<vector> 
34378
(
(-1.7409532e+14 6.4274992e+12 1.806876e+13)
(-1.7488845e+14 1.9182996e+13 -6.9099777e+11)
(-1.2035864e+14 -6.5248442e+12 1.8149418e+13)
(-1.2872622e+14 9.1220525e+11 8.7170811e+12)
(-8.3430182e+13 1.8734774e+11 4.1778795e+13)
(-1.244157e+14 1.2716163e+13 1.8267131e+13)
(-1.1552028e+14 -6.9788755e+11 1.3745893e+13)
(-1.1585009e+14 1.4598698e+13 -2.1363702e+13)
(-9.9686197e+13 1.6749204e+13 1.1038426e+13)
(-1.1402224e+14 -2.1430899e+12 -1.8527988e+13)
(-1.0309158e+14 -1.0016083e+13 1.5338542e+13)
(-1.2739799e+14 7.5658294e+12 1.1532201e+13)
(-9.378186e+13 -4.4335268e+12 1.6508674e+13)
(-9.1602382e+13 4.2036781e+12 1.4874929e+13)
(-8.8118525e+13 1.6130971e+12 3.1371406e+13)
(-8.6218939e+13 2.3428622e+12 3.1022182e+13)
(-1.0193942e+14 4.0419214e+12 1.3680819e+13)
(-1.0798772e+14 -4.5030556e+12 1.5939857e+13)
(-8.4689207e+13 6.8749943e+12 3.3165845e+13)
(-8.387886e+13 3.9769044e+12 3.4419393e+13)
(-9.491197e+13 -8.7494714e+11 1.5820244e+13)
(-8.2755397e+13 2.2460211e+12 2.965315e+13)
(-1.0535967e+14 7.2710996e+12 2.3156609e+13)
(-1.0469626e+14 -2.6964336e+11 -1.2427744e+13)
(-1.5264428e+14 2.6760741e+12 8.5751749e+12)
(-9.7226024e+13 1.7225529e+12 1.5463475e+13)
(-9.7353967e+13 1.8449115e+12 1.5982816e+13)
(-9.7810317e+13 1.7713334e+12 1.6349045e+13)
(-1.0391575e+14 5.1026482e+12 8.589191e+12)
(-1.0897798e+14 2.0400562e+12 9.7223024e+12)
(-8.1396551e+13 -4.2674645e+11 -1.0168838e+13)
(-7.3928242e+13 3.5579312e+12 -2.286086e+13)
(-7.6339974e+13 4.2516969e+12 -2.2884127e+13)
(-7.8561219e+13 -4.338392e+12 1.3220994e+13)
(-8.6215734e+13 -8.4745704e+11 -1.708459e+13)
(-1.0951363e+14 9.0947757e+12 -1.3348275e+13)
(-7.7177366e+13 4.2893234e+12 -2.2556872e+13)
(-7.4278502e+13 3.9455685e+12 -2.1747797e+13)
(-8.1162482e+13 -1.3190546e+12 -8.7458192e+12)
(-8.0931884e+13 6.1430474e+12 -9.023362e+12)
(-8.6627691e+13 -3.5347944e+12 -1.6011813e+13)
(-8.673711e+13 5.677238e+12 -1.6539192e+13)
(-8.1299036e+13 -1.0033548e+13 1.7402308e+13)
(-9.4333723e+13 7.5479294e+12 1.4964074e+13)
(-8.2044188e+13 8.0425947e+12 1.6880011e+13)
(-1.1164128e+14 -1.8287421e+12 -1.1323209e+13)
(-9.7467766e+13 -1.0487006e+13 1.7491208e+13)
(-7.5172455e+13 -3.1996527e+12 1.524008e+13)
(-7.2155386e+13 1.6489576e+12 1.3399221e+13)
(-8.3110645e+13 1.8236667e+12 1.248584e+13)
(-8.1386849e+13 1.1494827e+12 2.4024316e+13)
(-8.2493269e+13 1.3894145e+12 2.4647085e+13)
(-7.2986776e+13 -1.5824222e+12 1.3640485e+13)
(-7.1167007e+13 2.6551148e+12 1.274557e+13)
(-8.1609639e+13 7.5733798e+11 2.353179e+13)
(-8.1743781e+13 1.6983502e+12 2.3448733e+13)
(-8.55946e+13 2.0374986e+12 2.7391795e+13)
(-8.4374987e+13 4.3457015e+12 2.5821446e+13)
(-8.6006365e+13 -3.0967639e+12 1.3093416e+13)
(-8.7579214e+13 -3.0930487e+12 1.4174825e+13)
(-8.617934e+13 6.3090849e+12 2.6901453e+13)
(-8.425496e+13 2.7966932e+12 1.2941678e+13)
(-8.7611536e+13 4.4165902e+12 2.7172056e+13)
(-7.6445248e+13 -1.2780458e+12 1.5402476e+13)
(-7.5842306e+13 3.9344462e+12 1.4229623e+13)
(-8.1018477e+13 1.5463275e+12 2.4194053e+13)
(-8.0984685e+13 1.0675485e+12 2.3668359e+13)
(-1.0236287e+14 5.6040964e+12 -1.2121669e+13)
(-1.0421303e+14 9.1773126e+12 2.0498868e+13)
(-1.1102541e+14 -1.6878613e+12 2.2789601e+13)
(-9.4246999e+13 5.5099796e+12 1.7014637e+13)
(-9.6181727e+13 -9.5087994e+11 1.7229228e+13)
(-9.4887155e+13 3.9979519e+12 -6.2976635e+12)
(-9.6275446e+13 7.8978411e+11 -4.6902758e+12)
(-9.1672392e+13 5.1807977e+12 6.5896709e+12)
(-8.6799401e+13 1.0260063e+12 -1.0237412e+13)
(-8.7234402e+13 3.298692e+12 -1.0928315e+13)
(-9.4526991e+13 -2.1382494e+11 6.5484168e+12)
(-1.0166568e+14 7.3838559e+12 2.0505838e+13)
(-9.394499e+13 4.4905827e+12 5.6247432e+12)
(-8.9573774e+13 8.1775434e+11 -1.1710835e+13)
(-1.035938e+14 -1.2338301e+12 2.203956e+13)
(-9.540859e+13 5.8346761e+11 7.3928755e+10)
(-8.9222886e+13 6.9499398e+12 1.217006e+12)
(-9.4437771e+13 -3.5587924e+12 1.9386017e+13)
(-9.1518177e+13 6.8888583e+12 1.9132163e+13)
(-9.1976639e+13 -2.1002537e+12 -1.9518424e+13)
(-8.6480011e+13 4.9662827e+12 -1.6925979e+13)
(-9.7411306e+13 3.8663584e+11 -5.137769e+12)
(-9.3226563e+13 5.6209513e+12 1.554975e+13)
(-8.3981188e+13 7.5055019e+11 1.3818625e+13)
(-8.4444202e+13 1.1283012e+12 1.4592156e+13)
(-8.4614713e+13 1.2778629e+12 1.4000786e+13)
(-8.3585869e+13 5.3927147e+11 1.3945598e+13)
(-8.374239e+13 7.5570862e+11 1.4170961e+13)
(-8.5178765e+13 1.536751e+12 1.5194517e+13)
(-9.3439025e+13 2.4778275e+12 1.3189942e+13)
(-9.3588302e+13 2.6044109e+12 1.2032675e+13)
(-9.4178577e+13 4.5064022e+12 1.2840199e+13)
(-9.3982689e+13 3.5759563e+12 1.2293457e+13)
(-1.1296662e+14 7.0605163e+12 -1.9370962e+13)
(-1.1243836e+14 7.1199209e+12 -2.1090397e+13)
(-1.0144651e+14 3.6101166e+12 -2.2111704e+13)
(-8.8002463e+13 3.1458368e+12 -3.3783064e+12)
(-8.8090816e+13 5.027909e+12 -3.3200941e+12)
(-5.5808036e+13 -7.5502566e+11 -1.3436915e+13)
(-5.6225266e+13 4.5976492e+12 -1.3705604e+13)
(-5.6619367e+13 -4.2323438e+12 1.6640273e+13)
(-5.7768225e+13 7.3201498e+12 1.6397705e+13)
(-6.2731543e+13 1.540156e+12 -2.0311208e+13)
(-6.1853324e+13 1.4099098e+12 -2.0026486e+13)
(-6.0182183e+13 3.7186301e+12 -1.1819211e+13)
(-5.9681656e+13 -1.0919321e+12 -1.194026e+13)
(-8.0941485e+13 1.3282661e+11 -7.4105177e+12)
(-7.4424713e+13 5.4835081e+12 -1.9726957e+13)
(-7.5987462e+13 4.9333511e+12 -2.0276191e+13)
(-7.8917435e+13 6.1870949e+12 -7.2716566e+12)
(-9.0079215e+13 5.4473757e+12 -2.3186044e+12)
(-8.7149063e+13 3.6943816e+12 -2.1890653e+12)
(-1.0005376e+14 3.088656e+12 -2.0974092e+13)
(-1.0102809e+14 2.732265e+12 -2.1483078e+13)
(-8.3126667e+13 4.1144724e+12 -1.4317834e+13)
(-6.2240374e+13 1.6978951e+12 -1.9642751e+13)
(-6.1738104e+13 1.5387534e+12 -1.89696e+13)
(-5.9192191e+13 -1.8655468e+12 -1.0817158e+13)
(-5.898492e+13 2.9601737e+12 -1.0776911e+13)
(-6.1776175e+13 1.5564788e+12 -1.9684433e+13)
(-6.1358889e+13 1.2922965e+12 -1.9312098e+13)
(-5.9130797e+13 3.5315302e+12 -1.1285406e+13)
(-5.9038316e+13 -1.518644e+12 -1.102915e+13)
(-5.4472461e+13 -3.1644407e+12 -1.1871131e+13)
(-5.4151757e+13 2.3199644e+12 -1.2083009e+13)
(-5.7179242e+13 -8.2111023e+12 1.8903195e+13)
(-7.3416314e+13 4.4671427e+12 1.5916005e+13)
(-5.5990293e+13 3.3797211e+12 1.8138054e+13)
(-7.5431253e+13 -9.511815e+12 1.6337406e+13)
(-8.4692467e+13 -2.7883718e+12 -1.4255195e+13)
(-5.5398664e+13 -1.9301353e+12 -1.2448828e+13)
(-5.5353702e+13 3.8202785e+12 -1.2914845e+13)
(-5.7164429e+13 5.749908e+12 1.8325398e+13)
(-5.7600756e+13 -5.8045625e+12 1.8670779e+13)
(-8.2027338e+13 3.6944603e+11 -6.1246158e+12)
(-7.570161e+13 6.3300576e+12 -1.8622115e+13)
(-7.7604298e+13 6.8030785e+12 -1.9197925e+13)
(-7.9218053e+13 7.3876114e+12 -6.0921155e+12)
(-8.4108439e+13 -3.2979314e+12 -1.271563e+13)
(-8.1087879e+13 4.786218e+12 -1.2410925e+13)
(-6.7842675e+13 4.9828535e+12 1.4067114e+13)
(-7.2521306e+13 -9.6531565e+12 1.609494e+13)
(-6.7262812e+13 9.3535592e+11 1.1245395e+13)
(-6.5648721e+13 -2.4108942e+12 1.5518845e+13)
(-6.3876357e+13 1.320721e+12 1.421682e+13)
(-7.2804366e+13 8.0732888e+11 2.0321044e+13)
(-7.291504e+13 5.5788894e+11 2.0472746e+13)
(-6.4399332e+13 -1.7694137e+12 1.4258737e+13)
(-6.3802004e+13 1.764161e+12 1.404789e+13)
(-7.2331184e+13 6.9621782e+11 1.9794822e+13)
(-7.2352556e+13 7.9835358e+11 1.9501283e+13)
(-7.0435794e+13 -1.8451644e+12 1.2256729e+13)
(-8.0770806e+13 2.50311e+12 2.1462655e+13)
(-7.9987568e+13 9.7236093e+11 2.1865938e+13)
(-6.5952176e+13 -1.8188588e+12 1.5733355e+13)
(-6.4080043e+13 1.9819617e+12 1.4451773e+13)
(-7.2859789e+13 9.137468e+11 2.0475495e+13)
(-7.2364366e+13 9.7771942e+11 1.9943717e+13)
(-6.4881783e+13 -8.5394626e+11 1.4943022e+13)
(-6.3265436e+13 2.4131516e+12 1.4097345e+13)
(-7.1985054e+13 5.0797214e+11 1.9788937e+13)
(-7.214669e+13 1.027252e+12 1.9690957e+13)
(-7.0825727e+13 -2.2477786e+12 1.2490684e+13)
(-6.8951174e+13 1.6612697e+12 1.1297626e+13)
(-7.9814767e+13 3.0771173e+12 2.1147129e+13)
(-8.0313247e+13 2.4778701e+12 2.1207105e+13)
(-7.1572094e+13 -2.2335095e+12 1.2748261e+13)
(-6.9216416e+13 1.8466751e+12 1.1425649e+13)
(-8.0914748e+13 3.1538627e+12 2.1270381e+13)
(-8.0477051e+13 3.8688829e+12 2.1192353e+13)
(-8.1382219e+13 3.3927583e+12 2.0807924e+13)
(-7.0739885e+13 -1.7630663e+12 1.1754539e+13)
(-6.8175853e+13 1.9582227e+12 1.0783113e+13)
(-8.0699867e+13 2.6792672e+12 2.072365e+13)
(-6.5797496e+13 -1.309318e+12 1.5481375e+13)
(-6.5952638e+13 2.2639909e+12 1.479078e+13)
(-7.3050879e+13 6.5703403e+11 2.0330517e+13)
(-7.2661173e+13 5.6617281e+11 2.0408476e+13)
(-6.5341619e+13 -7.8215337e+11 1.4483807e+13)
(-6.581532e+13 3.3744143e+12 1.4503096e+13)
(-7.2323157e+13 8.9076217e+11 1.9360186e+13)
(-7.2193602e+13 8.6062705e+11 1.9266752e+13)
(-8.9232072e+13 3.5745535e+12 -1.0217945e+13)
(-9.5561717e+13 -2.3958791e+11 6.8317448e+12)
(-9.0601269e+13 5.2493611e+12 4.4149942e+12)
(-8.6528505e+13 1.513046e+12 -1.3021398e+13)
(-9.5352197e+13 4.4144038e+12 -4.9813699e+12)
(-9.5008236e+13 2.2472626e+12 -5.5430309e+12)
(-9.3139649e+13 7.8223981e+12 1.5007583e+13)
(-9.8350308e+13 3.8800087e+11 1.6356066e+13)
(-9.409683e+13 1.0492918e+12 -5.8048572e+12)
(-9.1980349e+13 6.7649749e+12 1.3814965e+13)
(-9.4908411e+13 -1.7547321e+11 1.5496992e+13)
(-9.4087929e+13 3.7308994e+12 -6.0146006e+12)
(-8.5583144e+13 4.1463072e+12 1.603276e+13)
(-8.4061356e+13 1.7363301e+12 7.1138054e+11)
(-8.5877513e+13 8.5455246e+11 1.629253e+12)
(-8.578801e+13 -1.1546561e+12 1.6006185e+13)
(-8.3749417e+13 1.6758364e+12 1.9333248e+11)
(-8.4320869e+13 2.0479346e+11 6.3784231e+11)
(-8.5855209e+13 -1.3213686e+12 1.5846584e+13)
(-8.62197e+13 3.8449445e+12 1.5517636e+13)
(-8.1534397e+13 2.7827922e+12 6.3653473e+12)
(-7.8676445e+13 1.5747626e+11 -5.2820426e+12)
(-7.8411936e+13 1.7901448e+12 -5.2526523e+12)
(-8.2292087e+13 -6.6301364e+11 6.5746468e+12)
(-8.2825339e+13 3.5743162e+12 7.5680284e+12)
(-7.89569e+13 1.5744445e+12 -4.5918267e+12)
(-7.9926484e+13 5.7151429e+11 -3.8712179e+12)
(-8.2773252e+13 -5.4781347e+11 7.2248273e+12)
(-7.9338286e+13 2.5945702e+12 2.0491117e+12)
(-7.8953124e+13 2.0045786e+12 -6.1480369e+12)
(-7.9317496e+13 1.8207889e+11 -5.7825934e+12)
(-8.0143143e+13 -2.1500837e+11 2.0137538e+12)
(-8.1502631e+13 -7.4224207e+10 1.6509482e+12)
(-8.0738646e+13 2.4912843e+12 1.8216291e+12)
(-7.8432457e+13 2.907826e+11 -6.6680937e+12)
(-7.8380202e+13 1.6830328e+12 -6.9628106e+12)
(-8.4416224e+13 4.8380262e+12 2.1044861e+12)
(-7.8720186e+13 1.7316062e+12 -7.535642e+12)
(-7.8779842e+13 1.5119154e+11 -7.6009799e+12)
(-8.1083075e+13 2.273843e+12 9.2940345e+11)
(-8.6957876e+13 -5.6452802e+11 1.9210453e+12)
(-8.1683447e+13 -3.1821367e+11 1.0833272e+12)
(-7.8500403e+13 1.6599745e+12 -6.9995336e+12)
(-7.8605945e+13 -2.492666e+11 -7.0273584e+12)
(-7.8242205e+13 2.4152387e+12 6.0357871e+11)
(-7.8836507e+13 -8.562163e+10 8.5768099e+11)
(-7.9430765e+13 2.6277836e+12 -1.2758832e+13)
(-8.1604931e+13 1.2653576e+12 -1.1123468e+13)
(-7.931493e+13 2.1048394e+12 1.5569385e+12)
(-7.8815469e+13 1.943195e+12 -7.1151581e+12)
(-7.9242835e+13 -2.5893654e+11 -6.7067839e+12)
(-7.9831748e+13 -3.9865366e+11 1.4722856e+12)
(-7.9127528e+13 1.6081492e+12 -7.7088904e+12)
(-7.9796135e+13 4.5120198e+10 -7.5256944e+12)
(-8.1869472e+13 -3.1888497e+11 9.7628887e+11)
(-8.1418704e+13 2.1508232e+12 1.0470333e+12)
(-8.9176777e+13 4.6306066e+12 1.248757e+12)
(-8.7638737e+13 6.0695363e+11 1.2387303e+12)
(-8.0593875e+13 4.3671917e+11 -1.3420997e+13)
(-7.9519906e+13 4.2457817e+12 -1.3118821e+13)
(-7.011991e+13 2.747976e+12 5.1134035e+12)
(-8.579601e+13 6.3571013e+12 1.1675874e+13)
(-1.1264521e+14 7.7589864e+12 2.0558516e+13)
(-6.6365898e+13 4.1940871e+12 5.7860469e+12)
(-8.4762958e+13 -1.448708e+12 1.1223104e+13)
(-7.0123356e+13 1.1941742e+13 -2.8093716e+13)
(-7.1738368e+13 6.0941124e+12 -2.7591836e+13)
(-1.1647926e+14 1.8181059e+12 2.1353718e+13)
(-8.3048244e+13 5.3123357e+12 1.0754913e+13)
(-6.5086726e+13 2.8739687e+12 5.417129e+12)
(-6.4994652e+13 4.0838118e+12 5.1698257e+12)
(-8.3757123e+13 -7.6702222e+11 1.0476701e+13)
(-8.2068916e+13 3.0082588e+12 6.8048497e+12)
(-7.892407e+13 1.4142427e+12 -4.8502217e+12)
(-7.9774716e+13 3.6090561e+11 -4.0886105e+12)
(-8.2315614e+13 -8.2218057e+11 6.4860141e+12)
(-8.4396248e+13 3.3234772e+12 1.5138465e+13)
(-8.4184579e+13 1.5487111e+12 3.8892657e+11)
(-8.5338852e+13 3.463123e+11 9.7915641e+11)
(-8.4870197e+13 -1.5243747e+12 1.50594e+13)
(-7.2491023e+13 9.0109707e+11 1.118589e+13)
(-7.2171546e+13 5.6034399e+11 1.1264794e+13)
(-7.2670492e+13 3.0378277e+11 1.1625042e+13)
(-7.2413331e+13 7.6647749e+11 1.1989895e+13)
(-7.2178036e+13 8.0122234e+11 1.1864825e+13)
(-7.1859135e+13 3.6035125e+11 1.1343595e+13)
(-7.1966605e+13 8.9072883e+11 1.1439075e+13)
(-7.1475609e+13 2.6807141e+11 1.1465155e+13)
(-7.2117214e+13 6.7617333e+11 1.1384662e+13)
(-7.1767004e+13 1.8631922e+11 1.159135e+13)
(-7.2296242e+13 1.0594778e+12 1.2225617e+13)
(-7.2265359e+13 3.2684303e+11 1.1855828e+13)
(-8.1822886e+13 1.2417612e+12 1.265986e+13)
(-8.2603089e+13 2.0572214e+12 1.2225092e+13)
(-8.1831167e+13 2.2631389e+12 1.194088e+13)
(-8.1436977e+13 1.7743308e+12 1.1485674e+13)
(-8.1856963e+13 2.5522619e+12 1.1643519e+13)
(-8.2280885e+13 3.5164988e+12 1.2373837e+13)
(-8.3271265e+13 2.8513331e+12 1.179736e+13)
(-8.1831183e+13 2.0955098e+12 1.1528904e+13)
(-1.1218396e+14 7.0306327e+12 -1.4895813e+13)
(-1.1226988e+14 6.6817328e+12 -1.6971415e+13)
(-1.1252047e+14 6.0653933e+12 -1.3779805e+13)
(-1.1173585e+14 5.6439513e+12 -1.440963e+13)
(-1.0047092e+14 2.9312065e+12 -1.4874234e+13)
(-7.2733915e+13 1.9126752e+12 -1.0648707e+13)
(-7.2178039e+13 1.110765e+12 -1.0716448e+13)
(-8.251795e+13 6.5505605e+12 -1.4457564e+13)
(-8.4034718e+13 7.3761138e+11 -1.4913318e+13)
(-3.8019424e+13 3.325415e+11 -1.6458232e+13)
(-3.8149999e+13 9.9195197e+10 -1.6586898e+13)
(-4.2625864e+13 -5.646095e+11 -1.0838836e+13)
(-4.2838722e+13 2.8300712e+12 -1.0651403e+13)
(-3.8317712e+13 3.6358515e+11 -1.6401925e+13)
(-3.8450645e+13 2.8196997e+11 -1.6546547e+13)
(-4.2788357e+13 -3.1931497e+11 -1.0801707e+13)
(-4.254145e+13 3.3353972e+12 -1.1073276e+13)
(-3.6188047e+13 -6.8320456e+11 1.4379461e+12)
(-3.6093695e+13 2.1699385e+12 1.088462e+12)
(-4.8301945e+13 2.978011e+12 1.7756179e+13)
(-4.7229669e+13 -3.5200414e+12 1.7298364e+13)
(-4.9004822e+13 -2.4079763e+12 1.7969201e+13)
(-4.8662852e+13 4.4400179e+12 1.8054871e+13)
(-3.6416124e+13 1.5088195e+11 1.1949841e+12)
(-3.5374451e+13 2.9541561e+12 -3.8466377e+11)
(-8.1152762e+13 1.9027039e+12 -2.3235822e+13)
(-8.0890386e+13 1.8964584e+12 -2.3423822e+13)
(-9.8931298e+13 3.515884e+12 -1.9027856e+13)
(-8.9213006e+13 4.1108562e+12 -1.2826345e+12)
(-8.6351409e+13 5.6357833e+12 -1.2172954e+12)
(-9.9021314e+13 2.5576707e+12 -1.9326493e+13)
(-8.8142325e+13 1.6450904e+12 -1.508296e+13)
(-8.1702984e+13 7.5360042e+12 -1.3884239e+13)
(-1.0023706e+14 3.1939552e+12 -1.4392715e+13)
(-7.1464038e+13 1.1317548e+12 -9.6897548e+12)
(-7.1452757e+13 1.8930959e+12 -9.9107752e+12)
(-1.0103671e+14 2.7810507e+12 -1.4416854e+13)
(-7.1704733e+13 1.0191251e+12 -9.9707386e+12)
(-7.1266305e+13 1.826165e+12 -1.012602e+13)
(-6.196094e+13 2.3541873e+12 -1.7867005e+13)
(-6.2121622e+13 2.16074e+12 -1.8330783e+13)
(-5.8072395e+13 3.2122519e+12 -1.0129569e+13)
(-5.8849431e+13 -1.1095611e+12 -9.8635667e+12)
(-7.9810996e+13 8.2040164e+11 -2.2260605e+13)
(-8.0875046e+13 9.4950579e+11 -2.2455092e+13)
(-8.1117775e+13 1.5875016e+12 -2.3132e+13)
(-8.0848707e+13 1.4500907e+12 -2.2838801e+13)
(-5.2177549e+13 2.0383473e+12 -1.1102784e+13)
(-3.7308881e+13 5.8092521e+11 -1.5370714e+13)
(-3.7213389e+13 4.2221815e+11 -1.5776728e+13)
(-4.1284573e+13 -1.71665e+12 -9.4694204e+12)
(-4.0842642e+13 1.8629151e+12 -9.5852732e+12)
(-3.7594556e+13 4.0215994e+11 -1.5384038e+13)
(-3.7502784e+13 3.109501e+11 -1.5814174e+13)
(-4.1844226e+13 -1.4639574e+12 -9.5451512e+12)
(-4.117139e+13 2.3159254e+12 -1.0023531e+13)
(-3.4426479e+13 -2.4129692e+12 1.8887039e+12)
(-3.3117266e+13 5.6568819e+11 1.3051796e+12)
(-5.0083021e+13 -5.414648e+12 2.052482e+13)
(-4.8414619e+13 1.611915e+12 1.932549e+13)
(-5.2531543e+13 2.6719876e+12 1.7962998e+13)
(-5.3531773e+13 -2.6041926e+12 -1.0912084e+13)
(-5.4014885e+13 -7.1695836e+12 1.8652518e+13)
(-3.5280678e+13 -1.670678e+12 1.8850636e+12)
(-4.9880148e+13 -4.3798495e+12 1.9908135e+13)
(-4.841305e+13 2.3981429e+12 1.9285258e+13)
(-3.3497098e+13 1.2460405e+12 5.5658325e+11)
(-5.3493528e+13 -2.8016589e+12 -1.0947779e+13)
(-5.151646e+13 2.2887803e+12 -1.0629141e+13)
(-5.3365207e+13 -7.5643852e+12 1.7250963e+13)
(-4.9725029e+13 3.1457744e+12 1.5570346e+13)
(-6.2728593e+13 3.0232998e+12 -1.8511972e+13)
(-6.2495896e+13 3.0302696e+12 -1.8019653e+13)
(-5.8332012e+13 3.690895e+12 -9.7383825e+12)
(-5.9551989e+13 -8.4127642e+11 -9.895223e+12)
(-3.7469875e+13 3.2654322e+11 -1.5753092e+13)
(-3.7445608e+13 2.7987301e+11 -1.5992868e+13)
(-4.1894028e+13 -1.2205677e+12 -9.9231563e+12)
(-4.1802321e+13 2.5679316e+12 -1.0002588e+13)
(-3.7646642e+13 4.0697852e+11 -1.5860594e+13)
(-3.7661601e+13 2.1121443e+11 -1.6184598e+13)
(-4.2305003e+13 -7.0184101e+11 -1.0135656e+13)
(-4.1885661e+13 2.8461201e+12 -1.051333e+13)
(-3.6387464e+13 -5.8100051e+11 1.9745971e+12)
(-3.5117684e+13 2.0711454e+12 6.1553194e+11)
(-5.0608848e+13 -3.1102871e+12 2.072671e+13)
(-4.7912552e+13 3.2800822e+12 1.8980623e+13)
(-3.5607373e+13 -1.5715547e+12 2.0038321e+12)
(-5.0834772e+13 -4.5297235e+12 2.0789062e+13)
(-3.4847161e+13 1.6971158e+12 1.3028358e+12)
(-4.9451253e+13 2.75173e+12 1.976049e+13)
(-9.8230577e+13 3.8079637e+12 -1.7143382e+13)
(-8.7763385e+13 4.7556235e+12 -4.0442102e+11)
(-8.7943525e+13 6.8358228e+12 -2.8746641e+11)
(-9.8319512e+13 3.1390845e+12 -1.7314636e+13)
(-6.312802e+13 3.6319536e+12 -1.7652923e+13)
(-6.2925964e+13 3.4848549e+12 -1.7105266e+13)
(-5.8347316e+13 4.0466759e+12 -8.8486295e+12)
(-5.9517382e+13 -6.9424225e+11 -8.9015946e+12)
(-6.2027452e+13 3.4593561e+12 -1.7404592e+13)
(-6.2162625e+13 3.258159e+12 -1.7074252e+13)
(-5.7791412e+13 4.1476841e+12 -9.1262563e+12)
(-5.9264945e+13 -6.8302535e+11 -8.8372685e+12)
(-5.2906172e+13 -2.3791954e+12 -9.9290405e+12)
(-5.2490018e+13 -6.6790608e+12 1.7215324e+13)
(-5.0500416e+13 2.539342e+12 -9.9570869e+12)
(-4.8438395e+13 3.4864685e+12 1.5229613e+13)
(-5.2072872e+13 -2.6696158e+12 -9.5420448e+12)
(-5.1759164e+13 -7.4521816e+12 1.7033114e+13)
(-5.0210807e+13 2.5969704e+12 -9.3924054e+12)
(-4.7685186e+13 3.5636577e+12 1.4639287e+13)
(-6.2475726e+13 -1.4051956e+12 1.3416258e+13)
(-6.1192723e+13 1.191065e+12 1.2909011e+13)
(-7.1228002e+13 6.3173741e+11 1.883917e+13)
(-7.1402275e+13 1.3615731e+12 1.8340903e+13)
(-5.1055215e+13 2.038163e+12 1.6589849e+13)
(-5.1266658e+13 -1.9452766e+12 1.6999299e+13)
(-6.5649228e+13 2.0591363e+11 1.6620473e+13)
(-6.6188599e+13 7.0751013e+11 1.7336553e+13)
(-5.0094129e+13 2.3235466e+12 1.6113083e+13)
(-5.0127617e+13 -1.9252468e+12 1.5919837e+13)
(-6.5821036e+13 2.195635e+11 1.6178757e+13)
(-6.5896765e+13 5.8011996e+11 1.6427878e+13)
(-5.1035322e+13 1.8309356e+12 1.657933e+13)
(-4.9911471e+13 -2.2286965e+12 1.6352484e+13)
(-6.5864401e+13 6.9589423e+10 1.6677804e+13)
(-6.591877e+13 5.3405446e+11 1.652618e+13)
(-4.9710646e+13 2.3167565e+12 1.6147207e+13)
(-5.0077264e+13 -1.8259348e+12 1.6307267e+13)
(-6.5648833e+13 3.3246119e+11 1.6657035e+13)
(-6.5547405e+13 3.5141377e+11 1.6376885e+13)
(-6.3347256e+13 -1.7287356e+12 1.3751113e+13)
(-6.1494703e+13 1.6686879e+12 1.2524979e+13)
(-7.1778923e+13 1.7443126e+12 1.8296686e+13)
(-7.198584e+13 1.6051438e+12 1.8465541e+13)
(-5.2742607e+13 2.2442282e+12 1.7172679e+13)
(-5.2610079e+13 -2.1394036e+12 1.7267561e+13)
(-6.5685178e+13 3.4673528e+10 1.6787199e+13)
(-6.6817418e+13 6.2053487e+11 1.7305061e+13)
(-4.9499865e+13 -1.7675391e+12 1.5753132e+13)
(-4.9841338e+13 2.5557467e+12 1.6213482e+13)
(-6.5257733e+13 3.9279779e+11 1.5894063e+13)
(-6.5460315e+13 6.4062773e+11 1.6207019e+13)
(-5.1245101e+13 2.5143794e+12 1.6770201e+13)
(-5.0326466e+13 -1.7836418e+12 1.6780696e+13)
(-6.5707801e+13 4.2526506e+11 1.6772725e+13)
(-6.5990135e+13 8.9045502e+11 1.6924724e+13)
(-4.9999854e+13 2.5792863e+12 1.6445624e+13)
(-4.9420825e+13 -1.2364835e+12 1.6104974e+13)
(-6.4939061e+13 6.495538e+11 1.6046264e+13)
(-6.5169829e+13 5.6910723e+11 1.6354851e+13)
(-6.2446536e+13 -2.034354e+12 1.3118054e+13)
(-6.1277509e+13 1.3545724e+12 1.236492e+13)
(-7.1257707e+13 1.6005251e+12 1.8263517e+13)
(-7.1472105e+13 1.6213285e+12 1.825945e+13)
(-6.217402e+13 -1.4179219e+12 1.2491924e+13)
(-5.9226398e+13 1.5272685e+12 1.1092574e+13)
(-7.0967483e+13 1.7333628e+12 1.7388139e+13)
(-7.1984309e+13 1.7106988e+12 1.7858991e+13)
(-6.8002392e+13 2.220301e+12 1.0023517e+13)
(-6.3152635e+13 -1.9579423e+12 1.3351595e+13)
(-6.2138028e+13 1.5503267e+12 1.2615413e+13)
(-7.1729711e+13 2.1428505e+12 1.7989346e+13)
(-7.1587435e+13 2.2208e+12 1.8045747e+13)
(-6.2476989e+13 -1.120552e+12 1.2367906e+13)
(-6.0700867e+13 1.9409128e+12 1.1481888e+13)
(-7.1517965e+13 2.1299216e+12 1.7423893e+13)
(-7.1900116e+13 2.0778271e+12 1.7446994e+13)
(-6.2874959e+13 -1.5770068e+12 1.2953831e+13)
(-7.2032881e+13 2.0285082e+12 1.7989845e+13)
(-6.1413019e+13 1.7361925e+12 1.2196671e+13)
(-7.2073459e+13 2.0492548e+12 1.7969052e+13)
(-6.2156588e+13 -1.1459152e+12 1.23657e+13)
(-5.9551198e+13 1.6020602e+12 1.1190111e+13)
(-7.1169732e+13 1.7341659e+12 1.7503027e+13)
(-7.18609e+13 2.0116669e+12 1.7602535e+13)
(-5.1402739e+13 2.5310459e+12 1.6452391e+13)
(-5.224638e+13 -1.7051639e+12 1.7471522e+13)
(-6.5676132e+13 5.6146749e+11 1.6536603e+13)
(-6.5800493e+13 3.2420005e+11 1.6905207e+13)
(-5.1955904e+13 2.9318382e+12 1.6211152e+13)
(-5.0770081e+13 -1.4598708e+12 1.5799126e+13)
(-6.5899049e+13 2.548612e+11 1.5929443e+13)
(-6.6388419e+13 6.2561001e+11 1.6474718e+13)
(-5.0510398e+13 -1.7861995e+12 1.5984864e+13)
(-6.5845348e+13 3.2100941e+11 1.62479e+13)
(-6.582279e+13 6.5458971e+11 1.5958363e+13)
(-5.2359659e+13 2.4315815e+12 1.6333917e+13)
(-5.1135309e+13 -8.3058089e+11 1.6003129e+13)
(-5.0494013e+13 3.5850963e+12 1.547522e+13)
(-6.5401266e+13 9.5608402e+11 1.5699204e+13)
(-6.5496431e+13 7.7824973e+11 1.6145109e+13)
(-1.2964175e+14 3.3204284e+12 -2.248888e+13)
(-8.058752e+13 6.1281643e+11 1.354753e+12)
(-9.0484219e+13 2.997409e+11 3.1629767e+12)
(-8.4143298e+13 3.9505194e+12 -1.0460308e+13)
(-7.9758037e+13 6.3320864e+11 -7.821463e+12)
(-7.8728371e+13 1.9733282e+12 -7.9968863e+12)
(-8.1019403e+13 2.6324664e+12 9.401734e+11)
(-8.1191208e+13 -7.5714612e+10 1.3062726e+12)
(-7.8429187e+13 2.0713415e+12 -6.6400414e+12)
(-7.892225e+13 3.0977573e+11 -6.6334364e+12)
(-7.8448155e+13 3.0361738e+12 5.768977e+11)
(-7.9131826e+13 3.6946992e+11 1.0131715e+12)
(-7.888812e+13 2.792978e+12 9.8682808e+11)
(-7.7894086e+13 2.3571395e+12 -7.3786852e+12)
(-7.9605806e+13 2.0414273e+11 1.0742531e+12)
(-7.8508531e+13 3.609852e+11 -6.7728856e+12)
(-7.8448921e+13 2.2182314e+12 -8.5127458e+12)
(-8.0919457e+13 1.3045433e+11 8.5176247e+11)
(-8.3026669e+13 3.9932665e+12 6.1040051e+12)
(-7.9922598e+13 1.3318476e+12 -4.9158813e+12)
(-8.3717671e+13 3.1612659e+11 6.2199816e+12)
(-7.9912679e+13 2.4235842e+12 -4.3526116e+12)
(-7.8819896e+13 2.5570096e+12 -4.8384501e+12)
(-8.1199085e+13 4.9872992e+12 6.446206e+12)
(-8.2491304e+13 8.0769336e+11 6.475001e+12)
(-8.3266007e+13 3.1691603e+12 3.1122594e+11)
(-8.4192636e+13 2.4410881e+12 1.0297997e+12)
(-8.338989e+13 6.034459e+12 1.408785e+13)
(-8.5141848e+13 7.6340668e+11 1.4385542e+13)
(-8.5098067e+13 1.3627531e+12 6.3179715e+11)
(-8.5059541e+13 5.4941626e+12 1.3745537e+13)
(-8.4092894e+13 2.4675949e+12 2.7629057e+11)
(-8.5930769e+13 1.6423038e+11 1.4327032e+13)
(-7.9197497e+13 8.5802672e+11 -4.6151091e+12)
(-8.1173198e+13 3.7127926e+12 5.8277221e+12)
(-8.2195895e+13 -6.4799031e+10 5.8178025e+12)
(-7.8193781e+13 1.9788134e+12 -5.2658782e+12)
(-8.3627575e+13 1.0265469e+12 1.2594252e+11)
(-8.3123223e+13 4.6129584e+12 1.3624525e+13)
(-8.2927253e+13 2.2075379e+12 -6.6464049e+09)
(-8.4912001e+13 -2.9174652e+11 1.4219854e+13)
(-8.3322486e+13 2.2126293e+12 2.0826094e+11)
(-8.3681494e+13 7.9370642e+11 1.0439705e+11)
(-8.4144491e+13 4.7769786e+12 1.432643e+13)
(-8.4920614e+13 -3.4251653e+11 1.4921621e+13)
(-7.8525918e+13 2.0726444e+12 -4.9740314e+12)
(-8.0940608e+13 3.4557716e+12 5.7287937e+12)
(-7.9033489e+13 7.1294737e+11 -5.0566325e+12)
(-8.1972871e+13 -1.3080198e+11 6.2359943e+12)
(-8.8670454e+13 -1.8742961e+11 1.2479819e+13)
(-7.0590145e+13 4.4587601e+12 4.5104246e+12)
(-7.3539653e+13 7.1538759e+11 4.8674494e+12)
(-7.4029143e+13 3.0241953e+12 1.4709032e+13)
(-7.3302136e+13 1.0063771e+12 4.5576177e+12)
(-7.4762485e+13 -1.081841e+12 1.4790181e+13)
(-6.9515583e+13 4.3240903e+10 -8.9860331e+11)
(-6.9219564e+13 7.7996018e+11 -8.596973e+11)
(-7.1845863e+13 1.8124037e+12 7.8840035e+12)
(-7.2122898e+13 -9.133693e+11 8.0616967e+12)
(-6.9772933e+13 6.2579472e+11 -2.1786144e+11)
(-7.2164144e+13 2.6706402e+12 8.6085876e+12)
(-6.9739581e+13 8.5017759e+11 -4.1259875e+11)
(-7.2636921e+13 -5.7254146e+11 8.5110059e+12)
(-7.312271e+13 5.3184537e+10 4.059362e+12)
(-7.3926822e+13 2.5865513e+12 1.394616e+13)
(-7.299123e+13 7.4084642e+11 4.2030324e+12)
(-7.4344514e+13 -1.2297294e+12 1.4349345e+13)
(-6.9225137e+13 1.1082247e+11 -1.1271982e+12)
(-6.8913767e+13 1.0171316e+12 -1.0623254e+12)
(-7.1617677e+13 1.8288012e+12 7.659493e+12)
(-7.1910381e+13 -8.2360106e+11 7.8807103e+12)
(-6.9063924e+13 -3.2859775e+10 -1.0126754e+12)
(-7.2209239e+13 1.9998293e+12 7.8949499e+12)
(-6.9173457e+13 6.9163286e+11 -1.0407419e+12)
(-7.262841e+13 -8.1260233e+11 7.8799676e+12)
(-7.285563e+13 5.021714e+10 3.8501572e+12)
(-7.2615122e+13 7.8606313e+11 4.0122775e+12)
(-7.3932394e+13 2.6532976e+12 1.3896231e+13)
(-7.409464e+13 -1.2232807e+12 1.425961e+13)
(-7.3978781e+13 2.4851229e+12 1.4122265e+13)
(-7.3236282e+13 1.5966733e+11 4.0933636e+12)
(-7.2973725e+13 8.0003478e+11 3.9404898e+12)
(-7.4482961e+13 -1.2695458e+12 1.415131e+13)
(-6.6485896e+13 -4.117739e+11 -3.683266e+12)
(-6.775009e+13 1.3021155e+12 2.8612906e+12)
(-6.6540527e+13 9.2843142e+11 -3.6789793e+12)
(-6.827631e+13 -6.037232e+11 2.9282228e+12)
(-6.4405254e+13 -2.6039119e+11 -4.1425663e+12)
(-6.4599995e+13 6.75781e+11 -4.1514323e+12)
(-6.621726e+13 1.1763241e+12 1.4441944e+12)
(-6.6713666e+13 -5.1076851e+11 1.4819449e+12)
(-6.466979e+13 -5.5575515e+10 -4.2560686e+12)
(-6.4343999e+13 1.1400731e+12 -4.2960375e+12)
(-6.6464172e+13 1.3031261e+12 1.307281e+12)
(-6.6564335e+13 -2.2042283e+11 1.3390103e+12)
(-6.6624266e+13 -2.4535204e+11 -3.723575e+12)
(-6.6392412e+13 1.1433203e+12 -3.7345982e+12)
(-6.7717249e+13 1.5623784e+12 2.5314933e+12)
(-6.7851563e+13 -2.4669758e+11 2.650507e+12)
(-6.7336071e+13 2.7327479e+11 -2.9133312e+12)
(-6.840527e+13 2.0367167e+12 3.5025611e+12)
(-6.7177361e+13 1.0961463e+12 -3.0885515e+12)
(-6.8835043e+13 -3.6244319e+11 3.4598119e+12)
(-6.4924023e+13 -1.769585e+11 -3.9593125e+12)
(-6.4733399e+13 7.7877435e+11 -3.9628858e+12)
(-6.6714047e+13 1.1680868e+12 1.6159694e+12)
(-6.6945614e+13 -5.6557453e+11 1.7036334e+12)
(-6.5194009e+13 3.1960618e+11 -3.4173886e+12)
(-6.7187079e+13 1.8565383e+12 2.2084757e+12)
(-6.5188236e+13 8.4476441e+11 -3.5236264e+12)
(-6.7470212e+13 -2.8559634e+11 2.1247941e+12)
(-6.693853e+13 -3.8116378e+11 -3.526046e+12)
(-6.6757727e+13 8.3353446e+11 -3.487666e+12)
(-6.7920244e+13 1.5231169e+12 2.7405865e+12)
(-6.8148283e+13 -4.1812073e+11 2.8465254e+12)
(-6.5158245e+13 1.277893e+11 -3.8533212e+12)
(-6.5674722e+13 1.5589987e+12 8.5241707e+11)
(-6.5076271e+13 1.0486302e+12 -3.9718643e+12)
(-6.5999436e+13 -2.3480829e+11 8.4471167e+11)
(-6.437932e+13 -2.5038851e+11 -4.0863577e+12)
(-6.4409238e+13 7.4428296e+11 -4.1012888e+12)
(-6.6185132e+13 1.0164147e+12 6.3013973e+11)
(-6.6421971e+13 -3.6733168e+11 6.3684052e+11)
(-6.4765148e+13 1.0417154e+11 -3.6266799e+12)
(-6.6451415e+13 1.4923765e+12 1.0532864e+12)
(-6.4814289e+13 7.5637616e+11 -3.7272401e+12)
(-6.6666474e+13 -2.0870892e+11 9.9664476e+11)
(-6.47823e+13 -3.7657632e+11 -4.2999703e+12)
(-6.4687028e+13 8.5433542e+11 -4.3022396e+12)
(-6.526281e+13 1.1747622e+12 2.1006687e+11)
(-6.5495055e+13 -2.9259837e+11 2.7416851e+11)
(-6.5314633e+13 -5.6507726e+11 -3.534872e+12)
(-6.6179325e+13 9.804475e+11 -4.0783514e+10)
(-6.5335678e+13 6.8943481e+11 -3.6004785e+12)
(-6.6541347e+13 -1.9516022e+11 -8.2536361e+10)
(-6.5659235e+13 -3.2331667e+11 -2.9998865e+12)
(-6.655684e+13 1.0877341e+12 3.8380068e+11)
(-6.5645619e+13 7.0521194e+11 -3.0407449e+12)
(-6.6805974e+13 -3.0110511e+11 3.7197767e+11)
(-6.9038349e+13 8.5948417e+11 8.362844e+11)
(-6.9216196e+13 -5.1854647e+11 9.0397167e+11)
(-7.8795955e+13 2.2836981e+12 -2.3509476e+11)
(-6.7776862e+13 -4.0790773e+11 -5.8676105e+12)
(-6.7698623e+13 3.7379704e+11 -5.7729649e+12)
(-6.9124058e+13 7.4700444e+11 6.0773604e+11)
(-6.8910983e+13 -5.0985365e+11 3.2044264e+11)
(-7.9887993e+13 -8.8785604e+10 -1.4277198e+11)
(-6.7316695e+13 4.1046244e+11 -6.3104379e+12)
(-6.7483999e+13 -5.481513e+11 -5.7026228e+12)
(-7.8075326e+13 2.1352187e+12 -8.7130514e+12)
(-7.7903028e+13 3.9231017e+11 -8.4581961e+12)
(-6.9190564e+13 8.1225968e+11 2.5091372e+11)
(-6.8674899e+13 -5.3760463e+11 6.1546866e+09)
(-8.0530636e+13 2.5617597e+11 -8.5372343e+11)
(-6.7226371e+13 3.8876877e+11 -6.5290033e+12)
(-6.7822409e+13 -4.4165142e+11 -5.8917748e+12)
(-6.9143676e+13 7.7777782e+11 4.1320714e+11)
(-6.9003236e+13 -6.4965124e+11 1.2543744e+11)
(-7.9936439e+13 2.321439e+12 -1.0775326e+12)
(-6.7577692e+13 2.0476586e+11 -6.4079481e+12)
(-6.80003e+13 -5.8540735e+11 -5.8494945e+12)
(-6.5470037e+13 -4.0776887e+11 -3.559932e+12)
(-6.5502994e+13 7.119162e+11 -3.6759891e+11)
(-6.544412e+13 6.0444631e+11 -3.7277284e+12)
(-6.5984506e+13 -5.040324e+11 -4.2245812e+11)
(-7.8666604e+13 -1.1090255e+11 -9.5453701e+12)