/*--------------------------------*- C++ -*----------------------------------*\
  =========                 |
  \\      /  F ield         | OpenFOAM: The Open Source CFD Toolbox
   \\    /   O peration     | Website:  https://openfoam.org
    \\  /    A nd           | Version:  7
     \\/     M anipulation  |
\*---------------------------------------------------------------------------*/
FoamFile
{
    version     2.0;
    format      ascii;
    class       volScalarField;
    location    "3000";
    object      k;
}
// * * * * * * * * * * * * * * * * * * * * * * * * * * * * * * * * * * * * * //

dimensions      [0 2 -2 0 0 0 0];

internalField   nonuniform List<scalar> 
33733
(
1.5212017
1.5269657
1.5261813
1.5240109
1.5237513
1.5208859
1.5246624
1.5244466
1.524706
1.5250185
1.5269993
1.5267361
1.52663
1.5270018
1.5270562
1.5272863
1.5261184
1.5273157
1.5270329
1.5270027
1.5269561
1.5250857
1.5248559
1.5253113
1.5250929
1.5254876
1.5245473
1.524403
1.5254542
1.5253654
1.5252791
1.5252298
1.5251036
1.5236193
1.5233825
1.5233143
1.5235497
1.5249191
1.5250329
1.5251965
1.5250388
1.5250998
1.5254155
1.525842
1.5267761
1.5269354
1.5272034
1.5271043
1.5261016
1.5259912
1.5262629
1.5269932
1.5271773
1.5273269
1.527274
1.5273566
1.5277377
1.527741
1.5273505
1.5272861
1.5273813
1.5272569
1.5273633
1.527199
1.5270809
1.5270385
1.5271571
1.526506
1.5265102
1.5263279
1.5263688
1.5263232
1.5263884
1.5265521
1.5254261
1.5251445
1.5253415
1.5250841
1.5254483
1.5254897
1.5251978
1.5251707
1.525479
1.525456
1.5254931
1.5253288
1.5252372
1.5254493
1.5254893
1.5253389
1.5254961
1.5252967
1.5255096
1.5254886
1.5252683
1.5252249
1.5205997
1.5199685
1.5199095
1.5200528
1.520808
1.5197556
1.5199997
1.5232845
1.5234177
1.5232451
1.5233954
1.5229431
1.5231332
1.5229363
1.5231182
1.5234542
1.5230264
1.5230884
1.5232092
1.5231664
1.5232901
1.5233174
1.5234511
1.5236108
1.5234283
1.5234205
1.5235146
1.5247692
1.5247367
1.5248386
1.5248828
1.5250841
1.5251603
1.5252704
1.5253903
1.5250086
1.5249537
1.5260561
1.5259489
1.5227904
1.5261961
1.5263796
1.5265541
1.526393
1.5235357
1.523451
1.5241847
1.5254446
1.5255041
1.5265192
1.5267786
1.5272327
1.527512
1.5275156
1.5274237
1.5267525
1.5269609
1.5275571
1.5277909
1.527592
1.5274523
1.5275542
1.5275484
1.5274451
1.5268991
1.526992
1.5269262
1.5268262
1.5270848
1.5271608
1.5270686
1.5271657
1.5269127
1.5268871
1.5267845
1.5268261
1.5271539
1.5270641
1.5271002
1.527012
1.526795
1.5267228
1.5266061
1.5266813
1.5265837
1.5266269
1.5264697
1.5264447
1.5264155
1.5264147
1.5266248
1.5266193
1.5265467
1.5267017
1.5266197
1.5267212
1.5254815
1.5255402
1.525393
1.5252481
1.5253333
1.5255919
1.5254936
1.5254808
1.5253137
1.5254832
1.5257338
1.5258516
1.5258458
1.5254488
1.5256308
1.5259647
1.5261602
1.5261178
1.5259141
1.5259165
1.5261873
1.5253768
1.5253418
1.525035
1.5250507
1.5249842
1.5252628
1.5252971
1.5250012
1.5254729
1.5254254
1.5251033
1.5250892
1.5255368
1.5251447
1.5251362
1.5255067
1.5235538
1.5235279
1.5254258
1.5254693
1.5254682
1.5254252
1.5253706
1.5254771
1.5255179
1.525274
1.5253004
1.5255492
1.5255552
1.5252292
1.5252444
1.5255612
1.5255517
1.5251946
1.5252031
1.525545
1.525557
1.5251733
1.525171
1.5198234
1.5195562
1.5195931
1.5198609
1.5208422
1.5208102
1.520863
1.5209075
1.520523
1.5207536
1.520565
1.5208042
1.5208686
1.5208575
1.5209064
1.5199598
1.521092
1.5209094
1.5202038
1.5199527
1.5196732
1.5195013
1.5194199
1.5194357
1.5198837
1.5195261
1.520051
1.5196206
1.519523
1.5197825
1.5198799
1.5189448
1.5188299
1.5232712
1.5232608
1.5232574
1.5232466
1.5233901
1.5233256
1.5233039
1.5233766
1.5232356
1.5232257
1.523237
1.5232466
1.5233667
1.523282
1.5233012
1.5233737
1.523011
1.5228116
1.5231043
1.5228057
1.5230192
1.5231543
1.5231681
1.523162
1.5231478
1.5228298
1.5230189
1.5228267
1.5230119
1.5231411
1.5231282
1.5231363
1.5231491
1.52328
1.5232176
1.5232901
1.5233473
1.5230349
1.5228876
1.522866
1.523021
1.5230233
1.5231211
1.5229591
1.5230692
1.5231847
1.5231487
1.5231908
1.5231563
1.5231241
1.5231266
1.5231351
1.5231368
1.5232225
1.5232144
1.5232303
1.5232218
1.5232725
1.5232667
1.5232357
1.5232423
1.5234093
1.5234278
1.5233233
1.5232972
1.523398
1.5235099
1.5235196
1.523468
1.5233748
1.5232725
1.523374
1.5232854
1.5234222
1.5244811
1.524474
1.5244181
1.5244237
1.5245523
1.5245714
1.5246394
1.5246686
1.5249234
1.5249674
1.5252595
1.5250389
1.5251019
1.5253516
1.5248586
1.5248175
1.5247582
1.5247336
1.5261535
1.5259738
1.5261324
1.526239
1.5222357
1.5225422
1.5226631
1.5233071
1.5234213
1.5234746
1.5235802
1.5257612
1.5241022
1.525881
1.5241445
1.5255942
1.5255681
1.5240965
1.5240991
1.5240773
1.5241268
1.5241428
1.5241069
1.5247346
1.5246768
1.5246919
1.5247993
1.523497
1.5236419
1.5269482
1.5273393
1.5273494
1.5271667
1.5240472
1.5262903
1.5261044
1.5239726
1.5265232
1.5266885
1.5236434
1.523526
1.5236819
1.5273436
1.5273435
1.5272951
1.5272377
1.5272601
1.5272972
1.5272951
1.5272483
1.5272182
1.5272933
1.5261928
1.526148
1.5261251
1.526186
1.5259932
1.526043
1.5259837
1.5259197
1.526274
1.526603
1.5262273
1.5260683
1.5259749
1.5261371
1.5261038
1.5264064
1.5261653
1.5264312
1.5258849
1.5257842
1.5257692
1.5257987
1.5259793
1.5259899
1.5263154
1.5263196
1.5267265
1.5268442
1.526801
1.5266781
1.526432
1.5265912
1.5265097
1.5263454
1.5266377
1.5265426
1.5267427
1.5266785
1.5264057
1.5263082
1.5265325
1.5265775
1.5257404
1.5255143
1.5257274
1.5255631
1.525836
1.5257168
1.5258846
1.52576
1.5256278
1.5256222
1.5253824
1.5254117
1.5255315
1.5255579
1.5253149
1.5253016
1.5252858
1.5253628
1.5257518
1.5256211
1.5253127
1.5253805
1.5256716
1.5255662
1.5261432
1.526045
1.5260136
1.5259993
1.5260726
1.5259708
1.5260957
1.5260981
1.5254343
1.525566
1.5254149
1.5256435
1.5258927
1.5261826
1.5261856
1.5260044
1.5255807
1.5255725
1.5256109
1.5256773
1.5259554
1.5258893
1.5262501
1.5262352
1.524856
1.5247071
1.5246099
1.5247406
1.5246391
1.5245229
1.5244297
1.525038
1.5248418
1.524699
1.5247677
1.52492
1.5247691
1.5248756
1.52502
1.5249115
1.5247687
1.5244889
1.5248233
1.5249662
1.5251404
1.5249455
1.5250022
1.5247775
1.5253629
1.5254683
1.5256688
1.5256175
1.5257498
1.5255895
1.5256934
1.5254879
1.5256032
1.5256718
1.5258075
1.5257705
1.52517
1.5249498
1.5250634
1.5252562
1.5252859
1.5250735
1.5252159
1.5253923
1.5257645
1.5256848
1.5258294
1.5258798
1.5260194
1.5260498
1.5259811
1.5259446
1.5259346
1.5259751
1.5259159
1.5258798
1.5255695
1.5255916
1.524776
1.5247305
1.5252138
1.5255996
1.5246936
1.5255409
1.5259576
1.5260216
1.5259012
1.5259729
1.5246037
1.5245371
1.5244272
1.5244811
1.524143
1.5241697
1.5246816
1.5247691
1.5246986
1.5248966
1.5248421
1.5188233
1.5234836
1.5235336
1.5254023
1.5254379
1.5254459
1.525342
1.5253825
1.5252795
1.5252603
1.5252357
1.5252094
1.5251531
1.5250706
1.5249643
1.5250182
1.5197807
1.5205471
1.5203664
1.520398
1.5205944
1.5202277
1.5201852
1.5203037
1.5203747
1.5203563
1.5203357
1.5204032
1.5204329
1.5206361
1.5205857
1.5206123
1.5206691
1.5223004
1.522402
1.5221774
1.5220807
1.5222805
1.5223116
1.522084
1.5220671
1.5225799
1.5225109
1.5226016
1.5225421
1.5226004
1.5225357
1.5226904
1.5226297
1.5215015
1.521888
1.5213271
1.521682
1.5221442
1.5222525
1.5219393
1.522035
1.5217225
1.5216832
1.522153
1.5220926
1.5224279
1.5223568
1.522534
1.5224712
1.5223225
1.5223865
1.5207014
1.5221634
1.5221097
1.522294
1.5223062
1.5206924
1.52208
1.5220774
1.5225942
1.5225236
1.5225928
1.5206445
1.5206388
1.522412
1.5225052
1.5209313
1.5222989
1.5222026
1.5223398
1.5223252
1.520754
1.5221031
1.5221286
1.5206828
1.5208702
1.5205169
1.5204235
1.5206256
1.5207059
1.5204649
1.5203957
1.5203788
1.52046
1.5200449
1.5199972
1.5200613
1.5201355
1.519431
1.5199499
1.5199189
1.519911
1.5199582
1.5199658
1.5199695
1.5199827
1.5199935
1.5194414
1.5193262
1.5193372
1.5201564
1.5200851
1.5201086
1.5201842
1.5195571
1.5197498
1.519461
1.5195561
1.52022
1.5201431
1.5201285
1.5202097
1.5200227
1.5200327
1.5200191
1.520026
1.5200711
1.5202837
1.5203001
1.5200881
1.520181
1.5204032
1.5204794
1.5202723
1.5194256
1.5193426
1.523363
1.5233703
1.5233683
1.5233621
1.5233565
1.5233641
1.5233606
1.5233535
1.5233654
1.5233684
1.5233597
1.5233575
1.5233598
1.5233626
1.5233538
1.5233504
1.5234231
1.5234238
1.523452
1.52345
1.5233929
1.5233963
1.5233924
1.5233894
1.5233872
1.5233936
1.5233892
1.523383
1.523451
1.5234222
1.5234184
1.5234438
1.5233462
1.5233508
1.5233482
1.5233442
1.5233433
1.5233427
1.5233408
1.5233401
1.5233569
1.5233508
1.5233485
1.5233556
1.5233599
1.5233639
1.5233568
1.5233536
1.5234496
1.5234054
1.5234077
1.5234426
1.5233696
1.5233722
1.5233724
1.5233687
1.5233837
1.5233863
1.5233825
1.5233793
1.5234169
1.5234174
1.5234511
1.5234463
1.5232185
1.5232463
1.5232554
1.5232303
1.5249668
1.5249342
1.5231132
1.5230829
1.5230616
1.523082
1.5249225
1.5231283
1.5230837
1.5230586
1.5230931
1.5232294
1.5232539
1.5232611
1.5232382
1.5232991
1.5233139
1.5233076
1.5232938
1.5233186
1.5233133
1.5232997
1.5233056
1.523319
1.5233139
1.5233001
1.5233056
1.5233091
1.5233141
1.5232998
1.5232947
1.523044
1.5230574
1.5231342
1.5231098
1.5232419
1.5232381
1.5232333
1.5232269
1.5231373
1.5230753
1.5230595
1.5231078
1.5232543
1.5232337
1.5232413
1.5232601
1.5232981
1.5232971
1.5232942
1.5232909
1.5232884
1.5232932
1.5232842
1.5232875
1.5233092
1.5232977
1.523294
1.5233052
1.5233111
1.523299
1.5233041
1.523315
1.5233144
1.523211
1.5231889
1.5231283
1.5232655
1.5232489
1.523245
1.5233137
1.5233162
1.523382
1.5231856
1.5231813
1.5231803
1.5231859
1.5231198
1.523035
1.5230216
1.523101
1.5231259
1.5230414
1.5230348
1.5231087
1.5232077
1.5232107
1.5232151
1.5232127
1.523109
1.5230824
1.5231671
1.5231421
1.5231834
1.5232039
1.5231854
1.5232067
1.523069
1.5231404
1.5230414
1.5231132
1.5231675
1.5231841
1.5231835
1.523172
1.5232467
1.5232319
1.5232232
1.5232424
1.5232241
1.5232327
1.5232245
1.5232196
1.5232483
1.5232349
1.5232301
1.5232471
1.5232332
1.5232367
1.5232309
1.5232293
1.5232683
1.5232676
1.5232627
1.5232643
1.5232418
1.5232397
1.5232348
1.5232381
1.5232733
1.5232734
1.5232732
1.5232744
1.5232483
1.5232461
1.5232453
1.5232488
1.5232985
1.5233005
1.5233068
1.523304
1.5232987
1.5232965
1.5233008
1.5233027
1.5233242
1.5233283
1.5233315
1.5233276
1.5233228
1.5233207
1.5233239
1.523325
1.5233367
1.5232994
1.5232992
1.5232864
1.5232862
1.5233323
1.5232977
1.5232989
1.5232859
1.5232854
1.5232866
1.5232861
1.5232844
1.5232855
1.523286
1.5232871
1.5232862
1.5232856
1.5234101
1.5234142
1.5234809
1.5234605
1.5233773
1.5233632
1.5234429
1.5233998
1.5233379
1.5233313
1.523317
1.5233207
1.523317
1.5233145
1.5233153
1.5233166
1.5233583
1.5233546
1.5234349
1.5234307
1.5234758
1.523515
1.5234308
1.5233639
1.5233731
1.5234262
1.5233265
1.523326
1.5233322
1.5233313
1.523437
1.5233853
1.5233947
1.5234416
1.5233484
1.5233496
1.523356
1.5233538
1.5237761
1.525293
1.5251968
1.5214467
1.5215844
1.5218983
1.5215614
1.5233916
1.5221237
1.5235126
1.5224252
1.5233785
1.5234683
1.5258991
1.5241194
1.5235802
1.5234416
1.5239264
1.52607
1.5243182
1.5251995
1.5249985
1.5249431
1.5241097
1.524074
1.523995
1.524087
1.5241028
1.5251996
1.525126
1.5240434
1.5240929
1.524115
1.5241243
1.5241016
1.524832
1.5248303
1.5247648
1.5247459
1.5241322
1.5240867
1.5240646
1.5240906
1.5240586
1.5240701
1.5240771
1.5242915
1.5241401
1.5241318
1.5240887
1.5241185
1.5240979
1.5240928
1.5241137
1.5240848
1.524083
1.5241097
1.5241159
1.5240473
1.5240601
1.5240589
1.5240475
1.524244
1.5243032
1.5242428
1.5242662
1.5242889
1.5243422
1.5243363
1.5244163
1.5235323
1.5237742
1.523769
1.5269085
1.5238779
1.5270911
1.5240852
1.5240963
1.5240591
1.5239235
1.524032
1.5257543
1.5259899
1.5255226
1.5253763
1.5240488
1.5239563
1.5238398
1.5240654
1.5239962
1.5237194
1.5237216
1.5237212
1.5301806
1.5237684
1.5238284
1.5237685
1.5238281
1.5270915
1.5270313
1.527029
1.5268691
1.5269876
1.5269288
1.5269393
1.5269865
1.5267941
1.526709
1.5268678
1.5268095
1.5255742
1.525903
1.5253047
1.5250835
1.5257655
1.5240866
1.5254895
1.5240633
1.5263148
1.5260559
1.5252189
1.5251005
1.5251461
1.525099
1.5249899
1.5248454
1.5248495
1.5247406
1.5248495
1.5250344
1.5251384
1.5249789
1.5250006
1.525509
1.524985
1.5250393
1.5255493
1.5257258
1.5259405
1.5259682
1.5256938
1.5251097
1.5255966
1.5256067
1.5250936
1.5257884
1.5259576
1.5259898
1.5257602
1.52493
1.5250327
1.5250051
1.5248905
1.5249278
1.5248449
1.5246901
1.5247784
1.5246375
1.5246385
1.5248865
1.5248126
1.5248159
1.5247116
1.5248982
1.5246963
1.5254804
1.5249726
1.5250679
1.5255282
1.5254792
1.5250078
1.525107
1.5255442
1.52591
1.5259092
1.5255306
1.5255181
1.5256508
1.5259274
1.5259525
1.5256288
1.5260607
1.5259218
1.5259778
1.5259013
1.5258138
1.5254508
1.5256155
1.5257796
1.5256409
1.5252423
1.5254101
1.5252712
1.5251726
1.5260353
1.5259194
1.5259517
1.5262026
1.5261181
1.5257525
1.5261205
1.5256505
1.5263015
1.5264175
1.5261739
1.52617
1.5263092
1.5262856
1.5260944
1.5261122
1.525333
1.5254826
1.5259714
1.5258645
1.525713
1.5251896
1.5252227
1.5256989
1.5260136
1.5260635
1.5259665
1.5258576
1.5260126
1.5261476
1.5261995
1.5260628
1.5246108
1.5246297
1.5245305
1.5246573
1.5246502
1.5247567
1.5248905
1.5246244
1.5246619
1.5245915
1.5245024
1.5245466
1.5246282
1.5246675
1.524589
1.5245868
1.5245636
1.5244493
1.5245029
1.5245342
1.5246222
1.5245491
1.5246269
1.5245508
1.5247127
1.52478
1.5245769
1.5245349
1.5244975
1.5248089
1.5247515
1.5251984
1.5253383
1.525588
1.5255075
1.5254137
1.5250881
1.5254782
1.5251913
1.5244114
1.5245385
1.5245671
1.5246757
1.5246446
1.5245266
1.5245906
1.5247442
1.5250946
1.5249601
1.5252895
1.5253902
1.5249683
1.5248258
1.5251584
1.5252627
1.5259023
1.5259362
1.525873
1.5258538
1.525871
1.5258159
1.5258428
1.5258743
1.5255935
1.5256222
1.5247991
1.5247798
1.5248601
1.5256454
1.5248541
1.5256562
1.5258103
1.5257221
1.5258094
1.5258589
1.5257084
1.5256103
1.5257872
1.5258215
1.525705
1.5256799
1.5249281
1.5249326
1.5257431
1.5257225
1.5250089
1.5250068
1.5245233
1.5245492
1.5245283
1.5245641
1.52475
1.5246813
1.5249469
1.5250327
1.5245166
1.5244729
1.5245565
1.5244157
1.5250128
1.5247072
1.5251399
1.5248419
1.5256571
1.5252825
1.5254105
1.5257228
1.525326
1.5259401
1.5259406
1.5252394
1.5250885
1.5257948
1.5257798
1.525066
1.5257345
1.5254351
1.525795
1.5255846
1.5247195
1.524679
1.5247322
1.5245939
1.5245968
1.5246147
1.5245199
1.524582
1.5248135
1.5245899
1.5246868
1.5249054
1.5248616
1.5246423
1.5247383
1.5249859
1.5252905
1.5251456
1.5255551
1.5256408
1.525508
1.5250585
1.5251721
1.5255666
1.5259579
1.5259004
1.5254462
1.5254047
1.5254881
1.5258795
1.5259144
1.5254978
1.5244254
1.524402
1.5247695
1.5246089
1.5240785
1.5244277
1.5247086
1.5244492
1.524483
1.52459
1.5245281
1.5244668
1.5242651
1.5245785
1.5246735
1.5248357
1.5245877
1.5247521
1.5245245
1.5248834
1.5249681
1.525158
1.5251047
1.5252483
1.5251167
1.5251991
1.5250391
1.5251818
1.525246
1.5253499
1.5252976
1.5249071
1.5246434
1.5247055
1.5249798
1.5250474
1.5247714
1.5248496
1.5251246
1.5253649
1.5253006
1.5253929
1.5254421
1.5252691
1.5253304
1.5250984
1.5250187
1.5248327
1.5251082
1.5251389
1.5247988
1.524791
1.5244771
1.5244854
1.5246372
1.5248183
1.5248636
1.5241052
1.5246054
1.5249205
1.525214
1.5248259
1.5251629
1.5237993
1.5242694
1.5242881
1.5237984
1.5242454
1.524231
1.5238082
1.5241996
1.5241921
1.5238023
1.5242235
1.5242125
1.5238393
1.5238178
1.5238269
1.5238469
1.5239547
1.5239704
1.5245848
1.5238004
1.5244794
1.5244588
1.5238025
1.5244494
1.5244134
1.5238069
1.5245134
1.5246375
1.5238036
1.5245774
1.5245543
1.5234443
1.523446
1.5235065
1.5235505
1.5253469
1.5253175
1.5236266
1.5257183
1.5255676
1.5236708
1.5254713
1.5253666
1.5236965
1.5253047
1.52523
1.5251136
1.5251683
1.5237243
1.525029
1.525027
1.5237399
1.5237448
1.5246879
1.5247109
1.5238104
1.5246004
1.5246102
1.5237645
1.5246444
1.5246373
1.5204664
1.5207056
1.5203267
1.5205475
1.5204159
1.5202062
1.5218842
1.5218261
1.5217343
1.521811
1.5216268
1.5212831
1.5212007
1.521527
1.5212133
1.5212875
1.521638
1.521542
1.5219489
1.5218689
1.5217755
1.521867
1.5211893
1.5212771
1.5216003
1.5215053
1.5211592
1.5212205
1.5215064
1.5214492
1.5216507
1.5216304
1.5215815
1.5216236
1.521678
1.521758
1.5217981
1.5217346
1.5217489
1.5216903
1.521645
1.5217202
1.5217099
1.5217126
1.5216626
1.5216753
1.521766
1.5218454
1.521853
1.5217811
1.5217566
1.5218286
1.5219015
1.5218398
1.5218887
1.5219805
1.5219925
1.5219113
1.5218357
1.5219207
1.5219312
1.5218532
1.5219976
1.5219125
1.5218332
1.5219274
1.5218992
1.52198
1.522074
1.5219978
1.5260593
1.5260599
1.525436
1.5254658
1.5254848
1.5255268
1.5260926
1.5260925
1.5260752
1.5260413
1.5259919
1.5259953
1.5253702
1.5254026
1.5254322
1.5254766
1.5260645
1.5260654
1.5260475
1.5259772
1.525399
1.5254208
1.5249263
1.5248978
1.5249455
1.5245197
1.5245322
1.5249557
1.5249938
1.5254598
1.5249453
1.5254921
1.5249898
1.5245538
1.5250198
1.5245938
1.5254645
1.5254825
1.5249569
1.5249832
1.5250088
1.5245727
1.5245825
1.5250025
1.5255129
1.5255422
1.5250599
1.5250141
1.5250577
1.525084
1.524632
1.5246685
1.5244315
1.5244842
1.5238868
1.5239982
1.524848
1.5249213
1.5254884
1.5255048
1.5244756
1.5254959
1.5257959
1.525801
1.5251786
1.5252169
1.5252808
1.5253323
1.5258925
1.5258964
1.5257849
1.5258771
1.5236064
1.5238808
1.5234616
1.524013
1.5234783
1.5236375
1.5231372
1.5233007
1.5244443
1.5248595
1.5243484
1.5249335
1.5239515
1.5243789
1.5244703
1.5240556
1.5247405
1.5252016
1.5247008
1.525232
1.5243154
1.5247409
1.5247662
1.5243461
1.5248675
1.5253069
1.5248088
1.5253481
1.5244265
1.5248511
1.5248927
1.5244786
1.52609
1.5260895
1.525459
1.5254813
1.5254614
1.525497
1.526076
1.5260748
1.5219359
1.5220306
1.5220698
1.5219879
1.5260597
1.5260739
1.5260795
1.5260806
1.5254323
1.5254587
1.5254636
1.525503
1.5261171
1.5261173
1.5219062
1.5220083
1.5220091
1.5219167
1.5261036
1.5260657
1.5249585
1.5254601
1.5249393
1.5254748
1.5249856
1.5245449
1.5245455
1.5249849
1.5249977
1.5254878
1.5249566
1.5255155
1.5218705
1.5219679
1.5219609
1.5218755
1.52199
1.5219667
1.5218821
1.521923
1.5260222
1.5260212
1.5254181
1.5254358
1.5253878
1.5253854
1.525963
1.5259389
1.5220422
1.5221273
1.5222166
1.5221391
1.5259443
1.5260135
1.5260152
1.5260141
1.5253983
1.525415
1.5253735
1.5254086
1.5259963
1.5259968
1.5219571
1.5220504
1.5220238
1.5219413
1.5259849
1.5260018
1.5219064
1.5219889
1.5219621
1.5218884
1.522145
1.5220636
1.5219887
1.5220808
1.5218296
1.5218997
1.5218784
1.5218137
1.521713
1.521741
1.5217359
1.5217043
1.52192
1.5218318
1.5217989
1.521889
1.521913
1.5219729
1.5220569
1.5219988
1.5218165
1.5219091
1.5218943
1.5218141
1.5217269
1.5217784
1.5217585
1.5217181
1.5217427
1.5217266
1.5216875
1.5217132
1.5218058
1.5218762
1.5218928
1.5218327
1.5210905
1.5211467
1.521376
1.5213397
1.5210025
1.5210412
1.5212072
1.5211966
1.5212751
1.5212548
1.5212557
1.5212867
1.5214375
1.5214597
1.5214791
1.5214663
1.5198931
1.5199736
1.519985
1.5199172
1.5209503
1.5209242
1.5209575
1.520992
1.5209069
1.5208593
1.5208612
1.520944
1.5210872
1.5209802
1.5209245
1.5210569
1.5210827
1.5211129
1.5211362
1.5211181
1.5211405
1.5211729
1.5211844
1.5211663
1.519935
1.5210118
1.5209865
1.5209846
1.5210363
1.5199465
1.5210216
1.5209806
1.5210143
1.5210801
1.521144
1.5211764
1.5212392
1.5212173
1.5200165
1.52002
1.5199573
1.5199839
1.5215136
1.5215406
1.5215395
1.5215204
1.5213273
1.5213258
1.5213383
1.5213438
1.5213847
1.521321
1.5213167
1.5213867
1.5214944
1.5215163
1.5215789
1.5215608
1.5199994
1.5200019
1.520096
1.5200965
1.520086
1.5202509
1.520189
1.5202695
1.5200737
1.5201307
1.5215825
1.5216172
1.5215966
1.5215714
1.5214066
1.5214113
1.5213921
1.5213953
1.5213314
1.5213353
1.5213735
1.5213737
1.5215246
1.5215411
1.521573
1.5215554
1.5210754
1.5210396
1.5210277
1.5210832
1.5212511
1.5212311
1.5212223
1.5212449
1.5210198
1.521009
1.5209893
1.5210747
1.5212325
1.521213
1.5211739
1.521154
1.5210297
1.5210241
1.5210714
1.5210827
1.5212969
1.521103
1.5211645
1.5212564
1.5213207
1.5213093
1.5214353
1.5214597
1.5212379
1.5212234
1.5212317
1.5212114
1.5213792
1.5213772
1.5213886
1.5213854
1.5214734
1.5214793
1.5215895
1.5215939
1.5217703
1.5216679
1.5216508
1.5217501
1.521575
1.5215699
1.5215527
1.521558
1.5299314
1.5299458
1.5237355
1.5237362
1.5237301
1.5237301
1.5237679
1.5237708
1.5237491
1.523748
1.5237333
1.5237402
1.5237381
1.5237315
1.5237541
1.5237783
1.5237747
1.5237516
1.5237598
1.5237564
1.5237875
1.5237858
1.5237988
1.5238
1.5237405
1.5237405
1.5237492
1.5237507
1.5237767
1.5237765
1.5237888
1.5237901
1.5237658
1.5237608
1.5237718
1.5237773
1.5237417
1.5237439
1.5237493
1.5237489
1.5237534
1.5237544
1.5237295
1.5237359
1.523742
1.5237353
1.5237484
1.5237712
1.5237794
1.5237555
1.5237823
1.5237816
1.5237569
1.5237579
1.5237368
1.5237437
1.5237428
1.5237358
1.5237411
1.5237482
1.5237402
1.5237412
1.5237467
1.5237473
1.5237465
1.523748
1.52375
1.5237502
1.523753
1.5237516
1.5240059
1.5240067
1.5239344
1.5239297
1.5251455
1.5249763
1.5242402
1.5248787
1.5248972
1.5242497
1.5243816
1.5244513
1.5253508
1.5251982
1.5249728
1.5248939
1.5242151
1.5248231
1.5248533
1.5242288
1.5240077
1.5240074
1.5239446
1.5239402
1.5238589
1.5238629
1.5238157
1.5238122
1.5237937
1.5237983
1.5237942
1.5237892
1.5238056
1.5238097
1.5238042
1.5237999
1.523825
1.5238714
1.5238676
1.5238207
1.5246633
1.5245817
1.5241038
1.5241415
1.5239204
1.5239608
1.5239362
1.5239822
1.5241721
1.524728
1.5247798
1.5241959
1.5239961
1.524004
1.5239471
1.5239447
1.5238031
1.5238063
1.5238112
1.5238144
1.5238132
1.5238534
1.523824
1.5238662
1.5238725
1.5238738
1.5238285
1.5238287
1.5238166
1.5238147
1.523811
1.5238134
1.5240116
1.5233035
1.5233348
1.5232863
1.5232307
1.5232874
1.5232331
1.523193
1.5232302
1.5231539
1.5232609
1.5233212
1.523273
1.5232705
1.5233221
1.5232674
1.5233194
1.5232713
1.5233204
1.5233721
1.5233733
1.5238226
1.5237917
1.5238136
1.5238548
1.5238297
1.5239117
1.5241903
1.524292
1.5239606
1.5240099
1.5243922
1.5244882
1.5240578
1.5239309
1.5238943
1.5238652
1.5238959
1.5236332
1.5238476
1.5235891
1.5237372
1.5236603
1.5235544
1.5236737
1.5235489
1.5239762
1.5238102
1.5240862
1.5238643
1.5237732
1.523731
1.5237135
1.5237546
1.5235266
1.5236187
1.5235987
1.5235155
1.5236998
1.523664
1.5236398
1.5236741
1.5235168
1.5236023
1.5235983
1.523515
1.5236398
1.5236437
1.5236771
1.5236741
1.5238325
1.5238043
1.5237698
1.5237945
1.5237709
1.5237355
1.523707
1.5237393
1.5237908
1.5237679
1.5237654
1.5237875
1.5237394
1.5237086
1.5237064
1.5237372
1.5236441
1.5236478
1.5236779
1.5236733
1.5236582
1.5236755
1.5237067
1.5236882
1.5236982
1.5237036
1.523723
1.5237171
1.5237143
1.5237341
1.5237557
1.5237345
1.5233841
1.5233838
1.5233299
1.5233302
1.5234902
1.5234915
1.5235526
1.5235507
1.523382
1.5233284
1.5233262
1.5233843
1.5234982
1.5235055
1.5235732
1.5235616
1.5235958
1.52361
1.5236431
1.5236271
1.5236163
1.523586
1.5235834
1.5236137
1.5234257
1.5234955
1.5235279
1.5234942
1.5235518
1.5235922
1.5233682
1.5234358
1.5234394
1.5233765
1.5235185
1.5235188
1.5235737
1.5235703
1.5235983
1.5236032
1.523631
1.5236258
1.5236362
1.523614
1.5236616
1.5236865
1.5236543
1.5236595
1.523687
1.5236823
1.5237094
1.5237281
1.5237072
1.523711
1.5237292
1.5237267
1.5240076
1.5238221
1.5215231
1.5213977
1.5214935
1.5217968
1.5234419
1.5234704
1.5238247
1.5255597
1.5235899
1.5239198
1.525799
1.5240321
1.5239559
1.5235027
1.5235864
1.5281913
1.52772
1.5273983
1.527831
1.5250805
1.5221713
1.5259701
1.5275457
1.527115
1.5276396
1.5281027
1.5291243
1.5294889
1.5242793
1.5243714
1.5243669
1.5242721
1.525861
1.5257911
1.5249696
1.5248862
1.5293235
1.5284761
1.5241322
1.524135
1.5245143
1.5245611
1.5241253
1.5241234
1.5240927
1.524058
1.5240966
1.524101
1.5240965
1.5241666
1.5241011
1.5241149
1.5240701
1.5241005
1.5241005
1.5241063
1.5241072
1.5241218
1.5241148
1.5241182
1.5241252
1.5242383
1.5240872
1.5241335
1.5241318
1.5240828
1.5240989
1.5240941
1.5241029
1.5241073
1.5241222
1.5241257
1.5241385
1.524136
1.5241104
1.5241175
1.5241342
1.5241278
1.5240795
1.5240879
1.5240902
1.5240981
1.5244517
1.5244567
1.5244092
1.524417
1.5243232
1.5243172
1.5243728
1.5243742
1.5241084
1.5240775
1.5240792
1.5241055
1.5240405
1.5240309
1.5239998
1.5240602
1.5240015
1.5240077
1.5240071
1.5240727
1.5240649
1.5240541
1.5239969
1.5239995
1.523993
1.5240033
1.5240175
1.524009
1.524013
1.5240202
1.5240165
1.5240179
1.5240262
1.5240263
1.5242734
1.524276
1.5243647
1.5243679
1.5241452
1.5241349
1.5241017
1.5241073
1.5240906
1.5241251
1.5240885
1.524118
1.5240541
1.524043
1.5240416
1.5240511
1.524066
1.5240794
1.5240666
1.5240793
1.5240377
1.5240523
1.5240394
1.5240521
1.5240447
1.5240315
1.5240356
1.5240473
1.5240594
1.5240629
1.5240739
1.5240723
1.5240301
1.5240349
1.5240242
1.5240397
1.5240314
1.5240284
1.5240416
1.5240403
1.5240765
1.5240596
1.5240561
1.5240704
1.524054
1.5240628
1.5240999
1.5240833
1.5239892
1.5239979
1.5239929
1.5239957
1.5240129
1.5240055
1.5240088
1.5240148
1.5240078
1.5240016
1.5240068
1.5240117
1.5239854
1.5239912
1.5239951
1.5239907
1.5240672
1.5241023
1.5240707
1.5240613
1.5241422
1.5241915
1.5242497
1.5243179
1.5240096
1.5237684
1.5238918
1.5239202
1.5239433
1.5241059
1.5241001
1.5240947
1.5240996
1.5241113
1.5241095
1.5241048
1.5241154
1.5240326
1.5240779
1.5240854
1.524088
1.5240792
1.5240633
1.5240015
1.5240324
1.524068
1.5240647
1.5240434
1.524044
1.5240643
1.5239645
1.5239028
1.5239433
1.523918
1.5239733
1.5239507
1.5240112
1.529826
1.5239474
1.5237718
1.5237714
1.5239181
1.5298545
1.5238085
1.5238126
1.5238078
1.5238113
1.5239405
1.5238916
1.5238124
1.5238079
1.5238122
1.5238077
1.523891
1.5239439
1.5238911
1.5239444
1.5267509
1.5267216
1.5262319
1.5264676
1.5240162
1.5265586
1.5264386
1.5263083
1.5261993
1.5261558
1.5260591
1.5263539
1.5264139
1.5262258
1.5263336
1.5241111
1.5248231
1.5249833
1.5241007
1.524121
1.5246201
1.5246846
1.5241298
1.5245284
1.5244493
1.5240982
1.525203
1.5249792
1.5240968
1.5240966
1.5240816
1.5241077
1.5246661
1.5247432
1.5240792
1.5240884
1.5240617
1.5240321
1.5254529
1.5257024
1.5241169
1.5245488
1.5244835
1.5248717
1.5246687
1.5242417
1.5244053
1.5243684
1.5242119
1.5243495
1.5242915
1.5245105
1.5242875
1.5242808
1.524517
1.5251143
1.525047
1.5243051
1.524553
1.5245247
1.5242983
1.5250324
1.5250774
1.525145
1.5251733
1.5246206
1.5243685
1.5242642
1.524312
1.5241684
1.5241574
1.5242314
1.5242196
1.5242107
1.5242191
1.5242126
1.5241894
1.524543
1.5242796
1.5242813
1.5245871
1.5246202
1.5242883
1.5242991
1.524644
1.5246445
1.5247766
1.5245393
1.5249734
1.5248947
1.5253146
1.5240768
1.5252787
1.5254485
1.5251609
1.5247372
1.5249358
1.5245883
1.5244207
1.5252381
1.526087
1.5253865
1.525179
1.5254453
1.5251929
1.5246401
1.5252957
1.5244909
1.5256826
1.5257218
1.5255792
1.5255083
1.5243422
1.5244101
1.5249982
1.5247858
1.5246537
1.524296
1.5243013
1.5245903
1.5251087
1.5251717
1.5252531
1.5253754
1.5245085
1.5243716
1.5242752
1.5241355
1.524254
1.524137
1.5243037
1.5243149
1.5241351
1.5243457
1.5243445
1.5242927
1.52433
1.5244214
1.5242602
1.5242335
1.5241103
1.5241554
1.5242202
1.5242001
1.5241572
1.524383
1.5244226
1.5241634
1.5241933
1.5242064
1.524518
1.5244645
1.5247577
1.52482
1.5250586
1.5250039
1.5249046
1.5246556
1.5249627
1.5247079
1.5243885
1.5244102
1.5244131
1.5242223
1.5241613
1.5242673
1.5243096
1.5241585
1.5241571
1.5243462
1.5246073
1.5245539
1.5247922
1.5248532
1.5244985
1.5244379
1.524655
1.5247316
1.5248053
1.5250934
1.5250719
1.524809
1.525063
1.5250299
1.5248392
1.5248401
1.5244962
1.5244926
1.5245464
1.5245334
1.5249998
1.5249557
1.5248339
1.5248491
1.5249118
1.5248483
1.5247849
1.5248303
1.5245807
1.5246098
1.5246545
1.5246158
1.5243674
1.5241495
1.524148
1.5242807
1.5242444
1.5243989
1.524463
1.5241552
1.5242162
1.5241799
1.524179
1.5245271
1.5243282
1.5245923
1.5243806
1.524873
1.5246425
1.5247157
1.5248454
1.5247152
1.5246183
1.5244552
1.5244282
1.5243694
1.5247683
1.5247506
1.5247424
1.5248007
1.5246075
1.524595
1.5245934
1.5245889
1.5242225
1.5241623
1.5241547
1.5242505
1.5241562
1.5241695
1.5242725
1.5243031
1.5241927
1.5242156
1.5243431
1.5245508
1.524448
1.5248375
1.5248705
1.5246945
1.5243201
1.524369
1.5247848
1.5247896
1.5248658
1.5247102
1.5246822
1.5249143
1.5243312
1.5243736
1.5243068
1.5245361
1.5240906
1.524046
1.524054
1.5245342
1.5243561
1.5243872
1.524476
1.5244247
1.524359
1.5243261
1.5242444
1.5240599
1.5244299
1.5244648
1.5245375
1.5244218
1.5244986
1.5243767
1.5245285
1.5245553
1.5245852
1.5245636
1.524642
1.5246275
1.5246082
1.5245864
1.5246712
1.524717
1.5247197
1.5246762
1.5245756
1.5244609
1.5245028
1.5246188
1.5246627
1.5245466
1.524601
1.5247206
1.5248153
1.5247598
1.5247571
1.5248028
1.5245478
1.5245974
1.5243899
1.5243248
1.5244673
1.5244738
1.5242207
1.5242274
1.5240671
1.5240672
1.5246218
1.5242636
1.5242677
1.5240581
1.5239401
1.5238544
1.5241199
1.5242683
1.5245144
1.5242257
1.5244821
1.5238329
1.5237938
1.5237945
1.5238213
1.5240651
1.5242627
1.5243356
1.524124
1.5237987
1.5237961
1.5238227
1.5238199
1.5240359
1.5240489
1.5238117
1.5238083
1.5238318
1.5238313
1.5239874
1.5239995
1.5238257
1.5238017
1.5238046
1.5238253
1.5240123
1.5240229
1.5239583
1.5239649
1.523957
1.5238358
1.5239509
1.5239503
1.5239634
1.5238362
1.5237979
1.5237953
1.5238283
1.5241611
1.5241698
1.5237939
1.5237935
1.523833
1.5238333
1.5243518
1.5242856
1.5243814
1.5241948
1.523828
1.523816
1.5238646
1.5239095
1.5245287
1.5244956
1.5243549
1.5241949
1.5238024
1.5238094
1.5238552
1.5238386
1.5241773
1.5241678
1.5234266
1.5234273
1.5234254
1.5234248
1.5234786
1.5234754
1.5235371
1.5235674
1.523593
1.5259369
1.5262203
1.5240118
1.5239859
1.5239695
1.5239914
1.5240316
1.523996
1.5239454
1.5239851
1.525375
1.5239455
1.5239475
1.5239964
1.5239082
1.5253114
1.5252473
1.5251083
1.5250721
1.5239598
1.5251777
1.5239504
1.5239144
1.5238886
1.5248789
1.5245237
1.5249667
1.5249943
1.5250338
1.5238967
1.523871
1.5239205
1.5239961
1.5239129
1.523875
1.5238522
1.5238718
1.524418
1.5245014
1.5238349
1.5238442
1.5239291
1.5239417
1.5242899
1.524566
1.5245406
1.5245437
1.5238409
1.523855
1.523873
1.5238572
1.5243051
1.5243558
1.521715
1.5217494
1.521498
1.5215388
1.5220076
1.5221825
1.5219599
1.5217755
1.5219589
1.5219712
1.5216926
1.5217283
1.5219995
1.5221493
1.5223186
1.5223961
1.5203403
1.5203189