/*--------------------------------*- C++ -*----------------------------------*\
  =========                 |
  \\      /  F ield         | OpenFOAM: The Open Source CFD Toolbox
   \\    /   O peration     | Website:  https://openfoam.org
    \\  /    A nd           | Version:  7
     \\/     M anipulation  |
\*---------------------------------------------------------------------------*/
FoamFile
{
    version     2.0;
    format      ascii;
    class       volScalarField;
    location    "3000";
    object      nut;
}
// * * * * * * * * * * * * * * * * * * * * * * * * * * * * * * * * * * * * * //

dimensions      [0 2 -1 0 0 0 0];

internalField   nonuniform List<scalar> 
33733
(
2.9307995e-20
1.7131822e-20
3.5974618e-20
9.6107461e-21
1.3770273e-20
2.1763528e-20
1.0435897e-20
1.0524533e-20
1.0234164e-20
1.1031065e-20
9.8409414e-21
1.4156575e-20
2.7590235e-20
1.7980813e-20
1.5111579e-20
1.2389339e-20
2.6691253e-20
1.0496607e-20
9.3666177e-21
2.1332147e-20
4.7892099e-20
1.0574237e-20
1.1183412e-20
1.1857535e-20
9.5094193e-21
2.4881492e-20
5.3925333e-21
1.0067535e-20
1.6515043e-20
8.9193848e-21
6.090516e-21
6.5572537e-21
9.4041763e-21
9.1233172e-21
8.5174733e-21
9.8681208e-21
9.7722246e-21
9.5092011e-21
1.0129084e-20
9.4841274e-21
5.5178309e-21
7.2627525e-21
2.0999055e-20
2.3231055e-20
1.423051e-20
1.0319041e-20
1.0158717e-20
9.9472444e-21
2.3805777e-20
1.8768367e-20
1.7766045e-20
1.4613967e-20
7.6987584e-21
6.2908756e-21
8.8282664e-21
9.1547574e-21
1.8297625e-20
2.2912698e-20
5.659476e-21
5.6144031e-21
7.611535e-21
5.9110967e-21
7.8902542e-21
1.0248959e-20
7.9145201e-21
1.9820748e-20
1.6987516e-20
9.3390077e-21
6.7935875e-21
1.2198097e-20
1.4289137e-20
4.3222526e-20
4.2552142e-20
3.8923613e-20
1.0986725e-20
8.6196819e-21
8.972585e-21
9.7160464e-21
1.0594415e-20
8.5872922e-21
7.0245901e-21
9.2291458e-21
1.02463e-20
4.3441707e-21
4.8243162e-21
2.7144584e-21
3.4491486e-21
4.6854477e-21
5.1562279e-21
4.4535889e-21
3.7622845e-21
5.5353671e-21
5.3434863e-21
5.5633195e-21
5.253257e-21
7.7494512e-21
8.0991788e-21
2.1259291e-20
2.308081e-20
2.0650332e-20
8.4158002e-21
9.5526224e-21
9.5586383e-21
1.10952e-20
1.213565e-20
1.3211796e-20
1.3793536e-20
1.0337037e-20
1.1164223e-20
1.1154521e-20
1.127437e-20
6.0814485e-21
5.2506369e-21
9.9025155e-21
1.0113473e-20
5.4619888e-21
5.902287e-21
1.0367475e-20
9.2045589e-21
5.7906141e-21
6.46429e-21
2.0969131e-20
1.5181284e-20
7.9892146e-21
6.7968467e-21
8.4121823e-21
6.600593e-21
4.0722117e-21
5.1297008e-21
3.0944888e-21
5.1784941e-21
4.709287e-21
4.6757e-21
2.3622681e-20
1.8854598e-20
5.6809475e-20
1.4747638e-20
1.2767956e-20
1.1858737e-20
1.1739435e-20
3.4519151e-20
5.145678e-20
3.0902195e-20
8.8804088e-21
9.2978023e-21
7.5231154e-21
7.8276056e-21
4.6346117e-21
5.7531368e-21
4.9591572e-21
4.4357912e-21
6.8806409e-21
2.5427507e-20
6.1309683e-21
1.1214385e-20
4.7205725e-21
2.5572133e-21
4.4250848e-21
4.3374467e-21
2.5953025e-21
5.8844898e-21
5.2669325e-21
2.5782224e-21
2.7415727e-21
5.5204151e-21
3.5947156e-21
3.8628548e-21
3.7794215e-21
5.0609117e-21
8.6602685e-21
5.3128731e-21
1.0106421e-20
4.7022021e-21
2.6465598e-21
4.7345595e-21
3.6742535e-21
4.9173397e-21
7.5109175e-21
5.7086359e-21
4.421853e-21
7.7881862e-21
6.2044803e-21
6.8475361e-21
7.4882863e-21
2.7438156e-20
2.7051409e-20
2.9545348e-20
3.3248659e-20
1.5741669e-20
2.1167863e-20
1.1793261e-20
1.670395e-20
8.3557407e-21
9.0755374e-21
1.1818908e-20
1.3610028e-20
1.461403e-20
9.2699611e-21
9.3642264e-21
1.3535112e-20
2.9556914e-20
2.914776e-20
3.5681999e-20
2.9115353e-20
3.2198548e-20
3.6789633e-20
2.923054e-20
2.4891238e-20
2.4727886e-20
2.6931055e-20
2.0777283e-20
1.9495543e-20
2.2073476e-20
6.8378217e-21
6.5673685e-21
7.3376106e-21
5.5514685e-21
5.4513131e-21
6.381786e-21
7.0798998e-21
5.3896075e-21
6.2870685e-21
5.3352523e-21
5.2039316e-21
5.2941927e-21
6.1690945e-21
4.3314618e-21
5.160892e-21
5.5580036e-21
1.1391687e-20
4.3215678e-21
7.1294507e-21
2.072971e-21
1.4981216e-21
1.9041418e-21
1.6973632e-21
2.5663986e-21
2.9486712e-21
3.6518239e-21
2.5187431e-21
2.2915916e-21
2.8179698e-21
3.9891343e-21
2.384491e-21
3.1060526e-21
3.7270874e-21
4.1453262e-21
3.0803579e-21
4.2836207e-21
4.4840862e-21
3.5997833e-21
4.0169823e-21
1.1012614e-20
1.1013352e-20
1.0650199e-20
1.0656171e-20
1.5704469e-20
1.6594947e-20
1.8469499e-20
1.8568727e-20
1.5105212e-20
1.5849873e-20
1.6287433e-20
1.7311988e-20
1.5461285e-20
1.5138163e-20
1.5854599e-20
1.1106341e-20
1.6778441e-20
1.558269e-20
1.2307146e-20
1.1110989e-20
1.1450975e-20
5.0692546e-21
9.1221304e-21
1.0172381e-20
5.6918081e-21
5.2454844e-21
5.6419423e-21
5.3898885e-21
1.0613921e-20
8.954372e-21
5.4385596e-21
1.5339848e-20
1.7545191e-20
1.0123757e-20
1.0527644e-20
1.0490614e-20
1.1508596e-20
1.0914533e-20
1.0749459e-20
1.1887391e-20
1.1598004e-20
8.5629913e-21
9.1472817e-21
9.9350423e-21
9.5654923e-21
9.0790067e-21
9.3660558e-21
1.016795e-20
1.0147509e-20
1.1515102e-20
1.1614815e-20
1.2021849e-20
1.2322738e-20
1.1906683e-20
1.1677481e-20
1.1689257e-20
1.1648951e-20
1.1895686e-20
1.0843687e-20
9.4883751e-21
1.1604075e-20
1.1122883e-20
9.8221681e-21
1.0087451e-20
1.1114157e-20
1.1173295e-20
3.6719348e-21
2.8190497e-21
2.7504477e-21
3.8478136e-21
6.1991876e-21
6.5409241e-21
5.0119725e-21
4.6208424e-21
5.0415719e-21
5.0001526e-21
2.8891183e-21
2.9723969e-21
5.0337502e-21
2.810419e-21
4.7346839e-21
2.858029e-21
4.4910483e-21
4.5618628e-21
4.5625768e-21
4.4187064e-21
6.0941016e-21
6.3738263e-21
4.5544883e-21
4.589705e-21
5.3696837e-21
5.2541612e-21
3.1313139e-21
3.2148217e-21
3.0044646e-21
5.3918636e-21
6.1373795e-21
3.5075239e-21
3.9802116e-21
3.0216518e-21
4.7363148e-21
4.0037423e-21
7.3582835e-21
6.5678734e-21
6.122829e-21
5.2078393e-21
4.5495635e-21
5.9076542e-21
4.916274e-21
5.2806872e-21
4.5764015e-21
5.1464252e-21
6.6195435e-21
5.5168039e-21
5.4654958e-21
2.8283204e-21
2.4139124e-21
1.6104314e-21
2.7216124e-21
2.2788408e-21
2.1972286e-21
3.0514956e-21
3.4445113e-21
4.1029379e-21
4.0377621e-21
3.0496883e-20
2.0166887e-20
9.1836727e-21
2.8961516e-20
2.2315666e-20
2.2602209e-20
4.3020074e-20
4.4059787e-20
3.5557716e-20
1.6708616e-20
1.3745591e-20
5.5010076e-21
1.5463781e-20
4.8762686e-21
1.6416435e-20
6.3003987e-21
6.5293048e-21
6.9280943e-20
1.8730449e-20
4.7950469e-20
1.4555031e-20
1.6203867e-20
1.8675417e-20
9.2627383e-21
9.9982874e-21
1.1368244e-20
1.0504091e-20
8.094265e-21
7.8852524e-21
6.4742763e-21
8.7910405e-21
6.0491242e-21
4.7817255e-21
8.1229696e-21
3.3678161e-21
4.1130946e-21
1.2065373e-20
3.1413966e-21
3.2021573e-21
6.0093127e-21
1.0851334e-20
4.6888372e-21
7.5391915e-21
7.5614324e-21
2.0374224e-21
1.9633907e-21
2.02054e-21
2.1465988e-21
1.7610658e-21
1.2915099e-21
1.322462e-21
1.8864523e-21
3.1884002e-21
5.2430397e-21
3.5192412e-21
2.0339178e-21
3.7515599e-21
3.4746487e-21
2.6934747e-21
2.6157694e-21
2.367989e-21
4.5130583e-21
2.3329908e-21
1.9871151e-21
5.6940771e-21
3.8652918e-21
1.1677631e-20
7.4674248e-21
8.283358e-21
5.1236633e-21
2.9912603e-21
3.1735636e-21
8.4006769e-21
7.4353742e-21
1.4679053e-20
1.317786e-20
8.8065541e-21
9.0368266e-21
3.3059504e-21
2.1652806e-21
1.7772043e-21
9.554051e-22
1.8794777e-21
1.6667016e-21
1.3382829e-21
1.8043379e-21
1.561699e-21
2.0578959e-21
2.9008996e-21
2.6529764e-21
3.2049602e-21
4.6862178e-21
3.6471052e-21
2.9402476e-21
4.0820694e-21
4.8271316e-21
4.4465834e-21
5.8737227e-21
4.5796222e-21
4.580499e-21
3.8338431e-21
3.7296382e-21
5.1164515e-21
6.0251351e-21
6.6284598e-21
7.1926383e-21
6.2215594e-21
6.3949076e-21
9.0368217e-21
8.3034268e-21
2.0906148e-20
2.1366821e-20
2.666743e-20
3.3606565e-20
1.4033982e-20
1.5204139e-20
2.7784139e-20
2.9516938e-20
2.1102582e-20
2.7685885e-20
1.5289811e-20
1.9596029e-20
2.3922908e-20
2.5791047e-20
1.756586e-20
1.864134e-20
8.7398589e-21
2.0497934e-20
9.398375e-21
1.8877286e-20
2.6188223e-20
1.6776397e-20
1.2994616e-20
1.9980889e-20
5.9829288e-21
5.9088752e-21
1.5295926e-20
1.4176577e-20
1.9768989e-20
2.037775e-20
1.2799386e-20
1.2964433e-20
5.3597965e-21
9.2515413e-21
8.6041598e-21
6.5809295e-21
6.1088706e-21
1.0459641e-20
4.0014654e-21
1.1728534e-21
6.8113366e-21
1.0724092e-20
1.0827413e-20
5.9150421e-21
1.0359757e-20
9.8913732e-21
5.431484e-21
6.7210853e-21
9.7519599e-21
8.0240682e-21
1.1540116e-20
1.013964e-20
8.2864182e-21
9.3696607e-21
1.0693569e-20
1.2562209e-20
6.7672075e-21
6.0460911e-21
5.705779e-21
6.0953858e-21
5.1249148e-21
5.4138864e-21
5.9187407e-21
6.3016487e-21
6.3528808e-21
5.7340739e-21
5.7036e-21
6.1024309e-21
9.3837893e-21
1.1346455e-20
9.0908817e-21
7.9853959e-21
8.0478618e-21
9.3580503e-21
7.0989951e-21
6.6114687e-21
5.1148918e-21
5.9533493e-21
5.8852144e-21
5.0690572e-21
5.1383979e-21
4.7478363e-21
4.9265195e-21
5.3204978e-21
5.0409707e-21
4.5860363e-21
4.5469675e-21
4.9905063e-21
4.134799e-21
3.9213708e-21
1.0236567e-20
1.2165379e-20
3.4442743e-21
3.8145664e-21
7.8810993e-21
4.178051e-21
4.1280008e-21
4.1937418e-21
4.852369e-21
4.8348484e-21
1.4999212e-20
1.6161952e-20
1.8613301e-20
1.8799176e-20
3.5651256e-21
3.5114487e-21
1.5109803e-20
1.5293111e-20
1.4664806e-20
1.1190463e-20
1.2352601e-20
1.2096785e-20
5.5473237e-21
6.0983953e-21
5.7231751e-21
1.2383889e-21
1.2617766e-21
1.0236878e-21
1.081426e-21
3.6095649e-21
2.3989478e-21
3.5125536e-21
3.7194453e-21
4.7666223e-21
5.222341e-21
8.3828926e-21
7.5952448e-21
1.6578316e-20
1.2897533e-20
1.219133e-20
1.0391521e-20
1.1536283e-20
1.1934798e-20
1.2297513e-20
1.0619711e-20
1.2108399e-20
1.0429178e-20
1.0949691e-20
1.2664142e-20
1.3087415e-20
1.2483365e-20
1.2121635e-20
1.3205687e-20
1.245007e-20
1.1672286e-20
1.2343769e-20
1.3559614e-20
1.3020725e-20
1.1375194e-20
1.1876776e-20
1.30361e-20
1.2833368e-20
1.586586e-20
1.5359191e-20
1.6496236e-20
1.5929752e-20
1.6123527e-20
1.5691145e-20
1.7522258e-20
1.6673702e-20
9.5501239e-21
1.033551e-20
1.0727956e-20
1.1426287e-20
1.1039779e-20
1.1687486e-20
1.2273206e-20
1.2787918e-20
1.3101027e-20
1.2857972e-20
1.451327e-20
1.3978222e-20
1.5423989e-20
1.4698954e-20
1.6451168e-20
1.5663419e-20
1.0934044e-20
1.1548511e-20
1.1613751e-20
1.2500276e-20
1.2238048e-20
1.0199369e-20
1.0734842e-20
1.0519449e-20
1.1623756e-20
1.1517801e-20
1.4272004e-20
1.3916483e-20
1.501507e-20
1.1837254e-20
1.189014e-20
1.1647623e-20
1.2563933e-20
1.3931846e-20
1.3712127e-20
1.3151079e-20
1.0824891e-20
1.1118844e-20
1.1634048e-20
1.2006733e-20
1.2180621e-20
1.512634e-20
1.4871589e-20
1.449811e-20
1.0763623e-20
1.1163928e-20
1.3159912e-20
1.1213803e-20
1.138004e-20
9.4214799e-21
1.0839144e-20
5.5725834e-21
5.5899223e-21
6.1035362e-21
4.7719974e-21
2.5980403e-21
4.9184791e-21
4.4596314e-21
2.8174249e-21
3.0150014e-21
2.8969156e-21
4.8143159e-21
4.7616902e-21
2.8461915e-21
2.6090685e-21
3.6384322e-21
3.7034569e-21
4.834019e-21
4.6950665e-21
4.6318885e-21
4.7504737e-21
2.6184489e-21
2.626045e-21
3.5264579e-21
3.7962636e-21
5.2237512e-21
5.3447046e-21
4.8043201e-21
4.43784e-21
4.5519548e-21
2.8702593e-21
5.162855e-21
2.9332296e-21
4.8388867e-21
4.4734373e-21
3.018796e-21
2.888076e-21
4.8583072e-21
5.0259106e-21
5.1374547e-21
4.7825181e-21
4.2348144e-21
4.147876e-21
7.5504609e-21
8.4484669e-21
8.1927346e-21
7.2841631e-21
8.1206737e-21
9.0576247e-21
8.0487702e-21
7.2955552e-21
7.2018944e-21
7.5534757e-21
7.0948694e-21
6.9131471e-21
7.8183037e-21
8.1678502e-21
7.7065873e-21
7.1433055e-21
6.5981351e-21
7.5602301e-21
7.4779048e-21
6.2378625e-21
7.3334005e-21
8.5032526e-21
7.4643692e-21
6.4804873e-21
7.6681812e-21
8.2770099e-21
6.8420188e-21
6.5262554e-21
7.4024354e-21
7.676431e-21
6.6914271e-21
6.6736492e-21
5.2263954e-21
5.4848262e-21
5.4895328e-21
5.3254275e-21
5.5334012e-21
5.7362922e-21
5.8239035e-21
5.6132502e-21
6.6867173e-21
5.9059396e-21
5.7808086e-21
6.3730269e-21
6.1661552e-21
6.3809371e-21
5.5912974e-21
5.4742175e-21
6.4624495e-21
5.8415053e-21
5.7266218e-21
6.1008419e-21
5.06418e-21
5.4545761e-21
5.5691903e-21
5.1922788e-21
5.8713795e-21
6.6310713e-21
5.9666981e-21
5.2220743e-21
5.9458381e-21
6.8941296e-21
7.3144474e-21
6.3463323e-21
7.8118875e-21
9.084368e-21
9.0356893e-21
8.1526551e-21
3.8994226e-20
3.877954e-20
8.8519217e-21
9.0231515e-21
7.910918e-21
7.8741043e-21
2.4400094e-20
8.2053722e-21
8.1704522e-21
7.7809971e-21
7.760838e-21
7.8878164e-21
7.9870562e-21
8.4453551e-21
7.8068727e-21
8.0537504e-21
9.0228393e-21
8.4702881e-21
7.6320301e-21
8.6391335e-21
8.6572118e-21
7.5536158e-21
7.7935061e-21
8.1902478e-21
7.7664225e-21
7.2987119e-21
7.5061319e-21
8.1852437e-21
8.1814664e-21
7.6820489e-21
7.4673808e-21
6.7588028e-21
6.1165785e-21
5.9600844e-21
6.1228939e-21
5.7526914e-21
6.0757667e-21
6.0301321e-21
5.7869217e-21
6.8972647e-21
7.1475752e-21
5.9477224e-21
6.1842263e-21
6.4629025e-21
5.970593e-21
6.3677948e-21
6.9625065e-21
5.9553672e-21
5.5877656e-21
6.0442759e-21
5.5936176e-21
5.8752158e-21
5.71469e-21
6.0230289e-21
5.7861687e-21
6.5665983e-21
5.9378391e-21
6.0602626e-21
6.6139454e-21
6.4042888e-21
5.7970503e-21
6.1225966e-21
6.7336229e-21
3.712975e-21
1.8761948e-21
1.2228278e-21
1.1934124e-21
1.9617873e-21
1.2080627e-21
1.2100903e-21
1.716693e-21
1.7710101e-21
4.632094e-21
3.8217685e-21
4.4845336e-21
4.2735905e-21
4.3740018e-21
4.0993663e-21
4.1900075e-21
4.8106941e-21
4.6937348e-21
4.6464072e-21
4.8270532e-21
4.577245e-21
4.507334e-21
4.2709258e-21
4.0180961e-21
4.2841024e-21
4.2024053e-21
3.0620352e-21
2.8927128e-21
3.3622271e-21
3.0556818e-21
2.8202863e-21
3.8296967e-21
3.0322236e-21
3.5397908e-21
2.6343926e-21
2.4566593e-21
2.7348665e-21
2.5344525e-21
2.6124909e-21
2.5513031e-21
2.4464247e-21
2.3477563e-21
3.5675735e-21
3.1546296e-21
2.9489846e-21
2.758122e-21
2.3203458e-21
2.2493426e-21
2.1765021e-21
2.06883e-21
3.9529912e-21
2.9942855e-21
2.9706326e-21
2.5955412e-21
2.2826782e-21
2.2707234e-21
2.264101e-21
2.1018772e-21
4.6706061e-21
5.3060392e-21
4.5495569e-21
4.2385466e-21
4.3044777e-21
3.9360961e-21
3.485068e-21
4.0314125e-21
4.7235356e-21
5.4242187e-21
4.6899562e-21
4.269745e-21
4.3275237e-21
3.7865319e-21
3.4772442e-21
4.0489848e-21
3.3648969e-21
3.9096307e-21
3.8706255e-21
3.7646221e-21
3.6311086e-21
3.688885e-21
4.202027e-21
4.112902e-21
3.9278953e-21
3.8052196e-21
3.9073986e-21
3.7841838e-21
4.1543654e-21
4.3047655e-21
4.0425001e-21
3.9808417e-21
1.3224773e-21
3.6532616e-21
3.9050783e-21
3.2611644e-21
3.3154189e-21
1.2839595e-21
3.5905618e-21
3.3593641e-21
2.8536132e-21
3.2444892e-21
2.4564425e-21
2.6269997e-21
2.5031357e-21
2.3929453e-21
2.531281e-21
2.6475241e-21
2.4815902e-21
2.333617e-21
1.7562942e-21
1.8538054e-21
1.4037477e-21
2.71222e-21
3.368037e-21
3.2424058e-21
3.0573957e-21
1.370419e-21
3.6730339e-21
3.437048e-21
3.0350147e-21
3.3470455e-21
2.4327434e-21
2.3684321e-21
2.3044801e-21
2.4263613e-21
2.9425304e-21
2.6909828e-21
3.0285166e-21
3.4448029e-21
1.6890041e-21
1.8974469e-21
4.620148e-21
3.7989827e-21
4.0154102e-21
5.0410971e-21
3.3268083e-21
3.2511813e-21
3.6684674e-21
3.7940912e-21
5.794785e-21
4.8784011e-21
4.483465e-21
5.2301756e-21
4.1655988e-21
4.265641e-21
3.9853851e-21
3.8971328e-21
4.7779472e-21
1.3055947e-21
1.410974e-21
2.5799486e-20
2.1839935e-20
9.4706961e-21
2.0756666e-20
8.140207e-21
1.7718978e-20
9.2623167e-21
2.0802585e-20
1.873891e-20
1.6627355e-20
4.0097499e-20
5.8471284e-20
3.8224064e-20
4.9482029e-20
3.5963462e-20
3.4729335e-20
9.2060164e-20
1.1245082e-19
4.873661e-21
3.9940794e-21
7.9306131e-21
8.1325349e-21
1.6847478e-20
8.2840112e-21
6.5537518e-21
4.1843903e-21
4.2356826e-21
1.7338129e-20
1.2319807e-20
9.5806188e-21
1.0499075e-20
1.2605577e-20
6.1041514e-21
6.0665686e-21
7.0264284e-21
7.0644173e-21
2.9221691e-20
2.6831081e-20
1.7081463e-20
1.9299959e-20
1.4278536e-20
1.3258031e-20
1.4507561e-20
5.8060878e-20
2.2900246e-20
2.170374e-20
1.9745525e-20
1.1599161e-20
1.3832087e-20
1.1934922e-20
1.091261e-20
1.333374e-20
1.5122543e-20
1.4160988e-20
1.3246438e-20
1.6606408e-20
1.5247108e-20
1.3696874e-20
1.4208116e-20
4.5320412e-21
4.2729288e-21
5.4596097e-21
3.7708131e-21
5.1883809e-21
4.6063334e-21
5.3080699e-21
4.5708541e-21
8.3288599e-21
9.5045913e-21
5.6583954e-21
2.5050229e-21
4.4637217e-21
2.6175628e-21
3.3762123e-21
4.4224529e-21
4.3629548e-21
7.479282e-21
3.365236e-21
3.5387226e-21
2.6683234e-21
3.4959512e-21
3.2168779e-21
3.2894361e-21
3.8695791e-21
1.1177438e-20
3.7235866e-21
3.8652743e-21
5.4158638e-21
4.5412826e-21
7.6979317e-21
1.0958672e-20
6.0443647e-21
7.4629166e-21
7.1546476e-21
7.5479733e-21
3.159925e-21
3.6464276e-21
2.8353032e-21
2.4134436e-21
1.1160097e-21
1.1012921e-21
1.1721958e-21
1.1930566e-21
9.0269432e-22
6.689074e-22
8.711146e-22
8.2855248e-22
2.6069528e-21
3.770344e-21
3.8534462e-21
3.397476e-21
1.6904896e-21
2.7201864e-21
2.0853476e-21
3.9799773e-21
1.5025862e-21
1.2193289e-21
1.9818309e-21
2.1085468e-21
3.7991128e-21
4.0079277e-21
2.1593575e-21
5.388878e-21
2.7307989e-21
2.7236822e-21
5.4162868e-21
3.2723132e-21
1.8614151e-21
3.9037493e-21
2.1223685e-21
4.9059251e-21
7.5575478e-21
6.3229503e-21
4.048001e-21
3.6800567e-21
4.0991953e-21
3.3737507e-21
4.344392e-21
5.623537e-21
3.6757321e-21
3.7059566e-21
6.2935658e-21
2.0661247e-21
3.0493831e-21
3.4018825e-21
2.1764484e-21
2.0681692e-21
3.630428e-21
3.1013221e-21
2.4586022e-21
2.9189546e-21
3.0050837e-21
3.8101872e-21
3.378733e-21
5.7588753e-21
4.9924438e-21
6.7763226e-21
8.2564059e-21
6.4382893e-21
3.5897098e-21
6.3748715e-21
4.093406e-21
5.1282403e-21
8.1659532e-21
7.1627165e-21
4.5339457e-21
5.1595213e-21
8.1471641e-21
6.6697177e-21
4.1784019e-21
3.7959193e-21
4.0322472e-21
5.4944322e-21
3.1845166e-21
5.5670137e-21
4.2362552e-21
3.707862e-21
5.4747222e-21
9.3378648e-22
7.0159485e-22
1.0134557e-21
1.2604472e-21
7.5289242e-22
1.5492767e-21
1.6892267e-21
1.5417176e-21
1.2372874e-21
2.1275384e-21
1.6192537e-21
1.4198927e-21
1.9180404e-21
4.9053625e-22
6.6852674e-22
5.4819675e-22
1.160872e-21
1.1710247e-21
8.3040694e-22
1.0309719e-21
9.6216234e-22
7.0329384e-22
7.700341e-22
1.5414428e-21
1.9129116e-21
1.3524816e-21
7.1405342e-22
1.9760525e-21
1.9585379e-21
2.8765476e-21
2.0066127e-21
1.6049342e-21
2.2469591e-21
2.9685314e-21
3.7095097e-21
3.6748709e-21
2.7581982e-21
2.5423046e-21
2.1972256e-21
2.5728256e-21
2.7371713e-21
1.9707866e-21
1.5264391e-21
1.2166899e-21
1.5308429e-21
6.6186273e-21
1.055701e-20
7.2280606e-21
1.0757287e-20
5.9054118e-21
5.2357148e-21
5.0311541e-21
9.251124e-21
8.7518947e-21
6.6858374e-21
6.4315461e-21
7.0911589e-21
8.1763952e-21
6.9810086e-21
6.0292461e-21
8.3661007e-21
8.3961941e-21
4.5757518e-21
5.2644907e-21
7.3802586e-21
7.3050643e-21
5.7409624e-21
8.2906474e-21
8.8756459e-21
1.0694715e-20
9.6505328e-21
8.4354115e-21
8.7498288e-21
6.7534515e-21
9.8435266e-21
1.1490675e-20
8.0038422e-21
6.1523478e-21
5.3130093e-21
6.1708938e-21
6.6599384e-21
9.4061152e-21
6.046027e-21
7.8074551e-21
5.0549445e-21
7.5080341e-21
6.1786246e-21
6.9601334e-21
9.2136866e-21
7.3932484e-21
6.4818222e-21
8.0285912e-21
8.0422794e-21
1.0199383e-20
6.9518376e-21
5.7823191e-21
9.1912453e-21
1.0842567e-20
7.616561e-21
6.5677151e-21
4.2010748e-21
4.2981857e-21
5.0973519e-21
4.9134401e-21
4.8783194e-21
5.4162055e-21
5.2234134e-21
4.6848102e-21
3.9719362e-21
3.5103668e-21
9.2470722e-21
1.0421477e-20
1.105149e-20
4.2153676e-21
9.8864835e-21
3.7619624e-21
4.5566589e-21
5.490147e-21
5.1625788e-21
4.3607355e-21
5.1377029e-21
5.6527114e-21
5.0540413e-21
4.7026779e-21
3.6552401e-21
4.4387051e-21
9.2710022e-21
8.3819221e-21
4.2509054e-21
4.7414538e-21
6.1311979e-21
8.6668852e-21
5.8157942e-21
5.6116737e-21
6.9022358e-21
6.3008913e-21
9.1106101e-21
9.9454882e-21
9.0871154e-21
7.8427025e-21
7.4751948e-21
6.6416756e-21
6.2086501e-21
5.510366e-21
8.5169427e-21
1.0655645e-20
6.6645819e-21
8.4589525e-21
5.6343062e-21
7.5034449e-21
6.1645371e-21
4.8931435e-21
7.7885455e-21
4.5113913e-21
3.8042654e-21
6.8637826e-21
8.2932605e-21
4.1492478e-21
3.3943585e-21
4.8106725e-21
4.9626242e-21
6.0870068e-21
4.0585758e-21
4.849185e-21
4.1093257e-21
3.4791929e-21
1.7337401e-21
4.6814846e-21
4.2110312e-21
4.6259581e-21
6.1373747e-21
4.4639634e-21
8.9480792e-21
6.2669062e-21
4.7900531e-21
7.5413597e-21
8.6925611e-21
7.0982998e-21
6.5456162e-21
6.9960002e-21
6.2386042e-21
7.5859941e-21
5.6396074e-21
4.6294965e-21
5.3424506e-21
8.3019872e-21
7.0630704e-21
4.9974939e-21
3.879231e-21
4.7884688e-21
6.6921454e-21
5.9582087e-21
3.9299993e-21
4.0767888e-21
4.2954425e-21
6.3331107e-21
6.3512342e-21
6.763606e-21
8.6694159e-21
2.9983639e-21
2.694774e-21
9.4147442e-21
4.4805544e-21
7.5003793e-21
7.6695357e-21
8.1364525e-21
8.5955177e-21
5.2836246e-21
5.1523277e-21
1.2374414e-20
1.1156832e-20
1.0218853e-20
9.143377e-21
1.2006179e-20
9.0847863e-21
9.2102886e-21
7.7369585e-21
5.6001499e-21
6.1875979e-21
5.306449e-21
6.3185824e-21
5.7495231e-21
7.405559e-21
6.092755e-21
5.4381859e-21
4.9765686e-21
5.3598254e-21
1.0030897e-20
1.0297858e-20
9.8243386e-21
8.6090828e-21
8.3335297e-21
1.015872e-20
8.8478514e-21
6.9089402e-21
4.8027511e-21
5.3838275e-21
5.1257621e-21
4.6914172e-21
5.6755896e-21
5.266009e-21
6.4542315e-21
7.0483302e-21
6.8367252e-21
6.259809e-21
5.9371189e-21
7.8799719e-21
8.0545896e-21
6.3777428e-21
6.4041623e-21
7.4342606e-21
4.1469054e-21
4.5763638e-21
2.9054703e-21
5.9275839e-21
7.1951245e-21
5.6752558e-21
8.249918e-21
6.1561399e-21
2.0904759e-20
3.0079025e-21
6.6592335e-21
2.1718687e-20
3.2643533e-21
3.745301e-21
2.2066966e-20
3.2315224e-21
3.6763681e-21
2.2536373e-20
3.1965406e-21
3.6782075e-21
3.8525733e-21
4.1098652e-21
4.4499834e-21
4.2094652e-21
5.9638789e-21
5.9478405e-21
1.8686744e-21
1.9085843e-20
3.633438e-21
3.2603359e-21
1.9313673e-20
5.5043538e-21
3.193156e-21
1.5660048e-20
8.2107605e-21
2.9355096e-21
1.7171716e-20
3.5743171e-21
3.0238239e-21
3.5702542e-21
5.3501404e-21
4.8028319e-21
4.6594711e-21
1.6987607e-21
1.6896002e-21
2.5798724e-21
1.9226488e-21
2.5247078e-21
3.706035e-21
2.3741124e-21
2.5284224e-21
6.529463e-21
2.8778592e-21
3.0470145e-21
2.2508668e-21
3.987984e-21
8.2335554e-21
8.6143396e-22
4.3650565e-21
9.9594869e-21
1.1062035e-20
2.8552403e-21
4.9442319e-21
1.3556008e-20
2.8746189e-21
3.7198042e-21
1.3857285e-20
2.9242381e-21
3.705854e-21
1.5538728e-20
1.6721866e-20
1.1070784e-20
1.186049e-20
1.3244745e-20
1.2543031e-20
8.623046e-21
8.6680964e-21
7.94119e-21
8.3279345e-21
8.1320437e-21
7.5451069e-21
6.8287149e-21
7.5666923e-21
6.9065716e-21
7.5991722e-21
8.3877615e-21
7.5346928e-21
9.4779e-21
8.8892258e-21
8.0386572e-21
8.5245976e-21
5.7917743e-21
6.7444312e-21
7.2350857e-21
6.3064144e-21
6.2143983e-21
6.1742742e-21
6.532774e-21
6.6092716e-21
6.1215393e-21
6.5967769e-21
6.3809462e-21
6.5235391e-21
6.5865882e-21
7.0430852e-21
7.4538557e-21
6.7112789e-21
6.2595318e-21
6.5601256e-21
6.3522292e-21
6.7019797e-21
6.3464116e-21
6.1315647e-21
6.1388625e-21
6.5406452e-21
6.5158726e-21
7.0516897e-21
7.3160087e-21
6.6629488e-21
6.7304002e-21
7.0563186e-21
7.8858303e-21
7.1042712e-21
8.5433366e-21
9.5917234e-21
9.5574932e-21
8.6214692e-21
8.1134599e-21
8.5072814e-21
8.5745518e-21
8.2056711e-21
8.8757025e-21
8.4136678e-21
7.958442e-21
8.5903931e-21
8.4688052e-21
9.3341467e-21
1.0046478e-20
9.1242334e-21
4.4060831e-20
4.2579169e-20
3.0438062e-20
3.0233556e-20
3.4217039e-20
3.4310414e-20
4.9467813e-20
4.671552e-20
2.6560542e-20
2.6406292e-20
4.2333926e-20
4.2561383e-20
2.9977708e-20
3.0662398e-20
3.2557239e-20
3.2549196e-20
4.6976871e-20
4.5150327e-20
2.6906645e-20
2.6019794e-20
2.7632065e-20
2.8117748e-20
2.2832992e-20
2.2233341e-20
2.2615713e-20
1.7283837e-20
1.7717131e-20
2.2990718e-20
2.3411326e-20
2.8337817e-20
2.2951493e-20
2.8511628e-20
2.3592514e-20
1.798688e-20
2.3835222e-20
1.8223046e-20
2.8172169e-20
2.8273201e-20
2.2861413e-20
2.3069298e-20
2.318014e-20
1.7717772e-20
1.7786644e-20
2.3273482e-20
2.899931e-20
2.9113044e-20
2.4197626e-20
2.3991455e-20
2.4694952e-20
2.4658812e-20
1.8864491e-20
1.9051591e-20
3.5308876e-20
3.5448075e-20
2.4346107e-20
2.5032927e-20
2.9078472e-20
2.9282287e-20
4.2268688e-20
4.1215018e-20
2.2381779e-20
2.395965e-20
4.2964193e-20
4.1646994e-20
3.0103031e-20
3.0133314e-20
3.2540078e-20
3.2420393e-20
4.6666776e-20
4.4940258e-20
2.4859991e-20
2.6183778e-20
1.8653317e-20
2.2575283e-20
1.8024015e-20
2.3086902e-20
1.8207158e-20
1.875476e-20
1.4011273e-20
1.4343885e-20
2.0600381e-20
2.4723792e-20
1.9950751e-20
2.514861e-20
1.5494069e-20
2.0397918e-20
2.0944742e-20
1.5962844e-20
2.2054212e-20
2.662385e-20
2.1607059e-20
2.6858274e-20
1.6535486e-20
2.1751036e-20
2.1835539e-20
1.6693895e-20
2.3095411e-20
2.7865542e-20
2.2761893e-20
2.7892465e-20
1.7783968e-20
2.3346589e-20
2.3472009e-20
1.7925954e-20
4.1235137e-20
4.10918e-20
2.9509353e-20
2.9764503e-20
3.1656978e-20
3.1370708e-20
4.4764583e-20
4.3311786e-20
8.3106583e-21
9.1002494e-21
9.6367963e-21
8.5369117e-21
2.5922597e-20
2.6297332e-20
3.8713662e-20
3.9146139e-20
2.7432067e-20
2.8057346e-20
3.0588614e-20
3.053129e-20
4.3866595e-20
4.2738165e-20
7.4752638e-21
8.5274989e-21
8.6682691e-21
7.7310477e-21
2.5621555e-20
2.4361864e-20
2.1028806e-20
2.5483939e-20
2.0409601e-20
2.5928838e-20
2.0641111e-20
1.5795901e-20
1.6152786e-20
2.0967236e-20
2.1879407e-20
2.6494668e-20
2.1367524e-20
2.6668665e-20
7.5644042e-21
8.0989298e-21
8.1433387e-21
7.6612848e-21
8.3559631e-21
8.5368996e-21
7.9234801e-21
8.2165965e-21
4.3005948e-20
4.1611154e-20
3.0666665e-20
3.0421998e-20
3.4016874e-20
3.4776639e-20
4.8088202e-20
4.746652e-20
9.0095343e-21
9.9180102e-21
1.0685096e-20
9.3711601e-21
2.8583451e-20
2.74368e-20
4.0092208e-20
3.9828284e-20
2.8440717e-20
2.8709686e-20
3.08384e-20
3.0520902e-20
4.3670015e-20
4.2144044e-20
7.9716809e-21
9.0879202e-21
9.0199679e-21
8.0153034e-21
2.5582853e-20
2.493201e-20
8.2588923e-21
8.7323581e-21
8.6297599e-21
8.176549e-21
9.4833827e-21
9.520512e-21
8.6795442e-21
9.1294947e-21
6.7223377e-21
8.2684364e-21
7.785756e-21
6.7985143e-21
7.0671886e-21
6.3032725e-21
6.1526525e-21
6.3919328e-21
6.7749082e-21
6.6682802e-21
6.8472122e-21
7.0311372e-21
7.2155066e-21
7.9087113e-21
8.1110814e-21
7.3566696e-21
6.0650197e-21
6.9870836e-21
6.9986452e-21
6.1867214e-21
6.3129799e-21
6.1906915e-21
6.1842294e-21
6.2900229e-21
5.8442142e-21
6.3390303e-21
6.0810086e-21
6.241045e-21
6.3910658e-21
6.7441316e-21
7.0519666e-21
6.4254049e-21
4.8758121e-21
5.8933964e-21
5.5529873e-21
5.0216182e-21
6.1842523e-21
4.9273986e-21
4.8530146e-21
5.2594539e-21
4.3002648e-21
4.8510534e-21
4.8368048e-21
5.1444276e-21
4.8310064e-21
4.5035875e-21
4.8956512e-21
4.7589585e-21
1.0860582e-21
1.7036905e-21
1.7060572e-21
1.132524e-21
3.3983991e-21
3.3915031e-21
2.8330476e-21
2.9640698e-21
3.6791424e-21
2.2259271e-21
2.9590716e-21
2.9958144e-21
2.3445961e-21
2.32136e-21
2.5861015e-21
2.5229705e-21
2.8012316e-21
2.5455859e-21
2.6316669e-21
2.6621381e-21
2.5449346e-21
2.3855955e-21
2.2622355e-21
2.214455e-21
1.1497886e-21
2.6522579e-21
3.2419466e-21
4.046936e-21
3.4097696e-21
1.1381252e-21
3.2769028e-21
2.8529688e-21
3.0782067e-21
2.9114889e-21
2.3276911e-21
2.1446689e-21
2.3396184e-21
2.3823383e-21
1.6464128e-21
1.6185086e-21
3.0593275e-21
3.634805e-21
5.0523124e-21
5.5170956e-21
5.1167889e-21
4.7958784e-21
4.4382213e-21
3.7905243e-21
3.8232215e-21
4.5251128e-21
4.2450057e-21
4.2360333e-21
4.6074284e-21
4.895972e-21
4.9185424e-21
5.0237635e-21
5.1853295e-21
4.995553e-21
1.1475404e-21
1.1564192e-21
1.6807241e-21
1.6676452e-21
1.1568274e-21
1.1492709e-21
1.6299102e-21
1.6962249e-21
3.8223714e-21
3.7580349e-21
4.7610437e-21
5.6114933e-21
4.6240216e-21
4.6152202e-21
5.8101424e-21
4.4993451e-21
4.796945e-21
4.5908763e-21
4.1212163e-21
4.5359662e-21
5.3773792e-21
4.3036e-21
4.6027061e-21
4.5763101e-21
4.7836588e-21
4.2355338e-21
2.5778249e-21
3.0998306e-21
3.9812265e-21
3.3051407e-21
2.3597876e-21
2.383309e-21
2.4832313e-21
2.3309938e-21
3.3878102e-21
3.0595663e-21
2.7312969e-21
2.9395743e-21
2.1605264e-21
2.2826042e-21
2.3179753e-21
2.239175e-21
3.6655325e-21
3.4466007e-21
3.1989266e-21
3.4589623e-21
2.9492641e-21
3.7513345e-21
3.2489281e-21
3.1662767e-21
2.436106e-21
2.5133466e-21
2.6214683e-21
2.5247719e-21
2.340827e-21
2.399328e-21
2.4111761e-21
2.4533648e-21
4.3082025e-21
4.7304261e-21
4.9541003e-21
4.2448783e-21
4.5185957e-21
5.0532605e-21
5.3169265e-21
4.6642619e-21
5.6489037e-21
5.4630741e-21
5.1394201e-21
5.1685739e-21
5.1205782e-21
5.1246553e-21
4.8672665e-21
4.7619943e-21
4.7240668e-21
4.4409597e-21
2.720368e-20
2.6761205e-20
2.6188508e-20
2.6774471e-20
2.8511819e-20
2.7470753e-20
2.558924e-20
2.651546e-20
2.2034946e-20
2.2482655e-20
2.280146e-20
2.2745605e-20
2.2780335e-20
2.3071185e-20
2.3710405e-20
2.2892571e-20
2.1572509e-20
2.1967748e-20
3.757126e-21
4.2939858e-21
5.042515e-21
4.5530824e-21
2.6048008e-20
2.6310183e-20
2.2662762e-20
2.3281093e-20
4.5593165e-21
5.1595285e-21
6.0604821e-21
5.6095814e-21
5.2008225e-21
5.3995944e-21
6.2970311e-21
6.2960299e-21
2.3360883e-20
2.3513324e-20
1.9282182e-20
2.0146599e-20
2.0394587e-20
1.9086295e-20
1.3367767e-20
1.375331e-20
1.4741117e-20
1.4582781e-20
1.3501719e-20
1.4180943e-20
1.5428441e-20
1.48751e-20
1.8912489e-20
1.916915e-20
1.8806036e-20
1.7994318e-20
1.7830567e-20
1.8455191e-20
1.8489983e-20
1.8314283e-20
1.3957412e-20
1.4195185e-20
1.1798479e-20
1.3559228e-20
1.4579588e-20
1.3023073e-20
1.8752497e-20
1.838433e-20
1.5615152e-20
1.6280966e-20
1.6746183e-20
1.7217888e-20
2.6654965e-20
2.7893056e-20
2.7281884e-20
2.8108581e-20
3.5981644e-20
3.4599303e-20
2.6349997e-20
2.6430945e-20
2.6801e-20
2.7043024e-20
5.5209531e-21
6.4625861e-21
6.0531995e-21
5.0963094e-21
6.081744e-21
4.9886065e-21
2.2709981e-20
2.281622e-20
2.3083236e-20
2.3288745e-20
2.3967634e-20
2.2849859e-20
2.4217587e-20
2.4151441e-20
2.9000995e-20
2.8037527e-20
2.6643862e-20
2.7588668e-20
2.7002936e-20
2.7444855e-20
2.769005e-20
2.7874862e-20
2.3910066e-20
2.3049975e-20
2.3567427e-20
2.3912724e-20
2.3431719e-20
2.366316e-20
2.4244493e-20
2.3696359e-20
1.6845525e-20
1.500007e-20
1.445204e-20
1.5561447e-20
1.4463936e-20
1.5214026e-20
1.5983867e-20
1.5648736e-20
1.8830478e-20
2.014659e-20
1.8735629e-20
1.938396e-20
1.8502622e-20
1.8997436e-20
2.0001904e-20
1.9301243e-20
1.4855366e-20
1.4626663e-20
1.6195251e-20
1.5120042e-20
1.4253842e-20
1.495465e-20
1.5911805e-20
1.546799e-20
1.9205984e-20
1.9720981e-20
1.94526e-20
1.867803e-20
1.8855281e-20
1.9184189e-20
1.967106e-20
1.9115619e-20
4.8643763e-21
2.5546985e-21
3.5961979e-21
1.1437595e-21
1.1849853e-21
1.1075511e-21
1.1571999e-21
1.0484204e-21
1.1057376e-21
1.1060714e-21
1.1298644e-21
1.0919326e-21
1.1958387e-21