/*--------------------------------*- C++ -*----------------------------------*\
  =========                 |
  \\      /  F ield         | OpenFOAM: The Open Source CFD Toolbox
   \\    /   O peration     | Website:  https://openfoam.org
    \\  /    A nd           | Version:  7
     \\/     M anipulation  |
\*---------------------------------------------------------------------------*/
FoamFile
{
    version     2.0;
    format      ascii;
    class       surfaceScalarField;
    location    "3000";
    object      phi;
}
// * * * * * * * * * * * * * * * * * * * * * * * * * * * * * * * * * * * * * //

dimensions      [0 3 -1 0 0 0 0];

internalField   nonuniform List<scalar> 
100464
(
-6.2312329e+14
1.4983577e+16
1.2878245e+16
-2.79225e+17
-7.1284785e+15
-4.4727389e+15
-6.0863184e+16
-1.7507672e+15
2.6459777e+15
3.6518333e+15
-2.8192437e+15
1.6284081e+16
-7.5317305e+15
-2.7154735e+17
-7.7443597e+15
1.47217e+16
-7.4935179e+14
-4.2882816e+16
-7.8704373e+13
2.904277e+15
2.430605e+15
-2.9389092e+15
-1.9217538e+15
-3.570691e+16
3.3945458e+15
-2.394481e+15
-6.4703156e+15
1.649083e+16
1.2989519e+16
-4.3133647e+15
-5.4017173e+13
2.0163733e+14
-5.2984872e+16
-1.7186882e+15
2.9647896e+15
-1.1123379e+15
2.6922119e+15
1.939308e+15
-4.9405744e+16
-4.4648736e+16
2.2151779e+15
-2.0736708e+15
2.1444755e+15
2.6969223e+15
-3.1645524e+15
-1.2839566e+15
2.4573193e+15
1.2535479e+15
-2.0357821e+15
-5.5236047e+16
2.7229957e+15
-4.5693028e+16
-3.5120374e+14
2.3584156e+15
-1.8987441e+15
-2.9569167e+15
3.1277252e+15
1.0370787e+16
-1.0390228e+14
2.3743142e+15
-1.4550267e+16
1.5831239e+14
9.4690798e+13
-2.0800435e+15
4.121597e+14
-1.1138082e+16
-4.885379e+14
-1.397846e+16
4.0577316e+14
-1.5845171e+14
2.4582471e+15
-1.5057443e+15
-5.5679981e+16
3.0178177e+15
-2.1304273e+15
1.6452204e+16
-7.432415e+15
-7.4168849e+15
1.6754155e+16
4.1635486e+16
-5.1724667e+16
3.3439624e+15
-1.8498421e+15
2.8918299e+15
-1.9979247e+15
-3.0597304e+15
2.9760228e+15
2.8016975e+15
-3.1866793e+15
-7.9682493e+13
-1.473297e+16
4.9351078e+14
-5.5309359e+14
-7.7177121e+14
6.5631665e+14
-1.363799e+16
-6.9197661e+14
6.9695415e+14
-6.5231348e+14
-1.1998543e+13
-1.1090327e+16
-6.0613207e+13
-7.1378741e+14
-5.6304929e+14
6.3701878e+14
4.8181974e+14
-9.6839699e+15
2.1583641e+14
1.4293674e+14
-1.3666253e+16
-1.6396003e+14
5.9224908e+14
-8.1485417e+14
-5.9356177e+14
4.742147e+14
-1.3528989e+16
-7.4656023e+12
4.0837074e+16
4.3683266e+14
-3.5139312e+14
-4.5597739e+16
-1.7950649e+15
-1.2992281e+15
3.9700048e+13
-5.5446934e+14
3.7481973e+15
2.9680387e+15
-5.5918833e+14
-3.152302e+16
4.2926726e+15
1.5331764e+15
-4.4308636e+16
1.0143638e+16
-9.7682549e+13
-4.799177e+12
-1.1959096e+16
-5.8344283e+14
-3.9104839e+14
6.0636555e+14
5.6738627e+14
-1.1984525e+14
-6.1235161e+13
-8.267351e+14
5.4908409e+14
-5.6614166e+14
4.6705258e+14
8.8462655e+15
1.9997604e+14
-1.1540214e+16
3.4696341e+14
1.5863061e+15
-4.2739396e+16
2.740125e+15
2.6855509e+15
-3.3966623e+15
-3.2047201e+15
-4.3507457e+16
2.0178651e+15
2.7238599e+15
2.7446066e+15
-3.2538566e+15
-3.2834146e+15
-6.4678279e+14
1.047477e+15
-5.5404323e+16
2.9083559e+15
-1.9027944e+15
-1.9216316e+15
3.1093006e+15
2.8519397e+15
-2.0656069e+15
-1.9267806e+15
-5.3776597e+16
2.8190629e+15
-1.1029063e+16
-5.5584008e+14
4.7293466e+14
3.643647e+13
-7.5185866e+14
5.7195537e+14
-1.369511e+16
-5.7952405e+14
4.6982745e+14
-1.0188247e+14
5.4346316e+14
-8.3785157e+14
1.0160596e+16
-3.7882628e+14
5.5532487e+14
-8.9752731e+13
6.0044979e+14
-5.9992671e+14
-1.2083666e+16
-4.2092057e+16
2.6193381e+15
-1.0536486e+15
2.5992991e+15
3.4790084e+15
-9.8354244e+14
-5.5889269e+14
4.5596816e+14
-3.3789874e+13
-8.4296505e+14
5.1512687e+14
-4.6587769e+16
-4.378257e+15
1.5443969e+15
-3.2412962e+15
2.7217941e+15
-5.5994995e+16
4.5119334e+15
-1.0278041e+16
-6.8388725e+13
-1.9421228e+15
9.6706436e+13
-1.413921e+14
-1.4439041e+16
2.4835528e+15
-7.9895543e+13
1.0743659e+16
-1.3225492e+16
-6.0166666e+14
-1.4803569e+13
-3.8181234e+14
2.0635171e+14
1.1310292e+16
-2.4264357e+14
-1.4199748e+16
4.9116517e+13
2.883041e+14
4.4673792e+14
-5.4717967e+14
-1.2988639e+16
3.568897e+14
-8.0205689e+14
5.29657e+14
-9.9660184e+15
7.5718312e+13
-2.197403e+15
1.0691519e+14
1.1984362e+14
1.6325451e+15
-1.0420757e+14
-1.3119936e+16
-4.1840385e+16
7.5945957e+13
2.5814084e+15
-9.3518937e+14
-1.2229673e+15
3.4697197e+15
-9.9902085e+15
-1.895574e+14
4.7815351e+13
-5.2997043e+13
-1.2123922e+16
1.7613179e+14
-5.1492332e+14
-1.4544967e+15
-4.7629951e+16
4.0582605e+16
-4.6556728e+16
-2.3090567e+15
3.7650981e+15
-9.6057116e+14
-7.7772997e+14
3.7009467e+15
-1.0781449e+16
-1.7324136e+13
1.4537891e+16
4.0239773e+14
-6.315606e+14
-9.1116424e+14
5.5562162e+14
7.674834e+13
-1.2616631e+16
4.3666816e+14
-4.7805802e+14
5.6012296e+14
-6.6313489e+14
-9.8664071e+15
1.3326087e+16
-9.1090248e+14
-8.4936322e+14
5.3769253e+14
5.7616786e+14
-1.1690255e+16
-6.3153829e+14
6.1014731e+14
-6.5816413e+14
5.7743015e+14
1.1567083e+16
1.1366261e+13
-6.5522908e+14
3.8326349e+14
5.3601815e+14
-9.660033e+14
-6.0357852e+13
3.9658659e+14
-6.1772953e+14
-8.6413877e+14
5.7396636e+14
-1.0634422e+16
6.2250006e+14
-8.2499048e+14
6.1987901e+14
-7.4022649e+14
5.2636917e+14
5.7581637e+14
-9.3495274e+14
-8.1483932e+14
-2.2666466e+15
-4.6270163e+13
2.733615e+13
-8.5787144e+13
-6.0260694e+13
-3.2208705e+15
2.5853133e+15
-3.0246646e+13
-3.3175643e+15
-1.4059933e+14
9.3363237e+13
1.3029529e+14
-1.7811839e+14
-4.9224682e+13
-1.5096041e+14
9.8562013e+13
-1.2368608e+14
1.3583423e+14
2.387386e+15
-2.7274374e+12
-3.0998775e+15
-1.5431837e+14
1.3632789e+14
-1.3784674e+14
1.4883428e+14
-1.2907365e+14
-1.3411182e+14
1.3907722e+14
1.4550813e+14
-3.0267037e+15
-1.3667765e+14
-1.4832643e+14
1.3470286e+14
1.5162866e+14
4.7165779e+13
2.5715092e+15
-3.2886927e+15
-9.3058492e+12
-1.6340399e+14
1.3874046e+14
1.1122687e+14
-1.2102457e+14
2.3326689e+15
-3.3647389e+15
-3.9652133e+13
1.6124701e+13
4.9591047e+11
1.0362866e+14
1.306185e+14
-1.602782e+14
-1.1481822e+14
-6.1168311e+12
-2.6244985e+15
2.7160827e+13
-4.0170107e+13
-1.7379525e+14
1.3490162e+14
-1.2637689e+14
1.0633647e+14
8.2234683e+13
-3.3529567e+15
-8.2775607e+13
-1.8748092e+14
-1.3596488e+14
1.0268137e+14
1.3491061e+14
2.3778832e+15
-3.3910307e+15
-7.7702422e+13
-1.5652501e+13
4.3387786e+16
-1.1589286e+16
-7.5299215e+15
9.6697297e+15
9.6605863e+15
9.9200507e+15
-1.3209494e+15
-2.6893365e+13
9.311954e+15
8.8900866e+15
-2.3424394e+14
1.0444975e+14
3.5497135e+14
-5.5358243e+14
1.0473246e+14
-1.7288685e+14
8.120158e+14
-1.7872016e+14
6.6763261e+14
-7.3768496e+15
8.7043193e+14
4.3665654e+14
2.12008e+13
2.5196101e+15
-7.7214591e+13
-3.0290285e+15
-1.6446021e+14
1.381375e+14
1.2681547e+14
-1.1850193e+14
2.2576734e+15
-1.2346021e+13
-2.9940007e+15
7.3834896e+12
3.3213799e+15
-8.9596739e+13
-2.0149913e+14
1.2677535e+14
1.0616361e+14
-1.4462945e+14
3.3492049e+15
3.8564157e+13
2.6400483e+15
8.4630219e+13
-8.9072395e+13
-2.0736184e+14
1.1973918e+14
9.874678e+13
-1.5208433e+14
5.6760579e+13
-9.3237906e+13
1.1883444e+14
-2.0024294e+14
-1.4304102e+14
9.7103718e+13
2.3744708e+15
-6.566941e+13
-3.6778378e+13
-1.9486156e+15
-4.4370845e+16
2.7771029e+15
-3.253499e+15
-3.4924245e+15
2.5908901e+15
4.6700214e+14
-5.6201177e+14
-1.3643319e+16
-8.2964171e+14
-8.0259042e+14
5.7332855e+14
4.9984518e+14
-1.3682581e+16
-7.7145377e+14
-8.4548757e+14
5.6685507e+14
5.3844089e+14
-8.2430554e+14
-7.7029583e+14
5.664322e+14
-1.3930382e+16
-4.3934554e+16
2.8468636e+15
2.5654511e+15
-3.4490903e+15
-3.3923105e+15
-9.3400523e+14
3.090104e+15
-1.9100455e+15
-1.9552476e+15
-5.6864485e+16
3.0851892e+15
-5.6055236e+16
3.1141221e+15
-2.043206e+15
-1.924987e+15
2.9686816e+15
-7.632929e+13
-1.0530674e+16
1.5238282e+14
5.6381266e+14
5.2159572e+14
-8.1693815e+14
-8.222943e+14
-1.0275223e+16
5.6517472e+14
5.4372982e+14
-8.2864812e+14
-7.5489511e+14
4.194301e+13
-5.7745258e+13
-1.3284681e+16
-8.5265943e+14
-8.6588292e+14
5.2207955e+14
5.696134e+14
-1.2935055e+16
-7.9490401e+14
-8.779022e+14
5.1352549e+14
5.5445365e+14
-1.6845556e+14
-1.0410659e+16
3.1489832e+14
5.5001099e+14
5.3172691e+14
-8.1295493e+14
-8.4222187e+14
-1.0352621e+16
5.570302e+14
5.4350463e+14
-7.9210176e+14
-8.1447778e+14
-1.3764307e+14
-1.3036748e+16
1.2370146e+14
-8.4608341e+14
-8.7097932e+14
5.4512516e+14
5.5811716e+14
-1.3349797e+16
-8.092216e+14
-8.4257149e+14
5.906379e+14
5.7953005e+14
-1.7137692e+15
-4.4083704e+16
1.9130127e+15
-1.3074715e+15
3.8461191e+15
3.9983337e+15
-1.377005e+15
-9.5938206e+15
-7.9882554e+13
1.3517213e+13
-8.0478563e+14
-8.1311125e+14
5.5285692e+14
5.9683776e+14
1.8730731e+14
-7.6001371e+13
-1.1869192e+16
-5.3824765e+14
-5.170459e+14
6.3353266e+14
6.8303482e+14
1.0004294e+16
2.6323485e+14
-1.2308194e+16
-5.7649235e+14
6.9876723e+14
-5.2442051e+14
7.0848881e+14
1.5398935e+14
5.7824767e+14
-8.2868122e+14
5.7267117e+14
-7.9231013e+14
-9.802185e+15
1.0952542e+13
-8.0350216e+14
-8.3694021e+14
6.053558e+14
5.475688e+14
1.9573851e+14
-5.4584965e+14
-5.894636e+14
6.1541049e+14
6.769649e+14
-1.1957356e+16
9.555499e+15
-5.5081338e+14
-6.0008329e+14
6.1254773e+14
6.3941642e+14
-1.1477359e+16
-4.2308931e+16
3.7923235e+15
3.6295727e+15
-1.0847808e+15
-1.2262803e+15
-7.9860101e+14
-8.6137824e+14
5.5291074e+14
5.2373875e+14
-1.3951084e+15
-4.8680112e+16
1.4253766e+15
-6.0165172e+15
-4.7886876e+16
-5.2064916e+15
2.5091178e+15
-3.2175254e+15
1.0397074e+14
-1.2286799e+14
-2.0028991e+13
-1.6539042e+14
1.2121433e+14
9.9707371e+13
-1.2180966e+14
-5.1274247e+12
-1.6755847e+14
1.1469311e+14
-2.5740704e+15
-1.2880501e+14
1.0204561e+14
-3.5677329e+13
1.1906231e+14
-1.7226903e+14
-3.3144251e+15
-1.3758117e+14
9.9362269e+13
-5.7769627e+13
1.1075204e+14
-1.8996213e+14
-2.5299017e+15
3.3434787e+15
1.0296379e+14
-1.4573065e+14
-5.5546136e+13
1.2577619e+14
-2.0202533e+14
1.2148104e+14
-1.1709732e+14
-7.3612527e+13
-3.0332504e+15
1.295841e+14
-1.692782e+14
-9.0536113e+15
-2.0869208e+14
6.3995238e+14
3.1995453e+14
7.728844e+14
-2.0471112e+14
4.5012209e+13
2.7454147e+14
2.6470132e+15
9.9277606e+13
-1.4836836e+14
-7.3919856e+13
-2.0348326e+14
1.1432554e+14
-1.4488347e+14
9.4337886e+13
-4.616342e+13
-2.0112442e+14
1.0877037e+14
5.4055915e+16
2.5683137e+15
-2.2195154e+15
-5.2491918e+16
2.3003058e+15
2.4775907e+15
-3.3294462e+15
3.5209008e+15
-3.0940514e+15
2.9761051e+15
-5.3460046e+16
3.7263301e+15
2.8377407e+15
-3.3057725e+15
-1.1137626e+16
-3.6214945e+14
-1.2567067e+14
-4.5599922e+14
-1.3741011e+16
-3.4995499e+14
1.2610119e+16
-1.2119564e+16
-6.181021e+14
3.889767e+14
3.916015e+14
-1.5522157e+14
-9.6860808e+14
4.1331366e+14
-5.9437686e+14
7.4887556e+13
-8.77552e+14
4.4941142e+14
1.1209658e+16
-2.7690224e+14
5.2819739e+13
-1.4030509e+16
2.4302998e+14
-1.203585e+16
-8.3838988e+14
5.0066236e+14
-7.7408672e+14
5.3162212e+14
4.9054361e+14
2.4386534e+15
-1.2605972e+14
9.3143924e+13
-3.1188413e+15
-7.1260861e+13
1.0229958e+14
-1.8025135e+14
9.7109692e+13
-1.1837762e+14
-1.4284423e+13
-1.6137581e+14
1.1014005e+14
-1.0380219e+16
-3.7067404e+14
-3.1488297e+14
2.0662255e+13
-4.8561868e+14
-1.2238981e+16
-8.1437126e+15
3.2483969e+14
-2.7660154e+15
4.6364661e+13
3.8312948e+14
-1.0026138e+16
6.1549982e+14
-5.1390585e+13
9.4457698e+15
-1.06722e+16
1.0623788e+14
2.8035786e+14
5.0206575e+14
6.1434465e+14
-1.1513537e+16
4.1499464e+14
-5.8047187e+14
-2.2988732e+14
-9.1711617e+14
3.8359845e+14
5.3353036e+14
-3.4522833e+14
-1.1243127e+16
-1.8268411e+14
5.0853001e+14
-5.8776086e+14
-4.460388e+16
-1.9639754e+15
4.4705809e+15
1.0244484e+16
1.0501308e+16
-8.013165e+14
4.3118716e+16
-1.2981908e+16
1.0199994e+16
9.7173186e+15
-1.1388714e+15
9.5805659e+15
9.1657385e+15
-9.2374147e+15
1.7675416e+14
-2.6836274e+14
5.4297388e+14
7.4634149e+14
-3.0975561e+14
-8.0981073e+13
1.892286e+14
8.7907365e+15
1.7232278e+14
-2.8063356e+14
8.228381e+14
7.8198217e+14
-2.4127125e+14
-2.3458725e+15
-6.5012503e+13
3.334765e+15
-1.0648598e+14
-4.3772894e+13
-3.3678896e+15
-1.4624107e+14
2.7409932e+15
-3.3193462e+15
-9.1360696e+13
-1.9485825e+14
5.8142381e+13
8.5965438e+13
-2.3447115e+14
7.2541766e+12
3.5031999e+15
6.0999105e+13
-1.8875237e+14
-2.379416e+14
8.6844475e+13
-2.3838361e+15
4.4711712e+13
-5.8565626e+13
3.5920794e+13
-1.1944277e+14
-3.1235992e+15
-2.4210865e+15
-1.0169884e+14
-1.9172482e+14
-3.0299141e+13
-2.9078245e+15
-1.1017583e+14
6.517639e+13
2.5439936e+15
-3.3276754e+15
-2.2414891e+14
9.4546399e+13
9.4724926e+13
-2.4887888e+14
2.4826906e+15
-3.1568002e+15
9.7365938e+13
1.3432108e+14
-2.3646601e+14
-1.9436969e+14
7.2538034e+13
3.272535e+15
-2.3812475e+14
8.4763978e+13
1.0703308e+14
-2.098039e+14
3.1770657e+15
-2.0272445e+14
1.0749913e+14
1.3091844e+14
-1.7459949e+14
2.6060317e+15
5.7564988e+13
-3.1599103e+15
6.9574911e+13
-1.5592133e+14
-1.9995334e+14
1.207772e+14
4.6651731e+13
7.6158587e+13
-1.8798887e+14
-2.468863e+14
9.887016e+13
2.4135203e+15
-2.9537077e+15
-2.1253186e+14
1.062292e+14
-1.7156496e+14
1.4024197e+14
-2.4660731e+14
9.8035874e+13
1.3369634e+14
-1.9391943e+14
2.3363947e+15
-1.1112536e+14
-1.6383471e+14
-7.2321853e+13
3.2662488e+15
-8.5290883e+13
-2.7028478e+15
3.4126241e+15
-1.8087118e+13
-1.6962765e+14
9.7014661e+13
7.1753852e+13
-2.2713202e+14
3.9735043e+12
6.0480164e+13
8.2284729e+13
-1.8312872e+14
-2.4038555e+14
-2.2749417e+15
-6.8244798e+13
-6.7782834e+13
-1.0461974e+14
-1.1617891e+14
2.6242691e+15
7.4526919e+12
-1.6028993e+14
7.1615158e+13
-2.0300127e+14
1.0382106e+14
-1.5793315e+13
-1.5399505e+14
7.3230211e+13
1.0610563e+14
-1.9712043e+14
-2.4267455e+15
-2.076565e+12
-1.7633385e+14
1.1818161e+14
1.3979179e+14
-1.4598736e+14
1.9457433e+13
-3.1535743e+15
-1.8937344e+14
1.0577501e+14
1.3193918e+14
-1.5850583e+14
-2.3913787e+15
1.4559096e+14
-1.4316819e+14
1.3129412e+14
-1.5074286e+14
-3.0778395e+15
1.4027539e+14
-1.5421095e+14
1.3030366e+14
-1.5998128e+14
2.4678723e+13
-2.5010317e+15
-2.1064261e+14
-1.7296121e+14
9.4006048e+13
1.206596e+14
-2.4484238e+15
-1.6653526e+14
-1.6438443e+14
1.2946742e+14
1.3236218e+14
6.1003696e+13
-2.321414e+14
8.8521336e+13
-1.9277073e+14
1.1591169e+14
1.1813051e+14
-1.882719e+14
1.3022526e+14
-1.6805304e+14
5.0381261e+14
-2.4871658e+13
-2.910341e+13
-7.1649625e+14
-1.7747463e+13
7.1937502e+14
-1.1307399e+13
-5.7286991e+14
7.0218434e+14
-3.5643345e+13
2.9734048e+13
2.1663027e+13
-2.2317602e+13
-1.0202357e+13
-1.7264217e+13
-7.6606225e+14
2.7048082e+13
-2.476837e+13
-2.5748695e+13
3.0935753e+13
1.7072206e+13
5.5494407e+14
-7.5966724e+12
-3.1741246e+13
-2.9561638e+13
2.0516648e+13
2.7590966e+13
-5.0458908e+14
-1.4466334e+13
-6.5497193e+12
-1.0205463e+13
-1.1556527e+13
-2.9304424e+13
2.2397127e+13
2.8101687e+13
-3.2295217e+13
4.9862798e+14
-4.0956962e+12
-6.9321207e+14
4.2745964e+13
-2.289017e+13
-2.294979e+13
3.0191474e+13
-1.1975766e+13
6.0224098e+14
2.672253e+13
2.689148e+13
-2.7581987e+13
-1.6984489e+13
4.8727536e+14
-4.3851002e+12
-6.3147427e+14
-2.8114878e+13
3.1808242e+13
3.0525859e+13
-2.7577377e+13
6.2092289e+14
-6.0966661e+12
2.9991281e+13
3.1550956e+13
-2.670852e+13
-2.5525857e+13
7.808391e+12
4.7914539e+14
-6.2699234e+12
-2.4617088e+13
3.1529688e+13
2.9630747e+13
-2.537765e+13
4.7078549e+14
-2.7138148e+13
-2.7945832e+13
2.5930961e+13
2.6708496e+13
-7.7671725e+12
-2.7442938e+13
-2.8654027e+13
2.7666978e+13
2.795243e+13
3.1593715e+13
-2.5129998e+13
-2.6036888e+13
2.9153467e+13
-6.2953334e+14
-2.3563224e+13
3.2968717e+13
3.2666514e+13
-2.5005032e+13
-4.1798591e+12
4.9907179e+14
-6.4846554e+14
-2.5087761e+13
3.3807056e+13
3.3132181e+13
-2.9340349e+13
5.2171956e+14
-6.8816186e+14
-2.9687258e+13
3.2310607e+13
1.7531566e+13
-2.9022455e+13
-3.3847714e+11
1.7506545e+13
3.3427248e+13
-4.2914761e+13
-3.4340018e+13
3.419188e+13
3.2944204e+13
-2.7757881e+13
-2.4646233e+13
5.446096e+14
4.6443045e+12
-6.9739381e+14
-2.0396059e+12
-1.3223902e+13
2.6249093e+12
6.822766e+14
6.620181e+12
-8.1711755e+12
-5.4907766e+14
7.6912718e+14
-2.2267183e+12
-7.818837e+14
-6.4420519e+12
-7.323195e+12
-5.3761107e+14
-8.3233149e+12
-5.3368831e+14
3.4724383e+12
-1.4095139e+13
2.5466661e+12
-1.6157317e+12
-1.2620526e+13
-2.5650427e+12
5.5741292e+14
1.1607688e+13
-7.1184611e+14
-1.7404826e+13
-1.3564413e+13
8.987637e+12
-1.7079916e+12
-1.2358647e+13
5.5775974e+14
-7.9336346e+14
-7.9702311e+12
-6.7541193e+12
1.6325371e+13
5.7083689e+14
-7.310776e+14
-3.6005409e+13
-7.5597393e+12
5.6934779e+14
-8.1451733e+14
-1.2050898e+13
-1.1488832e+13
-1.0483079e+13
-1.7433198e+13
-1.5409682e+11
4.2306066e+16
4.2718112e+16
-1.5339123e+16
4.3239463e+15
9.6942244e+15
1.0231033e+16
9.4957375e+14
-1.9114672e+15
9.2361013e+15
8.8732228e+15
2.4131949e+15
2.4395888e+15
2.4352156e+15
8.3300266e+11
1.6389796e+14
2.25921e+15
2.2228151e+15
-5.6339407e+13
2.2273983e+12
7.1605995e+13
-1.1332317e+14
-2.2568515e+13
-8.5030213e+13
1.6563191e+14
1.373594e+14
-7.626644e+13
1.9443928e+15
5.1444679e+13
1.4465432e+14
5.7710978e+14
1.9124041e+13
-4.5258246e+13
-7.0860205e+14
-6.8335226e+12
1.5986051e+13
7.5893039e+14
-4.9726242e+13
-9.9426736e+12
-5.9182048e+14
8.6331437e+14
-7.2111096e+12
-1.7441212e+13
-7.9085434e+14
6.0743263e+14
2.4156552e+13
-5.4968026e+13
-1.9189545e+13
2.1854594e+13
7.7211234e+14
-4.0436228e+13
-1.9322419e+13
-6.1793558e+14
8.6499654e+14
-1.607867e+13
-2.0824758e+13
6.03372e+14
1.9365476e+13
-3.7654257e+13
-2.0332342e+13
1.7918953e+13
7.4837778e+14
-3.1261251e+13
-1.1923958e+13
-6.0518292e+14
8.3736186e+14
-1.6235351e+13
-2.1273565e+13
-5.8571459e+14
2.3915387e+13
-3.9805486e+13
-1.0638134e+13
2.0080317e+13
-4.4493793e+13
-1.316602e+13
5.8399204e+14
-1.4474234e+13
-1.5168258e+13
-1.0512488e+16
-4.0179327e+14
-8.7756026e+14
-7.701909e+14
5.5859568e+14
5.257126e+14
-3.8155711e+14
-1.3347092e+16
6.101369e+14
-7.6764893e+14
-8.8814607e+14
5.5012106e+14
1.0388691e+16
-2.9467371e+14
-1.3397293e+16
-8.5648831e+14
-8.3261402e+14
6.024418e+14
5.1595459e+14
-4.0832804e+14
5.3100061e+14
-8.2156975e+14
-8.4731064e+14
4.8067665e+14
1.07804e+14
2.3752882e+15
-1.3338633e+14
-3.015322e+15
1.1362334e+14
9.6887425e+13
-1.8838951e+14
-1.8614723e+14
2.415167e+15
1.2725384e+14
-3.0752318e+15
1.1062576e+14
1.0371465e+14
-1.9557587e+14
-1.8074016e+14
-1.1497735e+14
1.4027694e+14
-1.6213492e+14
1.1871253e+14
-1.7462388e+14
1.1454002e+14
-1.3956371e+14
-1.6436979e+14
1.2221517e+14
-1.6765496e+14
1.0941706e+14
-1.1478786e+14
2.4088987e+15
1.5259418e+14
-3.0595727e+15
1.1360593e+14
1.0443068e+14
-1.8067308e+14
-1.9594858e+14
2.4338711e+15
-3.103434e+15
1.142583e+14
1.0067375e+14
-1.8764679e+14
-1.9074377e+14
-1.1791905e+14
-1.5966375e+14
1.2095624e+14
-1.7464626e+14
1.1584353e+14
-1.64301e+14
1.2625244e+14
-1.7043332e+14
1.1281935e+14
1.0235373e+14
-1.2295881e+14
1.1614568e+14
1.0250697e+14
-3.0818741e+15
-1.8713066e+14
-1.8205652e+14
2.4133672e+15
1.1239831e+14
1.0584643e+14
-3.0618869e+15
-1.9311574e+14
-1.7793764e+14
-1.6063276e+14
1.1922188e+14
-1.739389e+14
-2.8719196e+14
-1.0636673e+16
5.3154541e+14
5.5708058e+14
-7.8631858e+14
-8.7028809e+14
8.8055897e+13
1.1582236e+14
1.0298843e+14
-2.9851151e+15
-1.8134137e+14
-1.786803e+14
1.1128934e+14
1.0532284e+14
-3.0726347e+15
-1.917065e+14
-1.7838288e+14
-1.0312911e+16
5.1533425e+14
5.7895096e+14
-7.7776739e+14
-8.3059634e+14
2.1717959e+14
-1.3200325e+16
5.4927972e+14
-8.6141881e+14
-8.5178453e+14
5.087708e+14
-1.3573851e+16
5.9283999e+14
-7.9096895e+14
-8.8226659e+14
5.4776997e+14
-9.8142075e+15
-3.2388777e+14
6.0188259e+14
-7.8882843e+14
-8.2797492e+14
5.8696092e+14
-5.4507481e+13
-1.204638e+16
-5.2440373e+14
-5.1912363e+14
6.8541497e+14
6.6187353e+14
9.9669725e+15
5.1115167e+13
7.2518974e+14
-5.5503069e+14
-5.3026599e+14
6.8639667e+14
-1.2354131e+16
-1.4658653e+15
-4.5448715e+16
3.9257683e+15
4.0379719e+15
-1.5282251e+15
-1.5918988e+15
-1.9449697e+14
6.029195e+14
-8.0017295e+14
-8.2127489e+14
5.4400693e+14
-4.4566826e+16
3.9953958e+15
3.9274142e+15
-1.5448713e+15
-1.3004152e+15
-1.0033553e+16
-1.4920213e+14
5.8813418e+14
-8.0851063e+14
-8.3664607e+14
5.8555321e+14
8.7156185e+13
-1.2381643e+16
-5.5583318e+14
6.7396246e+14
-5.47898e+14
6.9861269e+14
9.8334415e+15
-1.2026947e+16
-5.6142463e+14
-5.2912038e+14
6.8036793e+14
6.8985231e+14
-8.2807072e+14
-8.111775e+14
5.4129309e+14
5.6406854e+14
6.6697062e+14
-4.91037e+16
-6.7883034e+15
-5.0043763e+16
-7.3423831e+15
2.0977375e+13
-2.3768507e+15
-1.0870495e+13
1.1922679e+14
-1.7668574e+14
-1.6755194e+14
1.2025619e+14
-2.3423098e+15
3.5494989e+13
1.0760055e+14
-1.7603588e+14
-1.7452889e+14
1.1750141e+14
2.0020662e+13
4.6819735e+12
-3.1064433e+15
-1.7193933e+14
-1.810341e+14
1.1969311e+14
1.2123249e+14
-3.0472389e+15
3.1616973e+13
-1.7926961e+14
-1.8048451e+14
1.0846458e+14
1.2232845e+14
1.4500092e+13
-2.3074822e+15
1.1740555e+14
-1.6905127e+14
-1.5123883e+14
1.2647663e+14
-2.3326408e+15
1.112752e+14
-1.6823277e+14
-1.6544073e+14
1.2360572e+14
5.1715254e+12
-3.0471751e+15
1.1341667e+14
-1.7807567e+14
-1.7305333e+14
1.2310917e+14
-2.9935558e+15
-1.5574893e+14
-1.7442059e+14
1.2051517e+14
1.2597558e+14
1.0965936e+12
2.4450189e+15
2.4027026e+13
-3.1931521e+15
-1.8496204e+14
-1.9319474e+14
1.2356033e+14
1.2494722e+14
2.4042757e+15
1.6637477e+13
-3.1325155e+15
-1.9460835e+14
-1.9186551e+14
1.122616e+14
1.2102883e+14
-1.580061e+13
2.8620723e+13
-1.8123485e+14
1.1031266e+14
1.2029831e+14
-1.8307953e+14
1.4895807e+12
-1.7348958e+14
-1.8180365e+14
1.2228398e+14
1.2390826e+14
-2.5106467e+13
2.3738809e+15
-3.0784587e+15
-1.7013135e+14
-1.9248307e+14
1.1398413e+14
1.2564123e+14
2.3991718e+15
-3.1259634e+15
-1.8825639e+14
-1.9444443e+14
1.0767732e+14
1.2283362e+14
-3.547508e+12
1.0725055e+14
-1.8375039e+14
-1.7645354e+14
1.2351291e+14
1.1391594e+14
-1.8144523e+14
-1.6075105e+14
1.2383438e+14
6.7398843e+13
-2.3989798e+15
-7.0503123e+13
1.2334091e+14
-1.7071083e+14
-1.7322867e+14
1.1382856e+14
-2.3599939e+15
9.6420244e+13
-1.823287e+14
-1.7415464e+14
1.1203402e+14
1.1321354e+14
1.4358965e+13
-6.7129352e+14
-3.719358e+13
-7.5707602e+13
-3.0628113e+15
1.0048811e+14
-1.8735867e+14
-1.7713914e+14
1.1458433e+14
1.1499638e+14
-7.1008662e+13
-3.1281985e+15
1.2252371e+14
-1.810254e+14
-1.7767665e+14
1.1847683e+14
-4.9118919e+13
-2.3823889e+15
1.1316465e+14
-1.7457263e+14
-1.77296e+14
1.1610149e+14
-2.3552579e+15
-1.6754381e+14
-1.7419255e+14
1.206189e+14
1.155158e+14
4.1885971e+13
-3.051371e+15
-1.7111138e+14
-1.7770321e+14
1.2188924e+14
1.2066802e+14
-3.1001125e+15
-1.8187069e+14
-1.7838758e+14
1.1395551e+14
1.2042621e+14
-6.2722183e+13
2.4087188e+15
-3.1101371e+15
7.1605385e+13
1.179361e+14
-1.8952415e+14
-1.999758e+14
1.180167e+14
2.4487647e+15
-5.2918757e+13
-3.1961359e+15
-1.9358012e+14
-1.9012612e+14
1.1697766e+14
1.3331777e+14
-7.7174474e+13
9.191034e+13
-1.8873728e+14
-1.7019125e+14
1.1846754e+14
1.1675825e+14
-7.7862569e+13
-1.7960626e+14
1.2530533e+14
1.1610873e+14
-1.8243594e+14
2.9743054e+13
2.388197e+15
-3.0976449e+15
-1.8572764e+14
-1.803471e+14
1.2123337e+14
1.3196261e+14
2.4147527e+15
-3.1451859e+15
-1.9700655e+14
-1.8200699e+14
1.2087684e+14
1.2282316e+14
-4.7980067e+13
-1.767412e+14
1.1677456e+14
1.1922922e+14
-1.8386675e+14
-1.7539328e+14
1.2565729e+14
1.1946423e+14
-1.7273149e+14
9.4222442e+15
8.767042e+13
-1.0281819e+16
-1.2660897e+14
-4.0895552e+14
1.0102634e+14
1.4641416e+13
-2.3546799e+14
9.0935544e+14
8.4745217e+14
-2.3783309e+14
-9.5181065e+15
5.5767693e+13
8.8771985e+14
8.6719501e+14
-2.8385998e+14
-2.1754829e+14
-4.3680615e+13
-1.0471777e+16
-2.9198211e+14
2.4126054e+13
2.4606478e+15
-3.121126e+15
-3.9767475e+13
-2.0014047e+14
-1.9771054e+14
1.4310986e+14
1.2607569e+14
2.4064184e+15
-3.0466698e+15
4.3859253e+12
-2.0528963e+14
-1.9794001e+14
1.2333241e+14
1.2677798e+14
-4.8250104e+13
4.9888697e+13
-2.0160133e+14
-1.906632e+14
1.1898653e+14
1.2077793e+14
-4.8391925e+13
1.2930389e+14
-1.9243417e+14
-1.9543275e+14
1.2005478e+14
3.1092614e+13
2.2867945e+15
-3.8884991e+13
-2.8035982e+15
-1.5673364e+14
1.4130377e+14
-1.5328771e+14
1.5506682e+14
2.3414991e+15
7.7100942e+13
-2.8876501e+15
1.5090544e+14
-1.6352853e+14
1.4753962e+14
-1.5181948e+14
-1.5522496e+13
-4.6803281e+12
-1.8676213e+14
-1.8963154e+14
1.3146946e+14
1.3878464e+14
-1.0143037e+13
1.3927847e+14
-1.9221942e+14
-1.8498244e+14
1.3595195e+14
2.4114167e+15
7.0911818e+13
-2.972408e+15
-1.6278415e+14
1.4216249e+14
1.6630957e+14
-1.5499934e+14
2.2210389e+13
3.1759215e+15
1.3421987e+14
-1.8708033e+14
-1.8775749e+14
1.4252726e+14
2.3802173e+15
9.51441e+13
-2.9216027e+15
-1.6614485e+14
1.4585755e+14
1.6163404e+14
-1.4861364e+14
3.1313318e+15
7.1145921e+13
-1.789667e+14
-1.914107e+14
1.3861835e+14
1.4019808e+14
-2.4517657e+15
-2.2478555e+13
1.278216e+14
-1.889385e+14
-2.0074245e+14
1.2077378e+14
6.8917565e+12
1.2229969e+14
-1.9427657e+14
-2.0292549e+14
1.237178e+14
-2.4275581e+15
8.4064634e+12
1.3608173e+14
-1.9250048e+14
-1.9107782e+14
1.1919619e+14
6.3518515e+13
1.2592179e+14
-1.9984771e+14
-1.9318522e+14
1.2194811e+14
-4.5135431e+13
2.4673615e+15
-3.1522923e+15
5.7376802e+13
-1.9480692e+14
-2.0326714e+14
1.3732265e+14
1.2993895e+14
2.4380029e+15
-3.0988136e+15
-2.019665e+14
-2.0306507e+14
1.179348e+14
1.293506e+14
-1.4927793e+13
2.8609744e+13
-1.887955e+14
-1.9583718e+14
1.2496821e+14
1.2554771e+14
-1.9723576e+14
-1.945932e+14
1.1449865e+14
1.2386523e+14
-8.3207222e+13
2.3847646e+15
1.1477363e+14
-2.9347772e+15
-1.5153794e+14
-1.7108678e+14
1.4331207e+14
1.5191001e+14
2.3488125e+15
-2.8953614e+15
-1.5537303e+14
-1.6618268e+14
1.3507048e+14
1.555079e+14
5.1320596e+13
-1.8844134e+14
-1.9436413e+14
1.2665666e+14
1.4138352e+14
7.0254347e+13
1.3526098e+14
-1.9924348e+14
-1.8435346e+14
1.3883947e+14
-7.0015683e+12
-9.3233841e+15
8.8114692e+14
8.2330999e+14
-2.4876067e+14
-2.3457333e+14
-8.9330246e+13
2.3395604e+15
-2.8458286e+15
-1.5022385e+14
-1.6719122e+14
1.4205239e+14
1.4653556e+14
2.3796769e+15
-2.9360503e+15
-1.5181035e+14
-1.6556971e+14
1.4149298e+14
1.5762079e+14
4.4171466e+13
3.1271384e+15
-1.8521071e+14
-1.9472097e+14
1.27698e+14
1.434029e+14
3.0859026e+15
1.279222e+14
-1.9931121e+14
-1.8102758e+14
1.3411626e+14
-8.7567814e+15
8.1501344e+14
8.3187755e+14
-2.3451558e+14
-1.904269e+14
1.8346081e+14
-5.625631e+13
-1.7885141e+14
-5.3767467e+13
2.4134826e+15
-1.8581699e+14
-2.0476531e+14
1.1727538e+14
1.2697352e+14
2.431273e+15
-1.9812615e+14
-2.0455012e+14
1.1286301e+14
1.2790975e+14
-1.7189563e+13
-1.7817308e+14
-1.9959278e+14
1.1335223e+14
1.2337444e+14
-1.9330039e+14
-1.9934154e+14
1.0904463e+14
1.2406593e+14
5.9167382e+14
9.3035655e+15
9.3897991e+15
-2.3874475e+15
5.5382751e+14
-7.0098411e+14
-8.6753625e+12
-1.6000181e+13
6.8833969e+14
-5.2072921e+12
-1.0317125e+13
5.4192312e+14
-9.804098e+12
-1.3902779e+13
-1.2553531e+13
-1.4141216e+13
-5.6291987e+14
-1.3367872e+13
-1.2387991e+13
-7.1173982e+14
-1.7381474e+13
-1.4037589e+13
-5.7945284e+14
-1.7657729e+13
-1.4360163e+13
-7.403295e+14
-2.4614321e+13
-1.6521931e+13
-6.4545543e+14
8.0580908e+14
-2.8770074e+13
-2.1885949e+13
-7.970629e+14
-3.6993981e+13
-3.4248455e+13
-2.2409117e+15
1.3375613e+14
-7.8752742e+13
1.9347492e+12
-8.8139905e+13
1.5640226e+14
-6.1532226e+14
-3.4628679e+13
-2.4738882e+13
-2.8309314e+13
-3.3312828e+13
-7.4041945e+14
5.6134234e+13
-1.509638e+13
6.3233938e+14
-2.5204299e+13
-2.60827e+13
7.7117914e+14
-2.0869401e+13
-1.9880016e+13
6.0271681e+14
-2.8497767e+13
-1.8638452e+13
-3.0392707e+13
-1.3617748e+13
4.7006034e+16
-9.1847648e+14
1.0971786e+15
2.3073379e+15
7.1057967e+14
-5.1943401e+16
3.2805859e+15
-8.1945944e+14
2.4420448e+15
1.3041068e+15
5.1721033e+16
2.8599669e+15
-1.8282534e+15
-5.0976876e+16
2.5419444e+15
1.1518324e+15
-2.034716e+15
2.6255977e+15
-3.1302889e+15
2.4642293e+15
2.2437305e+15
-3.4083181e+15
-5.2277215e+16
3.1488862e+15
-3.3574037e+15
-3.1723218e+15
2.9968024e+15
2.6724688e+15
-1.1068374e+16
1.7682343e+13
1.1936285e+14
-4.7808152e+14
-1.3789475e+16
-5.3770053e+13
-1.0909224e+16
-5.3730696e+14
-8.4050946e+13
-7.3300182e+14
-1.3391368e+16
-2.6509537e+14
-2.5317044e+15
3.1844974e+15
-1.4266511e+14
8.1025453e+13
-2.2292494e+14
7.3576322e+13
-1.354931e+14
1.1662977e+16
-1.1275148e+16
4.1535065e+14
-1.0244427e+15
-8.032983e+13
3.2281166e+14
-9.0944169e+14
-3.2654486e+15
8.5414407e+13
-1.4614756e+14
-1.8623778e+14
-2.2734498e+14
7.5618132e+13
1.9846561e+14
-9.8307212e+14
-8.5572933e+14
4.4905651e+14
3.5598775e+14
2.4783101e+15
-1.3446383e+14
8.4418595e+13
-1.1694237e+14
-2.0318372e+14
8.262857e+13
-1.3259423e+14
8.2056263e+13
-9.497196e+13
8.1866114e+13
-1.9525823e+14
-1.2263288e+16
6.9444379e+14
-6.5696027e+14
-6.4607544e+14
2.5374484e+13
2.2557329e+15
-2.9195871e+15
-1.9712771e+14
-2.593577e+13
9.8940718e+13
1.103627e+14
-1.8614946e+14
-1.2131368e+16
-8.0273865e+14
4.2401203e+14
-8.4036407e+14
5.4584839e+14
5.6390339e+14
2.2227971e+15
-2.8947391e+15
-1.6668632e+14
-1.8886384e+14
9.9825064e+13
1.0769479e+14
1.3691879e+13
1.0836079e+14
-1.6186243e+14
-1.5032199e+14
1.1256103e+14
6.7190624e+12
-1.6471808e+14
-1.5658371e+14
1.1924617e+14
1.0788962e+14
-5.3260235e+14
6.6909042e+14
2.1597979e+13
-2.8019109e+13
-2.3668189e+13
-3.6314092e+13
2.090787e+13
2.1282772e+13
-3.0479805e+13
-6.6440091e+14
-4.1246551e+13
-4.4712438e+13
1.7599978e+13
5.266287e+14
-2.8141344e+13
2.1071283e+13
-8.617322e+12
-3.4556223e+13
2.112421e+13
-2.8115808e+13
2.0694183e+13
-9.1722436e+12
-3.3515924e+13
2.1774166e+13
-9.9680149e+15
-5.9641186e+14
-2.8185716e+14
-8.9478717e+13
-5.2135061e+14
-1.1671057e+16
-9.1401086e+15
4.6809071e+14
-2.400099e+14
4.3417244e+14
-2.0064544e+14
1.1401772e+16
-1.253541e+14
-6.0576354e+13
-9.2058267e+13
6.727287e+14
7.5400585e+14
5.2551564e+13
-1.4614592e+14
-1.078912e+16
-8.4664553e+14
4.3384426e+14
3.2934155e+14
-2.654729e+14
-9.6339457e+14
2.6122019e+15
-3.2755158e+15
-1.5140688e+14
9.7969362e+13
-2.3342763e+14
8.1091466e+13
-1.9426818e+14
8.5299491e+13
-1.4922964e+14
-1.6390157e+14
-2.2562839e+14
7.7326167e+13
-1.0548661e+16
-4.9030681e+14
-5.953369e+14
-3.7211987e+14
5.4110482e+14
4.0403758e+14
-2.5085745e+15
-1.101992e+14
-2.0677663e+14
-3.089578e+13
-2.9631115e+15
-2.2176985e+14
-4.4171886e+16
-2.4408172e+15
5.1114377e+15
9.9042969e+15
1.0162254e+16
-2.5966468e+13
1.049647e+16
1.0162924e+16
4.1318532e+16
4.1126067e+16
4.3688114e+16
9.2755658e+14
1.7315249e+14
9.3542726e+15
9.0649241e+15
8.759079e+15
8.475962e+15
-3.0359087e+13
2.3931741e+15
2.5383375e+15
2.3858828e+15
-4.6909791e+13
2.4043178e+15
2.5116363e+15
2.3916461e+15
-7.2544621e+13
2.290468e+15
2.1873315e+15
1.9825273e+15
9.7719988e+13
-4.7493498e+13