/*--------------------------------*- C++ -*----------------------------------*\
  =========                 |
  \\      /  F ield         | OpenFOAM: The Open Source CFD Toolbox
   \\    /   O peration     | Website:  https://openfoam.org
    \\  /    A nd           | Version:  7
     \\/     M anipulation  |
\*---------------------------------------------------------------------------*/
FoamFile
{
    version     2.0;
    format      ascii;
    class       volScalarField;
    location    "3000";
    object      pMean;
}
// * * * * * * * * * * * * * * * * * * * * * * * * * * * * * * * * * * * * * //

dimensions      [0 2 -2 0 0 0 0];

internalField   nonuniform List<scalar> 
33733
(
-1.8881327e+37
-1.9642073e+37
-1.8879381e+37
-1.9269228e+37
-1.9203372e+37
-1.8425823e+37
-1.8951396e+37
-1.8941095e+37
-1.9328009e+37
-1.9012811e+37
-1.923658e+37
-1.9715665e+37
-1.9941817e+37
-2.0034864e+37
-1.9792653e+37
-1.8981237e+37
-1.8413337e+37
-1.8946362e+37
-1.926585e+37
-1.9810718e+37
-1.9817242e+37
-1.9493694e+37
-1.9446994e+37
-1.9291679e+37
-1.9227551e+37
-1.8432499e+37
-1.8793066e+37
-1.8702464e+37
-1.8403174e+37
-1.9033972e+37
-1.9179068e+37
-1.8993429e+37
-1.9146811e+37
-1.9427351e+37
-1.9484485e+37
-1.9039266e+37
-1.9054728e+37
-1.952622e+37
-1.9321763e+37
-1.9059159e+37
-1.8797869e+37
-1.918722e+37
-1.846125e+37
-1.979099e+37
-1.9460628e+37
-1.9218522e+37
-1.9284996e+37
-1.9529927e+37
-1.9838493e+37
-2.0065619e+37
-1.9975195e+37
-1.9090337e+37
-1.8975077e+37
-1.8779203e+37
-1.914655e+37
-1.8987285e+37
-1.8437857e+37
-1.8457816e+37
-1.8791766e+37
-1.9155381e+37
-1.9030354e+37
-1.9168189e+37
-1.9027768e+37
-1.9281318e+37
-1.953446e+37
-1.9532771e+37
-1.9304743e+37
-2.0034032e+37
-1.9917499e+37
-1.9935602e+37
-2.0038645e+37
-1.9927492e+37
-2.0019269e+37
-1.9872724e+37
-1.9564831e+37
-1.9511872e+37
-1.9664175e+37
-1.9632725e+37
-1.9429763e+37
-1.9335851e+37
-1.9290631e+37
-1.9394027e+37
-1.7682419e+37
-1.8261999e+37
-1.8939916e+37
-1.9039622e+37
-1.8925363e+37
-1.8817419e+37
-1.907765e+37
-1.9048022e+37
-1.9100562e+37
-1.9108606e+37
-1.9147449e+37
-1.9219529e+37
-1.9120171e+37
-1.9202074e+37
-1.9603302e+37
-2.0159039e+37
-2.0192543e+37
-2.011303e+37
-1.9554294e+37
-1.9105603e+37
-1.9088189e+37
-1.9650163e+37
-1.9601379e+37
-1.9429047e+37
-1.9391669e+37
-1.972401e+37
-1.9696462e+37
-1.9496479e+37
-1.946e+37
-1.8733023e+37
-1.9334637e+37
-1.9103019e+37
-1.9099837e+37
-1.9294448e+37
-1.9276035e+37
-1.9086451e+37
-1.9094593e+37
-1.8787462e+37
-1.9240799e+37
-1.8515176e+37
-1.8542632e+37
-1.9575606e+37
-1.9671917e+37
-1.9440908e+37
-1.9352722e+37
-1.9123737e+37
-1.9099933e+37
-1.9013948e+37
-1.8912745e+37
-1.9167901e+37
-1.9239713e+37
-1.908645e+37
-1.9376995e+37
-1.9913481e+37
-1.9557438e+37
-1.9313699e+37
-1.9416316e+37
-1.9674703e+37
-1.9948751e+37
-2.0186986e+37
-2.0132886e+37
-2.0022959e+37
-2.0146485e+37
-1.9131942e+37
-1.9019615e+37
-1.8949034e+37
-1.8846417e+37
-1.8829181e+37
-1.8954242e+37
-1.9183504e+37
-1.9025233e+37
-1.8294993e+37
-1.7684096e+37
-1.8232302e+37
-1.8992356e+37
-1.8852927e+37
-1.89548e+37
-1.9044474e+37
-1.9178857e+37
-1.9054345e+37
-1.9069987e+37
-1.9185872e+37
-1.901028e+37
-1.8972541e+37
-1.8999905e+37
-1.8977444e+37
-1.9116824e+37
-1.9160905e+37
-1.9224481e+37
-1.9250426e+37
-1.9020501e+37
-1.9037812e+37
-1.9050705e+37
-1.9079236e+37
-1.9319213e+37
-1.9467396e+37
-1.9486547e+37
-1.9358824e+37
-1.9751447e+37
-1.9609168e+37
-1.9644153e+37
-1.9757958e+37
-1.9757505e+37
-1.965734e+37
-1.9710199e+37
-1.9617419e+37
-1.9503437e+37
-1.9479674e+37
-1.9386887e+37
-1.9385134e+37
-2.0006057e+37
-2.0046773e+37
-2.0035229e+37
-2.0013859e+37
-2.0130138e+37
-2.0180033e+37
-2.0134168e+37
-2.0159557e+37
-1.9978944e+37
-2.001263e+37
-1.9944419e+37
-1.9974152e+37
-2.0057035e+37
-2.0105296e+37
-2.0135294e+37
-2.0087168e+37
-2.002588e+37
-1.9914382e+37
-1.9882764e+37
-1.9924879e+37
-1.9945205e+37
-1.9613736e+37
-1.9642678e+37
-1.9623667e+37
-1.9589076e+37
-1.9735041e+37
-1.9750189e+37
-1.9722183e+37
-1.9695264e+37
-1.9505993e+37
-1.9534222e+37
-1.9472894e+37
-1.9509457e+37
-1.9402466e+37
-1.9369162e+37
-1.9402119e+37
-1.9430445e+37
-1.7738456e+37
-1.82617e+37
-1.8996501e+37
-1.927413e+37
-1.9120663e+37
-1.9157714e+37
-1.9062114e+37
-1.9096234e+37
-1.9084114e+37
-1.9053272e+37
-1.9048089e+37
-1.9106865e+37
-1.9123519e+37
-1.9090575e+37
-1.9058473e+37
-1.9190065e+37
-1.9223691e+37
-1.9193912e+37
-1.9152529e+37
-1.932546e+37
-1.9294041e+37
-1.9255144e+37
-1.9291926e+37
-1.9866275e+37
-1.9607693e+37
-1.9570627e+37
-1.9831741e+37
-2.0135954e+37
-2.0158566e+37
-2.027543e+37
-2.0251431e+37
-2.0193529e+37
-2.0176483e+37
-2.0314379e+37
-2.0294861e+37
-2.009508e+37
-2.0113223e+37
-2.0229321e+37
-1.9800191e+37
-2.0061286e+37
-2.0073991e+37
-1.9763905e+37
-1.9516066e+37
-1.9550464e+37
-1.9425961e+37
-1.9178268e+37
-1.9150185e+37
-1.873942e+37
-1.9392168e+37
-1.8741201e+37
-1.9374535e+37
-1.9134646e+37
-1.9128529e+37
-1.9347839e+37
-1.851537e+37
-1.8516463e+37
-1.9756142e+37
-1.9778036e+37
-1.9660696e+37
-1.9679427e+37
-1.9703866e+37
-1.9731463e+37
-1.9634576e+37
-1.960896e+37
-1.943719e+37
-1.9455682e+37
-1.9548512e+37
-1.9529071e+37
-1.938413e+37
-1.941018e+37
-1.9503914e+37
-1.9475509e+37
-1.9838227e+37
-1.9855726e+37
-2.0012731e+37
-1.9750928e+37
-1.9735605e+37
-1.981929e+37
-1.980054e+37
-1.9699835e+37
-1.9716085e+37
-1.9515827e+37
-1.9504216e+37
-1.9613513e+37
-1.9597987e+37
-1.948003e+37
-1.9497631e+37
-1.9583911e+37
-1.956691e+37
-1.8841308e+37
-1.895507e+37
-1.8984299e+37
-1.8827675e+37
-1.9315348e+37
-1.9321782e+37
-1.9391726e+37
-1.9383019e+37
-1.9170163e+37
-1.915731e+37
-1.9274874e+37
-1.9265587e+37
-1.913629e+37
-1.9234843e+37
-1.9129391e+37
-1.9213407e+37
-1.9366997e+37
-1.9292158e+37
-1.9345979e+37
-1.9272905e+37
-1.9252348e+37
-1.9263016e+37
-1.9318275e+37
-1.9331786e+37
-1.9133429e+37
-1.9136923e+37
-1.9224445e+37
-1.921212e+37
-1.8981501e+37
-1.912832e+37
-1.9124445e+37
-1.9197078e+37
-1.9168486e+37
-1.9026653e+37
-1.8930315e+37
-1.8843491e+37
-1.9207842e+37
-1.9231371e+37
-1.9273267e+37
-1.9300706e+37
-1.8192297e+37
-1.9614829e+37
-1.9650014e+37
-1.97232e+37
-1.976011e+37
-1.954226e+37
-1.9512108e+37
-1.9440379e+37
-1.9409294e+37
-1.9119079e+37
-1.9095512e+37
-1.9095893e+37
-1.9067642e+37
-1.9069912e+37
-1.9241693e+37
-1.9199363e+37
-1.9239813e+37
-1.9305641e+37
-1.9339004e+37
-1.827882e+37
-1.8766461e+37
-1.886679e+37
-1.8450322e+37
-1.9115541e+37
-1.9478878e+37
-2.0023423e+37
-2.0293291e+37
-2.0036103e+37
-1.9649739e+37
-1.9393401e+37
-1.9532334e+37
-1.949579e+37
-1.9392296e+37
-1.9800027e+37
-1.9706099e+37
-1.9847157e+37
-2.0548204e+37
-2.0233822e+37
-2.0251518e+37
-2.0138783e+37
-2.0271602e+37
-2.0385654e+37
-2.0109249e+37
-2.0064881e+37
-2.0210335e+37
-2.0258538e+37
-1.920023e+37
-1.9079459e+37
-1.8984125e+37
-1.8895455e+37
-1.890251e+37
-1.9017228e+37
-1.9231357e+37
-1.9038354e+37
-1.9217823e+37
-1.9031874e+37
-1.8931581e+37
-1.8922613e+37
-1.8273638e+37
-1.7645384e+37
-1.8161937e+37
-1.8907596e+37
-1.897813e+37
-1.9121412e+37
-1.9001546e+37
-1.9013641e+37
-1.9127739e+37
-1.9192919e+37
-1.9053795e+37
-1.9101273e+37
-1.9286977e+37
-1.9047258e+37
-1.9053614e+37
-1.9110608e+37
-1.9114001e+37
-1.9261409e+37
-1.918186e+37
-1.9228619e+37
-1.92943e+37
-1.895507e+37
-1.8916222e+37
-1.9119456e+37
-1.9152853e+37
-1.9209385e+37
-1.916333e+37
-1.9264786e+37
-1.9245096e+37
-1.9242279e+37
-1.9216473e+37
-1.9256045e+37
-1.9306016e+37
-1.9361679e+37
-1.9324328e+37
-1.9353627e+37
-1.937087e+37
-1.9350916e+37
-1.9321922e+37
-1.8931982e+37
-1.8900834e+37
-1.8960563e+37
-1.8962272e+37
-1.9021002e+37
-1.8964057e+37
-1.9004862e+37
-1.9043402e+37
-1.8981144e+37
-1.9027563e+37
-1.9081956e+37
-1.9081479e+37
-1.9102227e+37
-1.9136948e+37
-1.9135175e+37
-1.9118023e+37
-1.9529742e+37
-1.9591848e+37
-1.9582765e+37
-1.9554556e+37
-1.9434742e+37
-1.9460539e+37
-1.937689e+37
-1.9413752e+37
-1.9690903e+37
-1.9743385e+37
-1.9701351e+37
-1.9747039e+37
-1.9835294e+37
-1.9894081e+37
-1.9911765e+37
-1.9845464e+37
-1.984688e+37
-1.9897118e+37
-1.9850465e+37
-1.9819841e+37
-1.9720063e+37
-1.9752584e+37
-1.9732596e+37
-1.9709303e+37
-1.9820834e+37
-1.9790355e+37
-1.9785399e+37
-1.9757552e+37
-1.9707129e+37
-1.9679195e+37
-1.9674669e+37
-1.9647682e+37
-1.957599e+37
-1.9595057e+37
-1.9616709e+37
-1.961498e+37
-1.9568294e+37
-1.9539035e+37
-1.956254e+37
-1.9590733e+37
-1.9438902e+37
-1.947466e+37
-1.9489094e+37
-1.950431e+37
-1.9485253e+37
-1.946745e+37
-1.9463886e+37
-1.9436535e+37
-2.0109604e+37
-2.012837e+37
-2.0110554e+37
-2.0093023e+37
-2.0056904e+37
-2.0067139e+37
-2.0040441e+37
-1.9938299e+37
-2.0157787e+37
-2.0188874e+37
-2.0199321e+37
-2.0166494e+37
-2.0248984e+37
-2.0262434e+37
-2.0226663e+37
-2.0216314e+37
-2.0007911e+37
-2.0031006e+37
-2.0002499e+37
-2.0003342e+37
-2.0065616e+37
-2.0095593e+37
-2.005492e+37
-2.008065e+37
-1.9974725e+37
-1.9981008e+37
-1.9952237e+37
-1.9939601e+37
-2.0006182e+37
-2.0036644e+37
-1.9994597e+37
-2.002389e+37
-2.0081938e+37
-2.0098247e+37
-2.0067593e+37
-2.0051136e+37
-2.0112153e+37
-2.0143656e+37
-2.0154807e+37
-2.0125353e+37
-2.0166493e+37
-2.0200014e+37
-2.0211776e+37
-2.0177465e+37
-2.0152062e+37
-2.0139913e+37
-2.0110533e+37
-2.0123122e+37
-2.0032185e+37
-2.0049424e+37
-2.0029445e+37
-2.0007131e+37
-1.9918714e+37
-1.993408e+37
-1.9909705e+37
-1.9893812e+37
-1.9890989e+37
-1.9913e+37
-1.9876063e+37
-1.9860902e+37
-1.9881852e+37
-1.9948532e+37
-1.9927152e+37
-1.9956158e+37
-1.9958269e+37
-1.9987354e+37
-1.9953007e+37
-1.9977299e+37
-1.961994e+37
-1.9669496e+37
-1.977937e+37
-1.9731599e+37
-1.9875701e+37
-1.9849313e+37
-1.992426e+37
-1.9529545e+37
-1.9573114e+37
-1.9422401e+37
-1.947292e+37
-1.7753313e+37
-1.8869228e+37
-1.898926e+37
-1.9356671e+37
-1.9302245e+37
-1.9090215e+37
-1.9040791e+37
-1.9213089e+37
-1.9145387e+37
-1.9135419e+37
-1.9148118e+37
-1.9177235e+37
-1.9229199e+37
-1.9271629e+37
-1.9372988e+37
-1.9327176e+37
-2.0220308e+37
-1.9872981e+37
-1.9889942e+37
-2.0004662e+37
-1.9986563e+37
-1.9743358e+37
-1.9646562e+37
-1.9626042e+37
-1.9724661e+37
-1.959179e+37
-1.9611726e+37
-1.9709059e+37
-1.968863e+37
-1.9970188e+37
-1.9851684e+37
-1.9835483e+37
-1.9947825e+37
-2.0155803e+37
-2.0145374e+37
-2.010159e+37
-2.0111271e+37
-2.0177334e+37
-2.016636e+37
-2.0122492e+37
-2.0133119e+37
-2.0274922e+37
-2.0324081e+37
-2.0264936e+37
-2.031305e+37
-2.0252494e+37
-2.0302142e+37
-2.0243472e+37
-2.0291758e+37
-2.021278e+37
-2.0202937e+37
-2.0167673e+37
-2.0157435e+37
-2.0193645e+37
-2.0185654e+37
-2.0148086e+37
-2.0141615e+37
-2.0312777e+37
-2.0363104e+37
-2.0305132e+37
-2.0354217e+37
-2.0293623e+37
-2.0343077e+37
-2.0285643e+37
-2.0333686e+37
-2.0109687e+37
-2.0100897e+37
-1.990969e+37
-2.0058835e+37
-2.0066216e+37
-2.0131765e+37
-2.0119419e+37
-1.9928125e+37
-2.007639e+37
-2.0088067e+37
-2.0229203e+37
-2.0277883e+37
-2.0218019e+37
-1.9819678e+37
-1.9808722e+37
-2.0072592e+37
-2.0065122e+37
-1.9880041e+37
-2.0024694e+37
-2.0031074e+37
-2.0091279e+37
-2.0080978e+37
-1.9896358e+37
-2.0039514e+37
-2.004869e+37
-1.9797112e+37
-1.9777566e+37
-1.9649346e+37
-1.9551442e+37
-1.9533573e+37
-1.963166e+37
-1.9678186e+37
-1.9585967e+37
-1.9568572e+37
-1.9665073e+37
-1.9498935e+37
-1.9417574e+37
-1.9416022e+37
-1.9488601e+37
-1.9002542e+37
-1.9205286e+37
-1.9229974e+37
-1.9347685e+37
-1.9343192e+37
-1.9319553e+37
-1.9199419e+37
-1.9185982e+37
-1.9300297e+37
-1.8988126e+37
-1.8832712e+37
-1.8802515e+37
-1.9474098e+37
-1.938968e+37
-1.9371666e+37
-1.9454549e+37
-1.8979572e+37
-1.8983962e+37
-1.8803816e+37
-1.8843447e+37
-1.9442636e+37
-1.9362808e+37
-1.9351167e+37
-1.9431165e+37
-1.9180815e+37
-1.9294076e+37
-1.916788e+37
-1.9284101e+37
-1.9158701e+37
-1.9167558e+37
-1.9264224e+37
-1.9276257e+37
-1.9339941e+37
-1.9326545e+37
-1.9403245e+37
-1.9420851e+37
-1.8160915e+37
-1.8138598e+37
-1.982567e+37
-1.9795217e+37
-1.9786177e+37
-1.9816716e+37
-1.98489e+37
-1.9816581e+37
-1.9805907e+37
-1.9838311e+37
-1.968177e+37
-1.9689383e+37
-1.9722898e+37
-1.971426e+37
-1.9698786e+37
-1.9709151e+37
-1.9743364e+37
-1.9732786e+37
-1.9779261e+37
-1.9747882e+37
-1.9736396e+37
-1.9772031e+37
-1.9806351e+37
-1.9775139e+37
-1.976156e+37
-1.9793489e+37
-1.9703683e+37
-1.9671217e+37
-1.9655411e+37
-1.969026e+37
-1.9627321e+37
-1.9643163e+37
-1.9677207e+37
-1.9664514e+37
-1.9476582e+37
-1.9482597e+37
-1.9515805e+37
-1.9510593e+37
-1.9493427e+37
-1.9504604e+37
-1.9536941e+37
-1.9525845e+37
-1.9605305e+37
-1.963445e+37
-1.9624119e+37
-1.9596142e+37
-1.957974e+37
-1.9586029e+37
-1.9614602e+37
-1.9608758e+37
-1.9425053e+37
-1.9439861e+37
-1.9472606e+37
-1.9457728e+37
-1.9450747e+37
-1.9465699e+37
-1.95013e+37
-1.9485388e+37
-1.9599003e+37
-1.9568733e+37
-1.9553928e+37
-1.9583894e+37
-1.9569819e+37
-1.954033e+37
-1.9525688e+37
-1.9554882e+37
-1.9907376e+37
-1.9872912e+37
-1.9864285e+37
-1.9898739e+37
-2.0102712e+37
-2.0100574e+37
-1.9885038e+37
-1.9896191e+37
-1.9931658e+37
-1.9919348e+37
-2.0009572e+37
-1.9772609e+37
-1.9784477e+37
-1.9820342e+37
-1.9807467e+37
-1.9795322e+37
-1.9761146e+37
-1.9753636e+37
-1.9788434e+37
-1.9887411e+37
-1.9853359e+37
-1.9842968e+37
-1.9876618e+37
-1.9825909e+37
-1.9832684e+37
-1.9866412e+37
-1.9858723e+37
-1.97167e+37
-1.9721738e+37
-1.9757045e+37
-1.9751197e+37
-1.9731086e+37
-1.9741813e+37
-1.9777693e+37
-1.9766246e+37
-1.960312e+37
-1.9569469e+37
-1.9558705e+37
-1.9592056e+37
-1.9542576e+37
-1.9548393e+37
-1.9574527e+37
-1.9581319e+37
-1.9664798e+37
-1.9677218e+37
-1.9709677e+37
-1.9695406e+37
-1.9652964e+37
-1.9683444e+37
-1.9675128e+37
-1.9645427e+37
-1.9515149e+37
-1.9519621e+37
-1.9545236e+37
-1.9550469e+37
-1.952888e+37
-1.953626e+37
-1.9557616e+37
-1.9568179e+37
-1.9634429e+37
-1.9664636e+37
-1.9652745e+37
-1.9625338e+37
-1.961618e+37
-1.9644644e+37
-1.9639948e+37
-1.961244e+37
-1.8817137e+37
-1.9187273e+37
-1.9077545e+37
-1.9079582e+37
-1.9149586e+37
-1.9075866e+37
-1.9077358e+37
-1.9162562e+37
-1.9196891e+37
-1.881749e+37
-1.9336668e+37
-1.9346463e+37
-1.9381437e+37
-1.9373853e+37
-1.9354389e+37
-1.9359592e+37
-1.9400404e+37
-1.9391567e+37
-1.9452921e+37
-1.946122e+37
-1.9495615e+37
-1.9484226e+37
-1.9472336e+37
-1.9442135e+37
-1.9436399e+37
-1.946743e+37
-1.9225994e+37
-1.92486e+37
-1.9232413e+37
-1.9260499e+37
-1.9240703e+37
-1.9219292e+37
-1.9253399e+37
-1.920921e+37
-1.9259415e+37
-1.9261939e+37
-1.9284665e+37
-1.9284519e+37
-1.9275552e+37
-1.9254445e+37
-1.9247505e+37
-1.926716e+37
-1.9186811e+37
-1.9216435e+37
-1.9198806e+37
-1.9178591e+37
-1.9261974e+37
-1.923867e+37
-1.9227353e+37
-1.9258995e+37
-1.9163057e+37
-1.9200183e+37
-1.9180293e+37
-1.9167239e+37
-1.9208864e+37
-1.9225742e+37
-1.925108e+37
-1.9239429e+37
-1.9461299e+37
-1.9432389e+37
-1.9423869e+37
-1.9452608e+37
-1.9371204e+37
-1.9335019e+37
-1.9329424e+37
-1.9362978e+37
-1.9443309e+37
-1.9417073e+37
-1.9408712e+37
-1.9439117e+37
-1.9354909e+37
-1.9321625e+37
-1.9310946e+37
-1.9346404e+37
-1.9272446e+37
-1.9283528e+37
-1.931683e+37
-1.9310217e+37
-1.9289418e+37
-1.9300134e+37
-1.9336687e+37
-1.932483e+37
-1.9372598e+37
-1.9378859e+37
-1.9409786e+37
-1.9405201e+37
-1.9389249e+37
-1.9398952e+37
-1.9431581e+37
-1.9420439e+37
-1.9085358e+37
-1.915905e+37
-1.9165868e+37
-1.9195415e+37
-1.9180389e+37
-1.9074586e+37
-1.9175744e+37
-1.9173573e+37
-1.9197005e+37
-1.9199943e+37
-1.9205152e+37
-1.920991e+37
-1.9232919e+37
-1.9224431e+37
-1.9217074e+37
-1.9199757e+37
-1.9187434e+37
-1.9204725e+37
-1.9199765e+37
-1.9187526e+37
-1.911403e+37
-1.9116422e+37
-1.9144769e+37
-1.9144425e+37
-1.9111371e+37
-1.9091817e+37
-1.9157616e+37
-1.916121e+37
-1.9174505e+37
-1.916306e+37
-1.916174e+37
-1.9176032e+37
-1.9195509e+37
-1.9180318e+37
-1.9160966e+37
-1.9138878e+37
-1.9123525e+37
-1.9148279e+37
-1.9219601e+37
-1.9283171e+37
-1.9220966e+37
-1.923291e+37
-1.9278013e+37
-1.926203e+37
-1.9249436e+37
-1.9263295e+37
-1.930436e+37
-1.9290351e+37
-1.9324631e+37
-1.9338667e+37
-1.9371429e+37
-1.9358354e+37
-1.9350858e+37
-1.936341e+37
-1.9397559e+37
-1.9383226e+37
-1.8075734e+37
-1.9249306e+37
-1.9052237e+37
-1.8255493e+37
-1.8731744e+37
-1.8863452e+37
-1.8470554e+37
-1.9267925e+37
-1.9125341e+37
-1.9075813e+37
-1.9566922e+37
-1.9732069e+37
-1.9457075e+37
-2.011612e+37
-2.0154763e+37
-2.0109213e+37
-2.0374688e+37
-2.0440829e+37
-2.0207368e+37
-2.0660634e+37
-2.074325e+37
-1.9560482e+37
-1.9619967e+37
-1.9615582e+37
-1.9485607e+37
-1.9567355e+37
-1.9677018e+37
-1.9452134e+37
-1.9401021e+37
-1.9467621e+37
-1.9899977e+37
-1.9862019e+37
-1.9801861e+37
-1.9951074e+37
-2.0035178e+37
-1.9728345e+37
-1.9784198e+37
-1.9947922e+37
-1.9886698e+37
-2.0733808e+37
-2.0660647e+37
-2.031358e+37
-2.0321991e+37
-2.0367586e+37
-2.0305976e+37
-2.026027e+37
-2.0346656e+37
-2.038395e+37
-2.0547422e+37
-2.0476938e+37
-2.013758e+37
-2.0200946e+37
-2.0247313e+37
-2.0183128e+37
-2.0409722e+37
-2.0349464e+37
-2.0285549e+37
-2.0338284e+37
-2.0472519e+37
-2.0412567e+37
-2.0474634e+37
-2.0542706e+37
-2.0145394e+37
-2.0154527e+37
-2.0088251e+37
-2.0074541e+37
-2.0212814e+37
-2.0227482e+37
-2.0285148e+37
-2.0301897e+37
-1.9009308e+37
-1.8900762e+37
-1.8910152e+37
-1.8992124e+37
-1.9048986e+37
-1.9187025e+37
-1.905148e+37
-1.9265724e+37
-1.9280851e+37
-1.9277205e+37
-1.9066831e+37
-1.9054186e+37
-1.9030897e+37
-1.9208238e+37
-1.9294011e+37
-1.8924921e+37
-1.8896392e+37
-1.9020563e+37
-1.8935012e+37
-1.8932118e+37
-1.8165039e+37
-1.8806222e+37
-1.8799603e+37
-1.7638658e+37
-1.8761597e+37
-1.88984e+37
-1.8794897e+37
-1.8935178e+37
-1.9179473e+37
-1.9240374e+37
-1.9279952e+37
-1.900924e+37
-1.9131379e+37
-1.892261e+37
-1.8967841e+37
-1.9149081e+37
-1.911157e+37
-1.8959493e+37
-1.925066e+37
-1.9068745e+37
-1.9111248e+37
-1.9046872e+37
-1.9245196e+37
-1.9324817e+37
-1.8933333e+37
-1.8937813e+37
-1.8997356e+37
-1.8872782e+37
-1.8800516e+37
-1.8861283e+37
-1.9069973e+37
-1.9207549e+37
-1.9141441e+37
-1.918843e+37
-1.9245765e+37
-1.9357781e+37
-1.9288433e+37
-1.932328e+37
-1.9373715e+37
-1.9248045e+37
-1.9169877e+37
-1.92799e+37
-1.9204186e+37
-1.9358323e+37
-1.9383412e+37
-1.9385319e+37
-1.9364716e+37
-1.9282641e+37
-1.9314988e+37
-1.9324423e+37
-1.9301532e+37
-1.9315944e+37
-1.9318234e+37
-1.9318719e+37
-1.9322424e+37
-1.9258283e+37
-1.9287224e+37
-1.9276847e+37
-1.9254632e+37
-1.9328452e+37
-1.9288508e+37
-1.931354e+37
-1.9360837e+37
-1.9367812e+37
-1.9394003e+37
-1.9454613e+37
-1.9428513e+37
-1.9492836e+37
-1.9515199e+37
-1.9504663e+37
-1.9504165e+37
-1.9426853e+37
-1.9385127e+37
-1.9456258e+37
-1.942071e+37
-1.9408033e+37
-1.9442004e+37
-1.9450658e+37
-1.9413076e+37
-1.9448954e+37
-1.9493974e+37
-1.9500441e+37
-1.9462537e+37
-1.9430614e+37
-1.9410139e+37
-1.9389028e+37
-1.9399214e+37
-1.9345002e+37
-1.9367574e+37
-1.9371745e+37
-1.9348168e+37
-1.8839939e+37
-1.8969086e+37
-1.8889105e+37
-1.8857083e+37
-1.8918496e+37
-1.9055997e+37
-1.8982127e+37
-1.8941732e+37
-1.9011412e+37
-1.9141513e+37
-1.9060423e+37
-1.9089813e+37
-1.9143765e+37
-1.8907822e+37
-1.8935952e+37
-1.8865884e+37
-1.8950907e+37
-1.9041496e+37
-1.8940746e+37
-1.9081457e+37
-1.8936457e+37
-1.9035932e+37
-1.9060647e+37
-1.9097214e+37
-1.9090237e+37
-1.9124766e+37
-1.9131894e+37
-1.9121535e+37
-1.9117618e+37
-1.9119739e+37
-1.9065895e+37
-1.9143903e+37
-1.9179848e+37
-1.9241104e+37
-1.9215858e+37
-1.9219402e+37
-1.9253397e+37
-1.9232953e+37
-1.9218964e+37
-1.9183327e+37
-1.9200836e+37
-1.9156527e+37
-1.9173022e+37
-1.9145998e+37
-1.9146369e+37
-1.9635074e+37
-1.9625476e+37
-1.9680582e+37
-1.965341e+37
-1.957299e+37
-1.9496853e+37
-1.9425288e+37
-1.9732578e+37
-1.974935e+37
-1.9765037e+37
-1.9754056e+37
-1.9814705e+37
-1.9800331e+37
-1.9815563e+37
-1.982508e+37
-1.996392e+37
-1.9982084e+37
-1.9978316e+37
-1.996483e+37
-1.9887198e+37
-1.9885105e+37
-1.99026e+37
-1.9904048e+37
-1.9892086e+37
-1.9882955e+37
-1.9892406e+37
-1.9906009e+37
-1.9964101e+37
-1.9967154e+37
-1.9948181e+37
-1.9941816e+37
-1.9922502e+37
-1.9929322e+37
-1.9894196e+37
-1.9885514e+37
-1.9833165e+37
-1.9865812e+37
-1.9845856e+37
-1.9878017e+37
-1.9727038e+37
-1.9782411e+37
-1.9787231e+37
-1.9778787e+37
-1.9822763e+37
-1.9828616e+37
-1.9834861e+37
-1.9829373e+37
-1.9817473e+37
-1.9807866e+37
-1.9782713e+37
-1.9791162e+37
-1.9762976e+37
-1.9760559e+37
-1.9741375e+37
-1.9745285e+37
-1.9845711e+37
-1.9871741e+37
-1.9861426e+37
-1.983591e+37
-1.9819949e+37
-1.9805935e+37
-1.9781332e+37
-1.9794941e+37
-1.9827301e+37
-1.9841526e+37
-1.9809218e+37
-1.9798788e+37
-1.9747768e+37
-1.9770895e+37
-1.9757656e+37
-1.9786646e+37
-1.9763094e+37
-1.975454e+37
-1.9731159e+37
-1.973897e+37
-1.9715204e+37
-1.9706144e+37
-1.9678249e+37
-1.9690802e+37
-1.9727523e+37
-1.9719703e+37
-1.9693017e+37
-1.9700624e+37
-1.9678886e+37
-1.966127e+37
-1.9634178e+37
-1.9652801e+37
-1.9638173e+37
-1.9629107e+37
-1.9670711e+37
-1.9674675e+37
-1.9666446e+37
-1.9667534e+37
-1.965792e+37
-1.9661768e+37
-1.9729509e+37
-1.9686704e+37
-1.9733339e+37
-1.9705176e+37
-1.9701197e+37
-1.9716616e+37
-1.9702107e+37
-1.9713174e+37
-1.9589555e+37
-1.9628447e+37
-1.9631415e+37
-1.9599571e+37
-1.9531057e+37
-1.9558736e+37
-1.9566147e+37
-1.9537878e+37
-1.9584493e+37
-1.96146e+37
-1.962406e+37
-1.9592448e+37
-1.9635874e+37
-1.9666323e+37
-1.9638782e+37
-1.9666975e+37
-1.9498677e+37
-1.9507313e+37
-1.9495346e+37
-1.9549193e+37
-1.9571294e+37
-1.9558667e+37
-1.9610127e+37
-1.9608965e+37
-1.9569269e+37
-1.9605886e+37
-1.9581958e+37
-1.9564023e+37
-1.9604379e+37
-1.9615006e+37
-1.9610649e+37
-1.9609651e+37
-1.9586777e+37
-1.9585377e+37
-1.9541585e+37
-1.9550753e+37
-1.9504359e+37
-1.9554214e+37
-1.9551634e+37
-1.9507104e+37
-1.9519004e+37
-1.9509391e+37
-1.9482626e+37
-1.9489631e+37
-1.9442088e+37
-1.9473965e+37
-1.9465655e+37
-1.9443425e+37
-2.0125309e+37
-2.0110456e+37
-2.0015933e+37
-2.0050655e+37
-2.007586e+37
-2.0084039e+37
-2.0027512e+37
-2.0155521e+37
-2.0176083e+37
-2.0239097e+37
-2.0216278e+37
-2.0020377e+37
-2.002435e+37
-2.0000387e+37
-2.0009702e+37
-2.0076968e+37
-2.0104089e+37
-2.0053203e+37
-2.0076973e+37
-1.9974853e+37
-1.9993001e+37
-1.9967654e+37
-1.994642e+37
-2.0021851e+37
-2.0050035e+37
-1.9999324e+37
-2.0026371e+37
-2.0084037e+37
-2.0108313e+37
-2.0080056e+37
-2.0055839e+37
-2.0112971e+37
-2.01409e+37
-2.0163784e+37
-2.0136406e+37
-2.0170388e+37
-2.0201026e+37
-2.0226003e+37
-2.0193506e+37
-2.0164387e+37
-2.0141375e+37
-2.0113834e+37
-2.0137315e+37
-2.0037096e+37
-2.0061071e+37
-2.0045335e+37
-2.0015411e+37
-1.9923362e+37
-1.9923396e+37
-1.9947375e+37
-1.9927541e+37
-1.9903864e+37
-1.9922533e+37
-1.9954135e+37
-1.9941359e+37
-1.9935613e+37
-1.9989827e+37
-1.9915027e+37
-1.9990146e+37
-1.99793e+37
-2.0003008e+37
-1.9961122e+37
-1.9980887e+37
-1.9626911e+37
-1.9657582e+37
-1.9608603e+37
-1.9683279e+37
-1.9700232e+37
-1.9684693e+37
-1.978892e+37
-1.9809333e+37
-1.9792273e+37
-1.9740364e+37
-1.9757184e+37
-1.9738961e+37
-1.9844444e+37
-1.9844388e+37
-1.9872263e+37
-1.9871995e+37
-1.9874445e+37
-1.9847796e+37
-1.9939718e+37
-1.9530276e+37
-1.9533664e+37
-1.9545148e+37
-1.9573676e+37
-1.9599305e+37
-1.9571435e+37
-1.942353e+37
-1.9416584e+37
-1.9480556e+37
-1.9478018e+37
-1.9499094e+37
-1.9504222e+37
-1.9287808e+37
-1.9292884e+37
-1.9329834e+37
-1.9403472e+37
-1.9345725e+37
-1.9135829e+37
-1.9244827e+37
-1.910688e+37
-1.9134696e+37
-1.9229793e+37
-1.9198049e+37
-1.9179332e+37
-1.9183202e+37
-1.9198935e+37
-1.920837e+37
-1.9227063e+37
-1.9229148e+37
-1.9191616e+37
-1.9346764e+37
-1.9237551e+37
-1.9243263e+37
-1.9286684e+37
-1.9337122e+37
-1.9328785e+37
-1.93754e+37
-1.9405705e+37
-1.9399173e+37
-1.9334345e+37
-1.937559e+37
-1.9368689e+37
-2.0330711e+37
-2.0324199e+37
-2.0231951e+37
-2.022475e+37
-2.0180112e+37
-2.0186707e+37
-1.9891356e+37
-1.9898072e+37
-1.9937839e+37
-1.992998e+37
-1.9907298e+37
-1.9918224e+37
-1.9957031e+37
-1.9945896e+37
-2.0079465e+37
-2.0037247e+37
-2.00279e+37
-2.0068956e+37
-2.0012474e+37
-2.0018952e+37
-2.0060289e+37
-2.0053378e+37
-1.9833505e+37
-1.9800255e+37
-1.9789937e+37
-1.9821874e+37
-1.9726853e+37
-1.9694476e+37
-1.9684105e+37
-1.9716776e+37
-1.9666015e+37
-1.9672218e+37
-1.9707845e+37
-1.9700459e+37
-1.9813979e+37
-1.9780835e+37
-1.9774251e+37
-1.9807594e+37
-1.9633564e+37
-1.9641402e+37
-1.9674727e+37
-1.9666384e+37
-1.9650592e+37
-1.96589e+37
-1.9693507e+37
-1.9683094e+37
-1.9797782e+37
-1.9764533e+37
-1.9755795e+37
-1.9787653e+37
-1.9779735e+37
-1.9746991e+37
-1.9739685e+37
-1.9772418e+37
-2.004534e+37
-2.0003787e+37
-1.9992574e+37
-2.0034145e+37
-1.9921085e+37
-1.9881013e+37
-1.9870536e+37
-1.9909763e+37
-1.9854494e+37
-1.9861462e+37
-1.9900987e+37
-1.9891794e+37
-2.0023355e+37
-1.9981204e+37
-1.9972329e+37
-2.0013384e+37
-2.0204784e+37
-2.0198618e+37
-2.0201845e+37
-2.0195946e+37
-2.0189401e+37
-2.0184048e+37
-2.0191105e+37
-2.0185511e+37
-2.0093886e+37
-2.0105871e+37
-2.0224776e+37
-2.0221387e+37
-2.0221597e+37
-2.0217179e+37
-2.0211563e+37
-2.0206552e+37
-2.0215865e+37
-2.021068e+37
-2.0116965e+37
-2.0126262e+37
-2.0278484e+37
-2.0273771e+37
-2.0285029e+37
-2.0290415e+37
-2.0344912e+37
-2.0361109e+37
-2.0355605e+37
-2.0340027e+37
-2.0275026e+37
-2.0268111e+37
-2.0279875e+37
-2.0263376e+37
-2.0333849e+37
-2.0349875e+37
-2.0329123e+37
-2.0345062e+37
-2.0257444e+37
-2.0251527e+37
-2.0269607e+37
-2.0263324e+37
-2.0317607e+37
-2.0339659e+37
-2.0333699e+37
-2.0323386e+37
-2.0245345e+37
-2.0240492e+37
-2.0252906e+37
-2.0257665e+37
-2.0310595e+37
-2.030597e+37
-2.0327348e+37
-2.0322433e+37
-2.0262119e+37
-2.0261728e+37
-2.0259319e+37
-2.0257172e+37
-2.0251412e+37
-2.0245859e+37
-2.0256059e+37
-2.024938e+37
-2.0162049e+37
-2.0152408e+37
-2.0244703e+37
-2.0239148e+37
-2.0241842e+37
-2.0236079e+37
-2.0230617e+37
-2.0226169e+37
-2.0233698e+37
-2.0229186e+37
-2.0143261e+37
-2.0134522e+37
-2.0324307e+37
-2.0316307e+37
-2.0328038e+37
-2.0313716e+37
-2.0383447e+37
-2.0380118e+37
-2.0399809e+37
-2.0395868e+37
-2.0314868e+37
-2.0308707e+37
-2.0319597e+37
-2.0304006e+37
-2.0390133e+37
-2.0374319e+37
-2.036989e+37
-2.0385655e+37
-2.0304502e+37
-2.0299248e+37
-2.0310358e+37
-2.0293718e+37
-2.0380781e+37
-2.0364937e+37
-2.0359761e+37
-2.0375512e+37
-2.0295733e+37
-2.0288107e+37
-2.0299943e+37
-2.0283925e+37
-2.0370318e+37
-2.0354083e+37
-2.0350032e+37
-2.0366269e+37
-2.0159528e+37
-2.0153995e+37
-2.0154594e+37
-2.0148998e+37
-2.0143175e+37
-2.0139227e+37
-2.0147795e+37
-2.0143461e+37
-1.9979002e+37
-1.9942801e+37
-1.9936347e+37
-1.9972356e+37
-2.0052985e+37
-2.006172e+37
-2.0179826e+37
-2.017702e+37
-2.0177232e+37
-2.0172483e+37
-2.0165737e+37
-2.0159523e+37
-2.0171164e+37
-2.0164669e+37
-2.0000823e+37
-1.9961405e+37
-1.9951206e+37
-1.9988986e+37
-2.0071622e+37
-2.0081488e+37
-2.023898e+37
-2.0233599e+37
-2.0245117e+37
-2.0228466e+37
-2.0299292e+37
-2.0314876e+37
-2.0308748e+37
-2.029387e+37
-2.0227125e+37
-2.0221975e+37
-2.023284e+37
-2.0216362e+37
-1.9881893e+37
-1.9845064e+37
-1.9835443e+37
-1.9871795e+37
-1.9824194e+37
-1.9828752e+37
-1.9865033e+37
-1.9858616e+37
-2.0121963e+37
-2.0118005e+37
-2.0116182e+37
-2.0111734e+37
-2.0106426e+37
-2.0102829e+37
-2.0112997e+37
-2.0108761e+37
-1.9946681e+37
-1.9913251e+37
-1.9907492e+37
-1.9941777e+37
-2.0020171e+37
-2.0028088e+37
-2.0138646e+37
-2.0135666e+37
-2.0134513e+37
-2.0130585e+37
-2.012507e+37
-2.0120528e+37
-2.0131065e+37
-2.0126363e+37
-1.9963498e+37
-1.992711e+37
-1.9919299e+37
-1.9954478e+37
-2.003649e+37
-2.0044086e+37
-1.9851833e+37
-1.9818632e+37
-1.9810965e+37
-1.9844286e+37
-1.9795771e+37
-1.980306e+37
-1.9837461e+37
-1.98307e+37
-1.97397e+37
-1.9709572e+37
-1.9701074e+37
-1.9731448e+37
-1.9634691e+37
-1.9600945e+37
-1.9593576e+37
-1.9626805e+37
-1.9579193e+37
-1.9585771e+37
-1.9619131e+37
-1.961325e+37
-1.9723448e+37
-1.9692068e+37
-1.9686606e+37
-1.9717779e+37
-1.9761774e+37
-1.9729726e+37
-1.9721438e+37
-1.9752236e+37
-1.9657902e+37
-1.9626254e+37
-1.961818e+37
-1.964948e+37
-1.9606545e+37
-1.9612021e+37
-1.9644326e+37
-1.9640685e+37
-1.9747524e+37
-1.9716931e+37
-1.971411e+37
-1.9744649e+37
-1.9614776e+37
-1.958403e+37
-1.957257e+37
-1.9603293e+37
-1.9514012e+37
-1.9474004e+37
-1.9466918e+37
-1.9505655e+37
-1.9446708e+37
-1.9455577e+37
-1.9495994e+37
-1.9486958e+37
-1.9592179e+37
-1.9557763e+37
-1.955027e+37
-1.9586396e+37
-1.9139598e+37
-1.9228362e+37
-1.9171449e+37
-1.9121719e+37
-1.9272935e+37
-1.9284364e+37
-1.9328678e+37
-1.9315988e+37
-1.9284622e+37
-1.9287755e+37
-1.9314457e+37
-1.9329297e+37
-1.9356997e+37
-1.9350429e+37
-1.9389476e+37
-1.9387393e+37
-1.9378501e+37
-1.9344566e+37
-1.9335909e+37
-1.9367191e+37
-1.9350801e+37
-1.9328264e+37
-1.9325867e+37
-1.9351718e+37
-1.9112959e+37
-1.9305293e+37
-1.9262021e+37
-1.9247791e+37
-1.9298617e+37
-1.9097574e+37
-1.9233636e+37
-1.9246541e+37
-1.9282639e+37
-1.9274827e+37
-1.9347313e+37
-1.9312819e+37
-1.9308332e+37
-1.9337913e+37
-1.9157482e+37
-1.9179377e+37
-1.8771536e+37
-1.8737931e+37
-1.9577369e+37
-1.9543799e+37
-1.9537759e+37
-1.9569516e+37
-1.9481258e+37
-1.9438704e+37
-1.9435988e+37
-1.9475595e+37
-1.9418832e+37
-1.9428103e+37
-1.94692e+37
-1.9459885e+37
-1.9563124e+37
-1.9531084e+37
-1.9524702e+37
-1.9556595e+37
-1.9090997e+37
-1.9089414e+37
-1.9176686e+37
-1.9152818e+37
-1.908659e+37
-1.909137e+37
-1.9162045e+37
-1.920905e+37
-1.8745372e+37
-1.8798744e+37
-1.9548233e+37
-1.9518009e+37
-1.9508878e+37
-1.9539292e+37
-1.944891e+37
-1.9408831e+37
-1.9407101e+37
-1.9442485e+37
-1.9399626e+37
-1.9436052e+37
-1.9430216e+37
-1.9393781e+37
-1.9533935e+37
-1.9502451e+37
-1.9498582e+37
-1.9533105e+37
-1.9273121e+37
-1.9233087e+37
-1.9226812e+37
-1.9273802e+37
-1.9300127e+37
-1.9329857e+37
-1.9330222e+37
-1.9302431e+37
-1.921538e+37
-1.9260146e+37
-1.9227269e+37
-1.9256421e+37
-1.928726e+37
-1.9315694e+37
-1.9288966e+37
-1.9324923e+37
-1.9211831e+37
-1.9212657e+37
-1.9255168e+37
-1.9252008e+37
-1.9238132e+37
-1.9213826e+37
-1.9249957e+37
-1.921645e+37
-1.9273376e+37
-1.9298437e+37
-1.9284414e+37
-1.9260647e+37
-1.9278756e+37
-1.9305291e+37
-1.9282433e+37
-1.9310089e+37
-1.9388857e+37
-1.9428264e+37
-1.9421764e+37
-1.9383849e+37
-1.9377344e+37
-1.9416089e+37
-1.9407416e+37
-1.9364531e+37
-1.9471409e+37
-1.9479477e+37
-1.9511083e+37
-1.9505201e+37
-1.9485818e+37
-1.9491971e+37
-1.952689e+37
-1.9518788e+37
-1.803213e+37
-1.8000615e+37
-1.9845742e+37
-1.9794749e+37
-1.9784327e+37
-1.9834842e+37
-1.98656e+37
-1.9813388e+37
-1.9804257e+37
-1.9856073e+37
-1.967838e+37
-1.9687876e+37