/*--------------------------------*- C++ -*----------------------------------*\
  =========                 |
  \\      /  F ield         | OpenFOAM: The Open Source CFD Toolbox
   \\    /   O peration     | Website:  https://openfoam.org
    \\  /    A nd           | Version:  7
     \\/     M anipulation  |
\*---------------------------------------------------------------------------*/
FoamFile
{
    version     2.0;
    format      ascii;
    class       volVectorField;
    location    "3000";
    object      U;
}
// * * * * * * * * * * * * * * * * * * * * * * * * * * * * * * * * * * * * * //

dimensions      [0 1 -1 0 0 0 0];

internalField   nonuniform List<vector> 
33733
(
(-2.6442609e+19 2.5304115e+18 -2.1116245e+17)
(-2.1377839e+19 -4.3393493e+17 -1.1909832e+17)
(-2.6482382e+19 2.9637031e+18 1.1001927e+17)
(-1.9959713e+19 2.8032506e+18 4.1944721e+17)
(-1.9832539e+19 2.5185379e+18 1.6267681e+18)
(-2.7856959e+19 1.0314415e+18 -2.8759809e+17)
(-1.8184895e+19 6.6791791e+17 -3.6026848e+17)
(-1.8165536e+19 -6.682961e+17 -1.5650463e+18)
(-2.0660753e+19 1.4856533e+18 2.2391287e+18)
(-1.9126611e+19 2.3978091e+17 -2.4750363e+17)
(-2.1354099e+19 2.8303737e+18 6.609473e+17)
(-2.0097943e+19 -7.0004616e+17 1.443324e+18)
(-2.0350889e+19 1.3069654e+18 -4.9199228e+17)
(-2.1133721e+19 1.7319485e+18 -2.0235529e+17)
(-2.0345056e+19 -8.9205556e+17 5.8062608e+17)
(-1.9567222e+19 1.2848734e+17 -4.2682195e+17)
(-2.825516e+19 1.0042822e+18 -1.1389988e+17)
(-1.8306457e+19 7.5199992e+17 5.4738469e+17)
(-2.0202827e+19 2.7969571e+18 -3.2898004e+17)
(-1.9893265e+19 -1.1390044e+18 1.4554689e+17)
(-1.9513176e+19 -1.2148423e+18 2.5124377e+17)
(-1.9940912e+19 5.5844832e+17 4.2485132e+16)
(-2.0013905e+19 5.7611815e+17 3.1841002e+17)
(-1.914936e+19 -1.3291426e+18 -5.4836303e+17)
(-1.9404191e+19 -1.2033444e+18 -1.2675236e+18)
(-1.3368076e+19 -1.9598768e+18 -5.0347911e+16)
(-2.0252672e+19 4.1654498e+18 2.2241767e+17)
(-1.8937617e+19 3.2998427e+18 2.392519e+18)
(-1.2300726e+19 -8.530041e+17 -1.820795e+18)
(-1.6894362e+19 3.1054984e+17 -2.7284837e+17)
(-1.9262559e+19 1.1242479e+18 9.4245787e+16)
(-1.6831695e+19 -6.4833389e+17 -6.4105425e+17)
(-1.9575044e+19 8.8773833e+17 6.0131951e+17)
(-2.0786321e+19 1.9487016e+17 2.3355643e+18)
(-2.1431645e+19 1.4413306e+18 2.8811268e+18)
(-1.9362908e+19 -1.8268742e+16 4.7076271e+17)
(-1.897522e+19 8.132409e+17 7.929871e+16)
(-1.9691151e+19 3.2403636e+17 3.1389013e+17)
(-1.9029345e+19 -2.9275236e+17 -1.5144002e+18)
(-1.6914553e+19 -9.4685254e+16 3.1938783e+16)
(-2.084338e+19 1.3819276e+18 3.4213669e+18)
(-1.9140847e+19 3.9201402e+17 7.5161761e+17)
(-1.3809346e+19 8.9421157e+17 -2.8245566e+18)
(-2.1649629e+19 1.9520856e+18 4.5054355e+17)
(-2.0150466e+19 5.743434e+17 -2.0336981e+17)
(-1.9818811e+19 -1.2471994e+18 1.5610563e+18)
(-1.9338333e+19 -1.5752229e+18 8.4820377e+17)
(-2.0696675e+19 7.1853502e+17 1.9917055e+17)
(-1.9777418e+19 -1.067692e+16 1.3344582e+18)
(-1.9742713e+19 7.4872238e+17 -1.0298832e+18)
(-2.0603109e+19 5.0651852e+17 6.0117996e+17)
(-2.0311151e+19 7.2055479e+17 -4.7359655e+17)
(-1.8676461e+19 -1.0102355e+18 7.8823161e+17)
(-2.0639003e+19 3.9018224e+18 -9.6690543e+16)
(-1.9825876e+19 7.5445e+17 -1.1386026e+16)
(-1.7303496e+19 -1.0567309e+18 1.6176167e+17)
(-1.4014435e+19 -2.1109397e+18 6.5630473e+17)
(-1.3687681e+19 -2.1961379e+18 -2.997938e+17)
(-2.0535167e+19 4.2710791e+18 -1.2788204e+17)
(-2.0310694e+19 1.0487906e+18 3.7345921e+17)
(-1.7500685e+19 -2.4326455e+17 -3.0159993e+17)
(-1.9520465e+19 1.0482524e+18 -2.9183352e+17)
(-1.6876256e+19 4.8188358e+16 2.3145507e+17)
(-1.9971302e+19 -1.5818327e+18 8.425021e+16)
(-2.0379825e+19 3.8910761e+17 5.8753732e+17)
(-1.9744341e+19 2.3826265e+17 -2.7504555e+17)
(-1.919231e+19 -1.7927017e+18 2.4106324e+16)
(-1.8908681e+19 4.0351928e+17 2.5947901e+17)
(-1.8689976e+19 -9.4213141e+17 1.1502748e+18)
(-1.7490385e+19 -1.0532909e+18 4.0436884e+17)
(-1.8011981e+19 3.2716997e+17 1.4925329e+17)
(-1.7053825e+19 -6.5571423e+17 -1.1102681e+17)
(-1.7683108e+19 6.5083384e+17 3.4944491e+17)
(-1.7130969e+19 -5.5456492e+17 2.1853781e+17)
(-1.796705e+19 -6.5652879e+17 -2.1791448e+17)
(-1.9001307e+19 -1.0643519e+18 -9.9848824e+17)
(-1.8437077e+19 3.3717249e+17 7.6745734e+16)
(-1.901785e+19 -5.2482095e+16 -1.0566631e+17)
(-1.8699463e+19 9.3436145e+15 -1.6993691e+17)
(-1.8173398e+19 -1.3330672e+18 -6.2596071e+17)
(-1.9076478e+19 -1.3093109e+18 -1.2362097e+18)
(-1.9455831e+19 -1.5913894e+17 -2.3247507e+17)
(-2.5591993e+19 -1.873301e+18 -2.6991581e+18)
(-1.6246315e+19 5.0168335e+17 -3.352924e+17)
(-1.2462111e+19 -4.9607462e+17 7.1860174e+16)
(-1.769512e+19 3.1219579e+18 2.7271535e+17)
(-1.6912998e+19 1.8264621e+18 1.5038673e+18)
(-1.1536899e+19 -4.6307569e+17 -7.6966393e+17)
(-1.7047141e+19 -3.995735e+17 -5.6663893e+17)
(-1.7463382e+19 -8.8811763e+17 -7.6459378e+17)
(-1.8882628e+19 9.0081867e+16 -2.9975563e+17)
(-1.9499994e+19 3.6538354e+16 -1.0994113e+17)
(-1.826448e+19 -1.6045597e+18 -7.683744e+17)
(-1.8946408e+19 -4.880046e+17 -4.4264357e+17)
(-1.9035491e+19 -1.413726e+18 -1.3073395e+18)
(-1.947261e+19 -4.9708336e+17 -5.2644985e+17)
(-2.2029285e+19 1.734266e+18 3.0052775e+18)
(-1.9395053e+19 9.9233613e+17 -2.5036069e+18)
(-1.976037e+19 8.1918154e+17 -1.9271486e+18)
(-1.9714657e+19 6.0700147e+17 -2.0222466e+18)
(-2.1791583e+19 2.2132547e+17 2.6291897e+18)
(-1.9705244e+19 1.6613271e+17 4.2291824e+17)
(-1.9569341e+19 8.7265725e+17 1.2716598e+17)
(-1.9933883e+19 5.7998487e+17 4.8445682e+16)
(-1.938518e+19 -1.5715263e+17 -2.1023117e+17)
(-1.8887665e+19 -1.7217881e+17 -2.1063546e+18)
(-1.8502994e+19 7.8639577e+16 -2.256058e+18)
(-2.0046918e+19 7.679118e+17 -2.0244847e+16)
(-1.9512971e+19 -3.8304151e+16 -2.3815469e+17)
(-1.8868054e+19 1.1307802e+17 -2.126187e+18)
(-1.865667e+19 2.8161718e+17 -2.1916274e+18)
(-2.2621711e+19 1.1142491e+18 4.1892084e+18)
(-1.9489063e+19 5.7027097e+17 1.4541808e+18)
(-1.6385977e+19 -3.6501795e+17 4.8108712e+17)
(-1.7099399e+19 -3.065267e+17 3.1799386e+17)
(-1.9901657e+19 -4.2569808e+17 1.3018072e+18)
(-1.9453014e+19 3.3801019e+17 1.2057281e+18)
(-1.6574299e+19 -3.9276456e+17 3.157505e+17)
(-1.6444e+19 -1.3575715e+16 1.3324547e+17)
(-2.1496492e+19 5.3877618e+17 3.918062e+18)
(-1.8942202e+19 -3.5355733e+17 7.7859596e+17)
(-1.482036e+19 1.2861596e+18 -3.5630463e+18)
(-1.4292471e+19 1.8618815e+17 -3.3692724e+18)
(-1.7606145e+19 -1.4248935e+17 -8.4757676e+17)
(-1.7887557e+19 7.9455837e+16 1.14972e+17)
(-1.8256528e+19 -1.1828726e+17 -1.1084626e+17)
(-1.7950289e+19 -5.389628e+17 -1.4063227e+18)
(-1.8860549e+19 1.524795e+16 -3.4737767e+16)
(-1.7048896e+19 -4.3837531e+17 -5.1303731e+17)
(-1.7667719e+19 7.8558279e+17 2.6454551e+18)
(-1.2728469e+19 4.5167466e+17 -7.9224128e+17)
(-1.8539089e+19 -4.9788315e+17 -1.5207881e+18)
(-1.8739203e+19 -2.4990762e+17 -5.2400226e+17)
(-2.0245558e+19 1.1104654e+18 -4.9280365e+17)
(-2.1784891e+19 1.4502101e+18 3.7058959e+17)
(-2.1751969e+19 1.5979357e+18 -3.206508e+16)
(-1.9671939e+19 1.5826699e+17 -4.8240604e+17)
(-1.9172313e+19 -5.9157406e+17 1.592522e+18)
(-1.9526517e+19 -2.8979666e+17 1.0553772e+18)
(-2.0304521e+19 -8.1682404e+16 9.969998e+17)
(-1.956714e+19 3.8879443e+17 1.822564e+18)
(-1.9551924e+19 1.832787e+17 -8.1868906e+17)
(-2.0071051e+19 6.2259789e+17 7.5656809e+17)
(-1.7163297e+19 -5.1111776e+17 1.2862507e+18)
(-1.7412654e+19 2.2455613e+16 4.5044815e+16)
(-1.9024094e+19 -6.7747894e+16 -6.2327625e+17)
(-1.7332074e+19 -8.1894785e+17 6.1489055e+17)
(-1.831909e+19 8.9147972e+17 -1.7278023e+18)
(-1.296445e+19 -1.0979344e+18 -2.7645887e+17)
(-1.3449263e+19 -1.3696193e+18 -1.0813036e+18)
(-1.9006753e+19 1.5477491e+18 -7.2112187e+17)
(-1.862578e+19 -5.5373487e+17 8.4586568e+17)
(-1.7616824e+19 -2.0196588e+17 -3.7487849e+17)
(-1.6293721e+19 5.4283695e+17 1.6037853e+18)
(-2.5010956e+19 -2.3966645e+18 5.6385226e+16)
(-1.6190646e+19 2.291634e+17 -4.7880259e+17)
(-1.8266564e+19 2.6650676e+18 -1.8417733e+17)
(-1.2463914e+19 -9.7330303e+17 7.9852705e+17)
(-1.2409696e+19 -8.1161419e+17 2.8797771e+17)
(-1.803383e+19 3.1285932e+18 4.8288169e+16)
(-1.9930716e+19 -7.8927636e+17 6.135232e+17)
(-1.9051103e+19 -1.9638698e+18 1.3519487e+18)
(-1.8782777e+19 -1.8285628e+18 6.2674233e+17)
(-1.9700458e+19 -5.9322587e+17 2.4781339e+17)
(-1.9613387e+19 -5.4503028e+17 -1.2119943e+17)
(-1.7714957e+19 -1.4700236e+18 4.4323705e+17)
(-1.8977241e+19 -5.706019e+17 3.2994048e+17)
(-1.6967567e+19 -1.6465253e+18 3.2225478e+17)
(-1.7928002e+19 -2.3197324e+18 -3.4872145e+17)
(-1.7768241e+19 -2.2052551e+18 -4.5872518e+17)
(-1.9048455e+19 -8.3044349e+17 -2.4962534e+17)
(-1.8799459e+19 -7.0863166e+17 -6.4802486e+17)
(-1.7041484e+19 -1.0104632e+18 -3.9125342e+17)
(-1.9153345e+19 -1.7696346e+17 -2.4434434e+16)
(-1.6778011e+19 -9.5901735e+17 -2.6984621e+17)
(-1.8821246e+19 -8.7942925e+16 -7.1133429e+17)
(-1.9161172e+19 -1.7144023e+18 1.5416591e+18)
(-1.9518955e+19 -5.5119399e+17 6.6446922e+17)
(-1.9045921e+19 -6.0052883e+17 2.8044194e+17)
(-1.843493e+19 -2.0753397e+18 6.2252829e+17)
(-1.8999086e+19 -4.4615575e+17 4.8092796e+17)
(-1.8845597e+19 -1.5148767e+18 1.4042331e+18)
(-1.7929419e+19 -1.6487257e+18 5.1732724e+17)
(-1.8309625e+19 -3.7877212e+17 2.0019929e+17)
(-1.7837377e+19 4.3856261e+16 5.2972595e+16)
(-1.7333559e+19 -1.5607513e+18 -4.26275e+17)
(-1.7731547e+19 1.2875661e+17 -1.1593209e+17)
(-1.7313252e+19 -1.2257511e+18 -8.0632808e+16)
(-1.8443578e+19 -6.1155305e+17 -1.6016125e+17)
(-1.8199093e+19 -3.4887672e+17 -4.5153507e+17)
(-1.7844717e+19 -2.1748871e+18 -5.1930453e+17)
(-1.7710606e+19 -1.7523155e+18 -4.0024757e+17)
(-1.5769402e+19 -1.0597531e+18 8.9436166e+17)
(-1.6115578e+19 -3.6654276e+17 5.1686443e+17)
(-1.5135929e+19 -3.1512073e+16 2.7478725e+17)
(-1.4591055e+19 -1.0548169e+18 4.8521381e+17)
(-1.4423341e+19 -5.3709333e+17 3.9353979e+17)
(-1.5999937e+19 -2.5933384e+17 4.1223423e+17)
(-1.5748163e+19 -7.4315071e+17 7.8418268e+17)
(-1.4948157e+19 2.9107191e+16 3.1491326e+17)
(-1.3692076e+19 -7.530347e+17 -1.0625254e+17)
(-1.4394909e+19 1.5624571e+17 2.7955149e+17)
(-1.4203576e+19 -2.2044994e+17 6.9359519e+15)
(-1.4750741e+19 3.1282927e+17 1.1927397e+16)
(-1.4243814e+19 -1.3640418e+17 2.9156502e+17)
(-1.3693366e+19 -3.4343163e+17 1.2293558e+17)
(-1.4356694e+19 2.3498359e+17 3.3485481e+17)
(-1.4647499e+19 2.5411018e+17 1.9044649e+17)
(-1.4522667e+19 9.493913e+15 3.5283649e+17)
(-1.4523091e+19 -6.9060819e+15 2.3670845e+17)
(-1.4559463e+19 -3.9388083e+17 4.3134188e+17)
(-1.4907358e+19 1.5001698e+17 3.8000731e+17)
(-1.5031733e+19 4.8297204e+17 4.3499599e+17)
(-1.5845933e+19 -6.5180082e+17 -3.1491818e+17)
(-1.6344486e+19 1.2988699e+15 -8.0819132e+16)
(-1.6843747e+19 -1.8347398e+16 -2.2358263e+17)
(-1.651991e+19 -5.5343706e+17 -6.6223354e+17)
(-1.6516527e+19 -1.5708288e+17 -2.5109519e+17)
(-1.6055044e+19 -1.6493375e+17 -6.1340466e+16)
(-1.5747332e+19 -5.8238356e+17 -1.6519002e+17)
(-1.6454581e+19 -3.1852927e+17 -5.2573023e+17)
(-1.6029119e+19 -7.5444758e+17 -4.4614395e+17)
(-1.6461909e+19 -1.3775207e+17 -2.5972519e+17)
(-1.6705208e+19 -7.0677902e+17 -8.01372e+17)
(-1.6906834e+19 -2.0251621e+17 -3.6250074e+17)
(-1.6364758e+19 -9.4916864e+17 -6.2755094e+17)
(-1.7046925e+19 -8.6329634e+17 -9.3879751e+17)
(-1.7266269e+19 -3.683537e+17 -5.1252887e+17)
(-1.6804253e+19 -1.3092533e+17 -3.0390112e+17)
(-2.550639e+19 -4.4260673e+15 -3.5305168e+18)
(-1.643095e+19 -4.861577e+17 -6.0699861e+17)
(-1.4649292e+19 7.3186548e+17 3.392439e+17)
(-1.3433465e+19 -3.9769728e+17 -1.5812726e+17)
(-1.7680693e+19 1.8189845e+18 -2.1337267e+16)
(-1.283268e+19 -6.2221324e+17 -5.4054487e+17)
(-1.7478093e+19 8.6642577e+17 8.0272394e+17)
(-1.6739208e+19 -9.9004601e+17 -1.2249317e+18)
(-1.8099896e+19 -3.5120965e+17 -8.3593375e+17)
(-1.8839538e+19 -3.1681589e+17 -3.6645965e+17)
(-1.7457755e+19 -1.0905497e+18 -9.393819e+17)
(-1.7454242e+19 -1.3792461e+18 -1.0712824e+18)
(-1.8152689e+19 -7.1945972e+17 -7.686162e+17)
(-1.873468e+19 -7.7183476e+17 -7.9235508e+17)
(-1.8479914e+19 -1.252126e+18 -1.1629062e+18)
(-1.7313115e+19 -1.2793768e+18 -8.9446335e+17)
(-1.7777205e+19 -6.1204226e+17 -6.8230441e+17)
(-1.8249894e+19 -6.4658551e+17 -7.3708835e+17)
(-1.8027305e+19 -1.2119789e+18 -1.1421971e+18)
(-1.7224883e+19 -6.0117761e+17 -6.4066934e+17)
(-1.6866178e+19 -1.1616212e+18 -8.2802363e+17)
(-1.7548551e+19 -9.6948682e+17 -1.0260758e+18)
(-1.7652898e+19 -6.4135724e+17 -7.2498622e+17)
(-2.0158425e+19 1.1708584e+18 -1.0352641e+17)
(-1.9121149e+19 5.4983752e+17 -2.136555e+18)
(-1.8704867e+19 7.2778767e+17 -2.4097219e+18)
(-1.9684377e+19 2.9835405e+17 -3.9065081e+17)
(-1.7466375e+19 8.8786411e+17 -1.6541785e+18)
(-1.7545505e+19 6.7360183e+17 -1.5322675e+18)
(-1.7880724e+19 1.0023891e+18 -1.8788532e+17)
(-1.7733311e+19 6.2587938e+17 -3.6691548e+17)
(-1.7765531e+19 7.4335999e+17 -1.4707325e+18)
(-1.7699951e+19 9.4133286e+17 -1.5831829e+18)
(-1.8085459e+19 1.0182729e+18 -2.4132434e+17)
(-1.8047322e+19 7.0006769e+17 -2.962086e+17)
(-1.7593413e+19 8.7283486e+17 -1.4064481e+18)
(-1.7684863e+19 6.6251391e+17 -1.3435531e+18)
(-1.8068689e+19 9.4211289e+17 -2.03738e+17)
(-2.0232522e+19 9.3658028e+17 -1.2215116e+17)
(-1.743093e+19 8.0318341e+17 -1.3272307e+18)
(-1.7536793e+19 6.1936318e+17 -1.3360301e+18)
(-1.970355e+19 2.2419953e+17 -3.4343847e+17)
(-1.8731906e+19 5.2428408e+17 -2.4303158e+18)
(-1.9020356e+19 2.3256873e+17 -2.2150159e+18)
(-2.0200002e+19 1.0538031e+18 1.6924422e+18)
(-1.6652655e+19 -6.9700765e+16 3.7559169e+17)
(-1.6853391e+19 7.958617e+16 2.6050447e+17)
(-2.341244e+19 1.1449726e+18 4.3258131e+18)
(-2.0133289e+19 -6.042721e+16 1.5099796e+18)
(-2.2953069e+19 2.6499503e+17 4.133103e+18)
(-2.0336475e+19 7.6448273e+17 1.5643732e+18)
(-1.6827892e+19 -1.8452674e+17 2.0911244e+17)
(-1.6802539e+19 1.1772269e+17 1.9214677e+17)
(-2.014021e+19 -2.7760783e+17 1.4127776e+18)
(-1.4945324e+19 -2.215616e+17 -4.1176587e+18)
(-1.5413769e+19 9.8945355e+17 -4.1203639e+18)
(-1.77199e+19 5.5157056e+16 -4.4479559e+17)
(-1.7748854e+19 2.9375553e+17 -4.6852261e+17)
(-1.7433804e+19 3.1005278e+17 -1.6053022e+18)
(-1.7347389e+19 2.8457907e+15 -1.6474482e+18)
(-1.7324173e+19 -5.6573238e+16 -2.2732651e+17)
(-1.7466763e+19 2.0627779e+17 -2.5842492e+17)
(-1.7068439e+19 -1.81303e+17 -1.5451369e+18)
(-1.7123907e+19 6.4637385e+16 -1.4457867e+18)
(-1.7702773e+19 1.7557856e+17 -1.8407254e+18)
(-1.7588258e+19 -9.2934106e+16 -1.9119182e+18)
(-1.8267618e+19 2.8174962e+17 -3.9039269e+17)
(-1.8239119e+19 2.298139e+16 -3.5474236e+17)
(-1.7424216e+19 -7.4008817e+16 -1.7963942e+18)
(-1.7335388e+19 -2.8342992e+17 -1.8636016e+18)
(-1.7943021e+19 1.2031828e+17 -4.0556075e+17)
(-1.777558e+19 -1.5755668e+17 -4.1509555e+17)
(-1.7956358e+19 3.5202832e+17 -4.922859e+17)
(-1.7943173e+19 6.3498843e+17 -5.2639776e+17)
(-1.5390958e+19 2.9921677e+17 -1.1444736e+18)
(-1.7590397e+19 3.8650715e+17 -1.7027228e+18)
(-1.7653509e+19 6.6199282e+17 -1.6874102e+18)
(-1.7856424e+19 5.2414783e+17 -4.1605929e+17)
(-1.778615e+19 2.2568996e+17 -4.013207e+17)
(-1.7477017e+19 4.7324547e+17 -1.5269121e+18)
(-1.744931e+19 1.9971121e+17 -1.5655276e+18)
(-1.7647525e+19 2.6460316e+17 -2.0256703e+18)
(-1.7774368e+19 5.7724136e+17 -1.9685009e+18)
(-1.8456524e+19 6.8724099e+17 -4.3195631e+17)
(-1.8445311e+19 3.8174348e+17 -4.2522422e+17)
(-1.7511807e+19 3.700786e+17 -1.8335128e+18)
(-1.7469983e+19 9.9995112e+16 -1.9164471e+18)
(-1.82528e+19 5.5379099e+17 -1.9283575e+17)
(-1.8185113e+19 1.593395e+17 -1.6100237e+17)
(-1.3228764e+19 -6.092225e+16 -1.6491063e+18)
(-1.9228546e+19 4.6335063e+16 3.6007613e+18)
(-1.9118912e+19 -5.3585373e+17 3.4076597e+18)
(-1.2766874e+19 -8.8979484e+17 -1.6596366e+18)
(-1.7509532e+19 4.1954977e+17 -1.8901604e+18)
(-1.7386556e+19 -1.084335e+17 -2.0146907e+18)
(-1.8615017e+19 4.6733706e+17 -6.4616647e+17)
(-1.8788801e+19 2.1310591e+17 -5.8052427e+17)
(-1.5859245e+19 -4.4253659e+17 -3.3001783e+17)
(-1.6090852e+19 -2.6602443e+17 -3.0631594e+17)
(-1.8511575e+19 2.4217859e+17 5.7317064e+17)
(-1.8558572e+19 -1.0375117e+17 5.5150882e+17)
(-1.6463533e+19 -5.358116e+17 -3.5191869e+17)
(-1.9209543e+19 2.3890087e+17 6.960679e+17)
(-1.6515784e+19 -3.4395601e+17 -4.0118805e+17)
(-1.9109439e+19 -5.2751062e+17 5.9227481e+17)
(-1.8433545e+19 3.5092406e+17 -6.6017803e+17)
(-1.755109e+19 -6.4514974e+16 -1.8236019e+18)
(-1.837909e+19 -4.4863908e+16 -6.4030209e+17)
(-1.7631092e+19 -5.4768826e+15 -1.8106847e+18)
(-1.7583356e+19 -1.0584652e+17 -1.9337338e+18)
(-1.7546675e+19 -5.0250134e+17 -1.9546651e+18)
(-1.8668629e+19 -2.0133297e+17 -5.979689e+17)
(-1.8729353e+19 8.9213491e+16 -5.7670893e+17)
(-1.6465599e+19 -5.3365973e+17 -4.2168962e+17)
(-1.635788e+19 -7.7068841e+17 -4.4073662e+17)
(-1.871484e+19 -1.5977363e+17 3.5641121e+17)
(-1.8621701e+19 -5.6645524e+17 2.9699874e+17)
(-1.8651511e+19 3.7575705e+17 3.3428488e+18)
(-1.645817e+19 -3.5245983e+17 -5.7752708e+17)
(-1.6431403e+19 -6.7747593e+17 -3.699775e+17)
(-1.8584566e+19 -9.8595643e+16 2.9750658e+17)
(-1.8416588e+19 -4.7019058e+17 -9.9920556e+15)
(-1.774597e+19 2.4520058e+17 3.1310937e+18)
(-1.219061e+19 4.4257314e+17 -1.0778329e+18)
(-1.2585964e+19 1.0457827e+18 -1.3128609e+18)
(-1.7610403e+19 -2.2183558e+17 -1.9935663e+18)
(-1.741205e+19 -4.4581869e+17 -1.9355452e+18)
(-1.8162794e+19 -2.7670036e+17 -8.098359e+17)
(-1.8289858e+19 2.1433044e+15 -7.1555453e+17)
(-1.6900893e+19 1.2519614e+18 -8.1344655e+17)
(-1.542409e+19 -1.3898653e+17 -7.5644469e+17)
(-1.5808928e+19 -2.520851e+15 -1.9658172e+17)
(-1.5317261e+19 -2.2851017e+17 -7.900157e+17)
(-1.5514251e+19 -2.550818e+17 -3.3010344e+17)
(-1.594307e+19 -6.5005999e+16 -3.0720351e+17)
(-1.5545999e+19 -1.7256854e+17 -8.4096367e+17)
(-1.6257209e+19 -2.9911334e+17 -6.0173041e+17)
(-1.5983055e+19 -4.6067026e+17 -1.2057449e+18)
(-1.8252545e+19 -4.332247e+17 -6.2353229e+17)
(-1.7545772e+19 -7.8504571e+17 -1.2838644e+18)
(-1.7519742e+19 2.4874454e+17 1.6270396e+18)
(-1.8025631e+19 -5.1105898e+17 -3.9600812e+17)
(-1.6743659e+19 -8.8260592e+17 -9.3981316e+17)
(-1.3646642e+19 -1.0929087e+17 -2.9867264e+17)
(-1.7310342e+19 -5.6272362e+17 -1.1632052e+18)
(-1.7561446e+19 -3.8089427e+17 -7.0909075e+17)
(-1.663926e+19 -5.3766919e+17 -1.2699941e+18)
(-1.6812452e+19 -4.1490487e+17 -7.7196377e+17)
(-1.4725676e+19 1.3745746e+18 1.1436727e+18)
(-1.9322599e+19 -1.6665732e+17 -1.4715763e+18)
(-2.1547086e+19 7.4386236e+17 -8.2615541e+17)
(-1.4938792e+19 1.7602561e+18 -1.8284156e+17)
(-2.0295329e+19 7.3082019e+17 -1.3676307e+18)
(-2.1592746e+19 1.1267503e+18 -2.3091148e+17)
(-2.1604739e+19 1.4110885e+18 -4.0656674e+17)
(-1.9618452e+19 6.8510762e+17 -1.0531796e+18)
(-1.9330284e+19 -1.6453525e+17 1.8960837e+18)
(-1.934057e+19 -4.0140311e+17 1.3745836e+16)
(-1.873019e+19 -1.8985668e+17 2.2063137e+18)
(-1.825602e+19 -7.8942893e+17 7.9646962e+17)
(-1.9044578e+19 -3.0674437e+17 1.3117692e+18)
(-1.7901321e+19 -1.3994071e+18 2.0352581e+18)
(-1.9785993e+19 1.2760318e+17 1.3111293e+18)
(-1.7555978e+19 -8.5455138e+17 1.5931128e+18)
(-1.7807601e+19 -4.6607373e+17 4.7190133e+17)
(-2.0634848e+19 1.2730345e+18 -1.1705051e+17)
(-1.6803525e+19 -2.8373963e+17 1.7858318e+18)
(-2.0391051e+19 8.4808847e+17 6.6191167e+17)
(-1.6843998e+19 -1.7026987e+17 1.9397593e+18)
(-1.6883921e+19 -7.3415357e+16 5.668573e+17)
(-1.7163537e+19 1.861509e+17 2.3875215e+17)
(-1.4731558e+19 -3.2494586e+17 3.204997e+17)
(-1.4513873e+19 -7.6862763e+17 9.0229502e+17)
(-1.4441542e+19 -2.2619885e+17 7.7585331e+17)
(-1.4613207e+19 -1.240553e+17 2.3608561e+17)
(-1.8433683e+19 -7.5619222e+17 -3.6270072e+17)
(-1.6475278e+19 -4.3273175e+17 9.3914417e+17)
(-1.7383671e+19 -2.8521025e+17 -2.2211406e+18)
(-1.383288e+19 -3.3549044e+17 -2.603976e+17)
(-1.525121e+19 3.645974e+17 -1.4107552e+18)
(-1.8577121e+19 -1.1165378e+17 -1.173065e+18)
(-1.8290367e+19 -4.4432512e+17 8.7981908e+17)
(-1.8493464e+19 -1.4130369e+18 1.4971987e+18)
(-1.8795828e+19 -9.7543058e+17 7.4768375e+17)
(-1.7313792e+19 -4.0153706e+17 -5.9584508e+17)
(-1.8541282e+19 -1.0831278e+18 3.4430019e+16)
(-1.6888293e+19 -1.4396688e+18 6.2454689e+17)
(-1.6076292e+19 -9.0588155e+17 1.892578e+18)
(-2.5261057e+19 -5.304082e+17 3.5061017e+17)
(-1.5790387e+19 -9.2294048e+17 -5.1233072e+17)
(-1.4382971e+19 4.2057535e+17 7.8038524e+17)
(-1.4493716e+19 3.8672967e+17 -6.7656051e+15)
(-1.3232697e+19 -1.1134105e+18 -4.493931e+17)
(-1.7505056e+19 9.4020595e+16 -1.2673955e+18)
(-1.7592746e+19 5.357152e+17 -5.443422e+17)
(-1.3491935e+19 -1.1213902e+18 -9.0681806e+17)
(-1.3047812e+19 -1.0438778e+18 4.3399384e+17)
(-1.809864e+19 1.4272161e+18 -3.0877175e+17)
(-1.7788966e+19 1.7202845e+18 -1.7712243e+17)
(-1.2985585e+19 -9.7749277e+17 3.113502e+17)
(-1.5404898e+19 -3.3834896e+18 2.4231763e+18)
(-1.7887942e+19 -1.7482156e+18 9.1647931e+17)
(-1.7623812e+19 -1.4829601e+18 9.0101542e+17)
(-1.5621217e+19 -3.063595e+18 1.8380758e+18)
(-1.7568358e+19 -1.7192651e+18 1.0546312e+18)
(-1.7054093e+19 -2.4816589e+18 1.5021152e+18)
(-1.6689812e+19 -2.416556e+18 8.7067776e+17)
(-1.734582e+19 -1.6676243e+18 6.9975808e+17)
(-1.7054771e+19 -1.7067015e+18 1.0671955e+18)
(-1.6353276e+19 -1.1975818e+18 1.5952478e+17)
(-1.7092896e+19 -2.6843737e+18 4.9827226e+17)
(-1.7629084e+19 -1.0187337e+18 2.4947247e+17)
(-1.6704348e+19 -1.3264789e+18 -7.9100188e+17)
(-1.629159e+19 -2.7194543e+18 -2.9091772e+17)
(-1.646006e+19 -9.6580305e+17 -1.1106262e+18)
(-1.6950371e+19 -4.313744e+17 -7.4396036e+17)
(-1.5972057e+19 -2.2936014e+18 -1.3858841e+18)
(-1.6464645e+19 -1.5470769e+18 -6.8596969e+17)
(-1.6311395e+19 -2.382237e+18 -8.2967293e+16)
(-1.6776252e+19 -1.4588861e+18 -9.3274418e+16)
(-1.602987e+19 -1.1880883e+18 -1.0572972e+18)
(-1.5480569e+19 -1.9657278e+18 -8.4451197e+17)
(-1.5350845e+19 -1.2515105e+18 -1.2770193e+18)
(-1.5886494e+19 -6.1296557e+17 -9.1405693e+17)
(-1.6354453e+19 -5.8098288e+17 -6.6499061e+17)
(-1.6021245e+19 -9.3077761e+17 -6.1018995e+17)
(-1.8196609e+19 -1.3097254e+18 -1.1098333e+17)
(-1.6986882e+19 -2.0303583e+18 6.2533012e+16)
(-1.6340444e+19 -2.0968676e+18 4.6694122e+17)
(-1.8171125e+19 -6.2750438e+17 -1.9012093e+17)
(-1.81922e+19 -1.8882464e+18 4.0227966e+17)
(-1.7495617e+19 -2.5764559e+18 7.4727688e+17)
(-1.6827785e+19 -2.7664971e+18 7.5387989e+16)
(-1.7703137e+19 -1.765166e+18 -4.0144928e+17)
(-1.6800646e+19 -1.6580757e+18 -1.4496745e+18)
(-1.7591085e+19 -7.5852534e+17 -1.6248671e+18)
(-1.6737286e+19 -1.1272057e+18 -2.973046e+17)
(-1.7586215e+19 -4.0017515e+17 -4.483752e+17)
(-1.6374184e+19 -2.7673096e+18 -1.5844481e+18)
(-1.7280627e+19 -1.4623652e+18 -1.2538829e+18)
(-1.7479044e+19 -9.3426254e+17 -7.7260536e+17)
(-1.6789968e+19 -1.8214405e+18 -5.9647465e+17)
(-1.6452921e+19 -1.8465315e+18 1.1930569e+18)
(-1.6156185e+19 -8.8387939e+17 4.0610301e+17)
(-1.682435e+19 -9.572649e+17 8.3150238e+17)
(-1.5559031e+19 -2.2747972e+18 7.069787e+17)
(-1.7149282e+19 -1.4255884e+18 9.269271e+17)
(-1.6653572e+19 -1.6581714e+18 6.5500213e+17)
(-1.684665e+19 -2.1727205e+18 1.3225556e+18)
(-1.6189393e+19 -2.4894821e+18 8.7228826e+17)
(-1.6169085e+19 -1.5699188e+18 1.1259679e+18)
(-1.6541248e+19 -8.8229841e+17 7.7955824e+17)
(-1.527619e+19 -1.480298e+18 5.0576654e+17)
(-1.5713859e+19 -8.3653412e+17 3.4609049e+17)
(-1.5960996e+19 -1.3464764e+18 1.0521394e+18)
(-1.6187899e+19 -7.7424572e+17 6.52556e+17)
(-1.5115348e+19 -6.7940304e+17 4.2151573e+17)
(-1.4893344e+19 -1.4111998e+18 4.2647372e+17)
(-1.3948241e+19 -1.1438291e+18 -3.0835391e+17)
(-1.428782e+19 -2.7220018e+17 -5.1129799e+16)
(-1.4699088e+19 8.4164612e+16 -2.5898769e+17)
(-1.4127451e+19 -4.4400736e+17 -2.9349517e+17)
(-1.4372028e+19 -1.5525136e+18 -4.8729268e+17)
(-1.4804851e+19 -5.3405922e+17 -1.8538336e+17)
(-1.4760256e+19 -1.1510067e+17 -5.9259048e+17)
(-1.4205976e+19 -8.7452524e+17 -6.3368095e+17)
(-1.5011807e+19 3.0807069e+17 2.5081678e+17)
(-1.4465269e+19 -1.2794356e+17 -2.7892397e+16)
(-1.5055471e+19 -1.1509263e+16 1.7342236e+17)
(-1.4663733e+19 -4.57281e+17 2.397648e+17)
(-1.5069283e+19 2.2763151e+17 -7.6307936e+15)
(-1.4487356e+19 -3.967338e+17 -3.145052e+17)
(-1.5238147e+19 -5.6693915e+16 -1.1120617e+16)
(-1.4801901e+19 -6.8833099e+17 3.8428167e+15)
(-1.4802766e+19 -1.9754736e+18 -4.2914689e+17)
(-1.4435928e+19 -1.2809586e+18 -8.8304519e+17)
(-1.5209407e+19 -1.0082137e+18 -3.4772787e+17)
(-1.4969184e+19 -5.2287937e+17 -8.8205837e+17)
(-1.4571119e+19 -6.2252132e+17 -6.7251028e+17)
(-1.5081599e+19 -7.6203862e+17 -2.1882532e+17)
(-1.546509e+19 -1.7209355e+17 -2.1844105e+17)
(-1.5175581e+19 5.0139446e+16 -2.4751463e+17)
(-1.5423592e+19 -2.2932674e+18 -2.5327828e+17)
(-1.606194e+19 -1.276432e+18 -2.1005695e+17)
(-1.490117e+19 -1.5679042e+18 -1.0188498e+18)
(-1.5474997e+19 -8.4835205e+17 -1.0432691e+18)
(-1.5431558e+19 -3.4474576e+17 -6.2180429e+17)
(-1.4894189e+19 -9.9636804e+17 -9.7110276e+17)
(-1.5844493e+19 -4.4310222e+17 -4.7131607e+17)
(-1.5486237e+19 -8.5504193e+17 -4.6244039e+17)
(-1.2331918e+19 -2.5019134e+17 3.5796999e+17)
(-1.3157428e+19 -5.99671e+17 6.9101363e+17)
(-1.2748174e+19 -9.2912268e+17 8.4163647e+17)
(-1.1766928e+19 -1.7315845e+17 4.9489337e+17)
(-1.312778e+19 -9.1026043e+17 3.2209402e+17)
(-1.3005518e+19 -1.1803968e+18 8.4487469e+17)
(-1.2020511e+19 -1.0755438e+18 4.4873972e+17)
(-1.2877086e+19 -1.1051604e+18 -9.8898762e+16)
(-1.1814114e+19 -5.3880473e+17 4.6965231e+17)
(-1.2961204e+19 -7.0872627e+17 7.9627348e+17)
(-1.3164279e+19 -3.9218746e+17 6.2986574e+17)
(-1.2209754e+19 -2.6533122e+17 4.3685185e+17)
(-1.2905419e+19 -5.4203205e+17 7.9080228e+17)
(-1.3099892e+19 -2.3233137e+17 5.8900131e+17)
(-1.2152854e+19 -1.7940948e+17 5.0000268e+17)
(-1.1711349e+19 -4.9820173e+17 5.6015744e+17)
(-1.1406491e+19 -8.3180074e+17 5.0745692e+17)
(-1.0379141e+19 -1.0966832e+18 2.9870381e+17)
(-1.0914604e+19 -7.7145114e+17 2.2201471e+17)
(-1.1570359e+19 -4.3813134e+17 1.6570952e+17)
(-1.1817714e+19 -2.8879936e+17 2.0025804e+17)
(-1.1579618e+19 -4.2249163e+17 1.927195e+17)
(-1.1301395e+19 -6.1008414e+17 3.4118748e+17)
(-1.1062966e+19 -6.6640497e+17 3.8692454e+17)
(-1.1988561e+19 -1.8726818e+17 2.3573811e+17)
(-1.2457045e+19 1.5993989e+17 3.5550691e+17)
(-1.2770977e+19 2.3677413e+17 2.8365969e+17)
(-1.2484314e+19 1.2106984e+16 3.5207925e+17)
(-1.2747677e+19 2.0754728e+17 3.5765733e+17)
(-1.2571236e+19 1.9639879e+17 4.9192392e+17)
(-1.2530576e+19 6.3639472e+16 4.6377806e+17)
(-1.2174432e+19 -3.1286589e+16 3.9988463e+17)
(-1.2354451e+19 7.3760708e+16 5.4401558e+17)
(-1.2683551e+19 3.247921e+17 6.3301661e+17)
(-1.278014e+19 2.6850703e+17 4.7931742e+17)
(-1.2562836e+19 5.2615932e+16 5.5281178e+17)
(-1.1631045e+19 -4.0955317e+17 3.9937749e+17)
(-1.1293154e+19 -5.8040511e+17 2.4099101e+17)
(-1.1872532e+19 -1.7757133e+17 3.6379891e+17)
(-1.205732e+19 -9.7907342e+16 3.493545e+17)
(-1.182581e+19 -2.8466345e+17 5.506926e+17)
(-1.1501418e+19 -4.0451107e+17 3.663216e+17)
(-1.2048289e+19 -2.8872688e+16 4.3190734e+17)
(-1.2187231e+19 1.444696e+16 4.3641661e+17)
(-1.2714281e+19 3.3456892e+17 7.217114e+17)
(-1.2414965e+19 1.1678856e+17 6.4821382e+17)
(-1.2563747e+19 6.4621653e+16 6.8518132e+17)
(-1.2773016e+19 2.6386328e+17 5.7323364e+17)
(-1.2866964e+19 2.1202988e+17 6.7790293e+17)
(-1.3121004e+19 4.6750214e+17 7.5658773e+17)
(-1.3180484e+19 3.4618992e+17 4.3709262e+17)
(-1.2938766e+19 7.3228837e+16 4.7910172e+17)
(-1.2832516e+19 2.387628e+17 5.3217213e+17)
(-1.3121316e+19 4.2433584e+17 5.7452446e+17)
(-1.3200036e+19 3.57137e+17 2.7275732e+17)
(-1.2924775e+19 1.4060657e+17 3.4921732e+17)
(-1.2869024e+19 2.058112e+17 6.5412763e+17)
(-1.3148728e+19 4.7337211e+17 7.6494891e+17)
(-1.2485772e+19 -4.890092e+17 5.9479358e+17)
(-1.2277905e+19 -7.5172699e+17 3.5517761e+17)
(-1.2430753e+19 -4.0136072e+17 2.776043e+17)
(-1.2993323e+19 3.8427235e+17 5.5156405e+17)
(-1.2423907e+19 -7.8297091e+17 6.0115907e+17)
(-1.2864964e+19 3.4389198e+17 7.46051e+17)
(-1.3137442e+19 2.7471895e+17 2.8181607e+17)
(-1.3079289e+19 3.5544983e+17 6.2088899e+17)
(-1.293931e+19 1.6589348e+17 3.8826482e+17)
(-1.2843882e+19 2.2315036e+17 5.8188919e+17)
(-1.333626e+19 -3.3686162e+17 -1.4187704e+17)
(-1.3084463e+19 -3.2020397e+17 -4.9291302e+16)
(-1.2757581e+19 -4.8466267e+17 1.0231507e+16)
(-1.2947414e+19 -4.1833819e+17 -2.1195521e+16)
(-1.1248373e+19 -6.3614478e+17 2.4070213e+17)
(-1.1258178e+19 -8.158894e+17 -9.912931e+16)
(-1.1764124e+19 -5.1823738e+17 5.8780007e+17)
(-1.3874745e+19 -1.8627172e+17 -2.7540166e+17)
(-1.3614796e+19 -1.8923362e+17 -1.4559034e+17)
(-1.4586329e+19 -1.8015258e+17 -4.2327004e+17)
(-1.4111329e+19 -1.0371464e+16 -2.2786698e+17)
(-2.5888119e+19 6.6735123e+17 -3.9273288e+18)
(-1.4772908e+19 9.3253463e+17 3.9842037e+16)
(-1.4195839e+19 3.8604159e+16 1.0824065e+17)
(-1.4895252e+19 3.2743726e+17 1.807258e+16)
(-1.4145741e+19 -8.7030638e+17 -7.8755827e+17)
(-1.7203797e+19 5.4427011e+17 -8.1942645e+17)
(-1.7349608e+19 -2.7836317e+16 -2.8803241e+16)
(-1.3711104e+19 -1.1026415e+18 -1.0284448e+18)
(-1.633045e+19 -4.340555e+17 -8.3793737e+17)
(-1.6650177e+19 -4.2983298e+17 -1.1034849e+18)
(-1.6707677e+19 -3.7419623e+17 -9.7242374e+17)
(-1.6518824e+19 -2.8970783e+17 -8.1577098e+17)
(-1.6250408e+19 -2.5699646e+17 -7.0706018e+17)
(-1.5899636e+19 -1.2330681e+17 -5.9610647e+17)
(-1.4986007e+19 -1.1809665e+17 -4.6330823e+17)
(-1.5459768e+19 -9.6431348e+16 -5.4218056e+17)
(-1.77379e+19 1.0626298e+18 -1.3821502e+18)
(-1.7896757e+19 1.0391158e+18 -1.7833368e+18)
(-1.8047707e+19 8.4190668e+17 -1.3611792e+18)
(-1.8357361e+19 1.0284204e+18 -4.2810507e+17)
(-1.8235193e+19 6.5815629e+17 -5.5190665e+17)
(-1.878352e+19 1.140306e+18 -2.2487119e+17)
(-1.7879886e+19 7.8032195e+17 -1.5522316e+18)
(-1.7811073e+19 9.5727829e+17 -2.0787477e+18)
(-1.8603035e+19 7.3155376e+17 -4.7795882e+17)
(-1.7616753e+19 8.2529451e+17 -2.0529798e+18)
(-1.7757419e+19 6.0002684e+17 -1.9171652e+18)
(-1.8476913e+19 1.006938e+18 -2.8054807e+17)
(-1.8274592e+19 5.5009933e+17 -5.8535461e+17)
(-1.800592e+19 9.060747e+17 -7.4137146e+17)
(-1.7780953e+19 6.6334206e+17 -1.6448643e+18)
(-1.767105e+19 8.9365281e+17 -1.7599487e+18)
(-1.7915051e+19 6.001943e+17 -7.5853197e+17)
(-1.5472963e+19 7.3844274e+17 -2.5331423e+17)
(-1.5333945e+19 5.0477334e+17 -3.7139655e+17)
(-1.5265118e+19 5.537297e+17 -1.2709719e+18)
(-1.5357214e+19 5.0270664e+17 -1.2198691e+18)
(-1.5612508e+19 7.0330005e+17 -2.6046447e+17)
(-1.5517045e+19 5.1987581e+17 -3.0797198e+17)
(-1.5420954e+19 5.717256e+17 -1.2607463e+18)
(-1.5503687e+19 5.1156474e+17 -1.121984e+18)