/*--------------------------------*- C++ -*----------------------------------*\
  =========                 |
  \\      /  F ield         | OpenFOAM: The Open Source CFD Toolbox
   \\    /   O peration     | Website:  https://openfoam.org
    \\  /    A nd           | Version:  7
     \\/     M anipulation  |
\*---------------------------------------------------------------------------*/
FoamFile
{
    version     2.0;
    format      ascii;
    class       volVectorField;
    location    "3000";
    object      UMean;
}
// * * * * * * * * * * * * * * * * * * * * * * * * * * * * * * * * * * * * * //

dimensions      [0 1 -1 0 0 0 0];

internalField   nonuniform List<vector> 
33733
(
(-7.1956351e+17 1.4441209e+16 -6.7943861e+15)
(-6.1497291e+17 1.02271e+16 3.1936297e+14)
(-7.2605952e+17 1.3077025e+16 1.6857939e+15)
(-6.1272558e+17 3.4276761e+15 -9.7405758e+15)
(-6.2775256e+17 1.3770171e+16 -4.4907076e+15)
(-7.3173596e+17 -6.8613457e+15 -8.858578e+15)
(-5.5957863e+17 -3.3112425e+15 -1.3437808e+16)
(-5.5853015e+17 3.4400538e+15 -3.2271566e+15)
(-6.164601e+17 8.3597285e+15 -5.0976611e+15)
(-5.7922289e+17 -7.6568421e+15 -1.4061509e+16)
(-6.3093905e+17 4.7498387e+15 5.2676308e+15)
(-5.7689679e+17 -1.987774e+15 5.7276571e+15)
(-5.9442057e+17 1.0389417e+16 2.1531277e+15)
(-6.0315422e+17 1.4359964e+16 7.5773715e+14)
(-5.8685303e+17 -3.6699913e+15 8.5991703e+15)
(-5.7956088e+17 -1.1941505e+16 6.1929586e+15)
(-7.3986576e+17 -1.0228269e+16 -4.2156883e+14)
(-5.6187055e+17 -1.3973961e+16 -6.7676449e+13)
(-6.1392342e+17 -3.6331497e+15 -1.7339853e+15)
(-5.8059224e+17 -9.7488732e+15 2.3170637e+15)
(-5.6568845e+17 -9.4535505e+15 -3.2665939e+15)
(-5.7936941e+17 -7.3251982e+15 -1.0945428e+16)
(-6.0176685e+17 -2.3334933e+15 -9.7050581e+15)
(-5.6616357e+17 -1.8338391e+16 -1.6424724e+16)
(-5.7765869e+17 -1.1361334e+16 -1.0951886e+16)
(-5.3328896e+17 -2.0203424e+15 -2.3400114e+16)
(-6.1055604e+17 -1.3359647e+15 -1.3475165e+16)
(-6.0760316e+17 1.5081291e+15 -8.3406251e+15)
(-5.1393408e+17 1.3012475e+15 -6.360597e+15)
(-5.3943302e+17 -2.4219843e+16 -2.0314793e+16)
(-5.7627326e+17 -2.25969e+16 -1.9541431e+16)
(-5.4066753e+17 -1.3737719e+16 -8.2107361e+15)
(-6.0239097e+17 -1.0597728e+16 -1.4433179e+16)
(-6.1675495e+17 3.7516303e+15 -1.2468298e+16)
(-6.2913146e+17 1.1509806e+16 -1.0254526e+16)
(-5.8340193e+17 1.3066929e+15 -2.9307812e+16)
(-5.7384176e+17 -5.5438109e+15 -2.6496683e+16)
(-5.6619011e+17 -3.2174867e+15 -1.5138427e+16)
(-5.5942658e+17 -9.8808405e+15 -2.2082297e+16)
(-5.3854689e+17 -2.0333092e+16 -2.5895311e+16)
(-6.170119e+17 -2.1057666e+15 -9.0590925e+15)
(-5.6669782e+17 -1.3411288e+16 -2.5228167e+16)
(-5.5552538e+17 -1.2125877e+16 -2.2704428e+16)
(-6.2377877e+17 2.5813139e+16 1.0615846e+16)
(-5.8976452e+17 -4.3642437e+15 1.0683395e+16)
(-5.6682365e+17 -1.5254946e+16 1.0159964e+16)
(-5.6745924e+17 -2.5720852e+16 1.6218984e+16)
(-5.904603e+17 -1.0950956e+16 1.2389264e+16)
(-5.6287966e+17 -2.7036481e+15 9.6452116e+15)
(-5.6576666e+17 7.8198284e+15 2.3355062e+14)
(-5.6916348e+17 -4.0544284e+15 1.5757274e+16)
(-5.9387237e+17 -1.2231408e+16 9.7382821e+15)
(-5.555737e+17 -1.8954995e+16 3.7653593e+15)
(-6.155062e+17 -9.225475e+15 1.1550785e+15)
(-5.8175371e+17 -2.7126498e+16 1.5039382e+16)
(-5.4480257e+17 -2.9809956e+16 1.4363867e+16)
(-5.4477972e+17 -1.5679857e+16 3.2784632e+15)
(-5.3848589e+17 -1.3218155e+16 6.3803338e+15)
(-6.1136047e+17 -5.9278387e+15 1.2312405e+15)
(-5.9580443e+17 -3.0521413e+16 5.6030023e+14)
(-5.4746585e+17 -4.0020916e+16 6.2719997e+14)
(-5.7856072e+17 -3.5978694e+16 -6.5444969e+15)
(-5.3934725e+17 -4.4723703e+16 -4.2236626e+15)
(-5.7600639e+17 -3.2904331e+16 1.9428872e+15)
(-5.8938258e+17 -1.623741e+16 2.4916539e+15)
(-5.7607879e+17 -1.5563907e+16 -5.9237414e+15)
(-5.6589333e+17 -3.237678e+16 -8.2965885e+15)
(-5.4480856e+17 -7.8719591e+15 1.2210076e+16)
(-5.3989907e+17 -1.7283946e+16 1.470722e+16)
(-5.0652522e+17 -2.0140807e+16 5.9033395e+15)
(-5.1151991e+17 -7.8394257e+15 5.4006646e+15)
(-4.9008434e+17 -1.2824375e+16 -3.7967415e+15)
(-4.9779065e+17 -1.7304797e+15 2.057907e+15)
(-4.890904e+17 -7.6509563e+15 3.1109259e+15)
(-5.0980381e+17 -1.4276591e+16 -9.0356193e+15)
(-5.4331002e+17 -1.217232e+16 -1.3516068e+16)
(-5.147446e+17 -6.9387884e+15 -5.0425293e+15)
(-5.4749217e+17 -8.8404712e+15 -1.1222677e+16)
(-5.2162776e+17 -1.6463817e+16 -1.3543161e+16)
(-5.2116708e+17 -2.2959995e+16 -1.80579e+16)
(-5.5141742e+17 -1.7798085e+16 -1.8780559e+16)
(-5.5327364e+17 -1.3502318e+16 -1.6424057e+16)
(-6.3618696e+17 -2.8296535e+16 -3.7735339e+16)
(-5.4335299e+17 -2.076857e+16 -3.1234322e+16)
(-5.2417892e+17 7.1569416e+15 -2.532953e+16)
(-5.7342142e+17 -1.0336177e+16 -1.6909143e+16)
(-5.8197096e+17 -1.1232656e+16 -1.3108361e+16)
(-5.1123038e+17 1.3381768e+15 2.3561379e+15)
(-5.3414106e+17 -3.70574e+16 -2.7589998e+16)
(-5.4828149e+17 -2.3476669e+16 -1.7216951e+16)
(-5.4558632e+17 -3.3286862e+16 -2.6933898e+16)
(-5.7817608e+17 -1.7179255e+16 -1.8999728e+16)
(-5.325242e+17 -3.2550122e+16 -2.5874082e+16)
(-5.3194487e+17 -2.6735922e+16 -2.2235025e+16)
(-5.5744157e+17 -2.2005962e+16 -2.0586867e+16)
(-5.6350397e+17 -1.8336526e+16 -2.0627432e+16)
(-6.4224525e+17 1.7656604e+16 -1.4278139e+16)
(-5.7092652e+17 8.2357474e+15 -2.8308283e+16)
(-5.7559808e+17 1.298098e+16 -2.4617211e+16)
(-5.7270183e+17 7.4850944e+15 -2.6781935e+16)
(-6.3643628e+17 8.7818037e+15 -1.551278e+16)
(-5.9272897e+17 9.4802413e+15 -3.5053032e+16)
(-5.8932229e+17 3.6188652e+15 -3.4515672e+16)
(-5.7021152e+17 -2.1530136e+15 -2.5656278e+16)
(-5.597212e+17 -3.5474575e+15 -2.4959941e+16)
(-5.5716301e+17 -6.9817488e+15 -3.579994e+16)
(-5.493985e+17 -7.9667727e+15 -3.341335e+16)
(-5.776176e+17 5.5040982e+15 -2.5623393e+16)
(-5.6998989e+17 -2.2051936e+14 -2.5350476e+16)
(-5.6475912e+17 2.1938371e+15 -3.6278371e+16)
(-5.6121841e+17 -3.1844957e+15 -3.3485827e+16)
(-6.3691748e+17 7.4067902e+15 -1.5361859e+16)
(-5.7876996e+17 2.7489306e+15 -3.5126973e+16)
(-5.3489597e+17 -1.3318696e+15 -4.9763177e+16)
(-5.4181987e+17 -8.9659459e+15 -4.5400352e+16)
(-5.7886017e+17 -3.1653482e+15 -2.994204e+16)
(-5.7282317e+17 -7.0394613e+15 -3.4203943e+16)
(-5.3320329e+17 -1.2474039e+16 -4.8710213e+16)
(-5.2412198e+17 -1.6523704e+16 -4.3928122e+16)
(-6.1899765e+17 3.0755126e+14 -1.430818e+16)
(-5.6018587e+17 -8.530676e+15 -3.54453e+16)
(-5.6852766e+17 8.3644881e+15 -4.4736501e+16)
(-5.6128136e+17 3.320934e+15 -3.8627154e+16)
(-5.0127976e+17 -1.0550666e+16 -1.7848854e+16)
(-5.0371883e+17 -8.3038417e+15 -1.1821491e+16)
(-5.1039865e+17 -1.2609066e+16 -2.1636543e+16)
(-5.1347618e+17 -1.3700824e+16 -2.6999191e+16)
(-5.4389928e+17 -1.8454736e+16 -3.3913711e+16)
(-5.3189891e+17 -2.569505e+16 -3.7504737e+16)
(-5.6760546e+17 -1.1595026e+16 -1.4730266e+16)
(-5.3328085e+17 -2.0516199e+16 -3.1844488e+15)
(-5.2665519e+17 -1.8440535e+16 -3.5453768e+16)
(-5.2362356e+17 -1.569526e+16 -3.0991052e+16)
(-5.9858996e+17 1.0947206e+15 1.7464812e+16)
(-6.1811451e+17 1.4652403e+16 1.7846308e+16)
(-6.2978972e+17 2.0170119e+16 3.4417836e+15)
(-5.6160221e+17 -9.4410504e+15 1.6091075e+16)
(-5.5074842e+17 -1.856892e+16 1.9438415e+16)
(-5.5602065e+17 -2.9247466e+16 3.2034867e+16)
(-5.6038186e+17 -1.8961732e+16 2.5427147e+16)
(-5.5959669e+17 -3.8294877e+15 1.6542491e+16)
(-5.7042239e+17 5.2738945e+15 5.146174e+14)
(-5.6386103e+17 -3.1826196e+15 2.281723e+16)
(-4.9897114e+17 -1.9689419e+16 2.1384783e+16)
(-4.98837e+17 -1.0772687e+16 1.4504629e+16)
(-5.5758249e+17 -2.1386644e+16 2.1270557e+16)
(-5.3171896e+17 -2.9398225e+16 1.6618402e+16)
(-5.8913729e+17 -2.1119562e+16 1.0385633e+16)
(-5.2020094e+17 -1.1252115e+16 -1.4007263e+16)
(-5.3664747e+17 -1.2200153e+16 1.0298933e+16)
(-5.8564441e+17 -2.4520111e+16 9.2611736e+15)
(-5.4666619e+17 -3.5027079e+16 3.4566584e+16)
(-5.4006776e+17 -3.3784306e+16 2.6026355e+16)
(-5.564005e+17 -3.0958695e+16 4.4988066e+15)
(-6.2374171e+17 -3.503556e+16 5.7815831e+15)
(-5.3507754e+17 -3.2528383e+16 1.2142008e+16)
(-5.7939303e+17 -2.4135769e+16 -4.1099066e+15)
(-5.2186054e+17 -7.4767178e+15 -2.7882058e+15)
(-5.164806e+17 -5.255158e+15 7.6429461e+15)
(-5.7177837e+17 -2.3029235e+16 -3.2768503e+13)
(-5.6158756e+17 -4.1160219e+16 1.7318722e+16)
(-5.5300678e+17 -4.7715761e+16 1.177662e+16)
(-5.3237933e+17 -5.7715107e+16 1.5622867e+16)
(-5.3970469e+17 -4.9782464e+16 1.3121038e+16)
(-5.7248351e+17 -3.7510041e+16 8.2549936e+15)
(-5.4439473e+17 -4.049452e+16 -7.5188348e+13)
(-5.4854892e+17 -5.022871e+16 1.6563495e+16)
(-5.2993318e+17 -5.2949555e+16 1.4490068e+16)
(-5.3069387e+17 -6.1237925e+16 -1.5241488e+16)
(-5.2461187e+17 -4.9071519e+16 -2.2079711e+16)
(-5.3495273e+17 -4.9892342e+16 -1.6937373e+16)
(-5.2670582e+17 -3.7431253e+16 -1.994998e+16)
(-5.3324701e+17 -5.8351797e+16 -9.484096e+15)
(-5.5103105e+17 -5.1317394e+16 -1.2640362e+16)
(-5.2886067e+17 -6.1193706e+16 -1.4837996e+16)
(-5.4188275e+17 -4.9317818e+16 -1.8841969e+16)
(-5.4867791e+17 -4.1572552e+16 1.8186167e+16)
(-5.5187238e+17 -3.4001623e+16 1.900085e+16)
(-5.2859688e+17 -4.0356218e+16 9.1842273e+15)
(-5.2738143e+17 -5.0524915e+16 1.1980447e+16)
(-5.4660077e+17 -2.2613121e+16 1.5866141e+16)
(-5.428555e+17 -3.0819179e+16 1.7767188e+16)
(-5.1450913e+17 -3.8272449e+16 7.7744284e+15)
(-5.1779413e+17 -2.5312491e+16 6.2839522e+15)
(-5.0472916e+17 -1.6085359e+16 -7.6371194e+15)
(-5.0000711e+17 -3.1296368e+16 -1.2722308e+16)
(-5.0214569e+17 -9.6325277e+15 -2.5052777e+15)
(-4.9627817e+17 -1.9915647e+16 -7.6364205e+15)
(-5.164767e+17 -3.5686977e+16 -1.4669369e+16)
(-5.1137359e+17 -2.3447197e+16 -1.2535149e+16)
(-5.1861574e+17 -4.8234137e+16 -1.745515e+16)
(-5.1115444e+17 -3.3477648e+16 -1.7823438e+16)
(-4.5561012e+17 -2.7847004e+16 1.6288442e+16)
(-4.5953411e+17 -2.1830364e+16 1.5496455e+16)
(-4.2147905e+17 -1.7085514e+16 1.0808557e+16)
(-4.1327508e+17 -2.7913957e+16 1.0592603e+16)
(-4.0799041e+17 -1.2919499e+16 1.1795194e+16)
(-4.5893385e+17 -9.9825258e+15 1.3746491e+16)
(-4.5048839e+17 -1.6928948e+16 1.494816e+16)
(-4.1771723e+17 -3.3936317e+15 1.2739935e+16)
(-3.9030519e+17 -1.4798758e+16 2.3128331e+15)
(-4.0283243e+17 -6.5729282e+15 5.2051945e+15)
(-4.0267724e+17 -2.5132044e+15 3.6527821e+15)
(-4.1234268e+17 4.5891072e+14 7.1043236e+15)
(-4.0147367e+17 1.8582685e+15 1.2218728e+16)
(-3.9080045e+17 -3.7766327e+15 9.4611476e+15)
(-4.0459172e+17 2.8365372e+15 1.2424929e+16)
(-4.1315902e+17 5.4164121e+15 1.479794e+16)
(-4.059627e+17 3.6453183e+15 1.9940986e+16)
(-4.0916653e+17 1.1159198e+15 1.4186174e+16)
(-4.0605344e+17 -9.4690656e+15 1.5761205e+16)
(-4.0827316e+17 -8.0243574e+15 1.8546379e+16)
(-4.1693903e+17 2.8281723e+15 1.5838725e+16)
(-4.4636107e+17 -1.5118143e+16 -6.0151885e+15)
(-4.4875251e+17 -1.3568594e+16 -3.800907e+15)
(-4.7254263e+17 -1.0705787e+16 -1.0280032e+16)
(-4.7024882e+17 -1.2418239e+16 -1.1914827e+16)
(-4.6836396e+17 -9.3833584e+15 -6.883754e+15)
(-4.428552e+17 -1.141125e+16 1.0125526e+15)
(-4.3860182e+17 -1.3299346e+16 -4.5367695e+14)
(-4.6318898e+17 -1.0472581e+16 -8.265336e+15)
(-4.5362004e+17 -1.7358012e+16 -1.1381556e+16)
(-4.5575236e+17 -1.4980609e+16 -9.0925547e+15)
(-4.7484988e+17 -1.4545207e+16 -1.5448347e+16)
(-4.7855865e+17 -1.26612e+16 -1.3612216e+16)
(-4.6427266e+17 -2.0168239e+16 -1.7566402e+16)
(-4.8491724e+17 -1.6716306e+16 -1.913732e+16)
(-4.8443572e+17 -1.566815e+16 -1.7905933e+16)
(-4.6418495e+17 -1.8855916e+16 -1.4859587e+16)
(-6.1342096e+17 2.5839701e+15 -4.6558878e+16)
(-5.3398094e+17 7.6444701e+15 -4.4244297e+16)
(-5.274141e+17 -2.560832e+16 -2.829535e+16)
(-5.3658688e+17 -5.9534886e+15 -2.5206747e+16)
(-5.5519685e+17 -2.1824342e+16 -2.1464336e+16)
(-5.3460509e+17 -7.6485945e+15 -1.4608137e+15)
(-5.7548599e+17 -1.6363026e+16 -1.4804259e+16)
(-5.1230529e+17 -3.1359264e+16 -3.8610134e+16)
(-5.1409421e+17 -2.8556428e+16 -3.5158447e+16)
(-5.3744986e+17 -1.8247657e+16 -1.9557272e+16)
(-5.2678151e+17 -2.439927e+16 -2.1673529e+16)
(-5.030499e+17 -2.8389953e+16 -3.4301193e+16)
(-5.0127565e+17 -2.5765894e+16 -3.1084944e+16)
(-5.2076399e+17 -2.0812722e+16 -2.3472565e+16)
(-5.1868546e+17 -2.4824279e+16 -2.360309e+16)
(-4.9132236e+17 -2.4427497e+16 -2.8471112e+16)
(-4.875958e+17 -2.431479e+16 -2.6591255e+16)
(-5.0643677e+17 -1.977269e+16 -2.335826e+16)
(-5.0841562e+17 -2.2178123e+16 -2.3824871e+16)
(-4.7492492e+17 -2.0882072e+16 -2.1050915e+16)
(-4.7670459e+17 -2.2195322e+16 -2.3432623e+16)
(-4.9462898e+17 -1.9570039e+16 -2.2218952e+16)
(-4.9436215e+17 -1.7557634e+16 -2.0931451e+16)
(-5.8492235e+17 1.2632653e+16 -2.6560384e+16)
(-5.7288367e+17 1.0442391e+16 -3.6149785e+16)
(-5.6829332e+17 6.0770718e+15 -3.8488059e+16)
(-5.7582544e+17 7.615588e+15 -3.00971e+16)
(-4.9868918e+17 5.2202186e+15 -2.6944584e+16)
(-5.0213799e+17 4.0996151e+15 -2.5804352e+16)
(-5.0392232e+17 5.3633571e+15 -2.2243713e+16)
(-4.9967055e+17 5.3573783e+15 -2.3705678e+16)
(-5.0602631e+17 7.4911949e+15 -2.1757615e+16)
(-5.0506139e+17 6.3906828e+15 -2.5128644e+16)
(-5.0788583e+17 8.8160092e+15 -1.8439462e+16)
(-5.0773507e+17 6.7336375e+15 -2.0959217e+16)
(-5.0120373e+17 3.600682e+15 -2.5513573e+16)
(-5.0298943e+17 3.4173581e+15 -2.3037148e+16)
(-5.0590009e+17 5.0961447e+15 -1.9487308e+16)
(-5.8351297e+17 7.5677518e+15 -2.8023181e+16)
(-4.9740937e+17 3.2571586e+15 -2.5559683e+16)
(-5.0005726e+17 1.6377278e+15 -2.4220861e+16)
(-5.7455353e+17 5.5664348e+15 -2.9463037e+16)
(-5.6570608e+17 3.7591355e+15 -3.8362361e+16)
(-5.6852938e+17 5.1440868e+15 -3.881112e+16)
(-5.9024676e+17 1.1333029e+16 -3.2101473e+16)
(-5.4377828e+17 7.1240944e+15 -5.2062118e+16)
(-5.4315897e+17 2.2104977e+15 -5.1497649e+16)
(-6.4838158e+17 1.388119e+16 -2.0013243e+16)
(-5.8592078e+17 5.9886672e+15 -3.4992512e+16)
(-6.4082283e+17 4.0890899e+15 -1.9648202e+16)
(-5.8774343e+17 5.979197e+15 -3.4239568e+16)
(-5.4273802e+17 2.1056625e+15 -5.2934979e+16)
(-5.4039587e+17 7.2168572e+13 -5.2098939e+16)
(-5.8218784e+17 3.1796291e+15 -3.5530171e+16)
(-5.7228194e+17 2.8412502e+15 -5.2442394e+16)
(-5.7598219e+17 1.223877e+16 -5.4445227e+16)
(-5.0632876e+17 -7.8047543e+15 -2.0822292e+16)
(-5.0432815e+17 -6.8180719e+15 -2.1307909e+16)
(-5.040095e+17 -8.6814597e+15 -2.593213e+16)
(-5.0313465e+17 -8.5742078e+15 -2.600402e+16)
(-4.9852392e+17 -9.8348176e+15 -1.809516e+16)
(-4.9962263e+17 -1.0456884e+16 -2.0208398e+16)
(-4.9791236e+17 -1.2143741e+16 -2.4703306e+16)
(-4.9524375e+17 -1.0686607e+16 -2.3005313e+16)
(-5.1750426e+17 -9.2517337e+15 -3.1726737e+16)
(-5.1724182e+17 -1.0327834e+16 -3.2190999e+16)
(-5.1468534e+17 -8.6944732e+15 -2.7570004e+16)
(-5.1613911e+17 -8.4043803e+15 -2.6944588e+16)
(-5.073404e+17 -1.1407747e+16 -3.0551095e+16)
(-5.1158245e+17 -1.4535756e+16 -3.1748164e+16)
(-5.0767475e+17 -1.273248e+16 -2.7612941e+16)
(-5.0573956e+17 -1.0422129e+16 -2.5509379e+16)
(-5.1194516e+17 -8.5200787e+13 -2.2113185e+16)
(-5.1094716e+17 8.9732002e+14 -2.1835078e+16)
(-4.386339e+17 -9.1987637e+14 -2.0626806e+16)
(-5.0988974e+17 -5.8036208e+14 -2.6578931e+16)
(-5.0972765e+17 -2.9018284e+14 -2.7416659e+16)
(-5.0779631e+17 -3.6081423e+15 -2.1214361e+16)
(-5.0633489e+17 -3.9252622e+15 -2.1001688e+16)
(-5.0385874e+17 -4.5340011e+15 -2.5158541e+16)
(-5.0562025e+17 -4.9673022e+15 -2.5480967e+16)
(-5.2289223e+17 -1.9798963e+15 -3.3622795e+16)
(-5.2330991e+17 4.2335781e+14 -3.3236907e+16)
(-5.2130839e+17 -7.5186512e+14 -2.8252333e+16)
(-5.2155561e+17 2.0188331e+14 -2.8535369e+16)
(-5.1445543e+17 -5.2014825e+15 -3.2457085e+16)
(-5.1667442e+17 -6.1681099e+15 -3.278727e+16)
(-5.1750315e+17 -4.8307646e+15 -2.6089147e+16)
(-5.1581704e+17 -4.440922e+15 -2.5652086e+16)
(-5.2679804e+17 -2.7295885e+15 -2.5122431e+16)
(-5.805793e+17 1.3791964e+15 -2.2584807e+16)
(-5.8087782e+17 -4.2270718e+15 -2.2472561e+16)
(-5.2178789e+17 -4.6297582e+15 -2.2656802e+16)
(-5.3355298e+17 8.7771509e+14 -4.3770051e+16)
(-5.3368378e+17 -2.9918121e+15 -4.4800497e+16)
(-5.3500082e+17 -1.8564346e+15 -3.5877131e+16)
(-5.364768e+17 1.9463904e+15 -3.4231542e+16)
(-5.261397e+17 -4.2542749e+15 -5.7843555e+16)
(-5.2607522e+17 -2.5613231e+15 -5.568337e+16)
(-5.5160817e+17 -1.8273414e+15 -4.2796623e+16)
(-5.5237512e+17 2.138738e+15 -4.0363762e+16)
(-5.3080329e+17 -9.4146107e+15 -5.4073251e+16)
(-5.4832355e+17 -5.7215346e+15 -3.501095e+16)
(-5.2862701e+17 -9.0279385e+15 -5.4429677e+16)
(-5.4602874e+17 -7.0038211e+15 -3.4735319e+16)
(-5.301316e+17 -5.4330655e+15 -3.3334612e+16)
(-5.2843173e+17 -6.1162075e+15 -4.0439052e+16)
(-5.2785178e+17 -5.1724911e+15 -3.2912461e+16)
(-5.2671569e+17 -6.6914656e+15 -3.924569e+16)
(-5.2950033e+17 -1.1666229e+16 -4.1712788e+16)
(-5.3116642e+17 -1.3511072e+16 -4.1730747e+16)
(-5.3011644e+17 -9.0949812e+15 -3.3271331e+16)
(-5.2956161e+17 -1.0898889e+16 -3.3987983e+16)
(-5.2797275e+17 -1.5516037e+16 -5.3469181e+16)
(-5.2936791e+17 -1.6488579e+16 -5.5799613e+16)
(-5.4930486e+17 -1.3323391e+16 -4.0315824e+16)
(-5.4802713e+17 -1.0557492e+16 -3.9186361e+16)
(-5.7330522e+17 -6.7055013e+15 -2.3071586e+16)
(-5.1835165e+17 -1.9559744e+16 -5.1309094e+16)
(-5.2419577e+17 -2.2355009e+16 -5.2444135e+16)
(-5.4096036e+17 -1.7092118e+16 -4.0639843e+16)
(-5.3569971e+17 -1.1843149e+16 -4.0792707e+16)
(-5.5713726e+17 -5.4408605e+15 -2.2022586e+16)
(-5.1102027e+17 -3.7554648e+14 -1.2552331e+16)
(-5.1965312e+17 -6.0382234e+15 -1.7964816e+16)
(-5.191043e+17 -1.3252293e+16 -4.0793046e+16)
(-5.2376e+17 -1.7831508e+16 -4.2347744e+16)
(-5.1881724e+17 -1.0939711e+16 -3.4153579e+16)
(-5.2242766e+17 -1.5362476e+16 -3.557204e+16)
(-5.4695209e+17 -3.5139215e+15 -4.6756975e+16)
(-4.4491168e+17 -1.3699055e+16 -1.5943042e+16)
(-4.470008e+17 -1.312379e+16 -1.4104555e+16)
(-4.4036867e+17 -1.2040419e+16 -1.2318048e+16)
(-4.4315827e+17 -1.2465705e+16 -1.0488067e+16)
(-4.5224795e+17 -1.3943224e+16 -1.6846112e+16)
(-4.5054124e+17 -1.5146307e+16 -2.0267652e+16)
(-4.5923626e+17 -1.6155704e+16 -2.3286864e+16)
(-4.6128353e+17 -1.4838445e+16 -2.4354471e+16)
(-4.9592618e+17 -2.039674e+16 -3.1798881e+16)
(-5.007886e+17 -2.3283198e+16 -3.3315602e+16)
(-5.5025467e+17 -1.8298791e+16 -2.3702286e+16)
(-5.1079524e+17 -2.2192977e+16 -3.2158987e+16)
(-5.1012166e+17 -2.7482007e+16 -3.4004416e+16)
(-5.3701998e+17 -2.387743e+16 -5.7557385e+15)
(-4.8644166e+17 -1.9684769e+16 -3.1326072e+16)
(-4.8272304e+17 -1.8361483e+16 -3.0629548e+16)
(-4.7326898e+17 -1.6202277e+16 -2.7743204e+16)
(-4.6975901e+17 -1.6188743e+16 -2.635343e+16)
(-5.6263179e+17 -1.2313605e+16 1.6419188e+16)
(-5.7589704e+17 -1.099818e+16 4.0294743e+15)
(-6.0768861e+17 3.6740622e+13 1.156374e+16)
(-5.8026177e+17 -3.8672333e+15 2.5695464e+16)
(-5.9949442e+17 -3.0217385e+15 1.832424e+16)
(-6.1942336e+17 7.6436598e+15 1.6988069e+16)
(-6.3509485e+17 2.0696999e+16 -7.4890468e+14)
(-5.7493786e+17 6.9638398e+15 2.5644822e+15)
(-5.6789023e+17 -1.033583e+15 2.0120327e+16)
(-5.6064226e+17 -7.8081835e+15 2.5834328e+16)
(-5.4114059e+17 -1.451207e+16 3.2378566e+16)
(-5.1176475e+17 -4.2516048e+16 3.490051e+16)
(-5.5121488e+17 -2.5716115e+16 5.0280645e+16)
(-5.1635417e+17 -4.692494e+16 3.7367279e+16)
(-5.5483659e+17 -1.6978503e+16 3.9250421e+16)
(-5.0600915e+17 -3.6425168e+16 3.1554543e+16)
(-5.0612639e+17 -2.7842546e+16 2.4983827e+16)
(-5.7669001e+17 1.2106623e+16 -1.4133251e+15)
(-4.9896164e+17 -1.316611e+16 3.3175833e+16)
(-5.7571278e+17 1.3500573e+15 2.1557691e+16)
(-4.9407101e+17 -1.74086e+16 3.4356753e+16)
(-4.9589883e+17 -7.2490176e+15 2.3336565e+16)
(-4.9854634e+17 -5.1908702e+15 2.0671486e+16)
(-4.1961497e+17 -1.9448817e+16 1.7631009e+16)
(-4.1916166e+17 -2.563868e+16 2.0441056e+16)
(-4.1028614e+17 -1.1055272e+16 1.6629218e+16)
(-4.1503046e+17 -4.4413316e+15 1.3309466e+16)
(-5.4869735e+17 -1.4699294e+16 3.2926453e+16)
(-5.0622115e+17 -2.6148046e+16 2.8514223e+16)
(-5.5903249e+17 -2.6908482e+16 1.5392378e+16)
(-5.3324396e+17 -3.5631742e+16 -1.1357274e+16)
(-5.6919355e+17 -2.9697518e+16 9.7620087e+15)
(-5.610375e+17 -2.4021121e+16 6.4253832e+15)
(-5.4014027e+17 -3.1114004e+16 5.6402822e+16)
(-5.2397414e+17 -5.1697751e+16 3.3373708e+16)
(-5.210151e+17 -5.0953749e+16 3.9770288e+16)
(-5.2642173e+17 -3.2081457e+16 4.5615974e+16)
(-5.3461959e+17 -4.7626944e+16 2.52476e+16)
(-5.1769901e+17 -4.8723924e+16 2.0024701e+16)
(-5.4601458e+17 -4.5180465e+15 1.3014449e+16)
(-5.9655012e+17 -3.8310724e+15 1.0828282e+16)
(-5.0909261e+17 1.4524781e+15 1.5595257e+16)
(-5.1817359e+17 -4.0229835e+16 -1.0874111e+16)
(-5.0754073e+17 -4.2218409e+16 1.0423928e+16)
(-5.3212797e+17 -2.1253844e+16 -2.3071989e+16)
(-5.6922021e+17 -3.3965178e+16 2.6170119e+15)
(-5.5550684e+17 -4.0493326e+16 6.1503177e+15)
(-5.3593877e+17 -2.3118032e+16 5.268433e+15)
(-5.2887829e+17 -2.2002153e+16 -8.90571e+15)
(-5.5936109e+17 -3.7600597e+16 -1.1318794e+16)
(-5.5074731e+17 -4.3972684e+16 -7.6293073e+15)
(-5.2393261e+17 -2.4312355e+16 2.1227043e+15)
(-4.9388379e+17 -6.1646428e+16 2.7843126e+16)
(-4.8896437e+17 -6.4763861e+16 2.8231582e+16)
(-4.8243057e+17 -6.9504249e+16 2.8505591e+16)
(-4.940077e+17 -6.4228039e+16 2.9742352e+16)
(-4.9044211e+17 -5.7743959e+16 2.5798798e+16)
(-4.8401781e+17 -6.5232291e+16 2.7094024e+16)
(-4.7540587e+17 -7.0875812e+16 2.6694808e+16)
(-4.7796613e+17 -6.3803288e+16 2.3120138e+16)
(-4.8420386e+17 -7.1802564e+16 4.1515796e+16)
(-4.9524597e+17 -5.8492259e+16 3.3644912e+16)
(-4.9172072e+17 -7.3040666e+16 3.8461515e+15)
(-4.8606187e+17 -6.6802136e+16 -2.0564196e+14)
(-4.6295034e+17 -6.4403121e+16 -2.189136e+16)
(-4.6955435e+17 -7.3853709e+16 -1.5045338e+16)
(-4.5772575e+17 -4.3101122e+16 -4.2153876e+16)
(-4.7044931e+17 -2.9005851e+16 -2.340632e+16)
(-4.6431286e+17 -5.5430447e+16 -4.6626278e+16)
(-4.7297457e+17 -3.6513429e+16 -2.6246234e+16)
(-4.6977545e+17 -7.2280638e+16 -2.5726177e+15)
(-4.6589105e+17 -6.3645472e+16 -5.047511e+15)
(-4.4739308e+17 -4.7592251e+16 -2.8606665e+16)
(-4.4631571e+17 -6.2958221e+16 -2.6571596e+16)
(-4.4123149e+17 -3.8898705e+16 -3.9186639e+16)
(-4.4221295e+17 -2.688234e+16 -3.2214692e+16)
(-4.5528621e+17 -2.1698218e+16 -1.7229081e+16)
(-4.5489872e+17 -2.7757022e+16 -2.04561e+16)
(-5.21649e+17 -5.5623394e+16 -3.4434871e+15)
(-5.1474964e+17 -5.4104326e+16 -1.0631688e+16)
(-5.0293621e+17 -6.4833509e+16 8.9358905e+15)
(-5.0723306e+17 -6.4075114e+16 1.7706223e+15)
(-5.0808458e+17 -6.4754464e+16 2.5242129e+15)
(-5.0450126e+17 -6.8187714e+16 -1.2400803e+15)
(-4.8800722e+17 -7.7173697e+16 -1.6460696e+15)
(-4.8530301e+17 -7.0954163e+16 -9.2141117e+15)
(-4.9322335e+17 -7.200463e+16 -4.1152803e+16)
(-4.9927406e+17 -6.9636018e+16 -4.3294653e+16)
(-4.9972517e+17 -5.1843588e+16 -1.874032e+16)
(-5.0425659e+17 -4.5640634e+16 -2.5425671e+16)
(-4.8334785e+17 -7.4242304e+16 -4.6234484e+16)
(-4.8046218e+17 -5.8202442e+16 -4.6724027e+16)
(-4.8863338e+17 -3.6367907e+16 -2.7927876e+16)
(-4.889903e+17 -4.7521301e+16 -2.8895157e+16)
(-4.7452463e+17 -5.3046593e+16 2.2891291e+16)
(-4.5158389e+17 -4.9855917e+16 1.1201191e+16)
(-4.78102e+17 -4.6788731e+16 2.2019387e+16)
(-4.5272578e+17 -6.0392454e+16 1.5447951e+16)
(-4.8312177e+17 -5.4228389e+16 2.4400667e+16)
(-4.6432708e+17 -6.2147787e+16 1.8433508e+16)
(-4.8251831e+17 -5.8139296e+16 2.4876694e+16)
(-4.6814635e+17 -6.4426327e+16 2.071472e+16)
(-4.6936161e+17 -4.5345417e+16 2.136931e+16)
(-4.7048619e+17 -4.0499846e+16 2.041212e+16)
(-4.3864713e+17 -4.9484394e+16 1.0430884e+16)
(-4.3833452e+17 -4.170656e+16 9.2418454e+15)
(-4.6080693e+17 -3.7184451e+16 1.9471411e+16)
(-4.6438755e+17 -3.1176077e+16 1.6981054e+16)
(-4.2491392e+17 -2.9711558e+16 8.546756e+15)
(-4.2654085e+17 -3.8756911e+16 8.6173017e+15)
(-3.9927079e+17 -2.7319638e+16 -6.5416365e+15)
(-4.011733e+17 -1.6965033e+16 -1.6488607e+15)
(-4.133307e+17 -3.4246014e+15 -1.2864827e+15)
(-4.0207725e+17 -9.73422e+15 -6.573916e+15)
(-4.1308507e+17 -4.0467944e+16 -1.1043486e+16)
(-4.130619e+17 -3.1496137e+16 -9.0928117e+15)
(-4.1469007e+17 -1.3135776e+16 -1.1251437e+16)
(-4.0786644e+17 -1.8028434e+16 -1.6362927e+16)
(-4.1963067e+17 1.1981815e+15 9.8984323e+15)
(-4.0945292e+17 -2.4862208e+15 6.3300955e+15)
(-4.1608765e+17 -8.5873692e+15 1.0845071e+16)
(-4.0968369e+17 -1.2659349e+16 8.6898041e+15)
(-4.2115755e+17 -4.3165536e+15 1.1891086e+15)
(-4.1438645e+17 -6.9712412e+15 -3.3691599e+15)
(-4.2163089e+17 -1.3119418e+16 4.6575983e+15)
(-4.18757e+17 -1.5968155e+16 1.8933087e+15)
(-4.3031327e+17 -5.2946372e+16 -9.9001341e+15)
(-4.1638988e+17 -3.004378e+16 -2.5421865e+16)
(-4.2578774e+17 -4.2778368e+16 -1.1077183e+16)
(-4.2058982e+17 -2.1162293e+16 -2.0495263e+16)
(-4.1786639e+17 -1.4069269e+16 -1.5292096e+16)
(-4.2802137e+17 -1.9545284e+16 -5.6002964e+15)
(-4.3016356e+17 -1.5447854e+16 -2.4181953e+15)
(-4.2525569e+17 -8.4525432e+15 -8.7835309e+15)
(-4.4850521e+17 -6.5182609e+16 -6.7668799e+15)
(-4.45095e+17 -5.6228109e+16 -8.7743321e+15)
(-4.2993986e+17 -4.3948058e+16 -2.9043067e+16)
(-4.3150429e+17 -3.4903528e+16 -2.7348377e+16)
(-4.3040231e+17 -1.7926252e+16 -2.0877434e+16)
(-4.2813436e+17 -2.3616457e+16 -2.7170408e+16)
(-4.4111048e+17 -2.0027548e+16 -9.8247032e+15)
(-4.4102888e+17 -2.212874e+16 -1.3081931e+16)
(-3.3826229e+17 -9.6326188e+15 1.5779234e+16)
(-3.6953372e+17 -1.9570484e+16 1.9182634e+16)
(-3.6111667e+17 -2.5660783e+16 1.9651156e+16)
(-3.2563729e+17 -1.4844795e+16 1.4831857e+16)
(-3.6893778e+17 -2.9195984e+16 1.9497852e+16)
(-3.6282489e+17 -3.1911265e+16 1.9523137e+16)
(-3.2782701e+17 -2.9881007e+16 1.7423014e+16)
(-3.7794047e+17 -2.033806e+16 9.6417022e+15)
(-3.2865009e+17 -1.0257766e+16 1.7996619e+16)
(-3.626272e+17 -1.6695306e+16 2.0920849e+16)
(-3.6639343e+17 -1.2359151e+16 2.1441624e+16)
(-3.3606328e+17 -7.8762986e+15 1.9458566e+16)
(-3.587387e+17 -7.9796268e+15 2.3071358e+16)
(-3.6679589e+17 -3.5653459e+15 2.2054912e+16)
(-3.3826025e+17 -2.3013241e+15 2.2218421e+16)
(-3.2705451e+17 -6.4816543e+15 2.1768132e+16)
(-3.1775353e+17 -1.9766424e+16 1.1014219e+16)
(-2.928538e+17 -2.3468361e+16 1.5833147e+16)
(-3.122281e+17 -1.3721431e+16 1.2058974e+16)
(-3.269059e+17 -1.1174794e+16 1.1405371e+16)
(-3.361866e+17 -4.516829e+15 1.5748772e+16)
(-3.3000321e+17 -1.045142e+16 1.3737589e+16)
(-3.2285976e+17 -8.8026397e+15 1.4633349e+16)
(-3.1554422e+17 -1.6136568e+16 1.3946634e+16)
(-3.4252264e+17 1.3300131e+15 1.6324725e+16)
(-3.5103644e+17 2.8024725e+15 1.6537281e+16)
(-3.5657476e+17 4.9176091e+15 1.8165077e+16)
(-3.5129946e+17 4.6501979e+15 1.8090857e+16)
(-3.5774771e+17 6.7913991e+15 2.0826038e+16)
(-3.5522494e+17 6.2739504e+15 2.0778646e+16)
(-3.501814e+17 5.9362769e+15 2.1002032e+16)
(-3.4504662e+17 4.6028045e+15 2.0395455e+16)
(-3.4961277e+17 6.9838812e+15 2.4362241e+16)
(-3.5625709e+17 7.6390034e+15 2.4899731e+16)
(-3.5737622e+17 6.9132301e+15 2.4615847e+16)
(-3.5220818e+17 6.7359511e+15 2.4049907e+16)
(-3.3157947e+17 -3.611835e+15 1.9404695e+16)
(-3.237877e+17 -9.0051144e+15 1.6625245e+16)
(-3.3355048e+17 -4.8490666e+15 1.766294e+16)
(-3.3998369e+17 -1.0291774e+15 2.0960575e+16)
(-3.3429409e+17 9.7218788e+14 2.4059892e+16)
(-3.2726563e+17 -2.1393509e+15 2.075039e+16)
(-3.4014915e+17 2.4196701e+15 2.1073502e+16)
(-3.4506416e+17 4.366765e+15 2.4338116e+16)
(-3.5868282e+17 1.0507535e+16 2.7893034e+16)
(-3.4956e+17 9.2509614e+15 2.8288326e+16)
(-3.509917e+17 7.8214641e+15 2.729659e+16)
(-3.5877861e+17 9.0959991e+15 2.6943068e+16)
(-3.5866619e+17 9.8855776e+15 2.9567518e+16)
(-3.6373943e+17 9.4962288e+15 2.9361251e+16)
(-3.6227211e+17 7.374393e+15 2.5939039e+16)
(-3.5707878e+17 7.4765009e+15 2.5207383e+16)
(-3.588053e+17 9.0282882e+15 2.5151504e+16)
(-3.6413353e+17 8.5853087e+15 2.4779475e+16)
(-3.625218e+17 7.2008193e+15 2.0732242e+16)
(-3.5797358e+17 7.1730083e+15 2.0890394e+16)
(-3.5353768e+17 7.114637e+15 2.6645066e+16)
(-3.5764904e+17 7.5381586e+15 2.7146123e+16)
(-3.3752889e+17 -2.7762934e+16 1.8800289e+16)
(-3.3557026e+17 -2.8208097e+16 1.697164e+16)
(-3.4565607e+17 -1.6143658e+16 1.8154349e+16)
(-3.5442462e+17 8.9844553e+15 2.8489592e+16)
(-3.2891036e+17 -2.9807062e+16 1.8719732e+16)
(-3.4892806e+17 9.8075396e+15 2.895246e+16)
(-3.6265306e+17 8.1588415e+15 2.2823308e+16)
(-3.6459881e+17 9.7856583e+15 2.7130812e+16)
(-3.5504164e+17 7.7616071e+15 2.1831369e+16)
(-3.572869e+17 9.5627078e+15 2.71228e+16)
(-3.7545771e+17 -2.0727627e+16 -3.0280588e+15)
(-3.6846715e+17 -2.1373694e+16 -4.9701036e+14)
(-3.5806179e+17 -2.1337406e+16 4.2916492e+15)
(-3.63281e+17 -2.1891216e+16 1.4222569e+15)
(-3.1038834e+17 -3.2539125e+16 5.8983986e+15)
(-3.1474166e+17 -3.2177079e+16 4.2861263e+15)
(-3.209205e+17 -2.1952513e+16 1.4297671e+16)
(-3.9093918e+17 -1.9000709e+16 -7.794666e+15)
(-3.8129295e+17 -1.9021206e+16 -4.1915973e+15)
(-4.0898215e+17 -1.6593077e+16 -1.218254e+16)
(-3.9873534e+17 -1.8764675e+16 -9.9593344e+15)
(-6.196515e+17 6.8073137e+15 -5.29215e+16)
(-5.0565517e+17 -1.8165069e+16 -4.4179573e+16)
(-4.907036e+17 2.2021556e+15 -4.2355858e+16)
(-5.1994384e+17 -2.8398854e+16 -3.2814749e+16)
(-5.2597883e+17 -1.3969488e+16 -3.4694332e+16)
(-5.2679952e+17 -2.2812876e+16 -3.3257256e+16)
(-5.4072848e+17 -1.9191494e+16 -1.9358086e+16)
(-5.2886225e+17 -1.3121376e+16 -1.2032545e+16)
(-4.9033912e+17 -2.7274517e+16 -4.7878799e+16)
(-4.8173812e+17 -2.121458e+16 -4.330769e+16)
(-4.7093058e+17 -1.7359671e+16 -3.7082527e+16)
(-4.5967734e+17 -1.5237587e+16 -3.1386102e+16)
(-4.4907345e+17 -1.4416049e+16 -2.6281082e+16)
(-4.3929529e+17 -1.4393723e+16 -2.262095e+16)
(-4.175729e+17 -1.38328e+16 -1.4340692e+16)
(-4.2935859e+17 -1.3564579e+16 -1.8342928e+16)
(-5.0056381e+17 8.6616116e+15 -2.5973005e+16)
(-5.1229033e+17 6.9882526e+15 -2.8311692e+16)
(-5.1270939e+17 6.5075828e+15 -2.3923789e+16)
(-5.1539756e+17 7.8009652e+15 -1.9500048e+16)
(-5.1443852e+17 6.6933858e+15 -2.3102257e+16)
(-5.2618999e+17 7.1178998e+15 -2.4189229e+16)
(-5.2263002e+17 5.4548656e+15 -3.1693203e+16)
(-5.2386302e+17 7.5983423e+15 -3.5040999e+16)
(-5.238741e+17 7.3786446e+15 -2.922818e+16)
(-5.1900373e+17 4.8740455e+15 -3.4516286e+16)
(-5.2180506e+17 2.8442473e+15 -3.4937435e+16)
(-5.2241423e+17 3.830451e+15 -2.7878031e+16)
(-5.1697135e+17 4.6993983e+15 -2.9921811e+16)
(-5.1081867e+17 4.2794476e+15 -2.4325081e+16)
(-5.1053856e+17 3.441744e+15 -2.7209239e+16)
(-5.0655675e+17 4.4918569e+15 -2.8316598e+16)
(-5.0669496e+17 4.6478069e+15 -2.5420348e+16)
(-4.3083399e+17 2.2410268e+15 -1.8637286e+16)
(-4.2823052e+17 3.0738098e+15 -2.0184362e+16)
(-4.335173e+17 2.93415e+15 -2.4306154e+16)
(-4.3584366e+17 1.9272234e+15 -2.3164568e+16)
(-4.3199583e+17 2.2499978e+15 -1.7755326e+16)