/*--------------------------------*- C++ -*----------------------------------*\
  =========                 |
  \\      /  F ield         | OpenFOAM: The Open Source CFD Toolbox
   \\    /   O peration     | Website:  https://openfoam.org
    \\  /    A nd           | Version:  7
     \\/     M anipulation  |
\*---------------------------------------------------------------------------*/
FoamFile
{
    version     2.0;
    format      ascii;
    class       volScalarField;
    location    "1000";
    object      k;
}
// * * * * * * * * * * * * * * * * * * * * * * * * * * * * * * * * * * * * * //

dimensions      [0 2 -2 0 0 0 0];

internalField   nonuniform List<scalar> 
33730
(
1.6507295
1.6006234
1.6017887
1.5316588
1.5319064
1.5538161
1.8071777
1.5544287
1.794142
1.6604983
1.6571507
1.5551816
1.5544546
1.6605087
1.5548631
1.5537307
1.6601433
1.5249611
1.5248658
1.5283524
1.5245637
1.5286586
1.5234086
1.5542422
1.5546547
1.5538017
1.5544137
1.5627834
1.5387005
1.5383758
1.5612828
1.6310746
1.6334607
2.1058709
2.1045955
1.5631744
1.5387726
1.5386243
1.5624107
1.6328886
1.6318821
2.0685679
2.0865369
1.7234965
1.6080928
1.7246195
1.6069349
1.7164345
1.717846
1.6061806
1.6085481
1.606277
1.7251667
1.6080702
1.7230172
1.7228906
1.7246647
1.6045946
1.606898
1.5343818
1.5290803
1.5578328
1.5492291
1.5266964
1.5346483
1.5291249
1.5235634
1.5243777
1.5474631
1.5421436
1.5423964
1.546724
1.5231277
1.5214013
1.5216802
1.5344235
1.5288185
1.5287791
1.5340355
1.5423211
1.5420927
1.547165
1.546435
1.5232267
1.523301
1.5227134
1.6140249
1.61347
1.6126215
1.6145713
1.6129614
1.6111148
1.6126833
1.6134788
1.5336183
1.5333197
1.5606794
1.5361571
1.5358969
1.559173
1.6013108
1.6794919
1.600058
1.677829
1.6026739
1.6027412
1.6802534
1.6820351
1.905595
1.9038761
2.5196777
2.5089326
1.9005791
1.9090246
2.4958162
2.5118977
1.5610972
1.5361853
1.536097
1.5603021
1.6022447
1.6027556
1.6786298
1.6793451
1.6007472
1.6018716
1.6777976
1.6788636
1.8817807
1.8907379
2.4204801
2.45034
1.8941514
1.8927935
2.4778786
2.4741561
1.6733464
1.7789292
1.77857
1.670976
1.7786135
1.779774
1.671726
1.6722977
1.763567
1.7646311
1.6708045
1.6693038
1.7660425
1.7708456
1.6699654
1.6696182
1.7797071
1.7823541
1.6717759
1.6709958
1.7733905
1.7755888
1.6716031
1.6693601
1.7789961
1.6698207
1.6677918
1.7745185
1.7799751
1.7810293
1.6723394
1.669468
1.5690128
1.5696086
1.5760056
1.5774666
1.6407564
1.6453734
1.5553162
1.5559399
1.5473416
1.5472755
1.5251879
1.6152745
1.623051
1.6137251
1.6206381
1.5963183
1.5944919
1.5818171
1.5407329
1.5805634
1.5355228
1.535696
1.569861
1.5695474
1.577628
1.5770938
1.556081
1.5478071
1.547713
1.5559556
1.52522
1.5228306
1.522863
1.5278742
1.5277869
1.5307845
1.5305944
1.6052426
1.6072836
1.6091535
1.6025203
1.5957479
1.5918416
1.5912147
1.5950278
1.5967139
1.5914684
1.59273
1.5942981
1.6081254
1.6079076
1.6032321
1.6042662
1.521493
1.521189
1.5198427
1.5199755
1.5226484
1.522527
1.5248771
1.524908
1.5213787
1.5207018
1.5208551
1.5215167
1.521678
1.5209658
1.5210715
1.5217469
1.5702551
1.5781982
1.576609
1.5686554
1.5566307
1.5472143
1.5478264
1.5550994
1.5468098
1.5553107
1.5550261
1.5468349
1.5679946
1.5686539
1.5763604
1.5765165
1.5947263
1.5917798
1.595474
1.591513
1.5916457
1.594975
1.5931483
1.590343
1.6076126
1.6039142
1.607273
1.6024756
1.6057015
1.6071787
1.6032058
1.6008185
1.5224962
1.5222031
1.5254643
1.5240498
1.5241666
1.5254514
1.5226967
1.5231735
1.5228185
1.5232904
1.6817845
1.6799742
1.6810788
1.6812256
1.6789058
1.6789841
1.679429
1.6786432
1.6784399
1.6808753
1.6787119
1.6770149
1.6802526
1.6806511
1.6783754
1.6798365
1.5304064
1.5301379
1.5569725
1.6108905
1.6100004
1.5333475
1.5331092
1.5556797
1.6079879
1.6090167
1.689146
1.6875231
1.6894959
1.6917917
1.8241465
1.8221911
2.118542
2.1101163
1.8165038
1.8258934
2.1263371
2.1050509
2.6929222
2.6983034
2.6306276
2.6585724
2.6721899
2.702056
2.6431936
2.6620979
1.8216939
1.8211604
2.1067381
2.0966124
1.8295303
1.823994
2.121578
2.1134826
2.6564554
2.6711627
2.5905185
2.6237658
2.7002618
2.6887403
2.6462253
2.6416105
1.5573461
1.6100577
1.6101412
1.5334169
1.5333293
1.5566444
1.6094066
1.6083812
1.6873644
1.6882351
1.6868838
1.6880286
1.8101556
1.809919
2.0669854
2.0559654
1.8159636
1.8118402
2.0800594
2.0778953
2.5000878
2.5659736
2.5864971
2.5334363
2.6176811
2.6212825
2.5591554
2.5699544
1.8161273
1.8174214
2.0816863
2.0959048
1.8182019
1.8119301
2.0929698
2.0811474
2.5658398
2.6488389
2.6618676
2.6003598
2.6619268
2.6437982
2.5909728
2.5746922
1.8604787
1.8563651
1.7170598
1.716335
1.8586884
1.8610771
1.7164626
1.7153252
1.8602021
1.8576834
1.7170402
1.7158262
1.8551331
1.8612009
1.7173116
1.7160768
1.8359764
1.8291768
1.7115232
1.7114601
1.8365987
1.8381261
1.712252
1.7114803
1.8405784
1.8385491
1.712797
1.7121769
1.8474825
1.8456939
1.7141556
1.7137383
1.8637666
1.8601661
1.7162881
1.7155415
1.862972
1.8664136
1.717221
1.7161108
1.8464857
1.8445047
1.7142869
1.713031
1.8562653
1.8548238
1.7141316
1.7133179
1.8572126
1.8595542
1.7155213
1.713778
1.8442735
1.8520221
1.7138211
1.7122191
1.8575504
1.8569793
1.7168298
1.7151219
1.8644874
1.8649273
1.7158698
1.7145847
1.5198119
1.6393222
1.6378241
1.6436377
1.6410584
1.641123
1.6458791
1.6386336
1.6425194
1.65952
1.6587704
1.6573522
1.6555916
1.6619385
1.6615446
1.659105
1.6577977
1.7285069
1.7123765
1.718161
1.7146689
1.7163141
1.7245912
1.7192998
1.7228896
1.7193868
1.7156128
1.6134104
1.6210127
1.6125533
1.6192484
1.6146449
1.6226481
1.6125359
1.619819
1.5952487
1.5930215
1.5805565
1.5789074
1.5387778
1.594086
1.5930971
1.5792933
1.5796276
1.5387112
1.5337916
1.5339975
1.6970663
1.7035619
1.6996236
1.7015516
1.7115897
1.7064305
1.7039157
1.7095696
1.6986191
1.7049996
1.7005352
1.703444
1.7128945
1.7072024
1.7115635
1.7047281
1.6918789
1.6914898
1.6899846
1.6873901
1.6911269
1.6889393
1.6923515
1.6919376
1.6738704
1.5705239
1.5651076
1.5654701
1.569213
1.6740219
1.5524515
1.553116
1.5572554
1.5566137
1.5526723
1.552873
1.5569149
1.5564783
1.6419464
1.6412058
1.6464153
1.6449815
1.6405993
1.6453494
1.6389895
1.6429726
1.6612348
1.6608947
1.6595697
1.6583782
1.6625555
1.6618263
1.6617963
1.6603946
1.6157427
1.6234403
1.615122
1.6222862
1.5962836
1.5954318
1.5813414
1.5817109
1.5390933
1.5957122
1.5941353
1.5799601
1.5810973
1.5391238
1.6141913
1.6222212
1.612831
1.6201863
1.5340898
1.534175
1.5264492
1.5263919
1.5292217
1.529264
1.5262584
1.529007
1.5291359
1.5263063
1.5380301
1.5350579
1.5352128
1.5378614
1.534442
1.5346995
1.5375235
1.5372075
1.5426873
1.5428271
1.5461464
1.5458978
1.5462318
1.5423437
1.5420286
1.5455025
1.5210227
1.5232212
1.5193624
1.5199878
1.5444073
1.5521345
1.5650371
1.6840222
1.6830232
1.6718096
1.6702194
1.6831124
1.6837868
1.6746357
1.6743487
1.6847956
1.6760708
1.6834035
1.6741983
1.6827017
1.6706823
1.683048
1.6701246
1.6843696
1.6768946
1.6818221
1.6737291
1.6739967
1.6750211
1.6716361
1.6716364
1.6743332
1.6721273
1.6716157
1.6687554
1.6833978
1.6759417
1.6840973
1.6756004
1.6837021
1.6819361
1.6756337
1.6732723
1.6727285
1.6698317
1.6736931
1.6699023
1.6754377
1.6722736
1.6731673
1.6694982
1.6811501
1.6733838
1.6819916
1.6732781
1.6862183
1.683864
1.6776618
1.6748947
1.6854426
1.6768743
1.6857667
1.6761899
1.6850415
1.6729037
1.6721413
1.6848724
1.6856807
1.6836121
1.6736184
1.6710617
1.5206566
1.5207547
1.5202686
1.5203167
1.5204213
1.5205565
1.5201623
1.5200554
1.5199866
1.5201379
1.526189
1.5261744
1.5290023
1.5289484
1.5294379
1.526297
1.5292673
1.5262733
1.53402
1.5342817
1.5391544
1.5386421
1.5336024
1.5336024
1.5383498
1.5382602
1.5225534
1.5224621
1.5238339
1.5238697
1.5214893
1.5209257
1.5210517
1.5215846
1.521142
1.5211258
1.5216655
1.5216776
1.5225532
1.523846
1.5225724
1.5238567
1.5227278
1.522719
1.5240424
1.5240518
1.5212276
1.5217691
1.5212147
1.5217645
1.5213537
1.5212682
1.5218111
1.5218838
1.5227711
1.5226877
1.5239703
1.5240237
1.6422717
1.6467418
1.6396144
1.6435098
1.6623187
1.6616127
1.6596888
1.65847
1.659776
1.6591619
1.6586304
1.6586731
1.6380289
1.6379964
1.642659
1.6422999
1.6162261
1.6241154
1.6139807
1.6211844
1.5798251
1.5803345
1.5939249
1.5932159
1.5967591
1.5946813
1.5804873
1.5818613
1.6120929
1.6199467
1.6116587
1.6193263
1.5778741
1.5798982
1.5936296
1.5913013
1.6120969
1.6130716
1.6202241
1.6207049
1.6117579
1.6200718
1.6095261
1.6174014
1.5930736
1.5935389
1.579294
1.5785906
1.6375023
1.6428916
1.6351136
1.6398436
1.6376606
1.642768
1.6387857
1.6432442
1.6564593
1.6590916
1.6596434
1.656302
1.6589488
1.659277
1.6600709
1.6595409
1.6845612
1.6841371
1.6763702
1.6750742
1.6744453
1.6716385
1.672747
1.669106
1.6813571
1.6829905
1.6753119
1.6728055
1.6756023
1.6723724
1.6750193
1.6710291
1.6752109
1.6722329
1.6722577
1.6685113
1.6836792
1.6757949
1.6808236
1.6721462
1.6810835
1.6730004
1.6785869
1.6696579
1.6722949
1.6698091
1.6657725
1.6691191
1.6844124
1.6827855
1.6735816
1.6758591
1.6837137
1.671822
1.6821839
1.6695666
1.685619
1.6765999
1.6852329
1.6754519
1.6846646
1.6723506
1.6842848
1.671136
1.6823458
1.6735906
1.6850458
1.6763005
1.6823085
1.6730537
1.6725953
1.6842909
1.6818777
1.6692474
1.6701132
1.681773
1.6676346
1.5221168
1.5225348
1.5224151
1.5223193
1.5222053
1.5315334
1.5294394
1.5316293
1.5295277
1.5271911
1.525797
1.5272285
1.5258386
1.5258092
1.5258671
1.5271597
1.5270553
1.5290752
1.5292305
1.5312019
1.5309884
1.5227667
1.5231653
1.5232668
1.5228455
1.5245488
1.5237587
1.5238693
1.5245887
1.5228672
1.5232646
1.5233119
1.5228871
1.5246283
1.5238454
1.5238984
1.5246022
1.5239894
1.5233402
1.5229029
1.7222086
1.7220222
1.7219973
1.7207844
1.7215736
1.723063
1.7212632
1.7222422
1.717559
1.7176785
1.7196354
1.7192004
1.7162579
1.716772
1.7175229
1.7167408
1.719873
1.7212237
1.7203067
1.7218442
1.7203473
1.7188844
1.7189121
1.7170477
1.7215207
1.7227705
1.720942
1.7212485
1.7187203
1.7194927
1.7183049
1.7190443
1.5309676
1.5280905
1.5313695
1.5314139
1.5278462
1.5311436
1.5313576
1.5516677
1.6042409
1.6038628
1.6133794
1.615003
1.5506249
1.6012301
1.6028251
1.611845
1.6127598
1.6613679
1.6622945
1.7424851
1.7436893
1.8905222
1.890154
1.6606118
1.6610251
1.8952687
1.7422041
1.7408173
1.8818059
1.6619403
1.6626311
1.7438828
1.7416279
1.8884976
1.8861172
1.6647258
1.6644313
1.7468199
1.7465408
1.8987408
1.8910509
2.0721768
2.3626761
2.3409731
2.0586361
2.0568567
2.0548906
2.3200955
2.3409111
2.0715751
2.0714245
2.3728778
2.3532218
2.3552574
2.0625822
2.3117643
2.040816
2.564856
3.2826882
3.3256214
2.5672609
2.5879746
3.3602758
3.3257456
2.5808804
2.6573342
2.6193067
3.1231922
3.0639639
2.6546785
2.6829813
3.127675
3.1586568
2.6677494
2.7039334
3.1359619
3.1936359
2.5890457
3.3319651
3.3669339
2.5873115
3.1782369
2.679441
2.6157118
3.0796586
3.2519522
3.3458089
2.5615267
2.5236055
2.0626917
2.3415005
2.3174532
2.0495476
2.0499978
2.0425852
2.2922186
2.3252568
2.073852
2.0653352
2.3321142
2.3661453
2.0544861
2.0704464
2.3576544
2.3274929
2.5336266
3.2018887
3.2682602
2.5488962
2.5707468
3.3052376
3.2694547
2.5649155
2.6287731
2.5722359
3.0673106
2.9818182
2.6149588
2.6480903
3.0609903
3.0989325
2.5882941
3.2964154
3.3586234
2.6047908
2.5967879
3.347624
3.290885
2.5740603
2.6870853
2.6303793
3.1587178
3.0726247
2.6324724
2.6744244
3.0908258
3.1473134
1.5332634
1.5331113
1.5552502
1.5519696
1.603809
1.6041988
1.6139274
1.6142302
1.5513723
1.6019113
1.6034028
1.6130736
1.6120474
1.6609499
1.6618024
1.7396832
1.7378409
1.8699855
1.8729813
1.6622184
1.661849
1.740145
1.7407401
1.8797855
1.8745855
1.6602962
1.6601077
1.739448
1.7398304
1.8840812
1.8752715
1.660882
1.6615465
1.7393723
1.7421344
1.8788105
1.884191
2.0279884
2.2719212
2.0176828
2.2568187
2.0128002
2.0110426
2.2331019
2.2527075
2.0348892
2.030673
2.2687899
2.2962096
2.3025043
2.0389641
2.0220253
2.2687162
2.4808202
2.5155752
2.893782
2.8392719
3.0958062
3.0454977
2.4873629
2.5132602
3.1257837
3.1407298
2.5237477
2.5165798
2.5216315
2.537993
2.9111869
2.9250211
3.2162808
3.1540672
2.5333279
2.5472503
3.1712676
3.227833
2.5469314
2.5304938
2.5838896
2.5339091
3.0011666
2.9221845
2.5448757
2.5909584
2.956939
3.0159784
2.0351132
2.0298218
2.2698801
2.2979236
2.3269272
2.0552166
2.0413412
2.3006231
2.2946359
2.0428224
2.3146644
2.0442734
2.0416877
2.0268559
2.3072194
2.2772357
2.5885431
2.5399314
2.9394399
3.0094185
3.2231982
3.1634097
2.5497865
2.5724261
2.5789504
3.271853
3.229871
2.5613162
2.5883489
2.6228778
3.0173446
3.0557813
2.5645868
3.2180884
3.2582285
2.5759572
2.568651
3.2466712
3.1901048
2.5422803
2.6103512
2.5738914
3.0445475
2.9896264
2.5570203
2.5998094
2.9742976
3.0329263
1.5234156
1.8638219
1.8570061
1.8622875
1.8653769
1.8622975
1.8593119
1.8577549
1.8645195
1.8426078
1.8346631
1.8435427
1.8452883
1.8449454
1.8408247
1.8523429
1.8504187
1.8636755
1.8595397
1.8629239
1.867033
1.8485796
1.8450334
1.8587746
1.8579703
1.8547991
1.8554996
1.8510308
1.8585386
1.8561423
1.8644766
1.8661525
1.7203291
1.7165693
1.7124868
1.7160349
1.7144712
1.7172516
1.7135274
1.7100544
1.7180047
1.7272387
1.721619
1.7237019
1.7213301
1.715012
1.7241941
1.7185046
1.7154791
1.7209213
1.717863
1.7188377
1.7288068
1.7237377
1.7212932
1.7268107
1.7151066
1.719902
1.7164955
1.718471
1.7277448
1.7222533
1.7268439
1.7204183
1.730918
1.7268549
1.7236103
1.7278323
1.7286246
1.7324361
1.7351852
1.7246204
1.7278611
1.7249453
1.7237731
1.7202937
1.7255332
1.7292696
1.721641
1.7321865
1.7272558
1.7333036
1.7297077
1.7312576
1.7320874
1.7383472
1.7362354
1.728509
1.730851
1.726129
1.7321127
1.7281436
1.730434
1.7371031
1.7356121
1.7277492
1.8292083
1.8107288
1.7980397
1.8074537
1.8005312
1.8159267
1.8229508
1.818957
1.8059999
1.8160961
1.8252173
1.7032154
1.7012102
1.6994228
1.6958896
1.708989
1.7078349
1.7028526
1.7121173
1.702081
1.7001986
1.694766
1.6978172
1.7102977
1.707661
1.7048142
1.7013605
1.6974077
1.7032973
1.6999895
1.7010805
1.7127892
1.7081808
1.7056163
1.710525
1.6974359
1.7025789
1.6988961
1.701222
1.7119003
1.7068939
1.7108567
1.7048588
1.6901744
1.689573
1.6890332
1.6864529
1.6881432
1.6863185
1.6883965
1.687999
1.6715652
1.5690087
1.6696908
1.5673767
1.5639239
1.5624317
1.6906812
1.6903294
1.6889207
1.6865386
1.6879844
1.6856721
1.6889956
1.6883873
1.6707889
1.5677809
1.6722472
1.5682459
1.563397
1.5632685
1.5553021
1.5508009
1.5498634
1.5538424
1.5547164
1.5511122
1.5548747
1.5506119
1.7635764
1.7499579
1.7627345
1.749157
1.7751036
1.7864869
1.7889048
1.7762465
1.754762
1.768324
1.7532668
1.7814808
1.7936477
1.7235701
1.7215936
1.7355812
1.734342
1.7395735
1.7376215
1.7259385
1.7232078
1.7485326
1.7201659
1.6530117
1.7169918
1.7435398
1.6353719
1.6346621
1.6527659
1.7186407
1.7232653
1.7518209
1.7461042
1.6523786
1.6338102
1.5994769
1.6010642
1.6163492
1.6026446
1.6022105
1.6173511
1.6178615
1.7175844
1.7243777
1.7207721
1.7207588
1.7209764
1.7225172
1.7193292
1.7172442
1.7318092
1.7262684
1.7292149
1.7229772
1.729244
1.7259452
1.7233649
1.7306543
1.7196704
1.7166111
1.7190855
1.7148426
1.7262083
1.720133
1.7274112
1.7223114
1.7166558
1.7207456
1.7171689
1.7200831
1.7284078
1.7228003
1.7226812
1.72845
1.73173
1.7280872
1.7263018
1.7301123
1.7365908
1.7299667
1.7281994
1.7352867
1.7326483
1.7330561
1.7286378
1.7280988
1.7376108
1.7375839
1.7304666
1.7295469
1.7294021
1.7359043
1.7318701
1.7332921
1.7338688
1.7405467
1.7386769
1.7308365
1.7302867
1.7358446
1.7318373
1.7340247
1.7340418
1.7408166
1.7398772
1.7320253
1.7064557
1.7046237
1.7028022
1.6997151
1.713055
1.7115768
1.7072431
1.7156941
1.7048419
1.7036082
1.6992409
1.7013655
1.71434
1.7126804
1.7095029
1.7072439
1.693605
1.6931158
1.6921339
1.6898422
1.6904132
1.6887221
1.6904121
1.6899798
1.6717432
1.5694206
1.6748063
1.5701113
1.5651236
1.564334
1.6911488
1.6910391
1.6895819
1.6878452
1.6908857
1.6894219
1.6916989
1.6914525
1.6730114
1.5683908
1.672792
1.5695773
1.5645467
1.5634834
1.6975798
1.7024809
1.6989841
1.7012392
1.7116774
1.7070799
1.7058883
1.7107585
1.6990572
1.703998
1.699935
1.7030447
1.7129278
1.7077511
1.7125172
1.706433
1.5558954
1.5513433
1.5508052
1.5547877
1.5563243
1.5517449
1.5512638
1.5554005
1.5334398
1.5339817
1.5367087
1.5361562
1.5334708
1.5333345
1.5360591
1.5361012
1.5445777
1.5407799
1.5408205
1.5440898
1.5409724
1.5415615
1.5449355
1.5443845
1.5329011
1.5332431
1.5358439
1.5354658
1.5441363
1.5404473
1.5400288
1.5432838
1.5444515
1.5409566
1.5439083
1.5404014
1.535945
1.5331128
1.5328937
1.5354415
1.5638495
1.5537215
1.5540839
1.5637842
1.551594
1.5521387
1.5616563
1.5610061
1.5750365
1.5749061
1.5874174
1.5876634
1.5861027
1.5727333
1.5720131
1.5845373
1.5191166
1.5186792
1.5186511
1.5185287
1.5243486
1.5242722
1.5269516
1.5269529
1.5243354
1.5362594
1.5314101
1.5360402
1.5313542
1.5207683
1.522038
1.519427
1.5199029
1.5195526
1.5194658
1.5199417
1.5200317
1.5220354
1.5207454
1.5221106
1.520847
1.5901334
1.5758756
1.589497
1.5896835
1.5755382
1.5751781
1.6075697
1.6150796
1.6080408
1.6152759
1.6320796
1.6362929
1.6327906
1.6365506
1.6527504
1.6517793
1.6658768
1.6622756
1.7193645
1.7144736
1.7145281
1.7195604
1.7197397
1.7200857
1.714993
1.7143883
1.7109994
1.7180286
1.7109072
1.7184035
1.7185137
1.7107634
1.7189214
1.711666
1.7264127
1.7205282
1.7193526
1.7250896
1.7287338
1.7286369
1.7224507
1.7221601
1.7152738
1.7239976
1.7161601
1.7232056
1.7262407
1.7175408
1.7261437
1.7178622
1.7203482
1.7263728
1.7205194
1.7263851
1.7236224
1.7157928
1.7156337
1.723797
1.7203185
1.7271931
1.7209999
1.7264272
1.7244044
1.7162036
1.7240501
1.7155036
1.7197277
1.7148261
1.714298
1.719184
1.7187828
1.7118045
1.7113009
1.7185331
1.7216748
1.721723
1.7164696
1.7161959
1.7207078
1.7206718
1.7133392
1.7127383
1.7317866
1.7389445
1.7331943
1.7377916
1.7373899
1.7282573
1.7269639
1.7364226
1.736954
1.7305967
1.7375955
1.7317962
1.7364721
1.7271204
1.7355743
1.7257931
1.7384783
1.7335909
1.7317028
1.736776
1.7397547
1.7403553
1.7353022
1.7342411
1.7309945
1.7400995
1.7328916
1.7385913
1.7413988
1.7333718
1.7419034
1.7343963
1.7323739
1.7388975
1.7341555
1.7374333
1.74066
1.7333833
1.7316622
1.7393008
1.7312522
1.7368687
1.7320019
1.7362529
1.7388976
1.7315345
1.738499
1.7304448
1.7382395
1.7325253
1.7308166
1.7367308
1.7280478
1.7355369
1.7368658
1.7259956
1.739859
1.7393283
1.73393
1.7329138
1.7291619
1.737712
1.7278636
1.7383692
1.7342813
1.7341245
1.7278435
1.7284936
1.7342541
1.7277895
1.735153
1.7290427
1.7320662
1.7231968
1.7227095
1.7319502
1.733069
1.7321867
1.7237132
1.7225042
1.7272589
1.7348931
1.7296954
1.7322949
1.73566
1.7282459
1.7261251
1.7336838
1.7369108
1.7382131
1.7316802
1.7322299
1.7379384
1.7390202
1.7302505
1.730558
1.736714
1.7367053
1.7314366
1.7307235
1.7369502
1.737037
1.7294753
1.7286721
1.7303564
1.7367194
1.7312687
1.7358924
1.7298903
1.7374297
1.7368823
1.7284766
1.7257717
1.7331118
1.7274485
1.7314476
1.7228993
1.7314657
1.7302011
1.7210162
1.7362063
1.7296633
1.7353982
1.7295218
1.7248598
1.733805
1.7343037
1.7245133
1.7314525
1.7251942
1.7243459
1.7306329
1.7306724
1.7297074
1.7241935
1.7230384
1.7198393
1.7286951
1.7205351
1.7282145
1.7271577
1.7184797
1.727972
1.7195634
1.7312661
1.7248339
1.7234344
1.7296998
1.7189909
1.7282747
1.7200859
1.7272677
1.7247845
1.7324232
1.7256575
1.7315504
1.7290866
1.7204917
1.7198072
1.7284898
1.723692
1.7185056
1.7177641
1.7229379
1.7158616
1.7221491
1.7226189
1.7145025
1.7162322
1.723318
1.722826
1.714858
1.7241296
1.7237616
1.7186948
1.7180093
1.7241163
1.7189272
1.7185248
1.7237731
1.7234318
1.718097
1.7226728
1.7171453
1.7160487
1.7154072
1.722923
1.7228503
1.7217315
1.7224979
1.7152877
1.7139923
1.5208463
1.5206064
1.5206098
1.5208363
1.5208963
1.5209638
1.520701
1.5206612
1.5204621
1.520498
1.520567
1.5206726
1.520347
1.5204447
1.5207434
1.5207541
1.5205072
1.5205142
1.5203476
1.5202216
1.523305
1.5234102
1.5331183
1.5331643
1.5357718
1.5358135
1.5332036
1.5331229
1.5358802
1.5358097
1.5404886
1.5406302
1.544167
1.5437693
1.5442378
1.5405195
1.5405259
1.5439129
1.5464682
1.5426925
1.5418897
1.5453161
1.5372702
1.5341705
1.5337405
1.5365378
1.5454646
1.5418249
1.5415697
1.5448878
1.5365834
1.5336054
1.5336439
1.5363288
1.5513191
1.5518271
1.5553203
1.5557384
1.5518475
1.5530059
1.5570359
1.5559003
1.5641425
1.5652781
1.5700418
1.5687492
1.5688534
1.5637552
1.563479
1.5680785
1.5502858
1.5505
1.5545011
1.5543513
1.5499438
1.550471
1.5547316
1.5539096
1.5682777
1.5627747
1.5618094
1.5664413
1.5625429
1.5624521
1.5671801
1.567378
1.5247396
1.5259776
1.5248409
1.5261081
1.5248132
1.5247944
1.5261075
1.5260942
1.5304806
1.5283079
1.5282507
1.5301643
1.5282386
1.5301157
1.5301121
1.5280569
1.5234272
1.5226203
1.5227247
1.5234656
1.5218639
1.5213738
1.5214851
1.5219574
1.5215641
1.5215692
1.5220331
1.5220369
1.5235128
1.5227276
1.5227337
1.5234486
1.5216516
1.5216561
1.5221209
1.5221148
1.5216236
1.5216419
1.5220997
1.5220878
1.5227702
1.522777
1.5234827
1.523474
1.5227917
1.5234886
1.5235634
1.5228067
1.5246341
1.5246485
1.525853
1.5258218
1.5278578
1.5297293
1.5298037
1.5278061
1.5259356
1.5246475
1.5247428
1.5259128
1.5279151
1.5279526
1.5297698
1.5297239
1.5248432
1.5249365
1.5260779
1.5262168
1.5249282
1.524858
1.5260794
1.5261582
1.5282284
1.5281036
1.5299484
1.5300511
1.5304206
1.5283265
1.5281273
1.5299891
1.5217195
1.5217239
1.5221909
1.5221827
1.5228746
1.5235888
1.5236368
1.5228672
1.5221998
1.5217039
1.5217262
1.5221872
1.5228668
1.5228959
1.5236318
1.5235789
1.5218447
1.5218026
1.5223056
1.5222641
1.5217477
1.5217432
1.522207
1.5222085
1.5228831
1.5228802
1.5235854
1.523584
1.5237029
1.5229367
1.5229789
1.5236666
1.5248102
1.52488
1.5260574
1.5259527
1.5247349
1.5247375
1.5259247
1.5259044
1.5298886
1.5278944
1.5278562
1.5296245
1.5278879
1.5280388
1.5298131
1.5296301
1.7216802
1.7182603
1.7213542
1.7171131
1.7282868
1.7287428
1.7233473
1.7220876
1.7201306
1.7185557
1.7166032
1.7146234
1.7225698
1.7260833
1.7201486
1.7275067
1.7324242
1.7318429
1.7273046
1.7284759
1.7365757
1.7296648
1.7289612
1.7360986
1.7264173
1.7320073
1.7278202
1.7302327
1.7363797
1.735485
1.729181
1.7277753
1.7283258
1.731308
1.7321375
1.7275334
1.7292934
1.7268744
1.7256082
1.7226976
1.7276019
1.7315437
1.7243307
1.7339382
1.7361944
1.7375847
1.7298693
1.7292471
1.7172124
1.713782
1.7168843
1.7139752
1.714933
1.7171726
1.7138532
1.7109074
1.72201
1.724475
1.7192842
1.7162428
1.720792
1.720854
1.7250643
1.7255853
1.7056833
1.7019496
1.7064429
1.7013614
1.7143943
1.708358
1.7143822
1.7093737
1.7025898
1.7037036
1.6999123
1.6979221
1.7110443
1.7053837
1.7126729
1.707506
1.6692316
1.6723726
1.6885642
1.6894607
1.6889028
1.6856273
1.6861552
1.6850358
1.6862974
1.6859902
1.6917754
1.6933748
1.6917099
1.6936538
1.6912367
1.68951
1.690843
1.6879781
1.6728209
1.6749455
1.7012591
1.6986741
1.693935
1.6973336
1.7097613
1.7048201
1.7020474
1.706689
1.6954563
1.6990712
1.6957093
1.6984553
1.7084401
1.7040309
1.7086947
1.703654
1.6660487
1.6679651
1.6851692
1.6847153
1.6846492
1.6827066
1.6832983
1.6820794
1.6831247
1.6828495
1.6945399
1.6989905
1.6959948
1.6977062
1.6999318
1.6992567
1.6970689
1.6955632
1.7088286
1.7046822
1.7076937
1.7025099
1.7090579
1.7067941
1.7044507
1.7100317
1.6976025
1.6959812
1.6950264
1.6923175
1.7055704
1.7010751
1.7079339
1.7041725
1.6926122
1.6962527
1.6931531
1.6954676
1.7060536
1.7019128
1.7019388
1.7059203
1.6857039
1.6854606
1.6847798
1.6830717
1.6855462
1.6843242
1.6850113
1.6847509
1.6667206
1.6674815
1.7161673
1.7138196
1.7114071
1.7134932
1.7251805
1.7209031
1.7232128
1.7181663
1.7139098
1.7144156
1.7112773
1.7109469
1.7188835
1.7229148
1.7176416
1.722734
1.7122996
1.7165588
1.7138522
1.7148709
1.7250825
1.7205289
1.7192189
1.7239726
1.7149692
1.7187721
1.715993
1.7171536
1.727314
1.7225443
1.7269307
1.7216121
1.729012
1.7283463
1.7244321
1.7256164
1.7256731
1.7309571
1.7278845
1.7286943
1.7369876
1.7308498
1.7288665
1.7352248
1.7348751
1.7342309
1.7285199
1.7273017
1.7259952
1.7304511
1.7271634
1.7295575
1.730471
1.7361474
1.7353254
1.7282061
1.7323
1.7282963
1.732557
1.7291062
1.732248
1.7381728
1.7379223
1.7309317
1.7313382
1.7390323
1.7329892
1.73764
1.7390555
1.7398881
1.7336526
1.7322721
1.7370217
1.7276853
1.7358206
1.7259449
1.7370107
1.7285477
1.726916
1.7379866
1.7356362
1.7369577
1.7319591
1.7298401
1.7364474
1.7381303
1.7307756
1.7283459
1.7317782
1.7378658
1.7324131
1.7374878
1.7314261
1.7389994
1.7387766
1.7300954
1.7358988
1.7292041
1.736734
1.7305169
1.7337866
1.7357516
1.7300391
1.7276598
1.7321426
1.7341068
1.7252094
1.7228105
1.7255937
1.7242939
1.7348765
1.7339534
1.7330831
1.7408931
1.7353427
1.7385931
1.7415422
1.7336625
1.7316707
1.7398705
1.7344838
1.7413898
1.7357885
1.7400912
1.7422983
1.7341871
1.7415306
1.7327672
1.739077
1.736056
1.7338558
1.7303268
1.737037
1.7289365
1.7400273
1.7324413
1.7302305
1.7377827
1.7322416
1.7357574
1.7387933
1.7308481
1.7290787
1.7372945
1.7374373
1.7315502
1.7286491
1.7344749
1.7356351
1.7265686
1.7240651
1.7332114
1.7362119
1.7349092
1.7300923
1.7282371
1.7345781
1.7331099
1.7251482
1.7232955
1.7251404
1.7338291
1.7280462
1.7309543
1.7234631
1.732119
1.7296543
1.7203943
1.7311117
1.728359
1.725291
1.7223084
1.7208621
1.7270281
1.7179511
1.729542
1.7266911
1.7354009
1.7300459
1.7320651
1.7324746
1.7292501
1.7271068
1.7235759
1.7303105
1.7222389
1.7332957
1.7256207
1.7360779
1.7332163
1.7285406
1.7250331
1.7283611
1.7223467
1.7206504
1.7265018
1.7289653
1.728196
1.7224769
1.7215119
1.7256069
1.7168032
1.7261407
1.717669
1.7257962
1.7244662
1.7177713
1.716059
1.7150086
1.7213045
1.716241
1.719932
1.7201927
1.7130623
1.7119277
1.719218
1.7213907
1.7209398
1.7160431
1.7153373
1.7198282
1.7120131
1.7202651
1.7130046
1.7234377
1.7307948
1.7244801
1.7296679
1.7279321
1.7196697
1.7188564
1.7273362
1.7244035
1.7319338
1.7253759
1.7308219
1.7290653
1.7204258
1.7285235
1.7194933
1.7175681
1.7232255
1.7180084
1.7228303
1.7220388
1.7149118
1.7219432
1.714147
1.7237508
1.7242489
1.7187938
1.7180231
1.7226267
1.7159893
1.7231258
1.7145972
1.7186755
1.7268654
1.7209569
1.7243572
1.7246894
1.7167294
1.7228163
1.7144881
1.7298189
1.7237606
1.7279013
1.7216716
1.7256814
1.7172219
1.7273363
1.7192057
1.721323
1.728785
1.7224872
1.7274758
1.7263848
1.7179612
1.7171415
1.7256478
1.7153055
1.7221808
1.721169
1.7135308
1.7228613
1.7177031
1.7162965
1.7212867
1.7219283
1.716599
1.7215109
1.7158177
1.7205579
1.7141998
1.721104
1.7126804
1.711776
1.7134678
1.7202048
1.7189902
1.7139054
1.7205697
1.7154998
1.7187499
1.7192012
1.7119459
1.5211663
1.5211698
1.5221129
1.5222013
1.5223619
1.5225762
1.5225939
1.5223631
1.522555
1.5222613
1.5224712
1.5223268
1.54525
1.5383951
1.5454177
1.5384132
1.5330387
1.5290338
1.5329451
1.5289033
1.5285565
1.528678
1.5323679
1.532161
1.5370291
1.5373226
1.5437052
1.5432758
1.5225786
1.5232463
1.5232264
1.5225608
1.5262062
1.5243275
1.5243018
1.5260708
1.52255
1.5231464
1.523198
1.5225532
1.5259398
1.524155
1.5242204
1.5258838
1.5243622
1.5232258
1.5225627
1.5288324
1.5309805
1.5311188
1.5264115
1.5280391
1.5280065
1.5294886
1.5295316
1.5261848
1.5280429
1.5278502
1.5292645
1.5294825
1.5440753
1.6109537
1.6048767
1.606128
1.6127752
1.6801523
1.6811139
1.6776682
1.6774229
1.670864
1.6869517
1.6866056
1.6700439
1.6900713
1.6915868
1.6736291
1.6730796
1.5433579
1.6108637
1.6042996
1.6030721
1.6097947
1.676806
1.6767804
1.6775026
1.6776104
1.6868588
1.686736
1.6696637
1.6691729
1.6873125
1.6706647
1.670158
1.6870798
1.7542341
1.8965561
1.7558806
1.9011322
2.1505406
2.1276715
2.1212442
2.1275717
2.1436428
1.9021573
2.146414
1.7541855
1.7528137
1.8924726
2.1062646
2.1411934
1.7556733
1.8988634
1.7531641
1.8926055
2.1377688
2.1155128
2.1058561
2.1201615
1.7588481
1.9058367
1.7587753
1.9017948
2.1332362
2.1486834
2.1486535
2.1221437
2.4110466
2.3848362
2.3604366
2.3880695
2.4233393
2.3974848
2.402982
2.3540569
2.7099899
3.5140962
3.5780565
2.7252873
2.753966
3.6110557
3.5628484
2.7406408
2.7114172
2.6645726
3.4184763
3.3333503
2.7050196
2.7374976
3.4089865
3.4523563
2.7183514
2.7631689
3.4237465
3.5045042
2.731007
3.5600526
3.6159922
2.7394192
3.4728925
2.7336648
2.6643293
3.3519187
3.4775157
3.58247
2.7227944
2.6716526
2.3884626
2.3589205
2.331502
2.3728108
2.3741169
2.4156066
2.4068078
2.3733863
2.6812485
3.4372471
3.5248064
2.7085994
2.7381391
3.5593665
3.5086514
2.7280089
2.6831641
2.61621
3.3572148
3.2401549
2.6616813
2.7008624
3.3277134
3.3827081
2.7385382
3.5305055
3.6088428
2.7620175
2.7614012
3.5968819
3.5279577
2.7291743
2.7436751
2.6778685
3.4593382
3.346184
2.6847092
2.7295339
3.3703943
3.4366554
1.5506244
1.5497401
1.609712
1.6107461
1.5994766
1.6563457
1.656534
1.7345664
1.7328062
1.5442226
1.6119368
1.6056829
1.6056414
1.6120312
1.6769272
1.6778272
1.6767628
1.676145
1.6703676
1.6859452
1.6861608
1.6692559
1.686489
1.68788
1.670698
1.6701387
1.5438404
1.6101592
1.6109263
1.6047173
1.6034215
1.6751204
1.6758916
1.6765247
1.6764197
1.6698674
1.6865026
1.6855775
1.6693729
1.684448
1.685741
1.668554
1.6681388
1.8833867
1.7511446
1.8763207
1.7491054
2.0691347
2.074696
2.095795
2.0785157
1.7514916
1.886336
1.7523682
1.8849322
2.0923841
2.1013186
2.1110738
2.0832652
1.7510966
1.8857545
1.7511881
1.8907868
2.1131101
2.1077576
2.1148198
2.0899647
1.7507445
1.8851195
1.7540828
1.8950843
2.0907519
2.1023254
2.1303011
2.106757
2.3139151
2.2965161
2.2685819
2.294429
2.3061188
2.3406605
2.3471039
2.3095897
2.5185345
2.5617606
3.1449586
3.0665653
3.3511455
3.2755494
2.6576595
2.6945152
3.3742142
3.3894309
2.7036367
2.694733
2.5643908
2.5831089
3.1526123
3.1729157
3.4760407
3.3856157
2.6887794
2.7154404
3.4190172
3.480689
2.7170083
2.6995681
2.6338884
2.5743096
3.2742261
3.1662233
2.5898695
2.6406687
3.2096042
3.2856553
2.3064765
2.3431716
2.373281
2.3435546
2.3327272
2.3597612
2.3537664
2.3192426
2.639352
2.5796734
3.1855681
3.2872676
3.4778464
3.3883373
2.699128
2.7353414
2.7467445
3.5302988
3.472888
2.7236085
2.6355869
2.6747774
3.2790542
3.3344067
2.716234
3.4493287
3.5091567
2.7368381
2.7381465
3.5017255
3.4323882
2.7033948
2.6622449
2.6159827
3.3233646
3.2411226
2.6033766
2.651284
3.2311087
3.3037736
1.5234341
1.5233409
2.1200416
1.8201936
2.1046837
1.8155785
2.1169358
1.8188497
2.123589
1.8206911
2.1178731
1.8186325
2.1098974
1.8164863
2.1075555
1.8153746
2.123313
1.8200452
2.0937049
1.8007351
2.0731763
1.7953844
2.0933181
1.80163
2.0988861
1.8023589
2.0894293
1.8029655
2.0827308