/*--------------------------------*- C++ -*----------------------------------*\
  =========                 |
  \\      /  F ield         | OpenFOAM: The Open Source CFD Toolbox
   \\    /   O peration     | Website:  https://openfoam.org
    \\  /    A nd           | Version:  7
     \\/     M anipulation  |
\*---------------------------------------------------------------------------*/
FoamFile
{
    version     2.0;
    format      ascii;
    class       volScalarField;
    location    "1000";
    object      pMean;
}
// * * * * * * * * * * * * * * * * * * * * * * * * * * * * * * * * * * * * * //

dimensions      [0 2 -2 0 0 0 0];

internalField   nonuniform List<scalar> 
33730
(
-1.2240502e+16
-1.2376436e+16
-1.241552e+16
-1.2225318e+16
-1.2268609e+16
-1.2333116e+16
-1.2358488e+16
-1.231766e+16
-1.2329982e+16
-1.2516715e+16
-1.2491955e+16
-1.2495365e+16
-1.2519386e+16
-1.2550922e+16
-1.2554357e+16
-1.2576809e+16
-1.2573301e+16
-1.1889957e+16
-1.1686845e+16
-1.2016888e+16
-1.1848883e+16
-1.2066877e+16
-1.1418546e+16
-1.2483024e+16
-1.2453372e+16
-1.2549337e+16
-1.2521219e+16
-1.2473701e+16
-1.242584e+16
-1.2445309e+16
-1.2501897e+16
-1.2464344e+16
-1.2446195e+16
-1.2519031e+16
-1.249377e+16
-1.2428638e+16
-1.2380563e+16
-1.2397386e+16
-1.2446427e+16
-1.24003e+16
-1.2406317e+16
-1.2439644e+16
-1.2459237e+16
-1.2590592e+16
-1.2594583e+16
-1.2602288e+16
-1.2603544e+16
-1.2553525e+16
-1.2571105e+16
-1.2575375e+16
-1.2557541e+16
-1.2650417e+16
-1.2641349e+16
-1.2629498e+16
-1.2626277e+16
-1.2666135e+16
-1.2655522e+16
-1.2670482e+16
-1.2664045e+16
-1.2078811e+16
-1.195438e+16
-1.2033312e+16
-1.1974221e+16
-1.1807836e+16
-1.2051348e+16
-1.1921885e+16
-1.1616379e+16
-1.1674577e+16
-1.2289852e+16
-1.2168821e+16
-1.2143338e+16
-1.231545e+16
-1.1574319e+16
-1.1328997e+16
-1.1352689e+16
-1.1990229e+16
-1.1861743e+16
-1.1889625e+16
-1.2019134e+16
-1.219681e+16
-1.2216886e+16
-1.2349695e+16
-1.2376198e+16
-1.1198953e+16
-1.1593982e+16
-1.1467709e+16
-1.2604243e+16
-1.2618562e+16
-1.2585932e+16
-1.2569992e+16
-1.2678589e+16
-1.2692109e+16
-1.265947e+16
-1.2638191e+16
-1.2172111e+16
-1.222948e+16
-1.2503944e+16
-1.2418469e+16
-1.2442606e+16
-1.2539198e+16
-1.2549405e+16
-1.2591789e+16
-1.2563627e+16
-1.2609403e+16
-1.2533186e+16
-1.2518978e+16
-1.2562757e+16
-1.2576217e+16
-1.2553925e+16
-1.2568808e+16
-1.2589059e+16
-1.2603731e+16
-1.2523834e+16
-1.2533232e+16
-1.2559228e+16
-1.2571647e+16
-1.2433463e+16
-1.2351884e+16
-1.2380581e+16
-1.246583e+16
-1.2468173e+16
-1.2458333e+16
-1.2497512e+16
-1.2509125e+16
-1.2493015e+16
-1.248368e+16
-1.2536677e+16
-1.2523704e+16
-1.2457878e+16
-1.2465628e+16
-1.2487902e+16
-1.2501661e+16
-1.2486891e+16
-1.2496104e+16
-1.2522935e+16
-1.2533859e+16
-1.2630647e+16
-1.2629333e+16
-1.2639696e+16
-1.2642738e+16
-1.264706e+16
-1.2648935e+16
-1.2651396e+16
-1.2650044e+16
-1.2590179e+16
-1.260189e+16
-1.2591993e+16
-1.2604075e+16
-1.2613982e+16
-1.2618805e+16
-1.2615123e+16
-1.2617226e+16
-1.2684598e+16
-1.2688911e+16
-1.2686914e+16
-1.2689101e+16
-1.266119e+16
-1.2672989e+16
-1.2662833e+16
-1.2676775e+16
-1.2713991e+16
-1.2721596e+16
-1.2721746e+16
-1.2718022e+16
-1.2697936e+16
-1.2708407e+16
-1.2702184e+16
-1.2714545e+16
-1.210277e+16
-1.2090458e+16
-1.2168115e+16
-1.215522e+16
-1.2114083e+16
-1.2138059e+16
-1.2013899e+16
-1.2001684e+16
-1.194428e+16
-1.1954752e+16
-1.1769659e+16
-1.2025129e+16
-1.2048188e+16
-1.2032848e+16
-1.2056004e+16
-1.1971522e+16
-1.1978772e+16
-1.19515e+16
-1.1866183e+16
-1.1958769e+16
-1.1823262e+16
-1.1807883e+16
-1.2075998e+16
-1.2064861e+16
-1.2129154e+16
-1.214132e+16
-1.1987192e+16
-1.1928398e+16
-1.1915629e+16
-1.1975506e+16
-1.1746812e+16
-1.1612069e+16
-1.1626226e+16
-1.1680636e+16
-1.169069e+16
-1.1730562e+16
-1.1742758e+16
-1.2465762e+16
-1.2401291e+16
-1.2389647e+16
-1.2479625e+16
-1.2300603e+16
-1.2230714e+16
-1.2217275e+16
-1.2316067e+16
-1.2271252e+16
-1.22012e+16
-1.2185341e+16
-1.2285209e+16
-1.2420799e+16
-1.2433855e+16
-1.2510594e+16
-1.249814e+16
-1.1163866e+16
-1.1154968e+16
-1.1041491e+16
-1.105549e+16
-1.1575527e+16
-1.1559768e+16
-1.169347e+16
-1.171549e+16
-1.1483978e+16
-1.137282e+16
-1.1382539e+16
-1.1502156e+16
-1.1534101e+16
-1.1408463e+16
-1.1431592e+16
-1.1551838e+16
-1.2009115e+16
-1.2071937e+16
-1.2086653e+16
-1.2024267e+16
-1.1914376e+16
-1.1867565e+16
-1.1855654e+16
-1.1928896e+16
-1.1883658e+16
-1.1960069e+16
-1.1944705e+16
-1.1898645e+16
-1.203975e+16
-1.2052645e+16
-1.2104156e+16
-1.211825e+16
-1.2346156e+16
-1.2244722e+16
-1.2330861e+16
-1.2256427e+16
-1.2270674e+16
-1.2360252e+16
-1.2373413e+16
-1.2284378e+16
-1.2450768e+16
-1.2527898e+16
-1.2466734e+16
-1.2549031e+16
-1.2496115e+16
-1.2484208e+16
-1.256674e+16
-1.257891e+16
-1.1379013e+16
-1.1290266e+16
-1.1607422e+16
-1.1579494e+16
-1.1593726e+16
-1.1623641e+16
-1.1509086e+16
-1.1560947e+16
-1.1522253e+16
-1.1579598e+16
-1.2651709e+16
-1.2662215e+16
-1.2678194e+16
-1.2671859e+16
-1.263707e+16
-1.2641662e+16
-1.2618286e+16
-1.2627439e+16
-1.2737235e+16
-1.2726566e+16
-1.2747529e+16
-1.2752047e+16
-1.2715757e+16
-1.270977e+16
-1.2699767e+16
-1.2687879e+16
-1.2094713e+16
-1.2168041e+16
-1.2528216e+16
-1.2603342e+16
-1.2587716e+16
-1.2364686e+16
-1.239175e+16
-1.2568391e+16
-1.2638796e+16
-1.262469e+16
-1.2675413e+16
-1.2693642e+16
-1.2637329e+16
-1.2655143e+16
-1.2627785e+16
-1.2635619e+16
-1.2644556e+16
-1.2639825e+16
-1.2652638e+16
-1.2646023e+16
-1.2655653e+16
-1.2663151e+16
-1.266374e+16
-1.2674491e+16
-1.2643928e+16
-1.2651979e+16
-1.2661591e+16
-1.2683737e+16
-1.2668522e+16
-1.2688173e+16
-1.2592201e+16
-1.2598516e+16
-1.2608591e+16
-1.2604451e+16
-1.2608991e+16
-1.2614565e+16
-1.2619166e+16
-1.2624852e+16
-1.2623938e+16
-1.2635966e+16
-1.2606071e+16
-1.2614424e+16
-1.2649887e+16
-1.2655653e+16
-1.2625766e+16
-1.2632438e+16
-1.2454016e+16
-1.2519748e+16
-1.253272e+16
-1.2296696e+16
-1.2328498e+16
-1.2492487e+16
-1.2552389e+16
-1.2564647e+16
-1.2567011e+16
-1.2582058e+16
-1.2615256e+16
-1.2600629e+16
-1.2522478e+16
-1.2527531e+16
-1.2539627e+16
-1.2536725e+16
-1.2538675e+16
-1.2543244e+16
-1.2550058e+16
-1.2554312e+16
-1.253282e+16
-1.2548073e+16
-1.2560824e+16
-1.2541167e+16
-1.2574575e+16
-1.2579868e+16
-1.2552008e+16
-1.2558158e+16
-1.2557311e+16
-1.2563103e+16
-1.2570291e+16
-1.2573677e+16
-1.2572136e+16
-1.2576922e+16
-1.2582823e+16
-1.2588007e+16
-1.2571498e+16
-1.2591332e+16
-1.2601731e+16
-1.2578624e+16
-1.2610876e+16
-1.2614201e+16
-1.2587155e+16
-1.2593162e+16
-1.2646015e+16
-1.2640719e+16
-1.2649596e+16
-1.2658194e+16
-1.2654107e+16
-1.2653284e+16
-1.2663218e+16
-1.2664127e+16
-1.2660946e+16
-1.2658768e+16
-1.2669785e+16
-1.2676332e+16
-1.2665882e+16
-1.2664032e+16
-1.2679039e+16
-1.2678943e+16
-1.2615966e+16
-1.2611545e+16
-1.2614561e+16
-1.2622362e+16
-1.2623845e+16
-1.2622425e+16
-1.2627511e+16
-1.2628459e+16
-1.2631937e+16
-1.2628501e+16
-1.2634781e+16
-1.2642213e+16
-1.2637473e+16
-1.2635972e+16
-1.2644881e+16
-1.2644707e+16
-1.2696253e+16
-1.2693267e+16
-1.2704453e+16
-1.2711931e+16
-1.2702338e+16
-1.2701282e+16
-1.2715185e+16
-1.2714679e+16
-1.2679563e+16
-1.2674186e+16
-1.2682976e+16
-1.269193e+16
-1.2688029e+16
-1.2686899e+16
-1.2697217e+16
-1.2698087e+16
-1.2726092e+16
-1.2723101e+16
-1.2739886e+16
-1.2746767e+16
-1.2734884e+16
-1.2732584e+16
-1.2749949e+16
-1.2748952e+16
-1.2712735e+16
-1.2708225e+16
-1.2720757e+16
-1.2729698e+16
-1.2720866e+16
-1.2720747e+16
-1.2734842e+16
-1.2734872e+16
-1.0595564e+16
-1.2095191e+16
-1.2102948e+16
-1.2119775e+16
-1.2127483e+16
-1.2081757e+16
-1.2105952e+16
-1.2087623e+16
-1.2112448e+16
-1.217977e+16
-1.2210298e+16
-1.2186777e+16
-1.2217713e+16
-1.2165516e+16
-1.2195279e+16
-1.2171619e+16
-1.2202085e+16
-1.2184348e+16
-1.2113305e+16
-1.2100805e+16
-1.2109653e+16
-1.210432e+16
-1.2140306e+16
-1.215e+16
-1.2144036e+16
-1.2109253e+16
-1.2117729e+16
-1.2007567e+16
-1.2030679e+16
-1.2015001e+16
-1.2038497e+16
-1.1994528e+16
-1.2017354e+16
-1.2000523e+16
-1.2023421e+16
-1.1942449e+16
-1.1948493e+16
-1.1922575e+16
-1.1928384e+16
-1.1840993e+16
-1.1954597e+16
-1.1962318e+16
-1.1941869e+16
-1.1934385e+16
-1.1852539e+16
-1.1782786e+16
-1.179511e+16
-1.2032924e+16
-1.2026817e+16
-1.2029198e+16
-1.2030819e+16
-1.2059927e+16
-1.2065798e+16
-1.2069576e+16
-1.2063809e+16
-1.2041068e+16
-1.2035146e+16
-1.2036935e+16
-1.2039324e+16
-1.2068581e+16
-1.2073782e+16
-1.2072243e+16
-1.207792e+16
-1.2003056e+16
-1.2009211e+16
-1.1995827e+16
-1.2000829e+16
-1.2003954e+16
-1.2008455e+16
-1.2012577e+16
-1.2016786e+16
-1.1949294e+16
-1.190217e+16
-1.1890756e+16
-1.1883621e+16
-1.1909932e+16
-1.1956796e+16
-1.1843326e+16
-1.1834582e+16
-1.1852976e+16
-1.1861552e+16
-1.1825865e+16
-1.182005e+16
-1.1838092e+16
-1.1844691e+16
-1.2068095e+16
-1.2074092e+16
-1.2092676e+16
-1.2098367e+16
-1.2057584e+16
-1.2081563e+16
-1.206212e+16
-1.2087128e+16
-1.2141051e+16
-1.2171003e+16
-1.2146541e+16
-1.2176466e+16
-1.2152655e+16
-1.2182138e+16
-1.2157798e+16
-1.2187566e+16
-1.198167e+16
-1.2003935e+16
-1.1987585e+16
-1.2009946e+16
-1.1929052e+16
-1.1935812e+16
-1.1916241e+16
-1.1909219e+16
-1.1822916e+16
-1.1919127e+16
-1.192349e+16
-1.1903375e+16
-1.1898576e+16
-1.1810893e+16
-1.1971979e+16
-1.1994699e+16
-1.1975963e+16
-1.1998823e+16
-1.1752493e+16
-1.1764466e+16
-1.1632154e+16
-1.1620324e+16
-1.1670961e+16
-1.1683787e+16
-1.1645554e+16
-1.1698823e+16
-1.1710053e+16
-1.1656238e+16
-1.1717135e+16
-1.1700576e+16
-1.170756e+16
-1.1723857e+16
-1.172223e+16
-1.1712966e+16
-1.1729828e+16
-1.1739447e+16
-1.176458e+16
-1.1758788e+16
-1.1774841e+16
-1.1779726e+16
-1.1787461e+16
-1.1772503e+16
-1.1781229e+16
-1.1797125e+16
-1.1524183e+16
-1.1661026e+16
-1.1325091e+16
-1.1446453e+16
-1.1838588e+16
-1.1894896e+16
-1.1983492e+16
-1.2540305e+16
-1.2548121e+16
-1.2557558e+16
-1.2567001e+16
-1.2440718e+16
-1.2447428e+16
-1.2489794e+16
-1.2495988e+16
-1.2425224e+16
-1.247399e+16
-1.2432124e+16
-1.2481996e+16
-1.255728e+16
-1.2575989e+16
-1.2562266e+16
-1.2579799e+16
-1.2321866e+16
-1.2372313e+16
-1.2329444e+16
-1.2380687e+16
-1.2229126e+16
-1.2235656e+16
-1.2265786e+16
-1.2271928e+16
-1.221463e+16
-1.2250217e+16
-1.2221655e+16
-1.2258183e+16
-1.2337392e+16
-1.2389254e+16
-1.2343226e+16
-1.2395023e+16
-1.2289568e+16
-1.2297176e+16
-1.2340205e+16
-1.2347554e+16
-1.2197268e+16
-1.2233392e+16
-1.2204857e+16
-1.2240415e+16
-1.2180898e+16
-1.2217102e+16
-1.2188306e+16
-1.2225048e+16
-1.230548e+16
-1.2355801e+16
-1.2311626e+16
-1.2362202e+16
-1.2457418e+16
-1.2464807e+16
-1.2505989e+16
-1.2514777e+16
-1.2473e+16
-1.2522436e+16
-1.2479531e+16
-1.2528322e+16
-1.2588795e+16
-1.2608914e+16
-1.2614068e+16
-1.2594445e+16
-1.2571295e+16
-1.2579394e+16
-1.258883e+16
-1.2599508e+16
-1.1338441e+16
-1.1354926e+16
-1.1243727e+16
-1.1271373e+16
-1.1316426e+16
-1.1325026e+16
-1.1234846e+16
-1.1256682e+16
-1.0832927e+16
-1.0835105e+16
-1.1603854e+16
-1.159325e+16
-1.1643499e+16
-1.1655709e+16
-1.1616537e+16
-1.1567618e+16
-1.1630872e+16
-1.1582595e+16
-1.1710854e+16
-1.169676e+16
-1.1755654e+16
-1.1767315e+16
-1.1734346e+16
-1.1723071e+16
-1.178196e+16
-1.1796896e+16
-1.1479983e+16
-1.1469136e+16
-1.1498883e+16
-1.1512857e+16
-1.1450076e+16
-1.14112e+16
-1.1416231e+16
-1.1463983e+16
-1.1441586e+16
-1.1428326e+16
-1.1476932e+16
-1.1486616e+16
-1.1491463e+16
-1.1525958e+16
-1.1500324e+16
-1.1535811e+16
-1.1536375e+16
-1.1517773e+16
-1.1549172e+16
-1.1564289e+16
-1.145192e+16
-1.1502655e+16
-1.1461349e+16
-1.1521668e+16
-1.149085e+16
-1.1476506e+16
-1.1529039e+16
-1.153672e+16
-1.1550767e+16
-1.1542562e+16
-1.1577696e+16
-1.1586074e+16
-1.1998318e+16
-1.2022423e+16
-1.2005665e+16
-1.2029735e+16
-1.2079856e+16
-1.2109759e+16
-1.2087406e+16
-1.2116918e+16
-1.2105595e+16
-1.209744e+16
-1.212601e+16
-1.2133791e+16
-1.2023794e+16
-1.201493e+16
-1.2038779e+16
-1.2047632e+16
-1.1912339e+16
-1.1935571e+16
-1.1919583e+16
-1.1942544e+16
-1.186199e+16
-1.1852844e+16
-1.1873744e+16
-1.1882634e+16
-1.185897e+16
-1.1865519e+16
-1.1845185e+16
-1.1839361e+16
-1.1927515e+16
-1.1951392e+16
-1.1936164e+16
-1.1960733e+16
-1.1877727e+16
-1.1871419e+16
-1.1892005e+16
-1.1898302e+16
-1.1959695e+16
-1.1966585e+16
-1.1983766e+16
-1.1989517e+16
-1.1945035e+16
-1.1969932e+16
-1.1951983e+16
-1.1976845e+16
-1.1905667e+16
-1.1913235e+16
-1.1892444e+16
-1.1884778e+16
-1.2032768e+16
-1.2056934e+16
-1.2039069e+16
-1.2063991e+16
-1.2045277e+16
-1.2070371e+16
-1.2050907e+16
-1.2075494e+16
-1.2121082e+16
-1.2114574e+16
-1.2143762e+16
-1.2151326e+16
-1.212774e+16
-1.2158866e+16
-1.2133114e+16
-1.2164926e+16
-1.2366472e+16
-1.2371666e+16
-1.2418451e+16
-1.242413e+16
-1.2243217e+16
-1.2279382e+16
-1.2248648e+16
-1.2286181e+16
-1.235885e+16
-1.2352142e+16
-1.2402947e+16
-1.2411044e+16
-1.2255124e+16
-1.2292358e+16
-1.2260722e+16
-1.2297756e+16
-1.2268766e+16
-1.2305722e+16
-1.2275173e+16
-1.2313217e+16
-1.2379889e+16
-1.2432625e+16
-1.2386748e+16
-1.2440781e+16
-1.2395694e+16
-1.2449408e+16
-1.2402217e+16
-1.2455691e+16
-1.2283676e+16
-1.2291117e+16
-1.2328628e+16
-1.2321457e+16
-1.2489218e+16
-1.2497081e+16
-1.2548064e+16
-1.253746e+16
-1.260496e+16
-1.2622531e+16
-1.2615179e+16
-1.2635287e+16
-1.2505543e+16
-1.2556167e+16
-1.2511865e+16
-1.2561877e+16
-1.2625019e+16
-1.2644708e+16
-1.2630628e+16
-1.2649978e+16
-1.2537689e+16
-1.258945e+16
-1.2521422e+16
-1.2571149e+16
-1.2529013e+16
-1.2581136e+16
-1.2659756e+16
-1.2640721e+16
-1.2649753e+16
-1.2671022e+16
-1.2681392e+16
-1.2659628e+16
-1.2684712e+16
-1.1272774e+16
-1.1470444e+16
-1.1458187e+16
-1.1516513e+16
-1.1541295e+16
-1.1656781e+16
-1.1642551e+16
-1.1664283e+16
-1.1652151e+16
-1.1606211e+16
-1.1591655e+16
-1.1615565e+16
-1.1599402e+16
-1.1613376e+16
-1.1608957e+16
-1.1623731e+16
-1.1631851e+16
-1.1664584e+16
-1.1656747e+16
-1.1670711e+16
-1.1679598e+16
-1.1559632e+16
-1.1555892e+16
-1.1570714e+16
-1.1574459e+16
-1.1551096e+16
-1.1548435e+16
-1.1556694e+16
-1.1563176e+16
-1.1580434e+16
-1.1582946e+16
-1.1581096e+16
-1.1585742e+16
-1.1572398e+16
-1.1569209e+16
-1.1568013e+16
-1.1575763e+16
-1.1575935e+16
-1.1592128e+16
-1.1599664e+16
-1.2677305e+16
-1.2685254e+16
-1.2689732e+16
-1.2692231e+16
-1.2708942e+16
-1.2707892e+16
-1.2703272e+16
-1.2696442e+16
-1.2668473e+16
-1.2661216e+16
-1.2671776e+16
-1.2673049e+16
-1.2644273e+16
-1.2650626e+16
-1.2655015e+16
-1.2657005e+16
-1.276453e+16
-1.2762174e+16
-1.2757522e+16
-1.2750012e+16
-1.2768744e+16
-1.2775143e+16
-1.2779025e+16
-1.2779885e+16
-1.2745026e+16
-1.2743609e+16
-1.2739425e+16
-1.2732514e+16
-1.2727938e+16
-1.272551e+16
-1.2720799e+16
-1.2712012e+16
-1.2030907e+16
-1.1907908e+16
-1.2272963e+16
-1.2246978e+16
-1.19736e+16
-1.2329434e+16
-1.2307411e+16
-1.2482887e+16
-1.2625818e+16
-1.2608677e+16
-1.2658103e+16
-1.2675431e+16
-1.2514962e+16
-1.2663455e+16
-1.2647723e+16
-1.2714134e+16
-1.2697267e+16
-1.2735081e+16
-1.2721951e+16
-1.2768893e+16
-1.2777789e+16
-1.2715578e+16
-1.2705949e+16
-1.2749906e+16
-1.2745022e+16
-1.2725142e+16
-1.2788546e+16
-1.2798239e+16
-1.2734705e+16
-1.2695312e+16
-1.268243e+16
-1.2739146e+16
-1.2729578e+16
-1.2677456e+16
-1.2668017e+16
-1.2710071e+16
-1.2705684e+16
-1.2749095e+16
-1.2757705e+16
-1.2686767e+16
-1.2695364e+16
-1.2694848e+16
-1.270188e+16
-1.2705303e+16
-1.2696958e+16
-1.2689922e+16
-1.2683969e+16
-1.2692744e+16
-1.2696782e+16
-1.2703031e+16
-1.2709269e+16
-1.2715843e+16
-1.2711587e+16
-1.2720834e+16
-1.2713953e+16
-1.2724887e+16
-1.2716586e+16
-1.2642384e+16
-1.2660855e+16
-1.2665554e+16
-1.2646305e+16
-1.2654639e+16
-1.2672806e+16
-1.2673718e+16
-1.2654475e+16
-1.2676055e+16
-1.2672995e+16
-1.2671439e+16
-1.2667767e+16
-1.2686159e+16
-1.2683118e+16
-1.2681098e+16
-1.2678176e+16
-1.2692466e+16
-1.269576e+16
-1.2687643e+16
-1.2691321e+16
-1.2659091e+16
-1.2680101e+16
-1.2684937e+16
-1.266233e+16
-1.2696282e+16
-1.2701259e+16
-1.2704704e+16
-1.2699996e+16
-1.2692797e+16
-1.2690564e+16
-1.266806e+16
-1.2670796e+16
-1.2657642e+16
-1.2665084e+16
-1.2668155e+16
-1.2659269e+16
-1.265254e+16
-1.2646863e+16
-1.2656015e+16
-1.2659813e+16
-1.2671001e+16
-1.2665686e+16
-1.2674532e+16
-1.2678021e+16
-1.2676961e+16
-1.2675017e+16
-1.268241e+16
-1.2685646e+16
-1.2607333e+16
-1.2624974e+16
-1.2629746e+16
-1.2611643e+16
-1.2619701e+16
-1.2637406e+16
-1.263835e+16
-1.2620238e+16
-1.2638816e+16
-1.2635846e+16
-1.2635504e+16
-1.2631576e+16
-1.2649065e+16
-1.2646127e+16
-1.2645096e+16
-1.2642491e+16
-1.2626978e+16
-1.2644897e+16
-1.2647575e+16
-1.2629352e+16
-1.2634682e+16
-1.2653053e+16
-1.2654766e+16
-1.2635947e+16
-1.2658842e+16
-1.2655882e+16
-1.2654272e+16
-1.265151e+16
-1.2667016e+16
-1.2664449e+16
-1.2661727e+16
-1.265914e+16
-1.2221439e+16
-1.2258894e+16
-1.2417401e+16
-1.2416121e+16
-1.2550819e+16
-1.2535804e+16
-1.2581185e+16
-1.2597822e+16
-1.2449104e+16
-1.2586409e+16
-1.2571744e+16
-1.2619349e+16
-1.2635448e+16
-1.2623928e+16
-1.2613538e+16
-1.2667406e+16
-1.2658702e+16
-1.2592836e+16
-1.2601982e+16
-1.2636241e+16
-1.2633003e+16
-1.2675776e+16
-1.2683934e+16
-1.2611312e+16
-1.2620016e+16
-1.2671537e+16
-1.2668344e+16
-1.2719216e+16
-1.2710997e+16
-1.264811e+16
-1.2656443e+16
-1.2658988e+16
-1.2646966e+16
-1.2693262e+16
-1.2702646e+16
-1.2630447e+16
-1.263962e+16
-1.2586403e+16
-1.2594367e+16
-1.2588072e+16
-1.2597389e+16
-1.2581402e+16
-1.2576512e+16
-1.2585474e+16
-1.2589179e+16
-1.2599487e+16
-1.2594438e+16
-1.2603816e+16
-1.2607138e+16
-1.2611309e+16
-1.2603326e+16
-1.260487e+16
-1.2614195e+16
-1.25632e+16
-1.2566416e+16
-1.2568327e+16
-1.2564077e+16
-1.2564654e+16
-1.2559552e+16
-1.2543539e+16
-1.2547895e+16
-1.2572836e+16
-1.2571566e+16
-1.2554831e+16
-1.2555283e+16
-1.2576729e+16
-1.2574e+16
-1.2577921e+16
-1.2575555e+16
-1.258181e+16
-1.2579206e+16
-1.2561504e+16
-1.2563716e+16
-1.2587921e+16
-1.2586779e+16
-1.2567975e+16
-1.2569226e+16
-1.2586277e+16
-1.2583606e+16
-1.2587404e+16
-1.2584805e+16
-1.2594532e+16
-1.2592272e+16
-1.2593996e+16
-1.2592404e+16
-1.2617153e+16
-1.2611895e+16
-1.2621332e+16
-1.2624915e+16
-1.2629544e+16
-1.2621615e+16
-1.2623052e+16
-1.2632324e+16
-1.2638017e+16
-1.2628487e+16
-1.2641452e+16
-1.2633915e+16
-1.2637684e+16
-1.263891e+16
-1.2645633e+16
-1.2648405e+16
-1.260384e+16
-1.2600964e+16
-1.2600748e+16
-1.260406e+16
-1.2597431e+16
-1.259345e+16
-1.2573239e+16
-1.2577809e+16
-1.2585442e+16
-1.2603796e+16
-1.2603972e+16
-1.2585539e+16
-1.2613233e+16
-1.2610767e+16
-1.2611239e+16
-1.2609706e+16
-1.2591931e+16
-1.2609718e+16
-1.2612136e+16
-1.259395e+16
-1.2597731e+16
-1.2616943e+16
-1.2618937e+16
-1.2599442e+16
-1.2621909e+16
-1.2619407e+16
-1.2619018e+16
-1.2616756e+16
-1.2629533e+16
-1.262728e+16
-1.262557e+16
-1.262333e+16
-1.0519024e+16
-1.2687136e+16
-1.2680796e+16
-1.269556e+16
-1.269237e+16
-1.2703913e+16
-1.2699108e+16
-1.2710907e+16
-1.2707833e+16
-1.2654938e+16
-1.2650494e+16
-1.2663151e+16
-1.2660152e+16
-1.2671932e+16
-1.2666347e+16
-1.2677778e+16
-1.2675368e+16
-1.2739928e+16
-1.2734652e+16
-1.2746556e+16
-1.274386e+16
-1.272179e+16
-1.2714354e+16
-1.2730845e+16
-1.2727227e+16
-1.2773075e+16
-1.2767796e+16
-1.2778188e+16
-1.2756922e+16
-1.2750324e+16
-1.2765402e+16
-1.2762006e+16
-1.2084038e+16
-1.2093083e+16
-1.2096399e+16
-1.208717e+16
-1.2095312e+16
-1.2091603e+16
-1.2100663e+16
-1.2104581e+16
-1.2136473e+16
-1.2123443e+16
-1.2133057e+16
-1.212659e+16
-1.2134701e+16
-1.2144706e+16
-1.21312e+16
-1.2140775e+16
-1.2081934e+16
-1.2070268e+16
-1.2079246e+16
-1.207283e+16
-1.2109474e+16
-1.2119193e+16
-1.212213e+16
-1.2112168e+16
-1.2088905e+16
-1.2076723e+16
-1.2085536e+16
-1.207996e+16
-1.2116273e+16
-1.2125549e+16
-1.2119409e+16
-1.2129146e+16
-1.2167196e+16
-1.218068e+16
-1.2184324e+16
-1.2170336e+16
-1.2227313e+16
-1.2216354e+16
-1.2212904e+16
-1.2231267e+16
-1.2174908e+16
-1.2178552e+16
-1.2188517e+16
-1.219226e+16
-1.2235701e+16
-1.2224424e+16
-1.2239485e+16
-1.2221042e+16
-1.2169498e+16
-1.21531e+16
-1.2166416e+16
-1.2155771e+16
-1.2212744e+16
-1.2198492e+16
-1.2201499e+16
-1.2216083e+16
-1.2162894e+16
-1.2176439e+16
-1.2159642e+16
-1.217294e+16
-1.2219619e+16
-1.2205535e+16
-1.2208661e+16
-1.222302e+16
-1.2180542e+16
-1.2117951e+16
-1.2094539e+16
-1.2114207e+16
-1.2098325e+16
-1.2136938e+16
-1.2155988e+16
-1.2140805e+16
-1.2103218e+16
-1.2122838e+16
-1.2145825e+16
-1.2010479e+16
-1.2013854e+16
-1.2013284e+16
-1.2016543e+16
-1.204663e+16
-1.2049531e+16
-1.2052848e+16
-1.2043688e+16
-1.2017707e+16
-1.2021769e+16
-1.2024616e+16
-1.202043e+16
-1.2050948e+16
-1.2054608e+16
-1.2057022e+16
-1.2060976e+16
-1.2002447e+16
-1.1996703e+16
-1.1999728e+16
-1.1999734e+16
-1.2029795e+16
-1.2035867e+16
-1.2038674e+16
-1.2032626e+16
-1.2009457e+16
-1.2002941e+16
-1.2005797e+16
-1.2006671e+16
-1.2036469e+16
-1.2042141e+16
-1.2039644e+16
-1.2045779e+16
-1.197303e+16
-1.1977407e+16
-1.1966033e+16
-1.1969828e+16
-1.1972302e+16
-1.1976378e+16
-1.1980146e+16
-1.1984008e+16
-1.1920716e+16
-1.1875875e+16
-1.1927026e+16
-1.1880467e+16
-1.1857725e+16
-1.186319e+16
-1.1986835e+16
-1.1991584e+16
-1.1979759e+16
-1.198408e+16
-1.1987366e+16
-1.1991778e+16
-1.1994261e+16
-1.1998374e+16
-1.1940352e+16
-1.1893562e+16
-1.1933748e+16
-1.1885983e+16
-1.1867513e+16
-1.187383e+16
-1.1812836e+16
-1.1794852e+16
-1.1800457e+16
-1.181882e+16
-1.1830625e+16
-1.1806577e+16
-1.1824505e+16
-1.1813453e+16
-1.203601e+16
-1.2012093e+16
-1.2032446e+16
-1.2015808e+16
-1.2054542e+16
-1.2071548e+16
-1.2075518e+16
-1.2058441e+16
-1.202019e+16
-1.2040536e+16
-1.2024155e+16
-1.206316e+16
-1.2080129e+16
-1.1987856e+16
-1.1992611e+16
-1.1991309e+16
-1.1995554e+16
-1.1999621e+16
-1.2003479e+16
-1.1996852e+16
-1.2000557e+16
-1.1957922e+16
-1.1941046e+16
-1.191269e+16
-1.1944982e+16
-1.1961618e+16
-1.1888206e+16
-1.1881082e+16
-1.1920187e+16
-1.1953035e+16
-1.1949525e+16
-1.1966569e+16
-1.1969864e+16
-1.1928232e+16
-1.1896998e+16
-1.1838809e+16
-1.1831208e+16
-1.1862002e+16
-1.1822218e+16
-1.1815966e+16
-1.1846274e+16
-1.1853248e+16
-1.2069033e+16
-1.2057793e+16
-1.2066831e+16
-1.2059925e+16
-1.2066451e+16
-1.2063446e+16
-1.2072424e+16
-1.2075577e+16
-1.2097332e+16
-1.2106773e+16
-1.2099389e+16
-1.2109182e+16
-1.2105615e+16
-1.2112287e+16
-1.2115381e+16
-1.2102955e+16
-1.2047041e+16
-1.2056219e+16
-1.2049204e+16
-1.2058692e+16
-1.2088629e+16
-1.2098466e+16
-1.2086245e+16
-1.2096081e+16
-1.2063306e+16
-1.2052132e+16
-1.2061093e+16
-1.2054351e+16
-1.2091644e+16
-1.210099e+16
-1.2103587e+16
-1.2093956e+16
-1.2129656e+16
-1.2143072e+16
-1.2145678e+16
-1.2131889e+16
-1.2174903e+16
-1.2189145e+16
-1.2191796e+16
-1.2177427e+16
-1.2134805e+16
-1.213718e+16
-1.2148177e+16
-1.215068e+16
-1.2180463e+16
-1.2182659e+16
-1.2194406e+16
-1.2196718e+16
-1.2156391e+16
-1.2140766e+16
-1.2153946e+16
-1.2142824e+16
-1.2199979e+16
-1.2186009e+16
-1.2188325e+16
-1.2202745e+16
-1.2162584e+16
-1.2146295e+16
-1.2159635e+16
-1.2149171e+16
-1.2206076e+16
-1.219193e+16
-1.2194588e+16
-1.2208961e+16
-1.1984633e+16
-1.1986901e+16
-1.1987254e+16
-1.1989607e+16
-1.2019685e+16
-1.2023341e+16
-1.2025649e+16
-1.2017573e+16
-1.1989608e+16
-1.1993059e+16
-1.1996352e+16
-1.1992736e+16
-1.2023084e+16
-1.2026087e+16
-1.2028968e+16
-1.2032269e+16
-1.1961484e+16
-1.1964472e+16
-1.1953815e+16
-1.1956724e+16
-1.195893e+16
-1.1962863e+16
-1.1966496e+16
-1.1970198e+16
-1.1914293e+16
-1.1868057e+16
-1.1908422e+16
-1.1861719e+16
-1.1843496e+16
-1.1850331e+16
-1.1949731e+16
-1.1954316e+16
-1.1943706e+16
-1.1946828e+16
-1.1948114e+16
-1.1950962e+16
-1.195649e+16
-1.1959199e+16
-1.1902806e+16
-1.1855078e+16
-1.1897394e+16
-1.1851549e+16
-1.1831783e+16
-1.183698e+16
-1.1979752e+16
-1.1974499e+16
-1.1977629e+16
-1.1976836e+16
-1.2006929e+16
-1.2013117e+16
-1.2015296e+16
-1.2009186e+16
-1.198423e+16
-1.1978904e+16
-1.1981839e+16
-1.1981473e+16
-1.2011981e+16
-1.2017715e+16
-1.2014132e+16
-1.2020205e+16
-1.1786363e+16
-1.1768544e+16
-1.1772937e+16
-1.1791566e+16
-1.1796935e+16
-1.1778727e+16
-1.1786986e+16
-1.1805615e+16
-1.1666084e+16
-1.1658043e+16
-1.1675076e+16
-1.1683242e+16
-1.1651548e+16
-1.1647913e+16
-1.1664774e+16
-1.1668857e+16
-1.1722377e+16
-1.1706569e+16
-1.1710953e+16
-1.1726874e+16
-1.1724744e+16
-1.1717379e+16
-1.1732943e+16
-1.174138e+16
-1.1679697e+16
-1.1674497e+16
-1.1691335e+16
-1.1696787e+16
-1.1749292e+16
-1.1732549e+16
-1.1738488e+16
-1.1755072e+16
-1.1761602e+16
-1.1746728e+16
-1.1766648e+16
-1.1752151e+16
-1.1702556e+16
-1.168647e+16
-1.1692451e+16
-1.1709869e+16
-1.1727222e+16
-1.1700556e+16
-1.170563e+16
-1.1732918e+16
-1.1720869e+16
-1.1712699e+16
-1.1741222e+16
-1.1749607e+16
-1.1763739e+16
-1.1758763e+16
-1.1783401e+16
-1.1788773e+16
-1.1797467e+16
-1.17719e+16
-1.1779818e+16
-1.1805515e+16
-1.1287911e+16
-1.1262409e+16
-1.1237036e+16
-1.0866972e+16
-1.1556575e+16
-1.1550204e+16
-1.1594327e+16
-1.1602353e+16
-1.1539873e+16
-1.1726614e+16
-1.1668257e+16
-1.1738835e+16
-1.1676013e+16
-1.1440478e+16
-1.1471843e+16
-1.1361667e+16
-1.1417395e+16
-1.1387757e+16
-1.1376427e+16
-1.1427749e+16
-1.1431592e+16
-1.1482533e+16
-1.1451692e+16
-1.1485842e+16
-1.1453216e+16
-1.1834473e+16
-1.1815441e+16
-1.1842211e+16
-1.1849876e+16
-1.183068e+16
-1.1822077e+16
-1.189298e+16
-1.1916909e+16
-1.1901079e+16
-1.1925213e+16
-1.197804e+16
-1.2003424e+16
-1.1986165e+16
-1.2011508e+16
-1.2068174e+16
-1.209982e+16
-1.2169387e+16
-1.2206343e+16
-1.2573647e+16
-1.259491e+16
-1.2600481e+16
-1.2578084e+16
-1.2584746e+16
-1.2582202e+16
-1.2604009e+16
-1.2606068e+16
-1.2623097e+16
-1.261918e+16
-1.2616914e+16
-1.2624345e+16
-1.263075e+16
-1.2628459e+16
-1.2628518e+16
-1.2626651e+16
-1.2443129e+16
-1.2475439e+16
-1.2480272e+16
-1.2447271e+16
-1.245502e+16
-1.245183e+16
-1.2484535e+16
-1.2487168e+16
-1.2551789e+16
-1.2516352e+16
-1.2546669e+16
-1.2520899e+16
-1.2527774e+16
-1.2557865e+16
-1.2525216e+16
-1.2555937e+16
-1.246355e+16
-1.2426902e+16
-1.2459188e+16
-1.2430902e+16
-1.2500239e+16
-1.2531269e+16
-1.253585e+16
-1.2504435e+16
-1.2470696e+16
-1.2435064e+16
-1.2467783e+16
-1.2438259e+16
-1.250933e+16
-1.2539968e+16
-1.2511954e+16
-1.2542224e+16
-1.2589389e+16
-1.2610399e+16
-1.261613e+16
-1.2593786e+16
-1.2634786e+16
-1.2631879e+16
-1.2638925e+16
-1.2640095e+16
-1.2597706e+16
-1.2599868e+16
-1.2619374e+16
-1.262073e+16
-1.2643784e+16
-1.264533e+16
-1.2642132e+16
-1.2643342e+16
-1.2343244e+16
-1.2309579e+16
-1.2339121e+16
-1.2313529e+16
-1.2381293e+16
-1.2412287e+16
-1.2416611e+16
-1.238541e+16
-1.2321421e+16
-1.2351143e+16
-1.2317836e+16
-1.23475e+16
-1.2390159e+16
-1.2420845e+16
-1.239329e+16
-1.2423757e+16
-1.2213953e+16
-1.2230515e+16
-1.2233713e+16
-1.2216999e+16
-1.2223511e+16
-1.2220496e+16
-1.2237272e+16
-1.2240352e+16
-1.2286652e+16
-1.2264032e+16
-1.2283096e+16
-1.2267207e+16
-1.2273674e+16
-1.2293098e+16
-1.2270814e+16
-1.2290132e+16
-1.221854e+16
-1.2198346e+16
-1.2214585e+16
-1.2202302e+16
-1.2248115e+16
-1.226702e+16
-1.2271187e+16
-1.2252003e+16
-1.2226284e+16
-1.2206369e+16
-1.2222597e+16
-1.2209965e+16
-1.2256492e+16
-1.2275271e+16
-1.2260033e+16
-1.2279217e+16
-1.2325632e+16
-1.2355608e+16
-1.2359391e+16
-1.2328875e+16
-1.2428545e+16
-1.2401273e+16
-1.2397801e+16
-1.2432717e+16
-1.2332575e+16
-1.2335661e+16
-1.2362908e+16
-1.2365943e+16
-1.2436706e+16
-1.2408058e+16
-1.2439475e+16
-1.2405228e+16
-1.2275231e+16
-1.2279231e+16
-1.2309368e+16
-1.230522e+16
-1.2287603e+16
-1.2317293e+16
-1.228385e+16
-1.2313594e+16
-1.2347503e+16
-1.2378899e+16
-1.2383013e+16
-1.2351604e+16
-1.2356272e+16
-1.2359502e+16
-1.2387214e+16
-1.2390085e+16
-1.2200951e+16
-1.2180624e+16
-1.2196885e+16
-1.2184672e+16
-1.223057e+16
-1.2249257e+16
-1.2253387e+16
-1.2234381e+16
-1.2189292e+16
-1.2193406e+16
-1.2205476e+16
-1.2209654e+16
-1.2239025e+16
-1.2243012e+16
-1.2257731e+16
-1.2261844e+16
-1.2167268e+16
-1.2163243e+16
-1.2179714e+16
-1.2183752e+16
-1.2217279e+16
-1.2213222e+16
-1.2232557e+16
-1.2236634e+16
-1.219207e+16
-1.217185e+16
-1.2187956e+16
-1.2175953e+16
-1.2240977e+16
-1.2222023e+16
-1.2225973e+16
-1.2245082e+16
-1.2326231e+16
-1.2292141e+16
-1.2321985e+16
-1.229584e+16
-1.2394841e+16
-1.2364265e+16
-1.2368057e+16
-1.2399316e+16
-1.2304319e+16
-1.2334096e+16
-1.2300356e+16
-1.2330383e+16
-1.2403917e+16
-1.2372715e+16
-1.2376009e+16
-1.2407095e+16
-1.2460022e+16
-1.2492346e+16
-1.2497165e+16
-1.246395e+16
-1.2468411e+16
-1.2471436e+16
-1.2501334e+16
-1.2504122e+16
-1.2568275e+16
-1.2533142e+16
-1.2562906e+16
-1.2537903e+16
-1.2545177e+16
-1.2575407e+16
-1.2542531e+16
-1.2572677e+16
-1.247624e+16
-1.2508855e+16
-1.2513547e+16
-1.2480136e+16
-1.2585331e+16
-1.25497e+16
-1.2580197e+16
-1.2553993e+16
-1.2520355e+16
-1.248433e+16
-1.2517625e+16
-1.2487481e+16
-1.2558221e+16
-1.2589397e+16
-1.2591647e+16
-1.2560854e+16
-1.2622325e+16
-1.2642494e+16
-1.2648651e+16
-1.2627111e+16
-1.2664813e+16
-1.2672767e+16
-1.2666942e+16
-1.2672274e+16
-1.267603e+16
-1.2676917e+16
-1.2679176e+16
-1.2677578e+16
-1.2630972e+16
-1.2633855e+16
-1.2652199e+16
-1.265439e+16
-1.2604822e+16
-1.2625369e+16
-1.2631549e+16
-1.2609731e+16
-1.2614253e+16
-1.2635406e+16
-1.2617323e+16
-1.263796e+16
-1.2646733e+16
-1.2654643e+16
-1.264964e+16
-1.2655705e+16
-1.2662849e+16
-1.2660114e+16
-1.2658598e+16
-1.2661272e+16
-1.1415845e+16
-1.1491644e+16
-1.1474366e+16
-1.1423872e+16
-1.1442574e+16
-1.1449246e+16
-1.1526586e+16
-1.1490929e+16
-1.1215302e+16
-1.1248809e+16
-1.1378059e+16
-1.1389746e+16
-1.1473786e+16
-1.1454058e+16
-1.1401742e+16
-1.1406938e+16
-1.1458257e+16
-1.1482042e+16
-1.1206843e+16
-1.1228399e+16
-1.0747265e+16
-1.0746356e+16
-1.164015e+16
-1.1633446e+16
-1.1657434e+16
-1.1649586e+16
-1.162768e+16
-1.1621559e+16
-1.1637703e+16
-1.1643882e+16
-1.1684636e+16
-1.1678404e+16
-1.1694091e+16
-1.170071e+16
-1.1706937e+16
-1.1691107e+16
-1.1698331e+16
-1.1715542e+16
-1.1664116e+16
-1.165008e+16
-1.1656523e+16
-1.1670089e+16
-1.1608969e+16
-1.1594009e+16
-1.1599225e+16
-1.1614678e+16
-1.1677723e+16
-1.1664228e+16
-1.1672315e+16
-1.1686077e+16
-1.1620717e+16
-1.1604779e+16
-1.1615238e+16
-1.1631636e+16
-1.1731393e+16
-1.1722689e+16
-1.1749005e+16
-1.1740346e+16
-1.1715726e+16
-1.1709278e+16
-1.1728477e+16
-1.1733006e+16
-1.1775842e+16
-1.1770686e+16
-1.1792279e+16
-1.1796838e+16
-1.1804274e+16
-1.1782983e+16
-1.1791744e+16
-1.1814105e+16
-1.1759891e+16
-1.1751871e+16
-1.1771509e+16
-1.1779195e+16
-1.1744978e+16
-1.1738971e+16
-1.1757241e+16
-1.1764563e+16
-1.1823527e+16
-1.1801501e+16
-1.1808676e+16