/*--------------------------------*- C++ -*----------------------------------*\
  =========                 |
  \\      /  F ield         | OpenFOAM: The Open Source CFD Toolbox
   \\    /   O peration     | Website:  https://openfoam.org
    \\  /    A nd           | Version:  7
     \\/     M anipulation  |
\*---------------------------------------------------------------------------*/
FoamFile
{
    version     2.0;
    format      ascii;
    class       volVectorField;
    location    "1000";
    object      UMean;
}
// * * * * * * * * * * * * * * * * * * * * * * * * * * * * * * * * * * * * * //

dimensions      [0 1 -1 0 0 0 0];

internalField   nonuniform List<vector> 
33730
(
(-24970824 -7300688.5 -523907.72)
(-24477193 -3874488.1 3066352.6)
(-23934612 -3455034.2 3407040.4)
(-26473380 -1436154.3 1890252.8)
(-26520412 -1799986.9 2036358.2)
(-23632546 -2423192.5 -3226758)
(-18455765 -3957886.6 -560588.99)
(-24229010 -3106597.3 -3195931.1)
(-19058159 -5020305.9 -375959.15)
(-20243147 -2022034.9 2562060.6)
(-20614312 -2234688.4 2471861.4)
(-25041845 -1156750.3 2697661.6)
(-24713308 -1514716 2643434.1)
(-20772600 -2088294.3 2563180.1)
(-24880377 -1151542.7 2806508.5)
(-24533736 -1818166 2790430.8)
(-20340892 -2077723 2663142.9)
(-26788056 -1197859.6 -528259.37)
(-27489644 -952060.12 -609669.01)
(-27461081 -1206449.2 864511.06)
(-26637911 -927696.13 -750114.78)
(-27414873 -1655300.5 966140.11)
(-25301100 -691053.79 -1504892.3)
(-23935991 -1089117.9 1837243.7)
(-24057353 -744566.85 1876981.8)
(-24014037 -1375004.5 2046716.8)
(-24046253 -769146.94 1926662.8)
(-22290426 -1068273.3 -2748466.6)
(-23275648 -577761.96 -2580432.4)
(-22843763 -1065967.3 -2479250.3)
(-22036620 -1188460.9 -2939251.5)
(-18312841 -1518184.1 -3508152.8)
(-18701407 -1666462.6 -3454336.1)
(-13391075 -2592386.1 -217360.16)
(-13806958 -3196723.3 -106568.61)
(-22123512 -1158548.2 -2610307.4)
(-23075488 -482383.25 -2441584)
(-22715198 -779048.28 -2363901.6)
(-21902915 -1016705.5 -2717383.8)
(-18695336 -1884969.9 -3339626)
(-18303627 -1459179.4 -3355340)
(-13524684 -3436807.2 -252704.62)
(-13356119 -2731567.5 -223193.24)
(-17300658 -1303192.4 2027379.3)
(-21767931 -839169.03 2307032.5)
(-17021573 -1239438.4 2072448.9)
(-21515220 -1161651.5 2270386.8)
(-17233896 -1339687.1 2034470.6)
(-17144908 -1298854.2 2096317.1)
(-21796582 -1079386.5 2344426.9)
(-21856176 -790302.93 2359454.3)
(-21883856 -1101459.8 2324948.9)
(-17245013 -1208862.9 2033224.8)
(-21889642 -786292.1 2291999.7)
(-17343740 -1240325.5 2000591.2)
(-17264210 -1303150.7 2167438.3)
(-17454900 -1232433.1 2044851)
(-21709785 -1379356.2 2440119)
(-21932537 -929266.52 2433149.2)
(-24816787 -1037028.8 -370040.93)
(-24244860 -808242.52 -997389.66)
(-21722404 -733475.69 -826325.72)
(-21565291 -693894.97 -984340.42)
(-25036725 -744556.23 -1168408.5)
(-24882806 -727022.91 -434841.2)
(-24350288 -616545.1 -1036990.6)
(-27159842 -1155548.8 -458358.88)
(-24365050 -657752.32 -1591451.3)
(-25154906 -774070.11 1332116.9)
(-24084870 -756142.67 -137533.66)
(-24226393 -693394.92 -79239.461)
(-24826994 -1029543.7 1220634.7)
(-26860236 -657255.48 -621347.88)
(-24882382 -385635.06 -1396732.9)
(-25095892 -761312.4 -1361150.1)
(-24608642 -605681.7 -583047.63)
(-24158234 -464092.06 -1203152.2)
(-24026822 -506063.64 -1202591.6)
(-24354059 -693583.44 -676490.26)
(-24453398 -725604.17 50508.751)
(-24513923 -1101469.5 158490.93)
(-25011255 -801286.33 1297527.3)
(-24863290 -1273789.8 1341326.9)
(-27711727 -624230.49 -1005823)
(-25192628 -562157.76 -1401741.1)
(-22903323 -380001.83 -2220308.9)
(-20857432 -564032.66 1615751.1)
(-20746834 -865095.19 1649323.3)
(-20991201 -864293.69 1705426.6)
(-20926408 -549440.15 1715428.6)
(-21001905 -674519.87 1731300.3)
(-20930049 -1103391.3 1814662.9)
(-21072500 -924550.82 1699008.7)
(-20975274 -554178.93 1664246.6)
(-26677704 -1812529.8 -2547191.2)
(-26977779 -1951964.9 -2615082.1)
(-23583327 -940034.81 -3070133.9)
(-23194303 -285151.73 -1987405.7)
(-23055070 -762183.81 -2028151.1)
(-23506345 -1075372.1 -3257221.7)
(-19233319 -392227.53 -3279494.6)
(-16080729 -688601.46 -3715919)
(-19030917 -767039.51 -3252318.6)
(-15895722 -934523.78 -3788871.4)
(-19056791 -564360.56 -3094701.3)
(-19230391 -355539.36 -3138509.3)
(-16030704 -730435.9 -3624148.3)
(-15841307 -759897.52 -3636601.1)
(-11394903 -1080179.1 -3309292.1)
(-11147689 -1148592.1 -3315599.1)
(-9821042 -1824648.2 665736.5)
(-9512413.4 -1460797.9 605720.73)
(-11359656 -1166782.2 -3243213)
(-11111176 -1007793 -3193044.3)
(-9645336.8 -1919437.2 513852.34)
(-9551749.9 -1458664.7 616517.72)
(-23365916 -1052837.4 -2965444.4)
(-22951403 -164215.89 -1858198.4)
(-22825658 -565555.13 -1859453.9)
(-23313120 -1046067.6 -3088235.6)
(-18898296 -539299.23 -2988796.6)
(-19072742 -393377.49 -3051642.4)
(-15898756 -859418.71 -3499388.8)
(-15713704 -826991.42 -3526856.5)
(-18857996 -610624.64 -3082891.3)
(-19064237 -320144.16 -3143502.7)
(-15706755 -842710 -3633581.4)
(-15897740 -710263.4 -3590567.3)
(-11394520 -1425655.6 -3138769.7)
(-11175114 -1237034.7 -3083695)
(-9567530.9 -2151794.6 459617.32)
(-9557341.8 -1751375.9 611586.69)
(-11398018 -1248919.3 -3204967.8)
(-11095943 -1151713.6 -3189593.1)
(-9812566.8 -2054567 606575.42)
(-9534729.2 -1594927.7 632488.52)
(-18679917 -645727.74 2075213.2)
(-14855469 -893144.17 1833370.9)
(-14731436 -842247.82 1832802.2)
(-18665238 -793726.06 2077905.4)
(-14833020 -796597.2 1831678.6)
(-14658583 -791469.79 1894684.3)
(-18536807 -878571.04 2145501.4)
(-18649092 -660889.63 2133618.2)
(-14812540 -876612.4 1884465.3)
(-14760387 -888769.35 1917397)
(-18673446 -610004.95 2159789.8)
(-18717041 -808586.53 2179142)
(-14941606 -888911.28 1892530.9)
(-14773052 -848605.64 1933176.6)
(-18779008 -699246.34 2167790.4)
(-18652460 -898809.75 2157937)
(-15003129 -830222.49 1826617.6)
(-14874106 -798909 1875974.3)
(-18969906 -716300.76 2168209)
(-18866031 -929333.08 2169618.7)
(-14920211 -838239.41 1852289.5)
(-14870815 -837116.62 1840727.3)
(-18839679 -597370.16 2148106.7)
(-18890507 -806114.01 2158022.9)
(-15046600 -838134.64 1890773.1)
(-18971019 -803805.88 2274758.7)
(-18849980 -1051731.4 2296008.5)
(-14890973 -886013.12 1962688.3)
(-15020281 -868322.46 1870561.9)
(-14911215 -814867.85 1840979.2)
(-18969032 -706864.7 2182484.8)
(-18934862 -876707.55 2169389.5)
(-21025630 -745009.36 -736859.27)
(-21078792 -668424.27 -808864.81)
(-21247510 -813274.48 -444120.38)
(-21347556 -677807.92 -481177.8)
(-17659235 -656973.23 -648272)
(-17874901 -674561.21 -575727.3)
(-21504966 -719102.49 -763828.7)
(-21586176 -649864.48 -811811.68)
(-21418343 -605959.63 -988864.38)
(-21388143 -630580.12 -907910.72)
(-24489543 -759856.42 -1125760.1)
(-17930302 -638853.23 -657295.56)
(-18088589 -645985.44 -574416.41)
(-18006485 -656342.78 -657250.97)
(-18188409 -679061.7 -575549.93)
(-18541474 -626877.04 -640589.14)
(-18619276 -662186.76 -653788.23)
(-18755883 -597979.7 -837940.41)
(-22012695 -644250.49 -884083.18)
(-18838686 -643170.3 -836712.82)
(-21818931 -563731.9 -1165088.2)
(-21923631 -623019.24 -1072519.7)
(-21094662 -576425.85 -804175.88)
(-21040639 -520854.35 -802712.38)
(-21325079 -519219.95 -491257.65)
(-21407082 -650296.88 -476346.43)
(-21631670 -569942.56 -826471.77)
(-21435838 -481065.03 -1015487)
(-21367276 -478001.76 -976608.97)
(-21560551 -511129.42 -809058.56)
(-24803960 -560668.1 -1089043.7)
(-24212997 -437406.53 -1518315.3)
(-24238007 -657450.72 -1452322.1)
(-22344620 -543668.39 -1390893.5)
(-22338905 -427411.39 -1432429.1)
(-22489854 -593443.96 -1082061.6)
(-22330594 -528652.55 -1221478.6)
(-21990746 -571821.56 1603098.4)
(-21177988 -745457.25 626542.56)
(-21107206 -575558.39 622066.42)
(-21945924 -857576.33 1564390.7)
(-21340168 -539112.02 96042.24)
(-20627013 -554628.12 -483902)
(-20712948 -503903.71 -494733.56)
(-21189904 -670365.19 86549.739)
(-21493697 -566196.62 194201.49)
(-20785835 -578485.79 -397072.83)
(-20753377 -527262.62 -396978.57)
(-21523120 -717085.3 205846.48)
(-21028614 -554190.19 544148.36)
(-20982145 -726146.09 569701.49)
(-21642854 -843507.48 1459939)
(-21833879 -601324.33 1483185.5)
(-27596086 -949352.82 -792703.95)
(-27247941 -462303.58 -803799.93)
(-24219596 -400258.28 -2305465)
(-24393768 -850953.74 -2377053.5)
(-23935736 -358311.74 -1626640.8)
(-24008049 -344533.73 -1570856.7)
(-24533028 -397277.37 -1210366.4)
(-24236128 -454482.05 -1286936.3)
(-24758342 -327644.86 -1402033)
(-22609484 -133636.02 -2215634.5)
(-22760927 -223439.92 -2227031.7)
(-24667968 -392607.34 -1522547)
(-24989964 -426180.33 -1366163.2)
(-22818995 -234830.78 -2169451.8)
(-23016678 -497991.52 -2161459.1)
(-24950637 -681293.72 -1382134.5)
(-20719700 -473929.46 -842731.91)
(-21131711 -501262.55 -499164.55)
(-21116684 -538393.11 -528329)
(-20739304 -435707.6 -861529.01)
(-21219156 -418801.32 -881558.85)
(-21146717 -335398.57 -1024692.9)
(-21121798 -377771.48 -1031557.4)
(-21197602 -405036.99 -907217.59)
(-21132856 -422031.56 -1080175.5)
(-21060067 -439104.11 -977259)
(-21166859 -447857.5 -960933.44)
(-21062888 -383905.67 -1067408.5)
(-20721929 -466666.86 -914960.92)
(-20641231 -472726.46 -897395.25)
(-20980617 -483084.06 -641233.6)
(-20867279 -513223.71 -655111.51)
(-21693554 -755334.03 243967.55)
(-20968337 -516845.51 -361381.85)
(-21636444 -534471.15 226231.12)
(-21076697 -665262.34 -341328.57)
(-21041777 -674758.59 -343324.77)
(-21653212 -693744.95 270634.67)
(-21565154 -961867.19 324923.31)
(-20978668 -846332.94 -279414.99)
(-21306071 -546884.79 662641.48)
(-22025711 -569441.71 1577373.3)
(-21395366 -804363.25 697603.71)
(-22061215 -902315.68 1579187.4)
(-21361714 -1003356.3 807040.65)
(-21379733 -684426.02 709867.05)
(-22022169 -720457.75 1611824.9)
(-21868903 -1084418.5 1639679.7)
(-24996361 -465419.55 -1182346)
(-21801422 -531010.48 -1526907)
(-22972886 -513312.07 -1411084.5)
(-22716130 -434238.05 -1846177.8)
(-22739672 -312265.28 -1886119.5)
(-22911960 -395432.21 -1504030.5)
(-22318569 -332428 -2586595.9)
(-23543601 -384219.34 -1706315.5)
(-22448242 -303086.62 -2537064.2)
(-23642142 -310215.54 -1687957.1)
(-17865826 -472758.16 1661246.5)
(-17914418 -666887.05 1651350.3)
(-17748995 -683826.56 1691503.6)
(-17817373 -463153.56 1652488.1)
(-17975164 -492040.95 1706966.2)
(-17932747 -710592.66 1742137.5)
(-17878221 -454622.87 1735516.9)
(-17978041 -691796.82 1741854.7)
(-18113487 -774706.31 1699982.8)
(-18060131 -551408.58 1702313.1)
(-18065359 -618536.6 1744260.6)
(-18014042 -886036.85 1797313.4)
(-18081698 -754119.98 1715591.8)
(-18106666 -525726.51 1667700.1)
(-18104168 -701648.09 1711297.6)
(-17986862 -444351.94 1707982.4)
(-27053611 -1365102.7 -1407828)
(-27358650 -1508143.8 -1418530.6)
(-24193839 -683430.26 -2488412.1)
(-19291115 -570246.6 -3254432.7)
(-19376485 -247841 -3225197)
(-24099552 -362103.27 -1438721.8)
(-23826212 -660881.65 -1427982.2)
(-24144722 -798395.27 -2661773.4)
(-19330119 -691085.06 -3411951.3)
(-19396657 -279173.86 -3348209.2)
(-16887774 -681739.31 -4065092.7)
(-16786335 -829365.32 -4126188.9)
(-16808258 -703675.79 -3983899)
(-16690789 -753120.48 -4014903)
(-11685932 -318528.27 -3502674.5)
(-11684096 -424786.15 -3465423.7)
(-8424013.1 -649137.27 -3658062.8)
(-8582287.7 -584083.39 -3674238.6)
(-11629441 -571630.8 -3551066.6)
(-11642933 -381885.07 -3517531.2)
(-8514606.2 -592697.69 -3649523.5)
(-8411041.7 -801588.65 -3740667.7)
(-9157492.3 -885708.34 1213900.7)
(-9185879.6 -751040.21 1316068.9)
(-6387485.8 -1007587.9 -1539852.6)
(-6429741.3 -1089457.9 -1207738.6)
(-6467268 -1018313.3 -1335784.5)
(-9281125.9 -834720.23 1314028.9)
(-6318696.4 -1146035 -1315664.8)
(-9080916.2 -747488.15 1283997.5)
(-11633583 -332657.83 -3447042.7)
(-11655243 -405824.28 -3409712)
(-8403132.3 -648965.92 -3597295.4)
(-8556277.8 -637380.75 -3600926.8)
(-11539936 -312632.78 -3429378.6)
(-11503064 -449786.68 -3444766.6)
(-8453555.5 -562274.45 -3577777.2)
(-8271509.9 -684379.58 -3670117.8)
(-9063345 -943836.03 1186925.3)
(-9131575.2 -838684.46 1285223.4)
(-6312331.2 -1084028.4 -1549783.7)
(-6361746 -1141910.9 -1236628.4)
(-9305182.9 -924674.22 1320553.1)
(-9120063.3 -707512.42 1274302.8)
(-6442370.1 -1061514.9 -1342326.7)
(-6276147.8 -1090128.6 -1269236.2)
(-23887408 -802230 -2402015.9)
(-19181779 -288529.48 -3149686.3)
(-19102847 -559464.54 -3165648.2)
(-23815948 -240778.93 -1363670.6)
(-23496627 -458216.25 -1304607)
(-23840186 -759302.96 -2505210.1)
(-19201616 -229660.27 -3212190.2)
(-19097986 -562517.14 -3242044)
(-16730185 -909145.07 -3925190.8)
(-16568772 -876246.55 -3961771.6)
(-16569399 -797671.19 -4022256.3)
(-16696303 -751571.82 -3978608.3)
(-11520763 -420846.53 -3366450.2)
(-11531313 -467479.03 -3322289.5)
(-8401384.7 -813213.83 -3462589)
(-8602180.3 -835672.51 -3465627.7)
(-11460288 -357078.82 -3382351.7)
(-11421760 -475027.99 -3388182.2)
(-8503858.3 -725356.69 -3455373.1)
(-8285599.7 -805611.19 -3546384.3)
(-6188802.7 -1326716.5 -1531727.4)
(-8912066.9 -1003132 1171804.4)
(-9019688.3 -930522.98 1312097)
(-6233306.8 -1367061.3 -1161597)
(-9226926.8 -1027959 1331439.8)
(-9070363.1 -829062.52 1305879.5)
(-6315581.2 -1258652.7 -1353117.7)
(-6172538.8 -1290721.6 -1231781.2)
(-11550353 -320145.44 -3435857.2)
(-11543547 -385825.16 -3389571.1)
(-8561406.9 -687301.05 -3555740.2)
(-8348528.1 -675042.86 -3557541)
(-11514427 -298651.3 -3444904.5)
(-11471571 -469143.34 -3459698.3)
(-8454341.9 -582642.14 -3553648.1)
(-8270917.2 -736206.48 -3644918.6)
(-6234012.6 -1159506 -1583718.9)
(-9002509 -951806.76 1117556.3)
(-9091746.4 -838851.76 1281516.4)
(-6261948.2 -1187538.6 -1261822.5)
(-9241723.9 -899293.26 1329282.8)
(-9026908.5 -745831.54 1285093)
(-6364558.6 -1088655 -1399415.1)
(-6193269.9 -1163098.4 -1319181.5)
(-12653617 -669365.85 1805135.3)
(-12638499 -687892.74 1778533.1)
(-16314205 -519271.41 1956249.8)
(-16333746 -650216.88 1961805.6)
(-12685708 -579581.84 1845704.7)
(-12671527 -693159.94 1750774.3)
(-16329940 -548560.94 1927391.8)
(-16273249 -684183.56 1900600.9)
(-12661628 -568670.35 1784611.7)
(-12639367 -652816.54 1763476.3)
(-16302209 -493908.08 1923153.3)
(-16281576 -601645.37 1895785.3)
(-12755005 -551592.78 1911860.7)
(-12721890 -615625.95 1790867.1)
(-16297553 -505734.62 1990794.7)
(-16176879 -656952.93 1947915.8)
(-12682838 -661522.04 1873994)
(-12715976 -659307.02 1868446)
(-16260225 -479831.41 2005470.1)
(-16303454 -637495.87 2025547.5)
(-12732432 -618611.4 1927573.3)
(-12705806 -706640.63 1828718.8)
(-16338795 -563000.66 1998145.7)
(-16299323 -705543.89 1981521.5)
(-12727519 -628380.48 1846396.8)
(-12678621 -698051.49 1804050.8)
(-16351788 -526346.3 1942015.4)
(-16399313 -633203.59 1969939.3)
(-12730403 -592533.45 1913646.5)
(-12735408 -662410.6 1815147)
(-16342201 -537466.69 2004268.4)
(-16263062 -712136.86 1979028.9)
(-12776985 -572670.45 1794758)
(-12731889 -660931.75 1768018.5)
(-16516113 -533005.19 1911828)
(-16543629 -632254.55 1915150.6)
(-12771492 -557559.28 1864557.2)
(-12755988 -624889.77 1772678.5)
(-16545878 -567981.33 2001922.9)
(-16461709 -732090.89 1964216.4)
(-12753218 -629587.39 1820812.5)
(-12690536 -652499.89 1797437.1)
(-16402437 -447514.54 1969222)
(-16496348 -621224.52 2021945)
(-12776646 -562782.7 1863448.8)
(-12747531 -661815.27 1764997.9)
(-16526392 -557606.27 1968386.1)
(-16492420 -698109.11 1954256.9)
(-12892389 -615377.25 1845151.3)
(-12837948 -662838.76 1796104.2)
(-16584485 -589673.36 1976803.2)
(-16623233 -703493.4 2005808.4)
(-12839038 -623050.01 1915306.4)
(-12954718 -688777.38 1870659.6)
(-16537907 -644626.98 2057938.8)
(-16497109 -827034.99 2065167)
(-12906104 -626670.01 1842206.9)
(-12825815 -688554.17 1810908.7)
(-16567992 -556743.44 1995665.2)
(-16574014 -675914.58 1980227.6)
(-12798564 -537679.92 1845824.4)
(-12780002 -668528.97 1759842.9)
(-16588637 -616546.61 1985223.7)
(-16523233 -742603.83 1941090.5)
(-26282877 -609921.48 -2374837.3)
(-17622630 -583956.6 -634557.42)
(-17596172 -620390.99 -612947.2)
(-17825854 -601141.46 -552689.66)
(-17810552 -655522.48 -533304.29)
(-17616020 -520313.85 -681194.55)
(-17825815 -536271.85 -598154.64)
(-17671038 -526281.54 -671442.5)
(-17891004 -562226.62 -588618.5)
(-17436357 -596134.96 -566203.45)
(-17787752 -596929.65 -412832.8)
(-17430686 -660939.85 -535052.26)
(-17764890 -681418.24 -396556.19)
(-17420362 -531236.84 -610181.82)
(-17788905 -531390.69 -448774.82)
(-17486617 -562319.41 -591599.74)
(-17858042 -594566.66 -437377.95)
(-15017151 -568295.5 -544431.36)
(-15234017 -586449.65 -548554.4)
(-14881266 -539758.73 -559570.32)
(-15151656 -559964.88 -562367.66)
(-14948674 -585010.08 -546105.89)
(-14895271 -552819.71 -558611.86)
(-15226099 -565247 -501970.26)
(-14952374 -582791.37 -544310.46)
(-14894756 -568599.83 -571481.73)
(-15179258 -588288.24 -570578.66)
(-17881902 -567802.59 -653854.84)
(-18028928 -577337.11 -569860.57)
(-17849460 -597587.09 -634578.36)
(-17999212 -617935.54 -560081.13)
(-17883158 -508087.92 -706876.41)
(-18039423 -518806.96 -615254.12)
(-17915374 -501379.89 -710517.48)
(-18092351 -535807.59 -615843.8)
(-18483758 -505719.32 -689334.4)
(-18513045 -513104.64 -700827.56)
(-18687910 -480610.68 -882179.03)
(-18688820 -483851.52 -905667.41)
(-21842532 -581049.08 -887362.22)
(-18465458 -558791.82 -635483.12)
(-18431385 -600653.47 -629401.63)
(-18631598 -577204.55 -826620.2)
(-18673111 -531538.61 -830835.87)
(-21804632 -618667.66 -799169.89)
(-21732959 -530615.92 -1065431.3)
(-21643252 -543272.08 -996780.55)
(-14988523 -594195.13 -562831.25)
(-14514715 -529896.62 -576487.03)
(-14914949 -542716.63 -569999.19)
(-14560308 -596830.51 -569035.75)
(-14661597 -529872.69 -562656.08)
(-15086032 -536749.65 -500276.61)
(-15171176 -600278.54 -490395.38)
(-14720997 -590340.85 -551739.81)
(-14977865 -629755.67 -578028.67)
(-14495768 -556438.01 -597875.47)
(-14922715 -568631.78 -585610.73)
(-14527937 -630785.03 -593339.3)
(-14660946 -555399.46 -579900.87)
(-15104031 -564364.59 -514128.18)
(-14695224 -625674.11 -570833.85)
(-15151687 -634999.09 -507377.02)
(-14341832 -540950.29 -508908.26)
(-14348980 -607791.97 -506318.51)
(-14741224 -537146.22 -507002.81)
(-14798882 -606342.95 -503865.31)
(-14735418 -566209.42 -531565.16)
(-14770182 -640007.34 -533732.93)
(-14305983 -570369.95 -544397.16)
(-14310271 -637825.1 -543547.44)
(-14864262 -596755.1 -510740.35)
(-19114917 -568119.79 -794630.6)
(-19045145 -609879.98 -885633.47)
(-19014534 -547529.47 -880815.69)
(-19164793 -639090.46 -798110.98)
(-14834275 -639637.49 -547086.04)
(-19237886 -573936.05 -1107723.9)
(-19299806 -591676.68 -1085368.9)
(-19330839 -607738.33 -1010049.9)
(-19256664 -595294.4 -1055076.8)
(-19400434 -549785.27 -960507.47)
(-19382738 -496734.05 -943254.16)
(-19404000 -527913.88 -903226.71)
(-19436548 -586479.81 -918088.12)
(-17637882 -462887.01 -681777.25)
(-17594563 -464424.19 -702227.07)
(-17853735 -474319.14 -599442.44)
(-17816135 -497061.34 -612829.03)
(-17558892 -389583.52 -674115.89)
(-17775019 -404879.3 -597707.78)
(-17645818 -412354.83 -660635.38)
(-17856923 -440738.68 -591539.09)
(-17369132 -407379.3 -604523.99)
(-17751927 -402387.16 -450427.18)
(-17459840 -447014.17 -588233.35)
(-17841862 -473433.58 -441140.29)
(-17448864 -470262.59 -610418.41)
(-17829478 -469140.82 -455614.65)
(-17422853 -499742.65 -613176.89)
(-17789739 -526781.58 -463170.14)
(-17888501 -460041.18 -710626.69)
(-18058826 -457250.53 -619820.8)
(-17841784 -448148.82 -745032.76)
(-18007693 -467795.45 -651926.86)
(-18488980 -456894.77 -696283.22)
(-18431374 -458365.6 -739467.6)
(-18608474 -436741.52 -949966.97)
(-18683106 -439561.77 -892588.02)
(-21900609 -458969.88 -931562.82)
(-18408640 -375089.54 -666032.67)
(-18481359 -413707.4 -663682.05)
(-18646600 -392678.69 -866096.93)
(-18578786 -349258.95 -865245.58)
(-21850509 -451549.65 -874506.62)
(-17793552 -374870.74 -689385.63)
(-17980320 -384346.43 -613847.73)
(-17876146 -398317.84 -679066.85)
(-18061894 -419483.24 -609219.33)
(-21662929 -436198.61 -1108277.4)
(-21738193 -363979.63 -1173216.4)
(-22210592 -235317.21 -1455872.5)
(-22111138 -368409.86 -1371916.6)
(-22181816 -405144 -1126965.4)
(-22266954 -331965.97 -1202488.8)
(-22237232 -441628.05 -1329094.3)
(-22177084 -499282.64 -1131348.1)
(-22115862 -526278.31 -1085288.2)
(-22161773 -448021.75 -1286199.9)
(-20185235 -442405.91 -1031643.2)
(-20179554 -410634.45 -1126018.3)
(-20161684 -391113.33 -1129938)
(-20179025 -446178.43 -1043310.9)
(-20142690 -440636.06 -1233069.7)
(-20228014 -530202.57 -1213479.2)
(-20113712 -538716.23 -1203058.6)
(-20035820 -477193.58 -1232497.4)
(-19697848 -477740.06 -1031982.5)
(-19665605 -453998.19 -1031437)
(-19780159 -482485.14 -931727.44)
(-19794887 -528997.59 -958563.77)
(-19697632 -566300.04 -1089636.2)
(-19675097 -556828.25 -1157041.3)
(-19599887 -516949.55 -1174289.5)
(-19621703 -549373.16 -1121649.8)
(-23881678 -231864.61 -1271179.5)
(-24000527 -331372.62 -1023489.9)
(-23156857 -97837.625 -1793041.6)
(-24646757 -300051.23 -1172727.9)
(-21006567 -261201.56 -912412.39)
(-21057517 -357816.16 -744230.21)
(-20628316 -412894.92 -695713.96)
(-18155670 -464816.13 1159779)
(-18216702 -653386.18 1162318.6)
(-18822096 -460301.34 1820345.3)
(-18870080 -698942.74 1805029.4)
(-18019554 -448183.44 215666.63)
(-17975504 -574639.15 236094.87)
(-18637806 -486448.18 761782.09)
(-18569264 -657023.28 777930.86)
(-17950585 -458422.88 222005.71)
(-18613171 -475315.65 776936.98)
(-18018226 -560861.26 233914.73)
(-18644053 -622656.16 778058.75)
(-18203525 -460982.35 1135825.5)
(-18862779 -516316.25 1769468.9)
(-18187556 -675338.8 1179491.6)
(-18781830 -737198.78 1779145.7)
(-17468616 -455296.34 -385521.35)
(-18121186 -452198.08 4688.7526)
(-17517961 -489865.33 -374713.38)
(-18165261 -536746.66 7481.9927)
(-17283470 -416506.06 -590906.72)
(-17186309 -417849.34 -607392.2)
(-17681517 -433405.18 -448155.93)
(-17577519 -455401.52 -462729.7)
(-17270418 -430013.6 -590085.26)
(-17700514 -449880.79 -441226.16)
(-17333959 -441471.71 -580338.15)
(-17741651 -475256.67 -440534.52)
(-17461278 -430802.97 -392231.03)
(-18074627 -435317.88 -23403.374)
(-17386787 -469854.84 -391530.93)
(-17969675 -508716.48 -33635.217)
(-17461842 -464359.04 -344218.79)
(-17514707 -498479.23 -328512.69)
(-18150864 -460603.77 46261.431)
(-18183023 -542880.61 51372.204)
(-17336546 -430323.25 -532345.9)
(-17784659 -457587.95 -382171.1)
(-17283454 -454341.98 -539748.31)
(-17728955 -505386.1 -380786.02)
(-17248184 -426041.09 -535994.27)
(-17708193 -453335.1 -387316.28)
(-17303220 -445073.36 -522083.29)
(-17740663 -484894 -380007)
(-17534461 -448778.18 -341502.36)
(-18192027 -454579.74 32915.222)
(-17507315 -514422.62 -326494.87)
(-18122098 -552298.75 34229.518)
(-17918839 -446396.37 183299.26)
(-17988357 -549604.65 191990.44)
(-18580554 -466670.55 727907.23)
(-18612859 -605841.01 730468.6)
(-17915896 -427850.44 164754.57)
(-18521394 -457709.12 716515.58)
(-17831955 -528750.29 174127.57)
(-18426550 -608123.47 727109.26)
(-18102994 -433997.62 1100354.9)
(-18726312 -491582.02 1727004.8)
(-18612576 -699891.43 1731913.3)
(-18050612 -632385.21 1140591.1)
(-18131712 -452039.31 1105756.8)
(-18185357 -631754 1113466.3)
(-18786772 -476220.04 1741966.9)
(-18801435 -682293.79 1720804)
(-25008993 -410456.7 -1106571.3)
(-24918695 -602345.09 -1070950.8)
(-21858060 -301653.91 -1447105.8)
(-22018457 -379719.44 -1445514.5)
(-24615143 -287013.56 -1073121)
(-24843248 -372600.55 -1086750.2)
(-21749640 -316088.67 -1397831.5)
(-21624808 -292602.07 -1302272.3)
(-23026624 -513571.86 -2394241.9)
(-23267558 -338156.95 -2453537.2)
(-21954566 -196882.57 -1359757.6)
(-21978732 -309608.71 -1408625.6)
(-21925307 -347176.82 -1211628.5)
(-21860400 -272460.02 -1184097.1)
(-21992539 -300464.72 -1127736.3)
(-21941969 -259187 -1422315.7)
(-21960825 -216841.27 -1150170.3)
(-21885748 -114498.86 -1402712.3)
(-21405109 -229602.34 -1126277.3)
(-21418971 -333340.14 -1113946.9)
(-21556352 -342704.15 -945245.48)
(-21550116 -311743.08 -954982.36)
(-21439444 -311376.82 -1088851.5)
(-21471362 -362670.83 -1149554.1)
(-21484951 -372176.22 -1025864.6)
(-21374515 -338143.66 -1040087.1)
(-22263946 -9304.1819 -1801019.7)
(-22286549 -227586.69 -1787278.3)
(-22565468 -257143.89 -1407766.3)
(-22425563 -90898.406 -1454848.4)
(-23172922 -248860.94 -1462447.2)
(-21811259 -185565.97 -2579554.7)
(-21930002 57882.727 -2543094.3)
(-23125727 -36254.279 -1565114.8)
(-22164884 23016.406 -2504075.3)
(-22118134 -129171.83 -2544195.6)
(-23299023 -245892.83 -1590469.5)
(-23300127 -129336.54 -1534394.4)
(-22428931 -220334.34 -1794202.2)
(-22496782 -315324.19 -1513853.3)
(-22446833 -97818.34 -1722130.1)
(-22449379 -163846.06 -1485662.4)
(-22531960 -150444.6 -1993797.2)
(-22544895 -304201.08 -1720112.2)
(-22667743 -355294.17 -1412302.8)
(-22758495 -212034.38 -1530012.6)
(-22180345 -230456.78 -2475062)
(-23422023 -285015.55 -1506200.6)
(-22135368 -73022.341 -2596316)
(-23334114 -170397.03 -1868884.1)
(-22355904 -213640.19 -2522266.6)
(-22365357 -295094.09 -2517793.6)
(-23589665 -393910.12 -1518138.7)
(-23531278 -365690.01 -1491512.4)
(-22675046 -348689.06 -1656547)
(-22696965 -336181.79 -1731831.3)
(-22757005 -445667.1 -1445206.8)
(-22665127 -410061.41 -1423603.7)
(-17320816 -373424.35 -692304.97)
(-17563008 -407773.33 -614138.33)
(-17352517 -359404.51 -689605.74)
(-17595567 -407508.68 -609410.17)
(-17142157 -413685.15 -631740.57)
(-17543413 -408825.66 -472773.7)
(-17186744 -415285.56 -618661.73)
(-17580803 -441357.96 -467912.66)
(-17166811 -410579.57 -655388.2)
(-17221146 -412577.48 -633795.63)
(-17630751 -420813.59 -466062.58)
(-17560421 -449034.34 -488152.1)
(-17344392 -358302.92 -738263.6)
(-17406381 -378393.31 -695944.21)
(-17619181 -405314.16 -626064.49)
(-17549408 -394500.59 -663323.34)
(-17564058 -345037.01 -716965.3)
(-17748712 -356605.99 -617084.48)
(-17563243 -326945.72 -729588.66)
(-17770897 -363165.79 -624354.37)
(-18375254 -337874.58 -949266.7)
(-18423088 -327642.62 -901178.96)
(-18218154 -354442.93 -695329.06)
(-18136594 -336475.39 -773455.54)
(-18147228 -330107.9 -718727.69)
(-18148084 -327022.92 -741671.8)
(-18369116 -313282.48 -925171.07)
(-18366521 -303458.7 -900929.35)
(-17643531 -357002.51 -701838.07)
(-17807358 -359517.99 -635288.89)
(-17595067 -339452.1 -756883.08)
(-17730298 -346876.79 -696124.29)
(-18493836 -348779.92 -948135.12)
(-18393344 -346635.44 -980941.91)
(-18211027 -377607.26 -761279.79)
(-18264909 -355341.71 -778996.72)
(-17676269 -382552.8 -767942.99)
(-17559363 -341678.9 -821964.93)
(-17830210 -388111.23 -675607.57)
(-17698425 -360415.25 -728329.5)
(-17638766 -373359.31 -767262.43)
(-17801234 -380660.3 -689395.1)
(-17714873 -351299.97 -766995.83)
(-17857326 -372395.08 -700366.23)
(-18239368 -369023.48 -769332.78)
(-18098984 -332319.7 -845659.81)
(-18350482 -325669.05 -1005974.5)
(-18458607 -347296.28 -944414.94)
(-17383801 -385549.59 -747682.49)
(-17598241 -411895.81 -676700.45)
(-17457319 -369180.77 -741451.28)
(-17650968 -400434.72 -679183.88)
(-17413373 -392983.74 -737607.88)
(-17623589 -407970.61 -665136.32)
(-17304366 -359434.58 -774161.28)
(-17512093 -387887.13 -693765.11)
(-17272377 -410624.83 -667501.63)
(-17199423 -413090.81 -680657.81)
(-17556039 -416629.94 -536472.31)
(-17604539 -436220.05 -539363.34)
(-17237446 -409814.44 -671331.87)
(-17553958 -403360.33 -542758.12)
(-17145985 -398317.66 -687538.91)
(-17434173 -409390.35 -573789.13)
(-17749791 -484113.25 -326783.66)
(-17734662 -562980.86 -306969.73)
(-18387178 -489915.93 52818.068)
(-18344373 -603241.68 61690.918)
(-17448961 -408032.95 -509707.28)
(-17893391 -421409.48 -364516.64)
(-17557454 -471528.36 -491657.11)
(-17986828 -497740.51 -352404.43)
(-17752669 -510873.33 -296583.89)
(-17647658 -423357.32 -315265.8)
(-18303303 -416813.71 66394.258)
(-18392174 -545023.36 73137.701)
(-17544704 -473286.35 -515173.13)
(-17980018 -489705.09 -367610.23)
(-17516342 -524806.5 -511052.67)
(-17946423 -560258.91 -361199.25)
(-17495673 -532689.92 -510063.85)
(-17937742 -544857.7 -358297.67)
(-17573531 -588971.32 -489398.55)
(-18002733 -618333.72 -341999.31)
(-17703037 -538648 -314151.11)
(-18343050 -535165.51 73320.21)
(-17775636 -622844.82 -289426.29)
(-18404344 -657573.48 87271.115)
(-17718612 -607521.93 -279016.21)
(-18347641 -618244.81 109781.49)
(-17721275 -725785.23 -236952.89)
(-18312234 -769215.8 136202.62)
(-17513351 -598534.24 -474018.9)
(-17504347 -680810.85 -444010.87)
(-17918459 -719352.41 -297162.68)
(-17937356 -620501.22 -323482.78)
(-18104750 -414502.62 248448.19)
(-18216976 -566944.5 262198.9)
(-18826839 -617389.25 801517.48)
(-18752898 -429950.07 802469.78)
(-18289785 -425026.98 1186318.2)
(-18953435 -443294.61 1821028.8)
(-18392297 -659918.05 1192853.8)
(-19026335 -701604.17 1802531.3)
(-18210231 -480299.68 229401.77)
(-18839974 -516160.11 782624.7)
(-18188590 -617472.7 255335.74)
(-18802446 -693383.19 807995.01)
(-18397520 -494695 1149466.9)
(-19041363 -550494.68 1772661.5)
(-18399453 -710981.75 1200447.4)
(-18982490 -777627.8 1790134.6)
(-18182249 -594674.7 288825.45)
(-18811327 -630890.01 854733.01)
(-18160002 -526201.6 249471.18)
(-18816133 -539839.82 809356.17)
(-18238204 -666940.28 270225.87)
(-18857485 -713664.17 817098.81)
(-19030556 -555199.99 1826562.1)
(-18366680 -526360.04 1183418.1)
(-18428642 -739414.5 1199418.2)
(-19052907 -790308.8 1808284.7)
(-19012621 -654755.04 1859039)
(-18383198 -591067.04 1230901.3)
(-18929420 -919716.32 1882415.6)
(-21198707 -851751.85 -2586537.9)
(-23686279 -309857.51 -1547522.8)
(-23525816 -388917.07 -1547254.3)
(-21400141 -300488.07 -1409858.9)
(-21292771 -574944.42 -1420335.5)
(-20674868 -384967.68 -1087945.3)
(-20592151 -369727.3 -1283447.3)
(-20651782 -367401.54 -1104914)
(-20531759 -298025.68 -1350373)
(-21135217 -345619.05 -1286577.8)
(-21144787 -308497.02 -1464913.1)
(-21065483 -244017.34 -1322752.6)
(-21186484 -170702.57 -1469702.7)
(-21303408 -224451.63 -1480015.6)
(-21285399 -445624.12 -1517924.1)
(-21203846 -501000.09 -1381443.6)
(-21119839 -302859.41 -1379187.7)
(-20639530 -357492.84 -1311428.6)
(-20712810 -503032.52 -1328153.7)
(-20645142 -511081.2 -1238677.7)
(-20555139 -398755.09 -1266843.9)
(-21289040 -262236.4 -2775060.2)
(-21871343 -253407.89 -1919252.7)
(-22126784 -35636.938 -1663145.9)
(-21388000 -35682.616 -2678851.5)
(-21561095 -292653.66 -1500229.7)
(-21357096 -235288.84 -1878584.3)
(-21366263 -77538.992 -1892226.1)
(-21644170 -123679.44 -1448677.3)