/*--------------------------------*- C++ -*----------------------------------*\
  =========                 |
  \\      /  F ield         | OpenFOAM: The Open Source CFD Toolbox
   \\    /   O peration     | Website:  https://openfoam.org
    \\  /    A nd           | Version:  7
     \\/     M anipulation  |
\*---------------------------------------------------------------------------*/
FoamFile
{
    version     2.0;
    format      ascii;
    class       volScalarField;
    location    "2000";
    object      k;
}
// * * * * * * * * * * * * * * * * * * * * * * * * * * * * * * * * * * * * * //

dimensions      [0 2 -2 0 0 0 0];

internalField   nonuniform List<scalar> 
34124
(
1.5198375
1.5268087
1.5195674
1.5131593
1.5319877
1.5266473
1.5236681
1.5196882
1.516793
1.5096368
1.5349811
1.5307878
1.5300734
1.5279279
1.5244719
1.5211254
1.5230907
1.5178617
1.5109568
1.508894
1.5336245
1.5334448
1.5339554
1.5307042
1.5292834
1.528452
1.530251
1.5255109
1.5205065
1.5183929
1.5180542
1.5217885
1.5127216
1.5074764
1.5093947
1.5320979
1.5322525
1.532869
1.5323261
1.5321356
1.5291596
1.5314691
1.528927
1.5268945
1.5263679
1.5262326
1.5300118
1.5213126
1.5168036
1.5190089
1.5112422
1.5211386
1.5135992
1.5100711
1.5099601
1.5129293
1.5307881
1.5300747
1.530512
1.5311295
1.5312033
1.5283573
1.5307006
1.5306831
1.5267775
1.5244133
1.5292839
1.531165
1.5264312
1.5245992
1.5277135
1.5210072
1.5292516
1.5215991
1.5180878
1.5184555
1.521436
1.5109223
1.5156566
1.5114738
1.510673
1.5060604
1.5097705
1.510443
1.5297128
1.5293233
1.5296473
1.529304
1.5272075
1.5270371
1.5298531
1.5300444
1.5264304
1.5241001
1.5300123
1.5277966
1.5258315
1.5234622
1.5225523
1.5268942
1.5302404
1.5271424
1.5240556
1.5261985
1.5271784
1.5191249
1.5234261
1.5198726
1.5186504
1.5124363
1.5198747
1.5201779
1.5086295
1.5153212
1.513072
1.5095429
1.5155887
1.5092772
1.5059935
1.5128203
1.5287867
1.5283303
1.5289534
1.5287393
1.5277748
1.5253436
1.5268494
1.5296882
1.5241718
1.5237685
1.5297263
1.5276916
1.5257249
1.5232496
1.5222337
1.5293378
1.5271027
1.5244961
1.5231173
1.5222722
1.5213893
1.5250693
1.5278621
1.5273083
1.5252023
1.5200756
1.5274349
1.5274241
1.5160952
1.5203073
1.5201752
1.5173183
1.5235224
1.5169624
1.5147907
1.5229988
1.5102648
1.507966
1.522247
1.5103404
1.5123208
1.5122431
1.5035057
1.5085148
1.5102052
1.5278699
1.5289245
1.5274197
1.5265051
1.5278214
1.5252105
1.5267998
1.5292344
1.5241067
1.5228786
1.5276241
1.5242257
1.5304305
1.5226581
1.5220323
1.5296731
1.5273745
1.5245503
1.523062
1.5221733
1.5212766
1.5297848
1.5279283
1.5245751
1.5228928
1.522203
1.5213296
1.5203181
1.5228323
1.5256156
1.5258008
1.5243391
1.5308827
1.5235165
1.5242013
1.5285561
1.5175742
1.5154962
1.5221684
1.516838
1.5220416
1.5195759
1.5092767
1.5171094
1.5183054
1.5088294
1.5111385
1.5047331
1.5143631
1.5083865
1.5102524
1.5076241
1.5063237
1.5073999
1.5067102
1.5270702
1.5271146
1.5280019
1.5289455
1.5274633
1.5247377
1.5266512
1.5275398
1.5244764
1.523094
1.5274609
1.5244376
1.5291844
1.5227914
1.5221615
1.5252826
1.529159
1.5228429
1.5304281
1.5219635
1.5213036
1.5294163
1.5280077
1.5248657
1.5230087
1.5222442
1.5213361
1.5202579
1.5295207
1.5332243
1.5253629
1.5232755
1.522127
1.5213691
1.5203029
1.5197027
1.523839
1.5220283
1.5256062
1.5233547
1.5297799
1.5283246
1.5181983
1.5235289
1.5256148
1.5156265
1.5179743
1.5100337
1.5181854
1.5175841
1.5177953
1.5146019
1.5135416
1.5151242
1.5145109
1.5123457
1.5097998
1.5106671
1.5056056
1.5072965
1.5094258
1.5054616
1.5077743
1.5064838
1.5049765
1.5066228
1.5260615
1.5265738
1.5274098
1.5276012
1.5247557
1.5280179
1.5286493
1.5279384
1.5254642
1.5232427
1.527054
1.5246668
1.526726
1.5230576
1.5224002
1.5254062
1.5288304
1.523171
1.5279081
1.5222181
1.5214947
1.5267668
1.5239412
1.5295729
1.5221616
1.5292977
1.5214784
1.5203417
1.5294828
1.5327415
1.5256427
1.5236344
1.5223497
1.5215099
1.5203086
1.519662
1.5318817
1.5273623
1.5335521
1.5239113
1.5224971
1.5214642
1.5203854
1.5196531
1.5194484
1.5220056
1.5237202
1.5168296
1.5233015
1.5257748
1.5281077
1.5240061
1.5205139
1.5217897
1.5231947
1.5182414
1.5164132
1.5161449
1.511829
1.5132417
1.5154067
1.5131337
1.514327
1.5139336
1.5117678
1.5129789
1.5105803
1.5083704
1.5064457
1.5079384
1.5054082
1.5054481
1.504377
1.5054358
1.5080041
1.5049596
1.5057102
1.5082179
1.5266497
1.5241145
1.52617
1.5271337
1.5250044
1.5272748
1.528012
1.5260577
1.5234426
1.5279299
1.5293926
1.5310161
1.5260014
1.5242932
1.5226463
1.5255089
1.5281878
1.5236248
1.526561
1.5225973
1.5217988
1.5270044
1.5242975
1.5290918
1.5225331
1.5268957
1.5217712
1.5204735
1.5253226
1.5275764
1.523125
1.5293502
1.5216043
1.5279592
1.5208119
1.5196856
1.5315589
1.5275415
1.5330911
1.5242743
1.5229401
1.5217206
1.520452
1.5196631
1.5194731
1.5299158
1.5343412
1.5257575
1.5304177
1.523032
1.5217616
1.5205759
1.5196494
1.5194445
1.5192084
1.5235934
1.5220356
1.5211576
1.5177109
1.5196394
1.5252153
1.5230114
1.5223437
1.5212682
1.5189205
1.5204658
1.5166373
1.5139363
1.5121023
1.5134984
1.5116616
1.5103484
1.5107608
1.5111867
1.5150031
1.5114339
1.5121881
1.5140249
1.5077278
1.5063752
1.5086364
1.5056533
1.5053695
1.5039105
1.5042066
1.5048813
1.5052424
1.5106649
1.5056167
1.5072417
1.5046936
1.5256565
1.5269338
1.5270692
1.5243087
1.5255622
1.5269988
1.5279105
1.5259735
1.5240509
1.5260422
1.5290631
1.526738
1.5249016
1.5229307
1.5264397
1.5311874
1.5278587
1.5311138
1.5247708
1.5235237
1.5221126
1.5269799
1.5246769
1.5283111
1.5230307
1.5270004
1.522155
1.5206884
1.5257347
1.5280038
1.523578
1.528772
1.5219775
1.5248508
1.5209432
1.5197735
1.5261283
1.5244936
1.5279162
1.5224252
1.5279699
1.5208939
1.5270891
1.5206834
1.5195901
1.5297988
1.533565
1.5260466
1.5302322
1.5234214
1.5221275
1.5206678
1.519703
1.5195102
1.5192689
1.5331651
1.5280538
1.532862
1.524597
1.531336
1.5221755
1.5209036
1.5199429
1.5194386
1.5192613
1.5189251
1.5220754
1.5199229
1.5180654
1.519552
1.5183125
1.5168381
1.5208314
1.5193701
1.5227171
1.5184133
1.5194852
1.5194967
1.5131523
1.5122511
1.5144343
1.5113141
1.5094124
1.5086354
1.5093807
1.5097968
1.512086
1.5168069
1.5115473
1.5128429
1.5100806
1.5046419
1.5078818
1.5072316
1.5057312
1.503851
1.5038935
1.5045027
1.5039161
1.505598
1.5060001
1.5086875
1.5051522
1.5056382
1.503526
1.526908
1.5264228
1.5249952
1.5272309
1.5269985
1.5277669
1.5249771
1.5234581
1.5258164
1.5255738
1.5285622
1.5272303
1.5250344
1.5233929
1.5255739
1.5294898
1.5281081
1.5254873
1.5239342
1.5224938
1.5243707
1.5295985
1.5323526
1.5262943
1.5282796
1.5238345
1.522571
1.5208912
1.526028
1.5277121
1.5240807
1.5285109
1.5224363
1.5241585
1.5211711
1.5199265
1.5264762
1.5249626
1.5282656
1.5229041
1.5271245
1.5212144
1.525681
1.5208882
1.5197261
1.5253285
1.5265702
1.5237374
1.5270311
1.5215895
1.5232159
1.5203781
1.5194357
1.5325472
1.5280016
1.5322592
1.5249373
1.5305226
1.5225402
1.5212462
1.5199339
1.5195724
1.5193684
1.5189832
1.5312208
1.533759
1.5263692
1.5285268
1.5235335
1.5212737
1.5201415
1.5198434
1.5193515
1.5189908
1.51863
1.5195958
1.5184944
1.5204831
1.5171418
1.5146943
1.5143094
1.5159412
1.5171954
1.5209459
1.5221209
1.5177031
1.5187107
1.5149818
1.5088957
1.5132362
1.5127896
1.5109013
1.5084517
1.5077911
1.5090783
1.5082089
1.5125138
1.5138127
1.5145648
1.512553
1.5110124
1.5071758
1.5041045
1.5044468
1.5071515
1.5073242
1.5054317
1.5047967
1.5053167
1.5041269
1.5050208
1.5053672
1.5056847
1.5142003
1.5073592
1.5027655
1.5044199
1.5273654
1.5262991
1.5270034
1.5274098
1.5257226
1.5244282
1.52592
1.5273764
1.527117
1.5280076
1.5221233
1.525264
1.5233683
1.5247057
1.5256496
1.5285675
1.5287704
1.5262032
1.5241569
1.5227639
1.5213489
1.5294112
1.5289095
1.5266044
1.5242792
1.5230184
1.5218849
1.5242161
1.5315416
1.5278209
1.5309784
1.5251373
1.5281819
1.5255789
1.5228562
1.5217782
1.5199704
1.5212667
1.5266376
1.5253597
1.5278257
1.5234377
1.5261619
1.521702
1.5232234
1.5252281
1.5212203
1.5214128
1.5199435
1.5257006
1.5267865
1.5242217
1.5264933
1.5220638
1.5223836
1.5206361
1.5196661
1.5258705
1.5246484
1.5260003
1.5227632
1.5236315
1.520844
1.5198963
1.5203583
1.5191625
1.5307705
1.5331924
1.5264872
1.5277782
1.5239233
1.5216264
1.5204324
1.5198916
1.5195685
1.5190804
1.5186433
1.5326452
1.5294498
1.5305401
1.5248347
1.525692
1.5224676
1.5203755
1.5199254
1.5190975
1.5186951
1.5183724
1.5143579
1.5191895
1.5180019
1.5167392
1.5136646
1.5126983
1.5147435
1.519107
1.514186
1.5214854
1.5200093
1.5206696
1.5202102
1.5178776
1.5154117
1.5122575
1.5083542
1.5086985
1.5122971
1.5114211
1.5094446
1.5101902
1.5092682
1.5098723
1.5102275
1.5124976
1.5122407
1.5156668
1.5108481
1.5061074
1.5080291
1.5028716
1.5055876
1.5050848
1.5050315
1.5073947
1.5059097
1.5056966
1.5101621
1.5050547
1.5110791
1.509327
1.5023455
1.5036743
1.5034233
1.5268172
1.5271925
1.5260168
1.5254916
1.5263835
1.5274333
1.5283589
1.5266706
1.5247158
1.5237197
1.5228801
1.5255039
1.5266739
1.5258732
1.5279082
1.5217574
1.5188331
1.5225442
1.5242766
1.5202739
1.5237115
1.5224144
1.5274839
1.5291047
1.5255378
1.5249289
1.5236555
1.5223879
1.5188524
1.5279125
1.529957
1.5277877
1.5252131
1.5231245
1.5225877
1.5219371
1.5217429
1.5205028
1.5237403
1.5300245
1.5320653
1.5264045
1.5267341
1.524231
1.5263893
1.5220851
1.5210936
1.5200219
1.5204021
1.5258911
1.5267671
1.5246296
1.5256875
1.522603
1.5217819
1.5210082
1.5236888
1.5214417
1.520143
1.5260057
1.5250231
1.525641
1.5232705
1.5226436
1.5212281
1.5193602
1.5207118
1.5193282
1.5254289
1.5253502
1.5236758
1.5240641
1.5218178
1.5226479
1.5180794
1.5196267
1.5216942
1.5187841
1.5321072
1.5292248
1.5298584
1.5250808
1.5248696
1.5229009
1.520663
1.5202502
1.5192617
1.518704
1.518322
1.5310336
1.5302651
1.5277842
1.5232965
1.5242265
1.5267659
1.5212769
1.5208849
1.5193282
1.5187818
1.5184501
1.5184499
1.5136015
1.513363
1.5167312
1.5153845
1.5141187
1.5151598
1.5159963
1.5152783
1.517854
1.5174619
1.5181211
1.5202182
1.5194182
1.520477
1.5152116
1.5115391
1.5122632
1.5077794
1.5089809
1.5095318
1.5093645
1.5118326
1.5105593
1.5102317
1.5141094
1.5104233
1.5138888
1.5114645
1.5058483
1.5073061
1.5065938
1.5038625
1.5048483
1.5033565
1.5036687
1.5057589
1.503475
1.5041073
1.5056162
1.5055957
1.5091031
1.5064561
1.5109128
1.5032592
1.5015999
1.5038283
1.5259431
1.5266196
1.5257632
1.5249702
1.5256051
1.5247101
1.5253054
1.5269557
1.5275648
1.5275219
1.5284965
1.5253326
1.5231342
1.5201565
1.5238424
1.5212141
1.5193241
1.5236223
1.5256247
1.5184626
1.5182674
1.5191173
1.5207668
1.5199414
1.5282586
1.5260201
1.5263923
1.5218068
1.5234618
1.5296081
1.5244924
1.5224532
1.5252561
1.5227204
1.5290343
1.5263667
1.5244111
1.5208768
1.5190686
1.5312662
1.5287201
1.5295063
1.5251839
1.524378
1.5234037
1.521285
1.5210971
1.5260239
1.525256
1.525281
1.5237362
1.5213444
1.5217371
1.5193991
1.5213248
1.5196678
1.5257039
1.5250917
1.5240648
1.5234366
1.522211
1.522132
1.5175245
1.5199218
1.5220737
1.5189032
1.5251618
1.5247007
1.5239419
1.5226517
1.5234168
1.5216537
1.5171505
1.519145
1.5203265
1.5234047
1.5183952
1.5305535
1.5298902
1.5277337
1.5236764
1.5232846
1.5259698
1.521717
1.5214095
1.5196389
1.51886
1.5183315
1.5182651
1.5295532
1.5290839
1.5257305
1.5217005
1.5234041
1.5247298
1.5254999
1.5223446
1.5197372
1.5189448
1.518493
1.5184793
1.518506
1.5131715
1.5136508
1.5147424
1.5139002
1.5159895
1.5154271
1.5158034
1.5189402
1.5174171
1.5188821
1.5159209
1.5112099
1.5122
1.5113403
1.5082523
1.5097237
1.5073753
1.5086877
1.510774
1.5085039
1.5095851
1.5099794
1.5107864
1.5138538
1.5094099
1.5142812
1.5073232
1.5047616
1.5079768
1.5041325
1.5043478
1.5068119
1.504459
1.5030218
1.5046252
1.5049393
1.5108983
1.5046675
1.5056092
1.5039065
1.5085956
1.520802
1.5018677
1.5023968
1.5067219
1.5253482
1.525718
1.5250081
1.5248612
1.5256583
1.5250725
1.5241264
1.5258027
1.5260077
1.5267056
1.5279142
1.5264338
1.518554
1.5220045
1.5183469
1.5242286
1.5245482
1.5227834
1.5250758
1.5187907
1.5184514
1.5184412
1.518268
1.5243244
1.5223925
1.5187548
1.5188041
1.5268045
1.5241554
1.5258153
1.5269002
1.5235327
1.5295417
1.5286554
1.5279184
1.5187552
1.5177359
1.5202819
1.5247724
1.5236938
1.5256472
1.5239963
1.5213601
1.5251109
1.52448
1.5240225
1.5298835
1.5298744
1.527398
1.5240854
1.5219733
1.5253175
1.5225244
1.5224864
1.5203188
1.5257866
1.524771
1.5244667
1.5225993
1.522672
1.5216841
1.5167131
1.520484
1.5226121
1.5191746
1.5251772
1.5250514
1.5233745
1.5230594
1.52319
1.5210922
1.5170401
1.5193556
1.520755
1.5233872
1.5184479
1.5246288
1.5242575
1.5237852
1.5240848
1.5230875
1.522344
1.5210714
1.515914
1.518824
1.5194066
1.5211897
1.5239865
1.5182401
1.5290011
1.5288821
1.5259484
1.5221578
1.5224452
1.5239393
1.5250524
1.5227263
1.5203045
1.5191496
1.518421
1.5181554
1.5182171
1.527719
1.5268071
1.5233235
1.5205307
1.5234844
1.5239701
1.5264209
1.5231684
1.5236526
1.5203872
1.5190717
1.5185433
1.5184764
1.5185642
1.5179399
1.5132258
1.5146634
1.5123054
1.5149348
1.515609
1.5148054
1.5144228
1.5150012
1.5160821
1.5192836
1.5139009
1.5185687
1.5124037
1.510314
1.5137357
1.5080856
1.5080828
1.5119126
1.5089132
1.5071478
1.5084412
1.5096374
1.5131275
1.5101739
1.5117213
1.5092912
1.5126931
1.518229
1.5048742
1.5055345
1.5148741
1.5030865
1.5048162
1.5048697
1.5014879
1.5033625
1.5021383
1.5034313
1.5034968
1.5051623
1.5043821
1.506396
1.5043815
1.5064804
1.5176813
1.5170464
1.5024701
1.5050245
1.5112643
1.5254603
1.5209188
1.5165464
1.5164471
1.5227018
1.5206516
1.5163221
1.5247203
1.5248072
1.5251271
1.5238996
1.5238616
1.5226549
1.5207959
1.5166166
1.5164172
1.5152658
1.5170873
1.5178866
1.515293
1.5209447
1.521616
1.5242863
1.5245555
1.5249867
1.5275811
1.5263287
1.5258464
1.5267373
1.5287777
1.518006
1.5134284
1.5208278
1.523633
1.5248946
1.52248
1.5225446
1.5203618
1.5230269
1.5284206
1.5260159
1.5220816
1.5230018
1.5248072
1.5236651
1.5212691
1.5196298
1.525035
1.52531
1.5226849
1.5207154
1.5167138
1.5197627
1.5214213
1.5232017
1.5186459
1.5247941
1.524007
1.5240659
1.5238925
1.522921
1.5221471
1.520505
1.5149302
1.5189027
1.5197187
1.5216879
1.5241549
1.5181624
1.5216586
1.5217869
1.5215449
1.5209945
1.5178614
1.5187762
1.5189793
1.5198586
1.5181604
1.5274732
1.526973
1.5237224
1.5192202
1.5228134
1.5234345
1.526206
1.5231827
1.5242
1.5210399
1.5195294
1.5186405
1.5181294
1.5180964
1.5180225
1.5220553
1.5229068
1.5225788
1.5223741
1.5209349
1.519284
1.5186823
1.518395
1.5186093
1.5184346
1.5156562
1.5128421
1.512222
1.5121277
1.5117318
1.5130886
1.5144991
1.5151157
1.517407
1.5147087
1.5172129
1.5197342
1.510023
1.5123066
1.5172147
1.5067223
1.5094602
1.5085619
1.5044864
1.5073482
1.5052886
1.5073801
1.5067247
1.5082786
1.5079616
1.5104042
1.5078832
1.5112486
1.516552
1.5179509
1.5054682
1.5089244
1.5164112
1.502003
1.5023507
1.5028099
1.5033028
1.5046942
1.5082151
1.5061844
1.5070878
1.5112155
1.5142344
1.5201088
1.5036354
1.511418
1.5066863
1.5198662
1.5216442
1.5199055
1.5156051
1.5160027
1.5166096
1.5225556
1.5218708
1.5189556
1.5141007
1.5249027
1.5234866
1.5241745
1.5234693
1.5242681
1.5242068
1.5228478
1.5223474
1.5183879
1.51504
1.512817
1.5110499
1.5125011
1.5126147
1.5138874
1.5193756
1.5222984
1.520954
1.5221843
1.5239508
1.5249401
1.5236956
1.527588
1.5268495
1.526216
1.5250989
1.5245457
1.5172359
1.5200831
1.5236581
1.5212143
1.5212589
1.5195174
1.5194251
1.522067
1.5229933
1.5235637
1.5222091
1.5202558
1.5189589
1.5223798
1.5218369
1.5199987
1.5141523
1.5191239
1.5203296
1.5219196
1.5182228
1.5217792
1.5217299
1.5216216
1.5201837
1.5167228
1.5188098
1.5191587
1.5202279
1.5181128
1.5202271
1.5210034
1.5209123
1.5222789
1.5204551
1.5189876
1.5192309
1.5180235
1.5212941
1.5219883
1.5220765
1.5221646
1.5212518
1.5198041
1.5191016
1.5182445
1.5180843
1.5180013
1.5171216
1.5217394
1.5218227
1.5213593
1.5206143
1.5195857
1.5187434
1.5183864
1.5183695
1.5195877
1.5168998
1.5164812
1.5096249
1.5118981
1.5102511
1.510402
1.5121266
1.5145797
1.5132228
1.5166068
1.5189483
1.5198029
1.5121895
1.5156008
1.5207196
1.5060088
1.505726
1.5061227
1.5072203
1.5080822
1.5098779
1.5097126
1.5105927
1.5148217
1.5159202
1.5210651
1.5071576
1.5156697
1.5127333
1.5009183
1.5018165
1.5047545
1.5027174
1.5035089
1.5099189
1.5042048
1.5121259
1.5074294
1.5087811
1.5142129
1.5172153
1.5159252
1.5064942
1.5130012
1.519821
1.5187944
1.5207117
1.5214616
1.5210898
1.5194818
1.5148941
1.518336
1.5149527
1.5133249
1.5161176
1.5171104
1.5159525
1.5223158
1.5218876
1.5205513
1.5169236
1.5154474
1.5234017
1.5235953
1.5215948
1.5200145
1.5172743
1.5155772
1.5185275
1.520682
1.5230822
1.5204848
1.5208109
1.5223055
1.522849
1.5244998
1.5218396
1.5166138
1.518751
1.5174055
1.5187857
1.5195656
1.5219721
1.5208022
1.5208395
1.5191879
1.5191749
1.519858
1.519804
1.5199765
1.5211689
1.5215571
1.5222661
1.5220154
1.5207186
1.51974
1.5183774
1.521576
1.521486
1.5214003
1.5199334
1.515936
1.5190315
1.5196564
1.5207646
1.5181649
1.5205722
1.5209483
1.5212059
1.5217447
1.5196892
1.5189253
1.5194454
1.5180217
1.5195698
1.5202161
1.5204934
1.5219192
1.5219525
1.5246071
1.5188506
1.5189832
1.517817
1.5205764
1.5214885
1.5211382
1.520683
1.5198208
1.5191847
1.5187814
1.518324
1.5180276
1.5177433
1.5171469
1.5209209
1.5214746
1.5212471
1.5201693
1.5194422
1.5190127
1.5183591
1.5180187
1.5177765
1.5171081
1.5164931
1.5121651
1.5101512
1.5105671
1.5121817
1.5119438
1.51285
1.5132991
1.5148299
1.5178054
1.5191768
1.5208646
1.513917
1.5196139
1.5194134
1.5032886
1.5051348
1.5086988
1.5060683
1.5074323
1.5109787
1.5083688
1.5139558
1.5114228
1.5140679
1.5195459
1.5210136
1.5173217
1.5123998
1.5151513
1.5028651
1.5018645
1.5031469
1.5071226
1.505806
1.5061914
1.5068089
1.5191458
1.5111607
1.5144287
1.5257607
1.5062362
1.5115158
1.5112164
1.5209512
1.5211286
1.5209161
1.5196683
1.5158001
1.5200678
1.5176746
1.5211817
1.5209462
1.5209554
1.5187186
1.5133738
1.5164248
1.5148804
1.5143229
1.5147232
1.5162561
1.5218725
1.521443
1.5209156
1.5190984
1.5178654
1.5168346
1.5212538
1.5235376
1.5210581
1.5192993
1.5163273
1.5187894
1.5196202
1.5194279
1.52028
1.5215176
1.5229936
1.519883
1.5208056
1.5215414
1.5211383
1.5208478
1.5163294
1.5193421
1.5176507
1.51764
1.5203969
1.5197066
1.5205208
1.5191524
1.5194006
1.5192238
1.5186628
1.5191015
1.5208968
1.5209495
1.5210786
1.5204513
1.5198623
1.5186656
1.5207246
1.5208554
1.5211062
1.5214126
1.519965
1.5180103
1.5198154
1.5202708
1.5207123
1.5215292
1.5217584
1.5217808
1.5187421
1.5190438
1.5178807
1.519263
1.5195747
1.5202398
1.5212267
1.521613
1.5220909
1.5212847
1.5184049
1.5190532
1.5174456
1.5201994
1.5209284
1.5207488
1.5200966
1.5196384
1.5191714
1.5188235
1.5185411
1.5178325
1.5175768
1.5170601
1.5210044
1.5206189
1.5207278
1.5202456
1.5195997
1.518913
1.5186696
1.5181084
1.5185786
1.517565
1.5171194
1.5167362
1.5099463
1.5105896
1.5106193
1.5124303
1.5141326
1.5127904
1.5165439
1.5186878
1.5203532
1.5215446
1.5191762
1.5191587
1.5184898
1.5072734
1.5054978
1.506475
1.511707
1.5087536
1.5099185
1.5115268
1.521234
1.5172216
1.5196223
1.5219205
1.513221
1.5147413
1.5141822
1.5018772
1.5016512
1.5061538
1.5094141
1.503102
1.5025373
1.5131197
1.5273155
1.5187823
1.5129414
1.5235031
1.5404515
1.5108546
1.5075409
1.508509
1.5179084
1.5212859
1.5221905
1.5218026
1.5214125
1.5214978
1.521191
1.5203856
1.5208669
1.5203411
1.5208255
1.5208153
1.5209358
1.5205852
1.5196432
1.519369
1.5154422
1.5162211
1.5163974
1.5178402
1.5191935
1.5123096
1.5205178
1.5163862
1.5214413
1.5199527
1.5204364
1.5193529
1.5167552
1.520523
1.5215939
1.5192494
1.5158439
1.5143905
1.519649
1.5196362
1.519685
1.5198625
1.5200881
1.5196967
1.5193803
1.5206566
1.5214549
1.5202319
1.519612
1.5199783
1.5204294
1.5203354
1.520104
1.5195244
1.5195434
1.5196329
1.5203001
1.5187841
1.5187228
1.5190263
1.5188505
1.5196798
1.5203859
1.5200457
1.519954
1.5195727
1.5200402
1.5203322
1.5206649
1.5213607
1.5178958
1.5194794
1.5198256
1.5203766
1.5210829
1.52197
1.5213406
1.5224884
1.5185332
1.519315
1.5177216
1.5193204
1.5201664
1.5205735
1.5209217
1.5210868
1.5231639
1.5189433
1.5191811
1.5185418
1.5200241
1.5173523
1.5206232
1.5200707
1.5204467
1.5199561
1.5194773
1.5191137
1.5187703
1.5182122
1.5186184
1.5177293
1.5174942
1.5171625
1.521758
1.5206611
1.5178595
1.5197838
1.5195343
1.5191746
1.5186764
1.5185648
1.518043
1.5183776
1.5174425
1.5172166
1.517043
1.5130711
1.5104291
1.5125025
1.5139149
1.5197933
1.5210979
1.522139
1.5192146
1.5182326
1.5169124
1.5065266
1.5043507
1.5088162
1.5157773
1.5078997
1.5060161
1.5140576
1.520755
1.5170449
1.5178156
1.5207607
1.5256513
1.5139463
1.5118435
1.5119797
1.5042096
1.5080219
1.5028435
1.5094479
1.519344
1.5122587
1.5071624
1.5161431
1.526898
1.5364909
1.5171318
1.5239987
1.5487079
1.5060292
1.5054892
1.5041133
1.5202506
1.5168891
1.5217049
1.522436
1.5225414
1.5223967
1.5225001
1.5205005
1.5220076
1.5211525
1.5220829
1.5199742
1.5197626
1.5203317
1.520657
1.5205031
1.5202808
1.521868
1.5210181
1.5203109
1.5170387
1.5152937
1.5199951
1.5173112
1.5171633
1.5141985
1.5094963
1.5139915
1.5195336
1.5158958
1.5102763
1.5133047
1.51879
1.5199135
1.5200986
1.5194397
1.5203719
1.5198694
1.5199981
1.5209468
1.5199444
1.5194967
1.5190943
1.5193618
1.5192186
1.519284
1.5195259
1.5202321
1.5197603
1.519676
1.5189897
1.5193888
1.5192959
1.5191512
1.5199819
1.5195183
1.5184918
1.5182571
1.5186517
1.5188792
1.5186783
1.5193488
1.5188352
1.5194702
1.5203744
1.5178115
1.5195192
1.5202391
1.5207939
1.5216328
1.5207578
1.5227933
1.5224355
1.5191711
1.5184464
1.520384
1.5176468
1.5199688
1.5201852
1.5201943
1.5225579
1.5201724
1.5228761
1.5200704
1.5231068
1.5191743
1.5202584
1.5184422
1.5200059
1.517365
1.5214315
1.5206102
1.5196441
1.5198032
1.519467
1.519145
1.5187312
1.5185464
1.5181361
1.5189165
1.5176535
1.5175128
1.5173107
1.522518
1.5221165
1.5203807
1.5192333
1.519955
1.5189881
1.5191079
1.5188107
1.5186253
1.5189912
1.5179541
1.5187962
1.5174002
1.5173095
1.51742
1.5126515
1.5203558
1.5219001
1.5238884
1.5183782
1.5162529
1.5154196
1.5087183
1.5097386
1.5070927
1.514061
1.5187156
1.5139649
1.5098203
1.5207963
1.5176544
1.5229398
1.5188251
1.5249556
1.5261926
1.5104125
1.509261
1.5089486
1.5113109
1.5023298
1.5063105
1.5118953
1.5207437
1.5105455
1.5078496
1.5389594
1.5170753
1.5110899
1.5272373
1.505985
1.5162627
1.5379552
1.5224701
1.502527
1.5031426
1.5048043
1.5188299
1.5211412
1.5184061
1.5206696
1.5226697
1.5228491
1.5227318
1.5228574
1.5211479
1.5220909
1.5210465
1.5216302
1.5231703
1.5197285
1.5182672
1.521169
1.521232
1.5204132
1.5196343
1.5220119
1.5208326
1.5213756
1.5203883
1.5205436
1.5202707
1.5202548
1.513089
1.5145886
1.5102951
1.5153096
1.5144269
1.520194
1.520501
1.5149308
1.5133467
1.5196323
1.5197246
1.520768
1.5198298
1.5208084
1.5212055
1.5203768
1.5196643
1.520973
1.5206275
1.5214571
1.5194162
1.5189045
1.519021
1.5194136
1.5193914
1.5191625
1.5189826
1.5191404
1.5191659
1.5189053
1.5191547
1.5191353
1.519006
1.5183948
1.5185313
1.5181684
1.5188702
1.5186272
1.5177557
1.5202245
1.5204722
1.5216614
1.5218353
1.5198757
1.523377
1.5210737
1.5229195
1.5191522
1.5202964
1.5183696
1.5203519
1.5176329
1.5209141
1.522198
1.5204275
1.5195529
1.5237165
1.5227666
1.5207353
1.5191583
1.5183138
1.5174066
1.5222994
1.5216021
1.5206023
1.5194876
1.5197044
1.5191686
1.5191875
1.5189322
1.5185562
1.5189439
1.5180805
1.5190205
1.5176332
1.5175343
1.5175972
1.5239843
1.5232586
1.5227098
1.5205741
1.5197252
1.5197318
1.5187386
1.5179533
1.517376
1.5174996
1.5172224
1.5214218
1.5237432
1.5251302
1.5152823
1.513456
1.5134123
1.5181485
1.5124392
1.5060226
1.5096168
1.5142529
1.5202696
1.5172653
1.5108286
1.5201912
1.5206997
1.5157048
1.5212201
1.5103984
1.521338
1.5258352
1.5232428
1.5066026
1.5071356
1.5094193
1.5023752
1.5084689
1.5039111
1.512025
1.5215219
1.5198422
1.5066318
1.5216831
1.5137648
1.537778
1.5145829
1.5180674
1.5021477
1.503494
1.5063854
1.5161134
1.5208731
1.5208994
1.5205895
1.5214808
1.5193035
1.5232413
1.5229021
1.5227973
1.523133
1.5216013
1.5195328
1.521601
1.52168
1.5211221
1.5190619
1.518987
1.5193935
1.519166
1.5205362
1.5227398
1.5212511
1.5202617
1.5218541
1.5213496
1.5214508
1.5217448
1.5234678
1.5235066
1.5167644
1.5202519
1.5195197
1.5207308
1.5208732
1.5199996
1.5207523
1.5196861
1.5197833
1.5197626
1.5194344
1.5229924
1.5204725
1.5211528
1.5211463
1.5211327
1.5211333
1.5204691
1.5220272
1.5212739
1.519603
1.5216632
1.5228566
1.5189001
1.5190107
1.5190603
1.5194778
1.518967
1.5188232
1.5189301
1.5191089
1.5183441
1.5185463
1.5181267
1.5186434
1.5177264
1.5208002
1.5220478
1.5200867
1.5189622
1.5238613
1.5228868
1.5203598
1.5191381
1.5183257
1.5176353
1.520905
1.5204455
1.5199028
1.5222282
1.5198788
1.5194316
1.5243611
1.5233658
1.5204335
1.5191902
1.5182316
1.5177744
1.5238379
1.5229358
1.5218867
1.5208033
1.5198361
1.5190296
1.5185731
1.5180983
1.5176285
1.5175982
1.5174186
1.525117
1.5250657
1.5240739
1.523007
1.5212717
1.5206315
1.5191437
1.5188724
1.5179414
1.517523
1.5173831
1.51736
1.523371
1.5248523
1.5246243
1.51147
1.5114212
1.5166999
1.5139226
1.5168363
1.505602
1.5151521
1.5079104
1.5175559
1.5200969
1.5211141
1.5148501
1.5263287
1.5159587
1.5274768
1.5206986
1.523012
1.5052074
1.5075847
1.5116408
1.503391
1.5172364
1.5085304
1.5075288
1.5042898
1.5231055
1.5355214
1.5223646
1.5124549
1.5145487
1.5254643
1.5114307
1.5172366
1.5159738
1.5023806
1.5028046
1.5045714
1.50347
1.5105796
1.5195301
1.5130014
1.5215149
1.5211183
1.5215063
1.5204323
1.5218867
1.5194445
1.5177995
1.5236971
1.5228449
1.5229822
1.5216279
1.5181202
1.522567
1.5207727
1.5194283
1.5219873
1.5186586
1.5185868
1.518756
1.5187206
1.5199742
1.5188204
1.5186922
1.5186215
1.5243202
1.523649
1.5222909
1.5229257
1.5213593
1.5207223
1.5205618
1.5216791
1.5206535
1.5234748
1.5219865
1.5221089
1.5218975
1.5217965
1.5216637
1.5209877
1.5212642
1.5236522
1.5236213
1.52371
1.5232817
1.5241007
1.5184872
1.5175782
1.5176371
1.5183834
1.5183739
1.5190413
1.5185186
1.5175562
1.5151141
1.5149505
1.514629
1.5132974
1.5202876
1.5201557
1.5207276
1.5232387
1.5208098
1.5211713
1.5211057
1.5204369
1.5204623
1.5197822
1.5197115
1.5194992
1.5194699
1.5197712
1.5208941
1.520613
1.5197444
1.5242224
1.5234478
1.5228294
1.5227104
1.5231409
1.5227867
1.523765
1.5235012
1.5225856
1.5215061
1.5229802
1.5224033
1.5206425
1.5235752
1.5240942
1.5234047
1.5189388
1.5189841
1.5188112
1.518929
1.5193179
1.5188604
1.5189064
1.5193707
1.5189637
1.518848
1.5203437
1.5189897
1.5185688
1.5190977
1.518325
1.5181375
1.518639
1.517704
1.5208121
1.5204094
1.5201876
1.5220399
1.5196479
1.5187975
1.5242881
1.5229594
1.5203803
1.5191305
1.5183124
1.5176703
1.5201548
1.5205305
1.5197941
1.5199119
1.5192443
1.5220613
1.5195474
1.5175694
1.5192636
1.5245958
1.5230916
1.5204702
1.5192164
1.5182636
1.5174817
1.5247757
1.5248649
1.5235369
1.5222267
1.5210751
1.520011
1.5190345
1.5186236
1.5181039
1.5176176
1.5175331
1.5175309
1.5264225
1.5254674
1.5258009
1.5244342
1.522783
1.5216105
1.5202242
1.519175
1.5189479
1.5180285
1.5174601
1.5174432
1.5170572
1.5247113
1.5240682
1.524828
1.5093559
1.5147602
1.5119902
1.5145822
1.5151753
1.5068598
1.5180797
1.5137255
1.5116906
1.5080713
1.520398
1.5199042
1.5209304
1.517145
1.5169288
1.5226197
1.5181569
1.5230067
1.5208444
1.5051228
1.5064868
1.508855
1.5086063
1.5034499
1.5185224
1.5057713
1.5102989
1.5031605
1.5058337
1.5031465
1.5432353
1.5350513
1.5181567
1.5120249
1.5199541
1.5270969
1.5191412
1.5121382
1.5227073
1.5016752
1.5025503
1.5024445
1.5018837
1.5105317
1.5165394
1.5164585
1.5115908
1.5221998
1.5214815
1.5202235
1.5201938
1.521902
1.5193158
1.5181691
1.5229262
1.5187852
1.518819
1.5188483
1.5187959
1.5191098
1.5192203
1.5192319
1.5192884
1.5220006
1.5167811
1.5177203
1.5172654
1.51819
1.5201012
1.5167054
1.5181446
1.5178487
1.5187069
1.518607
1.5183843
1.5197535
1.5183414
1.5184701
1.5184384
1.5183129
1.5185961
1.5185017
1.5187869
1.5188535
1.5191515
1.5193247
1.5192311
1.5191223
1.5185568
1.5221271
1.5199208
1.520178
1.5192863
1.5191193
1.5196309
1.5205904
1.5207948
1.5184975
1.5187895
1.5186732
1.5185746
1.518358
1.5184416
1.5180261
1.5184218
1.5185533
1.5177764
1.5187303
1.5179751
1.5178551
1.516177
1.5167322
1.5171483
1.5162627
1.52575
1.524018
1.5239896
1.5237054
1.5250643
1.5238664
1.5243105
1.5230698
1.5239656
1.5214188
1.5210208
1.5208767
1.5216196
1.5215806
1.5203879
1.5204473
1.5219441
1.5201647
1.519819
1.5249513
1.5235785
1.5238889
1.5238823
1.5233825
1.5234308
1.5222021
1.5221775
1.5218588
1.5216545
1.5206415
1.5237393
1.5237274
1.5237826
1.5235385
1.5236994
1.5243706
1.5245355
1.523132
1.5182286
1.516725
1.5154241
1.5169267
1.5154333
1.5181734
1.5180975
1.5189047
1.5179315
1.5156072
1.5191118
1.5161707
1.5118727
1.511232
1.5144583
1.5217021
1.5233954
1.5242409
1.5240715
1.5238563
1.522903
1.5229533
1.5208285
1.5211278
1.5211202
1.5205395
1.5205505
1.5241292
1.523542
1.5219306
1.5223444
1.52137
1.51976
1.51973
1.5197744
1.5195796
1.5195558
1.520059
1.5198918
1.521151
1.5249711
1.5247713
1.5244191
1.524082
1.524406
1.5248904
1.5250921
1.5245837
1.5243533
1.5237178
1.5221488
1.5226973
1.5252211
1.526237
1.5253777
1.5245136
1.5245909
1.5234424
1.5241573
1.5189294
1.5191832
1.51892
1.5188896
1.5187728
1.5188188
1.5192091
1.5188505
1.518802
1.5186045
1.5190541
1.5203218
1.5190997
1.5190998
1.5203529
1.5190294
1.5186007
1.518313
1.5181389
1.5186415
1.5176739
1.5201899
1.5205083
1.5198327
1.5198138
1.5196551
1.5220415
1.5194152
1.5161616
1.5185579
1.5245091
1.5231012
1.5203968
1.5191208
1.518291
1.5176106
1.5195292
1.5193242
1.5203697
1.5193126
1.5194197
1.5194573
1.5193366
1.5220736
1.519648
1.5177657
1.5193953
1.5246988
1.5232082
1.5204564
1.5191336
1.518262
1.5176735
1.5259401
1.5250431
1.5255968
1.5239447
1.5225485
1.5213437
1.5201339
1.5190731
1.518624
1.5181051
1.5175714
1.5175212
1.517309
1.5262092
1.5273098
1.5260623
1.5261978
1.5248766
1.523103
1.5217569
1.5203754
1.5191992
1.5188691
1.5179909
1.51747
1.5172711
1.5169715
1.5237246
1.5248451
1.5238932
1.5089251
1.5108326
1.5131002
1.515557
1.5126291
1.5137881
1.507321
1.5211217
1.5117183
1.514296
1.5069413
1.5091831
1.5063307
1.5308851
1.5213761
1.5216473
1.5170625
1.5191206
1.5223391
1.5237554
1.5179189
1.5237231
1.504619
1.5059188
1.5063597
1.5054032
1.502144
1.5024079
1.5106115
1.5455706
1.5048037
1.5118154
1.5052558
1.5066893
1.5055996