/*--------------------------------*- C++ -*----------------------------------*\
  =========                 |
  \\      /  F ield         | OpenFOAM: The Open Source CFD Toolbox
   \\    /   O peration     | Website:  https://openfoam.org
    \\  /    A nd           | Version:  7
     \\/     M anipulation  |
\*---------------------------------------------------------------------------*/
FoamFile
{
    version     2.0;
    format      ascii;
    class       volScalarField;
    location    "2000";
    object      omega;
}
// * * * * * * * * * * * * * * * * * * * * * * * * * * * * * * * * * * * * * //

dimensions      [0 0 -1 0 0 0 0];

internalField   nonuniform List<scalar> 
34124
(
225.69953
266.16712
228.2163
178.44441
294.37726
273.40424
248.01443
229.8273
208.90848
154.5249
325.29773
296.00659
286.91967
287.85398
260.92558
237.45986
253.90772
218.89324
167.0116
156.78951
320.43689
321.29724
333.58036
304.20062
289.27415
285.40326
308.91732
273.35099
237.99373
226.47103
218.01879
248.71375
182.88941
146.12757
163.22623
321.84267
316.95689
331.50906
322.94086
330.90572
326.67816
321.37649
294.86837
279.45028
282.7447
282.7078
314.53905
246.79947
217.78523
231.7216
171.49363
245.31191
197.30736
166.15417
169.33214
188.33837
314.18879
323.78735
331.93325
317.33637
330.34189
326.85144
330.40393
330.16319
322.32499
306.42495
309.69859
332.51108
282.76936
271.52278
299.22815
250.6584
309.38273
257.45402
228.46396
230.75227
250.45086
176.3257
207.53017
179.23537
174.08325
137.68603
164.94132
170.12834
312.07659
314.03382
329.79619
333.50082
330.87178
325.31979
326.70305
329.36456
324.21733
308.87719
335.48037
329.31801
320.22047
305.59824
290.87616
299.66589
323.90925
299.99278
270.25136
289.52866
294.67464
242.84995
268.99539
246.57749
233.91821
188.98648
245.774
243.55175
163.01701
219.12752
199.5275
165.94902
221.93549
167.02197
136.95193
193.91864
323.43651
307.7993
328.30702
329.04614
330.1525
323.36122
331.26396
330.57206
317.99735
310.66966
333.68781
330.88492
323.63971
309.54894
293.52097
330.99811
331.42085
318.67553
306.38251
294.42657
280.96365
289.80403
306.99119
306.93432
279.33526
245.1122
305.33911
298.02838
223.00577
251.38933
249.46718
225.2857
275.48873
226.54683
207.69008
272.22913
178.66125
158.06999
288.8544
179.80006
196.19075
209.85672
117.57155
158.78408
184.47202
318.50663
328.96125
331.21002
306.31472
327.66382
325.57129
333.60441
329.65365
321.92756
310.40765
339.91619
320.08481
340.75468
306.50403
295.87539
339.20688
334.60128
323.93784
312.17757
298.20385
283.71584
323.98399
336.72312
322.33115
309.10864
298.82533
285.38952
271.03038
275.52529
293.37181
291.21166
273.84238
327.06097
277.64911
279.33245
318.77255
237.42993
221.66757
272.77221
226.02705
263.60525
249.26141
167.73569
227.97486
250.98397
171.12567
191.62103
135.34676
225.53554
165.62542
191.03754
186.2818
142.96885
155.10128
161.55427
318.06357
330.35843
320.50466
329.93527
335.57603
327.52365
331.1145
320.73363
326.81111
317.36066
339.87305
325.92384
329.38069
312.61555
302.99823
331.92271
349.05392
312.19585
353.41232
298.61885
287.96624
320.90816
342.52778
329.47033
315.99237
305.02345
289.78537
272.99666
345.00532
353.42544
328.71366
315.29429
302.93076
290.85333
274.10286
266.29199
287.13664
274.30556
296.8119
269.25318
314.8413
302.99717
237.03253
278.33062
312.11751
224.82756
245.10786
179.48281
245.21865
232.03296
237.32068
224.30413
204.24201
221.56079
233.84686
208.99154
184.52306
191.57995
142.27602
164.20188
197.01458
165.04579
193.3041
148.10309
142.09387
161.27722
315.90577
334.23754
323.1954
331.96483
330.76238
323.74735
314.88933
339.97062
332.95541
322.23531
337.12292
329.22491
312.96347
318.94996
310.74739
335.77372
346.77206
318.78869
325.0985
307.84919
295.77651
347.33979
327.0526
359.98141
305.0208
359.25471
294.29008
276.64228
344.83184
346.23026
334.39676
323.60938
310.82452
297.16122
277.29046
268.09062
357.41235
342.46204
344.28795
321.45412
310.25948
296.52379
278.5912
267.26325
265.40023
274.86766
287.15106
232.52592
277.78007
284.94064
302.80061
282.31675
259.38866
275.32898
300.11607
250.73661
236.92629
235.47379
196.71723
210.57782
227.37473
216.2559
237.98752
214.57852
206.31286
225.9158
192.33249
177.60538
156.8786
184.23181
143.3952
165.06957
160.18133
170.34492
185.05572
146.5819
157.45696
185.2307
337.25763
297.75884
316.28394
335.88513
333.39194
321.19457
336.87404
333.3401
327.20801
317.03284
339.58946
329.64654
338.04562
329.46101
318.07045
337.88982
342.81086
324.37564
316.45202
315.52873
304.47165
349.31478
332.03648
348.32104
313.50839
324.6564
303.5433
282.38753
341.02566
359.67348
319.71902
370.08092
300.63746
338.42531
285.28801
270.33555
357.85837
344.79766
342.95452
328.63645
319.02128
304.69064
283.05692
269.91291
267.04748
353.91506
362.94921
336.76204
324.34986
316.10764
304.25476
285.2239
268.87899
265.54181
265.68534
290.11355
279.1239
267.40653
243.09168
250.65554
288.02528
280.49044
294.1018
273.90893
264.50904
292.94111
243.30636
222.69773
204.59528
224.87086
202.77157
205.03995
203.38409
216.62621
245.94984
206.42413
224.21987
246.12414
175.02499
157.73813
190.36263
157.68406
171.89455
143.20208
172.26077
170.32113
154.7323
216.27757
161.59057
180.38883
169.80889
341.64355
336.30682
338.19651
304.66233
313.54446
322.6986
337.84824
338.33326
330.65895
305.93691
339.97775
339.31808
332.65239
323.21376
300.4541
350.78054
345.28954
330.803
333.43175
325.98285
313.18744
351.09314
335.99989
344.98597
320.66344
326.51831
312.18425
289.52324
348.43787
359.49387
327.00959
352.61043
309.63573
314.69887
291.69264
274.16347
353.79584
337.03149
370.62558
312.57393
363.1053
294.66675
344.08411
287.32891
271.95458
355.15209
362.67433
341.4232
328.44767
323.20283
313.45139
290.54324
272.33542
268.6142
266.50671
369.11497
350.08693
365.77767
331.70783
346.01148
308.39385
295.4317
275.2351
267.09244
264.29828
268.42494
282.21729
263.22545
252.80049
259.67007
258.53789
240.62468
271.04702
280.09996
314.86834
262.70376
290.06134
303.01158
218.34344
212.8665
234.98807
209.32035
203.74121
191.19539
211.28377
211.63034
223.94327
280.08094
225.25043
242.27388
228.7652
149.90593
181.14313
176.36838
172.24506
145.31856
162.14959
151.04958
155.55238
166.99707
165.65352
219.43577
157.29604
182.00614
157.55634
351.04542
345.00914
341.1693
340.58084
338.73263
339.83673
316.50945
301.91517
315.348
308.1963
336.14807
344.3371
339.38665
327.33968
300.9793
333.85206
346.49803
337.85435
330.70845
320.27081
289.57917
354.68865
355.32488
343.18767
318.60668
328.30147
319.39517
297.82355
352.53675
358.7571
333.15727
356.25263
316.59447
309.70822
299.32185
278.73172
359.66425
344.85349
367.45997
321.86717
361.61834
303.79693
338.80066
294.64222
276.75449
350.36415
365.3889
332.00112
369.16841
304.9735
345.22117
291.10836
272.01416
367.64446
352.80754
368.40737
337.43347
349.17749
315.20116
303.41748
277.87192
272.26904
267.20043
266.29581
370.38463
380.78571
344.42838
366.67335
325.10183
299.27969
287.65357
276.29638
267.75649
262.84842
277.19539
263.85958
262.37279
271.76731
256.45947
235.27766
241.09594
253.28184
270.76904
306.70455
338.0825
282.50569
303.90297
283.25382
191.41906
229.7059
229.63445
217.92963
197.53987
204.77265
205.59151
201.1785
237.78025
256.69427
289.39719
250.09145
243.30931
205.41974
145.60892
152.69041
183.14009
193.61369
178.33984
156.57148
180.82253
146.73461
171.50998
163.05364
179.88249
348.50748
211.28547
148.93902
183.13313
356.82584
354.85692
351.96091
348.11259
347.67229
338.96955
336.07964
338.2436
346.48349
335.67015
303.35673
327.04697
305.76887
304.97843
309.02282
348.22467
333.66395
343.54386
335.61096
321.96788
282.01237
351.01164
330.77231
346.07878
333.09269
326.75495
319.07389
300.21918
361.48176
353.49579
361.64547
339.03667
336.50861
304.78336
320.20642
310.83445
281.68257
306.11475
362.77948
350.08891
367.00685
329.4168
359.05052
311.30613
319.37597
321.54072
301.65166
308.57477
284.16431
357.01985
369.40248
340.26357
369.8207
314.09166
344.38129
299.19597
276.65522
363.05721
346.40844
369.46381
322.35236
357.01248
297.66738
334.29161
295.00179
268.24008
369.64072
378.90378
348.45519
367.42271
331.70354
306.05884
293.87381
279.77983
273.93203
262.57825
270.71605
382.42327
366.76846
377.82655
335.26812
374.34653
314.65412
289.84343
284.53149
263.3385
264.80957
294.76101
235.2749
267.38677
272.33137
254.32535
245.22048
238.09202
258.64117
280.86991
252.11557
282.14402
310.21938
330.52786
349.83072
310.67728
294.16254
268.08134
190.7757
201.68531
232.7172
235.85555
219.92038
226.39136
225.16515
220.41921
221.50093
252.34346
268.5324
324.71059
246.76187
195.74704
231.02429
129.60975
178.98078
172.81457
168.85303
204.95321
180.51794
176.00919
242.96994
173.39214
302.39793
296.46032
140.15887
175.47157
162.10961
362.2936
361.44796
350.97953
352.50356
356.54412
350.47853
348.36652
352.05485
343.7664
332.97147
340.47199
335.20387
327.21033
360.37825
333.20853
310.12436
294.13116
315.90132
332.49757
282.65671
300.95128
294.66863
350.96812
349.47286
329.21739
338.37314
337.5504
320.74054
284.40855
354.5402
351.88889
346.61641
340.80323
326.83732
322.02123
317.94568
315.87553
292.28519
314.41704
365.03551
368.42093
349.61382
362.32348
333.7295
321.66837
312.74972
304.02794
285.55785
290.21283
360.27066
370.15954
345.97775
366.37734
320.86196
350.3242
308.04924
319.1162
309.22926
288.73209
368.62475
353.1777
371.22627
331.09292
354.74124
305.83018
338.10971
302.09205
268.27504
361.97974
367.77381
335.60843
367.2085
313.62298
364.64067
331.29748
276.05453
316.41174
267.94562
380.96366
367.42174
375.14789
340.62986
371.3237
321.87162
295.78919
290.93219
266.28495
259.30474
283.88441
379.4112
380.97855
358.65418
322.20085
382.15816
378.52382
302.16834
298.4976
270.2963
260.08581
272.97445
318.74986
234.64149
243.05649
259.78993
268.25744
250.68748
282.29447
281.17671
275.75528
278.44532
284.45853
269.91102
333.93116
345.89422
368.57258
298.99851
265.90121
282.28703
191.92082
206.92326
224.52123
218.61994
254.84351
235.75221
240.98121
281.65936
249.37307
304.70219
296.14697
194.26261
226.77958
209.96287
155.44456
174.27032
149.34206
150.63524
181.74482
163.06792
167.94708
182.59508
186.4731
271.3748
243.93237
298.06622
166.78973
131.40807
157.19914
361.53871
367.81216
360.1647
364.22875
347.25202
348.16965
352.98355
358.11816
342.86571
354.17757
347.57291
346.82291
328.64997
356.77776
361.53715
335.74193
306.26585
316.57893
321.15698
287.17124
290.72237
278.63537
289.62607
292.39772
355.80021
345.63517
348.77307
324.69818
348.37434
355.41358
355.5267
324.83908
347.931
322.50543
359.84023
351.08251
337.33851
300.67106
284.99921
372.6849
363.90842
367.8014
342.54208
369.37016
327.31932
305.33243
305.86969
369.66854
356.89312
370.33714
337.11697
352.09672
314.7998
346.26473
311.72714
276.59622
369.07901
370.83317
343.33037
366.70336
321.49474
363.14563
331.3238
281.55564
324.00385
261.19252
368.30688
354.00912
366.88482
325.6796
366.6894
362.53949
332.2753
266.89774
291.62157
344.41433
276.74611
378.76751
378.86385
361.23364
328.70989
378.12008
375.56214
309.51865
306.4961
276.50763
258.66082
259.84211
301.10823
379.52133
371.1212
345.36462
307.10779
384.4142
376.69987
364.47065
320.53692
279.09273
262.18798
260.91024
288.14318
350.16918
240.99247
243.68814
275.40333
251.96097
301.72021
274.48392
313.98018
323.01638
330.18322
353.17827
348.60972
265.36963
286.15831
271.99965
202.08428
228.07333
200.35369
221.04964
239.41592
237.21532
242.70547
241.61354
262.10403
306.80204
271.67759
329.12044
227.87371
188.82515
219.3377
174.9649
165.37087
205.93094
163.16585
151.13553
196.93206
202.65456
293.22768
190.32559
212.96801
189.68524
256.46307
448.85368
143.80919
141.17606
187.23967
359.17414
368.53183
357.89999
369.79612
360.12801
335.40475
344.00709
355.2212
353.09489
338.23105
356.02247
351.64285
352.62226
366.95701
347.24222
366.43193
369.66121
355.4069
358.76504
337.5765
290.00362
310.1606
309.52586
331.77052
310.39024
285.98157
289.66014
352.15238
362.41474
356.25099
354.0355
347.85993
363.01544
364.48083
359.38121
331.02969
292.75077
363.15665
355.90961
348.87212
360.5819
340.85293
308.97449
344.13023
338.59773
334.11484
372.86124
372.44467
359.79437
333.89497
370.74485
372.06489
320.60865
322.66324
290.83831
370.61972
370.6241
349.43522
365.26205
329.78865
363.50277
328.06795
294.22238
334.7802
265.55981
373.54381
362.23801
366.92118
334.41382
366.24361
360.29172
334.7046
267.90766
298.84981
348.86892
256.46682
361.90305
368.84107
345.21188
367.88509
352.6519
357.89008
360.91426
319.4165
265.07293
271.97726
312.72116
354.0491
288.24007
378.68766
372.71024
350.28721
314.43532
375.52423
374.01208
364.57882
326.8246
287.53475
265.40992
251.23326
265.36119
325.32272
371.53662
356.49346
327.82246
383.39169
371.57075
360.79041
361.55101
337.31917
332.25401
292.1046
265.60952
258.03327
269.85868
306.56966
383.16279
248.69139
274.40887
245.45132
300.05941
279.43836
317.53757
307.46601
295.70605
323.6112
356.21469
327.29516
379.15042
293.77773
265.02147
293.9555
211.5829
209.83253
265.74486
220.40993
219.69453
247.70938
253.30421
311.95126
270.243
297.117
274.20578
308.30191
379.22683
197.00787
189.55011
299.53465
148.92221
186.81813
176.56226
142.05376
168.23233
152.51428
161.226
174.0605
184.69053
187.9556
236.58241
212.48604
220.86521
403.91475
375.25901
156.0451
166.78124
263.38297
370.31895
361.48464
338.00853
336.55239
364.68822
363.03691
339.24617
373.10688
372.95151
368.57696
361.58882
366.19221
365.60137
355.69956
340.34907
294.33284
295.66525
304.60254
294.29023
304.8143
353.98192
371.05556
368.50776
361.01862
355.10085
364.65114
359.73662
352.91839
357.10173
374.10665
353.85258
263.95633
373.69134
345.39054
358.7906
332.25782
325.20126
291.33935
325.7424
369.68251
352.60429
372.26053
373.65467
367.86842
339.95847
304.98803
276.35824
374.03795
367.38708
362.40503
358.89625
336.28777
277.75695
314.36824
351.55187
253.65617
369.05259
370.3036
353.40098
369.48965
352.65303
357.04424
358.94684
314.20407
257.28352
275.05634
319.94324
361.50361
255.72282
325.97062
335.48641
347.6275
361.4562
336.16264
265.81538
265.95944
281.72762
301.43094
371.92692
361.43148
333.59277
372.98294
365.01644
359.94472
363.27565
341.05468
340.30464
302.09932
271.54866
255.35909
248.78284
276.20467
362.67758
395.74925
393.26062
350.95614
333.59382
305.89526
270.91398
258.61449
261.72517
279.43173
327.03845
404.94317
259.56779
249.41085
292.55361
291.73423
302.57664
316.02184
324.31231
352.84547
335.34453
362.96571
388.94972
266.40074
280.36391
328.00479
197.29408
236.72609
224.3853
191.70023
237.68661
209.64018
213.48633
235.01535
227.74827
247.54208
289.40474
262.91695
289.47626
357.99477
376.68489
196.78251
228.4807
320.55296
157.36475
155.44244
158.95479
180.17577
215.78177
285.02315
239.24462
260.97156
298.82342
335.00936
412.96902
151.42506
265.08454
192.34336
353.02081
351.75797
352.72571
322.71105
338.19267
346.5276
354.5226
368.03278
358.36461
331.63307
373.47063
368.64664
368.37836
368.62757
360.43335
367.54094
345.7872
365.83516
357.95933
344.24063
269.84475
248.41841
279.42438
275.3995
295.58912
365.57089
367.78646
369.15676
371.01262
364.3309
366.39084
343.88571
370.79766
362.32511
363.41197
351.21304
342.40034
358.55167
382.80492
345.89687
309.89731
307.95219
278.38632
371.7246
361.45831
364.93787
352.08417
321.31075
287.05526
263.26713
345.68113
350.9941
356.25341
311.75696
261.32894
290.26565
328.11921
246.19185
328.52437
334.59979
347.01486
357.68417
328.13863
255.40431
261.56967
288.3352
259.07597
294.5144
309.63725
321.29128
345.665
347.90233
270.42159
269.65928
338.94634
385.92754
380.2852
344.84315
335.01951
312.07267
278.09655
262.12376
248.3907
252.14679
294.27672
393.57478
388.41046
353.64769
322.50796
304.07456
279.51751
261.49545
254.41741
261.2227
304.03429
338.43868
395.84129
268.32874
299.27547
275.45665
287.88982
309.44934
334.78938
330.43651
358.52021
381.64405
397.79322
283.49474
313.03542
363.87207
226.64346
213.6911
229.58263
227.04646
269.59639
291.94961
299.61418
292.29881
342.31137
348.52793
423.80207
207.80843
311.06444
270.64024
124.474
146.68306
192.89023
160.01647
165.75101
346.33503
199.519
338.07491
244.26986
256.54717
326.66152
365.90123
342.13678
187.22962
288.92866
331.98503
351.19041
352.95126
334.76154
337.13381
353.41285
321.18994
342.33776
334.12441
311.98608
337.4231
349.00424
338.05533
360.72963
338.88585
366.45455
354.16643
352.87876
369.4852
358.30236
320.53881
367.63052
359.26629
353.53478
367.15233
371.44592
370.61813
375.83979
354.36974
359.33529
349.22674
362.21253
317.73989
368.44651
381.59295
372.48298
391.35027
395.90449
330.56098
302.85529
303.21709
267.32072
269.94189
286.58968
284.72236
377.02017
372.27054
343.19953
345.59868
329.05001
296.01867
277.12062
249.6035
326.91069
329.00421
340.91106
356.21245
326.67846
259.04828
273.82641
303.20615
247.07114
301.42175
309.91326
317.80374
340.19588
339.44995
257.02243
268.43616
271.76776
276.75443
287.92718
299.6076
321.92212
347.16167
372.78894
285.66572
271.56892
371.91839
378.1767
347.65017
319.27031
306.48951
283.11095
264.96341
254.06675
249.73162
258.38396
313.53726
392.5773
391.22339
357.35396
322.12511
297.56709
280.98396
267.51785
257.21629
263.89968
301.99952
337.35761
368.28171
305.01757
271.80728
292.33805
291.62296
319.5669
327.62539
340.99515
348.48488
373.03811
386.63382
414.46438
295.60668
350.30078
341.06014
178.73832
214.17856
244.12972
232.70526
221.55738
316.50392
275.15933
355.13148
301.22242
335.61338
407.02926
427.75483
340.95043
265.34109
301.49847
177.79274
150.20757
171.65828
251.38141
247.57271
240.86679
228.59032
426.36433
314.19155
327.91874
535.4914
189.7844
268.93112
280.39103
327.05579
331.23653
289.5377
335.75777
329.49185
355.6696
347.99611
331.18094
317.43477
313.01052
332.27687
306.54374
336.55968
344.04084
317.28787
320.28387
338.42706
346.3123
361.06021
316.68894
359.37402
359.98208
357.46039
367.03064
366.82491
310.64655
368.07615
369.04384
349.71651
368.22749
342.1038
350.18344
364.59917
364.59656
373.02605
331.13528
338.70352
315.91507
304.23144
377.56405
386.30752
377.79874
380.22701
302.75701
272.41011
312.83855
261.47879
269.72165
267.70885
256.62686
268.80516
341.27377
320.63461
320.94933
298.51132
280.4701
256.47803
309.07765
308.66796
312.85095
332.02823
282.2489
238.89525
279.70889
289.38888
295.37659
311.12605
332.44353
343.88721
256.59959
259.07319
288.8811
273.35992
277.34998
284.68477
302.20373
336.26812
348.35359
356.87462
330.21624
282.28784
390.94986
369.02184
351.09216
316.40674
295.00772
281.60552
267.18301
255.83415
252.6289
253.87827
320.82483
369.28222
384.24138
340.86785
327.16077
297.36961
279.54994
271.14266
263.75248
298.44729
274.30672
313.30813
325.30928
340.07012
272.48611
290.67272
301.51458
289.22875
345.37291
337.12435
364.72266
390.57793
405.82481
436.83937
344.62289
337.24923
336.75472
250.291
205.98921
240.80669
282.32238
289.71436
306.98552
314.49249
453.37125
392.64383
409.93173
445.40442
279.5325
294.5271
312.36081
142.38595
141.205
263.6735
248.89633
182.51323
159.66702
379.65493
614.2343
458.46112
333.32126
515.18233
798.50085
283.42159
220.93815
254.08488
339.3836
326.4656
278.41413
317.38602
312.79016
319.58719
304.61779
261.02636
285.74183
301.51708
329.61633
338.82914
323.34175
293.30082
336.86418
352.27675
332.946
340.5205
341.49205
353.27323
353.85068
300.73067
304.75428
354.98956
347.88327
317.87061
304.81331
351.93149
361.66629
354.8305
362.56631
263.56684
375.59916
352.5718
338.45028
311.90402
368.71475
418.08262
354.88485
320.91325
282.22085
336.46076
348.47813
323.98806
295.60668
304.03735
350.40639
306.41091
298.56452
273.65843
265.27446
270.63114
300.15557
248.39147
255.55949
248.83787
233.20763
288.7503
312.16223
297.44073
292.36706
279.73039
289.03256
293.4863
291.63226
303.43704
227.39071
266.74758
277.23738
277.23213
291.66342
307.34925
333.85066
313.35889
265.00316
262.92933
303.84914
275.53774
278.99069
293.15491
325.39523
334.78961
374.40153
366.11283
319.39339
380.01213
294.5523
396.66144
357.86477
319.0623
318.30604
292.3584
276.08984
268.58614
256.58868
251.91737
251.71414
258.81273
305.88337
345.76743
385.99152
351.86504
297.26735
297.95964
282.06797
272.74212
268.8455
303.70499
328.74108
282.53864
333.64562
320.78886
307.1696
319.83734
296.87383
333.47837
352.18404
397.63019
414.86586
430.29271
338.67013
329.48913
334.31993
228.73573
198.3013
289.21952
311.34328
253.69829
241.52486
363.47101
451.07462
383.6622
394.88692
430.35607
515.17338
289.65188
274.56954
290.29587
199.87488
315.66492
175.58136
253.40374
433.87478
338.86696
270.74293
389.02956
647.19544
795.00887
441.30925
521.55004
937.61519
207.57713
203.99875
180.68147
345.24909
332.87647
318.33501
284.8145
250.7844
276.79714
261.19339
322.95376
299.52829
319.17528
289.82833
245.64247
261.18557
274.4089
270.27074
260.47669
265.2157
275.72699
285.02312
297.90494
352.71385
348.80167
326.92979
349.662
349.53322
322.49417
274.14126
320.66877
268.08712
374.36954
314.32688
352.6179
380.97784
284.57738
350.32843
263.39657
353.26046
311.73505
413.42377
396.72814
302.40005
274.5262
244.25425
270.66536
265.71225
270.45813
277.87035
318.40215
288.99841
287.51161
264.89838
240.62127
255.76379
245.36234
284.36137
265.05487
228.18495
225.06999
245.7692
229.27343
214.57269
277.32138
256.57542
276.48339
273.54336
221.18319
266.46605
266.5591
277.87385
291.7438
322.02505
325.45215
301.10498
265.76063
299.11379
262.06548
293.55478
282.22111
287.08529
325.84315
340.31044
330.94076
427.24372
303.94461
365.36528
357.50366
321.0995
379.45573
289.93593
368.19899
360.25068
316.0388
278.88238
290.19604
276.25194
265.7837
256.16187
257.26035
262.99103
258.08107
274.78726
297.49139
304.76807
390.43629
367.40058
336.14945
286.01469
295.02921
276.7248
275.32568
273.17704
331.15487
310.82583
361.4346
277.3212
311.22037
302.72317
292.47214
327.81311
409.21921
423.10271
463.89202
328.47769
318.58715
334.88217
259.53038
300.22851
268.32675
301.70494
360.03787
319.94092
309.04944
466.96596
398.72286
495.91251
417.27914
521.17608
519.43147
262.75779
254.08534
261.23023
342.94061
156.545
237.83467
311.49702
418.53265
261.47733
278.89135
832.11406
422.45846
332.87286
628.33487
228.10914
397.64154
761.33435
501.99387
156.19056
161.83691
189.86296
342.93154
352.03345
351.11258
316.87931
283.75602
255.30969
238.97836
248.8184
291.94243
316.59296
266.49643
264.79522
237.49871
261.40088
329.07484
307.27925
318.71251
245.98196
233.03365
260.32122
269.64267
257.73181
250.27108
259.68033
250.95031
261.93245
340.17014
358.9435
307.32089
367.68056
349.19748
393.51233
349.79446
343.90684
332.44583
404.12885
251.44557
315.75958
274.7965
377.96967
370.21532
305.81962
270.25966
450.42365
332.12191
400.90688
253.33936
247.22143
231.71358
272.04884
272.63544
261.78636
251.64443
260.19045
265.29761
251.85212
223.86715
238.12353
230.50442
218.60109
230.91221
214.49436
220.96458
203.69159
216.06716
261.14711
268.48761
284.46136
303.9311
318.34496
325.83129
275.61258
299.20134
283.73268
267.2578
308.52552
263.17064
278.74125
331.46697
378.75471
329.80899
336.54947
491.81021
357.60062
348.65405
356.22352
340.50457
348.80649
373.39491
326.06701
292.74446
275.99386
267.972
264.82233
266.10459
258.83475
273.14583
269.42644
273.27767
260.1697
275.40039
282.78449
294.42497
413.77803
391.31996
356.73673
315.94005
317.17565
327.43898
366.03749
338.32884
285.5636
288.67095
282.16393
431.68099
459.90013
489.60786
316.0191
310.03736
318.85833
340.54317
319.71041
238.18992
297.58864
327.31628
377.95663
358.25906
307.71396
406.27338
473.53347
390.72774
470.04599
304.99893
468.97125
522.54918
508.01054
223.97391
233.76525
266.99972
145.44784
239.97622
174.55914
318.88598
505.65905
463.62783
257.36125
506.38827
443.16233
811.84119
365.21458
442.25608
151.12049
167.2728
204.00796
333.46212
355.19524
372.14828
379.73255
290.89155
317.98419
257.99149
243.9648
230.62394
238.6185
259.78984
307.22558
306.99843
305.97813
331.94016
274.50529
266.23118
297.7393
305.84978
319.71883
265.61515
239.30673
275.3174
327.08725
234.12216
350.10312
319.1739
221.34449
230.69979
329.80059
237.32663
225.00541
420.26548
362.89645
431.11258
291.76137
237.24169
249.96406
260.22173
241.89516
385.65971
295.27617
307.80459
339.92879
375.51048
373.0498
274.02551
368.2305
323.11147
253.89967
466.30056
422.77807
238.57478
225.21435
213.87014
218.07823
219.99778
214.7943
219.06648
225.56093
207.79068
230.29716
207.23366
200.38986
211.80383
299.4996
301.92432
317.21946
328.32365
360.08765
290.62529
280.10822
286.16316
274.52171
268.71165
334.60272
317.85475
320.65743
394.54997
335.69413
349.0192
488.54671
349.31815
364.27721
348.04195
311.44557
326.23878
393.0674
345.65707
310.66299
279.67563
278.00568
278.80136
305.21604
258.96149
252.8144
270.4656
295.84555
434.77351
443.64523
403.15051
336.93516
324.06138
334.18869
321.40586
341.3096
322.73459
268.95524
269.21647
259.74989
469.21352
489.07152
524.87681
289.03141
290.27454
327.09441
325.11269
344.83269
210.92316
329.77713
251.90917
355.20783
405.95864
454.52177
401.63342
585.74187
406.32926
582.63444
478.88645
517.78047
211.52983
239.17888
285.28406
175.45255
445.45684
251.02172
246.41684
194.60383
513.14998
765.88462
593.8906
414.69178
453.62732
653.92647
342.05763
438.96364
414.44818
155.30491
159.63625
173.96313
156.8724
286.9373
354.6789
321.44018
371.21835
365.9627
427.44601
292.39961
262.683
322.74987
327.64002
248.59023
236.59632
224.25728
244.10029
318.15485
316.38596
378.96023
344.66413
352.4035
268.83397
246.42229
290.56722
271.69803
290.22524
315.33368
317.92331
333.29066
334.55958
238.52526
356.30192
332.69192
221.70194
237.56472
255.44916
230.91087
269.20675
624.97983
409.85607
400.51726
370.81168
304.78373
362.66728
210.6911
383.6601
211.47993
224.68582
217.75426
219.09547
244.3036
341.35516
348.09151
345.73617
340.09884
333.14775
320.87461
333.35549
340.75161
329.85864
331.56826
331.23314
314.89297
233.82454
421.19168
450.03639
353.67523
278.46698
286.71648
294.542
281.74847
271.65578
237.1548
227.09968
231.47851
236.56602
242.94621
254.9628
263.09487
245.32229
531.11822
539.04193
465.42857
426.93731
457.03562
329.15173
353.61355
377.20278
352.98973
298.57511
307.82412
327.70995
448.25763
395.73972
510.16946
435.25786
234.73553
204.91658
205.91075
209.57511
206.53672
205.10466
212.9444
212.82936
215.37886
211.87536
232.39737
230.30889
228.42328
216.34215
199.45232
199.38187
195.32559
205.19068
288.99076
298.4291
291.51162
310.26513
327.85197
340.18211
370.12228
282.70304
293.75778
273.36021
250.80952
277.90465
316.92994
320.97901
306.07785
319.26857
318.26698
377.9272
329.54606
345.13871
342.95968
460.38774
335.61814
359.483
341.56849
297.81232
328.68929
423.41273
376.47003
338.69902
300.33602
287.50136
288.04034
279.35519
288.62651
243.75287
235.33493
281.66868
265.053
464.98924
472.84768
465.44121
384.7877
353.904
346.1007
334.37081
307.48379
313.31496
326.04732
261.17238
246.06148
249.14155
502.03375
531.79856
538.74167
267.70339
313.39636
296.77818
318.29383
328.46617
246.99996
371.16061
331.49624
306.34562
270.37125
408.05199
393.64883
494.51847
467.83153
432.52813
548.01394
456.20368
537.90841
503.98259
215.82443
228.80134
246.52764
243.3001
169.92765
425.2816
216.38386
301.16551
171.37082
234.75212
167.3865
860.83959
879.31346
528.28337
450.58235
611.28364
718.87776
509.35499
350.8171
571.079
138.03088
141.59923
138.241
126.40013
293.69745
355.19301
356.98027
311.59869
386.98618
449.26212
300.19002
282.36052
246.9766
329.55695
339.73728
228.11393
306.66357
304.83296
322.2765
322.66172
295.80161
306.85849
315.36301
296.47478
417.99843
367.74367
389.89575
369.13009
344.38585
351.11741
358.08651
356.61532
378.53573
277.82135
291.36102
228.14633
259.36879
237.53189
250.40491
256.7093
235.63299
252.35226
239.19119
242.09781
264.8268
279.86394
279.58664
275.5497
275.4103
272.67542
341.30896
292.74627
317.7859
303.45946
273.63419
332.82049
354.34887
357.6323
318.66808
312.08585
321.33551
328.18188
341.21735
339.90125
349.46632
344.64396
341.84234
351.57815
327.99885
349.09149
348.89481
339.96287
349.08053
348.96352
340.44734
837.40559
381.12276
394.82693
383.01338
326.96639
370.3775
218.35942
435.35742
430.62636
211.55122
216.47466
225.6857
223.366
216.44725
240.27401
251.96312
236.19921
270.65493
267.54249
1501.3907
634.66918
799.85674
770.97676
633.36206
643.86241
525.43933
481.46791
437.96219
291.54443
196.64401
202.26397
213.11181
208.0564
214.20306
208.52818
233.55239
221.54201
221.44191
348.12603
354.12097
345.46183
350.43279
339.37023
344.64631
349.60583
332.58185
336.06375
330.94595
327.53929
337.21604
308.14877
305.31522
325.56875
510.04183
321.61483
475.60648
329.06447
341.82416
322.91891
312.30754
267.55809
274.33374
281.05685
268.30751
262.23436
284.17672
294.97781
280.96709
270.04136
238.43009
232.02382
216.21178
227.21843
219.58427
226.88147
233.19757
239.81308
248.13728
642.10579
725.66426
665.66846
570.85245
606.41559
444.69147
392.92552
384.68978
436.93095
689.12029
545.61273
562.29226
323.08285
357.78418
374.85873
340.98673
422.68545
517.40735
506.71906
196.41041
196.71463
205.50874
200.08027
196.53342
202.34474
202.30368
201.00133
195.6117
209.94977
215.4936
212.56207
204.90028
209.32348
224.94638
223.56475
217.81817
192.00336
194.31943
192.26641
203.57731
283.86941
276.5161
278.31186
306.86084
298.4687
305.54914
325.9842
333.10412
338.91982
342.77853
269.59732
306.64261
259.05363
241.33696
332.63642
313.9242
304.59894
324.34315
306.33446
304.14384
315.8673
305.99732
342.97925
337.08654
351.73242
354.94685
364.1633
314.05771
326.60228
351.49579
294.62227
283.65336
401.48226
480.11922
381.87425
325.78366
311.96905
300.63523
287.60463
267.1603
262.53615
247.37333
230.46775
243.89449
247.42332
432.54522
494.52042
480.46924
432.46491
381.16674
381.62966
345.81417
318.74922
288.20067
302.89526
323.62922
245.92392
235.63665
233.65149
535.026
555.64861
547.50764
271.7096
288.67342
303.93412
331.19638
298.91687
313.44987
247.39509
431.50497
307.49987
349.82544
248.45992
279.77426
231.90122
596.05024
482.61873
570.06624
481.4745
514.48798
574.43846
580.70781
463.23332
578.83152
200.4766
205.6229
206.74412
193.33004
150.08093
151.95807
306.54302
890.0946
228.89791
325.15978