/*--------------------------------*- C++ -*----------------------------------*\
  =========                 |
  \\      /  F ield         | OpenFOAM: The Open Source CFD Toolbox
   \\    /   O peration     | Website:  https://openfoam.org
    \\  /    A nd           | Version:  7
     \\/     M anipulation  |
\*---------------------------------------------------------------------------*/
FoamFile
{
    version     2.0;
    format      ascii;
    class       surfaceScalarField;
    location    "2000";
    object      phi;
}
// * * * * * * * * * * * * * * * * * * * * * * * * * * * * * * * * * * * * * //

dimensions      [0 3 -1 0 0 0 0];

internalField   nonuniform List<scalar> 
100795
(
89800411
56913585
-3.7964498e+08
2.7350575e+08
1.3787259e+08
-5.1018907e+08
83075747
1.1679493e+08
-2.3751481e+08
84637295
1.1045905e+08
-7.2595432e+08
4.4233388e+08
1.9431984e+08
-7.163604e+08
2.6335901e+08
1.4424695e+08
-3.9936499e+08
3.0579737e+08
2.6308009e+08
-8.9348653e+08
4.5487485e+08
47175211
-1.3192681e+08
75557851
2.4513584e+08
-3.9492208e+08
1.6423872e+08
1.245702e+08
-9.6290107e+08
-1.7978682e+09
5.3434489e+08
4.4878206e+08
4.159207e+08
2.409992e+08
-6.539789e+08
4.1283496e+08
3.1385465e+08
-9.4906931e+08
7.9944883e+08
74462957
-1.5152885e+08
2.5930053e+08
3.3084938e+08
-6.5089923e+08
3.2592099e+08
3.346429e+08
-1.2348622e+09
3.7297564e+09
1.2035753e+09
2.6387199e+08
1.3964487e+08
2.2594137e+08
-2.9237919e+08
2501845.1
3.7267472e+08
-6.0531262e+08
1.845711e+09
-12351742
-2.5004605e+09
-1.904441e+09
7.5837515e+08
2.7639932e+08
-1.8382314e+09
8.9701113e+08
1.8959429e+08
-8.756619e+08
71479942
3.1806766e+08
8.3136199e+08
3.9009215e+08
-5.0198635e+08
3.5110047e+08
3.6096381e+08
-7.928951e+08
2.6953126e+08
4.5648464e+08
-1.1045804e+09
3.3026309e+09
1.1807058e+09
2.5542098e+08
9.0319449e+08
54773812
-6.3901387e+08
32938676
5.6602207e+08
-9.12723e+08
2.7332359e+09
4.6468755e+08
-2.1404544e+09
2.8430774e+09
1.1310763e+09
5.032787e+08
3.0571896e+09
4.8996774e+08
4.4684288e+08
-1.7880609e+08
4.5053071e+08
-3.6524049e+08
-3.0336905e+08
1.8783402e+09
-2.4905699e+09
7.7922664e+09
-1.229208e+10
2.2478602e+09
1.0800598e+09
-1.9526474e+09
-1.5350506e+08
-1.8707675e+09
1.1646949e+09
-22691837
-8.1956003e+08
1.5448359e+08
-36416182
-1.7559601e+09
1.4145471e+09
3.8268343e+08
-8.9335987e+08
5.119255e+08
-1.6802627e+08
-3.8130662e+08
1.7424733e+08
19402624
3.4955089e+09
-1959624.2
5.0151014e+08
8.2928929e+08
5.0898907e+08
-5.7611096e+08
37498186
6.084764e+08
-9.4944748e+08
1.8481131e+09
1.6001235e+09
-1.1874775e+09
2.7135298e+09
7.3278486e+08
6.3223627e+08
2.5253588e+09
1.4563458e+09
6.6346444e+08
-42447714
3.8822216e+08
-5.9757242e+08
-1.2806619e+09
1.9027783e+09
-1.3735111e+09
4.7679938e+09
1.1887449e+08
1.2829143e+09
1.4416809e+09
8.006711e+08
7.0408451e+08
1.2601882e+09
1.0322576e+09
4.163377e+08
5.7021453e+09
-2.4942843e+09
5.4674057e+08
-1.2784362e+09
2.7322802e+09
-1.0119359e+09
1.2150397e+10
1.3416644e+10
2.6192404e+09
2.3925171e+09
50879968
4.1670964e+08
1.431394e+09
-1.959552e+09
-2.2505963e+08
4.660092e+09
-1.5379116e+09
-1.7523096e+09
3.5788966e+08
-8.5398971e+08
-5.1873631e+08
-1.6640138e+09
1.7042758e+09
1.9774619e+08
-8.8699074e+08
6.5771209e+08
-5.3230329e+08
-3.7548148e+08
2.0650751e+08
-3.7947694e+08
-2.9869631e+09
3.1605612e+09
1.2061126e+09
-1.0676713e+09
9.810309e+08
-54383087
-4.2386027e+08
4.4888048e+08
-3.3996831e+08
-4.0587964e+08
2.1194433e+08
-3.1966534e+08
3.8528505e+09
-1.3775802e+09
7.4526594e+08
1.5498063e+09
1.5420213e+09
6.1353176e+08
2.5731213e+08
6.4929368e+08
-9.1669125e+08
-1.712304e+09
2.0811859e+09
-9.9886894e+08
1.3842939e+09
1.8845696e+09
9.9225498e+08
1.433329e+09
3.4213343e+08
7.8722231e+08
-8.1211599e+08
3.4603464e+09
7.0053693e+08
6.6534955e+09
-3.3291171e+09
8.2808736e+08
-1.2945935e+09
2.3130099e+09
-9.9164542e+08
3.6415432e+09
5.9092353e+09
1.3450105e+09
3.3782325e+09
-6.1877019e+08
5.6825e+08
-3.3342866e+09
-82581259
3.7409275e+09
-7.8684336e+08
3.6809101e+09
5.4133338e+08
4.5254854e+09
-3.1989201e+09
6.6712408e+08
2.9227937e+09
-3.8299293e+08
-7.3419053e+08
6.5112465e+09
4.9140383e+09
9.8566943e+08
1.3898295e+09
1.0296432e+09
7.4350631e+08
1.5112205e+09
-4.026873e+08
21448959
2.2406829e+09
-2.1242448e+09
-91769475
5.0544008e+09
-1.9285452e+09
-2.1376613e+09
8.3263581e+08
-1.0217005e+09
-5.6515372e+08
2.1370508e+09
-1.1324738e+09
-1.4670591e+08
1.9531325e+09
-1.676772e+09
-2.5795375e+09
2.3964938e+08
-4.6627094e+08
-7.3636525e+08
-2.7697586e+09
3.8140301e+09
1.5257608e+09
-1.0562083e+09
1.1788273e+09
-3.3486622e+08
-5.9247478e+08
4.8033803e+08
-6.3758399e+08
-5.5835728e+08
2.0446311e+08
-5.4796994e+08
9.6276725e+08
1.6317087e+09
3.4855124e+08
-2.4106889e+09
2.1987872e+09
-70831046
-5.5772192e+08
7.47749e+08
-2.5911898e+08
-5.297982e+08
3.6496219e+08
-4.2037764e+08
-6.3003982e+08
-1.6352954e+08
-3.5198822e+08
1.4166709e+09
-1.6781824e+09
9.6652963e+08
-1.0317245e+09
2.2729946e+09
2.3387517e+08
7.4174362e+09
-3.216944e+09
9.0414043e+08
-1.3982299e+09
2.527975e+09
-1.2598486e+09
7.1702888e+08
3.2461358e+09
5.6410178e+08
3.2656289e+09
-3.1214582e+08
8.2088588e+08
-4.490896e+09
-1.113791e+09
4.9255365e+09
-4.9488106e+09
7.6944756e+09
7.1505341e+08
2.1243383e+09
-1.2338008e+09
1.0063443e+09
4.0328678e+09
-7.2326895e+08
-1.4105131e+08
6.5780951e+09
4.2226231e+09
6.2814149e+08
5.0100919e+08
1.0822282e+09
5.3278369e+08
2.8379202e+09
-6.3666189e+08
3.279717e+08
5.0973552e+09
-5.8968751e+08
1.6465448e+09
-8.9485651e+10
-2.5474659e+09
1.5706514e+09
5.4535562e+09
-7.2001482e+09
1.0089574e+09
3.7955562e+09
-6.4609395e+08
-3.1935598e+08
6.0323744e+09
1.2174259e+10
2.8885973e+08
2.002746e+09
6.8371369e+08
3.8967793e+08
1.6798264e+09
-1.1139255e+09
2.4983242e+08
1.6312055e+09
1.3183809e+08
55677344
-4.6528482e+09
4.5127072e+09
1.0277155e+09
6.7459522e+09
-3.3569193e+09
-1.8571201e+09
1.6568004e+09
-1.4515547e+09
-5.2062268e+08
1.9735808e+09
-7.7753694e+08
-2.7046524e+08
3.0841654e+09
-2.0169839e+09
-2.2735069e+09
5.3232425e+08
-7.7273044e+08
-6.7769903e+08
1.970264e+09
-2.3701297e+09
-1.6343565e+09
3.4517233e+09
7.0510947e+08
-1.1879884e+08
7.7882797e+08
-1.703817e+09
-2.1187856e+09
2.0630459e+08
-8.2114322e+08
-7.3983691e+08
1.6071586e+09
1.272729e+09
8.6514822e+08
-2.4097007e+09
2.6394829e+09
64028479
-7.7509068e+08
8.1477745e+08
-4.5204275e+08
-7.9541769e+08
3.6845148e+08
-5.3593079e+08
-8.3138103e+08
-1.8712067e+08
-4.4661658e+08
-2.8220691e+09
2.3378439e+09
6.3502745e+09
-8.3972027e+08
1.7179991e+09
1.5590867e+08
-2.8591028e+09
1.6801875e+09
-6.2214994e+08
-8.1100432e+08
5.7883609e+08
-3.4800094e+08
-9.0778514e+08
-17011490
-3.7385013e+08
-8.6528625e+08
-3.6685366e+08
-2.7571857e+08
-6.6694299e+09
-3.4853987e+09
6.5137239e+09
-6.2797937e+09
4.6006748e+09
-30166602
-7.5689787e+08
-1.1557409e+09
1.0539196e+09
4.9137189e+09
-7.6075042e+08
2.9503226e+08
4.8472609e+09
3.1092788e+09
6.0784878e+08
-3.4446449e+08
8.9123447e+08
2.0616615e+08
3.8314103e+09
-4.3186227e+08
5.6819458e+08
6.9007385e+09
1.7992909e+08
1.1255272e+09
-7.0569832e+10
-4.8088585e+09
-1.4869424e+09
6.0178866e+09
-2.1307558e+09
1.0476893e+09
5.2367124e+09
-1.029151e+09
-1.2895677e+08
3.7339273e+08
5.0643954e+09
3.0232506e+08
2.5212428e+09
1.1686373e+09
23199389
2.5279214e+09
-1.1640813e+09
2.120633e+08
2.5768991e+09
3.2375246e+08
97272595
-3.3011198e+09
-1.6813136e+09
-5.5069897e+08
5.8992767e+09
-1.6660578e+09
2.6790148e+08
1.3373098e+10
-1.2691441e+09
3.8389302e+09
5.3841234e+09
-1.2561828e+09
80403639
7.7350091e+09
4.6693856e+09
-2.4373893e+08
5.0162495e+09
-2.703873e+09
-20712403
1.8206656e+09
-2.2946207e+09
3.4247133e+08
2.239978e+09
-1.0333766e+09
2.2178605e+08
2.3672446e+09
1.31442e+09
-10402065
-1.0337333e+10
-6.4711029e+09
1.2232084e+10
1.3153442e+09
7.6174842e+08
-2.2370778e+09
-3.4587699e+09
3.6649703e+09
68551461
5.4711322e+09
-58627950
-1.9485548e+09
5.0157879e+09
-3.1268985e+09
-2.113432e+09
1.0827228e+09
-1.2512864e+09
-5.9488208e+08
3.0266341e+09
-2.6391297e+09
-1.2116525e+09
2.0404344e+09
7.9844297e+08
-2074059.7
1.5886853e+09
-2.1837534e+09
-1.6725013e+09
4.1501404e+08
-1.0570539e+09
-6.2483905e+08
2.3819029e+09
-7.1919899e+08
-2.5686342e+09
1.5975342e+09
-2.6361553e+09
-1.6146051e+09
1.6711041e+09
2.1613005e+09
-9465964.9
8.4360094e+08
-1.7713862e+09
-1.9182177e+09
-1.3369626e+08
-1.1336413e+09
-5.3979065e+08
-7.8846059e+09
2.325676e+09
3.252593e+09
-65578508
2.1633439e+09
5.6703298e+08
-3.2543865e+09
1.8722989e+09
-5.9833344e+08
-1.1414767e+09
6.3417976e+08
-3.8733906e+08
-1.2113575e+09
-6304815.2
-4.1331358e+08
-1.0005063e+09
-3.9138482e+08
-3.0867733e+08
-8.471858e+08
5.383117e+09
2.046139e+09
7.0065852e+08
2.1062195e+09
4.1625699e+09
-2.6835956e+09
2.1327503e+09
29586434
-4.2400791e+09
1.4275785e+09
-8.3992787e+08
-1.371309e+09
2.4457035e+08
-3.3290062e+08
-1.1990711e+09
-2.5827947e+08
-2.556713e+08
-7.5667662e+08
-5.2088428e+08
-2.8468619e+08
3.6873803e+09
2.3628778e+09
4.7437029e+08
-5.0071594e+10
-7.950783e+09
-1.4330665e+09
4.887176e+09
-1.2577089e+09
1.2024891e+09
5.9064996e+09
-8.4290467e+08
4.6625919e+08
-3.5967675e+08
38635672
5.0009821e+08
2.5043168e+09
1.3822251e+09
1.3378264e+08
3.0369278e+09
-9.6003935e+08
2.2530459e+08
3.6791221e+09
3.6839063e+08
94107475
-5.8376257e+09
-2.2572061e+09
1.647836e+08
1.0273363e+10
-1.756216e+09
-3.2371652e+08
7.1620497e+09
-6.5659891e+08
3.249906e+09
6.8308694e+09
-1.8625223e+09
4.3429268e+08
6.8466211e+09
5.732989e+09
90814924
4.8635468e+09
5.557044e+08
3.7166857e+08
3.0039539e+09
-2.3319719e+09
7798656.1
3.4593643e+09
-7.2188384e+08
38324295
2.3891201e+09
2.2208758e+09
-2.1957615e+08
7.8774307e+09
-4.0107939e+09
-5.6886131e+09
-1.9181661e+09
-4.5418427e+09
2.6478288e+09
1.032714e+10
-1.1507566e+10
6.6830275e+08
1.1455613e+10
1.9296359e+08
6.9757824e+08
4.1323774e+09
2.0787582e+09
1.5826566e+08
3.2066572e+09
1.5008931e+09
1.908875e+08
-2.5765687e+09
-2.3791613e+09
6.4450125e+08
2.4819776e+09
-2.6286198e+09
4.2106326e+08
3.50102e+09
6.4754522e+08
-1.3271416e+08
5.2048192e+09
2.8715787e+09
79549418
-7.6014621e+09
-1.2121796e+09
7.6348468e+09
-8.4416334e+09
8.1253164e+09
-4.5977904e+09
-1.5205457e+10
-2.1913707e+10
5.9500622e+08
-4.2221842e+09
3.3091892e+09
-1.3226931e+09
-9.0117147e+08
2.1374212e+09
1.2602102e+08
-4.0142781e+09
2.6099039e+09
-6.9883083e+08
5.2268706e+09
-4.4254296e+09
-9.6029357e+08
2.1244171e+09
1.9763629e+09
-1.5046202e+09
3.4025344e+09
-3.383223e+09
-1.795396e+09
8.0583817e+08
-1.6024792e+09
-5.2474878e+08
2.8529941e+09
4.7545429e+08
-2.7872379e+09
2.4414068e+09
-3.1500477e+09
-1.0890984e+09
-1.1728391e+09
4.8395791e+09
1.0390261e+09
1.4880972e+09
-2.125918e+09
-1.248256e+09
66082354
-1.56944e+09
-4.6659951e+08
1.5518308e+09
-3.2504528e+09
-9.6156395e+08
4.7583578e+08
3.4902617e+08
-1.7582224e+09
1.2157998e+09
-2.5856373e+09
-1.5473555e+09
-7.8549664e+08
4.0916427e+09
-3.5633643e+08
-21275405
-1.9492137e+09
-1.5134388e+09
-3.7255207e+08
-1.1575827e+09
-3.3788416e+08
1.052796e+08
4.6548268e+09
2.6247982e+09
-1.8590977e+09
2.5565803e+09
5.4191428e+09
-2.8848581e+09
2.5277416e+09
1.1269424e+08
-4.9606147e+09
1.5643867e+09
-8.0812088e+08
-1.7655029e+09
3.1381089e+08
-3.1336754e+08
-1.4649294e+09
-2.8321412e+08
-2.5566023e+08
-7.0379297e+08
-5.5595235e+08
-3.0869896e+08
4.830428e+08
3.1156523e+09
3.3424249e+09
-3.4516279e+09
2.7174651e+08
2.2406474e+09
9.4555746e+08
2.9931199e+09
2.077188e+09
-4.2671906e+09
1.9821357e+09
-54985272
-5.7896121e+09
1.1789337e+09
-7.9138949e+08
-1.710958e+09
-23981655
-2.1053837e+08
-9.9857596e+08
-4.8382138e+08
-2.5276812e+08
-8.6996317e+08
-6.7084088e+08
-4.4710452e+08
-8.044165e+09
-4.9978189e+09
1.6164712e+09
1.4227004e+10
-1.9201152e+09
-1.7696361e+08
4.1300062e+09
-3.3506756e+09
3.6919308e+09
8.0220231e+09
-1.6700088e+09
8.3842415e+08
3.5375805e+09
3.1240957e+09
6.8985974e+08
3.0573295e+09
1.5903948e+09
4.7863049e+08
4.6679606e+09
-2.5502137e+09
59891014
4.8555212e+09
-6.5730623e+08
-1.45174e+08
2.5636834e+09
2.1386913e+09
-5.096355e+08
1.4856636e+10
-3.8638243e+09
-7.1287891e+09
-2.0713751e+09
-3.6550405e+09
3.3164139e+09
1.9683291e+10
-1.2372223e+10
3.6012018e+08
1.1835797e+10
-2.3087239e+08
1.2379943e+09
6.5205719e+09
3.1032991e+09
6.7579364e+08
8.1319775e+08
2.7189799e+09
3.2098622e+08
-3.0312945e+09
-1.1905285e+09
6.2814568e+08
4.1329589e+09
-2.4038055e+09
38688240
4.7967763e+09
1.4879448e+09
-5.2447282e+08
4.29723e+09
3.4667672e+09
52153223
9.6765561e+09
-2.5981564e+10
3.1563514e+09
3.2063647e+10
-4.6777113e+10
-1.5278961e+09
9.6994705e+09
-3.8039434e+08
9.859147e+08
8.5677009e+09
-1.0531563e+10
2.2189268e+09
8.7767963e+09
16695432
4.5098097e+08
-4.3958787e+09
2.9888924e+09
2.1969678e+08
-3.3254655e+09
-3.023214e+09
4.7917154e+08
2.1686205e+09
-3.9719917e+08
-7.2482952e+08
3.3327482e+09
3.1493786e+08
-3.0968754e+08
5.1699113e+09
3.3234685e+09
-2.3941293e+08
3.3260341e+09
-5.3064285e+08
3.4267862e+08
1.0436924e+10
-2.0723087e+09
3.8541254e+08
-1.169537e+10
7.3039556e+09
-35440297
-1.7435516e+10
-3.9608678e+09
5.7816561e+09
-9.8794694e+09
4.3417984e+09
-9.1518769e+09
-8.8366307e+09
5.7231544e+09
-2.0960468e+09
-1.0127599e+10
1.3459865e+09
9.2843883e+09
-5.1937293e+08
8.1745429e+09
3.7812548e+09
-3.0715973e+09
3.4381943e+09
-1.4109878e+09
-3.4558673e+09
3.2156988e+09
91205757
-5.80905e+09
2.0536359e+09
-1.0982791e+09
3.8734901e+09
1.652355e+09
-5.121877e+09
4.2205671e+09
-5.3049664e+09
-8.1763533e+08
-4.6844678e+09
7.3572481e+09
-6.8227373e+08
2.7363771e+09
-3.4009865e+09
-1.2451914e+09
3.5550201e+08
-2.1952304e+09
-3.8449671e+08
2.3120029e+09
-3.5788452e+09
1.4412044e+08
-88183658
3.8924647e+09
-1.2760806e+09
1.9879248e+09
-2.9746942e+09
-1.0123044e+09
-2.9461463e+09
8.4946268e+09
-4.3948175e+08
5.929517e+08
-2.4137488e+09
-1.0182648e+09
-3.0819859e+08
-1.7144609e+09
-2.8144014e+08
7.6754009e+08
-5.9720984e+08
-3.0198595e+09
1.1893175e+09
-3.3293521e+09
-1.0380245e+09
-1.8716427e+09
2.1766454e+09
-2.4396327e+08
2.2938156e+08
-2.5901622e+09
-1.321187e+09
1.824776e+09
3.874913e+09
-2.1677281e+09
-9.4173425e+08
-1.7566543e+09
-6.5827986e+08
-5.4316897e+08
-7.0944363e+08
-2.8561084e+08
1.8880731e+09
3.465684e+09
2.3405614e+09
27493194
-1.7118758e+08
2.8543758e+09
2.2066703e+09
3.5231045e+09
3.1628292e+09
-4.7170864e+09
2.1565709e+09
-29777728
-6.8454249e+09
1.2733737e+09
-7.1211564e+08
-2.1103821e+09
-21217124
-1.7600373e+08
-1.0267333e+09
-5.1104583e+08
-2.7244095e+08
-8.5762539e+08
-7.5350233e+08
-4.7143546e+08
-1.7591792e+09
3.9546822e+08
2.8634517e+09
3.4264204e+08
3.5352872e+09
1.8421122e+09
2.9855394e+09
-30690456
1.439624e+09
-3.6946218e+09
3.0168571e+09
9.0536805e+08
-6.2703322e+09
1.8709558e+09
67752640
-6.5475692e+09
6.236e+08
-2.6941272e+08
-1.2971769e+09
-3.7461852e+08
-2.0878983e+08
-1.106631e+09
-4.6774821e+08
-4.3106854e+08
-1.1081009e+09
-9.0783021e+08
-4.7296333e+08
1.7559384e+10
-2.0431288e+09
-7.5775042e+09
-1.4914232e+09
-6.9244971e+09
4.6103465e+09
3.0731427e+10
-1.3579435e+10
-1.9590969e+08
1.2191775e+10
-4.7767184e+08
2.1435588e+09
7.0807379e+09
2.3042697e+09
1.0980648e+09
-1.770243e+08
2.8927926e+09
3.776502e+08
-3.1341294e+09
-3.7048731e+08
2.751319e+08
5.9714844e+09
-2.1940174e+09
-2.419451e+08
6.0534629e+09
1.6458121e+09
-9.0897041e+08
3.238379e+09
3.0582479e+09
-54372490
1.5198955e+10
-1.6821473e+10
3.7803142e+09
4.212637e+10
-2.7296761e+10
-2.2670632e+09
1.3438624e+10
-1.7965579e+09
1.1428864e+09
1.5265506e+10
-1.0379607e+10
1.6379754e+09
1.2125755e+10
-4.3018784e+08
1.4224351e+09
-3.6359842e+09
2.3194325e+09
3.154247e+08
-3.5638016e+09
-1.0739655e+09
4.4275596e+08
2.7718003e+09
87027651
-1.1475703e+08
4.6882812e+09
9.6403478e+08
-7.9292085e+08
4.886022e+09
3.5212116e+09
-2.9503848e+08
3.8607566e+09
-7.9506744e+08
3.8778066e+08
1.2613851e+11
1.3273051e+10
-1.1546564e+10
9.6182985e+09
-3.6569887e+09
-3.6082743e+08
3.4813996e+10
-5.1529466e+10
6.6133343e+09
8.9943565e+09
-6.0762329e+09
7.5028493e+08
8.0998446e+09
-5.8224739e+08
-3.5543966e+08
7.1015986e+09
-8.8272203e+08
-1.3717713e+09
-5.1114056e+09
-3.6018599e+09
6.2956855e+08
2.4816947e+09
-1.7742153e+09
-1.9882531e+08
-1.3413341e+09
-6.8030475e+09
-2.116871e+09
4.4642403e+09
3.3054631e+09
-3.0286024e+08
1.5613947e+09
-8.9623591e+08
50352914
3.8537973e+09
-2.7332724e+09
4.344699e+08
6.9323374e+09
-1.0218418e+10
5.9011292e+09
4.0291883e+10
5.3762481e+08
-1.6854904e+10
1.3667851e+10
-1.7473579e+10
4.3150517e+09
-1.4007966e+10
7.1527809e+09
3.1884241e+08
-1.2372023e+10
6.4673888e+09
1.2531626e+09
-1.7671828e+10
2.0962746e+08
1.1624897e+10
-8.0236094e+09
1.0707707e+10
-67882142
-9.9664694e+09
6.6337855e+09
-3.5519005e+09
-9.5963934e+09
4.5827968e+09
-1.5513385e+08
-1.9587715e+09
1.3910158e+10
9.0054381e+09
1.8546869e+09
5.2181705e+09
6.4279641e+09
1.1089885e+09
6.0171267e+09
3.76339e+09
-2.1263488e+09
4.9072223e+09
1.2305461e+09
-5.7012952e+09
3.3002982e+09
-1.7125978e+08
-7.7388092e+09
1.2293284e+09
-1.0787644e+09
4.2026056e+09
-6.6161077e+09
1.0728932e+09
-6.0075276e+08
6.1861106e+09
-3.438205e+09
3.0433608e+09
-5.0050357e+09
-2.6899002e+08
-6.1627481e+09
9.9871363e+09
-1.481345e+09
1.3963463e+09
-3.2710287e+09
-9.7281819e+08
-1.1049002e+08
-2.490766e+09
-2.0183729e+08
1.9256331e+09
1.6108316e+09
-2.4554123e+09
2.2166245e+09
-3.7429189e+09
-1.1491681e+08
-1.6093088e+09
7.6613851e+09
-7.0524216e+08
7.3737265e+08
-2.9634198e+09
-9.7063782e+08
2.7247686e+09
8.6030102e+09
-3.889008e+09
-9.9450243e+08
-2.4299103e+09
-2.5001427e+08
-5.2751543e+08
-1.0651081e+09
-2.5872712e+08
-4.941486e+08
-3.3071639e+09
-8.6886059e+08
-8.1335324e+08
3.9502134e+08
-1.8685267e+09
-53938389
-3.1390659e+09
-9.141483e+08
-3.1524249e+09
2.974305e+09
-26465118
-1.773552e+09
-2.4345809e+09
-1.2458571e+08
2.0325983e+09
4.8780468e+08
-6.5338842e+08
-1.2045061e+09
-1.2481376e+09
-6.3804934e+08
-8.6140469e+08
-2.0293468e+09
82395830
3.4822684e+09
1.2523802e+09
3.7337278e+09
1.2202655e+09
4.3727397e+09
-2.1398021e+08
1.5040529e+09
-2.666811e+09
3.1631451e+09
1.1285664e+09
-7.0108721e+09
1.9595389e+09
24527864
-7.6478631e+09
5.3802059e+08
-1.712094e+08
-1.3797508e+09
-3.7336252e+08
-2.3112351e+08
-1.1382476e+09
-5.0767727e+08
-4.8664034e+08
-1.2310268e+09
-1.0088491e+09
-5.1796117e+08
-2.3685485e+09
3.2763994e+09
6.1700803e+08
-5.6534056e+08
-1.1418881e+09
2.6567368e+09
-3.7944824e+09
3.5403146e+09
1.4992022e+09
-1.7946163e+08
-1.9139279e+09
-6.6936099e+09
2.61775e+09
7.8780671e+08
-8.9587382e+09
1.5093289e+09
5.8222902e+08
-4.6095716e+09
-11718749
-4.2955377e+08
-1.3820704e+09
-2.0055474e+08
-4.135444e+08
-1.5965152e+09
-6.8738871e+08
-4.6676149e+08
-1.603409e+09
-1.2422375e+09
-2.9061707e+08
1.5655802e+10
-1.4828702e+10
5.4042923e+09
4.460759e+10
-2.1654857e+10
-1.9832711e+09
1.8536183e+10
-3.1602176e+09
2.1953483e+09
2.3612166e+10
-1.0956473e+10
2.1987823e+08
1.3991969e+10
-3.7831198e+08
2.9599218e+09
-2.7728524e+09
2.6580762e+09
4.6963502e+08
-3.3881512e+09
-3.9928225e+08
2.3078996e+08
7.7117174e+08
5.8933537e+08
7.3969314e+08
6.1342095e+09
1.163779e+09
-1.2058378e+09
4.4752772e+09
2.8761304e+09
-3.1611885e+08
3.0479588e+09
-1.2531884e+09
1.3446383e+09
7.9910285e+10
7.8114863e+09
-5.7013758e+09
1.6319316e+10
-5.3303211e+09
6.1317246e+08
4.998299e+10
-3.3111627e+10
5.2960916e+09
1.5791136e+10
-6.439643e+09
3.5544792e+08
1.2624173e+10
-1.3422506e+08
-1.7880865e+09
1.3250714e+10
-4.0790776e+08
-1.9994505e+09
-4.5496501e+09
-1.6365321e+09
3.1623423e+08
3.9679082e+09
-1.0448013e+09
88367948
-2.4809916e+09
-1.0712859e+09
-2.6506809e+08
4.4366516e+09
3.1774317e+09
-4.2155803e+08
2.1482405e+09
-1.5596953e+09
-1.1744517e+08
5.2274598e+09
-4.8599262e+09
3.701995e+08
1.593737e+10
5.7513121e+08
-7.0353992e+09
1.7730646e+11
1.8283003e+10
3.0618295e+10
1.5348309e+10
-2.3414845e+10
4.3845865e+08
7.8769261e+09
-1.9621288e+09
2.9217426e+09
5.1311889e+09
-3.4725723e+09
1.6019986e+08
7.9536245e+09
2.5668857e+09
-6018101.2
-3.291865e+09
-3.3724842e+09
-2.1345678e+09
5.9303143e+09
-9.4606451e+09
1.0442834e+09
1.0264384e+10
3.1129141e+09
-1.2660656e+09
-1.6858997e+10
-3.3053777e+10
3.7140572e+08
-1.3907228e+08
-7.3205573e+08
71989824
1.4236889e+09
-3.1703846e+09
2.533187e+08
5.1551015e+09
-2.609636e+09
1.8767053e+08
-1.2980167e+10
6.1330168e+09
5.6101358e+09
3.1844204e+10
1.8258336e+09
-4.1972899e+09
1.3188096e+10
-1.554724e+10
7.9202713e+09
3.5325933e+10
-1.919584e+09
-1.5419287e+10
3.1403455e+10
-1.5110178e+10
-6.0140835e+09
1.3477971e+10
-2.289245e+10
1.1713583e+10
-1.4757705e+10
1.2531214e+10
1.5653391e+09
-1.3716289e+10
8.3251086e+09
2.2110155e+09
-1.2451211e+10
5.39928e+09
1.7521122e+09
-9.3088383e+09
2.6981555e+10
1.0529592e+10
-2.9486827e+09
1.2988975e+10
1.6432176e+10
-8.6372562e+09
1.2233443e+10
8.4331793e+08
-1.0624114e+10
6.5622191e+09
-6.0853474e+08
-1.0710469e+10
4.0060989e+09
2.0671843e+08
-7.5103987e+08
1.3252067e+10
1.1605281e+10
5.6210493e+08
3.652573e+09
4.9911862e+09
2.7000457e+09
6.0764515e+09
3.8109701e+09
2.1704454e+09
1.1107472e+09
2.0820256e+09
-4.1309944e+09
4.8501374e+09
1.1448508e+09
-7.6030397e+09
2.3990424e+09
-7.488618e+08
-8.585529e+09
57789508
-3.0943584e+08
3.2518719e+09
3.4872115e+09
-5.2434785e+09
3.8161356e+09
-6.4710437e+09
9.3943022e+08
-3.5785757e+09
9.6105448e+09
-1.0923981e+09
1.6631932e+09
-4.2778547e+09
-1.8796309e+08
2.541925e+09
9.1862082e+09
-4.3505013e+09
-8.2387867e+08
-3.4650493e+09
-1.6919878e+08
-4.4246194e+08
-1.41795e+09
-2.486924e+08
1.111487e+09
-3.6166303e+09
-1.2110382e+08
1.4002103e+09
4.2864721e+09
-1.2943153e+09
6.9243796e+08
-3.5244955e+09
-3.0016357e+08
-2.1390233e+09
7.5046756e+09
-6.2041299e+08
-1.9394742e+09
-2.9898092e+09
-2.4484986e+08
2.0654649e+09
5.5337871e+08
-6.7130752e+08
-1.297206e+09
-8.2026788e+08
-9.2395468e+08
-9.0089027e+08
-2.5567594e+09
-94362507
-2.5015046e+09
-1.6151226e+09
-3.1667858e+09
-5.3365501e+08
-2.1928448e+09
1.1974551e+09
-6.8231773e+08
-2.3313462e+09
-2.865331e+09
-2.3147122e+08
-3.4406973e+09
-8.3310548e+09
85035780
-1.5357475e+08
1.8878991e+09
-4.6162186e+09
-1.8318252e+09
-7.3503227e+08
-9.6574471e+08
-9.8158212e+08
-2.928824e+09
-1.2137151e+09
-1.0796222e+09
-2.7122273e+09
3.5555245e+09
6.0413221e+08
86888091
-7.5287213e+08
3.368729e+09
-4.0878621e+09
3.6153046e+09
1.0613961e+09
-2.4120762e+08
-1.8223619e+09
-6.8796024e+09
2.6599449e+09
6.1421345e+08
-1.0401767e+10
1.4191275e+09
5.862402e+08
-4.5420932e+09
-57237992
-5.5485927e+08
-1.3883747e+09
-2.0180024e+08
-5.3069404e+08
-1.7730009e+09
-7.1945342e+08
-5.9957338e+08
-1.8561386e+09
-1.5001075e+09
-2.8923814e+08
-5.3211225e+09
-1.5138502e+08
2.9179197e+09
-4.5820392e+09
3.6567689e+09
1.0312692e+09
1.4897258e+09
-2.6183736e+09
-6.3964678e+08
4.654363e+08
-6.2331117e+09
3.1366401e+09
1.2735362e+09
-4.0871708e+08
-9.3928539e+09
2.1338245e+09
1.0186501e+09
-8.8716341e+09
9.2836855e+08
-98743575
-1.6105705e+09
-8.0652812e+08
-3.8919321e+09
3.57497e+08
-1.2066478e+09
-2.4638982e+09
-1.0883636e+09
-2.3194599e+08
-1.466495e+09
-1.2655208e+09
-1.19904e+08
4.1463545e+10
7.5600736e+09
-5.5968372e+09
2.1419369e+10
-5.8697923e+09
3.0138748e+09
5.8726432e+10
-2.8389273e+10
6.7061581e+09
2.3039696e+10
-6.8140741e+09
1.3825317e+09
1.7012817e+10
-11022557
-2.9939517e+09
1.8099157e+10
1.3500949e+09
-5.8060624e+08
-3.7327954e+09
-6.2382655e+08
-1.2267639e+08
1.7467571e+09
1.4130444e+09
1.62822e+09
-2.957131e+09
-1.4908065e+09
-9.715817e+08
4.250881e+09
2.4311743e+09
-5.7511827e+08
2.3517899e+09
-2.2255993e+09
4.525788e+08
5.6325691e+09
-8.4418157e+09
1.7322998e+09
1.8813737e+10
1.4741636e+08
-5.4250407e+08
1.0681265e+11
1.0155021e+10
2.1525859e+10
1.6187295e+10
-8.6987881e+09
2.0334801e+09
1.3389262e+10
-1.3184287e+09
9.6807581e+08
1.0291833e+10
-4.3840128e+09
-8.2910527e+08
7.513985e+09
2.3772632e+09
-5.4828049e+08
-6.0948196e+09
1.2271019e+09
-2.0601252e+09
6.2263229e+09
-2.9523321e+09
1.9277566e+09
2.0278137e+09
7.2821529e+09
-28508015
-9.3662129e+09
-1.2860394e+10
-37197674
-1.9235471e+08
-1.0940056e+09
-8.3404727e+08
2.6029147e+09
-5.7407975e+09
-4.1587068e+08
5.8371443e+09
-4.4426954e+09
2.8282147e+08
9.6658156e+09
2.4919899e+09
3.5878075e+09
2.6283688e+10
2.1105612e+09
2.0954746e+09
1.4307932e+10
3.2744588e+09
1.096231e+10
1.1253033e+10
-1.2668046e+10
-2.3581451e+09
6.9637064e+09
1.7640845e+09
1.5308737e+09
9.9330151e+08
-4.5417848e+09
4.0521356e+08
5.5359618e+08
-8.1564587e+08
1.0178224e+10
1.2825616e+10
3.4592353e+09
9.1727012e+08
2.66586e+09
6.4425877e+08
-3.6390595e+10
3.8970177e+08
-3.9965463e+09
-1.289627e+09
-1.4156737e+08
-1.5605658e+09
-1.5899961e+09
1.8891389e+09
2.0017989e+09
-2.179004e+09
-12984167
2.0533251e+09
-4.6676528e+08
-11374548
-8.7309638e+09
2.440557e+10
6.4413074e+09
-1.4945113e+10
9.1734268e+09
1.1376561e+10
-1.4492776e+10
5.2858096e+09
6.182068e+09
2.4437592e+10
-1.296477e+10
6.209296e+09
2.8588997e+10
-25426350
-1.0134891e+09
1.0912638e+10
-1.7479553e+10
1.3207526e+10
2.7341071e+10
-2.0410551e+09
-7.6648156e+09
3.3002101e+10
6.9062256e+08
-5.4956572e+09
1.6973577e+10
-1.8117953e+10
1.3701476e+10
1.5878304e+10
-6.4820665e+09
1.4427965e+10
-6.3420607e+09
2.2388415e+10
2.0517834e+10
-1.3114391e+10
1.0820546e+10
3.5471012e+09
-1.290143e+10
7.020641e+09
2.8670334e+09
-1.0770871e+10
3.6956107e+09
-2.1988691e+08
-4.287615e+09
2.5104596e+10
1.2001328e+10
2.3551262e+09
9.7713093e+09
1.4676722e+10
-1.6494059e+09
1.6949423e+10
1.6065711e+10
-9.3371758e+09
1.0108194e+10
2.5035864e+09
-1.0538411e+10
5.1625888e+09
1.170357e+09
-1.0885108e+10
2.6552278e+09
-9.7285744e+08
6.0302748e+09
2.0419472e+10
5.4251069e+09
5.1982395e+08
4.8938928e+09
1.6030862e+09
1.4463172e+09
2.6567987e+08
4.4767825e+09
-2.8331338e+09
5.9368495e+09
1.4695533e+09
-9.1141032e+08
-9.8057427e+08
-6.7913876e+09
3.7335139e+09
-2.7778517e+08
-1.156188e+10
1.0572665e+09
-5.8827505e+08
-2.1141787e+08
-6.5507712e+08
-4.4275161e+09
2.8923872e+09
-6.0439042e+09
1.2792006e+09
1.2673774e+09
6.7876995e+09
-2.2878228e+09
3.1075955e+09
-5.8146639e+09
61081341
-1.3928463e+09
7.2665931e+09
81048327
-9.5190635e+08
-3.9548611e+09
-6.8574909e+08
6.4522666e+08
1.3206058e+09
-1.7059443e+09
-5.5251698e+08
-4.0443752e+08
-1.0353198e+09
-1.0175785e+09
-3.7060136e+08
1.0064569e+09
-2.5225595e+09
-1.6463807e+09
-3.5229899e+09
-91424103
-34276512
4.6998526e+09
-6.482181e+08
-2.160275e+09
-3.2860595e+09
-1.7500441e+08
-2.6187968e+09
-5.9644396e+09
4.1341334e+08
-7.8169502e+08
2.4434784e+09
-3.5867265e+09
-2.3344864e+09
-1.3835076e+09
-6.794039e+08
-7.5927321e+08
-2.5208664e+09
-1.6493877e+09
-1.4324736e+09
-2.4226548e+09
-2.8052076e+09
-3.2274745e+08
-3.647414e+09
3.926811e+08
-1.8314356e+09
-3.0343685e+09
-2.9917595e+09
43509094
-3.6611194e+09
-5.835228e+08
-1.0353859e+09
-4.2066007e+09
-2.3492414e+09
-5.5729615e+08
-8.4059723e+09
9.7193384e+08
1.5739925e+09
-4.3792775e+09
-1.3823853e+09
-1.1705331e+09
-5.3222172e+09
-1.8863695e+09
-8.8665341e+08
-5.5577155e+09
-2.0194785e+08
3.2413577e+09
-5.0523114e+09
3.92083e+09
7.6877732e+08
9.3366553e+08
-3.0763057e+08
-8.0684115e+08
9.3084698e+08
-6.3786425e+09
3.1230828e+09
7.4393712e+08
4.4932602e+08
-1.0176777e+10
2.0340722e+09
7.8324189e+08
-8.4339797e+09
7.7712293e+08
-6.8593475e+08
-1.4183995e+09
-9.4882496e+08
-3.9806363e+09
8.234389e+08
-1.984884e+09
-2.8834862e+09
-1.3295032e+09
-3.5060171e+08
-1.6647897e+09
-1.4564913e+09
-43094288
-6.0031166e+09
3.3195605e+09
4.2919517e+08
-4.7788823e+09
-5.2954902e+08
1.3923292e+09
-6.3833618e+09
3.2899731e+09
1.1932006e+09
-6.4107515e+09
-1.8085148e+09
-2.2576352e+09
-8.8454344e+09
2.4519291e+09
1.495522e+09
-9.8950456e+09
1.2986337e+09
43263221
4.6932508e+08
-9.9514868e+09
3.2421046e+08
-9.3185256e+08
-2.9662112e+09
-1.130591e+10
-1.0161773e+08
-7.3701446e+08
-2.1128287e+09
-1.2388052e+09
-14528068
-1.2402951e+09
-1.432844e+09
-91610040
1.4029276e+10
5.8057316e+08
5.8942252e+09
4.9976204e+10
9.1934789e+09
1.3656946e+10
1.1628503e+10
-2.9396438e+09
3.6982912e+09
2.1773252e+10
-1.0217751e+09
-6.6699058e+08
1.7084812e+10
-3.7306448e+09
-3.2968578e+08
2.0606812e+09
-1.7500682e+09
6.6405919e+09
1.6409778e+09
-1.7148214e+09
-7.2254042e+09
2.6885999e+09
1.4846908e+08
4.679616e+09
-2.4668668e+09
5.678501e+09
-1.0464148e+09
-4.1643002e+09
-1.8409426e+10
-3.1622969e+08
1.4729106e+09
-1.1852033e+09
-3.2808336e+09
4.4890706e+09
-9.9832392e+09
1.0764833e+08
6.0395948e+09
-4.8614502e+09
5.9230405e+08
1.1532237e+10
6.4875169e+09
1.9485897e+09
6.8424189e+09
4.4564032e+09
5.7436041e+09
2.1117957e+10
2.1460777e+09
1.1251498e+10
1.54408e+10
-4.8220206e+09
-1.7160611e+09
8.4910205e+09
1.5920142e+09
2.2615628e+08
5.8913927e+09
-4.2193633e+09
-2.8065763e+08
1.5759012e+08
-1.2463338e+09
1.638099e+09
3.5276683e+09
1.1015067e+10
-4.5490259e+08
2.1089691e+09
-2.0185967e+09
-1.0785296e+10
5.5924628e+08
-4.8129015e+09
-2.0965938e+09
-98640792
-6.5795828e+09
-4713564.9
-1.5512809e+09
1.6641275e+09
-4.4170917e+09
-1.0392159e+08
1.510963e+09
-6.3165155e+08
1.8044693e+08
-1.4176377e+10
1.2339167e+09
1.5746762e+10
1.4524259e+08
-3.4938582e+09
4.1948216e+09
-3.1968353e+09
1.4203887e+10
-5.8090583e+09
3.8566419e+09
5.2754299e+09
4.7941858e+09
1.1827987e+10
-2.7263513e+10
5.951602e+09
1.2782575e+09
2.4272849e+09
-4.9165304e+08
8.5824328e+08
-6.2230788e+09
4.2188192e+09
4.6617338e+08
3.3523616e+09
-3.5316226e+08
7.8870221e+09
4.9346801e+09
-9.1649516e+09
-3516302.5
4.9298865e+08
-6.3236553e+08
-3.0120206e+08
-1.3403553e+10
-2.5645999e+09
4.2358257e+08
1.9787179e+10
-2.327103e+09
4.492481e+08
2.9050297e+09
-8.8825151e+08
706404.38
1.6108309e+09
-1.2268674e+09
-1.3207841e+08
2.5238683e+10
-9.9734169e+09
5.8601778e+09
-1.0435765e+10
1.5725944e+10
7.515023e+09
-1.2016571e+10
1.8078978e+10
9.8714302e+09
-1.6268811e+10
1.3110781e+10
1.0129747e+10
-1.5014562e+10
7.4330241e+09
1.1342506e+10
-1.6207325e+10
6.5784835e+09
8.1476331e+09
1.6823016e+10
-1.2274542e+09
4.4163372e+09
1.0586202e+10
-1.7806804e+10
1.2923976e+10
1.7721186e+10
2.8711147e+09
4.3423505e+09
1.1813273e+10
-9.3840115e+09
2.0314549e+10
2.1927836e+10
-6.0103423e+08
-9.0402849e+08
-2.1676578e+09
-4.1213347e+09
-1.4710557e+09
95223859
1.5762961e+10
-6.4829652e+09
1.7082654e+10
7.4717717e+09
-4.8599321e+09
1.8636894e+10
6.6037096e+09
1.599916e+09
1.3565265e+10
-3.8176942e+09
1.256381e+10
2.2813452e+10
2.6231687e+09
2.2274316e+10
2.3080062e+10
-1.0936494e+10
8.5334634e+09
3.6336179e+09
-1.14829e+10
3.7994761e+09
3.7076556e+09
-1.0805436e+10
1.9937739e+08
-1.4508728e+09
-3.3976207e+09
3.391822e+10
4.5958356e+09