/*--------------------------------*- C++ -*----------------------------------*\
  =========                 |
  \\      /  F ield         | OpenFOAM: The Open Source CFD Toolbox
   \\    /   O peration     | Website:  https://openfoam.org
    \\  /    A nd           | Version:  7
     \\/     M anipulation  |
\*---------------------------------------------------------------------------*/
FoamFile
{
    version     2.0;
    format      ascii;
    class       volScalarField;
    location    "2000";
    object      pMean;
}
// * * * * * * * * * * * * * * * * * * * * * * * * * * * * * * * * * * * * * //

dimensions      [0 2 -2 0 0 0 0];

internalField   nonuniform List<scalar> 
34124
(
-5.4198024e+26
-5.9681186e+26
-5.1284239e+26
-5.4730491e+26
-5.8474731e+26
-5.7287511e+26
-5.8202115e+26
-5.1917205e+26
-5.409676e+26
-5.2042848e+26
-5.8184312e+26
-5.7515788e+26
-5.8277271e+26
-5.6160575e+26
-6.0782593e+26
-5.7345659e+26
-4.7929245e+26
-5.2983982e+26
-5.4809363e+26
-6.0170329e+26
-5.7633815e+26
-5.7943561e+26
-5.7802862e+26
-5.6823092e+26
-5.8729548e+26
-5.7919968e+26
-5.4972212e+26
-5.9547339e+26
-5.8584492e+26
-6.4594837e+26
-5.3667287e+26
-5.7092689e+26
-5.2825163e+26
-5.3190274e+26
-5.1892986e+26
-5.6974274e+26
-5.7988585e+26
-5.7128193e+26
-5.7758391e+26
-5.784215e+26
-5.8138868e+26
-5.6426029e+26
-5.7441844e+26
-5.8568588e+26
-5.9474549e+26
-5.9920783e+26
-6.1891809e+26
-5.7354473e+26
-5.944708e+26
-5.4143973e+26
-4.9362932e+26
-6.0536563e+26
-5.6977603e+26
-5.9588595e+26
-5.0971749e+26
-4.6770088e+26
-5.7876318e+26
-5.6091794e+26
-5.6870872e+26
-5.7841214e+26
-5.7517197e+26
-5.7962842e+26
-5.7162674e+26
-5.7814386e+26
-5.8393899e+26
-6.0269616e+26
-5.7388802e+26
-6.1774594e+26
-5.787935e+26
-6.0164594e+26
-4.9925317e+26
-5.5925958e+26
-6.255788e+26
-5.9151678e+26
-6.307472e+26
-5.5588645e+26
-5.6884443e+26
-6.0968417e+26
-6.0193365e+26
-5.4858791e+26
-6.5579433e+26
-5.3504328e+26
-4.4309157e+26
-5.8340305e+26
-5.8252232e+26
-5.7592502e+26
-5.7501611e+26
-5.2812314e+26
-5.6358896e+26
-5.7970065e+26
-5.7396221e+26
-5.7646686e+26
-5.8290955e+26
-6.0230032e+26
-6.1437816e+26
-5.8008459e+26
-5.8705431e+26
-6.0537906e+26
-6.2833123e+26
-5.6449746e+26
-6.4301308e+26
-5.6971735e+26
-6.1319423e+26
-5.181554e+26
-5.6083117e+26
-6.3297064e+26
-6.0239599e+26
-5.7133038e+26
-6.8020659e+26
-5.4621133e+26
-5.5203288e+26
-6.1223507e+26
-4.8099693e+26
-6.5822586e+26
-5.3010974e+26
-7.0774143e+26
-5.8841444e+26
-5.4916364e+26
-6.1572509e+26
-6.1287999e+26
-5.8045054e+26
-5.8515537e+26
-5.7849178e+26
-5.3612752e+26
-5.6942713e+26
-5.8313842e+26
-5.6484288e+26
-5.5810531e+26
-5.832695e+26
-6.0280678e+26
-6.1913985e+26
-5.8113619e+26
-5.8678346e+26
-6.052845e+26
-6.2842536e+26
-5.8361776e+26
-6.0331847e+26
-5.9722374e+26
-6.082973e+26
-6.301155e+26
-6.5930149e+26
-6.0652252e+26
-6.3477628e+26
-5.939326e+26
-6.2192006e+26
-5.1993451e+26
-5.6807277e+26
-5.8786784e+26
-5.6455104e+26
-7.9233891e+26
-5.6361007e+26
-6.9740924e+26
-6.5388877e+26
-6.0502674e+26
-6.1909078e+26
-6.4505476e+26
-7.1557107e+26
-5.9479033e+26
-4.3717554e+26
-6.8931329e+26
-6.8647317e+26
-7.215356e+26
-6.4914126e+26
-6.612784e+26
-8.2493941e+26
-5.957596e+26
-6.2237352e+26
-5.8829036e+26
-5.4491509e+26
-5.7723637e+26
-5.8857204e+26
-5.7131378e+26
-5.7406256e+26
-5.8378683e+26
-6.0598154e+26
-5.7338143e+26
-5.8911183e+26
-5.6220839e+26
-6.0899547e+26
-6.2897159e+26
-6.007458e+26
-6.04069e+26
-5.978064e+26
-6.0847298e+26
-6.3041269e+26
-6.5878332e+26
-5.999831e+26
-5.9361474e+26
-6.1970482e+26
-6.1684936e+26
-6.3210633e+26
-6.6013355e+26
-7.1041869e+26
-5.6496933e+26
-7.4777503e+26
-6.1541763e+26
-6.4137529e+26
-6.5464498e+26
-5.880977e+26
-5.9270115e+26
-6.2737519e+26
-7.1036162e+26
-6.4530779e+26
-7.0249967e+26
-7.076677e+26
-6.8056957e+26
-7.6200089e+26
-6.2617976e+26
-6.8287369e+26
-7.964605e+26
-6.0841992e+26
-5.3387195e+26
-6.3427415e+26
-5.4736067e+26
-6.9028884e+26
-7.3643036e+26
-1.1367781e+27
-6.8086373e+26
-9.6034123e+26
-6.7261177e+26
-5.8411326e+26
-5.9540583e+26
-6.4903398e+26
-6.0956649e+26
-6.1049656e+26
-6.0163901e+26
-5.7833356e+26
-5.8105939e+26
-5.8690434e+26
-6.0908175e+26
-5.807777e+26
-5.9089876e+26
-5.6740447e+26
-6.1017991e+26
-6.3185732e+26
-5.9357382e+26
-5.7368268e+26
-6.1632971e+26
-5.9854391e+26
-6.3212888e+26
-6.5792413e+26
-6.1025807e+26
-5.9990515e+26
-6.2166752e+26
-6.1752928e+26
-6.325785e+26
-6.5996771e+26
-7.075509e+26
-6.0545428e+26
-6.5311495e+26
-6.2460442e+26
-6.4221811e+26
-6.3920376e+26
-6.6103657e+26
-7.0923636e+26
-7.4122223e+26
-6.3394046e+26
-6.1470583e+26
-6.8511635e+26
-6.6392913e+26
-6.7038754e+26
-7.2132476e+26
-5.8295872e+26
-6.3576312e+26
-7.1097546e+26
-6.2648122e+26
-5.7150547e+26
-6.4290441e+26
-6.7072085e+26
-7.0786471e+26
-7.5764505e+26
-1.0134773e+27
-6.9458769e+26
-9.0106259e+26
-7.0826276e+26
-5.274094e+26
-5.4669458e+26
-7.2724373e+26
-6.3966371e+26
-7.5913021e+26
-7.7092663e+26
-1.0823566e+27
-6.3211318e+26
-8.4220426e+26
-7.7950833e+26
-8.7183076e+26
-5.9501988e+26
-6.0131546e+26
-6.0987673e+26
-6.299681e+26
-6.035851e+26
-6.267366e+26
-6.2206647e+26
-6.1010437e+26
-6.2910261e+26
-6.2013859e+26
-5.8834293e+26
-5.9443308e+26
-5.6673778e+26
-6.1215509e+26
-6.3385182e+26
-5.9685601e+26
-5.7928956e+26
-6.1838362e+26
-5.9490842e+26
-6.3540358e+26
-6.5960618e+26
-5.9107622e+26
-6.2506461e+26
-5.7573239e+26
-6.4109874e+26
-6.5173671e+26
-6.6193465e+26
-7.0194355e+26
-6.14049e+26
-6.6716424e+26
-6.2952291e+26
-6.4565558e+26
-6.4110537e+26
-6.6124662e+26
-7.0656918e+26
-7.4077733e+26
-6.5706103e+26
-6.3679855e+26
-7.051319e+26
-6.5459745e+26
-6.5834506e+26
-6.6556652e+26
-7.0622102e+26
-7.4084203e+26
-7.3072115e+26
-6.0523756e+26
-6.0587055e+26
-5.9565724e+26
-6.8433015e+26
-6.8843565e+26
-7.3487225e+26
-8.7062725e+26
-6.427791e+26
-7.1125232e+26
-6.9926787e+26
-5.9591438e+26
-6.5304199e+26
-8.3611733e+26
-7.1137215e+26
-7.7917191e+26
-7.7517893e+26
-9.6496104e+26
-7.9296832e+26
-8.3260694e+26
-7.6657675e+26
-8.8472553e+26
-4.0937864e+26
-5.7030626e+26
-6.0730206e+26
-7.227435e+26
-9.359601e+26
-8.2194813e+26
-9.2899455e+26
-6.668706e+26
-6.8678252e+26
-7.4265369e+26
-8.0915914e+26
-1.034609e+27
-6.0778493e+26
-5.6611569e+26
-5.9776114e+26
-6.2057227e+26
-6.1051708e+26
-6.2532813e+26
-6.3328559e+26
-6.4358938e+26
-6.2946869e+26
-6.5782362e+26
-6.2676202e+26
-6.7011811e+26
-6.3945364e+26
-6.5273758e+26
-6.451515e+26
-6.0446496e+26
-5.8546196e+26
-6.2188536e+26
-5.8154189e+26
-6.4075852e+26
-6.6221125e+26
-5.9558961e+26
-6.3003392e+26
-5.7268573e+26
-6.4575534e+26
-6.4640096e+26
-6.6513965e+26
-7.0153777e+26
-6.2750995e+26
-5.9162662e+26
-6.5277325e+26
-6.2478083e+26
-6.7656085e+26
-7.021097e+26
-6.9630718e+26
-7.3913459e+26
-6.6523303e+26
-6.4384644e+26
-7.2315835e+26
-6.5857689e+26
-6.6090259e+26
-6.6658446e+26
-7.0373823e+26
-7.400179e+26
-7.3344807e+26
-6.8068959e+26
-6.9906263e+26
-6.6559813e+26
-8.0929474e+26
-6.679629e+26
-6.6716603e+26
-7.0210629e+26
-7.4097762e+26
-7.3267688e+26
-7.0096587e+26
-6.0185445e+26
-6.5861434e+26
-7.308122e+26
-6.3349665e+26
-7.2573137e+26
-7.597815e+26
-8.8155554e+26
-8.1379989e+26
-7.1948075e+26
-7.1549662e+26
-8.1601444e+26
-5.1383275e+26
-6.0879635e+26
-6.3496311e+26
-7.9577525e+26
-9.0062595e+26
-8.5593971e+26
-9.1905666e+26
-7.7722901e+26
-7.2724584e+26
-7.5637097e+26
-8.5205226e+26
-9.7920784e+26
-6.1887877e+26
-4.801844e+26
-6.4358105e+26
-7.6134674e+26
-7.9253679e+26
-7.0453581e+26
-9.2133012e+26
-7.2617827e+26
-6.9624854e+26
-5.0531609e+26
-7.6604844e+26
-1.0283679e+27
-8.4006642e+26
-6.2627346e+26
-5.9627946e+26
-6.2927734e+26
-5.4301113e+26
-6.2701249e+26
-6.2048448e+26
-6.5617224e+26
-6.4278606e+26
-6.3894705e+26
-6.6091566e+26
-6.4909391e+26
-6.6358378e+26
-6.5950034e+26
-6.5779874e+26
-6.7430727e+26
-6.7284785e+26
-6.5408197e+26
-7.4002909e+26
-6.6563598e+26
-6.6483038e+26
-6.6978957e+26
-6.0572802e+26
-6.3794868e+26
-5.693671e+26
-6.5313618e+26
-6.3402422e+26
-6.7018149e+26
-6.9990594e+26
-6.3232829e+26
-5.9562612e+26
-6.5694783e+26
-6.1962004e+26
-6.7969012e+26
-7.0539203e+26
-6.9862089e+26
-7.3675143e+26
-6.3026871e+26
-6.596332e+26
-6.3004747e+26
-6.8621643e+26
-7.3739037e+26
-7.3501111e+26
-7.6224894e+26
-7.200438e+26
-7.3934421e+26
-6.8451943e+26
-7.0797991e+26
-6.7043275e+26
-8.3369911e+26
-6.6958772e+26
-6.663364e+26
-7.0060466e+26
-7.3900255e+26
-7.3542548e+26
-7.0187547e+26
-7.0386568e+26
-6.9003309e+26
-7.6600584e+26
-6.8350887e+26
-8.2789217e+26
-6.7844761e+26
-7.0444258e+26
-7.3931229e+26
-7.3739702e+26
-7.0202293e+26
-6.8023464e+26
-5.7634694e+26
-6.1090768e+26
-6.085568e+26
-7.5136559e+26
-7.1639655e+26
-7.8608043e+26
-8.686744e+26
-8.0560563e+26
-6.8794941e+26
-7.1852826e+26
-8.2245952e+26
-7.9857913e+26
-7.1218662e+26
-5.5037207e+26
-6.8951328e+26
-8.0150896e+26
-8.5893442e+26
-7.4799783e+26
-9.4766474e+26
-7.9918677e+26
-7.4398881e+26
-7.3961502e+26
-8.5217804e+26
-9.4985569e+26
-8.7144154e+26
-6.5335809e+26
-5.8635038e+26
-7.9542438e+26
-8.4931107e+26
-7.9097329e+26
-9.3162186e+26
-7.7942687e+26
-9.059451e+26
-6.9319011e+26
-4.9562099e+26
-6.8608712e+26
-8.0516482e+26
-8.1821347e+26
-8.4886262e+26
-6.2715099e+26
-6.5071955e+26
-6.552017e+26
-6.3908415e+26
-5.733089e+26
-6.5502551e+26
-6.4014853e+26
-5.8512471e+26
-6.3207429e+26
-6.4148842e+26
-6.642221e+26
-6.9055144e+26
-6.7098321e+26
-6.6873806e+26
-7.079304e+26
-6.8168477e+26
-6.6960781e+26
-6.8042297e+26
-6.6191373e+26
-6.832332e+26
-7.5273313e+26
-6.8676764e+26
-7.1880325e+26
-6.7848866e+26
-8.4903027e+26
-6.7307623e+26
-6.6519439e+26
-7.0261432e+26
-6.4140757e+26
-6.0614997e+26
-6.6391259e+26
-6.2527043e+26
-6.8476996e+26
-7.1837619e+26
-6.9975455e+26
-7.3258024e+26
-6.3384332e+26
-6.6389979e+26
-6.3194914e+26
-6.8815134e+26
-7.3587008e+26
-7.3429877e+26
-7.7376847e+26
-7.1673714e+26
-7.4157586e+26
-6.5691253e+26
-6.4274341e+26
-7.0057648e+26
-6.8628891e+26
-7.3721428e+26
-7.3944314e+26
-7.5493876e+26
-7.0376958e+26
-7.0996946e+26
-6.9313787e+26
-7.7450681e+26
-6.8618877e+26
-8.3244517e+26
-6.7846835e+26
-7.0367649e+26
-7.345097e+26
-7.4071797e+26
-7.0315717e+26
-6.8029343e+26
-7.1609419e+26
-7.4591485e+26
-7.006768e+26
-7.2117098e+26
-6.9989e+26
-7.175926e+26
-7.4518164e+26
-7.4654793e+26
-7.0406087e+26
-6.7992453e+26
-6.6511322e+26
-6.9001785e+26
-5.775109e+26
-6.7611199e+26
-7.3119664e+26
-8.2468963e+26
-7.2225996e+26
-8.8864564e+26
-7.8700321e+26
-7.1045865e+26
-7.1301053e+26
-7.9655073e+26
-7.8181659e+26
-8.8738863e+26
-7.0646839e+26
-7.3827638e+26
-9.0219055e+26
-9.1605648e+26
-8.3949773e+26
-9.6245418e+26
-8.281567e+26
-8.9360341e+26
-7.8740605e+26
-6.6514675e+26
-7.6083545e+26
-8.5603958e+26
-8.9103318e+26
-8.8733876e+26
-5.8536611e+26
-7.5795081e+26
-1.0365569e+27
-1.0175382e+27
-9.3431656e+26
-6.8938146e+26
-1.0710811e+27
-8.0120108e+26
-8.6819548e+26
-7.8228193e+26
-6.9505839e+26
-6.0339283e+26
-8.3163177e+26
-8.5872301e+26
-7.8782006e+26
-6.3033818e+26
-6.5690287e+26
-6.6046364e+26
-6.8082009e+26
-6.7979112e+26
-6.8394129e+26
-6.1300624e+26
-6.6333968e+26
-6.3677454e+26
-6.8545229e+26
-6.616596e+26
-7.2279368e+26
-6.1809594e+26
-6.6824451e+26
-7.1295515e+26
-6.9300745e+26
-7.0302943e+26
-6.9601257e+26
-6.7908372e+26
-6.9283162e+26
-7.6388016e+26
-6.9505299e+26
-7.2642063e+26
-6.9751186e+26
-6.8342243e+26
-6.6781626e+26
-7.0411384e+26
-8.7378352e+26
-7.194933e+26
-6.9860917e+26
-7.8078326e+26
-6.9300759e+26
-8.4197681e+26
-9.0371324e+26
-6.8163423e+26
-7.061376e+26
-7.2624405e+26
-7.0631832e+26
-6.4396535e+26
-6.7135458e+26
-6.4214799e+26
-6.9393161e+26
-7.2675475e+26
-7.3278353e+26
-7.7661475e+26
-7.5056929e+26
-7.1280104e+26
-7.035178e+26
-7.4618829e+26
-6.6150532e+26
-6.4544547e+26
-7.0301542e+26
-6.901206e+26
-7.3736629e+26
-7.4148602e+26
-7.5572141e+26
-7.0588989e+26
-6.6336504e+26
-6.9676264e+26
-6.7965991e+26
-7.4030453e+26
-7.207457e+26
-7.5678257e+26
-7.7315656e+26
-7.1640717e+26
-6.8115917e+26
-7.2382747e+26
-7.539815e+26
-7.0299024e+26
-7.3473184e+26
-7.0209448e+26
-7.1679403e+26
-7.4381152e+26
-7.4630784e+26
-7.06014e+26
-6.7997291e+26
-6.6517529e+26
-7.6100765e+26
-7.2575039e+26
-7.7069458e+26
-7.1424447e+26
-7.7122949e+26
-7.2748594e+26
-7.4598694e+26
-7.1273187e+26
-6.7999276e+26
-6.6451952e+26
-6.476477e+26
-6.6670118e+26
-7.4833053e+26
-7.6827321e+26
-8.7234015e+26
-7.8082394e+26
-8.7226492e+26
-7.5421916e+26
-7.4978152e+26
-8.0529385e+26
-8.8695149e+26
-7.6318716e+26
-7.1767133e+26
-7.1031326e+26
-7.6112275e+26
-8.9442748e+26
-8.0901546e+26
-6.6507078e+26
-8.2059214e+26
-1.1713613e+27
-1.4754429e+27
-9.4396241e+26
-7.8706566e+26
-1.0863436e+27
-8.1762329e+26
-9.1753327e+26
-7.8417241e+26
-7.502198e+26
-7.3554545e+26
-9.8095479e+26
-8.8545916e+26
-8.8814976e+26
-4.9004757e+26
-1.1270646e+27
-7.9656555e+26
-6.17674e+26
-9.1486784e+26
-8.4472779e+26
-9.2234383e+26
-8.4431039e+26
-6.6700488e+26
-6.2635261e+26
-5.8181694e+26
-8.1971516e+26
-8.0532718e+26
-1.2647683e+27
-6.6087867e+26
-6.472317e+26
-6.5584288e+26
-6.8837736e+26
-6.8316032e+26
-6.8500634e+26
-7.2063289e+26
-7.0261293e+26
-6.9660126e+26
-7.0997228e+26
-6.9945795e+26
-6.6181809e+26
-6.9240218e+26
-7.1534721e+26
-7.2896712e+26
-6.7299718e+26
-7.3502086e+26
-7.7596479e+26
-7.6652836e+26
-6.404433e+26
-7.3415487e+26
-7.801558e+26
-7.2312886e+26
-7.1092389e+26
-7.4660234e+26
-6.8892098e+26
-7.1977023e+26
-7.3721297e+26
-8.2551229e+26
-7.2094869e+26
-7.3545154e+26
-7.7831022e+26
-7.1648716e+26
-6.9692024e+26
-7.2459228e+26
-7.2782024e+26
-7.2547635e+26
-9.464652e+26
-9.9370016e+26
-7.3631208e+26
-7.6291941e+26
-7.1073342e+26
-7.7082168e+26
-7.0907981e+26
-9.1745253e+26
-7.1949271e+26
-7.4496598e+26
-7.403392e+26
-7.1641394e+26
-6.7105577e+26
-6.5414088e+26
-7.066291e+26
-6.9403954e+26
-7.3754161e+26
-7.4601951e+26
-7.5738848e+26
-7.8798652e+26
-7.1621706e+26
-7.1222963e+26
-6.6919775e+26
-6.9968857e+26
-6.8351573e+26
-7.4095258e+26
-7.2226788e+26
-7.5734936e+26
-7.7510301e+26
-7.1899175e+26
-6.8106994e+26
-7.0344139e+26
-6.9567738e+26
-7.3553084e+26
-7.2227486e+26
-7.5981933e+26
-7.2673591e+26
-7.1623256e+26
-6.8190815e+26
-7.2812518e+26
-6.6617559e+26
-7.6591855e+26
-7.3193672e+26
-7.7626062e+26
-7.1636805e+26
-7.7495193e+26
-7.2778576e+26
-7.4462566e+26
-7.1465204e+26
-6.8001835e+26
-6.6450249e+26
-6.4774771e+26
-7.5591747e+26
-7.8671876e+26
-7.388638e+26
-7.3307862e+26
-7.3781225e+26
-7.7518157e+26
-7.4310696e+26
-7.2505974e+26
-6.7505664e+26
-6.6413476e+26
-6.4712212e+26
-6.3708964e+26
-6.6555262e+26
-7.2725883e+26
-9.2549475e+26
-1.3124067e+27
-8.5443107e+26
-7.503334e+26
-9.4534843e+26
-7.5466854e+26
-7.6418513e+26
-8.5642568e+26
-8.4060458e+26
-7.6329716e+26
-7.1550917e+26
-7.3514757e+26
-9.267721e+26
-8.0399125e+26
-8.2531094e+26
-6.2041395e+26
-1.3171689e+27
-9.019601e+26
-7.2121508e+26
-1.1023196e+27
-9.0550953e+26
-9.7132237e+26
-9.7820089e+26
-7.5019221e+26
-7.5573413e+26
-8.2142695e+26
-8.5591401e+26
-8.7478211e+26
-1.5065706e+27
-6.6061331e+26
-9.0087035e+26
-6.5599804e+26
-9.3527243e+26
-8.5486137e+26
-6.353644e+26
-9.6301984e+26
-1.0629545e+27
-7.5517355e+26
-5.3937358e+26
-5.4993047e+26
-4.2678145e+26
-7.812029e+26
-1.1000351e+27
-7.6384088e+26
-6.8878163e+26
-6.6718136e+26
-6.8187518e+26
-7.1583326e+26
-6.8468505e+26
-7.142646e+26
-6.985246e+26
-7.0362668e+26
-7.1470028e+26
-7.353488e+26
-7.2836676e+26
-7.0444189e+26
-7.431684e+26
-7.4563451e+26
-6.9451579e+26
-7.4394886e+26
-8.0868922e+26
-6.7426113e+26
-7.1703434e+26
-6.8461013e+26
-7.6975715e+26
-7.1574213e+26
-7.7525026e+26
-8.1191445e+26
-7.3459178e+26
-7.3011085e+26
-7.4095463e+26
-7.4128816e+26
-8.1464647e+26
-7.7773577e+26
-7.1995364e+26
-7.2696522e+26
-7.2740255e+26
-7.3602716e+26
-7.5101679e+26
-7.3714356e+26
-7.2551917e+26
-7.2856142e+26
-9.4894542e+26
-7.7295728e+26
-7.4143742e+26
-7.9199233e+26
-7.2402666e+26
-7.9108733e+26
-7.3159897e+26
-7.4494954e+26
-7.2006143e+26
-6.79491e+26
-7.0588218e+26
-6.8971912e+26
-7.4029155e+26
-7.3529918e+26
-7.5686062e+26
-7.7917906e+26
-7.2505675e+26
-6.8100514e+26
-7.0808462e+26
-6.9941602e+26
-7.3423726e+26
-7.2117342e+26
-7.5931529e+26
-7.2820156e+26
-7.1499794e+26
-6.8224728e+26
-7.2946154e+26
-6.6561123e+26
-7.2280569e+26
-7.3496672e+26
-7.2183317e+26
-7.5267771e+26
-7.3263741e+26
-6.8447113e+26
-7.2485579e+26
-6.7065116e+26
-6.9371865e+26
-7.3438265e+26
-6.472768e+26
-7.582739e+26
-7.8866012e+26
-7.4217929e+26
-7.3306897e+26
-7.3996775e+26
-7.7482826e+26
-7.4266729e+26
-7.267133e+26
-6.7554917e+26
-6.6403015e+26
-6.4713005e+26
-6.3728217e+26
-7.6605708e+26
-7.5321812e+26
-7.4863249e+26
-7.4401376e+26
-7.4411754e+26
-7.4598826e+26
-7.3453184e+26
-7.303118e+26
-6.795382e+26
-6.6403546e+26
-6.4645232e+26
-6.3688849e+26
-6.2110385e+26
-6.8480612e+26
-1.0698587e+27
-8.6369849e+26
-7.6927806e+26
-8.6456125e+26
-8.6612349e+26
-8.2615514e+26
-9.2608095e+26
-7.4451503e+26
-7.4396894e+26
-7.7620596e+26
-7.6870469e+26
-8.2423309e+26
-1.171735e+27
-7.7367152e+26
-1.0498414e+27
-8.141675e+26
-9.1897516e+26
-9.4252333e+26
-7.3257472e+26
-9.7485421e+26
-1.0747668e+27
-8.7091488e+26
-6.8233149e+26
-7.4377839e+26
-5.7108412e+26
-8.8608563e+26
-1.1189721e+27
-8.8327279e+26
-1.3830169e+27
-8.3625669e+26
-9.1788836e+26
-8.7172969e+26
-9.7876239e+26
-7.637422e+26
-2.2600122e+27
-1.3197683e+27
-8.8321254e+26
-7.6805119e+26
-4.5701956e+26
-4.4920947e+26
-6.2154693e+26
-1.0617943e+27
-8.2528335e+26
-1.0614233e+27
-7.132781e+26
-6.9877033e+26
-6.9671075e+26
-7.0762468e+26
-7.0415687e+26
-7.0133026e+26
-7.4062797e+26
-7.0545643e+26
-7.2095775e+26
-7.2532927e+26
-7.3730345e+26
-7.2379827e+26
-7.2660927e+26
-7.0594361e+26
-7.5225935e+26
-7.1697642e+26
-7.1765283e+26
-6.9567574e+26
-7.0002784e+26
-7.6921206e+26
-7.4290464e+26
-8.5823066e+26
-7.9633275e+26
-7.1789922e+26
-7.1568462e+26
-8.5734213e+26
-8.3196737e+26
-7.4229224e+26
-7.5511316e+26
-7.3842818e+26
-7.3361786e+26
-7.3461829e+26
-7.8374569e+26
-7.6510845e+26
-7.5246804e+26
-7.5930962e+26
-8.2300217e+26
-7.7711901e+26
-7.3473627e+26
-7.3623025e+26
-7.3217415e+26
-7.1954822e+26
-6.8840974e+26
-7.4180959e+26
-7.4392924e+26
-7.4012585e+26
-7.6303104e+26
-7.9374039e+26
-7.5037088e+26
-7.3736237e+26
-7.4925293e+26
-7.7401857e+26
-7.4588754e+26
-7.2950073e+26
-6.7873144e+26
-7.1676006e+26
-7.0562943e+26
-7.3420537e+26
-7.2351851e+26
-7.5600107e+26
-7.2989419e+26
-7.092416e+26
-6.8302267e+26
-7.3099342e+26
-6.6506418e+26
-7.2606668e+26
-7.3673354e+26
-7.2252658e+26
-7.5226535e+26
-7.3216483e+26
-6.8517085e+26
-7.2693722e+26
-6.7007028e+26
-6.9419087e+26
-7.3353916e+26
-6.4672687e+26
-7.3021747e+26
-7.379944e+26
-7.5417331e+26
-7.268632e+26
-7.1520544e+26
-6.9163867e+26
-6.7398343e+26
-9.093653e+26
-6.5178497e+26
-6.8110698e+26
-6.9850936e+26
-7.4023271e+26
-6.3571462e+26
-7.6597647e+26
-7.5587306e+26
-7.5003493e+26
-7.4413335e+26
-7.4649819e+26
-7.468076e+26
-7.3463479e+26
-7.3025015e+26
-6.791942e+26
-6.638955e+26
-6.4642578e+26
-6.370544e+26
-6.2131371e+26
-7.5900406e+26
-7.5185835e+26
-7.5022642e+26
-7.8610055e+26
-7.5867378e+26
-7.1245351e+26
-7.4768152e+26
-7.0069572e+26
-7.5619532e+26
-6.7138033e+26
-6.6419896e+26
-6.4475329e+26
-6.3505571e+26
-6.2105046e+26
-6.1511042e+26
-7.6743021e+26
-9.9153961e+26
-8.4540801e+26
-8.1195229e+26
-8.8636793e+26
-7.7233604e+26
-8.0150254e+26
-9.0074871e+26
-8.1252289e+26
-7.382511e+26
-7.4579594e+26
-7.6686131e+26
-8.3726588e+26
-1.043507e+27
-8.055035e+26
-1.6950638e+27
-9.1482935e+26
-9.8664179e+26
-9.4340973e+26
-1.0347603e+27
-9.2516762e+26
-2.0668068e+27
-1.5768161e+27
-9.5020223e+26
-8.7346581e+26
-5.6470093e+26
-5.884414e+26
-7.4675126e+26
-1.0713256e+27
-8.6110207e+26
-1.2404947e+27
-9.7692691e+26
-9.6072603e+26
-8.6083503e+26
-1.1296092e+27
-1.2759225e+27
-8.6620204e+26
-1.1379984e+27
-1.203581e+27
-9.6868258e+26
-1.1715462e+27
-9.4404495e+26
-5.6996534e+26
-4.5436495e+26
-6.5917029e+26
-8.6164768e+26
-7.6438522e+26
-1.2030289e+27
-1.2501706e+27
-7.2607775e+26
-6.9839958e+26
-7.5210058e+26
-7.0119072e+26
-7.0655124e+26
-6.7774697e+26
-7.2897058e+26
-7.3409991e+26
-7.3530272e+26
-7.3874663e+26
-7.2503172e+26
-6.9202514e+26
-7.2732871e+26
-6.6809387e+26
-7.8907314e+26
-8.9177749e+26
-9.104904e+26
-8.8853375e+26
-8.0897354e+26
-8.714253e+26
-7.2393137e+26
-7.5553419e+26
-7.2997214e+26
-7.3262767e+26
-7.1592714e+26
-7.5434227e+26
-7.4078655e+26
-7.4855046e+26
-7.5444384e+26
-7.6745579e+26
-7.5878962e+26
-8.6785795e+26
-8.2817829e+26
-7.4942119e+26
-7.2869437e+26
-7.0913094e+26
-6.9095895e+26
-6.7258561e+26
-7.4847037e+26
-7.6277082e+26
-7.5400353e+26
-7.6065146e+26
-7.5574972e+26
-7.3359462e+26
-7.2502976e+26
-6.8000616e+26
-6.6582515e+26
-7.3053265e+26
-7.3846582e+26
-7.2161265e+26
-6.8539623e+26
-7.2907458e+26
-6.6904494e+26
-6.9585588e+26
-7.212363e+26
-6.4668682e+26
-7.3137719e+26
-7.3846387e+26
-7.5341508e+26
-7.2810219e+26
-7.134211e+26
-6.9113917e+26
-6.7478199e+26
-8.8630593e+26
-6.5114939e+26
-6.8051449e+26
-6.9783139e+26
-7.3846225e+26
-6.356798e+26
-7.0099472e+26
-7.0387872e+26
-6.5621152e+26
-7.2317497e+26
-8.7517336e+26
-6.4293297e+26
-6.4489897e+26
-6.833033e+26
-6.2237303e+26
-7.5974916e+26
-7.5200468e+26
-7.5015665e+26
-7.8783944e+26
-7.6181706e+26
-7.1245903e+26
-7.4696611e+26
-6.9867316e+26
-7.5332789e+26
-6.7012911e+26
-6.6358068e+26
-6.4482777e+26
-6.3531787e+26
-6.2127461e+26
-6.1533556e+26
-8.4130134e+26
-8.0683922e+26
-7.4161565e+26
-6.9322362e+26
-6.567315e+26
-6.5819577e+26
-6.4172674e+26
-6.3524214e+26
-6.1863546e+26
-6.1518139e+26
-6.0983754e+26
-1.2724206e+27
-9.131838e+26
-8.9896555e+26
-8.4527095e+26
-8.1076088e+26
-1.1255064e+27
-8.7541304e+26
-8.2690926e+26
-6.9117466e+26
-7.5291737e+26
-8.5058301e+26
-9.5105099e+26
-7.7957758e+26
-9.3182773e+26
-1.0548288e+27
-9.9922637e+26
-9.4616826e+26
-1.1011657e+27
-1.2128189e+27
-9.3914556e+26
-1.1797748e+27
-1.177132e+27
-1.1259829e+27
-1.1989433e+27
-9.6833446e+26
-6.7114586e+26
-5.5854102e+26
-7.9596165e+26
-1.0452986e+27
-8.0880483e+26
-1.3531134e+27
-1.3252519e+27
-9.5339514e+26
-1.1781991e+27
-1.3272771e+27
-6.2786934e+26
-1.0183386e+27
-1.8673942e+27
-9.0945639e+26
-7.3485282e+26
-8.8547755e+26
-9.5407899e+26
-1.0578824e+27
-2.108727e+27
-1.3325947e+27
-1.3571417e+27
-6.8641297e+26
-6.9728923e+26
-6.6705155e+26
-6.5913025e+26
-7.5494396e+26
-8.1677665e+26
-7.09355e+26
-6.8752495e+26
-6.2914411e+26
-7.6250179e+26
-7.3295398e+26
-7.3405936e+26
-7.3505333e+26
-7.3911999e+26
-7.47477e+26
-7.0195718e+26
-7.0670621e+26
-6.8305656e+26
-7.0060517e+26
-7.2826257e+26
-9.0364788e+26
-1.0254377e+27
-9.597043e+26
-1.0009621e+27
-8.7714817e+26
-7.2715377e+26
-7.1576201e+26
-8.0979156e+26
-7.2710649e+26
-6.9893621e+26
-7.0747586e+26
-6.7458744e+26
-7.584618e+26
-7.5259996e+26
-7.4624991e+26
-7.4846736e+26
-7.5071422e+26
-8.2391983e+26
-8.854695e+26
-7.077561e+26
-6.7994277e+26
-6.706972e+26
-6.5792712e+26
-7.9484861e+26
-7.805786e+26
-7.1808146e+26
-6.9285313e+26
-6.694377e+26
-6.6500204e+26
-6.4708687e+26
-7.0451774e+26
-6.8613599e+26
-6.7548408e+26
-8.4561212e+26
-6.5182361e+26
-6.797804e+26
-6.9645858e+26
-6.3494281e+26
-7.0024061e+26
-7.0252895e+26
-6.5569494e+26
-7.2337679e+26
-8.6614687e+26
-6.4263885e+26
-6.4488608e+26
-6.8303957e+26
-6.2239746e+26
-6.9000253e+26
-7.0252051e+26
-6.7786084e+26
-6.4022042e+26
-7.2430925e+26
-6.2617911e+26
-6.5523384e+26
-6.1598577e+26
-8.4351106e+26
-8.0701365e+26
-7.4316253e+26
-6.9241653e+26
-6.554643e+26
-6.5737346e+26
-6.4147234e+26
-6.3550475e+26
-6.1907989e+26
-6.1539211e+26
-6.0980364e+26
-7.6133573e+26
-7.1587388e+26
-7.270288e+26
-6.5835816e+26
-6.4401393e+26
-6.4447814e+26
-6.2576776e+26
-6.2689792e+26
-6.1422444e+26
-6.0990869e+26
-6.0673384e+26
-7.6008791e+26
-8.2010195e+26
-8.9013168e+26
-8.7223415e+26
-9.499764e+26
-9.0064938e+26
-7.6042273e+26
-7.3422528e+26
-8.3292344e+26
-8.4778846e+26
-7.3715854e+26
-8.6447376e+26
-9.9068228e+26
-1.0525024e+27
-1.171664e+27
-1.445245e+27
-7.5923162e+26
-1.0411945e+27
-1.9834701e+27
-1.1137696e+27
-8.43806e+26
-9.2060742e+26
-1.1395955e+27
-1.1556251e+27
-2.0061674e+27
-1.4147918e+27
-1.3305854e+27
-1.05871e+27
-1.0834738e+27
-1.3503131e+27
-1.0333473e+27
-9.1225678e+26
-1.208354e+27
-9.9060095e+26
-1.4937361e+27
-9.8288543e+26
-9.4085041e+26
-1.0401112e+27
-8.4298751e+26
-1.5113675e+27
-1.3747231e+27
-6.8273512e+26
-6.6095723e+26
-7.0337609e+26
-6.9960635e+26
-7.0705899e+26
-6.7461205e+26
-6.6644761e+26
-7.136498e+26
-7.3938944e+26
-7.8818059e+26
-8.589235e+26
-8.1506637e+26
-7.7480115e+26
-8.7358487e+26
-7.0464403e+26
-7.0390607e+26
-6.6578427e+26
-7.1716476e+26
-7.8259505e+26
-6.8779132e+26
-6.9385187e+26
-6.8465281e+26
-6.7882437e+26
-6.9947349e+26
-8.0185921e+26
-7.6283759e+26
-7.2280468e+26
-6.8572524e+26
-8.0928865e+26
-7.6458537e+26
-7.0636452e+26
-6.5572208e+26
-6.7343541e+26
-6.5788632e+26
-9.4328026e+26
-8.6333876e+26
-8.8018981e+26
-1.0128286e+27
-1.0137215e+27
-6.3520759e+26
-6.3456323e+26
-6.3064943e+26
-6.4967385e+26
-6.4533748e+26
-6.3517971e+26
-6.3605401e+26
-8.7133694e+26
-8.0745939e+26
-7.5273497e+26
-6.9441112e+26
-6.5722151e+26
-6.5869743e+26
-6.4235867e+26
-6.3590175e+26
-6.9954723e+26
-6.9718948e+26
-6.5405016e+26
-7.1192969e+26
-8.3448275e+26
-6.4244273e+26
-6.450217e+26
-6.8527185e+26
-6.2114813e+26
-6.9007138e+26
-7.0213987e+26
-6.7750658e+26
-6.3999817e+26
-7.1096659e+26
-6.2595304e+26
-6.5575514e+26
-6.1586276e+26
-6.6920447e+26
-6.9802437e+26
-6.865204e+26
-6.6717501e+26
-6.3726408e+26
-7.1309888e+26
-6.2131424e+26
-6.3637055e+26
-6.0868727e+26
-7.626242e+26
-7.177554e+26
-7.2706414e+26
-6.582706e+26
-6.4355194e+26
-6.4417911e+26
-6.2513655e+26
-6.2705269e+26
-6.1416806e+26
-6.0987095e+26
-6.0667402e+26
-7.0791662e+26
-7.1393579e+26
-7.3124821e+26
-6.8243403e+26
-6.4555929e+26
-6.3854605e+26
-6.3007293e+26
-6.1297108e+26
-6.1038048e+26
-6.0684145e+26
-6.0066998e+26
-8.4602062e+26
-8.2082449e+26
-9.7844639e+26
-7.2197959e+26
-8.8120707e+26
-1.0451615e+27
-1.0481169e+27
-8.3697173e+26
-7.5103209e+26
-8.3121078e+26
-8.0330987e+26
-4.9644357e+26
-9.7501196e+26
-8.5919737e+26
-1.0473872e+27
-1.0779491e+27
-1.3758736e+27
-1.0940633e+27
-8.5967293e+26
-1.5353286e+27
-1.0944464e+27
-1.8254483e+27
-1.0594574e+27
-9.9407275e+26
-1.1396884e+27
-9.3756234e+26
-1.6306425e+27
-1.3535377e+27
-7.744461e+26
-6.0818862e+26
-1.4554549e+27
-1.0119953e+27
-1.096251e+27
-1.0196227e+27
-8.645429e+26
-1.6070368e+27
-2.3650276e+27
-1.2570279e+27
-9.196454e+26
-5.6188857e+26
-8.2490733e+26
-6.501851e+26
-3.3577512e+26
-6.4810972e+26
-6.5248303e+26
-6.8049658e+26
-7.1354559e+26
-6.7656448e+26
-6.9830105e+26
-7.3340169e+26
-7.0303759e+26
-7.0647498e+26
-6.943155e+26
-6.299054e+26
-8.5293984e+26
-7.0288605e+26
-7.3479431e+26
-8.0939715e+26
-7.6926196e+26
-8.7456455e+26
-7.0428107e+26
-6.7405272e+26
-6.9147808e+26
-6.722661e+26
-7.3752944e+26
-8.7898513e+26
-6.598722e+26
-6.590882e+26
-6.4845597e+26
-7.04071e+26
-8.6197231e+26
-7.6933132e+26
-7.2593548e+26
-6.9209634e+26
-7.4017024e+26
-7.0556578e+26
-6.4541361e+26
-7.6480528e+26
-7.3343698e+26
-6.6161651e+26
-6.422753e+26
-6.3661147e+26
-1.2350131e+27
-9.3183324e+26
-9.2465014e+26
-9.767054e+26
-6.4706312e+26
-6.1372535e+26
-6.2402415e+26
-6.2254101e+26
-6.1978447e+26
-6.4244796e+26
-6.3316088e+26
-6.2452905e+26
-7.2760443e+26
-7.296972e+26
-6.6288049e+26
-6.460387e+26
-6.45012e+26
-6.2583575e+26
-6.9311889e+26
-7.0250845e+26
-6.7801573e+26
-6.4047101e+26
-6.5859352e+26
-6.1389362e+26
-6.6973642e+26
-6.9794675e+26
-6.8635871e+26
-6.6768314e+26
-6.3604449e+26
-7.0854231e+26
-6.2098179e+26
-6.3613875e+26
-6.0877356e+26
-6.4625877e+26
-6.7698353e+26
-6.8834038e+26
-6.7687005e+26
-6.5943692e+26
-6.9474594e+26
-6.5833656e+26
-6.1214696e+26
-6.2832646e+26
-6.0571989e+26
-7.0596464e+26
-7.1467666e+26
-7.3132453e+26
-6.8244022e+26
-6.4582418e+26
-6.3829723e+26
-6.2977848e+26
-6.1301517e+26
-6.1031441e+26
-6.0678405e+26
-6.0073076e+26
-7.6906075e+26
-7.0607119e+26
-7.2858048e+26
-6.9651883e+26
-6.6466326e+26
-6.3815245e+26
-6.3541166e+26
-6.0949932e+26
-6.2842561e+26
-6.0768849e+26
-6.0070359e+26
-5.9856429e+26
-8.2953569e+26
-7.6143952e+26
-9.0874818e+26
-6.1913576e+26
-1.1183805e+27
-9.8431385e+26
-9.0358169e+26
-7.1546703e+26
-7.9006673e+26
-8.3937708e+26
-9.0349115e+26
-8.4068575e+26
-8.8495656e+26
-7.5303218e+26
-1.3248206e+27
-1.0491772e+27
-1.1427708e+27
-1.0830944e+27
-9.982619e+26
-1.5820432e+27
-2.3437275e+27
-1.2057286e+27
-9.6663294e+26
-7.170573e+26
-9.1108773e+26
-7.0879367e+26
-5.1155456e+26
-6.5259297e+26
-7.1236389e+26
-7.2274003e+26
-1.5155546e+27
-8.990364e+26
-9.1204446e+26
-1.1274278e+27
-1.7472857e+27
-7.5409652e+26
-1.2435659e+27
-6.056109e+26
-9.5596134e+26
-6.6555628e+26
-4.5776784e+26
-1.2931002e+27
-7.7588295e+26
-6.7412478e+26
-6.6591585e+26
-6.5617488e+26
-6.6109913e+26
-6.409494e+26
-6.7169139e+26
-6.5393616e+26
-6.7270907e+26
-6.9460914e+26
-6.8552617e+26
-6.8817391e+26
-7.0624743e+26
-6.9098435e+26
-7.4768909e+26
-7.1859313e+26
-6.8496019e+26
-7.052405e+26
-7.2660816e+26
-7.2955672e+26
-6.9697161e+26
-6.565176e+26
-6.9762116e+26
-7.2085302e+26
-6.5618159e+26
-6.584788e+26
-6.588021e+26
-7.1701131e+26
-8.2766777e+26
-6.8492256e+26
-6.3346055e+26
-6.3238931e+26
-8.5486745e+26
-6.7899704e+26
-8.0735198e+26
-7.1027791e+26
-6.9835598e+26
-8.0742518e+26
-8.4861754e+26
-7.2683139e+26
-6.446082e+26
-6.6101624e+26
-6.6319947e+26
-7.273541e+26
-6.8290414e+26
-6.7720612e+26
-7.2402637e+26
-6.4525011e+26
-6.3564846e+26
-6.2581408e+26
-6.3497103e+26
-6.1883676e+26
-6.6473662e+26
-6.1676037e+26
-6.1362162e+26
-6.2613101e+26
-6.1151e+26
-6.3795135e+26
-7.3385542e+26
-6.8512553e+26
-6.4952325e+26
-6.3942679e+26
-6.7198661e+26
-6.999491e+26
-6.8817196e+26
-6.7072995e+26
-6.0999277e+26
-6.4594111e+26
-6.7707888e+26
-6.8810932e+26
-6.7698462e+26
-6.6001224e+26
-6.940557e+26
-6.5828307e+26
-6.1212987e+26
-6.2824482e+26
-6.0577733e+26
-6.5460033e+26
-6.7668524e+26
-6.7807809e+26
-6.6443886e+26
-7.0817042e+26
-6.4610902e+26
-6.4805964e+26
-6.123822e+26
-6.0530337e+26
-6.3761811e+26
-6.0135077e+26
-7.655746e+26
-7.0569195e+26
-7.2758716e+26
-6.96058e+26
-6.6470811e+26
-6.3826971e+26
-6.3528263e+26
-6.0948903e+26
-6.2862026e+26
-6.076574e+26
-6.0078679e+26
-5.9862145e+26
-7.5009132e+26
-7.080627e+26
-6.722495e+26
-6.9017913e+26
-6.7513806e+26
-6.5349707e+26
-6.361084e+26
-6.2258867e+26
-6.0976083e+26
-6.4075415e+26
-6.0129338e+26
-5.9857523e+26
-5.9579713e+26
-7.8729937e+26
-7.8881599e+26
-9.0684501e+26
-8.2655018e+26