/*--------------------------------*- C++ -*----------------------------------*\
  =========                 |
  \\      /  F ield         | OpenFOAM: The Open Source CFD Toolbox
   \\    /   O peration     | Website:  https://openfoam.org
    \\  /    A nd           | Version:  7
     \\/     M anipulation  |
\*---------------------------------------------------------------------------*/
FoamFile
{
    version     2.0;
    format      ascii;
    class       volVectorField;
    location    "2000";
    object      UMean;
}
// * * * * * * * * * * * * * * * * * * * * * * * * * * * * * * * * * * * * * //

dimensions      [0 1 -1 0 0 0 0];

internalField   nonuniform List<vector> 
34124
(
(-1.2814579e+12 -6.0657332e+11 -9.531775e+11)
(-6.4184542e+11 -5.6666155e+11 -1.0481582e+12)
(-8.9015579e+11 -9.4690515e+11 -1.7081818e+11)
(5.8205081e+11 -2.7724305e+11 -1.01929e+12)
(-8.0006483e+11 -5.4572232e+11 -1.0445241e+12)
(-4.7366054e+11 -8.0782657e+11 -5.8143399e+11)
(2.5756063e+11 -4.3421961e+11 -9.9868642e+11)
(-1.8549528e+11 -6.8435323e+11 -1.0259846e+11)
(-2.2462968e+12 -5.6898456e+11 -5.7752963e+11)
(3.3044577e+11 -5.1360853e+11 -2.8098533e+11)
(-8.8226077e+11 -5.4553945e+11 -1.167337e+12)
(-5.0754298e+11 -7.1421304e+11 -8.5391887e+11)
(2.6468405e+11 -5.9959652e+11 -9.128065e+11)
(-1.6940883e+11 -8.38808e+11 -3.190451e+11)
(-7.057525e+11 -7.0653621e+11 -9.2180958e+11)
(1.5394752e+11 -5.7464194e+11 -7.9563372e+11)
(-6.0305972e+11 -5.4998913e+11 3.0079554e+11)
(-1.1664418e+12 -4.0585231e+11 -5.3644738e+11)
(-3.600964e+11 -5.8779837e+11 -6.0604101e+11)
(-1.6771968e+12 -1.1588851e+12 -1.4331474e+12)
(5.0431965e+11 -5.2256492e+11 -1.0185347e+12)
(-7.5715757e+11 -4.5843528e+11 -1.0495111e+12)
(-9.6643576e+11 -4.4343148e+11 -1.1266668e+12)
(-5.6688141e+11 -6.7146013e+11 -7.0059806e+11)
(-6.4362261e+11 -8.7627073e+11 -1.0248585e+12)
(1.4604683e+11 -6.9042744e+11 -9.9762712e+11)
(-1.0366876e+12 -6.0760904e+11 -2.0764844e+11)
(-3.6583801e+10 -8.2383737e+11 -4.4537352e+11)
(-1.6449095e+11 -7.076391e+11 -6.0946624e+11)
(-4.7876277e+11 -8.8222426e+11 -1.8393577e+12)
(-2.0201756e+12 -7.6105445e+11 2.3168415e+11)
(-8.7924305e+11 -2.4845151e+11 -4.6297903e+11)
(-1.0049495e+11 -4.6335233e+11 -4.3263989e+11)
(3.8251869e+10 -9.993822e+11 -5.9586069e+11)
(1.0576453e+12 -5.6012082e+11 -1.5513962e+12)
(4.8847919e+11 -4.9015166e+11 -1.1799201e+12)
(-4.3806297e+10 -4.7190289e+11 -1.0910256e+12)
(-4.5872823e+11 -4.2284976e+11 -9.8842571e+11)
(-9.2099779e+11 -3.7921332e+11 -9.2463529e+11)
(-1.1389561e+12 -2.3541397e+11 -1.1849019e+12)
(-1.6041756e+12 -4.5802453e+11 -9.9945043e+11)
(-1.6183006e+12 -3.1631677e+11 -6.4523038e+11)
(-5.4067784e+11 -8.8292109e+11 -7.2487647e+11)
(-2.4372374e+11 -7.6710412e+11 -8.3478967e+11)
(-4.2791156e+11 -6.7735379e+11 -1.6201032e+12)
(-9.8843706e+11 -8.6788573e+11 -7.6825247e+10)
(-1.5860211e+12 5.4951867e+10 1.543794e+11)
(1.127097e+11 -8.0017318e+11 -2.784198e+11)
(-4.4275786e+11 -1.1130242e+12 -9.6032436e+11)
(7.7820768e+11 -2.714246e+11 -1.4574136e+12)
(-5.6750208e+11 -6.7843936e+11 -2.3480692e+11)
(-8.3298823e+11 -1.7584276e+11 -1.2509123e+10)
(8.7664063e+11 8.2016575e+11 4.6789532e+10)
(-2.6338791e+11 -1.1890562e+11 -3.2470636e+11)
(1.218898e+12 3.8771081e+11 -5.7036918e+11)
(-1.1039797e+12 -7.4050417e+11 -9.6549967e+11)
(-1.5282547e+11 -3.477825e+11 -1.1416035e+12)
(-1.0009913e+12 -4.184869e+11 -1.3897962e+12)
(-1.6764699e+11 -3.9196425e+11 -9.7102331e+11)
(-5.480524e+11 -4.2255558e+11 -9.1978064e+11)
(-5.3594081e+11 -1.8209121e+11 -1.1300942e+12)
(-1.606891e+12 -4.5724966e+11 -9.5487145e+11)
(-2.2679782e+12 1.8996875e+11 -7.999711e+11)
(-1.5855997e+12 -4.0816625e+10 -1.1439369e+12)
(-2.0454423e+12 -2.1819695e+11 -1.0009456e+12)
(-2.0246923e+12 -5.3213797e+11 -7.7881282e+11)
(-1.3497799e+12 -3.947217e+11 -6.2809537e+11)
(-2.7981157e+12 -1.7283049e+10 -9.3338865e+10)
(-6.0031719e+11 -8.5359748e+11 -7.4884568e+11)
(-3.8237354e+11 -7.2282967e+11 -1.0126968e+12)
(-3.3987454e+11 -4.4252238e+11 -9.9287812e+11)
(-4.2876093e+11 -5.7159153e+11 -1.2292246e+10)
(-1.5150628e+12 2.6700987e+11 5.8261362e+11)
(8.48053e+11 1.1108235e+12 1.5922697e+11)
(9.6546259e+10 -4.8492979e+11 -7.2897684e+11)
(1.0070609e+12 2.1771095e+11 -9.8979578e+11)
(-9.1854955e+11 -5.9552508e+11 -8.7742313e+11)
(-1.2177463e+12 -5.0545546e+11 -8.1391393e+11)
(-3.7425645e+11 -1.3724108e+11 1.2233385e+12)
(1.013912e+12 -4.2397818e+10 7.5149827e+11)
(1.5384909e+12 2.6789797e+11 2.9778799e+11)
(1.4614177e+12 4.0699097e+11 -5.5963179e+11)
(-4.7904029e+11 -5.7908547e+11 -5.2010939e+11)
(4.1285466e+11 -2.7360862e+11 -1.1744427e+12)
(-5.5182318e+11 -3.112222e+11 -9.8892577e+11)
(-1.0000062e+11 -2.6416253e+11 -1.1735569e+12)
(-4.4385897e+11 -7.2338969e+10 -1.1023226e+12)
(-1.5990378e+12 -4.8256345e+11 -8.3384008e+11)
(-2.1553744e+12 -4.8481412e+11 -8.4574339e+11)
(-1.4700184e+12 -4.8778242e+11 -8.826631e+11)
(-1.7778255e+12 2.7123626e+11 -7.6371708e+11)
(-1.229124e+12 4.0131795e+10 -1.0918819e+12)
(-1.9067086e+12 -2.0091968e+11 -1.0109198e+12)
(-2.2845769e+12 -5.4881765e+11 -7.6327922e+11)
(-3.0118106e+12 1.6521211e+10 -5.3244236e+11)
(-2.9514139e+12 3.0536225e+11 -9.0579487e+11)
(-2.2695511e+12 -9.4245934e+08 -9.7816457e+11)
(-2.5347152e+12 -4.0754291e+11 -7.7654144e+11)
(-2.3757145e+12 -6.379822e+11 -7.0433049e+11)
(-1.4044307e+12 -2.0865312e+11 -5.2473442e+11)
(-1.9359044e+12 2.6300012e+11 3.3475602e+11)
(3.1093482e+11 5.6109785e+11 1.3436734e+11)
(-1.1501956e+11 -5.4992715e+11 -9.0923003e+11)
(6.3558485e+11 -1.7234341e+10 -9.3846963e+11)
(-1.172656e+12 -4.9442672e+11 -4.7523045e+11)
(-5.9598542e+11 -2.1769356e+11 -8.0097043e+11)
(-1.0687949e+12 1.7154049e+11 1.2865414e+12)
(1.7943065e+10 4.4866719e+11 7.9420888e+11)
(1.4671117e+12 4.208947e+11 1.6099172e+11)
(1.778252e+12 5.929331e+10 -9.8190092e+11)
(-9.4460874e+11 -3.8205307e+11 -7.9638685e+11)
(2.0956571e+11 -1.8265707e+11 -7.5739373e+11)
(6.8775286e+11 5.1529481e+11 -1.6606531e+11)
(-2.7522225e+12 9.2097069e+10 -2.8921967e+10)
(3.6894891e+11 -2.0492757e+11 2.2047024e+12)
(2.1596829e+12 1.6080024e+11 1.4698024e+12)
(1.306235e+12 -7.9057682e+11 1.0129701e+12)
(4.842326e+11 1.7353167e+11 -1.370906e+11)
(1.2236811e+12 2.2820065e+10 -4.8084388e+11)
(1.0233412e+11 -1.8362827e+11 -1.3648494e+11)
(-2.2256778e+12 3.3547292e+11 -7.5032333e+11)
(-3.5015105e+11 -1.7589081e+11 -1.0191743e+12)
(-1.2528559e+12 1.7245629e+11 -1.0984775e+12)
(-7.7521307e+11 -2.244361e+11 -8.6632405e+11)
(-7.8002433e+11 -1.3570759e+11 -9.7596992e+11)
(-1.727575e+12 -1.9330615e+11 -9.4441841e+11)
(-2.4074102e+12 -4.7209096e+11 -7.3090323e+11)
(-1.9542879e+12 -3.8807483e+11 -3.4169784e+11)
(-3.0453773e+12 -6.5355896e+11 -6.7004928e+11)
(-2.2666154e+12 -5.7898768e+11 -7.1843598e+11)
(-1.8636406e+12 3.7715312e+11 -3.6124054e+11)
(-2.5213376e+12 3.9499707e+11 -8.5829881e+11)
(-2.1704238e+12 3.6432514e+10 -9.8661555e+11)
(-2.5224068e+12 -4.2089888e+11 -7.7958131e+11)
(-2.6279576e+12 -6.484818e+11 -6.7983547e+11)
(-1.1371982e+12 3.8376702e+10 -1.6718667e+11)
(-3.2150814e+12 1.7847842e+11 -6.6098375e+11)
(-3.0460877e+12 2.9850525e+11 -8.8491666e+11)
(-2.7504016e+12 -2.937512e+11 -8.0070029e+11)
(-2.6433169e+12 -5.8397445e+11 -7.1438776e+11)
(-2.5279972e+12 -7.3185385e+11 -7.4078094e+11)
(-1.0836997e+12 1.7549016e+11 -8.3924704e+11)
(-1.5980457e+12 2.3128487e+11 5.6291135e+11)
(-1.0324517e+12 5.0113259e+11 5.8265947e+11)
(6.5411422e+11 4.8394318e+11 6.7761615e+10)
(1.1533673e+12 6.1476953e+10 -1.0015838e+12)
(-1.674188e+12 -2.8938606e+11 -7.0681117e+11)
(-3.2524121e+11 -3.7117628e+11 -3.3997321e+11)
(2.5084406e+11 3.9822755e+11 -4.1872879e+11)
(-2.1704392e+12 3.9272659e+11 3.9823914e+11)
(-5.6483967e+11 2.6907424e+11 2.051713e+12)
(1.9644448e+12 4.6703861e+11 1.1408358e+12)
(1.1704745e+11 -3.9973492e+11 7.4150999e+11)
(6.8650418e+11 1.0396503e+11 -2.3124262e+11)
(7.8405312e+11 6.0962059e+10 -2.5741017e+11)
(-4.2700976e+11 1.081298e+09 9.666689e+09)
(3.0581274e+11 6.392859e+11 3.6058788e+11)
(-8.4653248e+11 3.1809327e+11 9.2778557e+11)
(-3.9450916e+12 9.8255662e+10 7.6597143e+11)
(5.2892783e+11 1.03484e+10 1.1548379e+12)
(1.418206e+12 -4.3798814e+11 2.478005e+12)
(1.3835293e+12 -3.4011311e+10 3.0481927e+11)
(1.6226824e+12 6.7572166e+11 2.3833527e+11)
(1.0999674e+12 -2.9252718e+10 9.984016e+10)
(3.9802924e+11 -9.0408521e+10 1.7275813e+11)
(-1.8411952e+12 4.8376051e+11 -7.8803885e+11)
(-2.0213773e+12 4.4617116e+11 -1.5190966e+11)
(-2.5282848e+12 4.7117147e+11 -8.780445e+11)
(-7.62744e+10 7.0319823e+10 -9.3430243e+11)
(-9.3480498e+11 1.5301966e+11 -9.6265758e+11)
(-1.7419288e+12 6.4424117e+10 -9.9084803e+11)
(-1.4597517e+12 -2.4885713e+11 -9.0887399e+11)
(-1.7289494e+12 -2.5039051e+11 -5.0398869e+11)
(-2.6554734e+12 -4.6783935e+11 -8.1730487e+11)
(-2.841325e+12 -4.6076989e+11 -7.5444418e+11)
(-2.7685073e+12 -4.8788144e+11 -5.2394239e+11)
(-3.2428027e+12 -6.4080188e+11 -6.7658107e+11)
(-1.1311558e+12 -4.951545e+11 -4.6309764e+11)
(-3.0441618e+12 -6.4568254e+11 -6.1375422e+11)
(-2.7848554e+12 -6.5583237e+11 -6.6728371e+11)
(-6.3877704e+11 4.3545325e+11 2.6811619e+11)
(-2.6656593e+12 3.2731894e+11 -5.7988673e+11)
(-2.7510474e+12 3.6817677e+11 -9.3119987e+11)
(-2.6944044e+12 -2.7692322e+11 -8.2894037e+11)
(-2.7676327e+12 -5.925984e+11 -7.0656137e+11)
(-2.7677541e+12 -7.7093477e+11 -6.7763423e+11)
(-3.6794032e+11 5.3819868e+11 -1.5389053e+11)
(-2.7287028e+12 1.9974639e+11 -4.653875e+11)
(-2.9903971e+12 3.772603e+11 -7.5678127e+11)
(-3.1567026e+12 -8.6139409e+10 -8.147105e+11)
(-2.8750149e+12 -5.5414026e+11 -7.3947875e+11)
(-2.705472e+12 -6.7732969e+11 -7.7084381e+11)
(-3.090247e+12 -7.9906229e+11 -8.3215746e+11)
(-4.9342896e+11 3.9000281e+11 -5.943979e+11)
(-1.4616091e+12 6.6395782e+11 1.3362279e+11)
(-9.5337983e+11 5.072168e+11 1.0737047e+12)
(1.2905251e+12 5.5147304e+11 7.4623565e+11)
(-9.5521091e+11 7.4521421e+10 3.7109945e+11)
(-3.2212402e+10 -5.0414662e+10 -3.4974184e+11)
(3.5086674e+11 -1.1078249e+11 -2.4805247e+11)
(-9.9693036e+11 -4.1865082e+11 -1.058799e+11)
(3.7136036e+11 9.3042112e+11 1.7644303e+11)
(-3.2954901e+11 1.4189408e+11 8.4420517e+11)
(-2.5414653e+12 2.1930688e+11 6.7042001e+11)
(1.0586984e+12 5.2104786e+11 7.8014632e+11)
(1.0702803e+12 -1.1770747e+11 2.3155745e+12)
(1.129596e+12 2.5109052e+11 2.7523961e+11)
(1.7900926e+12 6.7257886e+11 2.9243039e+11)
(1.4069994e+12 3.0892499e+11 -9.828673e+10)
(2.8898875e+11 3.4407838e+10 2.9356655e+11)
(1.3010857e+11 5.9587728e+11 8.3129974e+11)
(-5.164352e+11 4.3910911e+11 -1.1101016e+12)
(1.3748602e+12 8.5705269e+10 4.9905422e+11)
(-4.2602805e+11 -2.7203974e+11 2.7175499e+12)
(9.2726456e+11 -4.3875484e+11 2.3073976e+12)
(9.4566692e+11 2.0857777e+11 1.7087212e+12)
(2.5335053e+12 -1.0535158e+12 3.3200438e+11)
(1.1520268e+12 1.8421507e+11 -2.960411e+09)
(2.6549213e+12 3.711957e+11 4.5628581e+11)
(3.935361e+11 -4.1047289e+11 -1.113843e+12)
(-1.2621041e+12 4.4378823e+11 -8.1161145e+11)
(-2.0210839e+12 5.7580746e+11 -8.4305393e+11)
(-1.2013667e+12 6.726996e+11 -1.2860954e+11)
(-9.4736268e+11 4.3338328e+11 3.1658066e+11)
(-2.5668766e+12 4.7975403e+11 -4.3538881e+11)
(-2.1497632e+12 4.4161206e+11 -9.887182e+11)
(-1.0407288e+12 5.0657916e+10 -9.8833321e+11)
(-7.6037678e+11 2.5442679e+10 -5.2107069e+11)
(-2.0094907e+12 -7.6656142e+10 -9.2640404e+11)
(-2.3743638e+12 -2.6354968e+11 -8.4758012e+11)
(-1.9680546e+12 -3.8287861e+11 -4.0117335e+11)
(-2.6982857e+12 -5.4100616e+11 -7.5866906e+11)
(-5.6728696e+11 -2.9358996e+11 -4.7616566e+11)
(-3.1799409e+12 -5.6909448e+11 -7.4605083e+11)
(-2.7955353e+12 -5.795075e+11 -7.1452734e+11)
(-3.0890567e+12 -6.4094735e+11 -5.9109867e+11)
(-1.8876649e+12 -5.1733484e+11 -5.4173507e+11)
(-3.0884916e+12 -6.8535464e+11 -6.0272342e+11)
(-1.88373e+12 -7.7980935e+11 -1.198824e+11)
(-3.4372616e+12 -6.521223e+11 -6.6124549e+11)
(-2.8925238e+12 -7.9310846e+11 -6.4058137e+11)
(4.2784215e+11 7.1078815e+11 4.4163431e+11)
(-2.2064302e+12 3.4852328e+11 -2.2941308e+11)
(-2.728535e+12 4.5951003e+11 -7.4824265e+11)
(-3.031441e+12 -6.054029e+10 -8.5464743e+11)
(-2.878791e+12 -5.5001511e+11 -7.5079559e+11)
(-2.7978866e+12 -7.1622215e+11 -7.2560659e+11)
(-3.3550612e+12 -8.4420339e+11 -7.5501879e+11)
(-2.4068958e+12 7.8624449e+11 -3.8793379e+11)
(-1.8143142e+12 8.6891923e+11 1.1670876e+11)
(-3.3407261e+12 3.8045341e+11 -6.6568689e+11)
(-3.1328739e+12 1.8234365e+11 -8.0660144e+11)
(-3.4909146e+12 -4.9109302e+11 -7.5387409e+11)
(-2.9302178e+12 -6.7224754e+11 -7.9313556e+11)
(-3.1004831e+12 -7.470555e+11 -8.6207247e+11)
(-3.3620022e+12 -7.2409025e+11 -6.9143996e+11)
(-2.3559056e+11 7.0518463e+11 1.9285046e+10)
(-1.0957331e+12 3.5305192e+11 4.7350214e+11)
(-1.9492233e+12 2.3313128e+11 4.7881132e+11)
(8.0576885e+11 7.6473331e+11 7.8887099e+11)
(-5.6301139e+11 3.0622747e+11 1.3828843e+12)
(2.2489874e+11 4.4147533e+11 2.1951915e+11)
(1.2198177e+12 4.3675088e+11 1.8547288e+11)
(1.0147825e+12 9.787173e+10 -2.9687266e+11)
(-3.6077258e+11 -4.0349567e+11 2.9099578e+11)
(3.1388097e+11 8.4537564e+11 7.4494198e+11)
(-7.3991345e+11 5.579857e+11 -4.6943948e+11)
(1.8895535e+12 3.4946512e+11 7.1393266e+11)
(-4.4414665e+11 2.5725807e+11 1.9939333e+12)
(1.2879764e+12 -2.2249198e+10 2.3851822e+12)
(7.355576e+11 4.8567191e+11 1.2070836e+12)
(2.1223078e+12 -1.1306273e+12 2.0463236e+11)
(1.1405832e+12 4.6680393e+11 -1.045959e+11)
(3.4825362e+12 4.8756889e+11 3.3224703e+11)
(-2.0584482e+11 -2.8416416e+11 -5.1416515e+11)
(-1.0947878e+12 7.566633e+11 2.4171636e+11)
(-1.8482858e+12 -1.2754512e+11 5.29386e+11)
(-2.2693489e+12 1.0254534e+12 1.5236921e+12)
(9.6775248e+11 3.3716593e+11 5.8816555e+11)
(-1.9349068e+11 -5.6349515e+11 2.9761576e+12)
(1.0550994e+12 -1.8255639e+11 2.0974045e+12)
(1.4561865e+12 -1.4981967e+12 1.7639402e+12)
(-3.9355431e+11 -1.2970346e+12 -1.143585e+12)
(2.6746716e+11 5.5277507e+11 4.9027176e+11)
(9.8552809e+11 2.6868797e+11 -7.8806458e+11)
(-8.0592676e+11 -1.8861237e+12 -5.7886139e+11)
(-1.7060436e+12 5.6000716e+11 -1.1343011e+11)
(-1.4082387e+12 4.3067586e+11 -9.1225553e+11)
(-4.264557e+11 5.1008896e+11 -3.3982001e+11)
(-5.8345367e+11 6.6487374e+11 -3.6356466e+11)
(-2.6037525e+12 2.6357339e+11 -9.7770745e+11)
(-2.0100065e+12 3.9555685e+11 3.8514806e+11)
(1.3562378e+11 7.7777394e+11 9.1860081e+11)
(-2.0004464e+12 3.5315691e+11 -6.9859907e+09)
(-2.3537747e+12 5.9190977e+11 -8.1387319e+11)
(-2.7104352e+12 -5.7280098e+10 -8.9003641e+11)
(-1.749654e+12 -6.6405394e+10 -4.0634649e+11)
(-2.2821627e+12 -2.5243255e+11 -8.1975814e+11)
(-3.1098718e+11 -1.5590541e+10 -4.9173787e+11)
(-3.2708821e+12 -4.0495197e+11 -8.9751218e+11)
(-2.8206311e+12 -5.3243835e+11 -7.7980631e+11)
(-2.8954924e+12 -5.8844128e+11 -5.9523139e+11)
(-1.0436502e+12 -3.4351948e+11 -6.2413677e+11)
(-2.9935192e+12 -6.4592972e+11 -6.6941021e+11)
(1.0752666e+11 -3.4447605e+11 4.853294e+10)
(-3.3360553e+12 -5.6674629e+11 -7.6038241e+11)
(-2.7850515e+12 -7.3578765e+11 -6.9815788e+11)
(-2.4847325e+12 -5.9924555e+11 -5.5814108e+11)
(-3.2226764e+12 -6.3244944e+11 -6.2069761e+11)
(-2.0642663e+12 -6.1444544e+11 -1.9197997e+11)
(-3.4441574e+12 -6.7708896e+11 -6.8984084e+11)
(-1.9827555e+12 -6.732847e+11 2.4820071e+11)
(-3.6115758e+12 -7.0093593e+11 -6.3743396e+11)
(-3.4075501e+12 -9.047337e+11 -6.6833013e+11)
(-1.88216e+12 1.0310141e+12 -9.274235e+09)
(-7.9119061e+11 1.0574735e+12 6.3465248e+11)
(-2.9714093e+12 5.077963e+11 -6.144064e+11)
(-2.7410532e+12 2.6287369e+11 -8.3285275e+11)
(-3.3926136e+12 -5.0029199e+11 -7.7856124e+11)
(-2.8308459e+12 -7.0843041e+11 -7.7575656e+11)
(-3.2656073e+12 -8.0173248e+11 -7.9955485e+11)
(-3.4970536e+12 -7.9708871e+11 -6.8604696e+11)
(-3.2959568e+12 9.7918722e+11 -3.9414703e+11)
(-3.2742086e+12 5.1027429e+11 -6.2954535e+11)
(-2.2746567e+11 2.4262916e+11 1.2254706e+11)
(-3.3481438e+12 2.642704e+11 -8.4565659e+11)
(-3.3661846e+12 -2.7009404e+11 -8.9313899e+11)
(-3.6623409e+12 -7.4056026e+11 -7.6091421e+11)
(-2.9950813e+12 -7.2994364e+11 -8.9058896e+11)
(-3.3469102e+12 -7.0604609e+11 -7.5257514e+11)
(-3.5510117e+12 -6.2437791e+11 -6.447612e+11)
(-2.3593695e+11 9.8836284e+11 6.7574278e+11)
(-1.0063816e+12 6.3701438e+11 -3.6841567e+11)
(1.5009278e+12 5.9803808e+11 5.2804123e+11)
(-9.147398e+11 5.3979531e+11 1.5035703e+12)
(9.3779216e+11 3.8398746e+11 1.8129682e+12)
(-1.4022094e+11 7.0294108e+11 1.0430173e+12)
(1.0930724e+12 -9.6302716e+11 -5.8481754e+10)
(1.0088563e+12 2.6849218e+11 -1.6625135e+11)
(2.2585375e+12 3.9160543e+11 2.1267839e+11)
(-1.2268403e+12 -5.4835503e+11 3.4897783e+09)
(-4.9905491e+11 9.2303177e+11 4.9075649e+11)
(-1.5393633e+12 6.0363318e+11 4.8083087e+11)
(-6.2393094e+11 8.7291926e+11 1.2608327e+12)
(1.1367509e+12 4.0095186e+11 9.032301e+11)
(3.5419882e+11 -1.9553443e+11 2.5151472e+12)
(7.5094684e+11 2.5127799e+11 1.7729419e+12)
(1.0018356e+12 -1.2303482e+12 1.013089e+12)
(2.0569346e+11 -1.627242e+12 -8.7319896e+11)
(2.8228999e+11 4.0208313e+11 2.9950621e+11)
(9.7874879e+11 5.3573272e+11 -4.8463592e+11)
(-1.6885743e+11 -1.3293865e+12 -3.037692e+11)
(-3.7836923e+11 1.4193738e+12 1.0865461e+10)
(-1.2671644e+11 8.3123338e+11 1.373119e+12)
(7.3783744e+11 -5.7852678e+11 4.5370883e+11)
(-1.6434983e+12 -3.2807852e+11 2.3018277e+12)
(1.4005383e+12 2.3689241e+12 4.6787084e+11)
(1.5524279e+12 -1.310616e+12 2.3092109e+12)
(1.0195998e+12 -1.9400253e+12 2.1768731e+12)
(7.5150271e+11 -1.0129326e+12 -7.350479e+11)
(1.7216615e+12 -7.9028336e+11 -5.3787637e+11)
(5.4324643e+10 8.4853517e+11 -5.8639156e+11)
(-1.6916337e+11 -1.2420998e+12 -5.5934806e+11)
(1.6892406e+12 -8.4631502e+11 -6.2792821e+11)
(-1.9044515e+12 2.928405e+11 -3.5891749e+11)
(-9.4644102e+09 6.9401126e+11 2.7129131e+09)
(-1.1128134e+12 7.3782898e+11 5.1137968e+10)
(-5.1522975e+11 6.2928927e+11 -6.1337454e+11)
(-2.1684665e+12 4.6775514e+10 -8.4436666e+11)
(-1.0541379e+12 4.8477829e+11 5.4890219e+10)
(-2.0524469e+12 3.8301425e+11 8.6821734e+10)
(-2.7394801e+11 6.1604104e+11 -6.2539591e+11)
(-3.4708917e+12 -3.1100409e+11 -1.0293479e+12)
(-7.9002547e+11 7.5000942e+11 1.064879e+12)
(-1.4092031e+12 1.0042897e+12 3.4602829e+11)
(1.539497e+11 9.8635345e+11 9.1083306e+11)
(-2.328089e+12 5.634581e+11 -5.1075642e+11)
(-2.3787009e+12 3.5233763e+11 -9.381048e+11)
(-2.9295119e+12 -5.2598423e+11 -8.2335064e+11)
(-2.833663e+12 -4.2915811e+11 -5.4084975e+11)
(-5.7088824e+11 -9.8427232e+10 -5.5762964e+11)
(-3.0747126e+12 -5.4446834e+11 -7.7679897e+11)
(4.7442333e+11 -1.4628199e+11 5.2363671e+08)
(-3.2034281e+12 -5.5632493e+11 -8.6011698e+11)
(-2.6850841e+12 -7.2712146e+11 -7.6903863e+11)
(-2.166305e+12 -5.7975842e+11 -5.9239389e+11)
(-2.9769869e+12 -6.5513858e+11 -6.6484899e+11)
(-1.0615635e+12 -4.6614864e+11 1.7093045e+11)
(-3.2993685e+12 -6.6936359e+11 -7.9648523e+11)
(8.9402985e+11 1.4247902e+11 3.5627125e+11)
(-3.4798026e+12 -7.3738559e+11 -7.5647253e+11)
(-3.3355523e+12 -8.81518e+11 -7.1975272e+11)
(-2.6281135e+12 -6.7880662e+11 -7.3479029e+11)
(-2.6573157e+12 -5.0518742e+11 -3.5479548e+11)
(-3.3489259e+12 -7.572073e+11 -7.2945181e+11)
(-2.5940919e+12 -5.9277237e+11 -2.5186616e+11)
(-3.4564436e+12 -7.5788818e+11 -7.8673349e+11)
(-1.7045006e+12 -8.4318014e+11 6.3263042e+11)
(-3.3120554e+12 -8.6577359e+11 -6.664586e+11)
(-3.5551152e+12 -8.7605629e+11 -8.0787064e+11)
(-2.2338668e+12 1.300164e+12 -1.6721048e+11)
(-2.7806451e+12 6.600943e+11 -5.4483619e+11)
(-6.0285852e+11 7.6033181e+11 8.063818e+11)
(-3.0076654e+12 3.544228e+11 -8.8869218e+11)
(-2.8509591e+12 -2.2073908e+11 -9.8598492e+11)
(-3.3292921e+12 -7.7582713e+11 -8.3474016e+11)
(-3.090613e+12 -7.9165745e+11 -8.4434676e+11)
(-3.4476407e+12 -7.5848412e+11 -7.6407792e+11)
(-3.4628789e+12 -6.4677087e+11 -6.3546852e+11)
(-2.8254767e+12 6.0124453e+11 -7.3464603e+11)
(-1.3178804e+12 4.1339426e+11 -4.130818e+11)
(-3.5053965e+12 1.9541584e+11 -7.7551385e+11)
(1.0409703e+12 -9.4524743e+11 -1.6558084e+11)
(-3.3350202e+12 1.7454179e+10 -9.1578082e+11)
(-3.3784666e+12 -5.9505504e+11 -9.7425561e+11)
(-3.1930592e+12 -7.1677445e+11 -8.7820139e+11)
(-3.3001251e+12 -7.0753822e+11 -8.4966472e+11)
(-3.5072362e+12 -6.0749995e+11 -6.837217e+11)
(-3.4950598e+12 -6.1418105e+11 -7.0257143e+11)
(-1.0947962e+12 1.1559948e+12 5.5844705e+11)
(-1.4914531e+12 1.3432391e+12 6.2282683e+11)
(-4.4282322e+11 8.3430155e+11 1.1079372e+12)
(1.3608709e+12 5.3211329e+11 9.7730225e+11)
(6.5649137e+11 8.1879388e+10 2.1452226e+12)
(5.0209774e+10 5.2609045e+11 1.477022e+12)
(2.6025032e+11 -1.0650574e+12 7.3095937e+11)
(-2.8353739e+11 -2.0067965e+12 -1.099727e+12)
(-3.5511536e+11 2.914773e+11 2.6163269e+11)
(5.8251259e+11 3.2872845e+11 -2.5438032e+11)
(-9.5321248e+11 -1.2443171e+12 -5.3266844e+11)
(-8.4420685e+11 1.5444488e+12 3.3151787e+11)
(1.3684908e+11 1.1708144e+12 6.9520526e+11)
(1.060671e+12 2.5432086e+11 6.6395847e+11)
(-4.5666025e+11 -8.9914679e+10 1.8162709e+12)
(1.984746e+12 2.4620894e+12 4.0922278e+11)
(2.3025591e+12 -9.7432983e+11 2.8114998e+12)
(9.7831103e+11 -1.3597833e+12 1.6929808e+12)
(6.4056906e+11 -1.6367469e+12 -4.4204593e+11)
(1.416392e+12 -7.5761363e+11 -6.0803774e+11)
(3.3757428e+11 8.7452544e+11 -3.5870846e+11)
(-7.4452097e+11 -6.0937573e+11 -6.4959512e+11)
(1.2113113e+12 -8.9933036e+11 9.2047905e+10)
(-8.8097028e+09 1.0431269e+12 9.4342949e+11)
(1.323977e+12 2.919553e+11 1.5949448e+12)
(-1.3463068e+12 1.3920103e+12 1.6494665e+12)
(-4.8213795e+11 1.4627078e+12 9.2160584e+11)
(3.0274776e+11 -1.1091237e+12 2.2939132e+12)
(4.109269e+11 1.2053687e+12 -5.9976753e+11)
(5.9204487e+11 -3.1253047e+12 1.8940492e+12)
(1.074771e+12 -4.7671037e+11 -5.4400913e+11)
(1.4333642e+12 -1.0798163e+12 3.6057412e+10)
(-3.0895701e+12 -4.809226e+11 -1.48275e+12)
(2.0325844e+10 -8.7806489e+11 -1.0238196e+12)
(1.3397636e+12 3.3779697e+11 -5.6481219e+11)
(1.3589919e+12 -6.0001949e+11 9.4811197e+11)
(-2.6695535e+12 -1.9434066e+11 -6.2012249e+11)
(-9.8824083e+11 3.8587798e+11 -3.4630256e+11)
(-1.4341843e+12 5.6289774e+11 -3.7336287e+11)
(2.1166975e+11 3.5450181e+11 7.4257616e+11)
(-1.7024163e+12 1.2516549e+12 1.9017149e+11)
(-1.3037564e+12 9.0290486e+11 2.2160695e+11)
(-1.1820147e+12 3.0505327e+11 -2.3032916e+11)
(-5.1029703e+11 5.0076984e+11 -5.9641282e+11)
(-2.9079641e+12 -4.3186777e+11 -8.9127978e+11)
(-3.7556114e+11 7.1149618e+11 8.9614242e+11)
(-7.4518424e+11 8.1686508e+11 6.0016439e+11)
(-1.8627233e+12 3.943823e+11 -3.5894303e+11)
(-7.9070624e+11 3.3011759e+11 -7.7767412e+11)
(-3.5363335e+12 -7.4073034e+11 -1.0532626e+12)
(2.9242843e+11 6.7526964e+11 1.5388371e+12)
(-1.031565e+12 1.1286179e+12 1.2118058e+11)
(-2.0691797e+12 7.2311881e+11 -3.569152e+11)
(-1.9459238e+11 7.5758533e+11 1.02993e+12)
(-2.5931802e+12 3.7425219e+11 -8.523972e+11)
(-2.3619234e+12 -1.472954e+11 -1.041153e+12)
(-2.9641137e+12 -8.041154e+11 -8.0488295e+11)
(-1.7076581e+12 -3.3997483e+11 -5.0674144e+11)
(-3.2113618e+12 -6.3953841e+11 -7.1916941e+11)
(-7.1534405e+11 -2.3659159e+11 1.1142763e+11)
(-3.4935555e+12 -6.8411776e+11 -9.0760298e+11)
(-8.7017662e+11 1.2575071e+11 5.5959873e+11)
(-3.1414035e+12 -6.9231225e+11 -8.8291002e+11)
(-3.1230677e+12 -8.3860988e+11 -7.8477592e+11)
(-2.5470568e+12 -7.0332597e+11 -7.1602829e+11)
(-2.0485688e+12 -4.7306417e+11 -2.5173641e+11)
(-2.7814317e+12 -7.5707626e+11 -7.3747963e+11)
(-6.9281646e+11 -1.504321e+11 6.830403e+10)
(-3.1648153e+12 -8.0724341e+11 -8.6460189e+11)
(-5.7198992e+11 -8.4025485e+10 3.7661758e+11)
(-3.2023839e+12 -8.8424941e+11 -7.2353936e+11)
(-3.6806022e+12 -8.1525631e+11 -7.8653026e+11)
(-2.5729924e+12 -5.8518698e+11 -6.1435653e+11)
(-2.9041786e+12 -7.6605871e+11 -9.6818877e+11)
(-3.0971594e+12 -5.0109085e+11 -5.6586598e+11)
(-3.2521796e+12 -8.6185321e+11 -8.6931581e+11)
(-6.5126767e+11 -1.1904273e+12 -7.8054141e+10)
(-3.3393052e+12 -9.112988e+11 -7.3778019e+11)
(-1.5947206e+12 -1.1480738e+12 -1.0967963e+11)
(-3.4671266e+12 -8.8938772e+11 -6.4529151e+11)
(-3.4150792e+12 -6.9340954e+11 -6.2921126e+11)
(-2.3977187e+12 8.1312496e+11 -7.3304736e+11)
(-1.2078291e+12 6.1531989e+11 -3.3343326e+10)
(-3.1813022e+12 3.0817957e+11 -8.394335e+11)
(-5.6708471e+10 -3.2205581e+11 6.3233705e+11)
(-2.8504278e+12 1.3703338e+11 -1.0000352e+12)
(-3.0673353e+12 -5.7450651e+11 -1.1054142e+12)
(-3.2351549e+12 -7.5888944e+11 -8.3949341e+11)
(-3.3630403e+12 -7.5994663e+11 -9.01989e+11)
(-3.3509042e+12 -6.3646877e+11 -6.8656533e+11)
(-3.4146803e+12 -6.1328924e+11 -7.4198858e+11)
(-1.3857083e+12 5.5710421e+11 -6.7008335e+11)
(-3.1861959e+12 2.5545372e+11 -8.4052276e+11)
(-3.4832103e+11 -4.5421421e+11 -8.9876086e+11)
(-3.3277656e+12 -2.1552404e+09 -8.2981938e+11)
(2.0447339e+11 -1.0501827e+12 -9.5868613e+11)
(-3.4191624e+12 -2.1397649e+11 -9.7168516e+11)
(-3.4824555e+12 -6.2603263e+11 -9.4182286e+11)
(-3.4745133e+12 -4.841187e+11 -9.4299529e+11)
(-3.5719333e+12 -7.0272764e+11 -7.2141835e+11)
(-3.4307658e+12 -6.2467207e+11 -7.131092e+11)
(-3.1203093e+12 -4.8954933e+11 -6.17993e+11)
(-1.0851031e+12 1.6611915e+12 4.3931566e+11)
(-2.9287805e+11 1.1091171e+12 7.8517778e+11)
(8.6551055e+11 7.3290588e+11 8.1187403e+11)
(-2.676928e+11 9.2506488e+10 1.7393182e+12)
(1.0096188e+12 1.8202915e+12 4.8997471e+11)
(2.0962883e+12 -5.9457942e+11 2.8443192e+12)
(5.0602958e+11 -8.9105105e+11 1.5599798e+12)
(2.0980864e+10 -2.0435009e+12 -5.8451841e+11)
(-2.043977e+11 -1.0610354e+12 -1.0162435e+12)
(1.1763016e+10 6.2023839e+11 -2.0830112e+11)
(-1.2719946e+12 -7.4107455e+11 -8.5645685e+11)
(-6.4081811e+11 -9.8753483e+11 2.0013945e+11)
(7.5326753e+11 1.3850785e+12 9.370777e+11)
(8.2933964e+11 6.3233018e+11 9.8282733e+11)
(-4.2057214e+11 1.1772553e+12 1.6253907e+12)
(7.9089545e+11 1.5306066e+12 7.3945399e+11)
(7.1030452e+11 -5.3944806e+11 2.059232e+12)
(9.108783e+11 1.6617574e+12 -6.6280428e+11)
(9.3664245e+11 -2.7181519e+12 2.7039343e+12)
(1.7294457e+12 -1.3150876e+12 1.0902952e+11)
(1.5155817e+12 -1.0446313e+12 -8.9576505e+10)
(-1.2646928e+12 -5.8170974e+11 -4.8883073e+11)
(6.6325182e+11 -2.4689486e+11 -8.3520537e+11)
(9.2658569e+11 1.241945e+11 -1.1072322e+11)
(7.3930744e+11 -8.3218998e+11 9.925554e+08)
(1.1352547e+12 1.2565137e+12 1.9338624e+12)
(-7.5972648e+11 3.0161116e+12 1.8990065e+12)
(-6.0154383e+11 7.3866193e+11 1.5162004e+12)
(-3.9448821e+11 2.6517046e+10 2.4869597e+12)
(8.6483525e+11 1.846545e+12 -2.1356967e+11)
(1.1331433e+12 -8.0437272e+11 1.7480511e+12)
(1.273214e+12 -6.5080633e+11 -7.0327569e+11)
(3.7264296e+12 -4.0443277e+11 -6.5704547e+11)
(6.6586406e+11 -9.5117918e+11 2.208232e+11)
(-6.2506529e+11 2.1650605e+11 -3.1605655e+12)
(-1.6517766e+12 -3.7981172e+11 -1.2404776e+12)
(-1.2955494e+12 1.1952608e+11 -6.0059691e+11)
(5.0248808e+11 -5.8959068e+09 8.3091632e+11)
(3.1064324e+11 -1.2311558e+12 8.2247444e+11)
(-1.5948333e+12 -7.7564131e+10 -4.6333558e+11)
(-2.111846e+12 1.5695582e+11 -6.4050145e+11)
(-2.9694178e+12 -5.6817629e+11 -8.374494e+11)
(-1.3989178e+12 7.4655857e+11 -1.5642065e+11)
(-1.0948213e+12 2.1102854e+11 1.6164497e+11)
(-1.2148186e+12 7.6972063e+11 -3.242117e+11)
(1.4317175e+11 9.5643289e+11 8.3528154e+11)
(2.6908894e+10 1.0763293e+12 3.5221916e+11)
(-9.7372708e+11 1.4732718e+12 1.4861353e+09)
(-7.8147828e+11 1.0005594e+12 6.8518674e+11)
(-2.7360846e+11 7.8172772e+11 4.5921233e+11)
(-2.7358324e+11 5.3329808e+11 -1.7049415e+11)
(-1.2266605e+12 1.860425e+10 -6.6690604e+11)
(-3.2385734e+12 -8.1386674e+11 -1.0814074e+12)
(-2.6078613e+11 5.5455816e+11 1.5933292e+12)
(-9.4848767e+10 8.8718013e+11 8.4899856e+11)
(-1.307746e+12 5.9491115e+11 -1.036139e+11)
(-2.2665567e+12 3.1052499e+11 -7.9808503e+11)
(-1.5370447e+12 -1.6552215e+11 -1.0024155e+12)
(-3.2754009e+12 -8.6421494e+11 -1.0619228e+12)
(1.6125648e+12 3.5784825e+11 1.8688995e+12)
(-1.43941e+12 9.401079e+11 -4.8964373e+11)
(-2.2551107e+11 6.1311117e+11 2.3114964e+11)
(-2.7403751e+12 3.9918244e+11 -7.713741e+11)
(-1.6188081e+11 -1.9550807e+11 1.4934755e+12)
(-2.5605622e+12 2.2106893e+11 -1.0082888e+12)
(-2.6385889e+12 -5.4985786e+11 -1.1069171e+12)
(-3.2606601e+12 -8.2219799e+11 -8.5754706e+11)
(-2.1253538e+12 -5.8821795e+11 -7.3776709e+11)
(-1.8095444e+12 -2.934269e+11 -1.4832113e+11)
(-2.8587369e+12 -7.5276225e+11 -8.2174802e+11)
(-1.4601642e+12 -1.5751604e+11 2.4287778e+11)
(-2.9013248e+12 -8.2073501e+11 -9.8263159e+11)
(-5.8381418e+11 5.2849777e+11 7.0775572e+11)
(-3.1230032e+12 -7.8339726e+11 -7.4281928e+11)
(-3.6840647e+12 -8.3172545e+11 -8.1986092e+11)
(-2.1481341e+12 -6.1100624e+11 -6.2126046e+11)
(-2.6548559e+12 -8.4143382e+11 -9.7126465e+11)
(-1.9365018e+12 -3.9251732e+11 -3.6290603e+11)
(-3.1585383e+12 -8.961214e+11 -9.1437673e+11)
(-1.0628229e+12 -1.119628e+12 -2.6815672e+11)
(-3.5358726e+12 -8.7484927e+11 -8.8283494e+11)
(-8.6150533e+11 -8.5401198e+11 -2.1084094e+11)
(-3.3698854e+12 -8.9271969e+11 -7.5594898e+11)
(-3.2725762e+12 -7.0814707e+11 -6.8852281e+11)
(-2.5418698e+12 -6.8114952e+11 -7.5547802e+11)
(-2.7832055e+12 -5.6840748e+11 -8.9486286e+11)
(-2.6196967e+12 -8.6430987e+11 -1.0811865e+12)
(-1.9975158e+12 -6.414274e+11 -6.2257055e+11)
(-2.9326837e+12 -8.7916881e+11 -1.0266308e+12)
(-1.0548526e+12 -1.0728544e+12 -3.7236971e+11)
(-3.0923569e+12 -7.1165893e+11 -8.1880329e+11)
(-3.2034666e+12 -5.7445967e+11 -7.9065267e+11)
(-1.8649995e+12 6.7015287e+11 -5.1642205e+11)
(-2.6192201e+12 4.8391936e+11 -9.2264025e+11)
(-8.5068837e+11 -4.3899737e+11 -4.7569735e+11)
(-2.9149543e+12 1.4772344e+11 -9.0613784e+11)
(-5.9610145e+11 -9.8367484e+11 -2.3550154e+11)
(-3.1655886e+12 -1.5799564e+11 -1.0658627e+12)
(-3.5475139e+12 -6.6614806e+11 -1.0063245e+12)
(-3.7600079e+12 -5.2545472e+11 -9.2337782e+11)
(-3.381389e+12 -7.7767016e+11 -7.3746058e+11)
(-3.3269378e+12 -6.1169886e+11 -7.5810646e+11)
(-3.0549426e+12 -4.992831e+11 -6.6263665e+11)
(-2.2337857e+12 5.9797146e+11 -7.5536341e+11)
(-1.62048e+12 8.6472276e+10 -7.0886958e+11)
(-3.0647205e+12 6.3192464e+10 -9.4797018e+11)
(-1.3299693e+12 -6.514697e+11 -9.7164443e+11)
(-3.2992437e+12 -2.1336443e+11 -9.0252951e+11)
(-3.2459327e+12 -5.0153687e+11 -1.01278e+12)
(-3.1479086e+12 -7.4031371e+11 -9.1651656e+11)
(-3.3836942e+12 -4.178992e+11 -8.755015e+11)
(-3.4051423e+12 -6.6170634e+11 -7.3199033e+11)
(-3.0705219e+12 -5.3065687e+11 -6.3887921e+11)
(-2.7993903e+12 -4.1658311e+11 -5.3984536e+11)
(4.9995253e+11 1.5879068e+12 1.1365898e+12)
(1.7404465e+11 9.7373571e+11 4.7428748e+11)
(-1.2037951e+12 1.3450002e+12 1.4773663e+12)
(1.0982561e+12 1.7353479e+12 7.5522615e+11)
(8.8769024e+11 -3.4914122e+11 1.923488e+12)
(1.0710493e+11 1.5600693e+12 -2.7564303e+11)