/*--------------------------------*- C++ -*----------------------------------*\
  =========                 |
  \\      /  F ield         | OpenFOAM: The Open Source CFD Toolbox
   \\    /   O peration     | Website:  https://openfoam.org
    \\  /    A nd           | Version:  7
     \\/     M anipulation  |
\*---------------------------------------------------------------------------*/
FoamFile
{
    version     2.0;
    format      ascii;
    class       volScalarField;
    location    "1000";
    object      k;
}
// * * * * * * * * * * * * * * * * * * * * * * * * * * * * * * * * * * * * * //

dimensions      [0 2 -2 0 0 0 0];

internalField   nonuniform List<scalar> 
34222
(
1.5413443
1.5355259
1.5410522
1.5555522
1.5558346
1.5572354
1.5569892
1.5317069
1.5350212
1.5478213
1.5464936
1.550347
1.5509426
1.5429783
1.5572643
1.5550203
1.5540192
1.5569079
1.620185
1.6212759
1.6255567
1.6240956
1.5747529
1.5312055
1.5295455
1.5415774
1.540112
1.5409964
1.5425217
1.5372381
1.5487518
1.5468247
1.5457402
1.5494548
1.6058089
1.6047373
1.6127044
1.6136038
1.5435407
1.5590732
1.5574965
1.5554879
1.5577045
1.6236817
1.6200439
1.6205269
1.6236299
1.6334703
1.6342337
1.6396317
1.638339
1.6427438
1.6041973
1.6064585
1.5743535
1.5400268
1.5404673
1.5335184
1.5290021
1.5417245
1.5401405
1.5394304
1.5406604
1.5366408
1.5370994
1.5377893
1.5372369
1.5953676
1.5871498
1.5891314
1.5965903
1.5361797
1.5362613
1.537794
1.549168
1.5500082
1.5526681
1.5509117
1.6154743
1.6066601
1.6057076
1.6134944
1.61969
1.619891
1.6270838
1.6271317
1.5583966
1.5591725
1.5592892
1.559224
1.6274492
1.6252462
1.6206522
1.6228077
1.6385335
1.6326418
1.6333031
1.6373357
1.6458032
1.6465003
1.6524425
1.6517597
1.5498176
1.7488112
1.5499748
1.6506578
1.7556928
1.6583235
1.7150436
1.5591002
1.664094
1.5608168
1.664685
1.6620074
1.5605197
1.6047709
1.5605818
1.6033092
1.5406246
1.5397712
1.5735348
1.5326739
1.5285885
1.534176
1.5286315
1.5314122
1.5450051
1.543322
1.5424216
1.5438243
1.5326817
1.5357703
1.5358902
1.5366332
1.5363382
1.5967961
1.587752
1.5882816
1.5961552
1.5729585
1.5792075
1.5811488
1.574272
1.609539
1.5996449
1.601786
1.6100293
1.5588026
1.6153875
1.560732
1.5603085
1.5600011
1.5363193
1.5355657
1.5352578
1.5506861
1.550758
1.5538605
1.5535003
1.6076129
1.6109303
1.6193696
1.6157369
1.6282732
1.6210525
1.620532
1.6270636
1.6317189
1.6314107
1.638654
1.6391089
1.6277641
1.6263544
1.6285347
1.6302316
1.6439517
1.6400226
1.6347803
1.6387554
1.6536926
1.645198
1.6469566
1.6513121
1.5345755
1.5345181
1.5583093
1.5353005
1.5350608
1.5576163
1.6254532
2.2025542
1.9484969
1.6262988
1.955764
1.5494445
1.5578369
1.5352941
1.5351867
1.5584035
1.54943
1.6574448
1.7699702
1.7621637
1.6258131
1.6274114
1.9667092
1.9659662
1.7165944
1.7230495
1.6108557
1.6097225
1.7674032
1.7718039
1.6684985
1.6679548
1.6145752
1.7261072
1.7289988
1.6139915
1.7300541
1.7280021
1.6145353
1.6139847
1.7201307
1.727571
1.6123324
1.6124227
1.6602123
1.5592709
1.6628329
1.5597552
1.6015636
1.5581473
1.6591328
1.5587095
1.6621065
1.5372205
1.5375092
1.6044338
1.6105986
1.6052308
1.5511837
1.5953268
1.5464953
1.5977001
1.5528691
1.5481022
1.5326016
1.5600785
1.5381622
1.5734404
1.5804824
1.5393287
1.5331998
1.5270173
1.5280348
1.5321551
1.5286586
1.5315625
1.5457534
1.5441461
1.5321544
1.5442135
1.5454814
1.5328307
1.5391336
1.5330452
1.5392168
1.5331191
1.5269889
1.5381027
1.5389612
1.539575
1.5387932
1.6013913
1.5926385
1.5901332
1.5981653
1.5522498
1.5524102
1.5476117
1.5474032
1.5740817
1.5725594
1.5790535
1.580183
1.6124066
1.6024182
1.6008599
1.6101702
1.5843772
1.5918953
1.5935763
1.5855701
1.6218889
1.6122007
1.6142643
1.6224556
1.6157104
1.6169268
1.6763835
1.6774985
1.6202863
1.6210453
1.6200327
1.6210241
1.6185824
1.6184615
1.5588952
1.5594688
1.5577804
1.5327612
1.5586798
1.5330538
1.5507641
1.5502312
1.5470762
1.5481622
1.6126523
1.6117768
1.6200848
1.6210377
1.6222482
1.6267718
1.6343424
1.6290005
1.6409093
1.6341682
1.6321358
1.6385391
1.6433397
1.6423878
1.6455847
1.6474552
1.66006
1.6543144
1.6493201
1.6546056
1.5303526
1.5303677
1.5552953
1.5322634
1.5320582
1.5547465
1.5973361
1.6708117
1.6693617
1.5967828
1.822455
1.9587949
2.2687548
2.2936957
2.3248921
2.2018025
2.3444793
1.828495
2.2283849
1.5976368
1.5978589
1.6704181
1.671302
1.8253893
1.8271459
2.2270748
2.2316478
1.5578687
1.534658
1.5346341
1.5569901
1.5547933
1.5322203
1.5321507
1.555566
1.5498628
1.5346379
1.5347384
1.5572498
1.5572259
1.5502937
1.7831582
1.7743791
1.6262781
1.6267693
1.9981816
1.9959957
1.6273616
1.6254761
1.9717219
1.9877173
1.5968759
1.5977134
1.6706359
1.6708061
1.5984371
1.5992601
1.673922
1.6718544
1.8307376
1.8315999
2.2467958
2.2602531
1.829222
1.8364539
2.2594105
2.2406285
1.7733134
1.7676691
1.669116
1.6688109
1.7789966
1.7795834
1.6709183
1.67139
1.8540115
1.8439167
1.7089378
1.7097721
1.863237
1.8584616
1.7116454
1.712405
1.7800833
1.7855856
1.6751541
1.674634
1.7911014
1.786994
1.6756589
1.6758009
1.7884472
1.790557
1.6758586
1.6758004
1.7906169
1.7821121
1.6747442
1.6753893
1.7700667
1.7761883
1.6710031
1.6708462
1.7209203
1.7871712
1.7869927
1.6739997
1.6735981
1.6101001
1.6113241
1.7259653
1.7284618
1.727613
1.6127044
1.6115934
1.6562939
1.6593575
1.555968
1.5551814
1.7203886
1.6093248
1.7268212
1.6091301
1.728742
1.7276117
1.6118704
1.6113256
1.6630051
1.6635002
1.5572079
1.5565679
1.6109356
1.6798911
1.6814412
1.6716892
1.6727653
1.6797348
1.6676624
1.6810882
1.6685096
1.605523
1.6121632
1.6065924
1.6706177
1.6671786
1.6717484
1.6681446
1.5959597
1.5980793
1.5969411
1.5991495
1.6779787
1.6701592
1.6795015
1.6712882
1.6158604
1.609953
1.616821
1.6108328
1.6037677
1.6009383
1.6006238
1.6027691
1.5531451
1.5525038
1.5613456
1.5604657
1.5283319
1.5996598
1.6176843
1.6175452
1.6242416
1.6239925
1.5749355
1.5819355
1.5811845
1.5737645
1.6429406
1.6466705
1.6622686
1.6408805
1.6408322
1.6439852
1.6440213
1.6587287
1.657127
1.6592763
1.6576344
1.5856792
1.5853903
1.5777287
1.5775503
1.5545646
1.5544016
1.5631956
1.5630465
1.5286219
1.5257972
1.5318637
1.5324613
1.5380948
1.5375138
1.5264672
1.5248472
1.5509374
1.5503056
1.5454083
1.5461981
1.5292517
1.5388861
1.5327609
1.5328262
1.5385342
1.5270117
1.5293449
1.5295319
1.5247658
1.5411471
1.5423286
1.5431925
1.5420001
1.6024718
1.593545
1.5405209
1.5399016
1.5397005
1.5404343
1.5938894
1.6019225
1.547112
1.5466734
1.5517517
1.5511705
1.5842814
1.5770055
1.5766767
1.5840187
1.5625976
1.5625234
1.5537006
1.5536614
1.5285523
1.5856323
1.5781232
1.5778685
1.5851824
1.5634903
1.5633251
1.554242
1.5544779
1.5286128
1.5257763
1.5258384
1.5740846
1.5772039
1.5838414
1.580941
1.6175266
1.6078017
1.6060146
1.6145803
1.6137178
1.6138982
1.6083754
1.6081236
1.6106734
1.6151895
1.615983
1.6095302
1.6029082
1.6001899
1.5998394
1.6019682
1.6011573
1.5985127
1.598449
1.6006185
1.5858612
1.5847875
1.5922014
1.5926814
1.6253705
1.614685
1.6136732
1.6225174
1.5953709
1.6034459
1.6054858
1.5967814
1.6776844
1.6771749
1.6799507
1.6796069
1.7123594
1.7138053
1.7163745
1.7155572
1.6844373
1.6843307
1.6830266
1.6841836
1.6840349
1.6831233
1.6841901
1.6846799
1.6820199
1.6825462
1.616141
1.6790573
1.6795941
1.6177299
1.6177091
1.6190137
1.5549282
1.6153077
1.6150881
1.5555513
1.618159
1.6175942
1.5565892
1.556272
1.6203824
1.6175664
1.6079814
1.6110035
1.6274854
1.6279078
1.6360242
1.6362322
1.6356481
1.6398903
1.6474567
1.6424875
1.6578503
1.656468
1.6614645
1.6630449
1.5297162
1.5297081
1.5511019
1.6053391
1.605391
1.5292188
1.5290784
1.5506393
1.6042374
1.605195
1.6799288
1.6780645
1.8314915
1.7843543
1.7763688
1.9745051
1.9514083
1.9332319
1.9400997
2.1142042
2.0922424
2.2645717
2.2983514
2.5321361
2.25488
2.5811148
2.3075372
2.2984979
2.5924539
2.576924
2.6422969
2.3094636
2.2777294
2.3022247
2.6822073
2.3048581
2.3476559
2.6954259
2.6982456
2.3086767
2.3210009
1.7838475
1.7852229
1.9703575
1.9766725
2.3120851
2.3627583
2.3023974
2.3604537
1.6793301
1.680434
1.9643373
1.9722307
1.7821454
1.7807642
1.7858809
1.7811271
1.9636913
1.9770361
2.2888186
2.3091811
2.3606046
2.3730806
2.3135353
2.3868964
2.2891786
2.3647167
1.5548482
1.5314075
1.5314877
1.5538982
1.5506553
1.605433
1.6046314
1.5291412
1.5291279
1.5514443
1.6074324
1.606181
1.5587231
1.5352121
1.5347561
1.5579718
1.5314616
1.5315405
1.5542867
1.5542855
1.5584447
1.5355224
1.5353106
1.5584875
1.6266399
1.6272433
2.031118
2.0210757
1.6270195
2.0119724
2.0024742
1.627384
1.5971152
1.598025
1.6716235
1.6726029
1.6748297
1.59834
1.5972621
1.6722204
1.8405455
1.845166
2.3059679
2.3240204
1.8381493
2.3260548
1.8472083
2.2953616
1.6725097
1.5983401
1.5984202
1.6742652
1.6705877
1.5968461
1.5967235
1.6709691
1.8297705
2.2764207
1.8309842
2.2516735
1.8374134
1.8416682
2.2885956
2.2934685
1.6798555
1.6800148
1.6834582
1.6809252
1.7826678
1.7846168
1.9751325
1.9874995
1.7872976
1.781155
1.9908707
1.9728751
2.3165137
2.3480636
2.3762243
2.4037518
2.3564265
2.3196919
2.4249826
2.4002427
1.7874827
1.7809322
1.9657104
1.9833364
1.790348
1.7897029
1.9845742
1.9896468
2.3317879
2.34616
2.4040071
2.409562
2.3321579
2.4054566
2.2958519
2.3673583
1.8613707
1.8567059
1.7122521
1.7124082
1.8428537
1.8494018
1.7112737
1.7105275
1.7142062
1.8653588
1.8735327
1.7146626
1.867573
1.8764814
1.7157464
1.7149035
1.8518489
1.840231
1.8610137
1.857209
1.7157067
1.8602343
1.874751
1.7165045
1.7192093
1.8828771
1.8810538
1.719643
1.7200758
1.8864802
1.8925657
1.7207478
1.7207348
1.8869971
1.8765134
1.7194432
1.8891005
1.879615
1.7183429
1.7192077
1.8876516
1.8941763
1.7207831
1.7204261
1.8900773
1.8883881
1.7197644
1.7201616
1.7183926
1.877784
1.8652582
1.7173672
1.8570959
1.8430523
1.7717742
1.710865
1.7113815
1.8668257
1.8610872
1.7133181
1.7136693
1.669747
1.783699
1.6706489
1.8896505
1.876769
1.7169408
1.7177828
1.8780495
1.8874942
1.7188562
1.7178845
1.7864172
1.786542
1.6723474
1.6727695
1.7940546
1.7879195
1.673237
1.6737582
1.786182
1.7907702
1.6735214
1.6741828
1.7222137
1.6068521
1.7189475
1.6059577
1.728474
1.6077768
1.7212773
1.6085477
1.6687524
1.7741388
1.780744
1.6687527
1.7900557
1.7885776
1.6710872
1.6711893
1.7911599
1.7902966
1.6738188
1.6731724
1.6735822
1.7934853
1.7861843
1.673224
1.6113914
1.7288369
1.732152
1.6096163
1.7340488
1.7298627
1.6115919
1.6099705
1.680689
1.672397
1.6804243
1.6720656
1.7175124
1.7126646
1.7136829
1.7187186
1.7214569
1.7160809
1.7235235
1.7176032
1.7101954
1.716398
1.7093283
1.7174765
1.7215134
1.7134412
1.7198599
1.712206
1.6803477
1.7132263
1.7088122
1.7096657
1.7141563
1.6681539
1.71293
1.7057954
1.7067138
1.7138584
1.7161528
1.7175397
1.7114134
1.7124626
1.7156078
1.7167899
1.708312
1.7090762
1.6807023
1.6685432
1.6838409
1.6752267
1.6834288
1.6747251
1.6834039
1.6709447
1.6830298
1.6704675
1.6712767
1.7228623
1.7239196
1.7182646
1.7190462
1.7249057
1.6675747
1.7179359
1.7237686
1.7171607
1.7249832
1.7271036
1.7222846
1.7301491
1.7283454
1.7213022
1.723705
1.7311141
1.6712324
1.6676609
1.6786774
1.6785595
1.6706981
1.6704732
1.6747394
1.674457
1.6710712
1.6705974
1.6821148
1.6739574
1.6817756
1.6734007
1.7218962
1.7170354
1.7181414
1.7229814
1.7145158
1.7209602
1.7134321
1.7223166
1.723455
1.7264967
1.7212783
1.7289876
1.7255448
1.7172604
1.7192211
1.7277817
1.6884928
1.6798173
1.6887119
1.6798328
1.6879776
1.688005
1.6753433
1.6752517
1.6875716
1.6789947
1.6890497
1.679993
1.6868448
1.674376
1.6881788
1.6751964
1.6863447
1.6780791
1.6877692
1.6790762
1.6786811
1.6750242
1.6796267
1.6757861
1.6794265
1.6758369
1.6804146
1.6764488
1.6868943
1.6786492
1.6874289
1.6789085
1.6032522
1.6032211
1.5434148
1.589112
1.5892071
1.6002747
1.6004199
1.5430746
1.5863785
1.5862205
1.6214606
1.6214432
1.6277956
1.6276101
1.618239
1.618438
1.6243913
1.6245827
1.5377646
1.6951226
1.6950042
1.6911496
1.6904805
1.6780719
1.7027613
1.6974058
1.6973815
1.7021503
1.7041943
1.6987368
1.6995192
1.7041443
1.7085406
1.7023039
1.7028217
1.7086407
1.7102986
1.7039138
1.7054926
1.7112368
1.6446317
1.6476721
1.644471
1.6473601
1.6627085
1.662515
1.6609456
1.660533
1.6594947
1.6596434
1.6575924
1.6576545
1.6409609
1.6438543
1.6411422
1.6439778
1.7184743
1.715435
1.7149608
1.7186334
1.7254341
1.7199952
1.7260398
1.7200654
1.7259412
1.7292795
1.7254087
1.729568
1.7163522
1.7145342
1.7117995
1.7102505
1.7130913
1.7123692
1.7081108
1.7084618
1.7180232
1.7118649
1.7173107
1.711441
1.7200876
1.7140714
1.716442
1.7220164
1.7194997
1.7203053
1.7154029
1.7159797
1.7236011
1.7167457
1.722615
1.7160828
1.7214446
1.7227706
1.7186169
1.7254665
1.7264933
1.719675
1.7225724
1.7295697
1.6670274
1.6672697
1.665196
1.6654185
1.6672761
1.6655907
1.6687377
1.6666671
1.648042
1.6512932
1.6474061
1.6508217
1.6476908
1.6512214
1.6527136
1.6485447
1.6053741
1.6039142
1.5446378
1.5911058
1.5896161
1.6048049
1.6055072
1.5444315
1.5905841
1.5912619
1.6236574
1.6302949
1.6223743
1.6291703
1.6230093
1.6297798
1.6238008
1.6305892
1.5387161
1.5384531
1.5328516
1.5291371
1.5291171
1.5326274
1.5288384
1.5519558
1.5523471
1.5604407
1.5275377
1.560006
1.5530473
1.5613551
1.561721
1.5530418
1.5280461
1.5825837
1.5753915
1.5747923
1.5823611
1.5734182
1.5803242
1.5343891
1.5812116
1.5736337
1.5252514
1.5247705
1.5232487
1.534558
1.5285399
1.6079294
1.6124009
1.6126745
1.6069904
1.6098387
1.6045937
1.6104542
1.5471997
1.6053806
1.5945812
1.5968037
1.5424134
1.5979484
1.5950788
1.5997786
1.5967585
1.596867
1.5991207
1.5478392
1.5427141
1.5847269
1.5762724
1.5768541
1.5833365
1.5619548
1.5625658
1.5534484
1.5530239
1.5282933
1.5533144
1.5534046
1.561813
1.5283931
1.5614368
1.5749705
1.58327
1.5754501
1.581933
1.5254476
1.5255696
1.5435337
1.5437554
1.5487898
1.5483414
1.5383683
1.537785
1.5370439
1.5378468
1.5347294
1.5285466
1.5900144
1.5980876
1.6011899
1.5923887
1.6175879
1.6082282
1.5846705
1.5788285
1.5770262
1.5852683
1.6088316
1.6174652
1.6019367
1.5990478
1.5977806
1.6000383
1.5962676
1.5976316
1.5999027
1.5984733
1.6125001
1.6141814
1.608811
1.6072003
1.6074179
1.6121872
1.6108445
1.6056737
1.663931
1.661917
1.6637644
1.6615623
1.6473158
1.6477596
1.6506494
1.6508965
1.6454414
1.6484602
1.6447352
1.647669
1.6658631
1.6641394
1.6663208
1.6643845
1.6228526
1.6294237
1.6231784
1.629691
1.6214574
1.6279471
1.6204629
1.6268426
1.6024311
1.6012812
1.5440907
1.5881054
1.5871716
1.6037131
1.6038315
1.5438479
1.5896544
1.5895581
1.5383783
1.5380025
1.6686109
1.6684005
1.6666025
1.6662503
1.6496856
1.6486222
1.6528926
1.6516583
1.6495114
1.6527277
1.6487776
1.6519658
1.6682844
1.6669081
1.6663768
1.6649005
1.6250603
1.6315474
1.6241748
1.6306197
1.6250797
1.6316372
1.6239018
1.6305089
1.6058419
1.6043914
1.5443012
1.5915777
1.5900627
1.6056351
1.6047984
1.5444636
1.5913514
1.5905597
1.5383429
1.5385291
1.5326719
1.5290641
1.5289166
1.5323025
1.5291579
1.5290804
1.5325474
1.5326615
1.5263564
1.5866743
1.5903058
1.5979989
1.5948913
1.6304816
1.6209261
1.6174916
1.6266551
1.6860932
1.6867031
1.6773546
1.6776469
1.6833148
1.6748349
1.6837862
1.6749659
1.682602
1.6705404
1.6831124
1.6706767
1.6854373
1.6730088
1.6859879
1.673296
1.6878937
1.6884931
1.675385
1.6755734
1.6883226
1.6870462
1.6793812
1.6782359
1.6881992
1.6794458
1.6888212
1.679699
1.6875381
1.6865131
1.6748806
1.6739692
1.6870574
1.6786386
1.6876278
1.6788132
1.6794769
1.6756237
1.6796767
1.6756125
1.6796455
1.6758155
1.6781066
1.6742843
1.6869704
1.6854891
1.6784254
1.6770453
1.682259
1.6739624
1.6824808
1.6738943
1.6772486
1.6735799
1.6777635
1.6738561
1.6711796
1.6744093
1.6746895
1.6706784
1.6846219
1.6762981
1.6852051
1.6766232
1.5970584
1.5962533
1.6046413
1.6047757
1.7158647
1.7161213
1.7139847
1.7150029
1.7177983
1.7186562
1.7197187
1.7185539
1.7235825
1.724733
1.7247718
1.7230625
1.7192604
1.7203427
1.7232328
1.7236975
1.7231561
1.7241918
1.7221363
1.7208825
1.7217608
1.7232599
1.7245263
1.7243331
1.7204705
1.7216106
1.7226882
1.7216075
1.6792596
1.6781676
1.7144381
1.7151091
1.7171225
1.7172737
1.6811675
1.6811079
1.6818096
1.682298
1.6822974
1.6828228
1.6129401
1.6122879
1.6768164
1.6775162
1.679469
1.6799692
1.6139725
1.6147519
1.6821619
1.681972
1.6822432
1.6819751
1.6159477
1.6174578
1.6167093
1.617908
1.6343067
1.6321035
1.6220377
1.6252639
1.6414588
1.6408403
1.6489128
1.6498836
1.5297163
1.5300152
1.5982415
1.5981548
1.5455566
1.6086763
1.6084006
1.5971443
1.5981003
1.5451501
1.6085582
1.607485
1.6788994
1.6558567
1.6564749
1.7285917
1.7299811
1.8377445
1.8415161
1.6545945
1.6548794
1.7280512
1.7248644
1.8409097
1.8278167
1.7353885
1.8416555
1.9806818
1.9931113
1.9528036
1.9509168
2.1233634
2.13062
1.9325662
1.9271409
2.0980549
2.0845211
2.1535988
2.127207
2.2547973
2.3049732
2.3440705
2.6921099
2.518853
2.2758373
2.5540161
2.7534114
2.3513322
2.3392553
2.7568631
2.7415137
2.7760789
2.6273639
2.6583434
2.2858236
2.2759256
2.3799085
2.4111637
2.8296773
2.6092007
2.3095319
2.3187985
2.6116022
2.30916
2.7092775
2.7106295
2.3183632
2.8272959
2.8387837
2.4171538
2.4185015
2.1085115
1.9426491
2.1309187
1.9502664
1.9552208
1.951881
2.1250831
2.1345113
2.3262349
2.3107972
2.6283674
2.6025105
2.717627
2.7450981
2.346862
2.3359361
2.5799375
2.288765
2.6301289
2.3226437
2.3206581
2.698637
2.3355084
2.7327427
1.6559376
1.6561459
1.7266822
1.7288985
1.8370545
1.8330002
1.6570076
1.6567241
1.7299271
1.7291181
1.8338807
1.84159
2.1009258
1.9366074
1.9427423
2.1207252
2.1283698
1.9495165
2.1199946
1.9465129
1.942233
2.1148561
2.104394
1.9379362
1.9540198
1.9520217
2.1256969
2.1350433
2.5680374
2.2801809
2.3119507
2.6093081
2.6270436
2.3193603
2.3062005
2.6011978
2.3131156
2.6861241
2.7308484
2.3492832
2.3545573
2.7438053
2.7255276
2.355081
2.3132228
2.3279175
2.6335651
2.6094496
2.3674523
2.7380114
2.7554079
2.3732363
2.6034448
2.3006983
2.2840709
2.5690118
2.3514193
2.72452
2.6975448
2.3448901
1.5506017
1.6068869
1.6061749
1.5282128
1.528339
1.5497073
1.6047382
1.6045776
1.5973738
1.5983367
1.6090666
1.6078261
1.5989672
1.600362
1.6112855
1.609612
1.5558671
1.532161
1.5317601
1.555243
1.5283019
1.5283499
1.5501894
1.6059942
1.6053997
1.5502046
1.6054397
1.6067292
1.5555461
1.5324432
1.5323175
1.5557427
1.597381
1.5987106
1.671975
1.6721179
1.598119
1.5993026
1.6734611
1.6737176
1.8507658
1.8523537
2.3771391
2.3799775
1.8513914
1.8470839
2.3761211
2.348196
1.5990021
1.5975399
1.672378
1.6746906
1.8467793
1.8457365
2.3363139
2.3406302
1.849381
1.8417043
2.3349666
2.3089152
1.5979906
1.5993154
1.6730908
1.6735424
1.6811523
1.6824536
1.6849281
1.6819315
1.7890057
1.788968
1.9973862
2.0076461
1.7954775
1.7900434
2.0173582
2.0044719
2.3711881
2.4512672
2.4031055
2.4806025
2.3967844
2.4169687
2.508414
2.4821748
1.7850871
1.7921667
2.0061573
1.985454
2.407042
2.4120773
2.4946447
2.4898358
1.7947102
1.7973275
2.0124999
2.0106998
2.3916388
2.3486958
2.4854543
2.4376881
1.6818546
1.6840929
1.6796828
1.6803088
1.7873343
1.7798383
1.967466
1.9889212
2.3368562
2.4334509
2.4379368
2.3521839
1.7843352
1.7823781
1.9768622
1.9843057
2.3469525
2.4255265
2.3062795
2.3761761
1.7887917
1.7875167
1.9897485
1.9963779
1.7892534
1.7952819
2.0061685
1.9907198
2.3555398
2.3684108
2.4626928
2.442627
2.4776842
2.4446528
2.3809505
2.3528539
1.6564652
1.6568485
1.7299685
1.7280668
1.8356726
1.8406048
1.6564696
1.6563667
1.728653
1.7301078
1.8434489
1.8336557
1.6592738
1.6597747
1.734435
1.7334628
1.8448655
1.8475128
1.6574362
1.6575676
1.7309299
1.843617
1.7285901
1.8331082
1.9527927
1.943432
2.1163961
2.1443348
2.1536346
1.9602256
1.9592568
2.1502485
2.149308
1.9604692
2.1607999
1.9629617
1.9469484
1.9438934
2.1214048
2.1303986
2.6158656
2.3084192
2.3518179
2.6726205
2.6992312
2.3628929
2.3585533
2.6858531
2.3173993
2.7235103
2.7839361
2.3596028
2.8011864
2.8025908
2.3614518
2.3824153
2.6937907
2.3563956
2.3741461
2.7118409
2.3322818
2.3164407
2.6253865
2.654777
2.3891173
2.8079234
2.8320224
2.4102361
2.3891562
2.7819503
2.7555809
2.3697487
1.9457874
1.9365109
2.1024261
2.1252935
1.9589723
1.9557998
2.1336019
2.14655
2.1318268
1.9552733
1.9613504
2.1498966
2.155868
1.9661433
1.9614371
2.1437857
2.6391042
2.3248417
2.3526648
2.673343
2.6913169
2.3586997
2.340948
2.6570241
2.3731543
2.7622483
2.7961446
2.3910849
2.7815908
2.8113843
2.4001829
2.3862271
2.3483776
2.3276365
2.6396438
2.6701657
2.391229
2.7706367
2.7904457
2.3877059
2.634608
2.3191057
2.2833377
2.5702944
2.6946626
2.7491984
2.3577993
2.3340131
1.8553269
1.8525051
1.8368677
1.8438938
1.8626484
1.8721052
1.860948
1.8717524
2.061057
1.8129864
2.0368133
1.8037934
2.0739757
1.822381
2.0700207
1.8180568
1.8576167
1.8707607
1.8806752
1.8771843
1.8792549
1.887589
1.8830451
1.8702925
1.8846062
1.8732845
1.8833794
1.8872874
1.8843204
1.8788463
1.8718529
1.8592566
1.8506452
1.8493139
1.8394524
1.8603066
1.7129618
1.7117697
1.8584715
1.8566627
1.8805562
1.8791383
1.7149984
1.7148272
1.8824886
1.8698628
1.873383
1.8807464
1.8879463
1.8758233
1.7159866
1.7163385
1.8826871
1.8898487
1.717639
1.7170322
1.8937481
1.8995253
1.7194355
1.7190309
1.8814871
1.8895859
1.7184296
1.7177136
1.8888889
1.8747801
1.7173469
1.7181685
1.8905394
1.8918907
1.718647
1.7184283
1.6684301
1.7831503
1.785373
1.6680098
1.783316
1.7761929
1.6677159
1.6672286
1.7971243
1.7960005
1.6712002
1.6712655
1.7777626
1.786475
1.6692062
1.6689937
1.8649856
1.8546663
1.7103077
1.71043
1.7128003
1.873632
1.8792481
1.7135699
1.8953824
1.8882587
1.715853
1.7161095
1.8844939
1.8946078
1.7174348
1.7166126
1.8945797
1.8880143
1.7177296
1.7181877
1.8914671
1.8924359
1.7187564
1.718607
1.8995182
1.8941277
1.7191614
1.7192629
1.8768123
1.8862786
1.7187903
1.7177034
1.6746308
1.7894584
1.7930222
1.673293
1.7977657
1.8010211
1.6740546
1.6744074
1.799837
1.8031188
1.6752657
1.6760664
1.8012786
1.7900219
1.6728178
1.6747653
1.7149413
1.7201155
1.7149265
1.7199026
1.7187692
1.7114298
1.7116327
1.7188632
1.7183831
1.7135105
1.7188923
1.7138944
1.7178096
1.710537
1.7175017
1.7102957
1.812685
1.8099435
1.8185325
1.8214668
1.8316604
1.8282057
1.8379374
1.8342321
1.8130823
1.8076467
1.8045223
1.8161378
1.830979
1.826676
1.8251303
1.8210955
1.7145009
1.7100694
1.7146837
1.7102232
1.8020715
1.7994257
1.8081222
1.8105307
1.7077922
1.7146182
1.7144731
1.7071215
1.7991115
1.8077909
1.8177243
1.8230476
1.8141502
1.8191208
1.8132085
1.8179001
1.7114133
1.715503
1.7109698
1.7157822
1.7085731
1.7153353
1.7158461
1.708543
1.7187117
1.7233489
1.7180738
1.7239746
1.7218149
1.722517
1.7143026
1.7146378
1.7186367
1.7249761
1.7191973
1.7238236
1.7153424
1.7229682
1.7224641
1.7146888
1.7141257
1.7182625
1.713602
1.7186696
1.7178597
1.7184666
1.7105933
1.7110274
1.7187816
1.7139746
1.7193509
1.7143781
1.7118029
1.7187564
1.718371
1.7110109
1.7236315
1.7237721
1.7191241
1.7188343
1.8228736
1.8314143
1.8229098
1.8316893
1.8315079
1.7244558
1.7183822
1.7248267
1.7175943
1.8308981
1.8225185
1.8217291
1.8495387
1.8411077
1.841833
1.848979
1.8420096
1.8416255
1.8489532
1.8495817
1.7247925
1.720124
1.7202452
1.7249691
1.7194868
1.7259302
1.7259559
1.7188363
1.7191263
1.7244601
1.7239026
1.7193965
1.7224778
1.7175544
1.7232803
1.7182992
1.7159283
1.715596
1.7235584
1.7233859
1.7224296
1.7146207
1.7216696
1.7140219
1.7291589
1.7244557
1.7254894
1.7301902
1.7316891
1.7264906
1.7260076
1.7310582
1.723667
1.7302612
1.7314141
1.7240464
1.7254451
1.7325047
1.7317086
1.7242595
1.7240902
1.728601
1.7233666
1.7292117
1.7274223
1.7283483
1.7192727
1.7197707
1.729323
1.7239092
1.7305986
1.7250432
1.7208696
1.7293383
1.7281553
1.7196396
1.8208587
1.8192034
1.8283804
1.8301897
1.8239636
1.8174987
1.815064
1.8266456
1.8463735
1.8410409
1.8393841
1.848338
1.83746
1.8346369
1.8410969
1.8443803
1.7239273
1.7292109
1.7236234
1.7293449
1.7272132
1.7195432
1.720035
1.7276781
1.7287004
1.7231945
1.729801
1.7240939
1.727777
1.7199391
1.7268793
1.719215
1.7193806
1.7233851
1.7186345
1.7240362
1.7232129
1.7239255
1.7190869
1.7185046
1.7228476
1.7157845
1.7237885
1.7164832
1.7228499
1.7166533
1.7155304
1.7234864
1.7249562
1.7262475
1.7199772
1.7208081
1.7244515
1.716837
1.723473
1.7163016
1.7245097
1.7301162
1.7242943
1.730004
1.7278647
1.7282405
1.7198714
1.7201706
1.720032
1.7156024
1.720699
1.7159879
1.72014
1.7129297
1.7195957
1.7125006
1.7241584
1.7191293
1.7236796
1.7187362
1.722883
1.7155784
1.7161325
1.7233953
1.7302466
1.7320543
1.7253017
1.7266306
1.7306553
1.72226
1.7290052
1.721194
1.7363728
1.7306079
1.7367119
1.7310272
1.7351459
1.7347946
1.7262119
1.7259182
1.7313609
1.7335855
1.7266967
1.7282968
1.7340388
1.7267255
1.7320454
1.7253272
1.7324643
1.738081
1.7326929
1.7374381
1.7387291
1.7385048
1.7311646
1.7307803
1.7309421
1.7364638
1.7313902
1.7355426
1.737177
1.7300287
1.7299093
1.7369386
1.7319494
1.7368768
1.7319323
1.7369269
1.7377659
1.7305812
1.7374719
1.7300629
1.7298233
1.7349915
1.7296284
1.7350398
1.7253759
1.7336855
1.7341101
1.7252799
1.7349132
1.7295035
1.7356085
1.7302567
1.7259298
1.7344353
1.7335344
1.7248736
1.6981887
1.6981992
1.6945175
1.6941614
1.6954386
1.6951666
1.6979276
1.6977308
1.5765881
1.5715387
1.5766198
1.5714722
1.681241
1.6807501
1.6955497
1.6954984
1.6913226
1.6908673
1.6910749
1.6909603
1.6943396
1.6942691
1.5699236
1.5740615
1.6775946
1.6787924
1.7061424
1.7011586
1.7014885
1.7058487
1.7071998
1.7021082
1.7026004
1.7068169
1.7073503
1.712433
1.7064838
1.712855
1.7084628
1.713597
1.7075169
1.7139333
1.7028883
1.6974805
1.6975586
1.7023849
1.702499
1.6968953
1.6975359
1.7023307
1.7028455
1.708674
1.7024035
1.7086986
1.7079389
1.7015717
1.7026857
1.7084779
1.5619154
1.557026
1.5617341
1.556603
1.7255768
1.7250975
1.736987
1.7370015
1.7501624
1.7219678
1.7197696
1.7470877
1.7487303
1.7602451
1.7627798
1.7493797
1.7533264
1.7658554
1.7680887
1.7538213
1.7711968
1.7809155
1.785749
1.7743835
1.7779209
1.7888186
1.7930837
1.7806209
1.7168128
1.7178237
1.7128287
1.7134417
1.7223677
1.7232436
1.7166496
1.7171798
1.7181327
1.7140754
1.7151985
1.71888
1.7186783
1.7191287
1.7239597
1.7248327
1.7221692
1.7250748
1.7210992
1.7258774
1.7273791
1.7230932
1.7234907
1.7275846
1.7286785
1.722051
1.7299649
1.7228529
1.7243572
1.7240502
1.7309626
1.7310304
1.721037
1.7169099
1.7171307
1.720945
1.7206936
1.7204436
1.7161864
1.7162949
1.724379
1.7177101
1.7179455
1.7245964
1.7235874
1.7235136
1.7167807
1.7167056
1.7126374
1.7083928
1.7130585
1.7084138
1.7179401
1.717832
1.7119716
1.711753
1.7088317
1.7116887
1.7074388
1.7126941
1.7115165
1.7167853
1.7180599
1.7117752
1.8063258
1.820232
1.8169281
1.8086664
1.8267775
1.8352351
1.8299505
1.8383179
1.8522517
1.842721
1.8489003
1.8457313
1.8035404
1.7988867
1.8128897
1.8078027
1.7950551
1.789701
1.7973331
1.803195
1.8104842
1.8164348
1.8041109
1.8096122
1.8158867
1.8226142
1.8291962
1.8214347
1.8142103
1.8214355
1.8176803
1.8252618
1.8283205
1.8301596
1.82039
1.8219301
1.8404904
1.8284058
1.8329837
1.8352803
1.836771
1.8392381
1.8471356
1.8444313
1.7282658
1.7242648
1.7258147
1.7296327
1.7335286
1.7338558
1.7294715
1.729108
1.7265856
1.7313925
1.7247705
1.7333885
1.7372575
1.7307006
1.7375008
1.7299036
1.7321809
1.7309837
1.7281526
1.7270141
1.7350018
1.7294233
1.7358597
1.7281262
1.7295136
1.733076
1.7290651
1.7332568
1.7367217
1.7297977
1.7301234
1.7369506
1.7167921
1.7200191
1.7160099
1.7203409
1.7252353
1.7264703
1.7195434
1.7203255
1.7194907
1.7234085
1.7192779
1.7228223
1.7241625
1.7294714
1.7297779
1.7236411
1.7188851
1.7220562
1.7206066
1.7167839
1.7268739
1.7213028
1.7286057
1.7228632
1.7240637
1.7296115
1.7290604
1.7238279
1.7218713
1.7190979
1.7220916
1.718344
1.7007964
1.7008302
1.6970889
1.6965288
1.6971702
1.6967535
1.6992519
1.699093
1.5785686
1.5734861
1.5723419
1.5770197
1.6837974
1.68149
1.6987648
1.6985038
1.6958623
1.6949925
1.6957558
1.6956059
1.6971925
1.6970693
1.5779582
1.5725371
1.5732407
1.5782944
1.681436
1.6800235
1.7037609
1.7086644
1.7036344
1.7082865
1.714809
1.7151822
1.7089431
1.7088345
1.7048096
1.7093082
1.7044382
1.7089126
1.7114313
1.7163718
1.716755
1.7106926
1.7029978
1.7077818
1.7033718
1.7068731
1.710448
1.7150173
1.7146087
1.7088165
1.7041047
1.7075723
1.7033815
1.7074074
1.7105291
1.7149343
1.7156055
1.7102395
1.5638031
1.5589559
1.5580665
1.5625787
1.5583401
1.5582688
1.5627673
1.5631798
1.5510536
1.5467546
1.5461168
1.5501438
1.5406185
1.5369943
1.5365358
1.5399755
1.5366769
1.5369037
1.5402392
1.5402145
1.5503364
1.5458837
1.5460236
1.5502519
1.5492918
1.5493447
1.5573494
1.55715
1.5244679
1.6015271
1.6008156
1.542454
1.5868894
1.5873019
1.6006946
1.5997655
1.5429478
1.585834
1.5864078
1.6185883
1.6179227
1.6250648
1.6241174
1.5373923
1.5369251
1.619605
1.6190435
1.6261966
1.6254462
1.6029898
1.6013105
1.5434572
1.5874044
1.5887516
1.6209483
1.627667
1.6194304
1.6258509
1.6213254
1.6279368
1.6217396
1.6279875
1.6022538
1.6024086
1.5433458
1.5883494
1.5879222
1.5376863
1.5376312
1.6635432
1.662115
1.6621819
1.6604124
1.6448476
1.6451025
1.6482927
1.6480747
1.6443244
1.6478501
1.6427897
1.6459727
1.6635197
1.6620852
1.6635567
1.6617183
1.6430041
1.6463748
1.642503
1.6456308
1.6614834
1.659973
1.6611448
1.6593935
1.5782786
1.570711
1.570591
1.5772854
1.6596964
1.6579719
1.6599478
1.6578334
1.6413949
1.6444832
1.6410017
1.6438536
1.5285848
1.5284898
1.5319191
1.5320232
1.5317206
1.5280773
1.5313658
1.5216276
1.521369
1.5241756
1.5794143
1.5715508
1.5711723
1.5783617
1.5492524
1.5486183
1.5575256
1.556928
1.6853508
1.6732592
1.685091
1.6725787
1.6854765
1.6854234
1.6769317
1.6765004
1.6850274
1.6767263
1.6846047
1.6759578
1.6852749
1.672983
1.68511
1.6724831
1.6828024
1.6742843
1.6831921
1.6742437
1.6825345
1.67037
1.6829663
1.6703746
1.6799045
1.6718861
1.6809462
1.6722064
1.6069315
1.6076478
1.6026549
1.6016457
1.6798217
1.6681633
1.6806585
1.6682864
1.6730781
1.6696676
1.673025
1.6693168
1.6808589
1.6728466
1.6810464
1.6726753
1.5916536
1.5924486
1.5947926
1.5937414
1.6781171
1.6704072
1.679208
1.6707404
1.6703445
1.6669537
1.6710916
1.6671782
1.6831242
1.6752797
1.6824928
1.674243
1.674931
1.6716069
1.6738545
1.6702635
1.6753556
1.6753475
1.6720187
1.6716524
1.6833415
1.6833366
1.6753503
1.674967
1.6087045
1.6097787
1.6047224
1.6033925
1.5969411
1.5937021
1.5929569
1.5954407
1.6669446
1.6651319
1.6654848
1.6634907
1.6465126
1.6464237
1.6500273
1.6495643
1.6478531
1.6512187
1.645895
1.6491294
1.6652795
1.6648933
1.6637285
1.6630108
1.6218906
1.6286411
1.6219562
1.6284647
1.623364
1.6301526
1.6211991
1.6278152
1.6042237
1.6019467
1.5897843
1.5437262