/*--------------------------------*- C++ -*----------------------------------*\
  =========                 |
  \\      /  F ield         | OpenFOAM: The Open Source CFD Toolbox
   \\    /   O peration     | Website:  https://openfoam.org
    \\  /    A nd           | Version:  7
     \\/     M anipulation  |
\*---------------------------------------------------------------------------*/
FoamFile
{
    version     2.0;
    format      ascii;
    class       volScalarField;
    location    "1000";
    object      nut;
}
// * * * * * * * * * * * * * * * * * * * * * * * * * * * * * * * * * * * * * //

dimensions      [0 2 -1 0 0 0 0];

internalField   nonuniform List<scalar> 
34222
(
3.7854063e-09
1.8221819e-09
3.322152e-09
3.2407533e-09
2.9003468e-09
6.5008944e-09
9.1603043e-09
1.5060886e-09
1.7319566e-09
1.2821334e-09
1.3064491e-09
2.6815779e-09
2.2169735e-09
3.3415005e-09
1.2681444e-08
3.1496662e-09
3.5051007e-09
9.578588e-09
4.518505e-09
4.8361854e-09
9.4638574e-09
1.1744324e-08
6.420655e-08
1.3998196e-09
1.4740845e-09
1.7238792e-09
1.070374e-09
1.0247336e-09
1.6298802e-09
1.7823993e-09
2.8679349e-09
1.3221897e-09
1.2955949e-09
2.437933e-09
2.2882605e-09
2.1565351e-09
5.1576913e-09
4.7701141e-09
3.1289054e-09
9.7622234e-09
3.2382119e-09
3.2684457e-09
9.1091411e-09
1.0748781e-08
5.1234976e-09
3.6694844e-09
9.7307908e-09
2.9207164e-09
3.3194154e-09
3.0473645e-09
2.6901896e-09
2.3826042e-07
2.6187435e-08
2.4943476e-08
6.5781798e-08
5.1917231e-09
4.2379877e-09
1.4650937e-09
1.4950565e-09
1.8193111e-09
1.1123904e-09
1.1520262e-09
1.6771063e-09
1.0291119e-09
1.4810414e-09
1.4311246e-09
1.0587045e-09
2.269587e-09
1.5174824e-09
1.5131213e-09
1.9415321e-09
2.2149776e-09
2.1692577e-09
1.8752944e-09
1.4522656e-09
1.3823123e-09
2.7998156e-09
2.8434369e-09
5.0293735e-09
2.6696196e-09
2.7071681e-09
5.9921086e-09
3.937039e-09
3.0235258e-09
3.8688658e-09
4.2545102e-09
3.2708128e-09
3.6120862e-09
1.0215762e-08
7.7766905e-09
1.2976076e-08
5.4118955e-09
4.4358571e-09
8.5043153e-09
4.5146072e-09
2.7290718e-09
3.3849183e-09
2.9799832e-09
4.356293e-09
5.2977666e-09
5.8088473e-09
4.5955161e-09
3.174802e-09
1.0783328e-07
2.9767322e-09
2.7058349e-07
1.0070397e-07
1.4869823e-08
6.0339397e-09
6.9582303e-09
1.5436947e-08
7.6405655e-09
1.6295751e-08
1.4993465e-08
6.130091e-09
2.9377091e-08
6.8210258e-09
2.4285465e-08
5.3177978e-09
3.8540071e-09
6.7639592e-08
1.7568307e-09
1.0262184e-09
1.5384219e-09
1.0457493e-09
1.5806909e-09
1.8692508e-09
1.2646164e-09
1.2732095e-09
1.8418715e-09
1.8503282e-09
1.0869631e-09
1.063274e-09
1.5285941e-09
1.6318876e-09
3.0754611e-09
1.6416607e-09
1.6856805e-09
2.4299913e-09
1.4831459e-09
1.6828277e-09
1.8508351e-09
2.0527307e-09
3.0333043e-09
3.0755039e-09
3.6039017e-09
3.9868637e-09
2.7105752e-09
2.2742408e-09
2.8540462e-09
3.0088491e-09
2.7100661e-09
2.3276171e-09
2.1660872e-09
1.8746561e-09
1.5396266e-09
1.5601106e-09
3.2370541e-09
2.8681643e-09
3.2108178e-09
2.6589337e-09
6.4523322e-09
4.9850232e-09
3.8195165e-09
4.2265663e-09
4.2355988e-09
4.1502982e-09
4.2281631e-09
3.7360222e-09
4.8928407e-09
5.3895266e-09
5.824511e-09
7.1504466e-09
1.1688542e-08
1.6139662e-08
2.84133e-09
3.1602191e-09
3.3990851e-09
2.9900713e-09
5.1198398e-09
3.882683e-09
3.6362026e-09
4.7574849e-09
2.8748289e-09
3.5535626e-09
7.4312014e-09
1.2191076e-09
1.2612857e-09
7.9923203e-09
7.5206996e-09
3.1590548e-08
7.1074704e-08
7.3168432e-09
7.0713482e-08
3.4675547e-09
6.5015554e-09
1.0378744e-09
1.2016934e-09
7.5605425e-09
3.153553e-09
2.4764614e-07
1.144901e-07
1.2431166e-07
6.8604069e-09
7.3035232e-09
6.8492839e-08
7.4494867e-08
6.1639394e-09
6.2844387e-09
3.8665603e-09
3.5714771e-09
2.3016006e-09
2.4319922e-09
1.9469006e-09
1.9300884e-09
3.6911906e-09
6.273059e-09
6.7097217e-09
3.6788949e-09
6.4956497e-09
6.8539267e-09
3.8925776e-09
3.9461118e-09
6.0325755e-09
6.8179242e-09
3.5745926e-09
3.6948673e-09
1.7337928e-08
8.2966113e-09
1.6850529e-08
8.7377595e-09
3.0294309e-08
5.4065574e-09
1.4321468e-08
6.3929732e-09
1.6190347e-08
5.8553851e-09
4.0034594e-09
2.7998834e-08
1.9526111e-09
1.9359633e-09
1.9704765e-09
1.5510991e-09
1.7488006e-09
1.5013964e-09
2.4219692e-09
2.1139153e-09
9.3039235e-10
9.3500201e-10
1.167178e-09
1.1563021e-09
1.0996166e-09
1.3318842e-09
1.0500299e-09
4.8385892e-10
1.109187e-09
1.7890415e-09
1.0958823e-09
1.5970177e-09
2.0027889e-09
1.2994595e-09
1.5809172e-09
1.3058559e-09
1.9702219e-09
1.8442889e-09
1.3954251e-09
1.0310474e-09
1.4507873e-09
1.0377861e-09
4.9844908e-10
1.1460776e-09
1.1018726e-09
1.6756337e-09
1.6511809e-09
2.8807705e-09
1.9898472e-09
2.303005e-09
3.5046704e-09
2.61425e-09
2.5569641e-09
2.1315727e-09
2.1638089e-09
2.1495221e-09
1.4277162e-09
1.6214004e-09
1.856386e-09
4.3714373e-09
2.7872841e-09
3.5923994e-09
4.033002e-09
1.7351829e-09
2.5674318e-09
2.1101028e-09
2.3666781e-09
3.0839094e-09
2.5100758e-09
2.6791891e-09
2.9920945e-09
2.1721073e-09
2.2937543e-09
1.3138051e-09
1.3642233e-09
2.3796257e-09
2.3087356e-09
2.5993782e-09
2.5026293e-09
2.5142782e-09
2.2834915e-09
3.1417403e-09
2.9984941e-09
2.5392255e-09
2.3519182e-09
2.9193645e-09
2.3309093e-09
3.36717e-09
2.5869386e-09
1.5547067e-09
1.683607e-09
2.9934225e-09
4.5113741e-09
6.9951058e-09
1.0200949e-08
5.528398e-09
2.4720344e-09
3.5389398e-09
5.9133986e-09
4.2457364e-09
5.5106703e-09
5.5788858e-09
5.4666508e-09
1.0009344e-08
8.5973504e-09
3.5292332e-09
6.9199812e-09
4.2435529e-09
4.9867175e-09
4.0513324e-09
3.7884776e-09
1.1091659e-09
1.1017125e-09
2.4854487e-09
1.187433e-09
1.2297668e-09
2.495405e-09
3.9664909e-09
5.8693079e-09
5.993074e-09
3.8918657e-09
6.6577757e-09
2.805051e-09
2.915527e-09
3.1943541e-09
9.7495884e-09
3.2660949e-08
1.0646447e-08
6.8177099e-09
3.5454395e-08
3.8443465e-09
3.7418414e-09
5.5590952e-09
5.9389093e-09
6.5453249e-09
6.716619e-09
3.4175404e-08
3.6934013e-08
7.7441228e-09
1.2725798e-09
1.3214124e-09
8.0018636e-09
2.4988686e-09
1.1158906e-09
1.2940867e-09
2.5639898e-09
3.622932e-09
1.2908429e-09
1.0184469e-09
6.4816669e-09
7.5203613e-09
3.1335025e-09
1.241055e-07
1.3793054e-07
7.3027381e-09
7.6162931e-09
7.6489391e-08
8.2629792e-08
7.8005083e-09
7.7996176e-09
7.9752582e-08
7.9313894e-08
3.7997586e-09
3.7930641e-09
5.5117435e-09
5.7896995e-09
3.8682545e-09
4.0302871e-09
5.8977542e-09
5.8862984e-09
6.6396297e-09
6.881308e-09
3.461889e-08
3.882762e-08
6.9387217e-09
7.1738727e-09
3.8473654e-08
3.6531787e-08
2.3241304e-09
2.2596339e-09
2.0329673e-09
1.9787697e-09
2.4137278e-09
2.4376167e-09
2.0313211e-09
2.0460416e-09
3.8641975e-09
3.2484009e-09
7.3785274e-10
8.1110702e-10
3.5749779e-09
3.8931942e-09
8.0577831e-10
7.844192e-10
2.4204299e-09
2.5193936e-09
2.1044371e-09
2.0882988e-09
2.6617272e-09
2.5733826e-09
2.1455398e-09
2.1918784e-09
2.4556272e-09
2.5726219e-09
2.0077275e-09
2.0155986e-09
2.6139394e-09
2.5146603e-09
2.1489016e-09
2.2801525e-09
2.1782211e-09
2.3826403e-09
1.9038608e-09
1.8830724e-09
6.6405609e-09
2.5761844e-09
2.5471266e-09
2.0257268e-09
2.0855439e-09
3.7499534e-09
4.2398597e-09
6.7598166e-09
7.046731e-09
6.5237857e-09
4.0517055e-09
3.8551067e-09
1.5835252e-08
1.5321781e-08
7.43119e-09
7.1603061e-09
5.8573096e-09
3.4640809e-09
6.7354712e-09
3.527486e-09
6.4458376e-09
6.9483759e-09
3.7267522e-09
3.7765048e-09
1.5560894e-08
1.7227415e-08
5.2116863e-09
5.933826e-09
1.7645046e-09
1.1236566e-09
1.1710229e-09
9.9869642e-10
1.0229423e-09
1.1458813e-09
8.7429229e-10
1.1826454e-09
9.0108292e-10
1.6807612e-09
1.9281049e-09
1.8731778e-09
1.2961835e-09
1.0987604e-09
1.3619721e-09
1.1480839e-09
1.4764434e-09
1.3761936e-09
1.5418899e-09
1.4794232e-09
1.1703025e-09
8.9639473e-10
1.2214145e-09
9.2507954e-10
2.0158617e-09
1.8983386e-09
2.0206571e-09
1.8570717e-09
1.5392961e-09
1.6300949e-09
1.6352045e-09
1.4977949e-09
7.9970275e-10
7.7080188e-10
8.6293626e-10
8.3803543e-10
5.46628e-10
6.545128e-10
9.3859802e-10
9.9440949e-10
9.0585555e-10
9.3221655e-10
1.1311319e-09
1.0739943e-09
1.0219256e-09
1.0817126e-09
1.4482918e-09
1.3109484e-09
1.5365454e-09
1.2867057e-09
1.2466831e-09
1.1331281e-09
1.166711e-09
1.3557119e-09
1.0886211e-09
1.4091445e-09
1.1278345e-09
1.2143733e-09
1.1985912e-09
1.2530493e-09
1.2610228e-09
8.495677e-10
8.8738982e-10
9.5222035e-10
9.6800611e-10
6.6294765e-10
6.6637156e-10
9.7837067e-10
1.024333e-09
1.3437883e-09
1.2512924e-09
5.2779901e-10
1.1197412e-09
2.48953e-09
2.4240544e-09
2.0644484e-09
2.1045978e-09
1.7966127e-09
1.4538521e-09
1.101615e-09
1.1184033e-09
1.4021349e-09
5.2327328e-10
1.9320272e-09
1.5550857e-09
1.1337802e-09
1.3257897e-09
1.9155029e-09
2.258908e-09
1.4530726e-09
3.1768598e-09
2.7322674e-09
1.6788661e-09
1.1903622e-09
1.1669677e-09
1.7077721e-09
2.4007667e-09
3.6755999e-09
2.2265967e-09
2.0417712e-09
2.4761699e-09
2.2696966e-09
1.181764e-09
1.2835714e-09
1.2418087e-09
1.19483e-09
1.0099213e-09
9.7558013e-10
8.6124517e-10
9.1477761e-10
7.1424977e-10
1.2280734e-09
1.2975281e-09
1.2922308e-09
1.1917627e-09
1.0158848e-09
9.8767232e-10
8.9270227e-10
9.3721311e-10
6.2619038e-10
7.1465219e-10
6.0626874e-10
2.1328515e-09
1.8405966e-09
2.1286649e-09
2.0380224e-09
2.6584717e-09
2.2434294e-09
5.1890198e-09
9.4912954e-09
2.1434757e-09
2.0758324e-09
1.9246086e-09
2.0253502e-09
2.0751711e-09
2.1022467e-09
2.1578697e-09
1.9888242e-09
1.5987146e-09
1.6929634e-09
1.708863e-09
1.5977505e-09
1.5238973e-09
1.6709335e-09
1.581628e-09
1.595521e-09
4.4924596e-09
1.6922044e-09
1.862006e-09
2.5724963e-09
5.6433192e-09
2.9637114e-09
3.0632453e-09
4.2317025e-09
1.7007593e-09
2.0448153e-09
1.9642935e-09
2.8335607e-09
1.2908413e-09
1.28902e-09
1.3579507e-09
1.3769924e-09
9.3932011e-10
1.0584536e-09
9.9740372e-10
1.0232926e-09
1.4953233e-09
1.5011809e-09
1.4128048e-09
1.4924784e-09
1.5440111e-09
1.5184386e-09
1.4344916e-09
1.4955333e-09
1.5138311e-09
1.5431794e-09
2.4537918e-09
1.3528688e-09
1.4359984e-09
2.625194e-09
2.5322465e-09
2.4611133e-09
2.9865386e-09
2.1560627e-09
2.3821594e-09
2.8460768e-09
2.3727601e-09
2.485726e-09
2.5401921e-09
2.874838e-09
4.817183e-09
5.7970866e-09
3.1275628e-09
2.9652515e-09
5.9115289e-09
7.2636698e-09
9.5361879e-09
9.3664585e-09
5.5709333e-09
3.14488e-09
4.8047527e-09
6.0910401e-09
2.0935319e-08
1.8668142e-08
5.7696034e-09
1.1869165e-08
1.1625771e-09
1.1177253e-09
4.0430992e-09
4.3763759e-09
4.4476996e-09
1.0681611e-09
1.1218994e-09
4.2560336e-09
4.2482603e-09
4.4082901e-09
2.5393583e-09
2.5228294e-09
2.2502089e-09
3.6372657e-09
3.5040842e-09
2.9503684e-09
2.8709985e-09
2.9767723e-09
2.9992725e-09
1.6547314e-09
1.6059358e-09
9.61288e-10
9.8984145e-10
1.4267993e-09
3.0168064e-09
1.5415771e-09
1.0279425e-09
1.0273706e-09
1.5302421e-09
1.5689776e-09
1.4330803e-09
9.6929109e-09
1.021288e-09
1.072964e-09
1.5171872e-09
3.2529967e-09
1.0170201e-08
1.5067516e-09
1.5369957e-09
1.0758887e-09
1.0536765e-09
3.6140288e-09
3.6444285e-09
2.8733163e-09
2.965508e-09
3.3041792e-09
1.0117133e-08
3.1469797e-09
9.9725163e-09
2.460552e-09
2.5407507e-09
2.8648703e-09
2.9810082e-09
3.6035894e-09
3.5061904e-09
3.6533884e-09
3.5328015e-09
2.9312161e-09
2.9921127e-09
3.1076722e-09
3.3873569e-09
9.9049176e-09
1.0628436e-08
3.3607073e-09
1.0617443e-08
3.2399964e-09
1.0425591e-08
2.653023e-09
1.2154629e-09
1.2244835e-09
2.5602095e-09
3.9663113e-09
4.3810176e-09
4.4361425e-09
1.0253209e-09
1.1923014e-09
4.2743931e-09
4.3069365e-09
4.1611064e-09
7.8599589e-09
1.3218664e-09
1.467916e-09
9.2329301e-09
1.2203278e-09
1.0569924e-09
2.7126423e-09
2.6273493e-09
6.0363797e-09
1.0285338e-09
1.3853428e-09
7.9011786e-09
7.165333e-09
7.7510908e-09
8.3915913e-08
9.0286032e-08
8.3508918e-09
8.5548105e-08
8.7645595e-08
7.9138687e-09
4.0566825e-09
4.0468683e-09
5.5469053e-09
5.8802859e-09
5.8747157e-09
4.1647254e-09
3.9339365e-09
5.8212164e-09
7.1650483e-09
7.342091e-09
3.7368057e-08
4.1272743e-08
7.3138902e-09
4.0845693e-08
7.5666272e-09
3.8743685e-08
5.6238013e-09
3.9848081e-09
4.0322753e-09
5.9965349e-09
5.657837e-09
3.9750948e-09
3.914381e-09
5.8459808e-09
6.9889858e-09
3.8588557e-08
7.1289426e-09
3.6574405e-08
6.9862421e-09
7.1247941e-09
3.6894487e-08
4.0225897e-08
2.475177e-09
2.5001482e-09
2.5246122e-09
2.4917609e-09
3.5501009e-09
3.6193892e-09
2.9327493e-09
3.0133799e-09
3.6616742e-09
3.4987347e-09
3.0968621e-09
3.0097705e-09
3.2283288e-09
3.4444705e-09
9.9533295e-09
1.1054341e-08
3.5819424e-09
3.4176654e-09
1.1276134e-08
1.1229652e-08
3.6430182e-09
3.4990066e-09
2.9075443e-09
3.0238969e-09
3.7080564e-09
3.7158184e-09
2.9863312e-09
3.0180588e-09
3.3495595e-09
3.5197653e-09
1.037272e-08
1.114934e-08
3.4509542e-09
1.0858025e-08
3.2655738e-09
1.0577886e-08
3.2705583e-09
3.3230377e-09
7.4218848e-10
7.7710686e-10
3.1185505e-09
3.3786101e-09
8.0099236e-10
7.4372154e-10
7.5965971e-10
3.3176772e-09
3.7604026e-09
8.2160619e-10
3.3289129e-09
3.6323573e-09
8.3938122e-10
7.8096917e-10
9.9963317e-10
9.0779639e-10
1.0170492e-09
1.0223249e-09
7.8376199e-10
3.2161634e-09
3.5125567e-09
8.1532156e-10
8.4982514e-10
3.6447618e-09
3.4562953e-09
8.3328886e-10
8.2861335e-10
3.5463299e-09
3.597875e-09
8.6003017e-10
9.0492285e-10
3.8801517e-09
3.4321488e-09
8.3099943e-10
3.2502423e-09
3.1244651e-09
7.953022e-10
8.2313317e-10
3.2924042e-09
3.4946329e-09
8.6089384e-10
8.1635729e-10
3.4296855e-09
3.3634069e-09
8.210697e-10
8.6108479e-10
8.6876835e-10
3.5547215e-09
3.2339616e-09
8.1264493e-10
2.7794767e-09
2.64332e-09
2.2937095e-09
7.1393658e-10
7.354699e-10
2.9367368e-09
3.0618855e-09
7.7934221e-10
7.4670707e-10
1.9030292e-09
2.4799292e-09
2.0506981e-09
3.2048103e-09
3.1257539e-09
8.0453955e-10
8.2084684e-10
3.2550612e-09
3.5391309e-09
8.6965815e-10
7.9968621e-10
2.4703072e-09
2.5293167e-09
2.0710272e-09
2.1063711e-09
2.6059157e-09
2.5865321e-09
2.0046893e-09
2.1322452e-09
2.4054712e-09
2.5559517e-09
1.9986571e-09
2.1034244e-09
6.1115783e-09
3.7453299e-09
6.2708319e-09
3.4937431e-09
6.8187734e-09
3.6044754e-09
5.8750939e-09
3.5404327e-09
1.7857242e-09
2.1966416e-09
2.3347789e-09
1.7788493e-09
2.5520657e-09
2.5408442e-09
1.9337233e-09
1.8757329e-09
2.3955114e-09
2.5115419e-09
1.852121e-09
1.8330128e-09
2.0739316e-09
2.554701e-09
2.4905658e-09
1.9726213e-09
3.7307756e-09
6.1957911e-09
7.1002615e-09
3.7026018e-09
6.9216466e-09
7.1215363e-09
4.1237937e-09
3.784776e-09
1.0711889e-09
9.4642802e-10
1.069884e-09
9.2640677e-10
3.9097369e-10
3.7334122e-10
3.8830167e-10
3.9973869e-10
4.0986238e-10
3.8213918e-10
4.1117952e-10
3.8972671e-10
3.4414674e-10
3.7646384e-10
3.3852345e-10
3.9970012e-10
3.9048977e-10
3.436031e-10
3.9091334e-10
3.4550466e-10
1.0629126e-09
4.2897601e-10
4.4344266e-10
4.4610702e-10
4.4475545e-10
8.1557659e-10
5.1813865e-10
4.2232893e-10
4.2263586e-10
5.3448818e-10
4.4686005e-10
4.4669875e-10
4.4575084e-10
4.4794834e-10
5.3332357e-10
5.2412405e-10
4.1980596e-10
4.1797037e-10
1.0872915e-09
8.3079025e-10
1.1617855e-09
1.0463355e-09
1.1578476e-09
1.0263222e-09
1.1819903e-09
8.9985434e-10
1.1740816e-09
8.965044e-10
1.2370148e-09
6.5137517e-10
6.6821558e-10
5.833988e-10
5.960727e-10
5.8338792e-10
1.0229366e-09
4.7205717e-10
5.708004e-10
4.6364871e-10
6.3271852e-10
6.9385589e-10
6.1234014e-10
7.1143594e-10
6.0208066e-10
4.867305e-10
4.9012318e-10
6.2423685e-10
1.2316025e-09
1.0284356e-09
1.0854928e-09
1.0795369e-09
8.2727488e-10
8.111204e-10
1.3355794e-09
1.3414865e-09
1.1446801e-09
1.1330829e-09
1.2131757e-09
9.353867e-10
1.2032525e-09
9.1403157e-10
5.0220968e-10
4.560116e-10
4.6561021e-10
5.1486018e-10
3.7253751e-10
4.4595052e-10
3.6644549e-10
4.5519628e-10
4.8005525e-10
5.3479849e-10
4.7966913e-10
5.4304626e-10
4.7082312e-10
3.8141771e-10
3.7800208e-10
4.6935185e-10
1.2617585e-09
1.1149927e-09
1.2366091e-09
1.0724778e-09
1.2721774e-09
1.218857e-09
9.4476698e-10
9.2120203e-10
1.1781225e-09
1.0409402e-09
1.2306553e-09
1.0798252e-09
1.2041375e-09
9.0228082e-10
1.240555e-09
9.4474075e-10
1.224975e-09
9.3231114e-10
1.2818255e-09
9.6613419e-10
1.3740502e-09
1.1619317e-09
1.4526201e-09
1.2197612e-09
1.4340591e-09
1.2002749e-09
1.408268e-09
1.1599887e-09
1.2646791e-09
9.6821184e-10
1.2195311e-09
9.2567501e-10
6.7676338e-10
7.1394065e-10
5.6149753e-10
7.3618878e-10
7.9824542e-10
6.205532e-10
6.2722884e-10
5.2419377e-10
6.9719121e-10
6.6564633e-10
9.7333102e-10
1.0204261e-09
9.402803e-10
9.5859895e-10
8.9664864e-10
9.1291482e-10
8.6218982e-10
8.6257701e-10
5.7075525e-10
3.0777476e-09
3.0207318e-09
2.094222e-09
2.1063133e-09
1.6883379e-09
1.8272522e-09
1.5015782e-09
1.5190241e-09
1.8360604e-09
1.9223132e-09
1.5845833e-09
1.6048619e-09
1.9345375e-09
1.5267808e-09
1.1558585e-09
1.165418e-09
1.5294984e-09
1.6019523e-09
1.194981e-09
1.2044073e-09
1.6515353e-09
1.3029547e-09
1.193691e-09
1.3264554e-09
1.2005213e-09
1.4047712e-09
1.4162896e-09
1.1355033e-09
1.1254008e-09
1.2860544e-09
1.2895951e-09
1.0220565e-09
1.0113736e-09
1.2008272e-09
1.0888378e-09
1.2114824e-09
1.0922501e-09
1.5026314e-09
1.2868848e-09
1.2729558e-09
1.4927102e-09
1.2561183e-09
9.8196188e-10
1.2647896e-09
9.6717467e-10
9.3428006e-10
1.0816059e-09
9.4600149e-10
1.0708932e-09
1.3563027e-09
1.3331039e-09
1.1139418e-09
1.1076928e-09
1.2696369e-09
1.2543789e-09
1.0560663e-09
1.0656749e-09
1.0571984e-09
8.2214675e-10
1.0444344e-09
8.1061355e-10
1.1072315e-09
8.5489269e-10
8.5960007e-10
1.1122295e-09
8.8652773e-10
9.0546756e-10
7.7484991e-10
7.9021396e-10
7.9071557e-10
6.3238287e-10
7.7479754e-10
6.208697e-10
8.3343485e-10
9.4822288e-10
8.1940155e-10
9.6138408e-10
8.2129602e-10
6.5257572e-10
6.5983322e-10
8.3333611e-10
1.4642091e-09
1.5440551e-09
1.1727787e-09
1.2229253e-09
1.5036295e-09
1.1902601e-09
1.493097e-09
1.1399979e-09
1.348008e-09
1.2545739e-09
1.4356994e-09
1.3146883e-09
1.4106662e-09
1.2850507e-09
1.2954842e-09
1.4232464e-09
6.903012e-10
7.5214798e-10
6.3454743e-10
7.3584354e-10
7.9985893e-10
7.3386171e-10
7.6845213e-10
6.4434475e-10
8.0453144e-10
8.4617957e-10
9.9233223e-10
9.7826352e-10
1.0861526e-09
1.0375525e-09
1.0413495e-09
1.0083915e-09
1.0850988e-09
1.0168016e-09
6.6024376e-10
6.3286538e-10
6.0470476e-10
4.8790224e-10
4.8633618e-10
5.5062426e-10
1.0813293e-09
8.8337539e-10
8.439214e-10
9.2756764e-10
6.9304641e-10
9.529675e-10
8.8128989e-10
9.3954779e-10
9.9562396e-10
9.2302825e-10
6.4181044e-10
1.2099365e-09
1.2656178e-09
1.2431875e-09
1.2039701e-09
1.2240557e-09
1.1736377e-09
1.3050868e-09
1.1591737e-09
1.1982771e-09
6.1853297e-10
6.494562e-10
5.546713e-10
1.4097092e-09
1.042974e-09
1.9963037e-09
2.1239541e-09
2.1549175e-09
1.9409727e-09
2.0961324e-09
1.9374848e-09
2.0667122e-09
2.0728515e-09
1.8404179e-09
1.6644676e-09
1.5942519e-09
1.8553859e-09
1.5246824e-09
1.5833818e-09
1.6012471e-09
1.6962649e-09
1.7526456e-09
1.6479098e-09
2.3743038e-09
2.092488e-09
1.2661217e-09
1.319294e-09
1.3226663e-09
1.2227699e-09
1.0268371e-09
1.0152604e-09
8.9843173e-10
9.1572134e-10
6.8664102e-10
9.2415595e-10
9.3409172e-10
1.0034766e-09
6.3257974e-10
9.5851847e-10
1.230724e-09
1.2852447e-09
1.3270092e-09
1.1730385e-09
6.9959562e-10
6.27693e-10
2.3783627e-09
2.5071779e-09
2.3849406e-09
2.4751542e-09
1.9650053e-09
1.601058e-09
1.180036e-09
1.2314704e-09
1.6365596e-09
1.0921128e-09
3.8036859e-09
4.374344e-09
3.2792173e-09
2.9289005e-09
4.0107551e-09
2.4906895e-09
3.4736448e-09
2.1685607e-09
2.0133433e-09
1.8652494e-09
2.9658855e-09
4.903752e-09
1.640525e-09
1.7154938e-09
1.7179564e-09
1.6370832e-09
1.6710382e-09
1.7886282e-09
1.6818921e-09
1.5706385e-09
2.211026e-09
2.2401801e-09
2.0627193e-09
2.0706653e-09
2.1307546e-09
2.2557342e-09
2.0321132e-09
1.9362546e-09
1.4076517e-09
1.1198904e-09
1.4563019e-09
1.1551066e-09
1.4497113e-09
1.438552e-09
1.3093758e-09
1.2860723e-09
1.3081138e-09
1.1988026e-09
1.3533159e-09
1.2343499e-09
1.5311451e-09
1.2183892e-09
1.4973161e-09
1.1889427e-09
1.0889745e-09
1.0341415e-09
1.1144804e-09
1.0232502e-09
9.8968125e-10
9.5095423e-10
1.0332803e-09
9.7485469e-10
6.7726851e-10
7.0125337e-10
6.5424404e-10
7.0794369e-10
7.3913448e-10
7.5893438e-10
7.7533714e-10
6.7501315e-10
8.4850344e-10
8.3936663e-10
6.7574434e-10
6.8982274e-10
1.5351075e-09
1.5729571e-09
1.2183201e-09
1.2382648e-09
1.4734207e-09
1.4186856e-09
1.3295691e-09
1.2644287e-09
1.4331817e-09
1.3115506e-09
1.4778017e-09
1.3405202e-09
1.5553154e-09
1.4710893e-09
1.2383431e-09
1.1659462e-09
1.1160997e-09
1.0557736e-09
1.1157918e-09
1.0165612e-09
1.0944353e-09
1.0448759e-09
1.1545775e-09
1.0724395e-09
7.6338919e-10
7.950483e-10
6.3632434e-10
8.2786315e-10
8.4459669e-10
7.7713111e-10
7.7543149e-10
6.5373631e-10
8.5437197e-10
8.5492565e-10
6.4460496e-10
6.7803679e-10
6.069705e-10
5.0370531e-10
4.9611033e-10
5.7041652e-10
4.8854941e-10
4.5142894e-10
5.1542099e-10
5.4431769e-10
3.3977811e-10
2.0364655e-09
4.0072252e-09
1.9389929e-09
2.2531235e-09
3.0141469e-09
2.5027074e-09
4.4192615e-09
7.094368e-09
1.2976656e-09
1.290116e-09
1.1352194e-09
1.1197184e-09
1.1494442e-09
1.0233415e-09
1.2069325e-09
1.068686e-09
1.1979635e-09
8.8084367e-10
1.2245394e-09
9.25862e-10
1.3193659e-09
9.6219276e-10
1.2707308e-09
9.5869046e-10
1.3003166e-09
1.3052543e-09
9.4173084e-10
9.6486173e-10
1.299389e-09
1.2443108e-09
1.1450356e-09
1.092336e-09
1.2656108e-09
1.1195538e-09
1.2879164e-09
1.1308439e-09
1.3165795e-09
1.2431427e-09
9.7674008e-10
9.4766014e-10
1.3129468e-09
1.0068575e-09
1.3440935e-09
1.0202263e-09
1.4345186e-09
1.2093847e-09
1.4785947e-09
1.2396435e-09
1.502148e-09
1.2587484e-09
1.4330968e-09
1.1954542e-09
1.3454934e-09
1.2696689e-09
1.0215972e-09
9.6475857e-10
1.2098867e-09
9.1711353e-10
1.2522239e-09
9.5133939e-10
1.4784108e-09
1.2335102e-09
1.46499e-09
1.2147027e-09
1.1144188e-09
1.3209945e-09
1.3832315e-09
1.1613153e-09
1.330262e-09
1.0132032e-09
1.300883e-09
9.8888307e-10
4.1283631e-09
1.8157977e-09
1.9827131e-09
2.4606486e-09
9.4797571e-10
9.9167023e-10
9.6579525e-10
1.0256337e-09
9.1964233e-10
1.0206807e-09
1.061563e-09
1.0322854e-09
1.0031673e-09
1.081931e-09
1.1438611e-09
1.0939678e-09
9.2834583e-10
1.0167372e-09
1.0186242e-09
1.0694152e-09
9.616024e-10
1.0889062e-09
1.0387056e-09
1.0375478e-09
9.1729653e-10
1.0632278e-09
1.0099657e-09
1.0127629e-09
9.8474509e-10
1.0000087e-09
1.0653965e-09
1.0084593e-09
1.4672497e-09
1.4131692e-09
8.7595487e-10
9.0764628e-10
9.3631688e-10
9.0028293e-10
1.5044543e-09
1.5650945e-09
1.5526461e-09
1.5460443e-09
1.5381766e-09
1.5306562e-09
2.2677288e-09
2.2629787e-09
1.3089832e-09
1.3869067e-09
1.4518059e-09
1.4786863e-09
2.3950787e-09
2.1580908e-09
1.3859767e-09
1.44071e-09
1.4930669e-09
1.4800492e-09
2.501377e-09
2.340077e-09
2.5331556e-09
2.5512118e-09
6.9139059e-09
6.3515013e-09
3.9843793e-09
5.7719755e-09
5.9289246e-09
1.0434725e-08
1.7457103e-08
1.8984782e-08
1.1804234e-09
1.1266997e-09
1.7065106e-09
1.7017047e-09
3.1041536e-09
2.2306642e-09
2.1809913e-09
1.6496595e-09
1.7117357e-09
3.5611691e-09
2.213412e-09
2.1590316e-09
1.5445811e-09
2.9963916e-09
2.9006091e-09
2.8449954e-09
2.9984167e-09
2.3033398e-09
2.3566219e-09
2.7815284e-09
2.8044422e-09
2.846268e-09
2.8904052e-09
2.3321143e-09
2.2539034e-09
1.2106348e-09
1.9534611e-09
2.2551162e-09
2.3465297e-09
3.142126e-09
3.1409219e-09
1.684396e-09
1.7006309e-09
3.1016122e-09
3.0362541e-09
1.6662918e-09
1.6329558e-09
1.7564802e-09
1.7126433e-09
9.6528055e-10
4.5213927e-10
4.6405244e-10
3.225708e-10
1.5411891e-09
9.8170311e-10
1.5972926e-09
3.3498323e-10
4.6318595e-10
4.7248835e-10
3.4280873e-10
3.536441e-10
3.0948409e-10
1.4137145e-09
1.4668093e-09
1.0294167e-09
1.0314573e-09
2.0723431e-10
2.133384e-10
3.3737008e-10
1.6234426e-09
9.9808945e-10
1.012622e-09
1.7013478e-09
1.00751e-09
1.4551552e-09
1.5107994e-09
1.0548365e-09
2.8077241e-10
3.1897839e-10
2.1145548e-10
2.1768898e-10
1.648185e-09
3.0734427e-09
1.6938383e-09
3.1018761e-09
3.2378324e-09
3.1731047e-09
1.7175426e-09
1.7477896e-09
1.0488194e-09
1.0201297e-09
1.7621653e-09
1.7140941e-09
1.5026171e-09
1.5148645e-09
1.0846259e-09
1.0897979e-09
1.6030523e-09
9.8479957e-10
1.7311112e-09
1.014979e-09
1.0251333e-09
1.4292228e-09
1.0662699e-09
1.5115407e-09
2.8708661e-09
2.7728252e-09
2.7115189e-09
2.8751087e-09
2.3408949e-09
2.2636322e-09
2.8368947e-09
2.8855729e-09
2.8161331e-09
2.8953428e-09
2.3110123e-09
2.3590008e-09
1.6254115e-09
3.04738e-09
3.0961268e-09
1.6762668e-09
1.7398679e-09
3.2391129e-09
1.7068608e-09
3.1515344e-09
3.1655225e-09
1.6802407e-09
1.662986e-09
3.103287e-09
3.2216827e-09
3.2404657e-09
1.6932801e-09
1.7191859e-09
1.6234939e-09
9.9760798e-10
1.038203e-09
1.8124744e-09
1.7575884e-09
1.0486711e-09
1.0344873e-09
1.746878e-09
1.0345148e-09
1.3936187e-09
1.4781685e-09
1.1187497e-09
1.1055891e-09
1.4995094e-09
1.4918238e-09
1.1099473e-09
1.0361422e-09
1.0383958e-09
1.8510095e-09
1.7057569e-09
1.1038293e-09
1.4679285e-09
1.5366737e-09
1.1249713e-09
1.7149708e-09
1.0040825e-09
9.9705703e-10
1.6680094e-09
1.0924093e-09
1.4854806e-09
1.4433443e-09
1.1063247e-09
4.2369275e-09
4.6526321e-09
4.4690723e-09
1.1280164e-09
1.0693912e-09
3.9472145e-09
4.4471803e-09
4.5271658e-09
1.7246637e-09
1.7248196e-09
2.1939819e-09
2.1980405e-09
1.6628422e-09
1.7138346e-09
2.2965764e-09
2.2381748e-09
2.7078215e-09
1.1690618e-09
1.3203866e-09
2.8215007e-09
1.1769431e-09
1.0004e-09
4.3569913e-09
4.266771e-09
4.3213394e-09
3.9147419e-09
4.5135206e-09
4.7330483e-09
2.6468673e-09
1.0410527e-09
1.2211398e-09
2.7015783e-09
3.929565e-09
3.9043798e-09
5.3799094e-09
5.7602617e-09
4.012955e-09
4.1560797e-09
5.9468543e-09
5.7550148e-09
7.5467763e-09
7.6498059e-09
4.105622e-08
4.4563385e-08
7.8563967e-09
7.6908967e-09
4.3864869e-08
4.2097427e-08
4.3375506e-09
4.1502114e-09
5.9942758e-09
5.9523547e-09
7.3250921e-09
7.4969395e-09
3.8990792e-08
4.1837483e-08
7.6613467e-09
7.4528296e-09
4.0868401e-08
3.8661936e-08
4.0587532e-09
4.0217933e-09
5.9718359e-09
5.6105888e-09
2.515287e-09
2.5443238e-09
2.5966558e-09
2.5377108e-09
3.6983283e-09
3.7472217e-09
3.1352763e-09
3.2267412e-09
3.810359e-09
3.6221623e-09
3.3198082e-09
3.1893522e-09
3.6101403e-09
1.0713258e-08
3.8709548e-09
1.1802258e-08
3.8028812e-09
3.9587412e-09
1.2184076e-08
1.2159832e-08
3.5939586e-09
3.7375255e-09
3.2135296e-09
3.119548e-09
3.7172969e-09
3.8673251e-09
1.1272162e-08
1.2197146e-08
3.8121918e-09
3.8095215e-09
3.1750094e-09
3.200426e-09
3.7681497e-09
3.5595101e-09
1.1878811e-08
1.1512076e-08
2.5231242e-09
2.5948556e-09
2.4801237e-09
2.5384537e-09
3.6785933e-09
3.4866626e-09
2.9620145e-09
3.1122816e-09
3.3826672e-09
1.0708137e-08
1.153456e-08
3.5479978e-09
3.6732717e-09
3.5680946e-09
3.0191892e-09
3.1001429e-09
3.5134513e-09
1.1154546e-08
3.2968254e-09
1.0743763e-08
3.7388956e-09
3.6986158e-09
3.073027e-09
3.1532565e-09
3.645825e-09
3.8155345e-09
3.2093787e-09
3.0870257e-09
3.5165342e-09
3.677024e-09
1.1918973e-08
1.0751437e-08
1.1876478e-08
1.1893517e-08
3.7148726e-09
3.5162254e-09
2.8662615e-09
2.8492821e-09
2.8531677e-09
2.7164555e-09
2.299497e-09
2.3698203e-09
2.6808117e-09
2.7488355e-09
2.7821845e-09
2.7336441e-09
2.3779576e-09
2.3267056e-09
2.7863566e-09
2.8507013e-09
2.9332019e-09
2.8341668e-09
2.3655118e-09
2.3855426e-09
2.623811e-09
2.7144594e-09
2.7776172e-09
2.3539155e-09
2.8174947e-09
2.2946709e-09
3.092647e-09
3.0666079e-09
1.620413e-09
1.6684724e-09
1.7430381e-09
3.2377171e-09
3.154718e-09
1.6954323e-09
1.7137608e-09
3.2051983e-09
1.7469864e-09
3.2250677e-09
3.152225e-09
3.0673928e-09
1.6547215e-09
1.6977183e-09
1.6269623e-09
1.0395904e-09
1.0702656e-09
1.8066325e-09
1.880795e-09
1.0734646e-09
1.0458881e-09
1.949111e-09
1.059219e-09
1.3864271e-09
1.5381214e-09
1.1555975e-09
1.5417551e-09
1.5363518e-09
1.1695326e-09
1.1850161e-09
1.8723683e-09
1.0792038e-09
1.0916019e-09
1.9537104e-09
1.0574638e-09
1.0303986e-09
1.8722914e-09
1.7859348e-09
1.1766759e-09
1.5050012e-09
1.5926478e-09
1.215245e-09
1.1875609e-09
1.4983445e-09
1.479405e-09
1.1424797e-09
3.1150141e-09
3.0617902e-09
1.6310101e-09
1.666031e-09
3.2060294e-09
3.1855134e-09
1.6962571e-09
1.7255764e-09
1.6916643e-09
3.2465262e-09
3.2278499e-09
1.7145474e-09
1.7663387e-09
3.3018757e-09
3.227199e-09
1.7214407e-09
1.8403805e-09
1.0533525e-09
1.0723922e-09
2.0856401e-09
1.9260607e-09
1.0682418e-09
1.0471177e-09
2.0806469e-09
1.1197869e-09
1.4602166e-09
1.5658991e-09
1.158069e-09
1.538692e-09
1.5753144e-09
1.189686e-09
1.1416295e-09
1.0691037e-09
1.0631071e-09
1.8112619e-09
2.0250447e-09
1.1502435e-09
1.4880275e-09
1.5751727e-09
1.1562582e-09
1.715262e-09
1.0190661e-09
9.9087241e-10
1.6971283e-09
1.4383434e-09
1.4818729e-09
1.1414515e-09
1.1058949e-09
9.6665708e-10
9.2516869e-10
8.8490106e-10
9.0746857e-10
9.5383276e-10
1.0353045e-09
9.7835539e-10
1.0196638e-09
5.2752399e-10
1.3124964e-09
4.9133544e-10
1.3501248e-09
5.250831e-10
1.3092422e-09
5.4385995e-10
1.3134501e-09
9.4536339e-10
1.0298836e-09
1.0620576e-09
1.0500307e-09
1.0433459e-09
1.1069135e-09
1.0543706e-09
1.0114052e-09
1.0757512e-09
1.0254509e-09
1.0849411e-09
1.1071389e-09
1.092781e-09
1.0411577e-09
1.0423167e-09
9.9149237e-10
9.5326963e-10
2.7843178e-09
8.7250288e-10
3.1455443e-09
7.9616842e-10
7.2754431e-10
1.0022628e-09
9.9985482e-10
3.0013004e-09
3.127004e-09
7.8342905e-10
7.7969144e-10
1.115972e-09
1.0414326e-09
1.0561312e-09
1.0946015e-09
3.1703496e-09
2.9820589e-09
7.826238e-10
7.9063061e-10
3.1249618e-09
3.3256048e-09
8.4173108e-10
7.8957024e-10
3.1691642e-09
3.2633785e-09
8.1007993e-10
8.0180657e-10
3.1931302e-09
3.3513599e-09
8.3700721e-10
7.8689057e-10
2.8654045e-09
2.7605796e-09
8.0978855e-10
7.8870932e-10
3.2042849e-09
3.2670796e-09
8.0606271e-10
7.6728339e-10
1.831086e-09
2.2628445e-09
2.3786297e-09
1.8187761e-09
2.3455328e-09
2.2627048e-09
1.9256334e-09
1.7946761e-09
2.604066e-09
2.5547825e-09
2.0288628e-09
1.9147412e-09
2.2007066e-09
2.4103981e-09
1.8489363e-09
1.7944298e-09
2.7424275e-09
2.5616243e-09
6.6201961e-10
6.6054431e-10
7.0738757e-10
2.8893572e-09
2.7874537e-09
6.9388689e-10
3.1704297e-09
3.0014429e-09
7.3653566e-10
7.2973121e-10
3.1288367e-09
3.1920064e-09
7.8753165e-10
7.3865991e-10
3.0216616e-09
2.8862379e-09
7.3347865e-10
7.326846e-10
3.1466607e-09
3.14131e-09
7.7922903e-10
7.4683071e-10
3.1620702e-09
3.1094991e-09
7.7437312e-10
7.7078248e-10
3.0524049e-09
3.2710307e-09
8.1973294e-10
7.4877005e-10
1.9640921e-09
2.2892243e-09
2.4912504e-09
1.9172382e-09
2.601499e-09
2.6895328e-09
2.0012141e-09
2.0666481e-09
2.5239357e-09
2.657537e-09
2.0039929e-09
2.1001126e-09
2.6227009e-09
2.5000639e-09
1.9809528e-09
2.1627412e-09
3.6409763e-10
3.7684265e-10
3.5785152e-10
3.757003e-10
3.6146424e-10
3.2449118e-10
3.2798297e-10
3.8026719e-10
3.7516754e-10
3.5474845e-10
3.7630905e-10
3.5519951e-10