/*--------------------------------*- C++ -*----------------------------------*\
  =========                 |
  \\      /  F ield         | OpenFOAM: The Open Source CFD Toolbox
   \\    /   O peration     | Website:  https://openfoam.org
    \\  /    A nd           | Version:  7
     \\/     M anipulation  |
\*---------------------------------------------------------------------------*/
FoamFile
{
    version     2.0;
    format      ascii;
    class       volScalarField;
    location    "1000";
    object      p;
}
// * * * * * * * * * * * * * * * * * * * * * * * * * * * * * * * * * * * * * //

dimensions      [0 2 -2 0 0 0 0];

internalField   nonuniform List<scalar> 
34222
(
-6.5732746e+18
-6.1416657e+18
-6.5629708e+18
-6.4092543e+18
-6.4121214e+18
-6.6234122e+18
-6.6232848e+18
-5.6944869e+18
-6.1320575e+18
-5.9910361e+18
-5.9892375e+18
-6.2033828e+18
-6.206137e+18
-6.5257332e+18
-6.6068988e+18
-6.4037921e+18
-6.3933032e+18
-6.6180066e+18
-6.3988561e+18
-6.4022212e+18
-6.6080365e+18
-6.6065027e+18
-6.6583426e+18
-5.6827687e+18
-5.2594903e+18
-5.7769551e+18
-5.5602688e+18
-5.5655088e+18
-5.7799716e+18
-6.1043371e+18
-6.1884151e+18
-5.9742195e+18
-5.9818312e+18
-6.1972254e+18
-5.9820839e+18
-5.9810366e+18
-6.1891872e+18
-6.1917292e+18
-6.4694438e+18
-6.5642549e+18
-6.3556903e+18
-6.3770554e+18
-6.5887312e+18
-6.5914674e+18
-6.3935775e+18
-6.3839387e+18
-6.6016404e+18
-6.3993874e+18
-6.4027416e+18
-6.6100782e+18
-6.6083494e+18
-6.7238311e+18
-6.4885034e+18
-6.4675319e+18
-6.6024005e+18
-6.3549224e+18
-6.3348631e+18
-5.6589269e+18
-5.2464357e+18
-5.7627297e+18
-5.5469347e+18
-5.5532345e+18
-5.7694152e+18
-5.1522406e+18
-5.3552585e+18
-5.3599672e+18
-5.1562385e+18
-5.7661777e+18
-5.5551138e+18
-5.5605529e+18
-5.7692115e+18
-6.0943962e+18
-6.0759772e+18
-6.0600297e+18
-5.9602154e+18
-5.9451406e+18
-6.1550521e+18
-6.1734204e+18
-6.1743778e+18
-5.9654807e+18
-5.9726362e+18
-6.1826614e+18
-5.9815807e+18
-5.9804783e+18
-6.1891237e+18
-6.19165e+18
-6.3002936e+18
-6.330438e+18
-6.5338075e+18
-6.4973198e+18
-6.5503811e+18
-6.346188e+18
-6.367479e+18
-6.5741242e+18
-6.5926811e+18
-6.393859e+18
-6.3837345e+18
-6.6032865e+18
-6.3995093e+18
-6.4028652e+18
-6.6103921e+18
-6.6086547e+18
-6.5302348e+18
-6.5404844e+18
-6.5111355e+18
-6.6743254e+18
-6.5194738e+18
-6.390818e+18
-6.3374157e+18
-6.2912041e+18
-6.3810493e+18
-6.2814622e+18
-6.3708836e+18
-6.3597336e+18
-6.2608011e+18
-6.4419831e+18
-6.271742e+18
-6.4114533e+18
-6.3101788e+18
-6.281937e+18
-6.5284987e+18
-5.8497088e+18
-5.605818e+18
-5.6244694e+18
-5.5926691e+18
-5.2258646e+18
-5.7367261e+18
-5.5231956e+18
-5.5361184e+18
-5.7502457e+18
-5.8332748e+18
-5.1469535e+18
-5.1389465e+18
-5.3424738e+18
-5.3491954e+18
-5.7512539e+18
-5.5419036e+18
-5.547118e+18
-5.7575242e+18
-5.1533444e+18
-5.3478465e+18
-5.3526216e+18
-5.1569488e+18
-5.7655516e+18
-5.554094e+18
-5.5594861e+18
-5.7685546e+18
-6.1277152e+18
-6.1637577e+18
-6.1174235e+18
-6.1088027e+18
-6.0997613e+18
-6.0541774e+18
-6.0294034e+18
-6.004005e+18
-5.9017972e+18
-5.9244028e+18
-6.1325132e+18
-6.1060383e+18
-5.9506736e+18
-5.9364393e+18
-6.1410956e+18
-6.1588039e+18
-6.1737682e+18
-5.9647185e+18
-5.9721903e+18
-6.1825733e+18
-5.9815337e+18
-5.9804229e+18
-6.1891256e+18
-6.1916587e+18
-6.2911859e+18
-6.3202794e+18
-6.5190491e+18
-6.4848269e+18
-6.5514696e+18
-6.346401e+18
-6.3676131e+18
-6.5753712e+18
-6.5929332e+18
-6.3939622e+18
-6.3837963e+18
-6.6035707e+18
-6.4563464e+18
-6.4718882e+18
-6.4000188e+18
-6.3558058e+18
-6.3625577e+18
-6.4078246e+18
-6.4375513e+18
-6.3712366e+18
-6.4323382e+18
-6.428864e+18
-6.4230892e+18
-6.4873746e+18
-6.3795683e+18
-6.3370363e+18
-6.3471455e+18
-6.3904114e+18
-6.4602214e+18
-6.6081788e+18
-6.4646405e+18
-6.4946005e+18
-6.4072723e+18
-6.4185757e+18
-6.401499e+18
-6.4129847e+18
-6.3328509e+18
-6.3279316e+18
-6.2571541e+18
-6.2621777e+18
-6.2970905e+18
-6.2992646e+18
-6.2522995e+18
-6.2503816e+18
-6.2461327e+18
-6.3170599e+18
-6.3226308e+18
-6.2516174e+18
-6.3072574e+18
-6.312065e+18
-6.2366319e+18
-6.2413137e+18
-6.2968036e+18
-6.3023122e+18
-6.2266428e+18
-6.2317621e+18
-6.3475838e+18
-6.2486923e+18
-6.3344936e+18
-6.236587e+18
-6.3762184e+18
-6.2081141e+18
-6.3037778e+18
-6.2230994e+18
-6.3200047e+18
-6.2477258e+18
-6.2134731e+18
-6.3379138e+18
-5.97624e+18
-6.0692586e+18
-5.9793703e+18
-5.831085e+18
-5.8334598e+18
-5.9012998e+18
-5.9701061e+18
-5.8261553e+18
-5.6023212e+18
-5.6589412e+18
-5.7159325e+18
-5.7106698e+18
-5.7702213e+18
-5.7105831e+18
-5.5973898e+18
-5.3837649e+18
-5.5565505e+18
-5.791856e+18
-5.5758736e+18
-5.5829878e+18
-5.7003492e+18
-5.4934169e+18
-5.1993865e+18
-5.5091155e+18
-5.7194283e+18
-5.8141495e+18
-5.6961925e+18
-5.5845729e+18
-5.7039622e+18
-5.590978e+18
-5.3718056e+18
-5.1297175e+18
-5.120572e+18
-5.3215262e+18
-5.3326919e+18
-5.7258636e+18
-5.5189755e+18
-5.5312862e+18
-5.7385653e+18
-5.9533032e+18
-5.9616742e+18
-5.8179864e+18
-5.8098957e+18
-5.1486282e+18
-5.1411515e+18
-5.3360489e+18
-5.3418099e+18
-5.7507517e+18
-5.5411507e+18
-5.5460421e+18
-5.7569315e+18
-5.1529835e+18
-5.3468554e+18
-5.3517764e+18
-5.1568056e+18
-5.7654963e+18
-5.5540239e+18
-5.5594118e+18
-5.7684977e+18
-6.1590461e+18
-6.1533739e+18
-6.1852757e+18
-6.1867559e+18
-6.1478636e+18
-6.1430512e+18
-6.1390047e+18
-6.1343986e+18
-6.129935e+18
-6.1259325e+18
-6.0890435e+18
-6.0765399e+18
-6.0524422e+18
-6.002737e+18
-6.0648918e+18
-5.9746136e+18
-6.0783825e+18
-6.0472715e+18
-5.8483486e+18
-5.8762721e+18
-5.8934849e+18
-5.9157401e+18
-6.1182642e+18
-6.0925812e+18
-5.9497409e+18
-5.9354816e+18
-6.1407853e+18
-6.1583937e+18
-6.1737366e+18
-5.9646569e+18
-5.9721476e+18
-6.1825814e+18
-6.2918236e+18
-6.3207335e+18
-6.520431e+18
-6.486767e+18
-6.5517187e+18
-6.3465018e+18
-6.3677126e+18
-6.575632e+18
-6.2238417e+18
-6.2371516e+18
-6.2714795e+18
-6.2269037e+18
-6.2335569e+18
-6.2788555e+18
-6.3462703e+18
-6.3691496e+18
-6.3730449e+18
-6.3497178e+18
-6.3809645e+18
-6.3519298e+18
-6.3461047e+18
-6.3485067e+18
-6.3261031e+18
-6.3667254e+18
-6.3284886e+18
-6.3767742e+18
-6.3621331e+18
-6.3420209e+18
-6.3368174e+18
-6.3593023e+18
-6.364614e+18
-6.3667849e+18
-6.3720822e+18
-6.3518963e+18
-6.357277e+18
-6.3571355e+18
-6.3164366e+18
-6.3266993e+18
-6.368285e+18
-6.252832e+18
-6.2101076e+18
-6.2191684e+18
-6.2623726e+18
-6.4272636e+18
-6.3036864e+18
-6.2900173e+18
-6.3290129e+18
-6.3439228e+18
-6.3913324e+18
-6.3923888e+18
-6.4304987e+18
-6.3530192e+18
-6.3687216e+18
-6.345545e+18
-6.3619109e+18
-6.3830274e+18
-6.3951697e+18
-6.389437e+18
-6.3763888e+18
-6.3218144e+18
-6.3160432e+18
-6.3379238e+18
-6.3438149e+18
-6.3315176e+18
-6.3269491e+18
-6.3491488e+18
-6.3540041e+18
-6.3453233e+18
-6.3512232e+18
-6.3309509e+18
-6.3367698e+18
-6.3615495e+18
-6.356665e+18
-6.3419573e+18
-6.3468435e+18
-6.2926118e+18
-6.294969e+18
-6.24571e+18
-6.2482076e+18
-6.2869269e+18
-6.2899872e+18
-6.2429878e+18
-6.2400033e+18
-6.2639086e+18
-6.2626914e+18
-6.2383905e+18
-6.239411e+18
-6.2656473e+18
-6.2648969e+18
-6.2402762e+18
-6.241203e+18
-6.2761511e+18
-6.2787928e+18
-6.2316332e+18
-6.2292887e+18
-6.2815013e+18
-6.2842195e+18
-6.2370802e+18
-6.2342253e+18
-6.2662942e+18
-6.2689826e+18
-6.2221824e+18
-6.2196877e+18
-6.2715396e+18
-6.2738258e+18
-6.2270469e+18
-6.2247306e+18
-6.2568012e+18
-6.2594286e+18
-6.2128199e+18
-6.2106161e+18
-6.2913122e+18
-6.2617883e+18
-6.2639453e+18
-6.2172481e+18
-6.215052e+18
-6.2212974e+18
-6.2155396e+18
-6.2853246e+18
-6.2789139e+18
-6.2715571e+18
-6.2021973e+18
-6.2090153e+18
-6.2873582e+18
-6.2697104e+18
-6.1762568e+18
-6.1923801e+18
-6.2417645e+18
-6.1744937e+18
-6.2499004e+18
-6.1817372e+18
-6.2572463e+18
-6.2645757e+18
-6.1887289e+18
-6.1955666e+18
-6.2326456e+18
-6.2514976e+18
-6.1420468e+18
-6.1590268e+18
-5.971928e+18
-5.9692876e+18
-5.9709177e+18
-6.0154129e+18
-6.0171778e+18
-6.0645483e+18
-6.1246566e+18
-6.0661556e+18
-6.1261211e+18
-6.0646254e+18
-5.9669026e+18
-6.0590781e+18
-5.8239929e+18
-5.8569519e+18
-5.8254897e+18
-5.85866e+18
-5.8274867e+18
-5.8972326e+18
-5.8233044e+18
-5.8928297e+18
-5.8908374e+18
-5.9296298e+18
-5.8925329e+18
-5.9312841e+18
-5.9617993e+18
-6.0537138e+18
-5.9574585e+18
-6.0490921e+18
-5.8840715e+18
-5.815745e+18
-5.819458e+18
-5.8882877e+18
-5.6010194e+18
-5.6037162e+18
-5.6521881e+18
-5.6552968e+18
-5.4966114e+18
-5.6280393e+18
-5.6531529e+18
-5.6549089e+18
-5.679551e+18
-5.6810728e+18
-5.7039563e+18
-5.7631021e+18
-5.7668972e+18
-5.7073013e+18
-5.7087909e+18
-5.7365344e+18
-5.7649714e+18
-5.7071209e+18
-5.7057315e+18
-5.7334393e+18
-5.7348903e+18
-5.762086e+18
-5.7931503e+18
-5.7634512e+18
-5.7945385e+18
-5.756891e+18
-5.7599708e+18
-5.6988513e+18
-5.701312e+18
-5.5962336e+18
-5.5985038e+18
-5.6472961e+18
-5.6496644e+18
-5.4921088e+18
-5.3803306e+18
-5.5480556e+18
-5.5571905e+18
-5.6670953e+18
-5.6567631e+18
-5.3419516e+18
-5.5368232e+18
-5.9210439e+18
-5.9099284e+18
-5.7692064e+18
-5.7794909e+18
-5.7699324e+18
-5.677617e+18
-5.5670746e+18
-5.5755566e+18
-5.6866619e+18
-5.3576514e+18
-5.7476607e+18
-5.1695933e+18
-5.5177154e+18
-5.4560231e+18
-5.6541474e+18
-5.6781524e+18
-5.4747956e+18
-5.6907447e+18
-5.490843e+18
-5.2953642e+18
-5.1077016e+18
-5.0954974e+18
-5.3086657e+18
-5.5055386e+18
-5.7091575e+18
-5.789965e+18
-5.8004549e+18
-5.9316605e+18
-5.9434764e+18
-5.7418455e+18
-5.6885156e+18
-5.6848742e+18
-5.7450438e+18
-5.6383205e+18
-5.6343869e+18
-5.583849e+18
-5.5878796e+18
-5.4800254e+18
-5.7488898e+18
-5.6956747e+18
-5.6921844e+18
-5.752895e+18
-5.6446628e+18
-5.6417028e+18
-5.591098e+18
-5.5937773e+18
-5.4856807e+18
-5.3691654e+18
-5.3748565e+18
-5.13216e+18
-5.1241324e+18
-5.3163125e+18
-5.3267604e+18
-5.7247806e+18
-5.5179306e+18
-5.5304661e+18
-5.7377432e+18
-5.9454316e+18
-5.9420162e+18
-6.0332261e+18
-6.0369738e+18
-6.04116e+18
-5.9534298e+18
-5.9493121e+18
-6.0453102e+18
-5.8754892e+18
-5.8067208e+18
-5.8111123e+18
-5.8796359e+18
-5.8682997e+18
-5.8029503e+18
-5.7997812e+18
-5.8717746e+18
-5.1484683e+18
-5.1408477e+18
-5.3351864e+18
-5.3408282e+18
-5.7506997e+18
-5.5410884e+18
-5.5459676e+18
-5.7568779e+18
-5.1529949e+18
-5.3467959e+18
-5.3517321e+18
-5.1568406e+18
-6.1800115e+18
-6.1829862e+18
-6.1745442e+18
-6.1772839e+18
-6.1978069e+18
-6.1986402e+18
-6.2004645e+18
-6.1994319e+18
-6.1684717e+18
-6.1716521e+18
-6.164224e+18
-6.1660643e+18
-6.1598073e+18
-6.1622714e+18
-6.1553825e+18
-6.1574071e+18
-6.1509256e+18
-6.153255e+18
-6.1211524e+18
-6.1473743e+18
-6.1489372e+18
-6.115036e+18
-6.1086362e+18
-6.1026755e+18
-6.0391151e+18
-6.0778823e+18
-6.0839623e+18
-6.0238365e+18
-6.090244e+18
-6.0968249e+18
-5.9949864e+18
-6.0091678e+18
-6.0645129e+18
-6.0343008e+18
-5.8401752e+18
-5.8674875e+18
-5.8925483e+18
-5.9153233e+18
-6.1183752e+18
-6.0924833e+18
-5.9496688e+18
-5.9353988e+18
-6.1407671e+18
-6.1583802e+18
-6.2919493e+18
-6.3208514e+18
-6.5206942e+18
-6.4870701e+18
-6.207158e+18
-6.18599e+18
-6.1411925e+18
-6.2738202e+18
-6.2786947e+18
-6.1041859e+18
-6.1104379e+18
-6.1485331e+18
-6.2864006e+18
-6.2828016e+18
-6.312318e+18
-6.316256e+18
-6.3170051e+18
-6.3414978e+18
-6.3433877e+18
-6.3476661e+18
-6.3497317e+18
-6.3300633e+18
-6.3314861e+18
-6.3346714e+18
-6.3333771e+18
-6.3319894e+18
-6.3332576e+18
-6.3267856e+18
-6.3438496e+18
-6.3280743e+18
-6.3344013e+18
-6.3353456e+18
-6.3291957e+18
-6.3302001e+18
-6.3139256e+18
-6.3238973e+18
-6.2869687e+18
-6.2882092e+18
-6.3152918e+18
-6.3417407e+18
-6.321728e+18
-6.317159e+18
-6.3163615e+18
-6.2892636e+18
-6.28999e+18
-6.3370291e+18
-6.3394464e+18
-6.3430307e+18
-6.3455109e+18
-6.3394843e+18
-6.3192588e+18
-6.3368561e+18
-6.3164095e+18
-6.3026504e+18
-6.3076699e+18
-6.3328075e+18
-6.3356401e+18
-6.3297574e+18
-6.3268669e+18
-6.3323407e+18
-6.3346363e+18
-6.3405848e+18
-6.3381919e+18
-6.3264192e+18
-6.3293139e+18
-6.3056916e+18
-6.3084919e+18
-6.3318826e+18
-6.3112394e+18
-6.3343053e+18
-6.3137186e+18
-6.23249e+18
-6.191111e+18
-6.2008732e+18
-6.2426139e+18
-6.1242916e+18
-6.2539482e+18
-6.2592846e+18
-6.0890531e+18
-6.0974728e+18
-6.1334449e+18
-6.2639865e+18
-6.2686986e+18
-6.2969985e+18
-6.2604464e+18
-6.2754666e+18
-6.3133017e+18
-6.1796003e+18
-6.1673781e+18
-6.2074462e+18
-6.2205766e+18
-6.2609347e+18
-6.2261757e+18
-6.2432733e+18
-6.279078e+18
-6.2818935e+18
-6.300635e+18
-6.2736994e+18
-6.2928724e+18
-6.3365894e+18
-6.3113746e+18
-6.3290827e+18
-6.3194885e+18
-6.2727099e+18
-6.2648415e+18
-6.2845365e+18
-6.292649e+18
-6.300288e+18
-6.2803025e+18
-6.2867878e+18
-6.3071452e+18
-6.290237e+18
-6.2984611e+18
-6.2751574e+18
-6.2835227e+18
-6.3133943e+18
-6.2912266e+18
-6.306347e+18
-6.2985609e+18
-6.313972e+18
-6.2933256e+18
-6.2997623e+18
-6.3206749e+18
-6.3267334e+18
-6.3054683e+18
-6.3104889e+18
-6.3321778e+18
-6.3394741e+18
-6.3192427e+18
-6.3337394e+18
-6.3252413e+18
-6.3204377e+18
-6.3273384e+18
-6.3055914e+18
-6.3128366e+18
-6.2819081e+18
-6.2872046e+18
-6.2923812e+18
-6.2973234e+18
-6.3056503e+18
-6.3087031e+18
-6.3115861e+18
-6.3145624e+18
-6.3114442e+18
-6.3139589e+18
-6.317326e+18
-6.3198752e+18
-6.3053668e+18
-6.3084512e+18
-6.2854557e+18
-6.28843e+18
-6.3111524e+18
-6.3136543e+18
-6.291048e+18
-6.2932957e+18
-6.3218251e+18
-6.3242223e+18
-6.3301413e+18
-6.327726e+18
-6.3193544e+18
-6.3166173e+18
-6.322546e+18
-6.3252344e+18
-6.3162763e+18
-6.3190207e+18
-6.2958188e+18
-6.2985438e+18
-6.3214628e+18
-6.3010188e+18
-6.3238066e+18
-6.3032286e+18
-6.2592989e+18
-6.2578601e+18
-6.2334948e+18
-6.2349341e+18
-6.2616056e+18
-6.2605469e+18
-6.2361755e+18
-6.2373695e+18
-6.2277187e+18
-6.2520349e+18
-6.2536939e+18
-6.2292181e+18
-6.2564341e+18
-6.2550962e+18
-6.2306783e+18
-6.2321473e+18
-6.2148375e+18
-6.2137529e+18
-6.2167546e+18
-6.2158306e+18
-6.217254e+18
-6.2416212e+18
-6.2428802e+18
-6.2183579e+18
-6.2194775e+18
-6.2441252e+18
-6.2451739e+18
-6.2206842e+18
-6.2220495e+18
-6.2465367e+18
-6.2480347e+18
-6.2235164e+18
-6.2249769e+18
-6.2494767e+18
-6.2506709e+18
-6.2264394e+18
-6.2332905e+18
-6.2321601e+18
-6.207973e+18
-6.2090173e+18
-6.2357613e+18
-6.2346577e+18
-6.2102283e+18
-6.2115085e+18
-6.2383995e+18
-6.2370525e+18
-6.2128288e+18
-6.2141059e+18
-6.2152755e+18
-6.2396843e+18
-6.2405489e+18
-6.216287e+18
-6.2248139e+18
-6.2235998e+18
-6.2543848e+18
-6.1994439e+18
-6.200439e+18
-6.2268592e+18
-6.2259291e+18
-6.2014161e+18
-6.2024561e+18
-6.2082617e+18
-6.2517354e+18
-6.2056197e+18
-6.2291604e+18
-6.2279292e+18
-6.2035928e+18
-6.2047713e+18
-6.2311583e+18
-6.2302872e+18
-6.2058785e+18
-6.2069464e+18
-6.2451419e+18
-6.2486267e+18
-6.2026171e+18
-6.1992917e+18
-6.2386033e+18
-6.241959e+18
-6.1959219e+18
-6.1925548e+18
-6.2312886e+18
-6.2351047e+18
-6.1892812e+18
-6.1860639e+18
-6.2259125e+18
-6.1595445e+18
-6.2342341e+18
-6.1673571e+18
-6.2171595e+18
-6.1510434e+18
-6.2074976e+18
-6.1421679e+18
-6.1587845e+18
-6.2028168e+18
-6.20663e+18
-6.1620845e+18
-6.2102104e+18
-6.2137688e+18
-6.1654779e+18
-6.1689084e+18
-6.217122e+18
-6.2210436e+18
-6.1722324e+18
-6.1757848e+18
-6.179411e+18
-6.2247035e+18
-6.2281482e+18
-6.1828496e+18
-6.1095298e+18
-6.1723916e+18
-6.1813626e+18
-6.1173626e+18
-6.189947e+18
-6.1988731e+18
-6.1255336e+18
-6.133863e+18
-5.9644254e+18
-6.010619e+18
-5.9670478e+18
-6.0131874e+18
-5.9636511e+18
-5.9862917e+18
-5.9873954e+18
-5.9646271e+18
-5.9653663e+18
-5.9880828e+18
-5.9661983e+18
-5.9887727e+18
-6.0362435e+18
-6.0090263e+18
-6.0354448e+18
-6.0099494e+18
-6.0114917e+18
-6.0379379e+18
-6.0107418e+18
-6.0370824e+18
-6.0622644e+18
-6.0618188e+18
-6.092721e+18
-6.0936071e+18
-6.0626023e+18
-6.1223316e+18
-6.1243576e+18
-6.1612759e+18
-6.1619974e+18
-6.1251304e+18
-6.0634236e+18
-6.0642998e+18
-6.0943946e+18
-6.0951837e+18
-6.1258588e+18
-6.12675e+18
-6.1627174e+18
-6.1636891e+18
-6.0594291e+18
-6.1193306e+18
-5.9594248e+18
-6.0052513e+18
-5.9620041e+18
-6.008118e+18
-6.0540228e+18
-6.1138645e+18
-6.0568139e+18
-6.1166115e+18
-5.8221672e+18
-5.8187523e+18
-5.8195008e+18
-5.8347971e+18
-5.8356363e+18
-5.8515274e+18
-5.8549705e+18
-5.8687195e+18
-5.8506899e+18
-5.8678658e+18
-5.8373436e+18
-5.8202548e+18
-5.8364176e+18
-5.8211779e+18
-5.8523298e+18
-5.8695246e+18
-5.8704121e+18
-5.8532344e+18
-5.8200008e+18
-5.8527578e+18
-5.8862862e+18
-5.8886986e+18
-5.9248479e+18
-5.9274117e+18
-5.8157961e+18
-5.8179804e+18
-5.8483543e+18
-5.8507353e+18
-5.8818146e+18
-5.9201931e+18
-5.8841873e+18
-5.9226309e+18
-5.884947e+18
-5.9035948e+18
-5.9045686e+18
-5.8858304e+18
-5.9441599e+18
-5.9223602e+18
-5.9432166e+18
-5.9232983e+18
-5.9061746e+18
-5.886637e+18
-5.9053645e+18
-5.8875171e+18
-5.9240915e+18
-5.9449348e+18
-5.9457808e+18
-5.9249379e+18
-5.9537765e+18
-5.9996221e+18
-5.9566202e+18
-6.0023974e+18
-6.0481702e+18
-6.0511532e+18
-6.1077812e+18
-6.1109168e+18
-5.949861e+18
-5.995413e+18
-5.9515925e+18
-5.9973456e+18
-6.0440813e+18
-6.1036995e+18
-6.0458427e+18
-6.1054232e+18
-5.872955e+18
-5.9108685e+18
-5.8747528e+18
-5.9126075e+18
-5.8077134e+18
-5.8397449e+18
-5.8095154e+18
-5.8416835e+18
-5.8112763e+18
-5.8435408e+18
-5.813406e+18
-5.84581e+18
-5.8766516e+18
-5.9146665e+18
-5.8791593e+18
-5.9174102e+18
-5.6214995e+18
-5.6226532e+18
-5.5521329e+18
-5.5964291e+18
-5.5974227e+18
-5.6241109e+18
-5.626e+18
-5.5547183e+18
-5.6003016e+18
-5.5985733e+18
-5.6461809e+18
-5.6473895e+18
-5.6726172e+18
-5.673829e+18
-5.6490741e+18
-5.6511331e+18
-5.6755618e+18
-5.677673e+18
-5.5023442e+18
-5.6242525e+18
-5.6253387e+18
-5.63895e+18
-5.6399826e+18
-5.6044495e+18
-5.6515507e+18
-5.6640531e+18
-5.6650546e+18
-5.6525659e+18
-5.6536333e+18
-5.6659641e+18
-5.666952e+18
-5.6545927e+18
-5.6768085e+18
-5.6898169e+18
-5.6905875e+18
-5.6776958e+18
-5.6784409e+18
-5.6912833e+18
-5.6921964e+18
-5.679403e+18
-5.6989717e+18
-5.7266826e+18
-5.7002645e+18
-5.728192e+18
-5.7549236e+18
-5.7565755e+18
-5.7854256e+18
-5.7873571e+18
-5.7584318e+18
-5.7604688e+18
-5.7893101e+18
-5.7914345e+18
-5.7019857e+18
-5.729923e+18
-5.7040293e+18
-5.7318591e+18
-5.7060704e+18
-5.7201839e+18
-5.7192493e+18
-5.7068894e+18
-5.7325587e+18
-5.7466318e+18
-5.733408e+18
-5.7473721e+18
-5.7764096e+18
-5.7607564e+18
-5.7755914e+18
-5.7615051e+18
-5.7051159e+18
-5.7042229e+18
-5.7182793e+18
-5.7174331e+18
-5.7035495e+18
-5.7028156e+18
-5.7160533e+18
-5.716767e+18
-5.730114e+18
-5.7442182e+18
-5.7294483e+18
-5.7435826e+18
-5.7307916e+18
-5.7448951e+18
-5.7457751e+18
-5.7316518e+18
-5.7577558e+18
-5.7584039e+18
-5.7725833e+18
-5.7732953e+18
-5.7882258e+18
-5.8040365e+18
-5.7875256e+18
-5.8033236e+18
-5.7747714e+18
-5.7590774e+18
-5.7739674e+18
-5.7599268e+18
-5.7889134e+18
-5.8047502e+18
-5.8056274e+18
-5.7897482e+18
-5.748153e+18
-5.7497752e+18
-5.7778866e+18
-5.7795841e+18
-5.7512908e+18
-5.7812057e+18
-5.7531973e+18
-5.7832566e+18
-5.6936171e+18
-5.7205834e+18
-5.6948241e+18
-5.722121e+18
-5.6960866e+18
-5.7235063e+18
-5.7252095e+18
-5.6976446e+18
-5.616988e+18
-5.6178728e+18
-5.5476072e+18
-5.5918005e+18
-5.5925321e+18
-5.6189637e+18
-5.6203466e+18
-5.5497242e+18
-5.5937666e+18
-5.5951883e+18
-5.641659e+18
-5.6677146e+18
-5.6425426e+18
-5.6686696e+18
-5.643566e+18
-5.6697954e+18
-5.6450249e+18
-5.6713109e+18
-5.4983372e+18
-5.5000974e+18
-5.4515083e+18
-5.4031124e+18
-5.4046042e+18
-5.4528708e+18
-5.5381339e+18
-5.5514075e+18
-5.5464187e+18
-5.5958136e+18
-5.4466595e+18
-5.6007256e+18
-5.5562581e+18
-5.6058099e+18
-5.6117252e+18
-5.5620461e+18
-5.4551731e+18
-5.7126047e+18
-5.6612951e+18
-5.6556548e+18
-5.7179633e+18
-5.6504308e+18
-5.7074879e+18
-5.6470474e+18
-5.7029549e+18
-5.6458097e+18
-5.3473914e+18
-5.3389998e+18
-5.3251626e+18
-5.6395131e+18
-5.5295851e+18
-6.0000565e+18
-5.9159521e+18
-5.9107643e+18
-6.0058726e+18
-5.9053459e+18
-5.9941605e+18
-5.9002065e+18
-5.8983947e+18
-5.9885108e+18
-5.7655312e+18
-5.8333977e+18
-5.7588602e+18
-5.8282495e+18
-5.76086e+18
-5.8384279e+18
-5.7705453e+18
-5.7756912e+18
-5.8433921e+18
-5.885632e+18
-5.7497103e+18
-5.7230015e+18
-5.6711648e+18
-5.6667192e+18
-5.7274847e+18
-5.621416e+18
-5.6170037e+18
-5.567393e+18
-5.5714826e+18
-5.4638673e+18
-5.5794922e+18
-5.5752514e+18
-5.6252741e+18
-5.4716896e+18
-5.6297053e+18
-5.6801363e+18
-5.7325293e+18
-5.6754487e+18
-5.7375394e+18
-5.3541142e+18
-5.3623225e+18
-5.7404962e+18
-5.7293498e+18
-5.8609696e+18
-5.8735616e+18
-5.2805855e+18
-5.2644789e+18
-5.068969e+18
-5.0832713e+18
-5.6314487e+18
-5.5210997e+18
-5.4548351e+18
-5.6454311e+18
-5.6681768e+18
-5.4725443e+18
-5.689548e+18
-5.4900792e+18
-5.291609e+18
-5.110203e+18
-5.0997378e+18
-5.3032724e+18
-5.5046309e+18
-5.7085905e+18
-5.847997e+18
-5.7803109e+18
-5.7851047e+18
-5.853302e+18
-5.7958611e+18
-5.7906671e+18
-5.8589731e+18
-5.8642242e+18
-5.9260369e+18
-5.9207018e+18
-6.0110302e+18
-6.0167126e+18
-6.022911e+18
-5.931997e+18
-5.9376005e+18
-6.0288125e+18
-5.7336546e+18
-5.7631449e+18
-5.7350415e+18
-5.7644043e+18
-5.6832584e+18
-5.6852064e+18
-5.709564e+18
-5.7113888e+18
-5.6798619e+18
-5.7063436e+18
-5.6815163e+18
-5.7079564e+18
-5.7365166e+18
-5.7658656e+18
-5.738344e+18
-5.7676547e+18
-5.6330595e+18
-5.6581752e+18
-5.6351791e+18
-5.660218e+18
-5.6292328e+18
-5.6546381e+18
-5.6312502e+18
-5.6564113e+18
-5.6047084e+18
-5.6068443e+18
-5.5355927e+18
-5.5796433e+18
-5.5818124e+18
-5.6088501e+18
-5.6109526e+18
-5.5395425e+18
-5.5862872e+18
-5.5841294e+18
-5.4865487e+18
-5.4904315e+18
-5.7402967e+18
-5.7420109e+18
-5.7695131e+18
-5.7713179e+18
-5.6901324e+18
-5.6918769e+18
-5.71668e+18
-5.7186048e+18
-5.687086e+18
-5.7132842e+18
-5.6885311e+18
-5.7149689e+18
-5.7438309e+18
-5.7459918e+18
-5.7733324e+18
-5.7756749e+18
-5.6393854e+18
-5.6647577e+18
-5.6406997e+18
-5.6663353e+18
-5.6368314e+18
-5.6620078e+18
-5.6382206e+18
-5.6633641e+18
-5.6125651e+18
-5.6138974e+18
-5.542501e+18
-5.5879186e+18
-5.5889829e+18
-5.6149822e+18
-5.6160727e+18
-5.5450007e+18
-5.5900465e+18
-5.5909284e+18
-5.4930385e+18
-5.4955179e+18
-5.4400415e+18
-5.392157e+18
-5.3945042e+18
-5.4433936e+18
-5.3999638e+18
-5.3968541e+18
-5.4457094e+18
-5.4483943e+18
-5.3432039e+18
-5.1321308e+18
-5.1244742e+18
-5.3157511e+18
-5.3261184e+18
-5.7246914e+18
-5.5178567e+18
-5.5303999e+18
-5.7376754e+18
-5.9382459e+18
-5.9401374e+18
-5.9839488e+18
-5.9857317e+18
-5.9351458e+18
-5.9805171e+18
-5.9366098e+18
-5.9822174e+18
-6.0288697e+18
-6.087872e+18
-6.0304021e+18
-6.0893263e+18
-6.0322483e+18
-6.0911924e+18
-6.0342711e+18
-6.0933783e+18
-6.0363419e+18
-6.0382292e+18
-6.0954104e+18
-6.0973528e+18
-5.9459053e+18
-5.94802e+18
-5.9917021e+18
-5.9936591e+18
-5.942089e+18
-5.9876755e+18
-5.9438566e+18
-5.989677e+18
-6.0402331e+18
-6.0423665e+18
-6.0995719e+18
-6.1019192e+18
-5.8646921e+18
-5.9029786e+18
-5.8665659e+18
-5.9047594e+18
-5.7989898e+18
-5.8311676e+18
-5.8008397e+18
-5.8331453e+18
-5.8030234e+18
-5.8353032e+18
-5.805448e+18
-5.8375998e+18
-5.8686271e+18
-5.8708991e+18
-5.9067964e+18
-5.9089857e+18
-5.8583074e+18
-5.8962559e+18
-5.8595691e+18
-5.8976774e+18
-5.7954444e+18
-5.8277165e+18
-5.7972076e+18
-5.829395e+18
-5.8249228e+18
-5.7926984e+18
-5.7939111e+18
-5.8262181e+18
-5.8610749e+18
-5.89924e+18
-5.8628489e+18
-5.9011103e+18
-5.1484907e+18
-5.1408648e+18
-5.3351317e+18
-5.3407758e+18
-6.1926771e+18
-6.1939725e+18
-6.196719e+18
-6.1952908e+18
-6.1869603e+18
-6.1882891e+18
-6.1897049e+18
-6.1913184e+18
-6.1811287e+18
-6.1824274e+18
-6.1838891e+18
-6.1855851e+18
-6.1767169e+18
-6.1775014e+18
-6.1785195e+18
-6.1798476e+18
-6.1723737e+18
-6.1735142e+18
-6.1746178e+18
-6.1757996e+18
-6.1679155e+18
-6.1687128e+18
-6.1698136e+18
-6.1711747e+18
-6.1637122e+18
-6.1646728e+18
-6.1657614e+18
-6.1669545e+18
-6.1424329e+18
-6.1452768e+18
-6.1600317e+18
-6.1606864e+18
-6.161541e+18
-6.1626354e+18
-6.1364492e+18
-6.139496e+18
-6.1331436e+18
-6.1295654e+18
-6.1264975e+18
-6.1239858e+18
-6.0634209e+18
-6.0714078e+18
-6.0984201e+18
-6.1011759e+18
-6.1042331e+18
-6.107728e+18
-6.0555801e+18
-6.0475885e+18
-6.1107732e+18
-6.1138121e+18
-6.1172445e+18
-6.1209283e+18
-6.0249645e+18
-6.0187372e+18
-6.0400487e+18
-6.0320087e+18
-6.064013e+18
-6.0338102e+18
-5.8391379e+18
-5.8663788e+18
-5.8924602e+18
-5.9152828e+18
-6.1183856e+18
-6.0924777e+18
-6.1608743e+18
-6.1321299e+18
-6.2129636e+18
-6.2084038e+18
-6.013682e+18
-6.1425033e+18
-6.1383082e+18
-6.2204619e+18
-6.2169511e+18
-6.0209587e+18
-6.1464643e+18
-6.1498853e+18
-6.1582109e+18
-6.259619e+18
-6.257923e+18
-6.2723719e+18
-6.2742645e+18
-6.3086038e+18
-6.3108331e+18
-6.2636497e+18
-6.2614614e+18
-6.2762649e+18
-6.2783872e+18
-6.3128976e+18
-6.3149422e+18
-6.2435424e+18
-6.2910449e+18
-6.3160384e+18
-6.3172612e+18
-6.3272276e+18
-6.325861e+18
-6.3290259e+18
-6.3302484e+18
-6.3282667e+18
-6.3289851e+18
-6.331314e+18
-6.3322361e+18
-6.3213645e+18
-6.3202064e+18
-6.330811e+18
-6.3235026e+18
-6.3246769e+18
-6.3234208e+18
-6.3255589e+18
-6.3298023e+18
-6.3244642e+18
-6.3246707e+18
-6.3257934e+18
-6.3267376e+18
-6.3257221e+18
-6.3266289e+18
-6.3045136e+18
-6.3126482e+18
-6.3116178e+18
-6.2847817e+18
-6.2858073e+18
-6.2620404e+18
-6.2630035e+18
-6.3057653e+18
-6.3221107e+18
-6.3275098e+18
-6.3287283e+18
-6.3233972e+18
-6.2821763e+18
-6.3091494e+18
-6.3105e+18
-6.2834811e+18
-6.3076589e+18
-6.3068081e+18
-6.2642432e+18
-6.2652815e+18
-6.3243797e+18
-6.3213015e+18
-6.3257604e+18
-6.322832e+18
-6.3239851e+18
-6.3247387e+18
-6.3278614e+18
-6.3269329e+18
-6.3253259e+18
-6.3263272e+18
-6.3197463e+18
-6.3209081e+18
-6.3078176e+18
-6.3066843e+18
-6.2794899e+18
-6.2807571e+18
-6.3171134e+18
-6.3227492e+18
-6.3185552e+18
-6.3241097e+18
-6.2764609e+18
-6.3038492e+18
-6.2780361e+18
-6.3054506e+18
-6.2506129e+18
-6.2483548e+18
-6.2626084e+18
-6.2648668e+18
-6.3011749e+18
-6.2985316e+18
-6.2556389e+18
-6.253049e+18
-6.2673989e+18
-6.2699627e+18
-6.3062162e+18
-6.3037282e+18
-6.31395e+18
-6.3109786e+18
-6.3126889e+18
-6.3154951e+18
-6.3168587e+18
-6.3140529e+18
-6.3179929e+18
-6.3150313e+18
-6.319152e+18
-6.3219674e+18
-6.3230795e+18
-6.3200648e+18
-6.3179294e+18
-6.3163487e+18
-6.3193194e+18
-6.3207312e+18
-6.306416e+18
-6.3122129e+18
-6.3137149e+18
-6.3079e+18
-6.3092123e+18
-6.3150919e+18
-6.3162694e+18
-6.3104647e+18
-6.2659247e+18
-6.2931158e+18
-6.2945888e+18
-6.2671853e+18
-6.2685165e+18
-6.2958731e+18
-6.2969812e+18
-6.2696019e+18
-6.3175979e+18
-6.3189516e+18
-6.3132337e+18
-6.311805e+18
-6.2710272e+18
-6.2984054e+18
-6.2999639e+18
-6.2724856e+18
-6.3144717e+18
-6.320208e+18
-6.3213999e+18
-6.3157445e+18
-6.273976e+18
-6.3012368e+18
-6.3024007e+18
-6.2750843e+18
-6.1066007e+18
-6.2385166e+18
-6.2328005e+18
-6.0723368e+18
-6.0808872e+18
-6.1151407e+18
-6.2437954e+18
-6.2487846e+18
-6.1945245e+18
-6.1891637e+18
-6.1197696e+18
-6.1252628e+18
-6.203753e+18
-6.1992048e+18
-6.1301218e+18
-6.1343153e+18
-6.1768198e+18
-6.1388729e+18
-6.1538896e+18
-6.1926982e+18
-6.0624623e+18
-6.0509846e+18
-6.08521e+18
-6.2062809e+18
-6.2135773e+18
-6.0964429e+18
-6.2269054e+18
-6.2205978e+18
-6.144058e+18
-6.1081993e+18
-6.123483e+18
-6.1600639e+18
-6.2053363e+18
-6.1966874e+18
-6.2142993e+18
-6.2232335e+18
-6.2227783e+18
-6.2142776e+18
-6.2411497e+18
-6.2322887e+18
-6.2191763e+18
-6.2282019e+18
-6.2043947e+18
-6.2135473e+18
-6.2374892e+18
-6.2464e+18
-6.2225468e+18
-6.2315504e+18
-6.2497804e+18
-6.2573442e+18
-6.2767236e+18
-6.2687584e+18
-6.2556424e+18
-6.2652058e+18
-6.2404475e+18
-6.250142e+18
-6.2741397e+18
-6.2822399e+18
-6.2589596e+18
-6.2672997e+18
-6.2411124e+18
-6.2317498e+18
-6.2599907e+18
-6.2503616e+18
-6.2316061e+18
-6.2389942e+18
-6.2463182e+18
-6.2529364e+18
-6.2523585e+18
-6.2564184e+18
-6.2570624e+18
-6.2611622e+18
-6.2603128e+18
-6.2639662e+18
-6.2651195e+18
-6.2688456e+18
-6.2499557e+18
-6.2299275e+18
-6.2542057e+18
-6.2340882e+18
-6.2619205e+18
-6.2581456e+18
-6.2379812e+18
-6.2416622e+18
-6.2781955e+18
-6.2749897e+18
-6.2800081e+18
-6.2833307e+18
-6.2656544e+18
-6.2696232e+18
-6.2452425e+18
-6.2492736e+18
-6.2715234e+18
-6.2677064e+18
-6.2726634e+18
-6.2764798e+18
-6.2731599e+18
-6.2765366e+18
-6.2529063e+18
-6.2562779e+18
-6.2593205e+18
-6.2653729e+18
-6.2711612e+18
-6.276459e+18
-6.3002705e+18
-6.3028567e+18
-6.3087285e+18
-6.306044e+18
-6.2935396e+18
-6.2735268e+18
-6.2770413e+18
-6.2969355e+18
-6.2975059e+18
-6.2943328e+18
-6.3000067e+18
-6.3032122e+18
-6.2998341e+18
-6.280122e+18
-6.3025518e+18
-6.2827805e+18
-6.2850145e+18
-6.281524e+18
-6.2867699e+18
-6.2903246e+18
-6.2912746e+18
-6.2882803e+18
-6.293671e+18
-6.2967875e+18
-6.2799425e+18
-6.2837035e+18
-6.2634844e+18
-6.2595896e+18
-6.2670928e+18
-6.2704073e+18
-6.2871363e+18
-6.2903628e+18
-6.2305348e+18
-6.2281745e+18
-6.2444845e+18
-6.2420754e+18
-6.277622e+18
-6.280367e+18
-6.2359345e+18
-6.2331935e+18
-6.2497766e+18
-6.2471522e+18
-6.2830023e+18
-6.2856222e+18
-6.240371e+18
-6.2383626e+18
-6.2545462e+18
-6.2523087e+18
-6.2881889e+18
-6.290727e+18
-6.2455913e+18
-6.2427777e+18
-6.2570864e+18
-6.2932438e+18
-6.2598246e+18
-6.2958806e+18
-6.2915636e+18
-6.2898174e+18
-6.2927018e+18
-6.29428e+18
-6.2957327e+18
-6.2930071e+18
-6.2940438e+18
-6.2969217e+18
-6.2982831e+18
-6.2953683e+18
-6.2997458e+18
-6.2970021e+18
-6.2983026e+18
-6.2992908e+18
-6.3021822e+18
-6.3010357e+18
-6.2854723e+18
-6.2910207e+18
-6.2925547e+18
-6.2870472e+18
-6.288438e+18
-6.2940467e+18
-6.2952818e+18
-6.2897006e+18
-6.2471462e+18
-6.2728525e+18
-6.2744376e+18
-6.2484347e+18
-6.2768642e+18
-6.2758016e+18
-6.249718e+18
-6.2506399e+18
-6.290983e+18
-6.2966325e+18
-6.2980164e+18
-6.2923787e+18
-6.2992957e+18
-6.3004708e+18
-6.2947348e+18
-6.2935684e+18
-6.251797e+18
-6.278143e+18
-6.2794938e+18
-6.2529723e+18
-6.2541734e+18
-6.2806196e+18
-6.2815992e+18
-6.2550149e+18
-6.3086572e+18
-6.3096575e+18
-6.3125827e+18
-6.3114059e+18
-6.3073891e+18
-6.3057797e+18
-6.308739e+18
-6.3101617e+18
-6.3035495e+18
-6.3006283e+18
-6.3022642e+18
-6.3050217e+18
-6.3063472e+18
-6.3035762e+18
-6.3045235e+18
-6.3074596e+18
-6.2960577e+18
-6.3018431e+18
-6.3032629e+18
-6.2975002e+18
-6.2988078e+18
-6.3046131e+18
-6.3057586e+18
-6.2999595e+18
-6.2561125e+18
-6.2828947e+18
-6.2843745e+18
-6.2573403e+18
-6.2867154e+18
-6.2856738e+18
-6.2587539e+18
-6.2597977e+18
-6.3083783e+18
-6.3070375e+18
-6.3012514e+18
-6.3026376e+18
-6.2611364e+18
-6.2880117e+18
-6.2895165e+18
-6.2624973e+18
-6.3038572e+18
-6.3096149e+18
-6.3108235e+18
-6.3050804e+18
-6.2917702e+18
-6.2907345e+18
-6.263874e+18
-6.2647594e+18
-6.2103546e+18
-6.2088921e+18
-6.2127273e+18
-6.2115983e+18
-6.2030382e+18
-6.2046283e+18
-6.2075288e+18