/*--------------------------------*- C++ -*----------------------------------*\
  =========                 |
  \\      /  F ield         | OpenFOAM: The Open Source CFD Toolbox
   \\    /   O peration     | Website:  https://openfoam.org
    \\  /    A nd           | Version:  7
     \\/     M anipulation  |
\*---------------------------------------------------------------------------*/
FoamFile
{
    version     2.0;
    format      ascii;
    class       volScalarField;
    location    "1000";
    object      pMean;
}
// * * * * * * * * * * * * * * * * * * * * * * * * * * * * * * * * * * * * * //

dimensions      [0 2 -2 0 0 0 0];

internalField   nonuniform List<scalar> 
34222
(
-1.4730644e+16
-1.4136355e+16
-1.464691e+16
-1.4517828e+16
-1.4577406e+16
-1.4964866e+16
-1.4943068e+16
-1.3573192e+16
-1.409457e+16
-1.3926781e+16
-1.3913479e+16
-1.413489e+16
-1.4165544e+16
-1.4480731e+16
-1.4820261e+16
-1.4473054e+16
-1.4304684e+16
-1.492656e+16
-1.4508029e+16
-1.45696e+16
-1.4986316e+16
-1.4951722e+16
-1.4642573e+16
-1.3536986e+16
-1.2743671e+16
-1.3534022e+16
-1.3328825e+16
-1.3333443e+16
-1.3535106e+16
-1.3993618e+16
-1.4050255e+16
-1.3927068e+16
-1.3891351e+16
-1.4121465e+16
-1.3842705e+16
-1.3841927e+16
-1.4143133e+16
-1.4177011e+16
-1.4225301e+16
-1.4651457e+16
-1.4260126e+16
-1.4303998e+16
-1.4743414e+16
-1.485916e+16
-1.4500259e+16
-1.4443389e+16
-1.4899882e+16
-1.4527311e+16
-1.458402e+16
-1.4997227e+16
-1.4977978e+16
-1.4707401e+16
-1.4588769e+16
-1.4537374e+16
-1.4464976e+16
-1.4442426e+16
-1.4384561e+16
-1.3463768e+16
-1.2707465e+16
-1.3519256e+16
-1.331372e+16
-1.3315657e+16
-1.3502847e+16
-1.2652706e+16
-1.2879861e+16
-1.2890641e+16
-1.2662681e+16
-1.3538961e+16
-1.3261026e+16
-1.326301e+16
-1.3530903e+16
-1.4318822e+16
-1.4250237e+16
-1.3861309e+16
-1.3885195e+16
-1.3800666e+16
-1.3950962e+16
-1.4029976e+16
-1.4100712e+16
-1.384088e+16
-1.3816832e+16
-1.41374e+16
-1.3835625e+16
-1.3827718e+16
-1.4151435e+16
-1.4183181e+16
-1.4059845e+16
-1.4198543e+16
-1.4567615e+16
-1.4442413e+16
-1.4725673e+16
-1.4285109e+16
-1.444909e+16
-1.4892904e+16
-1.4852084e+16
-1.4517281e+16
-1.4434662e+16
-1.4927605e+16
-1.4528195e+16
-1.4585051e+16
-1.4998539e+16
-1.4979837e+16
-1.4560814e+16
-1.4613338e+16
-1.4488989e+16
-1.4535941e+16
-1.4541977e+16
-1.4759689e+16
-1.4822782e+16
-1.4752734e+16
-1.4729392e+16
-1.472941e+16
-1.4700164e+16
-1.4664348e+16
-1.4656424e+16
-1.4464949e+16
-1.4697857e+16
-1.4374325e+16
-1.4324092e+16
-1.4252262e+16
-1.4304752e+16
-1.3834231e+16
-1.3481067e+16
-1.335528e+16
-1.343682e+16
-1.2643147e+16
-1.3417941e+16
-1.3225553e+16
-1.3278794e+16
-1.3476193e+16
-1.3780119e+16
-1.2642946e+16
-1.2604246e+16
-1.2846725e+16
-1.2868547e+16
-1.3507424e+16
-1.3218801e+16
-1.3228673e+16
-1.3493478e+16
-1.2615602e+16
-1.290512e+16
-1.2916211e+16
-1.2625668e+16
-1.3536041e+16
-1.3269458e+16
-1.3258852e+16
-1.352965e+16
-1.4649606e+16
-1.481795e+16
-1.4619833e+16
-1.4596942e+16
-1.456251e+16
-1.4186802e+16
-1.4123238e+16
-1.3704833e+16
-1.3640891e+16
-1.3734808e+16
-1.3911686e+16
-1.3773744e+16
-1.3744595e+16
-1.3719326e+16
-1.395902e+16
-1.4035924e+16
-1.4130088e+16
-1.3855483e+16
-1.3810083e+16
-1.4158021e+16
-1.3835496e+16
-1.3827171e+16
-1.4152438e+16
-1.4183915e+16
-1.4087733e+16
-1.4220481e+16
-1.4625418e+16
-1.4492655e+16
-1.4736972e+16
-1.4303674e+16
-1.4427689e+16
-1.4866862e+16
-1.4851541e+16
-1.4517751e+16
-1.4434401e+16
-1.4929138e+16
-1.444753e+16
-1.4507357e+16
-1.461317e+16
-1.455616e+16
-1.4583361e+16
-1.4646848e+16
-1.4634435e+16
-1.4772333e+16
-1.4734515e+16
-1.4597444e+16
-1.4698483e+16
-1.4424798e+16
-1.4553894e+16
-1.4495694e+16
-1.4527611e+16
-1.4583152e+16
-1.4335327e+16
-1.4260688e+16
-1.436749e+16
-1.4468103e+16
-1.45351e+16
-1.4566766e+16
-1.4634263e+16
-1.4669142e+16
-1.4811841e+16
-1.4799091e+16
-1.4817242e+16
-1.481923e+16
-1.4861702e+16
-1.4871289e+16
-1.4876393e+16
-1.486227e+16
-1.4775295e+16
-1.4771164e+16
-1.4788732e+16
-1.4800813e+16
-1.4743924e+16
-1.4758715e+16
-1.4763244e+16
-1.4766499e+16
-1.4710463e+16
-1.4729338e+16
-1.4719955e+16
-1.4746273e+16
-1.4632821e+16
-1.4629763e+16
-1.4594613e+16
-1.460378e+16
-1.4283023e+16
-1.4529881e+16
-1.451162e+16
-1.4578864e+16
-1.4558738e+16
-1.416481e+16
-1.4076792e+16
-1.4175837e+16
-1.4432116e+16
-1.4588551e+16
-1.4281794e+16
-1.4062997e+16
-1.4002643e+16
-1.4222283e+16
-1.4264949e+16
-1.3986048e+16
-1.3490253e+16
-1.3589391e+16
-1.3734394e+16
-1.3740085e+16
-1.3867262e+16
-1.3717946e+16
-1.3484639e+16
-1.2973361e+16
-1.3318861e+16
-1.3659705e+16
-1.3382437e+16
-1.3215321e+16
-1.3287438e+16
-1.3118033e+16
-1.2553333e+16
-1.3178463e+16
-1.3354471e+16
-1.3723207e+16
-1.3663134e+16
-1.3430821e+16
-1.3690208e+16
-1.3447276e+16
-1.2950369e+16
-1.255654e+16
-1.2542448e+16
-1.2764796e+16
-1.2801196e+16
-1.3414999e+16
-1.3133639e+16
-1.317902e+16
-1.3464313e+16
-1.4205791e+16
-1.4241983e+16
-1.3954794e+16
-1.3921806e+16
-1.2606713e+16
-1.2575391e+16
-1.2868949e+16
-1.2885954e+16
-1.3494694e+16
-1.3204326e+16
-1.3225167e+16
-1.3472195e+16
-1.2602859e+16
-1.2902761e+16
-1.2913714e+16
-1.2623957e+16
-1.3534819e+16
-1.3269683e+16
-1.3258859e+16
-1.3529249e+16
-1.4808554e+16
-1.480148e+16
-1.4877463e+16
-1.4887266e+16
-1.4786628e+16
-1.4767017e+16
-1.4759598e+16
-1.4752258e+16
-1.473717e+16
-1.4717447e+16
-1.4534532e+16
-1.4505501e+16
-1.4433782e+16
-1.4034993e+16
-1.4476367e+16
-1.3958516e+16
-1.3705559e+16
-1.3625549e+16
-1.3480458e+16
-1.3554911e+16
-1.3555168e+16
-1.3632958e+16
-1.3887648e+16
-1.3778396e+16
-1.3794107e+16
-1.3729991e+16
-1.3972686e+16
-1.4054423e+16
-1.413336e+16
-1.3857022e+16
-1.3810204e+16
-1.4159827e+16
-1.4105642e+16
-1.4247424e+16
-1.4666102e+16
-1.4498069e+16
-1.4737973e+16
-1.4304071e+16
-1.4425283e+16
-1.4865013e+16
-1.4252735e+16
-1.430448e+16
-1.459251e+16
-1.4490752e+16
-1.4509502e+16
-1.4615668e+16
-1.4654708e+16
-1.4729931e+16
-1.4745333e+16
-1.4663719e+16
-1.4721273e+16
-1.479297e+16
-1.482117e+16
-1.4826553e+16
-1.4849398e+16
-1.476172e+16
-1.4859694e+16
-1.4705064e+16
-1.4745955e+16
-1.4641239e+16
-1.4624912e+16
-1.4703517e+16
-1.4716488e+16
-1.4677965e+16
-1.4692199e+16
-1.472072e+16
-1.4735955e+16
-1.448003e+16
-1.4432116e+16
-1.4468483e+16
-1.4524687e+16
-1.4538186e+16
-1.4435343e+16
-1.4465466e+16
-1.4565661e+16
-1.4226929e+16
-1.438503e+16
-1.4348904e+16
-1.4399706e+16
-1.443923e+16
-1.4130925e+16
-1.415605e+16
-1.4262549e+16
-1.4381764e+16
-1.441927e+16
-1.4469974e+16
-1.4514582e+16
-1.4460951e+16
-1.4504562e+16
-1.4599607e+16
-1.4555765e+16
-1.4583831e+16
-1.4566775e+16
-1.4644545e+16
-1.465856e+16
-1.4611159e+16
-1.4600219e+16
-1.4675097e+16
-1.4690981e+16
-1.4616842e+16
-1.463196e+16
-1.4660855e+16
-1.4677281e+16
-1.4667158e+16
-1.4650329e+16
-1.4693005e+16
-1.4709659e+16
-1.4857227e+16
-1.4858085e+16
-1.486296e+16
-1.4858478e+16
-1.4841386e+16
-1.4852145e+16
-1.4855259e+16
-1.484054e+16
-1.4858321e+16
-1.4852658e+16
-1.4892131e+16
-1.4903426e+16
-1.4861317e+16
-1.4864952e+16
-1.490842e+16
-1.4905324e+16
-1.4811673e+16
-1.4825859e+16
-1.4827204e+16
-1.481049e+16
-1.4833508e+16
-1.483725e+16
-1.4834553e+16
-1.4834715e+16
-1.4787714e+16
-1.4801485e+16
-1.4800176e+16
-1.4784683e+16
-1.4807609e+16
-1.4808925e+16
-1.4806747e+16
-1.4809113e+16
-1.4755129e+16
-1.4768784e+16
-1.4771998e+16
-1.475636e+16
-1.4699116e+16
-1.47779e+16
-1.4780694e+16
-1.4778595e+16
-1.4780393e+16
-1.4713382e+16
-1.4712707e+16
-1.4685552e+16
-1.4674862e+16
-1.4651316e+16
-1.4666282e+16
-1.4695719e+16
-1.4456574e+16
-1.440164e+16
-1.4432131e+16
-1.4477356e+16
-1.4561375e+16
-1.4582587e+16
-1.4590043e+16
-1.4617891e+16
-1.4610813e+16
-1.4631957e+16
-1.4639999e+16
-1.4649472e+16
-1.4294767e+16
-1.4350188e+16
-1.431266e+16
-1.4373305e+16
-1.4421037e+16
-1.4472271e+16
-1.4478708e+16
-1.4567186e+16
-1.4575895e+16
-1.4685589e+16
-1.4741988e+16
-1.4694632e+16
-1.4753541e+16
-1.4578254e+16
-1.4414897e+16
-1.4574769e+16
-1.4048682e+16
-1.4121092e+16
-1.4053567e+16
-1.4127185e+16
-1.4054894e+16
-1.4213354e+16
-1.4044743e+16
-1.4206192e+16
-1.4236498e+16
-1.4330762e+16
-1.4242938e+16
-1.4338545e+16
-1.4400216e+16
-1.4560268e+16
-1.4384558e+16
-1.4539913e+16
-1.418128e+16
-1.4023975e+16
-1.4035646e+16
-1.4196373e+16
-1.3458585e+16
-1.3462917e+16
-1.3573238e+16
-1.35799e+16
-1.3190277e+16
-1.3479847e+16
-1.3567621e+16
-1.3572845e+16
-1.3620343e+16
-1.3624704e+16
-1.3724164e+16
-1.3850707e+16
-1.385893e+16
-1.3732189e+16
-1.3728728e+16
-1.378304e+16
-1.3878185e+16
-1.3724337e+16
-1.3720561e+16
-1.3774688e+16
-1.3778872e+16
-1.3868672e+16
-1.393265e+16
-1.3873691e+16
-1.39379e+16
-1.3827673e+16
-1.3840294e+16
-1.3703795e+16
-1.3715777e+16
-1.3435957e+16
-1.3449524e+16
-1.3553609e+16
-1.3565426e+16
-1.3188175e+16
-1.2959285e+16
-1.3323233e+16
-1.3343207e+16
-1.3577438e+16
-1.3547717e+16
-1.2832888e+16
-1.3250621e+16
-1.4122797e+16
-1.4079888e+16
-1.3802166e+16
-1.3838558e+16
-1.3583483e+16
-1.3610759e+16
-1.3380853e+16
-1.3388931e+16
-1.3630838e+16
-1.2901457e+16
-1.3513601e+16
-1.2445819e+16
-1.3195058e+16
-1.2969502e+16
-1.3129611e+16
-1.3198194e+16
-1.3031184e+16
-1.3290942e+16
-1.3048355e+16
-1.2667743e+16
-1.2484693e+16
-1.2446569e+16
-1.2714759e+16
-1.3095276e+16
-1.3346905e+16
-1.3869162e+16
-1.3889572e+16
-1.4154387e+16
-1.4174625e+16
-1.3777139e+16
-1.3668493e+16
-1.3654128e+16
-1.3792176e+16
-1.3518771e+16
-1.3504667e+16
-1.3390541e+16
-1.3406777e+16
-1.3141575e+16
-1.3805828e+16
-1.3691662e+16
-1.368226e+16
-1.3815187e+16
-1.3540586e+16
-1.3530739e+16
-1.3417864e+16
-1.3426328e+16
-1.3162099e+16
-1.2919799e+16
-1.2943645e+16
-1.2525276e+16
-1.2520822e+16
-1.2788197e+16
-1.2818417e+16
-1.3416598e+16
-1.3118569e+16
-1.315161e+16
-1.3479862e+16
-1.4352671e+16
-1.4334136e+16
-1.4491314e+16
-1.451272e+16
-1.4527909e+16
-1.4374739e+16
-1.4367937e+16
-1.4531815e+16
-1.4160151e+16
-1.3996716e+16
-1.4007992e+16
-1.416801e+16
-1.4128927e+16
-1.3982311e+16
-1.3968311e+16
-1.4145231e+16
-1.2594609e+16
-1.2569223e+16
-1.2869685e+16
-1.2888024e+16
-1.3493738e+16
-1.320182e+16
-1.3224185e+16
-1.3469908e+16
-1.260287e+16
-1.2903057e+16
-1.2913787e+16
-1.2623894e+16
-1.4872922e+16
-1.4872909e+16
-1.4856916e+16
-1.4867197e+16
-1.4903163e+16
-1.4912028e+16
-1.4915066e+16
-1.491578e+16
-1.4847317e+16
-1.4851343e+16
-1.4829161e+16
-1.4840565e+16
-1.4822834e+16
-1.4824697e+16
-1.4804065e+16
-1.4814473e+16
-1.4795428e+16
-1.4798342e+16
-1.4706178e+16
-1.477657e+16
-1.4787039e+16
-1.4698666e+16
-1.4679546e+16
-1.4657493e+16
-1.4387392e+16
-1.4577208e+16
-1.4604124e+16
-1.4338013e+16
-1.4626778e+16
-1.4640639e+16
-1.4222844e+16
-1.4277111e+16
-1.3719306e+16
-1.362636e+16
-1.3394272e+16
-1.3475515e+16
-1.3537568e+16
-1.362961e+16
-1.3899945e+16
-1.3782014e+16
-1.3795712e+16
-1.3730291e+16
-1.3973362e+16
-1.405528e+16
-1.4106418e+16
-1.42487e+16
-1.4668098e+16
-1.4498614e+16
-1.4191114e+16
-1.4109657e+16
-1.4536636e+16
-1.4683533e+16
-1.4700425e+16
-1.4320916e+16
-1.4340914e+16
-1.4559522e+16
-1.4718924e+16
-1.4711508e+16
-1.4795375e+16
-1.4807322e+16
-1.4856202e+16
-1.476767e+16
-1.477338e+16
-1.4778762e+16
-1.478801e+16
-1.483604e+16
-1.4840368e+16
-1.4853285e+16
-1.4850436e+16
-1.4835377e+16
-1.4838211e+16
-1.4825193e+16
-1.4816941e+16
-1.482841e+16
-1.4841751e+16
-1.484522e+16
-1.4832776e+16
-1.4835581e+16
-1.4810258e+16
-1.4846881e+16
-1.4774334e+16
-1.4778645e+16
-1.4815273e+16
-1.4811144e+16
-1.484565e+16
-1.4818567e+16
-1.4820216e+16
-1.478538e+16
-1.4782487e+16
-1.4754065e+16
-1.4761456e+16
-1.4765891e+16
-1.4772144e+16
-1.4805566e+16
-1.4843839e+16
-1.4798055e+16
-1.4829783e+16
-1.4769767e+16
-1.4783563e+16
-1.4742285e+16
-1.4746226e+16
-1.4735273e+16
-1.4727798e+16
-1.4743969e+16
-1.4749417e+16
-1.4761615e+16
-1.4754697e+16
-1.4772081e+16
-1.4780122e+16
-1.4802919e+16
-1.4818012e+16
-1.4788677e+16
-1.4829047e+16
-1.4794639e+16
-1.4830707e+16
-1.4469448e+16
-1.4372088e+16
-1.4404609e+16
-1.450674e+16
-1.4487914e+16
-1.462943e+16
-1.4646577e+16
-1.4269271e+16
-1.4301243e+16
-1.4516004e+16
-1.4657759e+16
-1.4667601e+16
-1.4295804e+16
-1.425065e+16
-1.4297252e+16
-1.4346928e+16
-1.4318972e+16
-1.4287463e+16
-1.4386883e+16
-1.4425595e+16
-1.4193968e+16
-1.4142351e+16
-1.4192059e+16
-1.4243079e+16
-1.4171518e+16
-1.4217056e+16
-1.4248201e+16
-1.4302802e+16
-1.4327132e+16
-1.4357154e+16
-1.4415172e+16
-1.4275599e+16
-1.4434917e+16
-1.4409938e+16
-1.4488465e+16
-1.4510991e+16
-1.4533987e+16
-1.4459976e+16
-1.4477801e+16
-1.4555747e+16
-1.4458527e+16
-1.4481489e+16
-1.4504011e+16
-1.45304e+16
-1.4529335e+16
-1.4553811e+16
-1.4507359e+16
-1.4576844e+16
-1.457611e+16
-1.4498025e+16
-1.45202e+16
-1.4593666e+16
-1.4609874e+16
-1.453711e+16
-1.455274e+16
-1.4629606e+16
-1.4602562e+16
-1.4628382e+16
-1.4581553e+16
-1.4646156e+16
-1.4548546e+16
-1.4566392e+16
-1.4595637e+16
-1.4616107e+16
-1.4715353e+16
-1.4729964e+16
-1.4744302e+16
-1.4757318e+16
-1.4670268e+16
-1.4679191e+16
-1.4686862e+16
-1.4692941e+16
-1.468758e+16
-1.4694079e+16
-1.4701187e+16
-1.4709156e+16
-1.4712329e+16
-1.4722619e+16
-1.4746769e+16
-1.4763969e+16
-1.4731015e+16
-1.4738629e+16
-1.4773988e+16
-1.4776387e+16
-1.4716237e+16
-1.4722479e+16
-1.473615e+16
-1.4728567e+16
-1.470947e+16
-1.4701712e+16
-1.4715695e+16
-1.4720534e+16
-1.4746857e+16
-1.4755069e+16
-1.4785468e+16
-1.4799526e+16
-1.4761353e+16
-1.4804342e+16
-1.4767329e+16
-1.4803054e+16
-1.4844832e+16
-1.4847112e+16
-1.4888679e+16
-1.4895059e+16
-1.4847152e+16
-1.4849658e+16
-1.4895691e+16
-1.4889456e+16
-1.4874199e+16
-1.4833851e+16
-1.4839141e+16
-1.4884972e+16
-1.4836683e+16
-1.4839611e+16
-1.48884e+16
-1.4884845e+16
-1.4908276e+16
-1.4901233e+16
-1.491305e+16
-1.4912881e+16
-1.4844455e+16
-1.4805162e+16
-1.480485e+16
-1.4854461e+16
-1.4861876e+16
-1.4815459e+16
-1.4809352e+16
-1.4858393e+16
-1.486111e+16
-1.4811799e+16
-1.4818198e+16
-1.4871315e+16
-1.487578e+16
-1.4827886e+16
-1.4821138e+16
-1.4870247e+16
-1.4770384e+16
-1.4766511e+16
-1.4814852e+16
-1.48258e+16
-1.4779059e+16
-1.4776688e+16
-1.4831049e+16
-1.4830616e+16
-1.4788882e+16
-1.4779304e+16
-1.483288e+16
-1.4844352e+16
-1.4846696e+16
-1.4795952e+16
-1.4794175e+16
-1.4841989e+16
-1.4739755e+16
-1.4742163e+16
-1.4751044e+16
-1.4785621e+16
-1.4794846e+16
-1.4743184e+16
-1.4750611e+16
-1.4800918e+16
-1.479655e+16
-1.4753838e+16
-1.4748908e+16
-1.4757322e+16
-1.4755355e+16
-1.4751602e+16
-1.4802618e+16
-1.4812075e+16
-1.4764129e+16
-1.4763246e+16
-1.481627e+16
-1.4813084e+16
-1.4726094e+16
-1.4740888e+16
-1.4750716e+16
-1.4732949e+16
-1.4718493e+16
-1.4723744e+16
-1.4725493e+16
-1.4725435e+16
-1.4688163e+16
-1.4706708e+16
-1.4715066e+16
-1.4697043e+16
-1.4512726e+16
-1.4546508e+16
-1.4536013e+16
-1.4558195e+16
-1.4488652e+16
-1.451926e+16
-1.4457411e+16
-1.4479824e+16
-1.4607708e+16
-1.4596931e+16
-1.4613208e+16
-1.462846e+16
-1.4627317e+16
-1.4634316e+16
-1.4638881e+16
-1.4641343e+16
-1.4646502e+16
-1.4662021e+16
-1.46524e+16
-1.4671404e+16
-1.4684363e+16
-1.4674525e+16
-1.4678908e+16
-1.4685753e+16
-1.4364636e+16
-1.4342032e+16
-1.4375893e+16
-1.4403141e+16
-1.4402874e+16
-1.4431257e+16
-1.4430876e+16
-1.4448227e+16
-1.4462658e+16
-1.4559747e+16
-1.4466349e+16
-1.4561775e+16
-1.4468397e+16
-1.4526667e+16
-1.4531002e+16
-1.4472061e+16
-1.4474727e+16
-1.4534157e+16
-1.4476759e+16
-1.4535252e+16
-1.465776e+16
-1.4595499e+16
-1.4652749e+16
-1.4599592e+16
-1.4604648e+16
-1.4661921e+16
-1.4603453e+16
-1.4661491e+16
-1.4680327e+16
-1.4726866e+16
-1.4771809e+16
-1.4777782e+16
-1.4730962e+16
-1.4737525e+16
-1.4821499e+16
-1.4832646e+16
-1.4840602e+16
-1.4827438e+16
-1.473481e+16
-1.4736009e+16
-1.478111e+16
-1.4780764e+16
-1.4830149e+16
-1.4830635e+16
-1.4843281e+16
-1.4842384e+16
-1.4678922e+16
-1.473909e+16
-1.4451452e+16
-1.4545936e+16
-1.4458315e+16
-1.4555276e+16
-1.4665688e+16
-1.4722303e+16
-1.4674357e+16
-1.4733782e+16
-1.4044052e+16
-1.4019619e+16
-1.4021932e+16
-1.4054404e+16
-1.4056984e+16
-1.4111917e+16
-1.4116319e+16
-1.4149948e+16
-1.4109247e+16
-1.4146905e+16
-1.4061463e+16
-1.4024605e+16
-1.4059492e+16
-1.4026861e+16
-1.4114795e+16
-1.4152766e+16
-1.4154668e+16
-1.4116863e+16
-1.4039083e+16
-1.4112277e+16
-1.4227425e+16
-1.4231073e+16
-1.4322771e+16
-1.4325393e+16
-1.4028123e+16
-1.4034078e+16
-1.4100679e+16
-1.4107546e+16
-1.4216495e+16
-1.4310539e+16
-1.4223113e+16
-1.4318375e+16
-1.421386e+16
-1.4266776e+16
-1.4270029e+16
-1.4216602e+16
-1.4394208e+16
-1.4333787e+16
-1.4389886e+16
-1.4337423e+16
-1.4274957e+16
-1.4219737e+16
-1.4273023e+16
-1.4221775e+16
-1.4340718e+16
-1.4397069e+16
-1.4398831e+16
-1.4342955e+16
-1.4439736e+16
-1.453614e+16
-1.4445695e+16
-1.4540235e+16
-1.465534e+16
-1.4659748e+16
-1.4713884e+16
-1.4716134e+16
-1.4426183e+16
-1.4520126e+16
-1.4432685e+16
-1.4529058e+16
-1.4638436e+16
-1.4693852e+16
-1.4647825e+16
-1.4706452e+16
-1.4193287e+16
-1.4285582e+16
-1.4199844e+16
-1.4293173e+16
-1.4006899e+16
-1.4078144e+16
-1.4012126e+16
-1.4084506e+16
-1.4017569e+16
-1.4090099e+16
-1.4022902e+16
-1.4095357e+16
-1.4205715e+16
-1.4299588e+16
-1.4211246e+16
-1.4304623e+16
-1.3464693e+16
-1.3468465e+16
-1.329227e+16
-1.3418008e+16
-1.3421853e+16
-1.347077e+16
-1.3475379e+16
-1.3297223e+16
-1.3429267e+16
-1.3424573e+16
-1.3550466e+16
-1.3555257e+16
-1.3602187e+16
-1.3606996e+16
-1.3558829e+16
-1.3563225e+16
-1.3611343e+16
-1.3616174e+16
-1.3185017e+16
-1.3511009e+16
-1.3514805e+16
-1.3518742e+16
-1.3521608e+16
-1.3428562e+16
-1.3567039e+16
-1.3580857e+16
-1.3582879e+16
-1.3569419e+16
-1.3571673e+16
-1.3585169e+16
-1.3587205e+16
-1.3573648e+16
-1.362767e+16
-1.3646986e+16
-1.3648959e+16
-1.3629866e+16
-1.3632376e+16
-1.3651295e+16
-1.3653307e+16
-1.363429e+16
-1.3701775e+16
-1.3755793e+16
-1.3706521e+16
-1.3761057e+16
-1.3850231e+16
-1.3855765e+16
-1.3913206e+16
-1.3919365e+16
-1.3860099e+16
-1.3864412e+16
-1.3924026e+16
-1.392837e+16
-1.3710634e+16
-1.3765369e+16
-1.3715829e+16
-1.3770268e+16
-1.3709194e+16
-1.3734093e+16
-1.3732719e+16
-1.3710775e+16
-1.3780621e+16
-1.3805075e+16
-1.3782243e+16
-1.3807088e+16
-1.3889583e+16
-1.3858124e+16
-1.3887538e+16
-1.3859858e+16
-1.3706419e+16
-1.3704473e+16
-1.3729912e+16
-1.3727597e+16
-1.3701907e+16
-1.3700108e+16
-1.3723422e+16
-1.3725325e+16
-1.3773137e+16
-1.3797249e+16
-1.3771125e+16
-1.3795213e+16
-1.3775755e+16
-1.3799678e+16
-1.3802034e+16
-1.3777971e+16
-1.3848045e+16
-1.3850037e+16
-1.3877584e+16
-1.3879791e+16
-1.3931184e+16
-1.3962701e+16
-1.3928825e+16
-1.3960165e+16
-1.388451e+16
-1.3852807e+16
-1.3882309e+16
-1.3855204e+16
-1.3933887e+16
-1.3965139e+16
-1.3967202e+16
-1.3936056e+16
-1.3830466e+16
-1.3835857e+16
-1.3891886e+16
-1.3897512e+16
-1.3841e+16
-1.3902639e+16
-1.3846427e+16
-1.3907842e+16
-1.3683059e+16
-1.3736171e+16
-1.3687157e+16
-1.3740947e+16
-1.369218e+16
-1.3746082e+16
-1.3751619e+16
-1.3698349e+16
-1.3446466e+16
-1.3450071e+16
-1.3272501e+16
-1.3400389e+16
-1.3404198e+16
-1.3455842e+16
-1.3461777e+16
-1.3283743e+16
-1.3409356e+16
-1.3416057e+16
-1.353303e+16
-1.3584214e+16
-1.3537771e+16
-1.35885e+16
-1.3541822e+16
-1.3592976e+16
-1.3547887e+16
-1.3598742e+16
-1.3161321e+16
-1.3171119e+16
-1.303861e+16
-1.2944746e+16
-1.2954035e+16
-1.3049888e+16
-1.327948e+16
-1.3298899e+16
-1.3277848e+16
-1.3389751e+16
-1.3027478e+16
-1.3407913e+16
-1.3311699e+16
-1.3422046e+16
-1.3434238e+16
-1.3325281e+16
-1.3062616e+16
-1.3693789e+16
-1.3581463e+16
-1.3569161e+16
-1.3706151e+16
-1.3553375e+16
-1.3676166e+16
-1.3509985e+16
-1.3657149e+16
-1.3536012e+16
-1.2849937e+16
-1.2801712e+16
-1.2774565e+16
-1.3482247e+16
-1.3257255e+16
-1.4406679e+16
-1.4261228e+16
-1.4250962e+16
-1.4415473e+16
-1.4229286e+16
-1.4384551e+16
-1.4205723e+16
-1.4037502e+16
-1.4356729e+16
-1.386579e+16
-1.4023737e+16
-1.3762967e+16
-1.400183e+16
-1.3847174e+16
-1.4043729e+16
-1.3884633e+16
-1.3897747e+16
-1.4055191e+16
-1.4008503e+16
-1.3745666e+16
-1.3721002e+16
-1.3614372e+16
-1.3599164e+16
-1.3737426e+16
-1.3466802e+16
-1.3451359e+16
-1.3341736e+16
-1.3355087e+16
-1.3098731e+16
-1.3377935e+16
-1.3365599e+16
-1.3478603e+16
-1.3106971e+16
-1.3489858e+16
-1.3637767e+16
-1.3752643e+16
-1.3627223e+16
-1.3763501e+16
-1.2875013e+16
-1.2896059e+16
-1.3708118e+16
-1.3658676e+16
-1.3907319e+16
-1.3963119e+16
-1.2609061e+16
-1.2541933e+16
-1.2348189e+16
-1.2413723e+16
-1.3446379e+16
-1.3220012e+16
-1.2902639e+16
-1.3127661e+16
-1.319209e+16
-1.2957512e+16
-1.3286492e+16
-1.3039674e+16
-1.2701793e+16
-1.2459024e+16
-1.2417955e+16
-1.2749444e+16
-1.3086335e+16
-1.3346357e+16
-1.4071229e+16
-1.3912387e+16
-1.3926971e+16
-1.4088934e+16
-1.3955017e+16
-1.3942492e+16
-1.4103376e+16
-1.4113692e+16
-1.4294536e+16
-1.4275882e+16
-1.4432873e+16
-1.4456193e+16
-1.4473844e+16
-1.4310519e+16
-1.4319641e+16
-1.4478573e+16
-1.3780381e+16
-1.3841315e+16
-1.3786622e+16
-1.3847576e+16
-1.3646635e+16
-1.3653244e+16
-1.3699189e+16
-1.3705435e+16
-1.3634078e+16
-1.3686832e+16
-1.3639866e+16
-1.3692885e+16
-1.3792927e+16
-1.385401e+16
-1.3798922e+16
-1.3859585e+16
-1.3497599e+16
-1.3547874e+16
-1.3504851e+16
-1.3554448e+16
-1.3484849e+16
-1.3535317e+16
-1.3491304e+16
-1.3541663e+16
-1.3398549e+16
-1.3404648e+16
-1.3227884e+16
-1.3354625e+16
-1.3360479e+16
-1.3412599e+16
-1.3419794e+16
-1.3242464e+16
-1.3376061e+16
-1.3368129e+16
-1.3117695e+16
-1.3136056e+16
-1.3806086e+16
-1.3811904e+16
-1.3866095e+16
-1.3872648e+16
-1.3670897e+16
-1.367647e+16
-1.3723651e+16
-1.3729182e+16
-1.366023e+16
-1.3712348e+16
-1.3665134e+16
-1.3718019e+16
-1.3817669e+16
-1.382299e+16
-1.3879221e+16
-1.3884828e+16
-1.3521333e+16
-1.3571871e+16
-1.3527316e+16
-1.3577382e+16
-1.3511147e+16
-1.3561104e+16
-1.3516518e+16
-1.3566407e+16
-1.3425929e+16
-1.3430666e+16
-1.3252606e+16
-1.338145e+16
-1.3386234e+16
-1.3435966e+16
-1.3441685e+16
-1.325853e+16
-1.339085e+16
-1.3396726e+16
-1.3146803e+16
-1.3151038e+16
-1.299584e+16
-1.290196e+16
-1.2911142e+16
-1.3010579e+16
-1.2930163e+16
-1.2923493e+16
-1.3021741e+16
-1.3026001e+16
-1.2789977e+16
-1.2518289e+16
-1.2505086e+16
-1.2784828e+16
-1.2805694e+16
-1.3416152e+16
-1.3118015e+16
-1.3151981e+16
-1.3480249e+16
-1.4390932e+16
-1.4396331e+16
-1.4486904e+16
-1.4490092e+16
-1.4374853e+16
-1.4468531e+16
-1.4382817e+16
-1.4478905e+16
-1.4587231e+16
-1.4642996e+16
-1.4597412e+16
-1.4655466e+16
-1.460523e+16
-1.4663248e+16
-1.4608958e+16
-1.4664052e+16
-1.4616681e+16
-1.4625219e+16
-1.4670548e+16
-1.4681893e+16
-1.4416646e+16
-1.4420733e+16
-1.4512293e+16
-1.4515017e+16
-1.4404016e+16
-1.4497719e+16
-1.4410772e+16
-1.450664e+16
-1.4631064e+16
-1.4633641e+16
-1.4689575e+16
-1.4689566e+16
-1.4168752e+16
-1.4262771e+16
-1.4175728e+16
-1.4270657e+16
-1.3980586e+16
-1.4052201e+16
-1.3986704e+16
-1.4059366e+16
-1.3993569e+16
-1.4065832e+16
-1.3999569e+16
-1.4071218e+16
-1.4181896e+16
-1.4186544e+16
-1.4276993e+16
-1.4280212e+16
-1.4141615e+16
-1.4234782e+16
-1.4148919e+16
-1.4243731e+16
-1.3967655e+16
-1.4039808e+16
-1.3973778e+16
-1.4045237e+16
-1.4026332e+16
-1.3955252e+16
-1.3960865e+16
-1.4033264e+16
-1.4155979e+16
-1.4251119e+16
-1.4161445e+16
-1.4255592e+16
-1.2594407e+16
-1.2569498e+16
-1.2869354e+16
-1.2888107e+16
-1.4897779e+16
-1.4903059e+16
-1.4900722e+16
-1.4904099e+16
-1.4883931e+16
-1.4892382e+16
-1.4896188e+16
-1.489535e+16
-1.4872158e+16
-1.4879871e+16
-1.4883113e+16
-1.4881189e+16
-1.4856071e+16
-1.4863927e+16
-1.4869394e+16
-1.486914e+16
-1.4844505e+16
-1.4853605e+16
-1.4855301e+16
-1.4853393e+16
-1.48285e+16
-1.483668e+16
-1.4841084e+16
-1.4842185e+16
-1.4816742e+16
-1.482387e+16
-1.4827314e+16
-1.4826214e+16
-1.4770519e+16
-1.477183e+16
-1.4800203e+16
-1.480751e+16
-1.4812679e+16
-1.4811684e+16
-1.4751354e+16
-1.4764457e+16
-1.4742266e+16
-1.4737676e+16
-1.4726981e+16
-1.4715315e+16
-1.4537708e+16
-1.45559e+16
-1.4628888e+16
-1.4644056e+16
-1.4655457e+16
-1.4662617e+16
-1.4507886e+16
-1.4474e+16
-1.4672264e+16
-1.468621e+16
-1.4698405e+16
-1.4704333e+16
-1.4394117e+16
-1.4364983e+16
-1.4444453e+16
-1.4423104e+16
-1.3728828e+16
-1.3627489e+16
-1.3393344e+16
-1.3464826e+16
-1.3537218e+16
-1.362942e+16
-1.3900601e+16
-1.3782344e+16
-1.4012219e+16
-1.3907193e+16
-1.4682037e+16
-1.4665917e+16
-1.4387472e+16
-1.46981e+16
-1.4684576e+16
-1.4697459e+16
-1.4691334e+16
-1.4418376e+16
-1.4706781e+16
-1.4712598e+16
-1.4843971e+16
-1.4826398e+16
-1.4815707e+16
-1.4876035e+16
-1.4881804e+16
-1.4833187e+16
-1.4839638e+16
-1.4828663e+16
-1.4830821e+16
-1.4887144e+16
-1.4891885e+16
-1.4845516e+16
-1.4851104e+16
-1.4898108e+16
-1.488702e+16
-1.4878237e+16
-1.4882194e+16
-1.4829895e+16
-1.4825493e+16
-1.4839748e+16
-1.4842653e+16
-1.4833184e+16
-1.4833705e+16
-1.4845658e+16
-1.4847939e+16
-1.4879603e+16
-1.4876505e+16
-1.4833407e+16
-1.4882699e+16
-1.4886142e+16
-1.4855987e+16
-1.4823534e+16
-1.483067e+16
-1.4820821e+16
-1.4860489e+16
-1.4889273e+16
-1.4891629e+16
-1.4865811e+16
-1.4866904e+16
-1.48606e+16
-1.4807615e+16
-1.4807561e+16
-1.4770122e+16
-1.4769092e+16
-1.4811122e+16
-1.4813778e+16
-1.4866481e+16
-1.4815427e+16
-1.4826222e+16
-1.4829217e+16
-1.4820248e+16
-1.4767988e+16
-1.4802792e+16
-1.480603e+16
-1.4766081e+16
-1.486881e+16
-1.4871124e+16
-1.4820571e+16
-1.4818171e+16
-1.4827314e+16
-1.4812678e+16
-1.4830382e+16
-1.4817307e+16
-1.4821747e+16
-1.4822343e+16
-1.48368e+16
-1.4834557e+16
-1.482096e+16
-1.4824142e+16
-1.4811605e+16
-1.4815161e+16
-1.4798561e+16
-1.4798953e+16
-1.4761607e+16
-1.4759787e+16
-1.4802376e+16
-1.4813768e+16
-1.4806754e+16
-1.4816695e+16
-1.4754288e+16
-1.478881e+16
-1.4758004e+16
-1.4795166e+16
-1.480255e+16
-1.4789529e+16
-1.4851097e+16
-1.4856912e+16
-1.4814847e+16
-1.480769e+16
-1.4809912e+16
-1.48106e+16
-1.4864578e+16
-1.4870004e+16
-1.4827944e+16
-1.4822058e+16
-1.4801018e+16
-1.4786995e+16
-1.4792455e+16
-1.4804877e+16
-1.4809113e+16
-1.479686e+16
-1.4811758e+16
-1.4797651e+16
-1.480942e+16
-1.4821807e+16
-1.4824742e+16
-1.4810423e+16
-1.4806449e+16
-1.4801536e+16
-1.4815519e+16
-1.4818753e+16
-1.4774555e+16
-1.478615e+16
-1.4789872e+16
-1.4779558e+16
-1.4784338e+16
-1.4794981e+16
-1.4798676e+16
-1.4788652e+16
-1.4724462e+16
-1.4760551e+16
-1.4763915e+16
-1.4724392e+16
-1.4735817e+16
-1.4771857e+16
-1.4770219e+16
-1.4730874e+16
-1.4802291e+16
-1.4805002e+16
-1.4794828e+16
-1.4791938e+16
-1.4736123e+16
-1.4774875e+16
-1.47797e+16
-1.4739007e+16
-1.4796485e+16
-1.4807531e+16
-1.481151e+16
-1.4802068e+16
-1.4747413e+16
-1.4784046e+16
-1.4783992e+16
-1.4743569e+16
-1.4427882e+16
-1.4582723e+16
-1.4561215e+16
-1.4215195e+16
-1.4240053e+16
-1.4457845e+16
-1.460081e+16
-1.4614544e+16
-1.4630819e+16
-1.4612226e+16
-1.4631359e+16
-1.4649238e+16
-1.4652991e+16
-1.4643979e+16
-1.4663004e+16
-1.4672342e+16
-1.4293526e+16
-1.4194167e+16
-1.4238417e+16
-1.4339101e+16
-1.4174609e+16
-1.413594e+16
-1.4351731e+16
-1.447472e+16
-1.4498486e+16
-1.438436e+16
-1.4540968e+16
-1.4524342e+16
-1.4187599e+16
-1.4082442e+16
-1.4128692e+16
-1.4237609e+16
-1.4235005e+16
-1.4205773e+16
-1.4274665e+16
-1.4300934e+16
-1.4286028e+16
-1.4263915e+16
-1.4355441e+16
-1.4328783e+16
-1.4238478e+16
-1.4264452e+16
-1.4279019e+16
-1.4309344e+16
-1.4296196e+16
-1.4323142e+16
-1.4338976e+16
-1.4368545e+16
-1.4365166e+16
-1.4385008e+16
-1.446029e+16
-1.4433951e+16
-1.4353551e+16
-1.4378685e+16
-1.4396356e+16
-1.442758e+16
-1.440449e+16
-1.4430453e+16
-1.4450842e+16
-1.447785e+16
-1.4341372e+16
-1.4315135e+16
-1.4410008e+16
-1.4385205e+16
-1.45632e+16
-1.4586022e+16
-1.4609099e+16
-1.4628789e+16
-1.4513615e+16
-1.4526344e+16
-1.4531773e+16
-1.4541546e+16
-1.4539773e+16
-1.4549327e+16
-1.4556201e+16
-1.4566528e+16
-1.4551585e+16
-1.4581091e+16
-1.4565031e+16
-1.4598609e+16
-1.4590445e+16
-1.4579532e+16
-1.4617807e+16
-1.4622835e+16
-1.4591921e+16
-1.4583278e+16
-1.4599553e+16
-1.4609541e+16
-1.460284e+16
-1.4614254e+16
-1.4638609e+16
-1.4652776e+16
-1.4573021e+16
-1.4561711e+16
-1.4579072e+16
-1.4587097e+16
-1.4625361e+16
-1.4634152e+16
-1.4666302e+16
-1.4667323e+16
-1.4648615e+16
-1.4667698e+16
-1.4683484e+16
-1.4700377e+16
-1.4655536e+16
-1.4662988e+16
-1.4679674e+16
-1.4670954e+16
-1.4680875e+16
-1.4716309e+16
-1.472765e+16
-1.4688602e+16
-1.4647496e+16
-1.4638349e+16
-1.4656564e+16
-1.4661836e+16
-1.4697347e+16
-1.4740125e+16
-1.4704755e+16
-1.4739673e+16
-1.4613089e+16
-1.4602792e+16
-1.4619775e+16
-1.4629171e+16
-1.4631308e+16
-1.4623518e+16
-1.463988e+16
-1.4648914e+16
-1.4644585e+16
-1.4656992e+16
-1.469816e+16
-1.4677449e+16
-1.471279e+16
-1.4716291e+16
-1.4668276e+16
-1.4676426e+16
-1.4751932e+16
-1.4737207e+16
-1.4805256e+16
-1.4797704e+16
-1.4752069e+16
-1.4760287e+16
-1.4757992e+16
-1.4759591e+16
-1.4818005e+16
-1.4812586e+16
-1.4767375e+16
-1.4774033e+16
-1.4776946e+16
-1.4765032e+16
-1.4832007e+16
-1.4825043e+16
-1.478065e+16
-1.4788061e+16
-1.4782141e+16
-1.4782962e+16
-1.4838415e+16
-1.4794574e+16
-1.4844115e+16
-1.4801178e+16
-1.4735954e+16
-1.4730329e+16
-1.474235e+16
-1.4746394e+16
-1.4751038e+16
-1.4741087e+16
-1.4742358e+16
-1.4754405e+16
-1.4758406e+16
-1.4746194e+16
-1.4762547e+16
-1.4751735e+16
-1.4755205e+16
-1.4756334e+16
-1.4769123e+16
-1.4766143e+16
-1.4714861e+16
-1.4725428e+16
-1.4729699e+16
-1.4719842e+16
-1.4725595e+16
-1.4734889e+16
-1.4739612e+16
-1.4730174e+16
-1.4662216e+16
-1.4699243e+16
-1.4702077e+16
-1.4661018e+16
-1.4708942e+16
-1.4710803e+16
-1.4671766e+16
-1.4666815e+16
-1.4733829e+16
-1.4743369e+16
-1.4747286e+16
-1.4737947e+16
-1.4750672e+16
-1.4753828e+16
-1.4742967e+16
-1.4741404e+16
-1.4675537e+16
-1.4715851e+16
-1.4719759e+16
-1.4677642e+16
-1.4684457e+16
-1.472499e+16
-1.4723901e+16
-1.4684491e+16
-1.4782944e+16
-1.4784448e+16
-1.47981e+16
-1.4794592e+16
-1.477998e+16
-1.4774558e+16
-1.4787768e+16
-1.4791467e+16
-1.4772953e+16
-1.476024e+16
-1.4765344e+16
-1.4776532e+16
-1.4781018e+16
-1.4770025e+16
-1.4771489e+16
-1.4784249e+16
-1.4747149e+16
-1.4757974e+16
-1.4761281e+16
-1.4750098e+16
-1.4756442e+16
-1.4766345e+16
-1.4770127e+16
-1.4759505e+16
-1.4689368e+16
-1.4729763e+16
-1.473321e+16
-1.4691753e+16
-1.4740604e+16
-1.474107e+16
-1.4700125e+16
-1.4700752e+16
-1.4776697e+16
-1.4773818e+16
-1.4763935e+16
-1.4766764e+16
-1.4704681e+16
-1.4745204e+16
-1.4751217e+16
-1.4710226e+16
-1.4770127e+16
-1.4779557e+16
-1.4783626e+16
-1.477368e+16
-1.4755445e+16
-1.4755515e+16
-1.4715633e+16
-1.4714966e+16
-1.4898253e+16
-1.4895819e+16
-1.4897658e+16
-1.4899087e+16
-1.4882639e+16
-1.4889379e+16
-1.4891318e+16