/*--------------------------------*- C++ -*----------------------------------*\
  =========                 |
  \\      /  F ield         | OpenFOAM: The Open Source CFD Toolbox
   \\    /   O peration     | Website:  https://openfoam.org
    \\  /    A nd           | Version:  7
     \\/     M anipulation  |
\*---------------------------------------------------------------------------*/
FoamFile
{
    version     2.0;
    format      ascii;
    class       volVectorField;
    location    "1000";
    object      U;
}
// * * * * * * * * * * * * * * * * * * * * * * * * * * * * * * * * * * * * * //

dimensions      [0 1 -1 0 0 0 0];

internalField   nonuniform List<vector> 
34222
(
(-4.6145171e+08 -20281356 44092107)
(-5.4839616e+08 -19925638 80947556)
(-4.6527167e+08 -51002752 50705632)
(-3.5105071e+08 -15440354 45435942)
(-3.4172322e+08 14621208 40030435)
(-3.1207488e+08 -1813959.1 -40344395)
(-3.164836e+08 1980242.4 -35389359)
(-5.5823053e+08 -25827216 35856776)
(-5.4756741e+08 -44673036 83540598)
(-3.4628015e+08 11002803 36012761)
(-3.5100697e+08 -20464573 39642917)
(-3.2867122e+08 -785633.08 -39995580)
(-3.2187027e+08 -7522186 -45035323)
(-4.5362485e+08 -79750429 52743845)
(-3.2828415e+08 -19376639 -35952967)
(-3.4814593e+08 -4131974.5 34377866)
(-3.6630384e+08 -35861213 46163208)
(-3.1683482e+08 -22129166 -46099942)
(-3.354186e+08 -1734176.6 -6175445.1)
(-3.2238921e+08 7729638.3 -5509846.7)
(-3.1971598e+08 15818098 -1591553.6)
(-3.3530579e+08 2994529.6 -1525171.9)
(-5.3575609e+08 -77428206 72418644)
(-5.4868057e+08 -43207275 34967328)
(-5.3295904e+08 -31331207 26690113)
(-3.1566747e+08 -7043138.3 -51238820)
(-3.4255757e+08 -29467425 37300851)
(-3.4644152e+08 3542925.2 32074177)
(-3.2510372e+08 -13023174 -53679231)
(-5.2174538e+08 -70648287 76022296)
(-3.3681236e+08 -21108778 -40388441)
(-3.5883836e+08 -39260186 40551041)
(-3.4780189e+08 -8243195 33732692)
(-3.2185264e+08 -24663423 -46846155)
(-3.3287758e+08 4428132.3 -6286146.8)
(-3.3920526e+08 -5919015.1 -8891570.7)
(-3.498201e+08 -3521678.1 -2555433.9)
(-3.2987347e+08 5262087.4 -1329725.3)
(-4.3297078e+08 -1.056034e+08 56981610)
(-3.2939287e+08 -54355872 -27291588)
(-3.5319095e+08 -64949506 44372121)
(-3.5111275e+08 -32461457 32650956)
(-3.3099079e+08 -51570986 -42665831)
(-3.6656346e+08 -27667494 -2623786.3)
(-3.3044173e+08 -14081141 -4128838.8)
(-3.614223e+08 -26172340 -5827760.7)
(-3.3553083e+08 -12333563 -1321063.3)
(-3.1790392e+08 5471934.7 -11523627)
(-3.0696303e+08 14155770 -10028849)
(-3.2496229e+08 18752391 -10209288)
(-3.3801153e+08 7485234.9 -10748960)
(-5.4555413e+08 -1.0028319e+08 42742551)
(-3.9724211e+08 -26853458 67712365)
(-3.9776239e+08 -64235163 60452097)
(-5.2070322e+08 -1.0580879e+08 76612735)
(-3.7350548e+08 -33644212 1.0514033e+08)
(-3.7302139e+08 -41613138 90686415)
(-5.291876e+08 -62267031 32193554)
(-5.2417029e+08 -43524184 25273569)
(-3.2459438e+08 -21698425 -50285513)
(-3.4624671e+08 -40928151 35572415)
(-3.5188243e+08 -11536999 33035643)
(-3.235763e+08 -30081384 -55609757)
(-3.3697083e+08 -31954777 48597874)
(-3.0965777e+08 -11029788 -48930168)
(-3.0782483e+08 -22757073 -52466281)
(-3.4174063e+08 -5310195.5 46802352)
(-3.3160744e+08 -11741796 -5657214.4)
(-3.2001029e+08 -16851301 -8417095.5)
(-3.2832157e+08 -1822010.7 -5832264.7)
(-3.4440713e+08 3544765.2 -2632582.5)
(-4.2516758e+08 -29495434 36665410)
(-4.1280401e+08 -45408623 20508695)
(-4.9634335e+08 -94212667 71017250)
(-3.5064054e+08 -27852176 31059570)
(-3.5468333e+08 -57630393 36522115)
(-3.4000391e+08 -44177148 -35093289)
(-3.2977002e+08 -47777924 -46819239)
(-3.5927653e+08 -25603500 -730521.61)
(-3.4390259e+08 -26668861 -7432823)
(-3.3122525e+08 -18287764 -6617288.2)
(-3.3202187e+08 -14590757 -241264.53)
(-2.8199975e+08 10976572 -10847461)
(-2.842224e+08 2103388 -13293885)
(-3.0680084e+08 3579750.7 -13232103)
(-2.9836979e+08 11692529 -11014891)
(-3.4372778e+08 -84537665 45094586)
(-3.4432044e+08 -55765189 31111416)
(-3.2293182e+08 -78151443 -32236967)
(-3.2140326e+08 -78010293 -15869333)
(-3.5146654e+08 -64966423 -1114951.4)
(-3.4515074e+08 -57293760 -6669353.8)
(-3.354607e+08 -46062751 -5367811)
(-3.4254383e+08 -50196364 -2004275.1)
(-3.3083728e+08 -19290929 -13491312)
(-3.1038836e+08 -6112075 -9759442.1)
(-3.1673429e+08 -17886830 -10789789)
(-3.2653098e+08 -5879753.2 -11114270)
(-3.417861e+08 7239649.5 -9404874.8)
(-3.2710181e+08 14266629 -7748862.3)
(-3.4668305e+08 17517133 -5816327)
(-3.6311792e+08 7649892.1 -6432061.3)
(-4.0743391e+08 -23400695 -42938990)
(-3.4971375e+08 -36732964 45788444)
(-4.1031828e+08 -66052414 -40291156)
(-5.0490377e+08 -1.2493029e+08 39643555)
(-3.5384209e+08 -98062132 47901244)
(-3.2126485e+08 -14968584 63148642)
(-2.6085953e+08 -20096845 55424620)
(-3.6071261e+08 -17957085 94210040)
(-3.2201468e+08 -34629121 57620969)
(-3.6580289e+08 -16727187 88255656)
(-3.128123e+08 -21784139 56392909)
(-3.1423765e+08 -40721742 52978307)
(-3.5701441e+08 -24025424 82518346)
(-3.7670677e+08 -47345948 62259459)
(-3.5527729e+08 -24676439 89889799)
(-3.8676782e+08 -82110954 56277323)
(-3.5855155e+08 -53104545 94946889)
(-3.6983216e+08 -60067349 82736109)
(-4.8080957e+08 -1.2569089e+08 68386336)
(-4.2691059e+08 -46049142 56739226)
(-4.0744765e+08 -25549368 -39758573)
(-5.0714713e+08 -79324889 27635862)
(-3.9825591e+08 -41304009 -47383934)
(-5.0914719e+08 -56966210 23422182)
(-3.2607239e+08 -37743465 -45977627)
(-3.4367223e+08 -54472161 33862221)
(-3.4639875e+08 -27765993 27784002)
(-3.249772e+08 -45829544 -54686210)
(-4.2213342e+08 -26692756 45967742)
(-3.4368699e+08 -13647245 38335667)
(-3.3339948e+08 -43703761 45143460)
(-3.1179744e+08 -22235557 -47281529)
(-3.2176062e+08 -32545586 -53348278)
(-3.3830364e+08 -29885747 -5138038.9)
(-3.2727483e+08 -31008347 -9639282)
(-3.3536466e+08 -22520082 -5832817.4)
(-3.3825e+08 -19971927 -2965246)
(-3.1389371e+08 -19593664 -3094985.3)
(-3.1814296e+08 -18647480 56387.961)
(-3.2014104e+08 -10506565 2280256.7)
(-3.2344997e+08 -19048042 -1623211.8)
(-2.6269859e+08 -1890308.8 -13635856)
(-2.4459842e+08 -7911329.1 -9943709)
(-2.5724222e+08 4371417 -6636151.3)
(-2.6896028e+08 9183355.2 -10608590)
(-3.7330439e+08 -16470206 51569263)
(-3.1860706e+08 -6283119.4 47524463)
(-3.7722982e+08 -16783330 43455786)
(-3.7075606e+08 -22984238 44873808)
(-3.6647619e+08 -24387545 38917244)
(-4.0733667e+08 -47116366 29441106)
(-4.0175604e+08 -59603415 17079026)
(-4.6553172e+08 -1.1098463e+08 64498706)
(-3.5312803e+08 -73775532 36116545)
(-3.43475e+08 -48010448 25573456)
(-3.2178723e+08 -67399247 -43043140)
(-3.3500482e+08 -63095813 -29213428)
(-3.314933e+08 -40330539 -4987420.1)
(-3.3982928e+08 -48431754 -9409157.4)
(-3.5495201e+08 -51484379 -4184116.8)
(-3.3653363e+08 -41138875 -353379.96)
(-3.1687929e+08 -16904842 -10508760)
(-3.0518483e+08 -17355578 -10744064)
(-2.9071679e+08 -8924358.3 -11096907)
(-3.0641006e+08 -6823903.5 -10740227)
(-3.0090571e+08 12604734 -9567219.6)
(-3.1072408e+08 4451178.1 -12704527)
(-3.2856278e+08 6187995.1 -11685347)
(-3.1541677e+08 12981927 -9102022.2)
(-3.318862e+08 -81792621 -2994127.8)
(-3.3116381e+08 -72905701 991754.47)
(-3.3205525e+08 -83245753 7334371.7)
(-3.2977511e+08 -93749535 2663744.3)
(-3.3573341e+08 -52280948 -10583006)
(-3.3363617e+08 -43701613 -11086195)
(-2.9893207e+08 -35968527 -11492841)
(-3.0843305e+08 -41028085 -13876375)
(-3.4955483e+08 -19809532 -9986286.4)
(-3.3520177e+08 -4243177.1 -8188217.7)
(-3.3959589e+08 -16541220 -9679121.4)
(-3.5009263e+08 -5444036.9 -6983267)
(-3.775873e+08 -61571308 -598524.67)
(-3.7522275e+08 -16584905 -4576956.5)
(-3.1016255e+08 -30468976 -18356649)
(-3.3868103e+08 -20396205 -57584606)
(-3.3660562e+08 -17467697 -62921168)
(-3.0648665e+08 -10699776 -20619462)
(-3.0172992e+08 -15760930 -46090374)
(-1.9252363e+08 -41982301 59121263)
(-2.5766412e+08 -22484757 49053486)
(-3.0495342e+08 -38699095 -45262819)
(-2.6064924e+08 -64466848 49910590)
(-3.9678544e+08 -44385735 -37252028)
(-3.0915924e+08 -37447771 -17759059)
(-3.3664205e+08 -28487679 -54087668)
(-3.330277e+08 -25335279 -59202763)
(-3.0406619e+08 -17709412 -18025781)
(-3.9955101e+08 -87117825 -36633714)
(-4.6570907e+08 -1.5526536e+08 28130448)
(-3.3411159e+08 -1.13744e+08 42921008)
(-3.3198137e+08 -56304770 43057142)
(-3.0196181e+08 -44429467 -42970275)
(-2.9619021e+08 -22017325 -41828366)
(-2.5355243e+08 -71276976 46809196)
(-2.4774926e+08 -29730669 47768366)
(-2.5944494e+08 -8502233.6 57479522)
(-2.6103734e+08 -20907373 54767897)
(-3.1300224e+08 -8249789.8 74403355)
(-3.1042833e+08 -9367545.8 77689909)
(-2.2588198e+08 -14699015 58010159)
(-2.2165318e+08 -5092768.8 56554309)
(-2.6360796e+08 -6280736.2 67174303)
(-2.6457663e+08 -5300653.5 66579354)
(-3.1416717e+08 -11193203 73464440)
(-2.5915461e+08 -23530898 52503744)
(-2.5445244e+08 -11303686 52565922)
(-3.1087101e+08 -11897917 75309733)
(-2.5664052e+08 -24584565 49131172)
(-2.5481489e+08 -12646424 52624601)
(-3.1495536e+08 -14398544 71757878)
(-3.0924256e+08 -15448954 75334939)
(-2.5329019e+08 -25892181 47794990)
(-2.4950661e+08 -15207138 47983001)
(-3.0886923e+08 -16344923 68793146)
(-3.0600374e+08 -17709350 71425631)
(-3.0930464e+08 -26707103 55936765)
(-3.4849718e+08 -32915417 84812542)
(-3.1031093e+08 -44871146 50202096)
(-3.5372194e+08 -30486599 77230410)
(-3.666491e+08 -66036122 59880046)
(-3.519294e+08 -37950497 74451822)
(-3.0575617e+08 -52102338 48058845)
(-3.4770604e+08 -37657858 80979222)
(-3.0364638e+08 -34089745 51946712)
(-3.4907871e+08 -71009943 87378539)
(-3.6439179e+08 -77917824 73778511)
(-3.6225673e+08 -96176046 47670964)
(-3.1778759e+08 -8805431.3 3115433.6)
(-3.2803934e+08 377743.73 48979831)
(-3.813585e+08 -25401284 51442448)
(-3.0167995e+08 -8690277.3 -14767427)
(-3.6887632e+08 -12117561 -13915812)
(-3.1533279e+08 -1754831.4 18397510)
(-3.8708702e+08 -7484702.4 45958093)
(-3.7262819e+08 -19795277 -18339062)
(-3.5541265e+08 -11571410 -32994760)
(-3.0859883e+08 -2265506.2 -4307.8211)
(-3.7083262e+08 -22956455 15602449)
(-3.0133104e+08 -7965903.3 -19269806)
(-3.0418878e+08 -3350705.9 1595799.9)
(-3.7313113e+08 -9053367.2 9025815.1)
(-3.5293247e+08 -17352264 -39657284)
(-4.0117956e+08 -44000207 33473128)
(-3.9451825e+08 -52865711 -45925223)
(-4.1200041e+08 -39563173 42608914)
(-3.9340516e+08 -39375345 -38491270)
(-4.812211e+08 -91764465 25757183)
(-3.2861608e+08 -52497172 -41918289)
(-3.3869187e+08 -65339097 30196782)
(-4.9217138e+08 -68576792 21551475)
(-3.3720082e+08 -41138124 22618514)
(-3.1684951e+08 -61237489 -53080149)
(-4.1178656e+08 -59882660 50938701)
(-3.6952718e+08 -14248173 8379749.5)
(-3.5050398e+08 -22569295 -38135519)
(-3.7044896e+08 -26735370 11723416)
(-3.5436577e+08 -15785405 -35166131)
(-3.9503283e+08 -26739351 29027765)
(-3.3636988e+08 -25123761 36893822)
(-3.3350374e+08 -51651002 38709574)
(-3.1804482e+08 -33965908 -43906797)
(-3.1095872e+08 -45286127 -51815782)
(-3.3670243e+08 -47966815 -4420502)
(-3.2759093e+08 -47464596 -7368578.1)
(-3.2881731e+08 -41508783 -6125929.1)
(-3.3747571e+08 -39864779 -1357849.8)
(-3.7647922e+08 -14677440 41669690)
(-3.7885197e+08 -31703761 45781500)
(-3.7019255e+08 -16892148 -13511575)
(-3.6874922e+08 -23993126 -17352253)
(-3.2975255e+08 -25865899 -4749989.5)
(-3.1304994e+08 -35327130 -4053424.2)
(-3.2172642e+08 -32465123 -1391742.8)
(-3.442414e+08 -23207075 1401218.4)
(-2.8761201e+08 -19073314 -12690387)
(-2.5760375e+08 -21281854 -10896963)
(-2.6469783e+08 -14058576 -7582049.4)
(-2.7523587e+08 -11016862 -11283527)
(-2.5888639e+08 -15857143 -2113808.4)
(-2.4189824e+08 -12511745 -6273919.8)
(-2.5771954e+08 -5838598.9 -3566136.1)
(-2.9626555e+08 -17622330 -448445.75)
(-2.8950531e+08 173468.61 -12251274)
(-2.7060988e+08 -6167054.6 -9402368.3)
(-2.7638246e+08 5342619.1 -6294669.6)
(-2.8936837e+08 10626455 -8940021.7)
(-3.1555086e+08 -9926078.2 49229235)
(-3.1611557e+08 -8291331.9 45461742)
(-2.638826e+08 -5054378.1 43179610)
(-2.6412569e+08 -7787579.6 43332368)
(-3.1552316e+08 -12220620 45573492)
(-3.1592811e+08 -10997176 43892999)
(-3.1268421e+08 -14668984 44923493)
(-3.1522382e+08 -13362168 41922506)
(-3.102799e+08 -17867604 42984368)
(-3.0959128e+08 -15869077 40977204)
(-3.6323744e+08 -29681087 43224424)
(-3.6132944e+08 -29341972 34460757)
(-3.5629644e+08 -36300281 33737348)
(-3.9393935e+08 -62266775 28374831)
(-3.6134944e+08 -34824485 40149600)
(-3.8518503e+08 -73073986 13692844)
(-3.2391099e+08 -80970938 -40062931)
(-3.1842981e+08 -79400225 -25408625)
(-3.2948054e+08 -88759222 35306902)
(-3.4635661e+08 -62148448 23588048)
(-3.3825986e+08 -69820653 -6294007.7)
(-3.2605517e+08 -63527487 -6868749)
(-3.3181888e+08 -66751151 -216884.76)
(-3.4101927e+08 -73965835 -2258952.7)
(-2.9076086e+08 -28740388 -9389229.2)
(-2.9706067e+08 -32615425 -12837661)
(-3.2356881e+08 -35969508 -13300870)
(-2.9806659e+08 -30640947 -11152820)
(-3.3687146e+08 -13821022 -10011569)
(-3.2447462e+08 -13606481 -10811132)
(-3.0908589e+08 -6422209.2 -10376757)
(-3.2400782e+08 -4331953.8 -9579043.5)
(-3.3366893e+08 -71292524 -7364318.1)
(-3.5072659e+08 -61937808 -6339804.8)
(-3.3232504e+08 -73136339 -5728761.4)
(-3.291963e+08 -83599369 -6717300.1)
(-3.6108282e+08 -49278338 -8477453.5)
(-3.541493e+08 -38832110 -10050143)
(-3.2133016e+08 -34924508 -10155570)
(-3.3467078e+08 -41769239 -10256236)
(-4.3436292e+08 -40188920 -33002186)
(-4.4091226e+08 -32101155 -36961510)
(-3.594369e+08 -19884355 -54042333)
(-3.4429709e+08 -20761439 -1193663.4)
(-3.4649403e+08 -14218965 -5405174.8)
(-3.6109617e+08 -18508292 -55492283)
(-2.5809069e+08 -11041501 -53779063)
(-2.204517e+08 -21627036 -32579850)
(-2.1826726e+08 -8950451.8 -34627244)
(-2.5608955e+08 -10101011 -56585511)
(-1.85992e+08 -14387234 -32167997)
(-1.4165879e+08 -17405163 -27435400)
(-1.2084036e+08 -22111659 13134800)
(-1.1730845e+08 -13496067 15055044)
(-1.5107999e+08 -24560082 62666612)
(-1.8602997e+08 -12232902 57771290)
(-1.4837865e+08 -4317115 61572776)
(-1.8885816e+08 -28950514 -31814206)
(-1.894019e+08 -43579598 58862412)
(-2.5599462e+08 -12248946 -55822740)
(-2.5814246e+08 -13137745 -52867749)
(-2.1979828e+08 -23522371 -32322242)
(-2.166608e+08 -11084027 -32702237)
(-1.875149e+08 -30842080 -31724777)
(-1.8357131e+08 -16652185 -30014399)
(-1.8501941e+08 -45770248 55512514)
(-1.805187e+08 -15613573 56111652)
(-3.0588322e+08 -44186703 -14427915)
(-3.313883e+08 -36797963 -51959102)
(-3.2699552e+08 -34017871 -57656008)
(-3.022692e+08 -24841674 -18662283)
(-3.5460483e+08 -25992871 -51749923)
(-3.4283996e+08 -27828353 -1044071.6)
(-3.4422028e+08 -21969813 -5028068.8)
(-3.5634822e+08 -25651756 -50695007)
(-3.806135e+08 -66973148 -35016256)
(-3.2086884e+08 -40580388 -54713909)
(-3.2485792e+08 -44725077 -48814519)
(-3.0178297e+08 -51403182 -14171162)
(-2.9846483e+08 -32107833 -16194271)
(-3.7955145e+08 -1.0531326e+08 -35271291)
(-3.1349386e+08 -1.2815022e+08 37425313)
(-3.154666e+08 -77014889 39922945)
(-2.9258915e+08 -56978500 -38319291)
(-2.8812885e+08 -35552521 -37850275)
(-2.373722e+08 -82308297 39626311)
(-2.3516823e+08 -44003087 42085564)
(-2.9840219e+08 -50150148 -39988073)
(-2.9438857e+08 -27555986 -41043110)
(-2.4452195e+08 -35067738 45038648)
(-2.4740274e+08 -75401110 45536903)
(-2.562656e+08 -16784937 -54299709)
(-2.581782e+08 -17500726 -51495541)
(-2.1930926e+08 -26504151 -31694862)
(-2.1665991e+08 -14628529 -32264537)
(-2.553767e+08 -14842873 -54752300)
(-2.5701536e+08 -15804458 -51142252)
(-2.1788098e+08 -25192692 -30214865)
(-2.1634533e+08 -12372394 -32567070)
(-1.8582263e+08 -33380231 -31029675)
(-1.8220986e+08 -20109469 -29332228)
(-1.7978216e+08 -49433909 53508215)
(-1.7469416e+08 -19961481 53942502)
(-1.8321329e+08 -17660583 -29815318)
(-1.8569756e+08 -32305475 -29822526)
(-1.8056971e+08 -47432777 55079034)
(-1.7897161e+08 -16356145 55712026)
(-2.2647704e+08 -13672924 57240666)
(-2.2506457e+08 -4340341.4 58510006)
(-2.6455431e+08 -5495141.2 64955752)
(-2.6293643e+08 -5977790.5 67057265)
(-2.2575354e+08 -15195058 57147904)
(-2.2354601e+08 -5012673.3 56706166)
(-2.6342038e+08 -6419178.7 66052378)
(-2.6517303e+08 -6244466.7 65558919)
(-1.8186883e+08 -2862686.3 61853904)
(-1.8037532e+08 -12153141 61729447)
(-2.2737338e+08 -5168516.4 57147327)
(-2.2838268e+08 -5659925.4 59361769)
(-1.8146927e+08 -1454087.5 63841248)
(-1.8128404e+08 -11165832 62194686)
(-2.2943192e+08 -5919736.4 57038892)
(-2.2891249e+08 -5908129.2 57782483)
(-2.2375788e+08 -16562709 54709229)
(-2.220165e+08 -7252051.9 54612564)
(-2.6283699e+08 -9332520.8 64586185)
(-2.6337932e+08 -8620974.1 63273788)
(-2.238831e+08 -16074807 54735707)
(-2.2367752e+08 -5750855.6 56944465)
(-2.6288491e+08 -7714018 65588527)
(-2.6445464e+08 -7916647.1 62886836)
(-2.2030847e+08 -17942868 50997026)
(-2.1817298e+08 -8269926.7 51610936)
(-2.636238e+08 -11020380 62924630)
(-2.6408591e+08 -11070103 61052173)
(-2.2238581e+08 -16679898 52717396)
(-2.2094771e+08 -6875995.9 55115787)
(-2.618025e+08 -10248261 64716821)
(-2.6362637e+08 -9917891.2 62090101)
(-2.1890151e+08 -17698164 50163175)
(-2.1738342e+08 -9471908 50478670)
(-2.6055097e+08 -12652843 61102538)
(-2.610672e+08 -12035003 59848319)
(-2.505075e+08 -15157636 49861606)
(-2.1859683e+08 -17679039 49249617)
(-2.1752554e+08 -8340581.1 51315655)
(-2.6050381e+08 -12323439 61900537)
(-2.6204099e+08 -12155470 59369363)
(-3.0424982e+08 -20108084 70521380)
(-3.0853626e+08 -17804344 67814005)
(-2.5481652e+08 -26036985 47087607)
(-2.4727288e+08 -18006519 46405518)
(-2.5167943e+08 -29850869 45112716)
(-3.0513335e+08 -21203268 63168211)
(-3.0245786e+08 -21094471 66386215)
(-3.0154423e+08 -39152866 54394838)
(-3.0108045e+08 -55710702 46717809)
(-3.4766529e+08 -44203143 71933639)
(-3.4265676e+08 -45939617 81191143)
(-2.4741672e+08 -33151656 43722860)
(-3.0342472e+08 -26064066 61599210)
(-2.4326053e+08 -23151428 44928869)
(-2.9955569e+08 -26652468 64527189)
(-2.4977689e+08 -31619614 43705576)
(-2.48034e+08 -20477692 47795120)
(-3.0937261e+08 -24049824 64060992)
(-3.0313403e+08 -25110032 67616621)
(-2.8990839e+08 -60894359 42405494)
(-2.8898589e+08 -44772131 48173395)
(-3.4195475e+08 -50351296 64082465)
(-3.3731702e+08 -49967992 71141637)
(-3.1621452e+08 -6701613.6 5242064.7)
(-2.5790689e+08 -6831276.9 -2043948.3)
(-2.5840865e+08 -5375168.8 -1222641.8)
(-2.6861777e+08 -1157144 25041401)
(-2.692423e+08 -9820410.2 25650215)
(-2.6865784e+08 -6632962.3 15794978)
(-2.7395027e+08 163723.87 48384791)
(-2.6850164e+08 -5566218 16411273)
(-2.751768e+08 -12023234 49041023)
(-3.2749372e+08 -15453919 51362727)
(-3.1508044e+08 -10694207 1448442.1)
(-3.2624029e+08 -1088650.2 48186506)
(-2.4276423e+08 -7042440.9 -13137608)
(-2.5050832e+08 -3192238.3 3272669)
(-2.4330645e+08 -4616915.1 -12096433)
(-2.5130972e+08 -8269043.4 4138330.7)
(-2.9993474e+08 -5588171.3 -11993336)
(-3.1479436e+08 -13504697 21480692)
(-2.9870959e+08 -9764141.8 -15915230)
(-3.123986e+08 -3823453.3 17196809)
(-2.4889701e+08 -7671212.5 -11254445)
(-2.5629584e+08 -3013774.1 8257066.1)
(-2.4919673e+08 -4492952.6 -10242866)
(-2.5712921e+08 -9113279.7 9121930)
(-3.1632707e+08 -8043464.5 1905664.7)
(-3.2924019e+08 -17782421 48141266)
(-3.1932023e+08 -12209209 1665385.3)
(-3.3085787e+08 -3722012.3 46955056)
(-3.1927508e+08 -5495808.2 16534184)
(-3.0190497e+08 -12313500 -15653917)
(-3.0118893e+08 -6926098.5 -14252233)
(-3.1894493e+08 -14261956 18059271)
(-2.9614564e+08 -7278008.7 -24311357)
(-2.9843109e+08 -4339890.5 -21157391)
(-3.0519115e+08 -3120834.1 -100606.46)
(-3.0608557e+08 -10741572 2889717)
(-3.6414909e+08 -21913893 -497196.48)
(-2.5798515e+08 -2025997.8 -1292677.2)
(-2.4664201e+08 -5301444.5 -11530020)
(-2.4595508e+08 -2352890.3 -11030911)
(-2.4916039e+08 -2761282 -2016842.6)
(-2.5071284e+08 -6399827 -892464.41)
(-2.9581147e+08 -9480935.8 -21687097)
(-3.0071651e+08 -3954666.2 1038919.6)
(-3.0208207e+08 -10896723 4050167.1)
(-2.9712035e+08 -4225934.1 -18398044)
(-2.4006478e+08 -6645397.2 -15477861)
(-2.4615589e+08 -3595432 -2163788.4)
(-2.3987187e+08 -7367404.1 -15986053)
(-2.4312366e+08 -3761101.5 -12767654)
(-2.4265498e+08 -5900335.7 -13680550)
(-2.4805494e+08 -3057352.3 -927531.78)
(-2.4844022e+08 -7195589.2 -80147.185)
(-2.4206401e+08 -7055440.1 -14649978)
(-2.4623879e+08 -3578321.8 -580859.38)
(-2.4209238e+08 -3705879.8 -13673355)
(-2.4692374e+08 -8017187.7 339760.4)
(-3.046174e+08 -7424233.5 62235.97)
(-3.0511575e+08 -12408308 1848078)
(-2.980303e+08 -12209381 -24152337)
(-2.9726359e+08 -4387499.8 -22685836)
(-3.0063818e+08 -9730714.6 -26268157)
(-2.985212e+08 -3851857.5 -25106650)
(-3.0858268e+08 -5371567 -2664994.6)
(-3.0857408e+08 -10073731 -1230875.6)
(-3.5878111e+08 -9718780.1 -9433992.7)
(-3.3826274e+08 -18941932 -49251432)
(-3.4448291e+08 -29645893 -36126074)
(-3.4946813e+08 -24086597 -32763359)
(-3.6336585e+08 -35237017 11555588)
(-3.6261071e+08 -22230486 8657414.7)
(-3.9390511e+08 -37753901 24412092)
(-3.8740197e+08 -48617106 -34453738)
(-3.6931932e+08 -41378145 42011552)
(-3.6773437e+08 -25452948 38626734)
(-3.5827304e+08 -32997567 -18660198)
(-3.6116833e+08 -25474290 -14746872)
(-3.9545939e+08 -70064964 49537191)
(-3.6623771e+08 -18690055 7266735.9)
(-3.4738067e+08 -25623101 -38428788)
(-3.5170166e+08 -20660562 -32485784)
(-3.6585019e+08 -32631574 12977397)
(-3.8485523e+08 -55839764 34201898)
(-3.9179576e+08 -51545421 38674507)
(-4.7267996e+08 -77852852 18133333)
(-3.7096067e+08 -61466587 -44470359)
(-3.2319991e+08 -77546684 28692690)
(-3.1485183e+08 -67166020 -37619207)
(-3.136516e+08 -74692423 -50024040)
(-3.3639735e+08 -54865477 19311098)
(-3.3625798e+08 -66566549 -1911205.7)
(-3.222046e+08 -61466560 -6040916.8)
(-3.0722126e+08 -43608176 -43014327)
(-3.264479e+08 -36710194 33893474)
(-3.2370206e+08 -58479434 37962542)
(-3.019906e+08 -55451880 -50374236)
(-3.1474087e+08 -54309304 -7284038.6)
(-3.2664096e+08 -58539903 -4170100.9)
(-3.6474034e+08 -28315796 -18275435)
(-3.6480318e+08 -22438354 -14063143)
(-3.7313031e+08 -18758865 39552112)
(-3.7188359e+08 -36348598 44508265)
(-3.0426764e+08 -9782080.1 1470129.7)
(-2.973816e+08 -8518384.6 -19769009)
(-2.9793383e+08 -14648783 -20981119)
(-3.0417182e+08 -16121514 2681127.3)
(-3.0725529e+08 -14258704 -198574.37)
(-3.0683724e+08 -8863143.2 -1487247.7)
(-2.9925079e+08 -12630347 -24662002)
(-2.9819552e+08 -7809835.1 -23254397)
(-3.5766743e+08 -15270633 -8495811.8)
(-3.0500534e+08 -7915154 376984.91)
(-2.9895815e+08 -7866892.2 -19678622)
(-2.9810093e+08 -13300772 -22816974)
(-3.0531028e+08 -14647617 3141760.7)
(-3.0839632e+08 -13359341 175195.27)
(-3.0766144e+08 -7107715.9 -2527051.5)
(-2.9858418e+08 -10868186 -26189008)
(-2.9915967e+08 -6507505.4 -23484146)
(-3.622152e+08 -26498987 -3738704.5)
(-3.3861749e+08 -24594333 -48453209)
(-3.4683049e+08 -16589408 -43888362)
(-3.1584826e+08 -37323673 -3612827.7)
(-3.185351e+08 -45686324 -8215743.2)
(-3.3190759e+08 -46783856 -1706118.1)
(-3.2532596e+08 -39659511 219142.42)
(-2.820897e+08 -33650214 -11764094)
(-2.7066102e+08 -36647041 -8100744.3)
(-2.7709134e+08 -32426572 -6868088)
(-2.9217135e+08 -29867371 -9012262.2)
(-3.1326814e+08 -12939838 3058159.1)
(-3.1465287e+08 -16786673 1923589.9)
(-3.2394804e+08 -8760517 45627719)
(-3.2326246e+08 -23201519 46200617)
(-3.2670863e+08 -6156324.6 45226852)
(-3.1489527e+08 -10578026 3071467.8)
(-3.1558476e+08 -14737379 528248.11)
(-3.2530582e+08 -19523012 47160984)
(-3.1475197e+08 -8054133.4 15432951)
(-3.0227499e+08 -13264969 -15258241)
(-3.0043895e+08 -9945797.6 -13481235)
(-3.1402375e+08 -17579733 17815934)
(-3.1356634e+08 -9464221.1 16348038)
(-2.9987079e+08 -11093392 -13520084)
(-3.0140003e+08 -14894380 -13643588)
(-3.1287831e+08 -18678902 17324803)
(-2.9629926e+08 -21907333 -2416678.7)
(-2.5139871e+08 -30790935 -2678811.5)
(-2.4300427e+08 -25179931 -7506734.1)
(-2.746912e+08 -17839240 -4561438.4)
(-3.0686196e+08 -15488806 -11282329)
(-2.8342246e+08 -18374923 -9789737)
(-2.8536475e+08 -12120351 -7191537.6)
(-2.9482007e+08 -8753454.7 -9840478.6)
(-2.8376181e+08 -14395997 -3366289.7)
(-2.6941365e+08 -11053748 -5783488.2)
(-2.8169034e+08 -5535633.8 -3690254.5)
(-3.0858519e+08 -17237216 -2275339.2)
(-2.6461981e+08 -5089069.5 42119690)
(-2.6380045e+08 -7304803.4 44193762)
(-2.6354059e+08 -5571980.4 41610369)
(-2.6391724e+08 -7506659.4 42559728)
(-2.2380161e+08 -3962515.3 29035342)
(-2.2396159e+08 -6746583 29701287)
(-2.2396307e+08 -6884322.4 28631059)
(-2.2386475e+08 -4843310.8 27633685)
(-2.6253453e+08 -7208868.4 38944111)
(-2.6213955e+08 -8351322.6 41536665)
(-2.6149879e+08 -7770704.2 40124335)
(-2.6301273e+08 -10272350 41640864)
(-2.6121383e+08 -8948316.4 38485746)
(-2.6102732e+08 -10772766 41259478)
(-2.6028841e+08 -9941920.3 37954438)
(-2.6193991e+08 -11680295 39717574)
(-2.5922166e+08 -10965055 36704992)
(-2.5930316e+08 -12617995 39528846)
(-3.0914076e+08 -19403815 44029056)
(-2.586961e+08 -10946951 38395811)
(-2.6062952e+08 -13286563 39912464)
(-3.090302e+08 -16996539 39102127)
(-3.0722722e+08 -20830954 40020672)
(-3.0512481e+08 -20357789 36687041)
(-3.5530376e+08 -41460685 42222342)
(-3.0215132e+08 -24739024 35934276)
(-3.0358113e+08 -25892699 38937992)
(-3.5236094e+08 -41451613 31110288)
(-3.0799451e+08 -22330273 36894296)
(-3.0636159e+08 -24010822 40707826)
(-3.4285495e+08 -45852553 26649653)
(-3.4968433e+08 -45345528 34595874)
(-3.2935537e+08 -82055637 -1962411.6)
(-3.1142324e+08 -91523860 -195138.78)
(-3.1215455e+08 -85860059 -2711051.6)
(-3.2828576e+08 -78828098 -5162870.8)
(-3.0086435e+08 -58734381 -8848420)
(-3.1391093e+08 -48856471 -10273716)
(-3.4392743e+08 -53060988 -9315076)
(-3.2654297e+08 -62955823 -9351472.9)
(-3.0676284e+08 -25804089 -9197386.8)
(-3.2390751e+08 -27640713 -11887963)
(-3.4341442e+08 -30824142 -11819542)
(-3.1256324e+08 -28047639 -10206825)
(-3.3282254e+08 -68700074 -6562494.8)
(-3.5211355e+08 -57623612 -6642413.2)
(-3.5123391e+08 -69676713 -5113746.3)
(-3.378626e+08 -82048241 -4700012.4)
(-4.2836245e+08 -53102448 -30761262)
(-4.1915421e+08 -60830527 -27768832)
(-3.6763372e+08 -17532715 -42398628)
(-2.7282367e+08 -13319185 -26587676)
(-2.7320228e+08 -11231863 -29362459)
(-3.5267014e+08 -10885125 -31595347)
(-3.5291098e+08 -25729654 -35930498)
(-3.7023393e+08 -16162489 -43262406)
(-2.7513463e+08 -8994554.7 -30180745)
(-2.7357937e+08 -11176239 -27084846)
(-2.7138782e+08 -14635289 -67603397)
(-2.7193496e+08 -13935495 -68712522)
(-1.5864268e+08 -11765656 -42067173)
(-1.4633242e+08 -9716899.5 -46600743)
(-1.4504836e+08 -10291706 -49228341)
(-1.4084486e+08 -18197721 -25985697)
(-1.3910214e+08 -8208698.7 -27973637)
(-1.0881011e+08 -6359805.3 -51493317)
(-1.0755972e+08 -5614554.8 -52402227)
(-94426990 -5434466.1 -34899817)
(-96294185 -9750782.4 -35442851)
(-66579455 -8599374.3 -37870272)
(-64220075 -8491609.8 -36748358)
(-56647319 -16068734 14264019)
(-1.161979e+08 -13473945 13255701)
(-54027277 -10382773 16308003)
(-66055294 -9317751.7 -36949974)
(-65496521 -7719919.9 -37702222)
(-57843974 -16078859 16170124)
(-55136067 -8498787.3 12094308)
(-54305032 -10767932 4473690.5)
(-1.4863923e+08 -3936808.6 62375659)
(-1.8031887e+08 -16569338 64372644)
(-1.813946e+08 1026898 65657779)
(-53664289 -12234514 9181763)
(-1.205655e+08 -22855061 14928270)
(-1.5194772e+08 -22528551 62401005)
(-48998935 -10414450 2352964.8)
(-56241298 -7978279.6 6386785.7)
(-1.8289988e+08 -13940275 65955089)
(-1.7856733e+08 2909003.1 63608071)
(-1.4617532e+08 -10264418 -46461802)
(-1.4424128e+08 -10929484 -47968619)
(-1.4099837e+08 -18861212 -26396631)
(-1.3779248e+08 -9344346.2 -26488904)
(-1.147514e+08 -15726917 15448253)
(-1.4936583e+08 -5288772.7 62390240)
(-1.200839e+08 -24435091 14937557)
(-1.5259217e+08 -25200981 61414634)
(-2.7095683e+08 -16552146 -66639131)
(-2.7124271e+08 -16385942 -66569931)
(-1.4039257e+08 -19664689 -26730117)
(-1.3791953e+08 -10593000 -26351278)
(-1.4427268e+08 -11932170 -47589879)
(-1.4657683e+08 -11125522 -46261080)
(-1.4566399e+08 -10964496 -45479912)
(-1.4443744e+08 -11343835 -48205913)
(-1.3830999e+08 -9362519.9 -26571046)
(-1.3988884e+08 -19488639 -24886838)
(-1.1700561e+08 -24652275 11602014)
(-1.1376314e+08 -17041738 14830425)
(-1.4943021e+08 -26398508 59716311)
(-1.4648878e+08 -7740898.6 59794594)
(-1.1797085e+08 -24402725 14941681)
(-1.5172425e+08 -25917559 62390872)
(-1.142343e+08 -15616540 14576881)
(-1.4952077e+08 -6103455.2 63393133)
(-3.4883752e+08 -33210076 -47092925)
(-3.3896299e+08 -36096675 449041.9)
(-3.4115162e+08 -30151871 -6279516.6)
(-3.5027544e+08 -31674033 -50401245)
(-3.6444675e+08 -23521911 -41476460)
(-2.7202648e+08 -17275370 -26464637)
(-2.7366284e+08 -15528951 -29806668)
(-3.5061144e+08 -17349600 -30366592)
(-3.4982609e+08 -32196921 -34066578)
(-3.6614483e+08 -22969193 -40270052)
(-2.7389188e+08 -15885894 -24813096)
(-2.7521959e+08 -13706397 -28840850)
(-2.9684866e+08 -56930378 -13660300)
(-3.1642085e+08 -51476139 -48075339)
(-3.0951819e+08 -48679466 -53274298)
(-2.9266416e+08 -39081660 -16472989)
(-3.4082626e+08 -36396853 -5854204.1)
(-3.328505e+08 -42869542 749337.04)
(-3.4150306e+08 -39557510 -44879626)
(-3.4448178e+08 -38629752 -46268024)
(-2.9041227e+08 -63024855 -14024139)
(-3.0829551e+08 -57583279 -45680377)
(-3.0228147e+08 -53937591 -51369701)
(-2.8758046e+08 -45044245 -16174754)
(-2.8121389e+08 -66720085 -35943989)
(-2.7779256e+08 -48481042 -35163337)
(-2.2085495e+08 -89827467 33564977)
(-2.2103012e+08 -56597772 37459240)
(-2.834947e+08 -42402979 -36627036)
(-2.3357687e+08 -86259382 38738356)
(-2.3015258e+08 -50332031 41240884)
(-2.888748e+08 -62593259 -36975857)
(-2.5118394e+08 -26894296 -50290722)
(-2.5422833e+08 -28342179 -47247401)
(-2.1577206e+08 -35329418 -29556039)
(-2.1277229e+08 -23505072 -30591273)
(-2.1593497e+08 -32859551 -28533432)
(-2.5508742e+08 -26110302 -47851744)
(-2.5232457e+08 -25159492 -51760799)
(-2.1405794e+08 -21103354 -31307112)
(-1.7999735e+08 -42391786 -28751878)
(-1.7626536e+08 -29998265 -27037287)
(-1.6927583e+08 -57972013 46074811)
(-1.663776e+08 -30689633 48889948)
(-1.7847985e+08 -26504160 -28077105)
(-1.7354612e+08 -55710614 49236853)
(-1.8180023e+08 -40057797 -28207269)
(-1.711071e+08 -26425568 51031314)
(-2.172487e+08 -30903807 -29367672)
(-2.5650007e+08 -23381989 -48533176)
(-2.5285548e+08 -21373116 -51524835)
(-2.1360192e+08 -17891658 -29935935)
(-2.1959059e+08 -27330061 -30436652)
(-2.5752728e+08 -19773335 -50790523)
(-2.5434766e+08 -19594145 -54261264)
(-2.1625789e+08 -16187426 -32810039)