/*--------------------------------*- C++ -*----------------------------------*\
  =========                 |
  \\      /  F ield         | OpenFOAM: The Open Source CFD Toolbox
   \\    /   O peration     | Website:  https://openfoam.org
    \\  /    A nd           | Version:  7
     \\/     M anipulation  |
\*---------------------------------------------------------------------------*/
FoamFile
{
    version     2.0;
    format      ascii;
    class       volScalarField;
    location    "9000";
    object      nut;
}
// * * * * * * * * * * * * * * * * * * * * * * * * * * * * * * * * * * * * * //

dimensions      [0 2 -1 0 0 0 0];

internalField   nonuniform List<scalar> 
33733
(
4.0485765e-53
2.1899729e-53
4.6241771e-53
1.0464131e-53
1.7105865e-53
3.4315236e-53
1.023021e-53
1.3358848e-53
1.1238853e-53
1.127006e-53
1.280582e-53
1.1366951e-53
1.6679524e-53
1.4244104e-53
1.4540101e-53
1.5516811e-53
4.3281619e-53
1.0540988e-53
1.046885e-53
1.5425805e-53
2.9804838e-53
8.5435924e-54
1.1120783e-53
8.8631943e-54
9.7157186e-54
3.2308925e-53
6.1473528e-54
1.363035e-53
2.4757623e-53
7.6167733e-54
5.9105822e-54
6.6808201e-54
1.0367394e-53
1.0258641e-53
9.8107389e-54
1.0758913e-53
1.0431157e-53
8.5496363e-54
1.0060291e-53
8.3767922e-54
6.332383e-54
7.1694794e-54
2.9498652e-53
2.0413936e-53
1.4660793e-53
1.0298566e-53
1.3333975e-53
1.2199265e-53
1.6911231e-53
1.7250773e-53
1.2315983e-53
1.4038659e-53
8.2023476e-54
8.401273e-54
1.0512578e-53
1.0245296e-53
2.4987678e-53
2.9211601e-53
6.3638151e-54
6.4979907e-54
8.6801037e-54
5.9514102e-54
7.1665503e-54
1.0213752e-53
8.0811348e-54
1.514525e-53
1.3397265e-53
6.4318717e-54
5.4178284e-54
8.0200594e-54
8.5913759e-54
2.2883356e-53
2.3388425e-53
2.0318249e-53
6.5988573e-54
6.5365186e-54
5.4364422e-54
7.0373915e-54
6.6833261e-54
5.8032284e-54
5.3206151e-54
6.6322321e-54
1.6831302e-53
4.5621451e-54
5.0861875e-54
2.5854067e-54
3.9903655e-54
5.5651518e-54
3.5122059e-54
4.1696974e-54
3.0032041e-54
6.5175121e-54
3.528519e-54
3.686894e-54
4.0637287e-54
5.3224404e-54
9.5363072e-54
1.7097765e-53
1.7256884e-53
1.6965375e-53
9.8230853e-54
1.0449224e-53
1.0438428e-53
9.9580663e-54
1.1086608e-53
1.1286371e-53
1.1977803e-53
9.2473617e-54
9.4945899e-54
9.9597672e-54
9.2144201e-54
6.8375757e-54
5.1886892e-54
7.0775602e-54
7.3946458e-54
5.1286071e-54
5.725906e-54
8.0554801e-54
7.5961165e-54
6.7142247e-54
6.2901948e-54
4.1812723e-53
2.4106986e-53
7.0772523e-54
5.65793e-54
6.8810023e-54
6.2272221e-54
3.7893987e-54
4.20854e-54
2.9987348e-54
6.0131301e-54
4.0776581e-54
4.013797e-54
2.1287012e-53
1.7165096e-53
3.4737997e-53
1.4437465e-53
1.2363626e-53
1.0319966e-53
9.0176848e-54
1.9263302e-53
1.9354386e-53
1.9929098e-53
5.9574879e-54
5.9233745e-54
8.64848e-54
9.045652e-54
6.2375816e-54
7.8351033e-54
7.3741481e-54
5.6990745e-54
7.225836e-54
1.4225036e-53
6.9879883e-54
1.935194e-53
4.6551001e-54
2.7229606e-54
6.2495187e-54
5.1617702e-54
2.3814134e-54
6.9548581e-54
4.8638408e-54
2.7546294e-54
2.7944798e-54
5.4804692e-54
3.2631703e-54
4.3262487e-54
3.5604524e-54
4.4193641e-54
6.929587e-54
4.5457526e-54
7.3635057e-54
4.1177859e-54
2.712382e-54
3.5247315e-54
3.4312565e-54
4.1613916e-54
5.9292193e-54
4.93554e-54
4.0842892e-54
6.5859829e-54
5.4913941e-54
5.7290462e-54
5.7891336e-54
1.6373365e-53
1.6355095e-53
1.6139572e-53
1.9450725e-53
1.0751072e-53
1.3805834e-53
8.5801685e-54
1.1681793e-53
5.2523635e-54
5.4724613e-54
7.0052098e-54
8.156819e-54
8.7899989e-54
5.3504891e-54
5.7052501e-54
7.9028852e-54
1.6309356e-53
1.6297432e-53
1.8593133e-53
1.5886092e-53
1.82814e-53
2.0048166e-53
1.6406595e-53
1.4462821e-53
1.3688771e-53
1.3715195e-53
9.8718652e-54
9.3565562e-54
1.1997257e-53
5.2106534e-54
5.1814649e-54
4.3610425e-54
3.6918268e-54
3.4486646e-54
4.5914289e-54
5.1442862e-54
3.5512545e-54
4.8661227e-54
4.3022942e-54
3.8881724e-54
3.731721e-54
5.0690184e-54
3.3939828e-54
3.9336833e-54
4.9042461e-54
1.8675181e-53
4.6074095e-54
4.3697078e-54
1.7052964e-54
1.2308215e-54
1.7298712e-54
1.6995531e-54
1.398103e-54
1.8810199e-54
3.8627574e-54
1.964567e-54
1.6279807e-54
2.1180484e-54
2.3917887e-54
1.6334408e-54
2.8194816e-54
3.7447605e-54
3.1594602e-54
2.3306245e-54
3.6884335e-54
4.0496195e-54
2.8351189e-54
3.071134e-54
9.5589374e-54
9.7036213e-54
9.4238668e-54
9.285677e-54
1.1787273e-53
1.1918565e-53
1.2925222e-53
1.3125912e-53
1.0495645e-53
1.1236186e-53
1.1297173e-53
1.1973296e-53
1.1388992e-53
1.0949723e-53
1.1334448e-53
9.9990974e-54
1.2269571e-53
1.1543037e-53
1.0822616e-53
1.0099139e-53
1.0487276e-53
5.0427234e-54
6.4938965e-54
6.8508067e-54
6.6849979e-54
5.15494e-54
6.8444636e-54
5.1708922e-54
7.1279236e-54
7.0087852e-54
5.3117211e-54
2.9878112e-53
3.1557272e-53
7.3804536e-54
7.4591776e-54
7.8594415e-54
8.2427969e-54
9.1564645e-54
8.3418192e-54
9.3513709e-54
9.7807171e-54
7.0398719e-54
7.2408902e-54
7.330197e-54
7.2234763e-54
8.3275644e-54
8.0434157e-54
8.1208909e-54
8.7221928e-54
7.7757117e-54
7.9553574e-54
7.6718915e-54
8.7920169e-54
8.3996156e-54
8.1832997e-54
8.0726492e-54
8.3508585e-54
8.5875358e-54
7.82712e-54
7.2115547e-54
8.1314591e-54
7.7420714e-54
7.7505343e-54
7.7866059e-54
7.7985478e-54
7.7914485e-54
4.3965826e-54
2.7243933e-54
2.7335205e-54
4.9769965e-54
4.7945083e-54
5.006866e-54
4.2910519e-54
4.0532096e-54
3.6661887e-54
3.6160385e-54
2.7728727e-54
2.7500547e-54
3.6149532e-54
2.5201866e-54
3.5726894e-54
2.5859547e-54
4.0362441e-54
4.0190916e-54
4.057687e-54
3.8771558e-54
4.6923883e-54
4.7797922e-54
4.0288606e-54
3.9579735e-54
3.8734246e-54
3.8006492e-54
2.7973674e-54
2.7915187e-54
2.9564544e-54
4.1553335e-54
4.3258011e-54
3.1425031e-54
3.7618038e-54
2.9628468e-54
6.2731507e-54
5.0239886e-54
6.451013e-54
5.3524958e-54
6.03101e-54
4.8317249e-54
4.8721655e-54
3.9495608e-54
3.3744098e-54
3.6092706e-54
3.0742578e-54
3.4556169e-54
4.5741253e-54
4.0270857e-54
4.3713067e-54
2.2355578e-54
1.9554182e-54
1.4091955e-54
2.0073093e-54
1.5710133e-54
2.0015374e-54
2.8243391e-54
3.072439e-54
3.7146135e-54
3.3244841e-54
4.9057786e-53
2.6353239e-53
1.1363185e-53
3.831517e-53
2.1853835e-53
2.1515655e-53
3.5005622e-53
3.5970135e-53
3.0156777e-53
1.3994355e-53
1.2948372e-53
4.2037794e-54
1.3723844e-53
3.9454706e-54
1.2749994e-53
4.7997993e-54
4.6423038e-54
3.7441578e-53
1.0442894e-53
2.5372522e-53
8.4292758e-54
8.8644921e-54
1.0538369e-53
5.2022436e-54
5.5922133e-54
6.3138048e-54
5.7231655e-54
8.9126624e-54
8.9167629e-54
8.1860336e-54
1.0907085e-53
8.2184385e-54
4.5033776e-54
7.854259e-54
2.8672699e-54
3.2650415e-54
9.9253828e-54
3.0561037e-54
2.9790065e-54
7.3043308e-54
2.0347612e-53
4.7223347e-54
5.161575e-54
3.5574659e-54
2.0752294e-54
2.0942958e-54
2.0258528e-54
2.1974886e-54
1.711018e-54
1.1382535e-54
1.0694599e-54
1.6679222e-54
3.5371449e-54
6.6227223e-54
4.3246158e-54
2.080296e-54
3.4620088e-54
3.2059499e-54
2.6331204e-54
2.6625685e-54
2.1436909e-54
3.8029485e-54
2.3562369e-54
1.9220987e-54
4.2845041e-54
3.1280948e-54
8.253283e-54
5.7670848e-54
6.3995206e-54
4.3911187e-54
2.549051e-54
2.581665e-54
5.5650058e-54
5.2890096e-54
9.5813921e-54
8.1325597e-54
5.2958925e-54
6.0151161e-54
3.5771293e-54
1.6013874e-54
1.3506797e-54
9.8937621e-55
1.9869575e-54
1.5052154e-54
1.3161356e-54
1.7045186e-54
1.6058738e-54
2.1039001e-54
1.9692185e-54
2.0069436e-54
3.0880596e-54
3.9862541e-54
2.947357e-54
2.5608657e-54
3.5060147e-54
4.0678439e-54
3.6598007e-54
4.9784462e-54
3.9692291e-54
4.2438108e-54
3.4214497e-54
3.5068384e-54
4.0655011e-54
4.5050985e-54
4.8163087e-54
4.9833438e-54
4.5734309e-54
4.4058031e-54
5.8255765e-54
5.5745704e-54
1.2220148e-53
1.271121e-53
1.4755186e-53
1.8079395e-53
8.4711345e-54
9.175792e-54
1.517617e-53
1.6019992e-53
1.1266741e-53
1.4148181e-53
7.585459e-54
9.5685985e-54
1.2239157e-53
1.2774093e-53
8.9328208e-54
9.6242852e-54
5.7674433e-54
1.1945665e-53
6.2601896e-54
1.1225027e-53
1.3231227e-53
8.6552285e-54
7.0330044e-54
1.0781912e-53
4.3909207e-54
4.1395029e-54
9.2147443e-54
8.6206579e-54
1.07795e-53
1.1105969e-53
7.2119738e-54
7.3118729e-54
3.8039065e-54
5.4440418e-54
5.1898942e-54
4.4717973e-54
3.3031553e-54
6.0822421e-54
2.7625114e-54
7.0790793e-55
4.8904994e-54
6.2823518e-54
6.0134592e-54
4.2261065e-54
6.1154463e-54
5.6420965e-54
3.8058009e-54
4.8174755e-54
6.0991313e-54
5.2725214e-54
7.8968193e-54
7.1597591e-54
6.0023312e-54
6.2868707e-54
7.6018106e-54
8.0636614e-54
5.0592346e-54
4.5615079e-54
4.0412235e-54
4.3214889e-54
3.6595633e-54
4.120578e-54
4.2175492e-54
4.8102096e-54
4.9093533e-54
4.4744812e-54
4.1305164e-54
4.3875441e-54
7.0250309e-54
7.5150529e-54
6.2460609e-54
6.0998482e-54
6.3699023e-54
6.5210661e-54
5.1330689e-54
5.1625287e-54
3.982963e-54
4.676524e-54
4.3115053e-54
3.6828106e-54
3.4126272e-54
3.2397411e-54
3.1592271e-54
3.3756244e-54
3.2800742e-54
3.0264825e-54
2.8074047e-54
3.0006002e-54
2.1863988e-54
2.1024191e-54
6.6003294e-54
7.4725011e-54
1.4875349e-54
1.9377351e-54
5.8384259e-54
2.199923e-54
2.649469e-54
2.8119009e-54
3.0021161e-54
3.1982598e-54
9.1664956e-54
9.8394385e-54
1.0809436e-53
1.1038802e-53
2.3920922e-54
2.4137775e-54
2.8627861e-54
9.8725902e-54
9.1500459e-54
8.155421e-54
8.4956247e-54
2.0224872e-53
3.8052479e-54
3.9460536e-54
2.6379799e-54
9.1777187e-55
1.011162e-54
9.0907077e-55
8.7354663e-55
1.7548485e-54
1.8978535e-54
3.2075273e-54
3.402255e-54
4.2756393e-54
4.6953677e-54
6.428737e-54
6.4538948e-54
1.264192e-53
9.1642465e-54
8.6928837e-54
7.3236892e-54
7.9141039e-54
8.0211032e-54
8.1001727e-54
7.7766759e-54
8.2528749e-54
8.1418574e-54
8.2168342e-54
8.5785041e-54
9.0546616e-54
8.9407065e-54
9.0168888e-54
9.6823219e-54
9.0684673e-54
8.2241904e-54
8.457465e-54
9.2126575e-54
9.014329e-54
8.1296769e-54
8.0973133e-54
8.8892471e-54
8.9894945e-54
1.1046304e-53
1.0579907e-53
1.1058635e-53
1.044457e-53
1.1021176e-53
1.0683215e-53
1.1738869e-53
1.0960373e-53
6.835589e-54
7.1592769e-54
7.5050961e-54
7.771332e-54
7.7871068e-54
8.04903e-54
8.4196746e-54
8.8133681e-54
9.1831308e-54
8.8520699e-54
9.996819e-54
9.3860987e-54
1.0673915e-53
1.0130116e-53
1.1166085e-53
1.0394555e-53
7.5521278e-54
7.6908268e-54
8.4109436e-54
8.4013362e-54
8.3680891e-54
7.1956402e-54
7.3391753e-54
7.7536279e-54
7.9173528e-54
7.9557674e-54
9.8478365e-54
9.4551255e-54
1.0168726e-53
8.822627e-54
8.8346207e-54
8.0999199e-54
8.0297698e-54
1.0056779e-53
8.7802441e-54
9.0899168e-54
7.6969984e-54
7.7352734e-54
8.7749375e-54
8.434552e-54
8.5667911e-54
1.1048693e-53
1.1003407e-53
1.0185057e-53
8.7180014e-54
9.2071121e-54
9.600085e-54
8.1357029e-54
8.3571736e-54
7.6024346e-54
7.8585329e-54
4.3904869e-54
4.3045958e-54
4.5653692e-54
4.0615706e-54
2.6165788e-54
3.5341008e-54
3.4181896e-54
2.6221453e-54
2.7212509e-54
2.5891988e-54
3.4694828e-54
3.6136941e-54
2.5918161e-54
2.6974514e-54
4.6453252e-54
5.2430721e-54
4.2969005e-54
4.0882909e-54
4.104907e-54
4.2316986e-54
2.6909153e-54
2.7138853e-54
4.6644718e-54
5.470466e-54
4.4313159e-54
4.4156058e-54
4.1922779e-54
3.9767235e-54
3.386655e-54
2.6002768e-54
3.7755867e-54
2.6692648e-54
3.6137415e-54
3.4884529e-54
2.7983396e-54
2.6309371e-54
4.3143864e-54
4.4324248e-54
4.6502558e-54
4.3583327e-54
4.7442953e-54
4.7627429e-54
4.8430696e-54
5.4143552e-54
5.1932912e-54
4.5420273e-54
5.1084614e-54
5.721961e-54
5.1665082e-54
4.577834e-54
4.7999205e-54
4.9899761e-54
4.6708701e-54
4.4647815e-54
5.1324288e-54
5.3208485e-54
4.9945672e-54
4.6231761e-54
3.9677576e-54
4.5511887e-54
4.3079027e-54
3.6105657e-54
4.5187334e-54
5.1982869e-54
4.4760696e-54
3.8364511e-54
4.7162706e-54
5.1211864e-54
4.4037857e-54
4.0261164e-54
4.5085478e-54
4.8359366e-54
4.1536942e-54
3.9624784e-54
4.0179361e-54
4.155893e-54
3.9868977e-54
3.8224051e-54
4.1807278e-54
4.3479927e-54
4.2146274e-54
3.992654e-54
4.6162358e-54
4.0329459e-54
3.8553414e-54
4.3736714e-54
4.2729155e-54
4.4255453e-54
3.8882616e-54
3.720025e-54
4.7234186e-54
4.7574644e-54
4.3342623e-54
4.2810744e-54
4.0016241e-54
4.1437297e-54
4.0102919e-54
3.7634736e-54
3.8929316e-54
4.444478e-54
4.0812621e-54
3.4905174e-54
4.0347887e-54
4.7262314e-54
4.802108e-54
4.0980894e-54
5.1263064e-54
5.9088798e-54
5.7846867e-54
5.1651876e-54
2.682917e-53
2.6718932e-53
5.778752e-54
5.8796899e-54
5.1669456e-54
5.0538032e-54
1.647635e-53
5.5103735e-54
5.5606444e-54
5.2519175e-54
5.1195827e-54
5.2505785e-54
5.3489758e-54
5.6115341e-54
5.0938964e-54
5.2856079e-54
5.8607946e-54
5.5235965e-54
4.9322064e-54
5.6029576e-54
5.6873583e-54
5.0205471e-54
4.9981576e-54
5.5233453e-54
5.2736736e-54
4.9507085e-54
4.9672175e-54
5.4398264e-54
5.3690566e-54
5.0823198e-54
4.9226183e-54
5.0259723e-54
4.8718707e-54
4.6603449e-54
4.4946514e-54
4.4630811e-54
4.670626e-54
4.3654943e-54
4.3307063e-54
4.8664241e-54
5.1495222e-54
4.2344725e-54
4.2274666e-54
4.6526138e-54
4.2045074e-54
4.3091631e-54
4.8560562e-54
4.8175819e-54
4.5104548e-54
4.5449113e-54
4.3012223e-54
4.5327108e-54
4.3685681e-54
4.3805883e-54
4.2389982e-54
4.6340226e-54
4.11761e-54
4.123972e-54
4.6383985e-54
4.6925665e-54
4.156636e-54
4.2485871e-54
4.8263759e-54
2.8196848e-54
1.7621854e-54
1.1419047e-54
1.1087021e-54
1.9994248e-54
1.1121158e-54
1.115063e-54
1.6492917e-54
1.7808613e-54
3.2416099e-54
3.4292707e-54
3.8069662e-54
3.7550634e-54
3.7296015e-54
3.5737858e-54
3.6380058e-54
4.1513704e-54
3.92002e-54
3.8943082e-54
4.1451633e-54
3.7688988e-54
3.5415528e-54
3.5054112e-54
3.5312121e-54
3.6342008e-54
3.3704644e-54
1.9316601e-54
2.0943054e-54
2.1211728e-54
2.1442502e-54
2.0855152e-54
2.2464078e-54
2.1222686e-54
2.1695907e-54
2.0744509e-54
1.9099475e-54
2.2658317e-54
2.0842419e-54
2.1800899e-54
1.9625081e-54
1.9357401e-54
2.0513408e-54
2.1245239e-54
2.0708009e-54
2.0874793e-54
2.1187567e-54
1.963069e-54
1.8061962e-54
1.764865e-54
1.8018345e-54
2.2484053e-54
2.1327671e-54
2.1679523e-54
1.8769592e-54
1.9305686e-54
1.869874e-54
2.0049105e-54
1.9405313e-54
3.6409102e-54
4.2274241e-54
3.7530598e-54
3.3503505e-54
3.7514302e-54
3.4851601e-54
3.1656576e-54
3.4474935e-54
3.8992295e-54
4.5019525e-54
4.1050272e-54
3.6141093e-54
3.8283329e-54
3.5047474e-54
3.3688489e-54
3.5970928e-54
3.0697886e-54
3.4450866e-54
3.3256672e-54
3.2344375e-54
3.1686295e-54
3.2436127e-54
3.4969514e-54
3.3286484e-54
3.3202361e-54
3.2554085e-54
3.1323729e-54
3.032323e-54
3.3697909e-54
3.5113248e-54
3.196648e-54
3.071909e-54
1.1984073e-54
2.1225625e-54
2.2652707e-54
2.1179664e-54
2.1252432e-54
1.1593051e-54
2.1714135e-54
2.0836185e-54
2.1613719e-54
2.1433742e-54
1.7991972e-54
1.9384648e-54
2.0036299e-54
1.912839e-54
2.0258886e-54
1.9088999e-54
1.8568151e-54
1.9489563e-54
1.5926218e-54
1.7911615e-54
1.2975108e-54
1.8983453e-54
2.0740903e-54
2.2648642e-54
2.4071693e-54
1.2579706e-54
2.12426e-54
2.1537064e-54
2.0575349e-54
2.136017e-54
1.8588863e-54
1.8066466e-54
1.9258019e-54
2.0353368e-54
2.6035571e-54
2.1761697e-54
2.4862345e-54
2.9311761e-54
1.5945765e-54
1.812667e-54
3.8566717e-54
3.6497183e-54
3.8164765e-54
4.1139308e-54
3.0392795e-54
3.0205621e-54
3.3008299e-54
3.2971555e-54
4.6333661e-54
4.35144e-54
3.9086486e-54
4.1428678e-54
3.5231627e-54
3.5218894e-54
3.2031549e-54
3.1529214e-54
5.0249889e-54
1.0907485e-54
1.1383125e-54
4.2398114e-53
2.8807512e-53
1.2153265e-53
3.0708535e-53
9.4901323e-54
2.0465047e-53
1.1004922e-53
2.1066185e-53
1.9258082e-53
1.7432874e-53
3.5735801e-53
3.8829534e-53
2.4951136e-53
2.8698393e-53
3.2939302e-53
3.4068118e-53
3.9826444e-53
4.7036802e-53
4.1147065e-54
2.9612064e-54
5.6045211e-54
5.9612742e-54
1.6431095e-53
6.0261735e-54
4.9846047e-54
3.8698901e-54
3.732748e-54
1.4338161e-53
7.7593378e-54
6.4226571e-54
6.4499241e-54
7.8208975e-54
4.0758803e-54
3.8859908e-54
4.1247832e-54
4.3037019e-54
1.5646521e-53
1.4621486e-53
9.0274173e-54
1.0686793e-53
7.6154702e-54
7.0112393e-54
7.8333195e-54
2.6939247e-53
1.2192329e-53
1.2006004e-53
1.0682541e-53
6.3415588e-54
7.3883146e-54
6.4649473e-54
5.7297227e-54
7.0984403e-54
7.9019106e-54
7.2616461e-54
6.5725112e-54
8.8356137e-54
8.1903586e-54
7.2992323e-54
7.7793171e-54
3.0274748e-54
2.8652399e-54
3.5454156e-54
2.5488934e-54
3.4759329e-54
3.1549306e-54
3.5625629e-54
3.0897614e-54
9.3309498e-54
1.2813546e-53
8.0988868e-54
2.3125303e-54
4.0838315e-54
2.4636532e-54
3.09088e-54
3.6458845e-54
3.8730402e-54
7.5877126e-54
3.2856712e-54
3.810724e-54
3.0631324e-54
3.4027013e-54
2.958982e-54
3.1362907e-54
3.6473218e-54
9.7939839e-54
3.6619776e-54
3.9804431e-54
7.1139806e-54
6.2903655e-54
1.1052521e-53
2.1793397e-53
5.0218729e-54
5.066788e-54
3.4636514e-54
3.2421779e-54
3.2935256e-54
2.6069604e-54
1.6807564e-54
1.8993065e-54
9.0840276e-55
9.9264631e-55
8.9475577e-55
9.760991e-55
7.6009628e-55
6.0066586e-55
7.2560875e-55
6.5879219e-55
2.2863188e-54
3.3970903e-54
3.1416236e-54
2.6791476e-54
1.4502964e-54
2.4859864e-54
1.7751527e-54
3.3521689e-54
1.2117767e-54
1.0401337e-54
1.6335109e-54
1.7052855e-54
3.3288783e-54
3.4313855e-54
1.720321e-54
4.0470498e-54
2.1733816e-54
1.9217612e-54
3.9454193e-54
2.5050491e-54
1.5625263e-54
3.1335903e-54
1.751506e-54
3.402964e-54
5.775452e-54
4.6171919e-54
2.7136874e-54
3.0147855e-54
2.0663287e-54
1.6963919e-54
2.8934868e-54
4.777631e-54
2.8040837e-54
2.8192668e-54
5.1733113e-54
1.9973952e-54
2.0821462e-54
2.05506e-54
1.6590495e-54
1.4997505e-54
2.8829143e-54
2.3838872e-54
1.8235596e-54
2.2368234e-54
2.3173673e-54
2.8466751e-54
2.4247028e-54
4.0380363e-54
3.4871105e-54
4.4754884e-54
5.5427312e-54
4.6191465e-54
2.3740859e-54
4.6053906e-54
2.8324648e-54
3.1078992e-54
5.5653877e-54
4.9599161e-54
2.7721445e-54
3.0130575e-54
5.3345117e-54
4.3568487e-54
2.5182037e-54
1.9417081e-54
1.9242195e-54
3.9226622e-54
2.4764754e-54
4.1533319e-54
1.977596e-54
1.7830769e-54
3.6017349e-54
8.0543166e-55
6.6171467e-55
1.1104157e-54
1.4567405e-54
7.5052345e-55
1.4200835e-54
1.589786e-54
1.4833555e-54
1.0867003e-54
1.8107258e-54
1.5053899e-54
1.2445342e-54
1.6037139e-54
4.7647001e-55
6.0835654e-55
4.9082929e-55
1.0929588e-54
1.2642132e-54
8.3809371e-55
9.7741899e-55
9.2891588e-55
6.1063162e-55
6.7022203e-55
1.0429398e-54
1.0787064e-54
1.8077856e-54
7.2556644e-55
1.6753041e-54
1.5168027e-54
2.6723464e-54
1.855582e-54
1.4915685e-54
2.1166074e-54
2.6511923e-54
3.5838899e-54
3.4143197e-54
2.3961139e-54
2.0275016e-54
2.0521608e-54
2.723947e-54
2.5820252e-54
2.2225739e-54
1.6143955e-54
1.261998e-54
1.7045079e-54
4.3916558e-54
8.4270376e-54
5.2229759e-54
7.4769275e-54
3.996437e-54
3.7519637e-54
3.6621961e-54
6.1813774e-54
5.6540789e-54
4.239052e-54
3.6764068e-54
4.7040408e-54
5.499158e-54
4.5504622e-54
4.1945687e-54
4.9676193e-54
4.647937e-54
2.8862026e-54
3.3462375e-54
4.7237747e-54
4.8604808e-54
3.5536582e-54
4.9113736e-54
5.1183618e-54
7.1808374e-54
6.623657e-54
5.1435678e-54
5.6969135e-54
4.4505153e-54
6.7419091e-54
7.8312037e-54
5.5138127e-54
4.4274948e-54
3.740157e-54
4.3655432e-54
4.6223659e-54
6.16668e-54
4.2276147e-54
5.2948849e-54
4.7469507e-54
5.1248189e-54
3.6166762e-54
4.9317173e-54
6.4916463e-54
4.4126373e-54
3.9388822e-54
5.5498214e-54
5.2611642e-54
6.5463276e-54
4.7103666e-54
3.9609926e-54
6.0564846e-54
6.9560545e-54
4.941535e-54
4.4635754e-54
2.5710366e-54
2.8507508e-54
3.3618659e-54
2.9457626e-54
3.2163216e-54
3.5485625e-54
3.0824642e-54
2.815619e-54
2.1151081e-54
1.9155763e-54
5.7883169e-54
6.6662235e-54
7.4138228e-54
2.1509452e-54
6.5233258e-54
2.0024167e-54
3.0366588e-54
3.6098059e-54
3.0896382e-54
2.6493967e-54
3.3727312e-54
3.6721365e-54
3.124521e-54
2.9071409e-54
1.9028803e-54
2.205249e-54
6.3828281e-54
5.5876017e-54
2.1749622e-54
2.5698504e-54
4.3379238e-54
5.9512078e-54
3.8879583e-54
3.6485415e-54
4.0430584e-54
3.8537012e-54
6.137522e-54
6.5062294e-54
5.755614e-54
5.0687555e-54
4.5569532e-54
4.4574035e-54
4.1406033e-54
3.7721923e-54
5.2923294e-54
7.03858e-54
4.2592201e-54
5.5737759e-54
3.3691601e-54
4.6331515e-54
3.876114e-54
3.0634359e-54
5.2369577e-54
2.3065955e-54
2.1282865e-54
4.729142e-54
5.4750098e-54
2.5123988e-54
2.0969872e-54
3.3335294e-54
3.1481068e-54
3.8709653e-54
2.6218299e-54
3.1788226e-54
3.0998341e-54
2.2959614e-54
1.3337743e-54
3.1879945e-54
3.0046536e-54
3.2166938e-54
3.821854e-54
2.8459671e-54
5.6119468e-54
4.3402261e-54
3.650267e-54
4.9568709e-54
5.5918247e-54
4.9124697e-54
4.5076353e-54
4.6157554e-54
3.9878929e-54
4.685814e-54
3.2894249e-54
2.8371002e-54
3.0989232e-54
5.0869651e-54
4.4280661e-54
2.9621185e-54
1.954038e-54
2.2227778e-54
4.0732184e-54
3.9199783e-54
2.8366263e-54
2.0072067e-54
2.0401974e-54
3.4659227e-54
4.5698957e-54
4.7383801e-54
4.401051e-54
2.1708433e-54
1.9941791e-54
5.7222626e-54
3.1880151e-54
5.3324974e-54
5.379082e-54
5.5212535e-54
5.9243375e-54
3.9843872e-54
3.4793732e-54
8.8004775e-54
8.0036048e-54
7.3220944e-54
6.8110451e-54
8.6612036e-54
6.8480937e-54
6.4196154e-54
5.6195676e-54
3.9881258e-54
4.437484e-54
3.73573e-54
4.7916498e-54
4.0845057e-54
5.4990917e-54
4.6642951e-54
4.2390759e-54
3.5453374e-54
3.795865e-54
7.2613302e-54
7.3993744e-54
6.9513056e-54
6.3037553e-54
6.297472e-54
7.139497e-54
6.238548e-54
5.3522096e-54
3.8304581e-54
4.2483882e-54
3.7169363e-54
3.4229998e-54
3.5299468e-54
3.376255e-54
3.7160169e-54
3.8818459e-54
3.0795531e-54
3.9187701e-54
3.6919544e-54
4.3325329e-54
4.5281551e-54
3.7920711e-54
3.7316962e-54
3.2143245e-54
2.0173151e-54
2.4504142e-54
2.0013793e-54
3.3772502e-54
3.8444205e-54
3.4988414e-54
4.5047601e-54
3.7963038e-54
1.2186425e-53
2.2473651e-54
3.6747345e-54
1.2167094e-53
2.3589474e-54
2.8565887e-54
1.2241289e-53
2.2410059e-54
2.5970283e-54
1.2339915e-53
2.2738612e-54
2.6640169e-54
2.7584322e-54
2.9283817e-54
3.0265823e-54
2.830818e-54
3.5462644e-54
3.3540265e-54
1.6617722e-54
1.1639347e-53
2.9975971e-54
2.5992264e-54
1.1661105e-53
3.0560181e-54
2.5430404e-54
1.0784556e-53
5.0710894e-54
2.3224716e-54
1.1165795e-53
3.0196405e-54
2.5007365e-54
2.0680943e-54
2.854705e-54
2.8403453e-54
2.829902e-54
1.5930625e-54
9.393444e-55
1.584305e-54
1.063406e-54
2.2863126e-54
2.7592853e-54
2.6886553e-54
2.0168548e-54
4.8468388e-54
2.2574974e-54
2.1132972e-54
1.3988928e-54
2.5754448e-54
6.1966882e-54
7.72105e-55
4.2468199e-54
7.4576157e-54
8.2196324e-54
1.8953818e-54
2.8980206e-54
9.8755168e-54
2.080375e-54
2.9335337e-54
9.5428006e-54
1.9832873e-54
2.4042032e-54
1.0863454e-53
1.0919896e-53
7.9483872e-54
7.8255687e-54
8.836915e-54
8.9594984e-54
6.1495974e-54
6.1193224e-54
5.6274622e-54
5.7819899e-54
5.6815365e-54
5.4568107e-54
4.9562476e-54
5.2333757e-54
4.8427674e-54
5.3290327e-54
5.6461752e-54
5.0281697e-54
6.4415403e-54
6.1217475e-54
5.5987223e-54
5.7609917e-54
4.2724706e-54
5.1317987e-54
5.2774543e-54
4.4091706e-54
4.9940827e-54
5.1884591e-54
5.3067561e-54
5.04399e-54
5.0794873e-54
5.3967031e-54
5.0039353e-54
5.0154934e-54
4.7922967e-54
5.2537844e-54
5.4782463e-54
4.7933993e-54
5.4116453e-54
5.6303525e-54
5.2207471e-54
5.3554893e-54
5.303585e-54
4.9549187e-54
4.7952621e-54
5.1029875e-54
4.7165287e-54
5.2264545e-54
5.3890753e-54
4.7146087e-54
5.0394096e-54
5.438191e-54
5.9322175e-54
5.1745931e-54
6.0448249e-54
6.6932094e-54
6.4810299e-54
5.7867355e-54
5.7752813e-54
6.0123051e-54
6.0461413e-54
5.6865647e-54
6.355917e-54
6.0857654e-54
5.7330995e-54
6.0045726e-54
6.0079542e-54
6.5119242e-54
6.8165123e-54
6.2090481e-54
3.0839594e-53
3.0606987e-53
2.1576834e-53
2.1037038e-53
2.3478651e-53
2.2763467e-53
3.2502155e-53
3.2259755e-53
1.85909e-53
1.8618659e-53
3.0783897e-53
3.0670054e-53
2.1926703e-53
2.1576751e-53
2.2483004e-53
2.1922449e-53
3.1388183e-53
3.1427621e-53
1.8590218e-53
1.8365843e-53
1.9688954e-53
1.9697154e-53
1.6061236e-53
1.6170929e-53
1.6271913e-53
1.2506448e-53
1.246725e-53
1.6204799e-53
1.5675082e-53
1.9099494e-53
1.5630532e-53
1.9127768e-53
1.5768415e-53
1.2216487e-53
1.5885267e-53
1.213978e-53
1.9295016e-53
1.9327984e-53
1.5800242e-53
1.5728076e-53
1.5874092e-53
1.2210425e-53
1.2181686e-53
1.5896004e-53
1.9242603e-53
1.9213162e-53
1.5911656e-53
1.6027306e-53
1.6238694e-53
1.6123722e-53
1.2656766e-53
1.2512524e-53
2.6304319e-53
2.6237317e-53
1.8226699e-53
1.8057051e-53
2.1012929e-53
2.0341483e-53
2.9410622e-53
2.9353445e-53
1.6129968e-53
1.7248601e-53
3.0782182e-53
3.055779e-53
2.1940772e-53
2.1412021e-53
2.2636477e-53
2.1929931e-53
3.1415476e-53
3.1301016e-53
1.7705428e-53
1.8238336e-53
1.3472553e-53
1.6363993e-53
1.3290495e-53
1.6588385e-53
1.3267148e-53
1.3546002e-53
1.0154782e-53
1.0289428e-53
1.4176158e-53
1.7341524e-53
1.4108526e-53
1.73854e-53
1.0878869e-53
1.4149424e-53
1.4328837e-53
1.0887383e-53
1.5479307e-53
1.8735283e-53
1.5456808e-53
1.8763786e-53
1.1751015e-53
1.5326457e-53
1.5317271e-53
1.1683561e-53
1.5492765e-53
1.8876813e-53
1.559508e-53
1.8740095e-53
1.2188918e-53
1.5724162e-53
1.5675383e-53
1.2019175e-53
2.878681e-53
2.8584121e-53
2.053662e-53
2.0090453e-53
2.1168895e-53
2.0560722e-53
2.9281993e-53
2.9229931e-53
5.7830419e-54
6.2941011e-54
6.51951e-54
5.701326e-54
1.7721505e-53
1.8065574e-53
2.8500919e-53
2.8550088e-53
1.9996183e-53
1.9944357e-53
2.1023423e-53
2.0431508e-53
2.9622942e-53
2.9615949e-53
5.2295421e-54
5.9419158e-54
5.8913769e-54
5.2061617e-54
1.78512e-53
1.7298365e-53
1.4837356e-53
1.8129123e-53
1.4723949e-53
1.8253216e-53
1.4716478e-53
1.1260195e-53
1.1362556e-53
1.4817401e-53
1.461403e-53
1.7967478e-53
1.4505441e-53
1.8015491e-53
5.3821271e-54
5.783504e-54
5.7332627e-54
5.2975869e-54
5.9986338e-54
6.0954012e-54
5.632233e-54
5.6882771e-54
3.0670137e-53
3.0005496e-53
2.1630305e-53
2.0928396e-53
2.2050537e-53
2.140139e-53
3.0733972e-53
3.0546372e-53
6.3776506e-54
7.0265599e-54
6.9815276e-54
6.0447685e-54
1.8389046e-53
1.9138145e-53
2.9542862e-53
2.9684061e-53
2.0941692e-53
2.0711088e-53
2.1593151e-53
2.0939716e-53
3.034578e-53
3.0385729e-53
5.6663909e-54
6.4503793e-54
6.3605376e-54
5.5711072e-54
1.8355151e-53
1.7995156e-53
5.9234659e-54
6.3079822e-54
6.317145e-54
5.8232141e-54
6.6680588e-54
7.0778054e-54
6.3464212e-54
6.1538222e-54
5.0051659e-54
6.265319e-54
6.0677277e-54
5.0169012e-54
5.7295351e-54
5.3901779e-54
5.4917153e-54
5.2679701e-54
6.0422365e-54
6.1569969e-54
5.9350325e-54
5.6900345e-54
5.62931e-54
6.4392535e-54
6.165477e-54
5.3101645e-54
4.4750356e-54
5.3159435e-54
5.1983008e-54
4.4128151e-54
5.0396943e-54
5.1793388e-54
5.1113934e-54
4.8791793e-54
4.9223754e-54
5.299308e-54
4.8725433e-54
4.8300749e-54
4.7112905e-54
5.131658e-54
5.2475161e-54
4.6208732e-54
4.1063369e-54
5.0698095e-54
4.810246e-54
4.0309564e-54
5.1513301e-54
4.1534533e-54
4.2330857e-54
4.5351496e-54
3.9342066e-54
4.2686722e-54
4.4120131e-54
4.4191465e-54
4.0966722e-54
4.132287e-54
4.2518037e-54
3.9305719e-54
1.0929283e-54
1.859022e-54
2.0352647e-54
1.1495201e-54
2.089698e-54
2.1043794e-54
2.1184881e-54
2.2135142e-54
2.0046711e-54
1.7790306e-54
2.1515314e-54
2.1846881e-54
1.9365778e-54
1.9513703e-54
2.1517408e-54
2.1068858e-54
2.3575271e-54
2.0309708e-54
1.9974427e-54
2.2424958e-54
2.1477484e-54
1.9318303e-54
1.86006e-54
1.9881141e-54
1.1201279e-54
2.1445342e-54
2.1076314e-54
2.1337124e-54
2.1727534e-54
1.113691e-54
1.9915044e-54
2.0802968e-54
2.1965178e-54
2.1851741e-54
2.1404021e-54
1.8635574e-54
1.9442635e-54
2.1545243e-54
1.7962592e-54
1.9052651e-54
2.3693831e-54
2.5891422e-54
4.1255671e-54
4.673968e-54
4.4723724e-54
3.9493126e-54
3.9597842e-54
3.4629795e-54
3.50186e-54
3.9923456e-54
3.9000835e-54
3.9219492e-54
4.1943885e-54
4.2871846e-54
4.3018653e-54
4.5344524e-54
4.608782e-54
4.2870244e-54
1.1066892e-54
1.1214362e-54
1.698044e-54
1.8400285e-54
1.1286207e-54
1.1222531e-54
1.7119952e-54
1.8997725e-54
2.7447576e-54
2.741767e-54
4.0543842e-54
4.9238288e-54
4.2289628e-54
3.8645958e-54
5.026589e-54
4.0151326e-54
4.3171917e-54
4.1585433e-54
3.7313117e-54
4.0419623e-54
4.5824161e-54
3.8305632e-54
3.9443693e-54
4.1149127e-54
4.2694162e-54
3.6240514e-54
2.1311407e-54
2.0735474e-54
2.1684251e-54
2.173536e-54
1.937281e-54
2.0724664e-54
2.1603597e-54
1.8885942e-54
2.0398046e-54
2.1516376e-54
2.0708565e-54
2.1480015e-54
1.8532884e-54
2.0735142e-54
1.9508632e-54
2.0282695e-54
2.2258804e-54
2.1844621e-54
2.2385726e-54
2.3540939e-54
2.3705267e-54
2.2974903e-54
2.399767e-54
2.0781305e-54
2.1263291e-54
2.3901068e-54
2.4653171e-54
2.2252778e-54
1.9258904e-54
2.1301702e-54
1.9621288e-54
2.1081639e-54
3.9074191e-54
4.2931841e-54
4.4926785e-54
3.9460523e-54
4.4347582e-54
4.9514581e-54
5.0156447e-54
4.6188928e-54
5.4116519e-54
5.4221918e-54
4.9130655e-54
4.6781139e-54
4.7352995e-54
4.5650578e-54
4.1656593e-54
4.1717624e-54
4.9508791e-54
5.0547864e-54
1.7314309e-53
1.7002582e-53
1.6372004e-53
1.6644781e-53
1.7432091e-53
1.7008897e-53
1.6434803e-53
1.6792757e-53
1.4095972e-53
1.4570491e-53
1.4613252e-53
1.4350932e-53
1.4751506e-53
1.455505e-53
1.4667716e-53
1.469766e-53
1.198304e-53
1.227205e-53
2.7086366e-54
3.0002814e-54
3.495998e-54
3.1599882e-54
1.5283717e-53
1.5353527e-53
1.2720668e-53
1.2913098e-53
3.0265492e-54
3.5803912e-54
4.3211037e-54
3.7264424e-54
3.7733167e-54
4.0617704e-54
4.8459491e-54
4.6110351e-54
1.3657405e-53
1.3812048e-53
1.1405445e-53
1.1504797e-53
1.1959166e-53
1.1120919e-53
9.5794325e-54
9.846607e-54
1.0182256e-53
9.9998137e-54
9.7945733e-54
1.0165546e-53
1.0439911e-53
1.0329115e-53
1.236451e-53
1.2282982e-53
1.2406661e-53
1.2174507e-53
1.1819867e-53
1.2246284e-53
1.2223292e-53
1.1972164e-53
1.0485402e-53
9.9189079e-54
8.5527578e-54
9.3182337e-54
9.5359732e-54
8.7758648e-54
1.1437654e-53
1.1473637e-53
9.9623434e-54
9.9847599e-54
1.0439621e-53
1.1022384e-53
1.7484763e-53
1.8429199e-53
1.8124013e-53
1.8488478e-53
2.4757219e-53
2.5748684e-53
1.8146883e-53
1.7509157e-53
1.7396362e-53
1.8215395e-53
4.6816362e-54
5.5531592e-54
4.8372857e-54
3.9598858e-54
5.1334068e-54
4.2094726e-54
1.5954291e-53
1.5583623e-53
1.5403142e-53
1.6054866e-53
1.5918732e-53
1.5457193e-53
1.631308e-53
1.6174085e-53
1.8367858e-53
1.7886674e-53
1.7631738e-53
1.805641e-53
1.756183e-53
1.787174e-53
1.8001076e-53
1.7988031e-53
1.5829028e-53
1.537986e-53
1.5494043e-53
1.5662266e-53
1.563584e-53
1.5259593e-53
1.5474698e-53
1.5667593e-53
1.2425578e-53
1.1881375e-53
1.1334842e-53
1.1853241e-53
1.0955252e-53
1.1229869e-53
1.1515411e-53
1.1287728e-53
1.3840453e-53
1.4338899e-53
1.3088598e-53
1.3823084e-53
1.3046231e-53
1.3127368e-53
1.3710602e-53
1.3458252e-53
1.1253288e-53
1.1031043e-53
1.158162e-53
1.092893e-53
1.0526694e-53
1.0566152e-53
1.1153671e-53
1.0619045e-53
1.2767375e-53
1.2897727e-53
1.3145076e-53
1.2904922e-53
1.3038949e-53
1.3059061e-53
1.3360129e-53
1.3274452e-53
2.7760022e-54
1.6281132e-54
2.1304251e-54
9.9276314e-55
1.0904706e-54
1.0042503e-54
1.0772257e-54
1.0381614e-54
9.5262221e-55
1.0250739e-54
1.0620907e-54
9.0678442e-55