/*--------------------------------*- C++ -*----------------------------------*\
  =========                 |
  \\      /  F ield         | OpenFOAM: The Open Source CFD Toolbox
   \\    /   O peration     | Website:  https://openfoam.org
    \\  /    A nd           | Version:  7
     \\/     M anipulation  |
\*---------------------------------------------------------------------------*/
FoamFile
{
    version     2.0;
    format      ascii;
    class       volScalarField;
    location    "9000";
    object      pMean;
}
// * * * * * * * * * * * * * * * * * * * * * * * * * * * * * * * * * * * * * //

dimensions      [0 2 -2 0 0 0 0];

internalField   nonuniform List<scalar> 
33733
(
-1.1533212e+103
-1.2072226e+103
-1.1546142e+103
-1.1771956e+103
-1.1716178e+103
-1.10961e+103
-1.154247e+103
-1.1534362e+103
-1.1763579e+103
-1.1540008e+103
-1.1776751e+103
-1.210982e+103
-1.2280136e+103
-1.2338986e+103
-1.2161786e+103
-1.1586489e+103
-1.1095758e+103
-1.1551881e+103
-1.1787729e+103
-1.2164751e+103
-1.2157766e+103
-1.1916556e+103
-1.1870062e+103
-1.1764643e+103
-1.1711664e+103
-1.1021568e+103
-1.1402164e+103
-1.1331099e+103
-1.0988082e+103
-1.1571702e+103
-1.1674623e+103
-1.154636e+103
-1.1650498e+103
-1.1796314e+103
-1.1796106e+103
-1.1483735e+103
-1.1531793e+103
-1.1904706e+103
-1.1746864e+103
-1.1562853e+103
-1.1385726e+103
-1.164855e+103
-1.0992506e+103
-1.2181364e+103
-1.1924829e+103
-1.1747384e+103
-1.1791198e+103
-1.1970631e+103
-1.219233e+103
-1.2367729e+103
-1.22807e+103
-1.164824e+103
-1.1582659e+103
-1.1415321e+103
-1.1688728e+103
-1.158688e+103
-1.1048579e+103
-1.1052579e+103
-1.1408309e+103
-1.168718e+103
-1.1602565e+103
-1.168422e+103
-1.1582641e+103
-1.1784707e+103
-1.197099e+103
-1.1958154e+103
-1.1789909e+103
-1.231463e+103
-1.2232664e+103
-1.2237235e+103
-1.2312481e+103
-1.2222905e+103
-1.2293216e+103
-1.2178217e+103
-1.195317e+103
-1.1905011e+103
-1.2027359e+103
-1.1995122e+103
-1.185573e+103
-1.1782103e+103
-1.1737077e+103
-1.1817146e+103
-1.0440012e+103
-1.0858722e+103
-1.1468187e+103
-1.1593288e+103
-1.1511195e+103
-1.1376048e+103
-1.1578999e+103
-1.156385e+103
-1.1601771e+103
-1.1600469e+103
-1.1640736e+103
-1.1698232e+103
-1.1609742e+103
-1.1673712e+103
-1.1788073e+103
-1.2198961e+103
-1.2191322e+103
-1.2195288e+103
-1.1801994e+103
-1.1434788e+103
-1.1469697e+103
-1.1955147e+103
-1.1937212e+103
-1.177817e+103
-1.1769416e+103
-1.1958951e+103
-1.196533e+103
-1.1777823e+103
-1.1780704e+103
-1.1290265e+103
-1.1651786e+103
-1.150789e+103
-1.1535032e+103
-1.1653588e+103
-1.1658583e+103
-1.1546985e+103
-1.157113e+103
-1.1357775e+103
-1.1658081e+103
-1.1007479e+103
-1.1030063e+103
-1.1934931e+103
-1.2010525e+103
-1.1834324e+103
-1.1762104e+103
-1.1586501e+103
-1.1576916e+103
-1.1569453e+103
-1.1426158e+103
-1.1618246e+103
-1.1681688e+103
-1.1656434e+103
-1.1872074e+103
-1.2273394e+103
-1.1990049e+103
-1.1806249e+103
-1.1875751e+103
-1.2066955e+103
-1.2273036e+103
-1.2455719e+103
-1.2387132e+103
-1.2302202e+103
-1.2389456e+103
-1.1672245e+103
-1.1606608e+103
-1.1570934e+103
-1.1431444e+103
-1.1405234e+103
-1.156753e+103
-1.1715164e+103
-1.1611663e+103
-1.0911613e+103
-1.0475907e+103
-1.0854893e+103
-1.1588857e+103
-1.1419372e+103
-1.1480392e+103
-1.160513e+103
-1.1711507e+103
-1.1619029e+103
-1.1624351e+103
-1.171087e+103
-1.1588094e+103
-1.1565174e+103
-1.1573064e+103
-1.1562046e+103
-1.1646015e+103
-1.1662656e+103
-1.1727322e+103
-1.1729599e+103
-1.1575001e+103
-1.1589287e+103
-1.1576978e+103
-1.1601732e+103
-1.180916e+103
-1.1915002e+103
-1.1922441e+103
-1.1829343e+103
-1.2116542e+103
-1.2017128e+103
-1.2033943e+103
-1.2115924e+103
-1.2107461e+103
-1.2033485e+103
-1.2065055e+103
-1.1996036e+103
-1.1925431e+103
-1.1897196e+103
-1.1838988e+103
-1.1824421e+103
-1.2282588e+103
-1.2312066e+103
-1.2299686e+103
-1.2280252e+103
-1.2364086e+103
-1.2406558e+103
-1.2372926e+103
-1.2389757e+103
-1.2252869e+103
-1.2280361e+103
-1.2226315e+103
-1.2252186e+103
-1.2310063e+103
-1.2343216e+103
-1.2369583e+103
-1.2337225e+103
-1.2286907e+103
-1.2204034e+103
-1.2176475e+103
-1.2210795e+103
-1.223067e+103
-1.1976133e+103
-1.2000753e+103
-1.1981728e+103
-1.1953518e+103
-1.2064791e+103
-1.208212e+103
-1.2056779e+103
-1.2032906e+103
-1.1894918e+103
-1.1918668e+103
-1.1866834e+103
-1.189655e+103
-1.1814675e+103
-1.178618e+103
-1.1813997e+103
-1.1839828e+103
-1.0445086e+103
-1.0850673e+103
-1.1493126e+103
-1.1757475e+103
-1.1635021e+103
-1.167778e+103
-1.1603096e+103
-1.1580583e+103
-1.1566091e+103
-1.1540789e+103
-1.1543324e+103
-1.1585796e+103
-1.1602064e+103
-1.1575588e+103
-1.1547858e+103
-1.1651753e+103
-1.1681071e+103
-1.1655301e+103
-1.1620695e+103
-1.1758979e+103
-1.1732969e+103
-1.1702089e+103
-1.1731809e+103
-1.1951352e+103
-1.1754685e+103
-1.1760493e+103
-1.1960002e+103
-1.2179381e+103
-1.2180672e+103
-1.2277367e+103
-1.2275932e+103
-1.2171668e+103
-1.2174529e+103
-1.2270395e+103
-1.2273071e+103
-1.2179722e+103
-1.2178965e+103
-1.2275795e+103
-1.1964851e+103
-1.2180161e+103
-1.2179084e+103
-1.1963428e+103
-1.1769059e+103
-1.1771499e+103
-1.1618986e+103
-1.1462386e+103
-1.1474769e+103
-1.1204425e+103
-1.1628683e+103
-1.1253102e+103
-1.1636588e+103
-1.1483877e+103
-1.1502553e+103
-1.1640496e+103
-1.0995434e+103
-1.097954e+103
-1.2034152e+103
-1.2036605e+103
-1.1958751e+103
-1.1959779e+103
-1.2021564e+103
-1.2029847e+103
-1.1953257e+103
-1.1945306e+103
-1.1785978e+103
-1.1787234e+103
-1.1861098e+103
-1.1860527e+103
-1.1769768e+103
-1.1778889e+103
-1.1854806e+103
-1.1845555e+103
-1.2044663e+103
-1.2044379e+103
-1.2153649e+103
-1.1961999e+103
-1.1963199e+103
-1.2044079e+103
-1.2041475e+103
-1.1961547e+103
-1.1962093e+103
-1.1777937e+103
-1.1782464e+103
-1.1858259e+103
-1.1860877e+103
-1.1792844e+103
-1.1791622e+103
-1.1863424e+103
-1.1862971e+103
-1.1347448e+103
-1.1456457e+103
-1.1510958e+103
-1.1361157e+103
-1.1634834e+103
-1.1621916e+103
-1.1683112e+103
-1.1692197e+103
-1.1526519e+103
-1.1537852e+103
-1.1585614e+103
-1.1598716e+103
-1.1528679e+103
-1.1586737e+103
-1.1534367e+103
-1.1582672e+103
-1.1695611e+103
-1.1632923e+103
-1.1692995e+103
-1.1629562e+103
-1.1635841e+103
-1.1631037e+103
-1.1696317e+103
-1.1692221e+103
-1.1565279e+103
-1.1549983e+103
-1.1599473e+103
-1.1605609e+103
-1.1532178e+103
-1.1583894e+103
-1.1570566e+103
-1.1608708e+103
-1.1601078e+103
-1.1574805e+103
-1.1436839e+103
-1.138162e+103
-1.1627951e+103
-1.1635221e+103
-1.1689242e+103
-1.1698024e+103
-1.0801349e+103
-1.1962563e+103
-1.1991822e+103
-1.204433e+103
-1.2074483e+103
-1.1910629e+103
-1.1884654e+103
-1.1831444e+103
-1.1804105e+103
-1.15785e+103
-1.1552989e+103
-1.1613357e+103
-1.1527986e+103
-1.1531746e+103
-1.1718402e+103
-1.1639057e+103
-1.1674732e+103
-1.1725003e+103
-1.1753609e+103
-1.0938768e+103
-1.1396066e+103
-1.1473987e+103
-1.1033707e+103
-1.167811e+103
-1.1940022e+103
-1.2355472e+103
-1.2527153e+103
-1.2335824e+103
-1.2057448e+103
-1.1863692e+103
-1.1963912e+103
-1.1934473e+103
-1.1862952e+103
-1.2155109e+103
-1.2083475e+103
-1.2182832e+103
-1.2679865e+103
-1.2440656e+103
-1.2467693e+103
-1.2376612e+103
-1.2468994e+103
-1.2543694e+103
-1.2355355e+103
-1.2322865e+103
-1.24229e+103
-1.2458388e+103
-1.1722897e+103
-1.1652817e+103
-1.1593524e+103
-1.1451842e+103
-1.1444315e+103
-1.1613392e+103
-1.1750234e+103
-1.1608785e+103
-1.1745697e+103
-1.1621873e+103
-1.1534371e+103
-1.1526542e+103
-1.0894035e+103
-1.0419428e+103
-1.0798299e+103
-1.1449858e+103
-1.1478785e+103
-1.1682799e+103
-1.1605068e+103
-1.1606755e+103
-1.1677814e+103
-1.1718697e+103
-1.1622646e+103
-1.1633792e+103
-1.1770171e+103
-1.1605457e+103
-1.1622577e+103
-1.1656981e+103
-1.1646556e+103
-1.176757e+103
-1.1713648e+103
-1.173882e+103
-1.178355e+103
-1.1545135e+103
-1.152465e+103
-1.1647217e+103
-1.1678238e+103
-1.1704705e+103
-1.1667946e+103
-1.17269e+103
-1.1703223e+103
-1.1704219e+103
-1.1677789e+103
-1.1749547e+103
-1.1785546e+103
-1.1809823e+103
-1.1782258e+103
-1.1789133e+103
-1.1806187e+103
-1.1782781e+103
-1.1758436e+103
-1.1521967e+103
-1.1498652e+103
-1.1532776e+103
-1.1532341e+103
-1.1579399e+103
-1.1542179e+103
-1.1558246e+103
-1.158599e+103
-1.1528806e+103
-1.1559775e+103
-1.157623e+103
-1.1574902e+103
-1.1607539e+103
-1.1631586e+103
-1.1619161e+103
-1.1602921e+103
-1.1953163e+103
-1.1992931e+103
-1.1991914e+103
-1.1964796e+103
-1.1886132e+103
-1.1898326e+103
-1.1844874e+103
-1.1863504e+103
-1.2066322e+103
-1.2102805e+103
-1.2066187e+103
-1.2100125e+103
-1.2166489e+103
-1.2206696e+103
-1.2212009e+103
-1.216664e+103
-1.2160612e+103
-1.2197091e+103
-1.2162953e+103
-1.2137027e+103
-1.2069585e+103
-1.2096867e+103
-1.2077518e+103
-1.2055982e+103
-1.2140377e+103
-1.211383e+103
-1.210906e+103
-1.2084243e+103
-1.2056983e+103
-1.203253e+103
-1.2027155e+103
-1.2003922e+103
-1.1970663e+103
-1.1973493e+103
-1.200091e+103
-1.1992759e+103
-1.1950357e+103
-1.192192e+103
-1.1944065e+103
-1.1971897e+103
-1.1873341e+103
-1.190109e+103
-1.1893314e+103
-1.1910235e+103
-1.1891829e+103
-1.1871807e+103
-1.1867771e+103
-1.1842838e+103
-1.2346194e+103
-1.2360682e+103
-1.2346927e+103
-1.2333313e+103
-1.2313662e+103
-1.2313764e+103
-1.2294775e+103
-1.2247917e+103
-1.2378167e+103
-1.2400485e+103
-1.2410847e+103
-1.2388218e+103
-1.2443875e+103
-1.2456543e+103
-1.2431973e+103
-1.2421006e+103
-1.227436e+103
-1.2281888e+103
-1.2262456e+103
-1.2268102e+103
-1.2312799e+103
-1.2333182e+103
-1.2302244e+103
-1.232033e+103
-1.2243343e+103
-1.2252011e+103
-1.2232247e+103
-1.2220301e+103
-1.227287e+103
-1.2293395e+103
-1.2261016e+103
-1.2281091e+103
-1.2324149e+103
-1.2338554e+103
-1.2318228e+103
-1.2303667e+103
-1.2344272e+103
-1.236513e+103
-1.2376187e+103
-1.2356814e+103
-1.2385512e+103
-1.2406557e+103
-1.2418086e+103
-1.2397033e+103
-1.237947e+103
-1.2367115e+103
-1.2347572e+103
-1.2360282e+103
-1.229e+103
-1.2305107e+103
-1.2289842e+103
-1.2271946e+103
-1.2204481e+103
-1.2218294e+103
-1.2200618e+103
-1.218634e+103
-1.2183727e+103
-1.2202127e+103
-1.2170645e+103
-1.2156852e+103
-1.2189026e+103
-1.2234854e+103
-1.2206673e+103
-1.2232574e+103
-1.2239382e+103
-1.2259375e+103
-1.223022e+103
-1.224777e+103
-1.1973568e+103
-1.2011746e+103
-1.2093214e+103
-1.2056682e+103
-1.2163539e+103
-1.2143978e+103
-1.2210645e+103
-1.190336e+103
-1.1937744e+103
-1.1819347e+103
-1.1860568e+103
-1.0436204e+103
-1.1417318e+103
-1.1496023e+103
-1.1805142e+103
-1.1765626e+103
-1.1594701e+103
-1.1557048e+103
-1.1708063e+103
-1.1587484e+103
-1.1574186e+103
-1.1589853e+103
-1.161949e+103
-1.1661455e+103
-1.1698136e+103
-1.1779996e+103
-1.1741631e+103
-1.217179e+103
-1.1947493e+103
-1.1943942e+103
-1.2034923e+103
-1.203779e+103
-1.1836345e+103
-1.1757678e+103
-1.1758974e+103
-1.1839343e+103
-1.1765898e+103
-1.1765655e+103
-1.1844408e+103
-1.1844709e+103
-1.2044092e+103
-1.1949276e+103
-1.1951421e+103
-1.2043498e+103
-1.2195504e+103
-1.2195086e+103
-1.2155839e+103
-1.2156304e+103
-1.2194322e+103
-1.219402e+103
-1.2154961e+103
-1.2154935e+103
-1.2267015e+103
-1.2310628e+103
-1.2266802e+103
-1.2310311e+103
-1.226814e+103
-1.2311958e+103
-1.2267918e+103
-1.2311173e+103
-1.2185177e+103
-1.2185618e+103
-1.2145542e+103
-1.2145021e+103
-1.2188484e+103
-1.2190391e+103
-1.214836e+103
-1.2150685e+103
-1.2259305e+103
-1.2303847e+103
-1.2260578e+103
-1.2304811e+103
-1.2263434e+103
-1.2307041e+103
-1.226467e+103
-1.2307969e+103
-1.2191917e+103
-1.219127e+103
-1.2045229e+103
-1.2153802e+103
-1.2153548e+103
-1.2194147e+103
-1.2191444e+103
-1.2043967e+103
-1.2152732e+103
-1.2155102e+103
-1.2266844e+103
-1.2309852e+103
-1.2264156e+103
-1.1955924e+103
-1.1960948e+103
-1.219065e+103
-1.2190086e+103
-1.2048617e+103
-1.2154314e+103
-1.2154071e+103
-1.2191736e+103
-1.2189775e+103
-1.2049703e+103
-1.215268e+103
-1.2154088e+103
-1.1967545e+103
-1.1965385e+103
-1.1857497e+103
-1.1778884e+103
-1.1777114e+103
-1.1857527e+103
-1.1850691e+103
-1.1775529e+103
-1.1777453e+103
-1.1854928e+103
-1.1649055e+103
-1.1583034e+103
-1.1600317e+103
-1.1660654e+103
-1.1383717e+103
-1.1484827e+103
-1.1480018e+103
-1.1537407e+103
-1.1555495e+103
-1.1549675e+103
-1.1486403e+103
-1.1486818e+103
-1.1548125e+103
-1.141185e+103
-1.126039e+103
-1.126912e+103
-1.166712e+103
-1.1598589e+103
-1.159841e+103
-1.1666252e+103
-1.1433839e+103
-1.1455045e+103
-1.1292915e+103
-1.1328232e+103
-1.1669347e+103
-1.1603771e+103
-1.1608122e+103
-1.1676271e+103
-1.1489326e+103
-1.1550916e+103
-1.1494934e+103
-1.1556486e+103
-1.1496508e+103
-1.1511458e+103
-1.1562529e+103
-1.1560493e+103
-1.1610688e+103
-1.1609911e+103
-1.1678928e+103
-1.1681413e+103
-1.0775769e+103
-1.0747607e+103
-1.2079116e+103
-1.2052703e+103
-1.2052003e+103
-1.2078766e+103
-1.2082759e+103
-1.205467e+103
-1.2052599e+103
-1.2080946e+103
-1.1971798e+103
-1.1971278e+103
-1.1999481e+103
-1.1999378e+103
-1.1970322e+103
-1.1971699e+103
-1.2000844e+103
-1.1999456e+103
-1.2073831e+103
-1.2048066e+103
-1.2046656e+103
-1.2075539e+103
-1.2078154e+103
-1.205178e+103
-1.2049608e+103
-1.2076322e+103
-1.1998858e+103
-1.1971874e+103
-1.1968479e+103
-1.1997258e+103
-1.196362e+103
-1.1967489e+103
-1.1995519e+103
-1.199401e+103
-1.1812364e+103
-1.1810825e+103
-1.1838851e+103
-1.1841124e+103
-1.1810816e+103
-1.1812818e+103
-1.1840106e+103
-1.1838793e+103
-1.1891334e+103
-1.1916555e+103
-1.1915751e+103
-1.1890751e+103
-1.189302e+103
-1.1891632e+103
-1.1916446e+103
-1.1918351e+103
-1.1805788e+103
-1.1808777e+103
-1.1836704e+103
-1.183422e+103
-1.1808618e+103
-1.1812009e+103
-1.1841415e+103
-1.1837985e+103
-1.1918404e+103
-1.1892806e+103
-1.1889804e+103
-1.1915733e+103
-1.1913826e+103
-1.1888689e+103
-1.188557e+103
-1.1911232e+103
-1.2089688e+103
-1.2058711e+103
-1.205828e+103
-1.2089119e+103
-1.2214494e+103
-1.2215506e+103
-1.2059165e+103
-1.206155e+103
-1.2093401e+103
-1.2090649e+103
-1.2151919e+103
-1.1971181e+103
-1.1973597e+103
-1.2005313e+103
-1.2002602e+103
-1.2001158e+103
-1.1970833e+103
-1.1971356e+103
-1.2002278e+103
-1.2087819e+103
-1.2057536e+103
-1.2055353e+103
-1.2085671e+103
-1.2054816e+103
-1.2055088e+103
-1.2084888e+103
-1.2084055e+103
-1.1970142e+103
-1.1968638e+103
-1.1999233e+103
-1.2000189e+103
-1.1968299e+103
-1.1970163e+103
-1.2001503e+103
-1.1999278e+103
-1.1832924e+103
-1.1802239e+103
-1.1800993e+103
-1.1831998e+103
-1.1803875e+103
-1.1801685e+103
-1.1833753e+103
-1.1831787e+103
-1.1887135e+103
-1.1889196e+103
-1.1918528e+103
-1.1915198e+103
-1.1886823e+103
-1.1914255e+103
-1.1914569e+103
-1.1887519e+103
-1.1813224e+103
-1.1810103e+103
-1.1839273e+103
-1.1836946e+103
-1.1808442e+103
-1.1806789e+103
-1.1834971e+103
-1.1835888e+103
-1.1886699e+103
-1.1913674e+103
-1.1911432e+103
-1.1886023e+103
-1.1886587e+103
-1.1912199e+103
-1.1914228e+103
-1.1889169e+103
-1.1350259e+103
-1.1617758e+103
-1.1532628e+103
-1.1509813e+103
-1.1623729e+103
-1.1550256e+103
-1.1543503e+103
-1.1651056e+103
-1.1676826e+103
-1.1375567e+103
-1.1639139e+103
-1.1638661e+103
-1.1668954e+103
-1.1671737e+103
-1.1634503e+103
-1.1630719e+103
-1.166658e+103
-1.1667843e+103
-1.1716593e+103
-1.1715983e+103
-1.1746677e+103
-1.1745557e+103
-1.1744891e+103
-1.1717277e+103
-1.1719833e+103
-1.1747974e+103
-1.1545881e+103
-1.1543217e+103
-1.1565197e+103
-1.1564308e+103
-1.1565754e+103
-1.1560848e+103
-1.1566541e+103
-1.1559347e+103
-1.1551987e+103
-1.1563604e+103
-1.157328e+103
-1.1582175e+103
-1.1585064e+103
-1.1567546e+103
-1.1570247e+103
-1.1586939e+103
-1.1546819e+103
-1.1553537e+103
-1.1546517e+103
-1.1545749e+103
-1.1590735e+103
-1.157156e+103
-1.1569219e+103
-1.1595978e+103
-1.1538589e+103
-1.1553627e+103
-1.1544876e+103
-1.154549e+103
-1.1567843e+103
-1.1574503e+103
-1.1597179e+103
-1.1594678e+103
-1.1750953e+103
-1.1724985e+103
-1.172617e+103
-1.1752424e+103
-1.1677523e+103
-1.1646106e+103
-1.1649581e+103
-1.1679275e+103
-1.175378e+103
-1.1729425e+103
-1.1729696e+103
-1.1757435e+103
-1.1680631e+103
-1.1651578e+103
-1.164975e+103
-1.1681026e+103
-1.1649589e+103
-1.1651086e+103
-1.1680501e+103
-1.1682193e+103
-1.1647048e+103
-1.1648873e+103
-1.1680726e+103
-1.1678798e+103
-1.1731283e+103
-1.1729919e+103
-1.1756419e+103
-1.1759079e+103
-1.1729307e+103
-1.1730487e+103
-1.1758355e+103
-1.1756709e+103
-1.1588866e+103
-1.1564165e+103
-1.156341e+103
-1.1572782e+103
-1.1569345e+103
-1.1558466e+103
-1.1564407e+103
-1.1552982e+103
-1.1560063e+103
-1.1570013e+103
-1.1577101e+103
-1.1574812e+103
-1.1595876e+103
-1.1596193e+103
-1.1598267e+103
-1.1580503e+103
-1.1577932e+103
-1.1596259e+103
-1.168908e+103
-1.169962e+103
-1.162559e+103
-1.1549778e+103
-1.1569992e+103
-1.1563061e+103
-1.1543773e+103
-1.160619e+103
-1.1571514e+103
-1.1569168e+103
-1.1570676e+103
-1.1568399e+103
-1.1573285e+103
-1.1577405e+103
-1.1596666e+103
-1.1593554e+103
-1.158912e+103
-1.1565804e+103
-1.1559107e+103
-1.1587102e+103
-1.1728845e+103
-1.175629e+103
-1.1642857e+103
-1.164416e+103
-1.1681638e+103
-1.1679021e+103
-1.1647092e+103
-1.1650381e+103
-1.1684803e+103
-1.1682236e+103
-1.1727351e+103
-1.1730062e+103
-1.1758015e+103
-1.1756985e+103
-1.1730229e+103
-1.1732612e+103
-1.1760725e+103
-1.1758124e+103
-1.0739133e+103
-1.1713631e+103
-1.1544467e+103
-1.0926437e+103
-1.1369305e+103
-1.1469806e+103
-1.1051639e+103
-1.1778986e+103
-1.1675282e+103
-1.1654997e+103
-1.1997655e+103
-1.211566e+103
-1.1913688e+103
-1.2414005e+103
-1.2418185e+103
-1.2387693e+103
-1.2585598e+103
-1.2625502e+103
-1.245532e+103
-1.2755685e+103
-1.2803497e+103
-1.1975823e+103
-1.2018943e+103
-1.2019017e+103
-1.1933522e+103
-1.198743e+103
-1.2063862e+103
-1.1905328e+103
-1.1863621e+103
-1.1910847e+103
-1.2225049e+103
-1.2189697e+103
-1.2145924e+103
-1.2249956e+103
-1.2307675e+103
-1.2093899e+103
-1.2133573e+103
-1.2245329e+103
-1.2203243e+103
-1.2776732e+103
-1.2729488e+103
-1.2483103e+103
-1.2497035e+103
-1.2520371e+103
-1.2481282e+103
-1.2448394e+103
-1.2532076e+103
-1.2538278e+103
-1.2648474e+103
-1.2602076e+103
-1.2369328e+103
-1.2411301e+103
-1.2444428e+103
-1.2402415e+103
-1.2556065e+103
-1.2513306e+103
-1.2471479e+103
-1.2509788e+103
-1.2590733e+103
-1.2552506e+103
-1.2596923e+103
-1.2639185e+103
-1.2371533e+103
-1.2380231e+103
-1.2330005e+103
-1.2328789e+103
-1.2418302e+103
-1.2431215e+103
-1.2468467e+103
-1.2483196e+103
-1.161215e+103
-1.1460153e+103
-1.1462026e+103
-1.1594143e+103
-1.1643469e+103
-1.1714815e+103
-1.1625604e+103
-1.1780954e+103
-1.1797933e+103
-1.1788529e+103
-1.1646899e+103
-1.1624628e+103
-1.1594467e+103
-1.1732046e+103
-1.1792292e+103
-1.1533755e+103
-1.152614e+103
-1.1617885e+103
-1.1543424e+103
-1.155413e+103
-1.0820256e+103
-1.1406042e+103
-1.140639e+103
-1.0404373e+103
-1.1374819e+103
-1.1455486e+103
-1.1375494e+103
-1.1458871e+103
-1.1703109e+103
-1.1747475e+103
-1.1757092e+103
-1.1606251e+103
-1.1690468e+103
-1.1527126e+103
-1.1548834e+103
-1.1691954e+103
-1.1655989e+103
-1.1525613e+103
-1.1735774e+103
-1.1580374e+103
-1.1664651e+103
-1.1610493e+103
-1.1755714e+103
-1.1811525e+103
-1.1527381e+103
-1.1542514e+103
-1.157543e+103
-1.1503426e+103
-1.1432913e+103
-1.1479589e+103
-1.1625301e+103
-1.1708106e+103
-1.1675107e+103
-1.1708412e+103
-1.1737019e+103
-1.1787429e+103
-1.1750223e+103
-1.1776701e+103
-1.1798153e+103
-1.171493e+103
-1.1674585e+103
-1.1736572e+103
-1.1696477e+103
-1.1770809e+103
-1.1795271e+103
-1.1799219e+103
-1.1778453e+103
-1.1709515e+103
-1.1735674e+103
-1.1748316e+103
-1.1726636e+103
-1.1746728e+103
-1.1738225e+103
-1.1743431e+103
-1.1754318e+103
-1.1688103e+103
-1.1710887e+103
-1.1712118e+103
-1.1691833e+103
-1.1789447e+103
-1.1771672e+103
-1.178973e+103
-1.1813394e+103
-1.1825958e+103
-1.1845069e+103
-1.1875097e+103
-1.1856737e+103
-1.1888144e+103
-1.1902792e+103
-1.1891818e+103
-1.1887825e+103
-1.1834812e+103
-1.1817728e+103
-1.1856021e+103
-1.1844149e+103
-1.1809053e+103
-1.1837836e+103
-1.1847294e+103
-1.1817035e+103
-1.1842016e+103
-1.1876368e+103
-1.18844e+103
-1.1855422e+103
-1.1833731e+103
-1.1814986e+103
-1.1794736e+103
-1.1808185e+103
-1.1758598e+103
-1.1779498e+103
-1.1788026e+103
-1.1765283e+103
-1.1455229e+103
-1.1528557e+103
-1.1484382e+103
-1.1467999e+103
-1.1499617e+103
-1.1586279e+103
-1.1548906e+103
-1.1521955e+103
-1.1555313e+103
-1.1640387e+103
-1.1601626e+103
-1.1621743e+103
-1.1647698e+103
-1.1446624e+103
-1.1491629e+103
-1.1447493e+103
-1.1482142e+103
-1.1549827e+103
-1.1500322e+103
-1.1580065e+103
-1.1507934e+103
-1.1506025e+103
-1.1530985e+103
-1.1554417e+103
-1.1556984e+103
-1.1577482e+103
-1.159792e+103
-1.1572286e+103
-1.1565749e+103
-1.1621165e+103
-1.1584919e+103
-1.1614498e+103
-1.1640501e+103
-1.1682199e+103
-1.1679774e+103
-1.1683613e+103
-1.1692682e+103
-1.1670853e+103
-1.1659172e+103
-1.1626673e+103
-1.1643083e+103
-1.1604926e+103
-1.1626602e+103
-1.1605614e+103
-1.1593727e+103
-1.201595e+103
-1.2013548e+103
-1.2046976e+103
-1.2033473e+103
-1.1979008e+103
-1.1927128e+103
-1.1878064e+103
-1.2085526e+103
-1.2099133e+103
-1.2104723e+103
-1.2094454e+103
-1.2137952e+103
-1.2133321e+103
-1.2146062e+103
-1.2148337e+103
-1.2244347e+103
-1.2259272e+103
-1.2252929e+103
-1.2239274e+103
-1.2187983e+103
-1.2191445e+103
-1.2199982e+103
-1.2205581e+103
-1.2185423e+103
-1.2176461e+103
-1.2186525e+103
-1.2197685e+103
-1.2234449e+103
-1.2241979e+103
-1.2227305e+103
-1.2218555e+103
-1.2203082e+103
-1.2212341e+103
-1.2189309e+103
-1.2179284e+103
-1.2140236e+103
-1.2161943e+103
-1.2152083e+103
-1.2173686e+103
-1.2074971e+103
-1.2099397e+103
-1.2112473e+103
-1.2104178e+103
-1.2133753e+103
-1.2140698e+103
-1.2149086e+103
-1.2142363e+103
-1.2130588e+103
-1.2120365e+103
-1.2102196e+103
-1.211166e+103
-1.2090725e+103
-1.2083939e+103
-1.2068825e+103
-1.2076187e+103
-1.2154005e+103
-1.2172924e+103
-1.2162013e+103
-1.2143169e+103
-1.213378e+103
-1.2121062e+103
-1.2102588e+103
-1.2115206e+103
-1.2136296e+103
-1.2150124e+103
-1.2120857e+103
-1.211047e+103
-1.2071802e+103
-1.209429e+103
-1.2081409e+103
-1.2108599e+103
-1.2092194e+103
-1.2082902e+103
-1.2064837e+103
-1.2073824e+103
-1.2055871e+103
-1.2045877e+103
-1.2025671e+103
-1.2037306e+103
-1.2064775e+103
-1.2054682e+103
-1.2031e+103
-1.2038922e+103
-1.2027434e+103
-1.2013235e+103
-1.1988555e+103
-1.200258e+103
-1.2009086e+103
-1.2000567e+103
-1.201927e+103
-1.2025467e+103
-1.2017862e+103
-1.2014188e+103
-1.200247e+103
-1.2009253e+103
-1.2060371e+103
-1.2040531e+103
-1.2066262e+103
-1.2055474e+103
-1.2035727e+103
-1.2049948e+103
-1.20414e+103
-1.2052836e+103
-1.1954191e+103
-1.1981451e+103
-1.1988258e+103
-1.1965019e+103
-1.1906922e+103
-1.1929306e+103
-1.1939461e+103
-1.1915733e+103
-1.1948625e+103
-1.1973432e+103
-1.1986576e+103
-1.1960022e+103
-1.1990654e+103
-1.2012535e+103
-1.1997872e+103
-1.2018501e+103
-1.19111e+103
-1.1918268e+103
-1.1908375e+103
-1.1933661e+103
-1.196266e+103
-1.1951705e+103
-1.1975027e+103
-1.1979576e+103
-1.1933879e+103
-1.1958557e+103
-1.1948336e+103
-1.1935398e+103
-1.1963001e+103
-1.1973706e+103
-1.1977329e+103
-1.1970511e+103
-1.1953412e+103
-1.194714e+103
-1.1916167e+103
-1.1927141e+103
-1.1884302e+103
-1.1919542e+103
-1.1923178e+103
-1.1891528e+103
-1.1901704e+103
-1.1891356e+103
-1.1868682e+103
-1.1876691e+103
-1.1838009e+103
-1.1863389e+103
-1.1863298e+103
-1.1842037e+103
-1.2355295e+103
-1.2343298e+103
-1.2290278e+103
-1.2310253e+103
-1.2315299e+103
-1.2323396e+103
-1.2288788e+103
-1.23771e+103
-1.2393266e+103
-1.243861e+103
-1.2420726e+103
-1.2281435e+103
-1.2277117e+103
-1.2261293e+103
-1.2272209e+103
-1.2319313e+103
-1.2338573e+103
-1.2301798e+103
-1.2318853e+103
-1.2243311e+103
-1.2258621e+103
-1.2241941e+103
-1.2224988e+103
-1.228275e+103
-1.2300977e+103
-1.2264798e+103
-1.2282623e+103
-1.2325338e+103
-1.2344167e+103
-1.2325957e+103
-1.2307226e+103
-1.2344652e+103
-1.2364149e+103
-1.238163e+103
-1.2362807e+103
-1.2387248e+103
-1.2407264e+103
-1.2426149e+103
-1.240522e+103
-1.2386612e+103
-1.2368089e+103
-1.2350237e+103
-1.2368917e+103
-1.229414e+103
-1.2312908e+103
-1.230068e+103
-1.2278161e+103
-1.2216005e+103
-1.2208741e+103
-1.222715e+103
-1.2213415e+103
-1.2195595e+103
-1.2209601e+103
-1.2232875e+103
-1.2222347e+103
-1.222394e+103
-1.2262923e+103
-1.2190393e+103
-1.2259153e+103
-1.2252549e+103
-1.2269437e+103
-1.2236698e+103
-1.2250985e+103
-1.1969371e+103
-1.2000456e+103
-1.1965346e+103
-1.2011377e+103
-1.2033683e+103
-1.2020903e+103
-1.2090622e+103
-1.2115597e+103
-1.210142e+103
-1.205363e+103
-1.2076108e+103
-1.2061043e+103
-1.2133397e+103
-1.2128665e+103
-1.2148679e+103
-1.2153314e+103
-1.2161711e+103
-1.214248e+103
-1.2220766e+103
-1.1894535e+103
-1.1906309e+103
-1.1917536e+103
-1.1929305e+103
-1.1955653e+103
-1.1936964e+103
-1.1811895e+103
-1.1818694e+103
-1.1858886e+103
-1.1854583e+103
-1.1876624e+103
-1.1884437e+103
-1.176452e+103
-1.179024e+103
-1.1821145e+103
-1.1859419e+103
-1.1786101e+103
-1.1615833e+103
-1.1631977e+103
-1.1540268e+103
-1.155517e+103
-1.1614582e+103
-1.1596777e+103
-1.1594142e+103
-1.159765e+103
-1.1620454e+103
-1.1631877e+103
-1.1653133e+103
-1.1648808e+103
-1.1616429e+103
-1.1739854e+103
-1.1670532e+103
-1.1658821e+103
-1.1697312e+103
-1.1744183e+103
-1.1736142e+103
-1.1774198e+103
-1.1797156e+103
-1.1797989e+103
-1.1737733e+103
-1.1775692e+103
-1.1766929e+103
-1.2254757e+103
-1.2256392e+103
-1.2181338e+103
-1.2183086e+103
-1.2143888e+103
-1.214185e+103
-1.1954621e+103
-1.1952138e+103
-1.1987119e+103
-1.1989577e+103
-1.1949306e+103
-1.1949333e+103
-1.1984726e+103
-1.1984123e+103
-1.2081038e+103
-1.2043907e+103
-1.2043536e+103
-1.2080634e+103
-1.204938e+103
-1.2046866e+103
-1.2083542e+103
-1.2086099e+103
-1.1887887e+103
-1.1856996e+103
-1.1857672e+103
-1.1888046e+103
-1.1802531e+103
-1.1771668e+103
-1.1772899e+103
-1.1803434e+103
-1.1775888e+103
-1.1773422e+103
-1.180573e+103
-1.1808539e+103
-1.1891512e+103
-1.1861002e+103
-1.1863506e+103
-1.1894514e+103
-1.1785901e+103
-1.1784783e+103
-1.1815095e+103
-1.1816722e+103
-1.1782196e+103
-1.1779902e+103
-1.1811877e+103
-1.1812201e+103
-1.189596e+103
-1.1865344e+103
-1.1866277e+103
-1.1896315e+103
-1.1899232e+103
-1.1869135e+103
-1.1870358e+103
-1.1901006e+103
-1.2089989e+103
-1.2052982e+103
-1.2052554e+103
-1.2090335e+103
-1.1992233e+103
-1.1956586e+103
-1.1956468e+103
-1.1992011e+103
-1.1960489e+103
-1.1958909e+103
-1.1994322e+103
-1.1994905e+103
-1.2091905e+103
-1.2054094e+103
-1.2054167e+103
-1.2091917e+103
-1.2219155e+103
-1.2219788e+103
-1.2226315e+103
-1.2226284e+103
-1.2226469e+103
-1.2225314e+103
-1.2219556e+103
-1.2217908e+103
-1.2152381e+103
-1.2152888e+103
-1.2216296e+103
-1.2217643e+103
-1.2224003e+103
-1.2224295e+103
-1.2225155e+103
-1.2225371e+103
-1.221867e+103
-1.2218969e+103
-1.2151746e+103
-1.2150218e+103
-1.2264944e+103
-1.2264664e+103
-1.2278537e+103
-1.2278977e+103
-1.2317866e+103
-1.2334896e+103
-1.2334344e+103
-1.2317424e+103
-1.2279683e+103
-1.2265708e+103
-1.2279547e+103
-1.2265971e+103
-1.2318415e+103
-1.2335171e+103
-1.2318261e+103
-1.2335086e+103
-1.2266541e+103
-1.2266e+103
-1.2280512e+103
-1.2279826e+103
-1.2318378e+103
-1.2336003e+103
-1.2335283e+103
-1.2319168e+103
-1.2266613e+103
-1.2265863e+103
-1.2279835e+103
-1.2280477e+103
-1.2318677e+103
-1.2317755e+103
-1.233558e+103
-1.2334703e+103
-1.2208549e+103
-1.2211967e+103
-1.221632e+103
-1.2218109e+103
-1.2219113e+103
-1.2219159e+103
-1.2213066e+103
-1.2212453e+103
-1.2141576e+103
-1.2142803e+103
-1.2213483e+103
-1.2214352e+103
-1.2221036e+103
-1.2221316e+103
-1.2222493e+103
-1.2222474e+103
-1.2215512e+103
-1.2215184e+103
-1.2145399e+103
-1.2147192e+103
-1.2271566e+103
-1.2257283e+103
-1.2271185e+103
-1.2258247e+103
-1.2310585e+103
-1.2310957e+103
-1.2327628e+103
-1.2327902e+103
-1.2273588e+103
-1.2260056e+103
-1.2273174e+103
-1.2260541e+103
-1.2329104e+103
-1.2312582e+103
-1.2312762e+103
-1.2329444e+103
-1.2275443e+103
-1.22624e+103
-1.2275613e+103
-1.226228e+103
-1.233132e+103
-1.2314708e+103
-1.2314558e+103
-1.2331363e+103
-1.2277406e+103
-1.2263599e+103
-1.2277163e+103
-1.2263756e+103
-1.233291e+103
-1.2316231e+103
-1.2316212e+103
-1.2333163e+103
-1.221673e+103
-1.2216235e+103
-1.2222166e+103
-1.2221131e+103
-1.2221068e+103
-1.2220449e+103
-1.2215958e+103
-1.2214804e+103
-1.2089241e+103
-1.2055997e+103
-1.2057015e+103
-1.2090457e+103
-1.2150447e+103
-1.2150467e+103
-1.2217599e+103
-1.2218725e+103
-1.2224851e+103
-1.2224299e+103
-1.2223584e+103
-1.2221998e+103
-1.221863e+103
-1.2216957e+103
-1.2090769e+103
-1.2054786e+103
-1.2053774e+103
-1.2088869e+103
-1.215052e+103
-1.2151374e+103
-1.227754e+103
-1.2265547e+103
-1.2279145e+103
-1.2264352e+103
-1.2317658e+103
-1.2334165e+103
-1.2332511e+103
-1.2316256e+103
-1.2275594e+103
-1.2263965e+103
-1.2277076e+103
-1.2262623e+103
-1.1995705e+103
-1.1962149e+103
-1.1962075e+103
-1.1995242e+103
-1.1967289e+103
-1.1964983e+103
-1.1997723e+103
-1.1999491e+103
-1.2215616e+103
-1.2216251e+103
-1.2220094e+103
-1.2219741e+103
-1.2219852e+103
-1.2218992e+103
-1.2216598e+103
-1.2215156e+103
-1.2092002e+103
-1.2060987e+103
-1.2061849e+103
-1.2093642e+103
-1.2152349e+103
-1.2151895e+103
-1.2214584e+103
-1.2215424e+103
-1.2220832e+103
-1.2220579e+103
-1.222045e+103
-1.2219816e+103
-1.2216011e+103
-1.2215402e+103
-1.209118e+103
-1.20579e+103
-1.2057728e+103
-1.2090463e+103
-1.2151085e+103
-1.2150646e+103
-1.2001611e+103
-1.1970805e+103
-1.197141e+103
-1.2002088e+103
-1.1973647e+103
-1.1973445e+103
-1.2004364e+103
-1.2005316e+103
-1.1912028e+103
-1.1883899e+103
-1.1884196e+103
-1.1912851e+103
-1.1827728e+103
-1.1797288e+103
-1.1797919e+103
-1.182877e+103
-1.1801243e+103
-1.1800504e+103
-1.1831053e+103
-1.1832524e+103
-1.1915316e+103
-1.1886145e+103
-1.1887142e+103
-1.1916842e+103
-1.1901088e+103
-1.1871447e+103
-1.1871952e+103
-1.1901382e+103
-1.1817731e+103
-1.1788288e+103
-1.1789426e+103
-1.1818314e+103
-1.1794335e+103
-1.1792308e+103
-1.1821546e+103
-1.1825088e+103
-1.1904967e+103
-1.1876046e+103
-1.1879197e+103
-1.1908382e+103
-1.1713126e+103
-1.1683876e+103
-1.1685286e+103
-1.1714115e+103
-1.1629778e+103
-1.1594701e+103
-1.1598895e+103
-1.1633269e+103
-1.1603935e+103
-1.1602117e+103
-1.1636251e+103
-1.1639171e+103
-1.1715401e+103
-1.168446e+103
-1.1686317e+103
-1.1718352e+103
-1.1461841e+103
-1.1542586e+103
-1.1530421e+103
-1.1471222e+103
-1.1522675e+103
-1.1524515e+103
-1.1525554e+103
-1.1524538e+103
-1.1518757e+103
-1.1506574e+103
-1.1492427e+103
-1.1517177e+103
-1.152401e+103
-1.1508405e+103
-1.1534299e+103
-1.1542934e+103
-1.1546908e+103
-1.1525446e+103
-1.1526598e+103