/*--------------------------------*- C++ -*----------------------------------*\
  =========                 |
  \\      /  F ield         | OpenFOAM: The Open Source CFD Toolbox
   \\    /   O peration     | Website:  https://openfoam.org
    \\  /    A nd           | Version:  7
     \\/     M anipulation  |
\*---------------------------------------------------------------------------*/
FoamFile
{
    version     2.0;
    format      ascii;
    class       volVectorField;
    location    "9000";
    object      U;
}
// * * * * * * * * * * * * * * * * * * * * * * * * * * * * * * * * * * * * * //

dimensions      [0 1 -1 0 0 0 0];

internalField   nonuniform List<vector> 
33733
(
(-4.1211945e+52 1.3830562e+51 3.5591001e+50)
(-3.2440616e+52 -6.7948947e+50 7.8141609e+50)
(-4.1107089e+52 2.2935086e+51 5.7299695e+50)
(-3.0598485e+52 3.0355229e+51 1.4849083e+51)
(-3.0572733e+52 2.3971056e+51 2.8838337e+51)
(-4.23713e+52 -6.9705665e+50 1.8244122e+50)
(-2.8590335e+52 -5.9058926e+50 8.2136706e+49)
(-2.865975e+52 -2.4705393e+51 -1.8421692e+51)
(-3.1324215e+52 3.522593e+50 3.0616053e+51)
(-2.9677712e+52 -1.3923539e+51 -6.1859145e+50)
(-3.1994196e+52 3.3020973e+51 1.8703897e+51)
(-2.957885e+52 -5.4771143e+50 2.9385172e+51)
(-3.0085434e+52 2.5581729e+51 1.1542058e+50)
(-3.0341454e+52 2.9260179e+51 8.4524012e+50)
(-2.9474683e+52 -1.0575355e+51 1.8317449e+51)
(-3.0258393e+52 -1.0108337e+51 5.3322249e+50)
(-4.2867968e+52 -4.941722e+50 1.8725693e+50)
(-2.8403571e+52 -1.2844891e+50 1.6776217e+51)
(-3.0803329e+52 3.3563622e+51 5.3776089e+50)
(-2.8931861e+52 -1.3006018e+51 1.5427815e+51)
(-2.8211893e+52 -1.8673403e+51 1.8746194e+51)
(-2.8570626e+52 2.1662226e+50 1.2662929e+51)
(-2.8961249e+52 -1.0232422e+50 1.2664922e+51)
(-2.7771618e+52 -2.7081061e+51 2.5624275e+50)
(-2.825079e+52 -2.8269362e+51 -1.2537952e+51)
(-2.2472114e+52 -4.0074552e+51 5.8398072e+50)
(-3.2234797e+52 4.0808157e+51 8.7046899e+50)
(-2.9672287e+52 2.9953142e+51 3.9613235e+51)
(-2.0765617e+52 -2.0651241e+51 -1.6413455e+51)
(-2.5431667e+52 -6.1701457e+50 2.8508027e+50)
(-2.8615291e+52 9.673673e+50 1.0960979e+51)
(-2.5215983e+52 -1.9622721e+51 -6.0978122e+50)
(-2.9071806e+52 9.455233e+49 1.4229893e+51)
(-3.1100515e+52 -1.6216859e+51 3.1916201e+51)
(-3.2437411e+52 -5.1585129e+49 3.4675408e+51)
(-2.9972566e+52 -1.7465622e+51 -4.7741587e+49)
(-2.9540533e+52 -5.4638268e+50 -1.4934879e+50)
(-2.8397721e+52 -7.6071948e+50 9.9108736e+50)
(-2.775649e+52 -1.676277e+51 -1.7822211e+51)
(-2.5390759e+52 -1.3316177e+51 -2.2294483e+50)
(-3.1827193e+52 8.8064463e+49 4.4337012e+51)
(-2.8141739e+52 -8.3030491e+50 1.0912305e+51)
(-2.2358648e+52 2.618345e+50 -3.3982596e+51)
(-3.4754682e+52 3.0047281e+51 1.10331e+51)
(-2.9911821e+52 1.2264296e+51 4.5513188e+50)
(-2.9240972e+52 -1.7124164e+51 3.2095647e+51)
(-2.8489357e+52 -2.3987704e+51 2.2216799e+51)
(-2.9886341e+52 1.1228172e+51 1.2661678e+51)
(-2.9468597e+52 6.510627e+50 2.7191392e+51)
(-2.9795959e+52 2.0447804e+51 -7.5757208e+50)
(-3.0374208e+52 1.2757169e+51 1.723842e+51)
(-3.0646653e+52 8.2540896e+50 3.4807322e+50)
(-2.8224223e+52 -1.8219878e+51 2.4660451e+51)
(-3.2230314e+52 3.8621926e+51 8.0770511e+50)
(-2.9417316e+52 4.9636213e+50 1.1418095e+51)
(-2.6268214e+52 -2.1522406e+51 1.5916533e+51)
(-2.329813e+52 -3.6092468e+51 1.5770029e+51)
(-2.3246099e+52 -3.9697413e+51 3.2343541e+50)
(-3.2427942e+52 4.4469277e+51 5.133596e+50)
(-2.9528483e+52 6.3298933e+50 1.7237686e+51)
(-2.6136612e+52 -1.2432558e+51 8.601323e+50)
(-2.8771953e+52 8.62959e+50 8.9763655e+50)
(-2.5106456e+52 -8.7232714e+50 1.5385954e+51)
(-2.9000566e+52 -2.5208405e+51 1.3287305e+51)
(-2.9182665e+52 5.1226847e+50 2.0584944e+51)
(-2.8482023e+52 1.5569546e+50 1.0337825e+51)
(-2.7822777e+52 -3.1335106e+51 1.4608295e+51)
(-2.7214269e+52 1.2399883e+51 1.5051927e+51)
(-2.6651426e+52 -9.1653642e+50 2.8930954e+51)
(-2.4803295e+52 -1.254662e+51 1.8826209e+51)
(-2.5528819e+52 8.7053189e+50 1.5789859e+51)
(-2.4194457e+52 -9.8661136e+50 1.3734555e+51)
(-2.4910709e+52 9.2604384e+50 2.0571719e+51)
(-2.4028912e+52 -1.3171516e+51 1.9273736e+51)
(-2.5059255e+52 -2.0090915e+51 8.9871953e+50)
(-2.6772921e+52 -2.7093152e+51 -6.4639818e+50)
(-2.5714667e+52 -3.6387759e+50 1.3910855e+51)
(-2.6790744e+52 -1.1492969e+51 7.2346691e+50)
(-2.6104052e+52 -8.0983477e+50 9.4184326e+50)
(-2.5331286e+52 -2.8904804e+51 1.4146263e+50)
(-2.6910937e+52 -2.9446057e+51 -1.0788405e+51)
(-2.7475812e+52 -1.2260923e+51 5.562617e+50)
(-4.009801e+52 -4.7921906e+51 -3.2065105e+51)
(-2.607425e+52 -6.0999893e+50 5.653478e+49)
(-2.0247158e+52 -1.512946e+51 5.7495099e+50)
(-2.762749e+52 3.2493199e+51 9.3317548e+50)
(-2.6195181e+52 1.4798631e+51 2.5447007e+51)
(-1.9005625e+52 -1.0976975e+51 -3.9233606e+50)
(-2.4590844e+52 -1.4854034e+51 -1.2754512e+50)
(-2.5374304e+52 -2.2791676e+51 -7.1369057e+50)
(-2.7060507e+52 -5.2146811e+50 5.1500795e+50)
(-2.8195962e+52 -9.4009516e+50 4.7074961e+50)
(-2.5688809e+52 -3.1835144e+51 -1.8010205e+50)
(-2.6661522e+52 -1.3185131e+51 4.2489723e+50)
(-2.7064399e+52 -3.0519905e+51 -1.2469776e+51)
(-2.7670023e+52 -1.5889132e+51 -7.2034484e+48)
(-3.2727296e+52 -1.7790238e+50 3.4759075e+51)
(-2.8409393e+52 -1.0140029e+51 -2.9354053e+51)
(-2.8939501e+52 -1.4957847e+51 -2.2084981e+51)
(-2.8774194e+52 -1.3546315e+51 -2.3380084e+51)
(-3.1871491e+52 -2.050453e+51 3.3529306e+51)
(-3.005385e+52 -1.7895919e+51 -1.6735994e+50)
(-3.0072406e+52 -7.3814665e+50 -1.7766246e+50)
(-2.9032931e+52 -7.8651239e+50 3.1019727e+50)
(-2.8094495e+52 -1.7302674e+51 2.1106651e+49)
(-2.7735245e+52 -1.7687212e+51 -2.7539771e+51)
(-2.7304467e+52 -1.2629899e+51 -2.7293684e+51)
(-2.9485154e+52 -6.936772e+50 1.996791e+50)
(-2.8425017e+52 -1.7928654e+51 -1.8626577e+50)
(-2.7846855e+52 -1.5945235e+51 -3.002204e+51)
(-2.7390407e+52 -1.1663768e+51 -2.8921112e+51)
(-3.3816066e+52 -2.6092246e+50 4.8454671e+51)
(-2.8904494e+52 -8.5881886e+50 1.5741963e+51)
(-2.4943744e+52 -1.6397441e+51 7.5002946e+49)
(-2.5635128e+52 -1.5535178e+51 1.4884014e+49)
(-2.8985059e+52 -2.1184483e+51 1.5996393e+51)
(-2.8664894e+52 -1.0517634e+51 1.4967816e+51)
(-2.5152543e+52 -1.6432725e+51 -6.0303781e+48)
(-2.481512e+52 -1.0944448e+51 -1.5573307e+50)
(-3.2134963e+52 -1.0384424e+51 4.8588621e+51)
(-2.7775906e+52 -1.9459694e+51 1.0519478e+51)
(-2.3752121e+52 1.0218182e+51 -4.3542025e+51)
(-2.3543416e+52 -3.1173446e+50 -3.86947e+51)
(-2.5222248e+52 -1.6509399e+51 -6.12114e+50)
(-2.5610156e+52 -1.265419e+51 8.3393403e+50)
(-2.5937757e+52 -1.4497709e+51 4.329494e+50)
(-2.5475718e+52 -1.974354e+51 -1.4894874e+51)
(-2.709744e+52 -1.1554854e+51 7.5613897e+49)
(-2.4829874e+52 -1.6735852e+51 -8.3146736e+50)
(-2.6877684e+52 -4.3223641e+49 3.3882651e+51)
(-2.0332491e+52 1.5084351e+50 -7.0709972e+50)
(-2.6294327e+52 -1.8402855e+51 -1.8679312e+51)
(-2.6479362e+52 -1.5002942e+51 -3.649661e+50)
(-3.2925577e+52 9.3845928e+50 4.9642107e+50)
(-3.46805e+52 1.7239494e+51 1.2672828e+51)
(-3.528908e+52 2.4207952e+51 6.0114451e+50)
(-2.9870659e+52 8.8797226e+50 2.0117579e+49)
(-2.8700253e+52 -5.9293793e+50 3.3237238e+51)
(-2.9220928e+52 -1.0037609e+50 2.373084e+51)
(-3.0061414e+52 3.7689047e+50 2.2122607e+51)
(-2.9725883e+52 1.3287225e+51 3.511819e+51)
(-3.0204605e+52 1.1814462e+51 -4.0334285e+50)
(-3.0333512e+52 1.283489e+51 1.8209844e+51)
(-2.4868173e+52 -8.8385153e+49 2.7224097e+51)
(-2.5317037e+52 9.5472532e+50 8.3394875e+50)
(-2.9371926e+52 -1.0588854e+50 3.042325e+50)
(-2.6762874e+52 -1.3707385e+51 2.4532034e+51)
(-2.8657335e+52 5.4069434e+50 -1.0332586e+51)
(-2.1231081e+52 -1.5634195e+51 9.0291331e+50)
(-2.2057265e+52 -2.2163546e+51 -1.8987136e+50)
(-2.892767e+52 1.0174197e+51 3.8343024e+50)
(-2.8356483e+52 -8.0164175e+50 2.3355781e+51)
(-2.7431198e+52 -5.5498531e+50 1.0270098e+51)
(-2.6998174e+52 3.2548753e+48 3.2894471e+51)
(-3.9013301e+52 -5.0596272e+51 5.6253362e+50)
(-2.671933e+52 -6.1149882e+50 1.5154633e+50)
(-2.7707039e+52 2.6335512e+51 7.7952484e+50)
(-2.0155462e+52 -1.74092e+51 1.9078105e+51)
(-2.00593e+52 -1.6463399e+51 1.1774488e+51)
(-2.766575e+52 3.4016347e+51 1.0147718e+51)
(-2.8705559e+52 -1.076119e+51 1.7375783e+51)
(-2.7479967e+52 -2.9839965e+51 3.0436342e+51)
(-2.6652387e+52 -3.0067665e+51 2.1141149e+51)
(-2.7651012e+52 -1.0916945e+51 1.5788594e+51)
(-2.8854258e+52 -1.0877405e+51 9.7631734e+50)
(-2.6078266e+52 -2.5178825e+51 1.9743727e+51)
(-2.7289333e+52 -1.4420719e+51 1.7093894e+51)
(-2.4760855e+52 -3.041746e+51 1.8607792e+51)
(-2.5448129e+52 -3.6219811e+51 8.871169e+50)
(-2.4934755e+52 -3.9493804e+51 7.9469011e+50)
(-2.6760608e+52 -1.5156537e+51 1.081663e+51)
(-2.6487718e+52 -1.4250045e+51 4.8491601e+50)
(-2.456554e+52 -2.2081972e+51 7.3198887e+50)
(-2.7241234e+52 -9.3474992e+50 1.3030025e+51)
(-2.390909e+52 -2.2901567e+51 9.7401502e+50)
(-2.6840872e+52 -8.7792389e+50 3.9386838e+50)
(-2.728529e+52 -2.325028e+51 3.2339952e+51)
(-2.7949533e+52 -4.8495231e+50 1.8729949e+51)
(-2.6713491e+52 -8.4800222e+50 1.5944492e+51)
(-2.5945772e+52 -2.9594925e+51 2.0913777e+51)
(-2.7242774e+52 -1.1932748e+50 1.7220564e+51)
(-2.6837469e+52 -1.8597164e+51 3.1304559e+51)
(-2.5322116e+52 -2.2198027e+51 1.9511305e+51)
(-2.5831343e+52 -3.0042027e+50 1.5342386e+51)
(-2.5064684e+52 -2.2757269e+49 1.5266699e+51)
(-2.4477535e+52 -2.2939113e+51 8.1625944e+50)
(-2.4888176e+52 -1.4884575e+50 1.3862327e+51)
(-2.4166448e+52 -2.3507125e+51 1.4042785e+51)
(-2.5814792e+52 -1.0626116e+51 1.1683913e+51)
(-2.5466186e+52 -9.2268043e+50 7.8951234e+50)
(-2.5183762e+52 -3.276929e+51 6.7327027e+50)
(-2.467123e+52 -3.2435755e+51 8.4107201e+50)
(-2.1822838e+52 -1.0936091e+51 2.3825648e+51)
(-2.2396378e+52 9.8639332e+49 1.7779906e+51)
(-2.0492983e+52 2.7846376e+50 1.636881e+51)
(-1.9749912e+52 -1.1943201e+51 1.8856072e+51)
(-1.9498017e+52 -3.667478e+50 1.8792701e+51)
(-2.2094863e+52 4.4785955e+50 1.7310169e+51)
(-2.1636454e+52 -4.8178429e+50 2.3604336e+51)
(-2.0243462e+52 6.3057051e+50 1.7927427e+51)
(-1.8700003e+52 -8.3785691e+50 1.3416938e+51)
(-1.970871e+52 4.120182e+50 1.8696806e+51)
(-1.9435068e+52 -3.5842274e+50 1.5466781e+51)
(-2.0190459e+52 4.8248877e+50 1.5682346e+51)
(-1.9467309e+52 -2.0932094e+50 1.9936286e+51)
(-1.8899281e+52 -2.0576335e+50 1.7354323e+51)
(-1.9725928e+52 6.2842219e+50 2.0524282e+51)
(-2.0074993e+52 5.3245322e+50 1.8895814e+51)
(-1.9693341e+52 -3.3761493e+50 2.2708446e+51)
(-1.9766193e+52 -4.1669998e+50 2.0979731e+51)
(-1.9510455e+52 -1.3323503e+51 2.2946901e+51)
(-2.0008018e+52 -3.7930928e+50 2.2588268e+51)
(-2.039011e+52 3.2651644e+50 2.3585308e+51)
(-2.1103276e+52 -2.2829138e+51 8.2136125e+50)
(-2.1755808e+52 -1.1913637e+51 1.2272533e+51)
(-2.3463318e+52 -1.4257182e+51 5.7775503e+50)
(-2.2970047e+52 -2.2698522e+51 -1.7997731e+50)
(-2.2977737e+52 -1.5651248e+51 5.8476335e+50)
(-2.1237986e+52 -1.3648873e+51 1.3274062e+51)
(-2.0787571e+52 -2.1859285e+51 1.1111979e+51)
(-2.2837879e+52 -2.0233297e+51 1.0599864e+50)
(-2.1533999e+52 -2.4464531e+51 4.9647017e+50)
(-2.2075052e+52 -1.3752862e+51 8.7573165e+50)
(-2.3196642e+52 -2.4162872e+51 -4.5853882e+50)
(-2.3581903e+52 -1.5802531e+51 2.7619464e+50)
(-2.2146178e+52 -2.619673e+51 9.6639528e+49)
(-2.3622766e+52 -2.5544946e+51 -7.7939567e+50)
(-2.4038169e+52 -1.6785415e+51 3.9780746e+49)
(-2.2710502e+52 -1.3417507e+51 6.7072643e+50)
(-3.8692541e+52 -2.1774167e+51 -4.1733039e+51)
(-2.6244268e+52 -1.3333785e+51 -2.9068235e+50)
(-2.2893333e+52 3.5480517e+50 7.147592e+50)
(-2.0686811e+52 -1.2239954e+51 4.4658509e+49)
(-2.6453907e+52 1.7880036e+51 4.9179331e+50)
(-2.0004316e+52 -1.3230753e+51 -2.4670311e+50)
(-2.6093798e+52 1.9952146e+50 1.5000266e+51)
(-2.3375867e+52 -2.3016711e+51 -1.1043109e+51)
(-2.5073506e+52 -1.2970261e+51 -4.4879334e+50)
(-2.6490938e+52 -1.3202668e+51 1.8956818e+50)
(-2.4635663e+52 -2.4297355e+51 -7.4483349e+50)
(-2.388382e+52 -2.9534244e+51 -8.3974411e+50)
(-2.4872596e+52 -1.8330578e+51 -3.5822226e+50)
(-2.5993984e+52 -1.9260833e+51 -3.9669764e+50)
(-2.5608156e+52 -2.6872246e+51 -9.4850273e+50)
(-2.3592172e+52 -2.9480816e+51 -5.9253812e+50)
(-2.4191565e+52 -1.9018715e+51 -1.7775484e+50)
(-2.5278581e+52 -1.908483e+51 -3.3503886e+50)
(-2.4890407e+52 -2.7564549e+51 -9.8568395e+50)
(-2.3409281e+52 -1.859538e+51 3.4912309e+49)
(-2.2891035e+52 -2.8831716e+51 -3.7984871e+50)
(-2.4237565e+52 -2.5966609e+51 -8.8366839e+50)
(-2.4507129e+52 -1.9524853e+51 -3.7725394e+50)
(-2.9371549e+52 -7.8839166e+50 2.9942058e+50)
(-2.786927e+52 -1.6427546e+51 -2.8974248e+51)
(-2.7281736e+52 -1.1358809e+51 -3.1349911e+51)
(-2.8443239e+52 -1.9021398e+51 -2.7350674e+50)
(-2.4970699e+52 -8.527364e+50 -2.1807003e+51)
(-2.5102411e+52 -1.3240156e+51 -2.0272504e+51)
(-2.5874914e+52 -8.744839e+50 -3.1522653e+49)
(-2.5555309e+52 -1.2772461e+51 -3.3678367e+50)
(-2.5277704e+52 -1.3695259e+51 -1.8075249e+51)
(-2.5344422e+52 -1.0411729e+51 -2.0135498e+51)
(-2.6082278e+52 -9.6238953e+50 6.8381281e+49)
(-2.6018183e+52 -1.4591945e+51 -1.0309181e+50)
(-2.5342605e+52 -8.8318743e+50 -1.7604388e+51)
(-2.5301827e+52 -1.1584958e+51 -1.6788548e+51)
(-2.6091224e+52 -7.0545608e+50 1.6359391e+49)
(-2.9337183e+52 -7.6301102e+50 1.6426949e+50)
(-2.5115237e+52 -8.8004833e+50 -1.6959787e+51)
(-2.5237777e+52 -1.2039544e+51 -1.6793537e+51)
(-2.8412562e+52 -1.7120049e+51 -1.5252157e+50)
(-2.7392947e+52 -1.1291436e+51 -3.0100894e+51)
(-2.7741097e+52 -1.6513867e+51 -2.9214012e+51)
(-2.9363787e+52 -8.0055544e+50 1.87305e+51)
(-2.5187482e+52 -1.830999e+51 2.467694e+49)
(-2.5140383e+52 -1.4385626e+51 4.545007e+49)
(-3.4349468e+52 -4.0072803e+50 4.8707271e+51)
(-2.8797739e+52 -2.1385476e+51 1.6033852e+51)
(-3.3468461e+52 -1.5109342e+51 4.8967985e+51)
(-2.9337453e+52 -8.6137737e+50 1.7895057e+51)
(-2.5291468e+52 -1.7140394e+51 1.8253893e+49)
(-2.5179162e+52 -1.2989697e+51 -2.2029399e+49)
(-2.8884746e+52 -2.2325039e+51 1.6510039e+51)
(-2.4314493e+52 -7.0854732e+50 -4.5660885e+51)
(-2.4475461e+52 7.1058732e+50 -4.7828563e+51)
(-2.5607172e+52 -1.7365256e+51 -4.3924164e+50)
(-2.5657819e+52 -1.1891925e+51 -3.1214491e+50)
(-2.520433e+52 -1.3936109e+51 -2.0012656e+51)
(-2.5015092e+52 -1.6599756e+51 -2.0124366e+51)
(-2.531642e+52 -1.8467088e+51 -3.9527983e+49)
(-2.5470173e+52 -1.3661307e+51 -1.0297612e+50)
(-2.4954394e+52 -1.915638e+51 -1.8420597e+51)
(-2.5175312e+52 -1.6473741e+51 -1.5824009e+51)
(-2.5372106e+52 -1.5449309e+51 -2.3425175e+51)
(-2.5161345e+52 -1.7758131e+51 -2.4336066e+51)
(-2.6172708e+52 -1.2852044e+51 -2.6585426e+50)
(-2.612685e+52 -1.850894e+51 -3.3182445e+50)
(-2.5325122e+52 -1.7017705e+51 -2.1172749e+51)
(-2.5119888e+52 -2.0012319e+51 -2.3075132e+51)
(-2.5982223e+52 -1.4793196e+51 -3.021365e+50)
(-2.5770921e+52 -1.9667771e+51 -2.740606e+50)
(-2.5882972e+52 -1.4448115e+51 -5.8534138e+50)
(-2.5945744e+52 -9.4076495e+50 -4.1042874e+50)
(-2.1800609e+52 -1.1839063e+51 -1.452453e+51)
(-2.5222135e+52 -1.3737001e+51 -2.1911308e+51)
(-2.5361253e+52 -1.0169687e+51 -2.254897e+51)
(-2.5717097e+52 -1.0293128e+51 -4.4868544e+50)
(-2.5470349e+52 -1.4515906e+51 -5.1922541e+50)
(-2.5006232e+52 -1.1449218e+51 -2.0549868e+51)
(-2.5057749e+52 -1.5350751e+51 -2.1062824e+51)
(-2.5251273e+52 -1.4810501e+51 -2.6848942e+51)
(-2.5413403e+52 -1.1211371e+51 -2.6432674e+51)
(-2.6408262e+52 -9.4529856e+50 -3.6177084e+50)
(-2.6317574e+52 -1.4835885e+51 -5.6930511e+50)
(-2.4887391e+52 -1.2665223e+51 -2.4398667e+51)
(-2.4995712e+52 -1.6256131e+51 -2.5207139e+51)
(-2.6115312e+52 -1.0686058e+51 -1.9043836e+50)
(-2.5843678e+52 -1.6557395e+51 -2.2238603e+50)
(-2.1011064e+52 3.4767984e+49 -1.7151113e+51)
(-2.8800291e+52 -9.1634868e+50 4.1538447e+51)
(-2.8426022e+52 -1.6564561e+51 4.0784506e+51)
(-2.0600997e+52 -1.0273123e+51 -1.6348069e+51)
(-2.502151e+52 -1.1187609e+51 -2.775027e+51)
(-2.4994343e+52 -1.791557e+51 -2.8716106e+51)
(-2.6633392e+52 -1.1320521e+51 -7.7873593e+50)
(-2.6679124e+52 -1.6239055e+51 -8.8942282e+50)
(-2.3338261e+52 -1.7403098e+51 -6.6880088e+50)
(-2.3421325e+52 -1.4724555e+51 -5.7166538e+50)
(-2.6694209e+52 -1.2068522e+51 5.0979373e+50)
(-2.6504798e+52 -1.7492446e+51 4.3175219e+50)
(-2.3904239e+52 -1.9038284e+51 -6.4904051e+50)
(-2.7246191e+52 -1.1323325e+51 7.8228203e+50)
(-2.3957146e+52 -1.5535174e+51 -7.2081349e+50)
(-2.7044468e+52 -2.1286598e+51 6.7390874e+50)
(-2.6257887e+52 -1.1795989e+51 -8.3952184e+50)
(-2.4988082e+52 -1.6500852e+51 -2.6255821e+51)
(-2.595174e+52 -1.7406428e+51 -9.3064909e+50)
(-2.5042434e+52 -1.4812158e+51 -2.4872762e+51)
(-2.5264207e+52 -1.6226205e+51 -2.5618562e+51)
(-2.5208448e+52 -2.1134474e+51 -2.6785537e+51)
(-2.6555659e+52 -2.0186357e+51 -7.5996351e+50)
(-2.6666285e+52 -1.4498894e+51 -6.7520571e+50)
(-2.4089447e+52 -1.7985225e+51 -7.7087636e+50)
(-2.4023255e+52 -2.0879359e+51 -8.4016052e+50)
(-2.7003866e+52 -1.6022043e+51 4.0475209e+50)
(-2.6783476e+52 -2.221051e+51 3.5110862e+50)
(-2.8153921e+52 -5.3002011e+50 3.9694178e+51)
(-2.4144464e+52 -1.5713839e+51 -9.6935427e+50)
(-2.4154953e+52 -2.0901395e+51 -7.2387711e+50)
(-2.6833257e+52 -1.5655333e+51 3.5876898e+50)
(-2.6550085e+52 -1.9711173e+51 -5.097081e+49)
(-2.6645492e+52 -6.1370052e+50 3.8018143e+51)
(-1.9787268e+52 5.9979873e+50 -9.8613813e+50)
(-2.0192661e+52 1.2385145e+51 -1.4082454e+51)
(-2.5475053e+52 -1.6076545e+51 -2.5348604e+51)
(-2.5184158e+52 -2.0532816e+51 -2.5440547e+51)
(-2.6067573e+52 -1.8982458e+51 -9.6351474e+50)
(-2.6309372e+52 -1.5380394e+51 -8.0768984e+50)
(-2.6507194e+52 1.1058789e+51 -6.5796356e+50)
(-2.2399369e+52 -1.8888657e+51 -4.1106129e+50)
(-2.2852712e+52 -1.6546569e+51 4.2560351e+50)
(-2.2227961e+52 -1.9571102e+51 -3.1300299e+50)
(-2.2395955e+52 -1.9079433e+51 3.3907441e+50)
(-2.3041168e+52 -1.7172445e+51 1.4686297e+50)
(-2.2558197e+52 -1.8812066e+51 -6.3851586e+50)
(-2.3339186e+52 -1.8957844e+51 -2.7185943e+50)
(-2.2893139e+52 -2.1544201e+51 -1.2562898e+51)
(-2.5243009e+52 -1.6838156e+51 -5.8833295e+50)
(-2.4355964e+52 -2.0755459e+51 -1.5044964e+51)
(-2.5866996e+52 -6.2277838e+50 2.0517007e+51)
(-2.5129767e+52 -1.6377673e+51 -2.2413256e+50)
(-2.3544862e+52 -2.0276244e+51 -1.0174954e+51)
(-2.0986431e+52 -5.7253517e+50 -1.2033298e+50)
(-2.407825e+52 -1.9782642e+51 -1.3569177e+51)
(-2.4556924e+52 -1.797642e+51 -6.6409586e+50)
(-2.3487356e+52 -2.1250056e+51 -1.4447085e+51)
(-2.3823375e+52 -1.9548767e+51 -6.7343868e+50)
(-2.4412813e+52 1.4777388e+51 2.4343804e+51)
(-3.0837854e+52 -5.748881e+50 -8.7294196e+50)
(-3.3744257e+52 6.1795345e+48 2.0474588e+50)
(-2.5036011e+52 1.7511139e+51 8.08295e+50)
(-3.3112965e+52 3.2181886e+50 -1.4485078e+49)
(-3.4831859e+52 1.2318323e+51 8.8865047e+50)
(-3.5233903e+52 2.1921739e+51 8.333668e+49)
(-3.0463648e+52 1.9561489e+51 -9.431645e+50)
(-2.9776422e+52 5.4277134e+50 3.399402e+51)
(-3.0086884e+52 1.4006834e+50 8.2321427e+50)
(-2.854739e+52 9.0195237e+49 4.4443803e+51)
(-2.65949e+52 -6.4970016e+50 1.9100514e+51)
(-2.9146366e+52 -3.072512e+50 2.774808e+51)
(-2.5934977e+52 -1.6602337e+51 3.8682954e+51)
(-2.9984327e+52 4.6407328e+50 2.583648e+51)
(-2.5447621e+52 -8.2556082e+50 3.1375401e+51)
(-2.5953711e+52 -1.7086017e+49 1.3990413e+51)
(-3.0921905e+52 2.004755e+51 4.0418764e+50)
(-2.4907632e+52 1.4744486e+50 2.8955124e+51)
(-3.0771301e+52 1.4130091e+51 1.5286985e+51)
(-2.4895912e+52 3.7270619e+50 3.3973356e+51)
(-2.5129145e+52 7.433113e+50 1.2463129e+51)
(-2.5428014e+52 1.0575123e+51 6.0689287e+50)
(-2.0580048e+52 4.7968109e+50 1.1407894e+51)
(-2.0233143e+52 -3.6187764e+50 2.0899086e+51)
(-1.9912889e+52 5.754384e+50 1.9637333e+51)
(-2.0203955e+52 9.6430821e+50 1.0807444e+51)
(-2.9168325e+52 -9.6393133e+50 1.0450847e+51)
(-2.606458e+52 -6.7189054e+50 3.2986848e+51)
(-2.7766835e+52 -7.3297832e+50 -1.3219938e+51)
(-2.2311536e+52 -5.4718508e+50 1.2032635e+51)
(-2.4703299e+52 2.3392812e+50 -4.0560937e+50)
(-2.8889494e+52 -6.6723735e+50 4.0673518e+49)
(-2.8412882e+52 -7.3455656e+50 2.6209896e+51)
(-2.6849337e+52 -1.9864421e+51 3.2954002e+51)
(-2.746464e+52 -1.0766579e+51 1.9200789e+51)
(-2.7435805e+52 -8.7144059e+50 1.1452885e+51)
(-2.7397829e+52 -1.7479267e+51 1.3222318e+51)
(-2.5025286e+52 -2.3975022e+51 2.4385187e+51)
(-2.7490006e+52 -1.6213735e+51 4.0837094e+51)
(-3.8061881e+52 -2.5714746e+51 1.1095765e+51)
(-2.6559375e+52 -1.5578062e+51 5.306036e+50)
(-2.302676e+52 4.6691426e+50 2.2413284e+51)
(-2.286082e+52 2.8229068e+50 8.5710926e+50)
(-2.0561524e+52 -1.5480767e+51 5.3428847e+50)
(-2.651337e+52 -4.0750615e+50 -4.3654622e+50)
(-2.6149523e+52 -5.8555373e+49 6.7019751e+50)
(-2.0903143e+52 -1.7646611e+51 2.7566509e+49)
(-1.9933637e+52 -1.76808e+51 1.4959803e+51)
(-2.6550728e+52 1.1374216e+51 6.789468e+50)
(-2.6204694e+52 1.737167e+51 8.9060323e+50)
(-1.9685183e+52 -1.7517124e+51 1.3087594e+51)
(-2.2136528e+52 -4.4328776e+51 4.5958135e+51)
(-2.5382542e+52 -2.2040855e+51 2.3239608e+51)
(-2.4755253e+52 -1.9132394e+51 2.4205527e+51)
(-2.241301e+52 -4.0191155e+51 3.7440413e+51)
(-2.483298e+52 -2.2080877e+51 2.450672e+51)
(-2.4041277e+52 -3.298255e+51 3.27711e+51)
(-2.3409278e+52 -3.1963957e+51 2.3903953e+51)
(-2.4151253e+52 -2.2102787e+51 2.104209e+51)
(-2.4927103e+52 -2.4074906e+51 2.8355801e+51)
(-2.4311437e+52 -1.8476648e+51 1.7849142e+51)
(-2.3865647e+52 -3.760056e+51 1.8405432e+51)
(-2.4547578e+52 -1.5420297e+51 1.5509902e+51)
(-2.3040505e+52 -2.11758e+51 2.0706949e+50)
(-2.2355441e+52 -4.2301175e+51 1.0325907e+51)
(-2.2478156e+52 -1.7403118e+51 -4.443494e+50)
(-2.3280834e+52 -1.3694402e+51 3.1382274e+50)
(-2.1688917e+52 -3.8458848e+51 -9.129773e+50)
(-2.2488138e+52 -3.24355e+51 3.8836139e+50)
(-2.2774206e+52 -3.4010968e+51 1.1476244e+51)
(-2.3338316e+52 -2.2263266e+51 1.1881535e+51)
(-2.2013554e+52 -1.7967049e+51 -3.4891486e+50)
(-2.1155938e+52 -3.2334266e+51 4.0369824e+49)
(-2.0786847e+52 -2.3526581e+51 -7.013368e+50)
(-2.1703214e+52 -1.1675286e+51 -5.2966116e+49)
(-2.2498328e+52 -1.4513374e+51 5.514545e+50)
(-2.1901219e+52 -2.3834555e+51 5.7524319e+50)
(-2.5963114e+52 -2.127777e+51 9.7138595e+50)
(-2.4242117e+52 -3.1955701e+51 1.378447e+51)
(-2.3057119e+52 -3.5317692e+51 1.9769821e+51)
(-2.534975e+52 -1.6801795e+51 1.1459834e+51)
(-2.5583529e+52 -2.6295221e+51 1.5309544e+51)
(-2.4560111e+52 -3.807461e+51 2.2100235e+51)
(-2.3296597e+52 -4.2762819e+51 1.5620482e+51)
(-2.4470302e+52 -2.6556374e+51 9.0130762e+50)
(-2.3170055e+52 -2.9167912e+51 -1.0354404e+51)
(-2.4335458e+52 -1.7106721e+51 -9.5375496e+50)
(-2.2959029e+52 -2.520681e+51 1.0561924e+51)
(-2.4311671e+52 -1.2712355e+51 7.5877717e+50)
(-2.2387575e+52 -4.440135e+51 -1.0325577e+51)
(-2.3734946e+52 -2.3853864e+51 -6.093456e+50)
(-2.4073075e+52 -1.9692079e+51 2.405506e+50)
(-2.2854915e+52 -3.6272655e+51 5.1029833e+50)
(-2.3129598e+52 -2.561518e+51 2.7642362e+51)
(-2.2354345e+52 -1.2575955e+51 1.5135867e+51)
(-2.3723554e+52 -1.2456607e+51 2.0601932e+51)
(-2.1710367e+52 -3.0495212e+51 1.9751592e+51)
(-2.4203284e+52 -1.8651077e+51 2.2742373e+51)
(-2.3216498e+52 -2.1129262e+51 1.9248041e+51)
(-2.3712865e+52 -2.9513139e+51 2.9767269e+51)
(-2.2648215e+52 -3.306913e+51 2.2687773e+51)
(-2.2647834e+52 -2.1691725e+51 2.6302323e+51)
(-2.3208863e+52 -1.0217654e+51 2.0159178e+51)
(-2.1155841e+52 -2.0323031e+51 1.6844763e+51)
(-2.164859e+52 -1.0156858e+51 1.4806619e+51)
(-2.220718e+52 -1.7246892e+51 2.5445164e+51)
(-2.261328e+52 -6.5115496e+50 1.8548928e+51)
(-2.069399e+52 -6.0578633e+50 1.6790669e+51)
(-2.0439427e+52 -1.8412875e+51 1.6585987e+51)
(-1.9083002e+52 -1.473406e+51 8.7581014e+50)
(-1.9588088e+52 -1.5190751e+50 1.3359096e+51)
(-2.0162445e+52 2.129544e+50 1.1677616e+51)
(-1.9328693e+52 -6.732518e+50 1.0840454e+51)
(-1.965537e+52 -2.1415885e+51 5.5922952e+50)
(-2.0270108e+52 -5.8688244e+50 9.9395639e+50)
(-2.0208183e+52 -5.5621552e+49 5.7995458e+50)
(-1.92934e+52 -1.360126e+51 4.6352619e+50)
(-2.0419641e+52 8.2638093e+49 2.1122357e+51)
(-1.9715157e+52 -6.1773503e+50 1.7299301e+51)
(-2.0261244e+52 -6.6322985e+50 1.9230716e+51)
(-1.9675674e+52 -1.569196e+51 2.0120503e+51)
(-2.0532783e+52 -7.4247278e+49 1.7283158e+51)
(-1.9773462e+52 -1.0204985e+51 1.2697881e+51)
(-2.0600028e+52 -8.4990041e+50 1.6645782e+51)
(-2.0024438e+52 -1.9205194e+51 1.6785334e+51)
(-2.0443113e+52 -2.936535e+51 6.5169469e+50)
(-1.9551277e+52 -2.0868396e+51 -4.9302386e+49)
(-2.0864714e+52 -1.5135489e+51 7.887068e+50)
(-2.0388366e+52 -7.217808e+50 2.3205484e+49)
(-1.9835541e+52 -1.3955946e+51 5.6317997e+50)
(-2.0473352e+52 -2.1643211e+51 1.3295676e+51)
(-2.1024749e+52 -1.038905e+51 1.3273046e+51)
(-2.0694519e+52 -3.2202492e+50 1.2759842e+51)
(-2.1472407e+52 -3.4093827e+51 9.2516873e+50)
(-2.2284815e+52 -1.8450657e+51 9.7605335e+50)
(-2.0221268e+52 -2.6504022e+51 -2.913842e+50)
(-2.1189884e+52 -1.1893399e+51 -3.3458235e+50)
(-2.10828e+52 -8.1222224e+50 5.3641161e+50)
(-2.0254599e+52 -1.949646e+51 -1.0405671e+50)
(-2.1650999e+52 -1.4313482e+51 9.3450579e+50)
(-2.1163171e+52 -2.2592632e+51 9.2213956e+50)
(-1.597653e+52 -2.5496243e+49 1.8012276e+51)
(-1.7308065e+52 2.7958299e+49 2.1242676e+51)
(-1.6724962e+52 -4.8162316e+50 2.4279046e+51)
(-1.5270613e+52 -1.6779525e+49 1.9403181e+51)
(-1.730983e+52 -3.960912e+50 1.6095845e+51)
(-1.7010851e+52 -9.0184323e+50 2.3057117e+51)
(-1.547111e+52 -9.2525394e+50 1.86026e+51)
(-1.6920666e+52 -8.0477554e+50 1.2617216e+51)
(-1.5318751e+52 -4.5175917e+50 2.04183e+51)
(-1.6912048e+52 -2.0447718e+50 2.3931347e+51)
(-1.7249254e+52 3.6997499e+50 2.1167711e+51)
(-1.5867689e+52 1.8553817e+49 2.0142201e+51)
(-1.6715206e+52 9.598619e+49 2.4613667e+51)
(-1.7097987e+52 6.6064275e+50 2.1277628e+51)
(-1.5904706e+52 2.5274675e+50 2.1775767e+51)
(-1.5225881e+52 -3.1758902e+50 2.2531159e+51)
(-1.5012994e+52 -6.5615975e+50 2.2028032e+51)
(-1.3481813e+52 -1.1044349e+51 2.0594723e+51)
(-1.4716303e+52 -6.3026884e+50 1.8086172e+51)
(-1.5551728e+52 -1.4649553e+50 1.6899478e+51)
(-1.5897313e+52 6.8236375e+49 1.8049863e+51)
(-1.5530877e+52 -1.5768381e+50 1.7549797e+51)
(-1.5247751e+52 -4.2443767e+50 1.9878597e+51)
(-1.4788537e+52 -5.9743004e+50 1.9862047e+51)
(-1.6212695e+52 2.765881e+49 1.8982341e+51)
(-1.6727127e+52 4.4752188e+50 2.00715e+51)
(-1.699682e+52 4.9937303e+50 1.9138502e+51)
(-1.6605705e+52 1.5722543e+50 2.0375481e+51)
(-1.6987468e+52 4.855441e+50 2.0009456e+51)
(-1.6820692e+52 4.8790788e+50 2.185484e+51)
(-1.6655589e+52 1.939115e+50 2.1350183e+51)
(-1.6362161e+52 1.6738588e+50 2.0734223e+51)
(-1.6558677e+52 2.6696919e+50 2.2100929e+51)
(-1.6922548e+52 6.3348445e+50 2.3231783e+51)
(-1.7041814e+52 5.639322e+50 2.1329881e+51)
(-1.6731543e+52 2.0662726e+50 2.2325626e+51)
(-1.5652676e+52 -1.8799251e+50 2.0677705e+51)
(-1.5262297e+52 -3.7935679e+50 1.8324244e+51)
(-1.5972942e+52 2.1410495e+50 2.0062483e+51)
(-1.6152514e+52 2.8004136e+50 1.9943145e+51)
(-1.5811642e+52 -4.5663451e+49 2.2674949e+51)
(-1.5559398e+52 -7.0187117e+49 2.0547642e+51)
(-1.6188537e+52 4.85187e+50 2.1627479e+51)
(-1.6317603e+52 4.4090579e+50 2.1193137e+51)
(-1.697521e+52 6.788383e+50 2.4461561e+51)
(-1.6593056e+52 3.2642538e+50 2.3320717e+51)
(-1.6723603e+52 2.2229347e+50 2.3660088e+51)
(-1.7049931e+52 5.9212377e+50 2.2255941e+51)
(-1.7096299e+52 2.7975346e+50 2.4119821e+51)
(-1.7384305e+52 6.3702671e+50 2.5355298e+51)
(-1.7216226e+52 4.9311308e+50 2.2188943e+51)
(-1.6863386e+52 9.9334053e+49 2.2621382e+51)
(-1.7034323e+52 2.9929313e+50 2.2749436e+51)
(-1.7390411e+52 5.6228659e+50 2.3509383e+51)
(-1.7260675e+52 5.2854746e+50 2.0511158e+51)
(-1.6857976e+52 1.8934082e+50 2.1809363e+51)
(-1.6587641e+52 -1.9125408e+49 2.6496415e+51)
(-1.6963889e+52 3.6727883e+50 2.7937377e+51)
(-1.5919833e+52 -2.3535041e+51 2.1715198e+51)
(-1.5735931e+52 -2.6980936e+51 1.8004515e+51)
(-1.5532836e+52 -1.1120096e+51 1.8003472e+51)
(-1.6678573e+52 3.4692393e+50 2.5470535e+51)
(-1.5713772e+52 -2.8731928e+51 2.1920762e+51)
(-1.6498549e+52 1.7525447e+50 2.7695166e+51)
(-1.7196855e+52 4.4389831e+50 2.020387e+51)
(-1.7346795e+52 4.9667039e+50 2.4055948e+51)
(-1.6852834e+52 2.1466086e+50 2.1386373e+51)
(-1.7039061e+52 2.8676413e+50 2.3139331e+51)
(-1.8744935e+52 -2.444326e+51 8.5126831e+50)
(-1.8445018e+52 -2.3301166e+51 9.9644552e+50)
(-1.7886186e+52 -2.4642587e+51 1.0964841e+51)
(-1.8205862e+52 -2.4189508e+51 1.0577356e+51)
(-1.5228027e+52 -2.5702625e+51 1.1114498e+51)
(-1.5277323e+52 -2.7864267e+51 6.6128468e+50)
(-1.4754292e+52 -2.201571e+51 1.9685955e+51)
(-1.9541856e+52 -2.2727924e+51 6.5065813e+50)
(-1.9115816e+52 -2.2764266e+51 8.1517613e+50)
(-2.0406841e+52 -2.2569064e+51 2.7807006e+50)
(-1.9863088e+52 -2.0656919e+51 6.1958439e+50)
(-3.8439448e+52 -1.2176519e+51 -4.5729706e+51)
(-2.273571e+52 1.0911688e+51 2.3698631e+50)
(-2.1990749e+52 -7.6784544e+49 4.0778077e+50)
(-2.2391824e+52 -5.5109772e+49 8.3940076e+49)
(-2.0909384e+52 -1.6678019e+51 -8.5906916e+50)
(-2.4543782e+52 -2.8250846e+49 -6.0959332e+50)
(-2.5022327e+52 -7.9957203e+50 4.9874854e+50)
(-2.0418422e+52 -1.9862213e+51 -9.6333851e+50)
(-2.2570007e+52 -1.4828777e+51 -8.3699281e+50)
(-2.2834542e+52 -1.6931382e+51 -1.2194577e+51)
(-2.2841794e+52 -1.7909223e+51 -1.0068667e+51)
(-2.2586117e+52 -1.9091097e+51 -8.0298095e+50)
(-2.227532e+52 -2.0178938e+51 -5.3712878e+50)
(-2.1936185e+52 -2.0032742e+51 -3.1690606e+50)
(-2.0855977e+52 -2.1781303e+51 7.2323887e+49)
(-2.1430568e+52 -2.0782031e+51 -1.2067282e+50)
(-2.5168453e+52 -1.0782425e+51 -1.6719029e+51)
(-2.5230844e+52 -9.4352166e+50 -2.287195e+51)
(-2.525113e+52 -1.3330342e+51 -1.7157276e+51)
(-2.6005836e+52 -9.4433356e+50 -1.8731303e+50)
(-2.5851893e+52 -1.5135447e+51 -5.3099705e+50)
(-2.6327283e+52 -8.7544006e+50 4.6392265e+49)
(-2.4930046e+52 -1.3893468e+51 -2.0090452e+51)
(-2.4981785e+52 -1.0710022e+51 -2.6817457e+51)
(-2.6062873e+52 -1.4689718e+51 -4.9161387e+50)
(-2.4739237e+52 -1.0090404e+51 -2.6860498e+51)
(-2.4975754e+52 -1.4665437e+51 -2.5134427e+51)
(-2.6129916e+52 -9.3886754e+50 -1.8727304e+50)
(-2.5699264e+52 -1.4558088e+51 -6.8857439e+50)
(-2.568269e+52 -9.4298806e+50 -7.7566169e+50)
(-2.5142187e+52 -1.3906215e+51 -2.2064944e+51)
(-2.4992209e+52 -9.0892732e+50 -2.3339751e+51)
(-2.53649e+52 -1.2817956e+51 -9.7231134e+50)
(-2.2001448e+52 -7.8517596e+50 -1.7807168e+50)
(-2.192584e+52 -9.8217644e+50 -4.0732861e+50)
(-2.173337e+52 -8.3143722e+50 -1.7086571e+51)
(-2.1686035e+52 -1.0796672e+51 -1.6132713e+51)
(-2.2101962e+52 -9.0486857e+50 -1.7514447e+50)
(-2.2122898e+52 -1.1566884e+51 -2.5467566e+50)
(-2.1878148e+52 -9.730715e+50 -1.6825721e+51)
(-2.177407e+52 -1.169569e+51 -1.4935203e+51)
(-2.1154292e+52 -1.0877359e+51 -1.035166e+51)