/*--------------------------------*- C++ -*----------------------------------*\
  =========                 |
  \\      /  F ield         | OpenFOAM: The Open Source CFD Toolbox
   \\    /   O peration     | Website:  https://openfoam.org
    \\  /    A nd           | Version:  7
     \\/     M anipulation  |
\*---------------------------------------------------------------------------*/
FoamFile
{
    version     2.0;
    format      ascii;
    class       surfaceScalarField;
    location    "7000";
    object      phi;
}
// * * * * * * * * * * * * * * * * * * * * * * * * * * * * * * * * * * * * * //

dimensions      [0 3 -1 0 0 0 0];

internalField   nonuniform List<scalar> 
101838
(
1.2363222e+38
-1.1553774e+39
-1.2242755e+39
-1.1376254e+39
-1.2458679e+39
-1.1429941e+39
-9.745833e+38
-1.1101802e+39
-9.5321547e+38
-1.8129607e+38
9.2787955e+37
9.1303154e+37
-2.3376412e+38
-2.3535418e+38
-2.9404067e+38
-2.8296338e+38
1.2441234e+37
-1.0302534e+39
-1.8149213e+38
9.9685094e+37
-2.359612e+38
-2.4736379e+38
-2.931537e+38
-3.0736731e+38
-1.0665515e+39
-8.001709e+36
-6.923515e+37
6.1353628e+37
-7.0355545e+37
5.8117369e+37
-1.3250498e+39
2.2890455e+37
9.2474718e+37
8.736089e+37
-1.3353e+39
-3.0833352e+37
-3.1399677e+37
9.1896355e+37
9.5367879e+37
-1.364538e+39
-2.9679966e+37
-3.1591648e+37
6.6383237e+37
9.8500443e+37
-1.3880029e+38
-2.5121548e+38
-2.8154924e+38
-2.75499e+38
-2.4663534e+38
8.165754e+37
-2.2232987e+38
-2.2485203e+38
-1.7934917e+38
-1.7653575e+38
6.55788e+37
-1.4296678e+38
-2.8910008e+38
-2.7766189e+38
-2.4823138e+38
-2.5800154e+38
-2.2263391e+38
-2.3340725e+38
-1.7993558e+38
-1.8795129e+38
1.6715342e+37
-3.7840927e+37
2.3803325e+37
-6.0489817e+37
-4.8333186e+37
-6.3667943e+37
-3.7697422e+37
1.7877506e+37
2.5288031e+37
-4.7728139e+37
-6.182757e+37
-4.9846189e+37
-6.4704979e+37
-8.6298346e+36
9.7519406e+36
-2.4038542e+38
-2.3310521e+38
-1.1153613e+37
-3.965739e+37
2.7033701e+37
-6.2972214e+37
-5.0650603e+37
-6.6257564e+37
-3.9638326e+37
2.5944528e+37
-4.9502123e+37
-4.904354e+37
-6.5307101e+37
-6.3093273e+37
-3.1289569e+36
-2.4331727e+38
-2.4501475e+38
-1.0442667e+39
-9.5599261e+35
7.4895371e+37
7.8425718e+37
-6.1879183e+37
-6.1986283e+37
1.0285087e+36
-7.1570392e+37
-7.0196627e+37
6.182799e+37
5.9280194e+37
-1.3335371e+39
1.0337729e+39
6.266579e+37
-7.0907088e+37
-6.7444775e+37
6.2191007e+37
-1.3287663e+39
7.6224937e+37
7.4266968e+37
-5.8296107e+37
-5.9630119e+37
-1.8549234e+36
2.2084298e+38
1.4998148e+35
-1.5787655e+37
-1.5487254e+37
1.1171727e+37
-2.7986824e+38
1.1598282e+37
-2.2473693e+38
1.2596666e+36
-1.510925e+37
-1.5707292e+37
1.2155289e+37
-1.5229234e+37
-1.5900272e+37
1.1617319e+37
1.1772645e+37
-2.8863536e+38
-3.0447203e+34
-1.5535188e+37
-1.5278306e+37
1.1303019e+37
1.1830689e+37
1.0940951e+37
-1.0165574e+39
-2.0032006e+37
5.1136554e+37
5.772235e+37
-7.8078732e+37
-7.5936225e+37
-1.0178922e+39
-7.9017949e+37
5.228931e+37
1.3864328e+37
-2.3501704e+37
-1.3077749e+39
-6.4659391e+37
5.089739e+37
5.4665268e+37
-6.5279632e+37
-1.3095814e+39
-6.5711254e+37
5.0032636e+37
5.899853e+36
1.8638287e+37
2.0321448e+37
-2.9129796e+38
-5.6252348e+36
7.1392221e+36
1.9476253e+37
1.983116e+37
-3.0000354e+38
-5.8064949e+36
-6.5217887e+36
-5.9289692e+36
2.0156787e+37
2.0889939e+37
-3.0007619e+38
-6.0851929e+36
2.0740436e+37
1.9666077e+37
-3.0378473e+38
-5.9918153e+36
-6.0260813e+36
-4.2969298e+37
-1.2023817e+39
-1.1863653e+39
-3.3647534e+37
-1.0011046e+37
3.6961955e+37
9.4020576e+36
-2.5392091e+38
-9.2240332e+36
1.0190958e+37
-8.6375757e+37
-2.2978792e+38
3.4316922e+37
-8.3889981e+37
-2.2677627e+38
3.5248586e+37
-2.4929833e+38
1.5282929e+37
1.2972803e+37
-5.4521852e+37
-5.59998e+37
-4.5175114e+37
-4.4372126e+37
1.3095883e+37
1.7129769e+37
-5.701185e+37
-5.5189017e+37
-4.4546952e+37
-4.6084963e+37
-1.3089367e+37
1.533866e+37
-3.9413342e+37
-3.3566536e+37
-3.2396483e+37
-3.7838119e+37
-3.8176585e+37
-3.7674016e+37
-3.2273722e+37
4.8804438e+36
3.543403e+37
-8.6877845e+37
-2.3234577e+38
3.3320057e+37
-8.5280078e+37
-2.3125229e+38
-4.8372091e+36
3.6357525e+37
-2.5501116e+38
3.6043597e+37
-2.5404625e+38
-1.0380972e+37
1.2402987e+37
-5.7402148e+37
-5.5437627e+37
-4.4750669e+37
-4.6315579e+37
1.2544828e+37
-4.5825237e+37
-5.6816024e+37
-5.5490108e+37
-4.502829e+37
-9.5473628e+36
-3.7898175e+37
-3.9570147e+37
-3.4222127e+37
-3.8514373e+37
-3.8925393e+37
-3.3345135e+37
-3.2885723e+37
2.075638e+36
-8.1008304e+36
3.0767066e+36
6.8484612e+36
-9.8774647e+36
-1.025536e+37
-1.3892234e+37
-1.3275929e+37
2.4553894e+36
-5.1827072e+37
-8.2189393e+36
-1.8421508e+36
2.6850451e+36
7.0303579e+36
-9.914367e+36
-1.0355544e+37
-1.3184019e+37
-1.3928501e+37
-1.0733215e+36
1.886408e+36
-5.1383336e+37
-8.2139321e+36
6.8543408e+36
-1.3774833e+37
-1.0143299e+37
-1.0017982e+37
-1.331592e+37
-5.170568e+37
-5.1853384e+35
-8.5681705e+36
-2.4138423e+36
7.0398905e+36
-1.0334153e+37
-1.0177192e+37
-1.4015026e+37
-1.3536046e+37
-1.5656802e+36
-5.288864e+37
-2.639879e+36
-8.2715542e+36
7.0506138e+36
-1.0084023e+37
-1.0419216e+37
-1.3476459e+37
-1.407543e+37
-8.3799311e+36
6.8186359e+36
-1.0228965e+37
-1.0062701e+37
-1.3872676e+37
-1.3272725e+37
-1.5999643e+36
-5.280393e+37
-5.152068e+37
-1.6369251e+36
-2.358695e+38
-1.1183925e+37
1.8289734e+37
-2.3747957e+38
-2.5669016e+36
-1.1218495e+37
-1.1565221e+37
1.7626137e+37
1.8208155e+37
-1.6328344e+36
-2.949474e+38
1.4659068e+37
-1.4328498e+37
-2.9802224e+38
-2.9783398e+36
-1.4078902e+37
-1.4630235e+37
1.4460006e+37
1.4151072e+37
1.6489503e+36
2.2865676e+38
-1.1621949e+36
-1.5593542e+37
-1.6214487e+37
1.1912415e+37
1.1741654e+37
-2.9255994e+38
2.2548856e+38
-1.5766194e+37
-1.5966514e+37
1.1871414e+37
-2.8425518e+38
1.1230668e+36
-1.2224904e+36
-1.5378321e+37
-1.6012776e+37
1.2074304e+37
1.1878777e+37
-1.5674819e+37
1.2272393e+37
1.0276523e+37
-1.0165505e+39
5.8484388e+37
5.193205e+37
-7.6597753e+37
-7.8461142e+37
-2.2695799e+38
-2.2686458e+36
2.9740019e+38
1.1917913e+37
-1.5540601e+37
-1.5623632e+37
1.2516109e+37
-2.2586153e+36
-1.5816068e+37
1.181348e+37
1.1314412e+37
-1.6112727e+37
-2.8796775e+38
2.2401366e+38
-1.5300768e+37
-1.5955684e+37
1.1965944e+37
-2.8592542e+38
1.1648865e+37
2.9031435e+38
-1.4877094e+37
1.1909228e+37
-1.5601137e+37
1.2160251e+37
-1.0179752e+39
5.4894117e+37
5.8240214e+37
-7.909461e+37
-7.386793e+37
-2.3349777e+36
-2.3615241e+38
-1.1554947e+37
-1.111259e+37
1.7447949e+37
1.73615e+37
-2.3038908e+38
1.7934757e+37
-1.0949681e+37
-1.1228134e+37
1.6946889e+37
2.0815812e+36
1.4178073e+37
-1.430136e+37
-1.3612367e+37
1.3826846e+37
1.4220689e+37
-1.4227426e+37
-1.3681072e+37
1.4408726e+37
1.3389662e+37
-1.3001479e+39
-6.3349409e+37
5.1994002e+37
5.5822382e+37
-6.3927612e+37
-1.3059951e+39
-6.5089761e+37
5.4034722e+37
5.4960655e+37
-6.2119749e+37
-2.8006121e+34
4.8470874e+37
5.2322554e+34
2.1973437e+36
2.1179412e+36
-6.1295027e+37
-3.6085039e+36
-3.6945917e+36
4.8147938e+37
-3.9517364e+35
2.1669688e+36
2.2672965e+36
-6.04778e+37
-3.6310792e+36
-3.5934022e+36
-3.6522472e+34
6.1296384e+37
-2.5409375e+35
-3.2377326e+36
2.3799993e+36
-3.3093991e+36
2.4810383e+36
-1.3613465e+36
-2.1548246e+38
-1.2666339e+35
1.1152106e+37
1.0516549e+37
-1.6918311e+37
-1.6511531e+37
-6.6383105e+34
6.2049814e+37
-3.3983578e+36
2.4012825e+36
-3.2960529e+36
2.3423391e+36
-4.8840539e+34
-6.1016801e+37
-3.272871e+36
-3.1660113e+36
2.4161185e+36
2.3261964e+36
4.8326542e+37
-6.2340948e+37
-5.4505024e+34
-3.206866e+36
2.3595062e+36
-3.2705956e+36
2.4307453e+36
2.0170927e+35
-3.1152818e+36
2.4303405e+36
-3.1892122e+36
2.4863914e+36
-2.0230002e+35
4.7858194e+37
5.7539736e+35
2.2037999e+36
2.1133022e+36
-6.054709e+37
-3.5692788e+36
-3.6612542e+36
4.8732247e+37
2.1472943e+36
2.2196988e+36
-6.1869147e+37
-3.6797612e+36
-3.6005774e+36
8.087159e+33
3.4295273e+35
-3.3635922e+36
2.4038165e+36
-3.254117e+36
2.3215709e+36
-3.3026501e+36
2.3325883e+36
-3.3540302e+36
2.4297424e+36
-2.2128239e+38
-1.0171987e+36
1.1405e+37
1.150149e+37
-1.6754216e+37
-1.6127009e+37
7.5855685e+34
4.8067777e+37
-3.284036e+36
2.4149926e+36
-3.1742873e+36
2.3598279e+36
4.7793543e+37
-2.5153227e+35
-3.1331193e+36
2.406113e+36
-3.209461e+36
2.4883977e+36
-3.3661866e+34
6.0650535e+37
-2.2512454e+35
-3.0817392e+36
2.4299779e+36
-3.1564849e+36
2.5130701e+36
-3.2144455e+36
2.4726614e+36
-3.1242122e+36
2.4029453e+36
-2.7656837e+36
-2.8008325e+38
2.1601091e+36
-1.7760045e+37
-1.6912065e+37
1.1191498e+37
1.0608298e+37
-2.85953e+36
-2.8733895e+38
-1.6830425e+37
-1.6337253e+37
1.2114417e+37
1.1267477e+37
2.1379833e+38
-2.7695877e+38
-1.8146644e+37
-1.7837037e+37
9.6679507e+36
1.0169685e+37
9.5559509e+36
-1.7068445e+37
1.0145341e+37
-1.7249918e+37
4.742089e+37
-6.0057719e+37
2.0219295e+36
2.1135306e+36
-3.7612473e+36
-3.6301404e+36
-3.2999195e+36
2.2378058e+36
-3.363609e+36
1.2770591e+35
-2.8842617e+36
2.6099388e+36
-2.9931496e+36
3.0611133e+37
-1.0386821e+39
-4.2859378e+37
6.0296561e+37
5.6209887e+37
-6.461577e+37
-6.4017114e+37
2.1498933e+38
-5.0288841e+36
3.3647307e+36
-2.7141463e+38
-1.5651708e+37
-1.457604e+37
1.1757331e+37
1.1900531e+37
-4.4934729e+36
4.3361643e+36
1.0563479e+37
-1.7292763e+37
-1.8094757e+37
1.0784833e+37
-2.1990948e+38
-5.4940235e+36
1.2048728e+37
-1.761708e+37
-1.7484323e+37
1.1289079e+37
-5.0975172e+36
-2.787668e+38
-1.5295736e+37
-1.5067661e+37
1.1630628e+37
1.2379153e+37
-1.0375241e+39
-6.9336451e+37
5.6097991e+37
-5.9085852e+37
2.1316811e+38
-2.7384817e+38
-1.5927187e+37
-1.4992271e+37
1.0802622e+37
1.0961129e+37
-1.7922587e+37
-1.8491408e+37
9.909184e+36
1.0267134e+37
6.6201343e+37
-1.1708178e+39
-9.3739597e+37
-1.8186455e+38
-1.1999977e+39
-1.7306137e+38
1.837212e+36
4.3666255e+36
4.3259875e+36
-6.4070011e+37
-1.0960913e+36
-1.28859e+36
-1.4838238e+36
1.4237799e+36
4.2980075e+36
4.4383175e+36
-6.3566128e+37
-1.0586882e+36
-1.2412823e+36
4.4525769e+36
4.1693224e+36
-6.408331e+37
-1.1695213e+36
-1.2431448e+36
-1.2648159e+36
4.5616371e+36
4.354156e+36
-6.5444141e+37
-1.1649148e+36
-1.1730491e+36
-1.225395e+36
4.3304645e+36
4.4430893e+36
-6.5156757e+37
-1.1550759e+36
-1.2968783e+36
4.5098345e+36
4.2030691e+36
-6.3721216e+37
-1.1546025e+36
-1.1854569e+36
-4.7298859e+37
-3.270496e+37
-2.9954885e+37
-1.2121731e+39
-2.9426225e+37
-3.0678301e+37
-1.2077275e+39
-3.2578798e+37
-8.7104498e+36
2.0008647e+37
1.9624137e+37
6.7901175e+36
-2.548356e+38
-2.1932504e+36
-2.0256854e+36
-9.0021462e+36
9.9334807e+36
-2.9272426e+38
3.3399499e+37
-2.9168687e+38
1.9063278e+37
1.9711926e+37
-2.5335837e+38
-2.0701882e+36
-2.2999934e+36
1.7135617e+36
9.5389373e+36
-4.5122172e+37
9.3841242e+36
1.7619545e+36
-4.5720389e+37
-1.7602323e+36
1.5247082e+36
9.0510935e+36
-4.4606536e+37
8.9127223e+36
-4.4068371e+37
6.3237142e+35
9.8566985e+36
-4.573032e+37
9.6088329e+36
1.4900853e+36
-4.6031426e+37
-7.8479759e+35
9.1685209e+36
1.3763686e+36
-4.4698207e+37
9.0900991e+36
-4.4578448e+37
1.3903831e+36
1.6298899e+36
-2.577682e+36
-8.8777901e+36
-8.6028993e+36
-6.6828181e+36
-6.6023062e+36
1.4783746e+36
-2.4377001e+36
-6.0191068e+36
-5.8854183e+36
-6.3136368e+36
-6.1443045e+36
-1.3514872e+36
2.2331991e+36
-5.8980553e+36
-6.1603368e+36
-6.2293911e+36
-6.4816684e+36
2.475745e+36
-6.4960726e+36
-8.8967864e+36
-8.6574717e+36
-6.8166047e+36
-2.4376997e+36
1.428116e+36
-8.6179891e+36
-8.8368467e+36
-6.4759893e+36
-6.7627383e+36
-8.8202564e+36
-8.524831e+36
-6.6057362e+36
-5.8073126e+36
-6.0205293e+36
-6.3159776e+36
-6.1333484e+36
9.3641899e+36
3.3745478e+37
-2.9822692e+38
3.2053565e+37
-2.9471213e+38
-8.0346121e+36
2.0141125e+37
1.9581048e+37
-2.5629675e+38
-2.1621718e+36
-2.3430831e+36
1.9741169e+37
1.9295855e+37
-2.5576872e+38
-2.4965547e+36
-2.3170117e+36
1.9383388e+35
9.8990267e+36
-1.090219e+36
-4.6263649e+37
9.5822595e+36
-4.6291642e+37
-3.0239552e+35
9.1038498e+36
-4.487858e+37
-9.5630807e+35
9.0310241e+36
-4.4793648e+37
-9.4032983e+36
-1.449466e+36
9.0230403e+36
-4.4951813e+37
-1.3605942e+36
-4.6207777e+37
9.670745e+36
-4.5735507e+37
8.9703398e+36
-4.4400978e+37
-1.041192e+36
-8.8933885e+36
-8.6998827e+36
-6.7538808e+36
1.3202604e+36
-2.0238037e+36
-6.7208965e+36
-6.6332609e+36
-8.6117504e+36
-8.9108507e+36
-1.9557216e+36
-6.141325e+36
-6.0323501e+36
-6.4662224e+36
-6.3337653e+36
2.2632478e+36
1.3654043e+36
-6.6768729e+36
-6.5732528e+36
-8.5623462e+36
-8.8844589e+36
1.3026727e+36
-6.5571004e+36
-6.8099064e+36
-8.8955266e+36
-8.7030414e+36
-2.0451544e+36
-5.9668006e+36
-6.1576851e+36
-6.3157874e+36
-6.462137e+36
-6.0472243e+36
-5.9148057e+36
-6.3534265e+36
-6.1981802e+36
-3.2841257e+35
-1.8550444e+36
5.0679477e+35
2.0887154e+36
-2.1106735e+36
-2.0141301e+36
-2.9954794e+36
-3.1692317e+36
-1.8306131e+36
2.0176613e+36
-2.0287221e+36
-2.0439812e+36
-3.1192536e+36
-3.0224417e+36
2.4571078e+35
-1.1089773e+37
4.4690643e+35
-1.1006181e+37
-2.238879e+35
-1.8760283e+36
4.1682698e+35
2.1016145e+36
-2.1248732e+36
-2.0360369e+36
-3.0057986e+36
-3.1661802e+36
-1.8858015e+36
-4.6394278e+35
2.1118435e+36
-2.055457e+36
-2.081694e+36
-3.154754e+36
-3.0496249e+36
-1.4845218e+35
3.534298e+35
-1.0967016e+37
-3.8570156e+35
-1.1138735e+37
1.8258131e+36
-3.7549634e+35
-1.1158274e+37
-5.1843979e+35
2.0922223e+36
-2.1179654e+36
-2.028906e+36
-3.0373807e+36
-3.1709586e+36
-1.8283287e+36
1.9757303e+36
-2.0239009e+36
-2.0470592e+36
-3.1174102e+36
-2.9886572e+36
-1.0903516e+37
-3.7657928e+35
-1.8738547e+36
2.1124283e+36
-2.1492327e+36
-2.076055e+36
-3.074044e+36
-3.201537e+36
-1.9084978e+36
-3.5471328e+35
2.0754779e+36
-2.0609994e+36
-2.1015368e+36
-3.172197e+36
-3.0313028e+36
-2.4901431e+35
-1.1315698e+37
-2.5612878e+35
-1.1083272e+37
-2.4422667e+35
-1.8710985e+36
2.1253385e+36
-2.1437473e+36
-2.0556179e+36
-3.0433516e+36
-3.2060314e+36
-1.8776529e+36
-4.7527735e+35
2.0844083e+36
-2.0675611e+36
-2.0899782e+36
-3.1717643e+36
-3.0656153e+36
-1.2786263e+35
-1.1145359e+37
-3.7580634e+35
-1.1262049e+37
-5.0036112e+35
-1.8494268e+36
2.087063e+36
-2.1391084e+36
-2.0532207e+36
-3.0600737e+36
-3.1891117e+36
-1.8497958e+36
1.9881766e+36
-2.051144e+36
-2.081202e+36
-3.1437286e+36
-3.0085398e+36
-3.6005394e+35
-1.122802e+37
-1.0926075e+37
1.0048075e+39
1.0467535e+39
-2.4685224e+38
-3.3947587e+38
5.0962321e+37
-7.3610565e+35
-6.3991965e+37
-2.5656852e+36
3.5481936e+36
-2.4963341e+36
3.4360555e+36
-9.0438376e+35
-2.04117e+36
4.0738663e+36
-2.0164271e+36
3.9409868e+36
6.1149507e+35
4.993896e+37
-6.2714866e+37
-7.7194655e+35
-2.5769288e+36
-2.5122957e+36
3.4839043e+36
3.323198e+36
5.0736064e+37
-6.4048991e+37
-2.5390583e+36
-2.6416882e+36
3.3860919e+36
3.41776e+36
8.8568708e+35
-9.2926347e+35
-2.0156834e+36
4.0479786e+36
-1.9992742e+36
3.8544431e+36
-1.9941658e+36
-2.1091272e+36
3.9171256e+36
3.9549331e+36
-4.9299728e+37
-3.322748e+35
-2.9365716e+36
-2.8485783e+36
2.9961651e+36
2.9106477e+36
-8.9577453e+34
-6.2837421e+37
-3.0849498e+36
-2.9784202e+36
2.7061408e+36
2.6324552e+36
2.4313875e+35
4.8596468e+37
-6.1635874e+37
-4.7982514e+35
-2.9801273e+36
-3.0761448e+36
2.6834257e+36
2.570063e+36
4.9450489e+37
-6.308647e+37
-3.0295121e+36
-3.0885594e+36
2.6027793e+36
2.6746123e+36
-4.4139778e+35
-2.8743603e+36
-2.9429943e+36
2.8567083e+36
2.9312802e+36
-4.5509107e+35
-2.9114682e+36
-2.833218e+36
2.9623953e+36
2.8286639e+36
-1.8453733e+35
4.8676616e+37
3.3030941e+35
2.1965904e+36
2.1334316e+36
-6.1357446e+37
-3.6211877e+36
-3.7673211e+36
4.9559198e+37
-2.0384947e+35
2.1473353e+36
2.2946984e+36
-6.2836657e+37
-3.6600031e+36
-3.6997457e+36
-8.9208487e+33
-8.5943149e+34
6.3444144e+37
-3.3460613e+36
2.368571e+36
-3.3909323e+36
2.4907677e+36
6.2110018e+37
1.7807246e+35
-3.4051882e+36
2.4511346e+36
-3.2955898e+36
2.3709064e+36
9.212772e+35
-2.2376219e+38
-6.170636e+35
1.1434487e+37
1.150178e+37
-1.7112874e+37
-1.6440971e+37
2.2692637e+35
2.3261796e+36
-6.1535928e+37
-3.6460544e+36
-3.6556548e+36
4.9244842e+37
2.1774734e+36
2.1928482e+36
-6.2165789e+37
-3.8135309e+36
-3.5792776e+36
6.3119162e+37
-3.4361459e+36
-3.3234916e+36
2.4322261e+36
2.401423e+36
-2.1809123e+38
1.0612288e+37
1.12974e+37
-1.711783e+37
-1.6843221e+37
-9.9007511e+34
4.8374132e+37
1.5281541e+35
-3.3208342e+36
-3.1930153e+36
2.4455998e+36
2.3720263e+36
4.9236476e+37
-2.0104927e+35
-3.2606323e+36
2.3724983e+36
-3.2961291e+36
2.4812032e+36
-9.8107264e+34
-2.0357193e+35
-3.2044866e+36
2.4326659e+36
-3.2384896e+36
2.5363207e+36
-2.8667607e+34
-3.2512886e+36
2.519515e+36
-3.1431677e+36
2.42255e+36
4.8996765e+37
-3.1946914e+36
2.4247711e+36
-3.1446123e+36
2.5085282e+36
2.4818515e+36
2.4674588e+36
-3.2972785e+36
-2.8872405e+38
-1.7199008e+37
-1.6844185e+37
1.2002984e+37
1.1234119e+37
-2.8199127e+38
1.4188196e+36
-1.719882e+37
-1.8121437e+37
1.1217846e+37
1.058998e+37
-4.8514326e+37
-2.3742839e+35
6.1902612e+37
-3.1205581e+36
2.4924241e+36
-3.2033266e+36
2.5698624e+36
1.9893063e+35
4.9109408e+37
-6.3123791e+37
-1.8695543e+35
-3.2924963e+36
-3.1947615e+36
2.5138186e+36
2.4352604e+36
-6.2142228e+37
-3.202791e+36
2.3826846e+36
-3.2887246e+36
2.4648514e+36
-1.272463e+35
6.2833667e+37
-3.2279623e+36
-3.1330825e+36
2.5604385e+36
2.4822878e+36
4.8677482e+37
-7.3255368e+34
2.1545122e+36
2.2306779e+36
-6.1199018e+37
-3.6924763e+36
-3.5836781e+36
7.4073051e+34
-4.9270117e+37
-2.7064818e+35
-3.4117641e+36
2.4944494e+36
-3.3330307e+36
2.4067387e+36
-3.3110098e+36
2.3405017e+36
-3.3746149e+36
2.4469372e+36
-6.132268e+34
2.2091174e+36
2.1427189e+36
-6.2303102e+37
-3.7870108e+36
-3.6565008e+36
-1.849179e+36
-2.1981157e+38
1.0710218e+37
1.1293577e+37
-1.6983742e+37
-1.7050007e+37
-3.6715016e+34
4.8319442e+37
2.2495127e+36
2.1587208e+36
-6.1147597e+37
-3.5728753e+36
-3.6664294e+36
4.9171749e+37
2.1847878e+36
2.2274861e+36
-6.2320538e+37
-3.7045865e+36
-3.612617e+36
-1.3155342e+35
6.2848155e+37
-3.3077615e+36
2.3775468e+36
-3.3719321e+36
2.4525977e+36
-2.2099559e+38
1.1803825e+37
1.1678086e+37
-1.6883707e+37
-1.5263657e+37
6.1350015e+37
-3.3571431e+36
2.4546649e+36
-3.2449265e+36
2.3800536e+36
4.7814803e+37
-4.0084375e+34
-3.2587294e+36
2.4551568e+36
-3.1381858e+36
2.3884334e+36
1.159161e+35
6.0712753e+37
-3.1892674e+36
2.5169368e+36
-3.0848964e+36
2.4274729e+36
4.8677826e+37
-3.2120451e+36
2.3799514e+36
-3.2735344e+36
2.4477861e+36
6.2268235e+37
-3.1542527e+36
2.4269637e+36
-3.2096749e+36
2.4954827e+36
-2.5843939e+36
-2.8573768e+38
-1.7762334e+37
-1.7788509e+37
1.0089754e+37
1.1579714e+37
-2.8418713e+38
-1.7436057e+37
1.1653379e+37
1.1587941e+37
-1.6905929e+37
8.488091e+35
5.0164409e+37
-8.2643978e+35
-6.344002e+37
-2.558292e+36
-2.5297465e+36
3.4722916e+36
3.314055e+36
5.004122e+37
-6.2955684e+37
-2.4323426e+36
3.4450973e+36
-2.5847389e+36
3.4507278e+36
9.4174497e+35
-1.1044318e+36
-2.0297726e+36
3.9804262e+36
-2.048077e+36
3.7891647e+36
-1.9081635e+36
3.9015202e+36
-2.0700279e+36
3.9257468e+36
-4.9988837e+37
-1.0561229e+36
-1.9333001e+36
3.9263237e+36
-2.0854002e+36
3.8976568e+36
7.2430309e+35
4.8920881e+37
-6.1438669e+37
-2.5041304e+36
-2.4735469e+36
3.4581765e+36
3.2743707e+36
-6.3022704e+37
-2.4710603e+36
3.4026891e+36
-2.607763e+36
3.3797378e+36
-1.9606131e+36
-1.9782266e+36
-4.8754488e+37
-4.4313447e+35
3.9278191e+35
-2.8270789e+36
2.8400468e+36
-2.9223235e+36
2.8695775e+36
-2.1459042e+35
2.4027004e+35
-2.9765551e+36
-3.0570328e+36
2.5927753e+36
2.6275292e+36
4.7735785e+37
-3.0133444e+36
-2.9254904e+36
2.6649639e+36
2.5515927e+36
-2.8509611e+36
-2.7974787e+36
2.9307382e+36
2.7820715e+36
-4.8825322e+37
-4.6859662e+35
-2.7971216e+36
2.8770612e+36
-2.908628e+36
2.932528e+36
4.9110677e+35
4.9099534e+37
-3.0600914e+36
-2.9744511e+36
2.6912924e+36
2.599128e+36
-2.9119144e+36
2.64675e+36
-3.0227896e+36
2.6954545e+36
-2.9134349e+36
-2.8593239e+36
2.9450151e+36
2.8201695e+36
3.3410063e+37
-1.0318637e+39
5.7595908e+37
6.2657265e+37
-6.2215124e+37
-6.1002823e+37
2.1517694e+38
-4.4311928e+36
2.0100325e+36
-2.6974044e+38
1.1676056e+37
-1.4573894e+37
-1.5468329e+37
1.2001447e+37
-4.0800945e+36
2.9266029e+36
1.0973778e+37
-1.7154189e+37
-1.8267955e+37
1.0781536e+37
-2.1982188e+38
-5.812466e+36
1.2557873e+37
-1.7373788e+37
-1.7672844e+37
1.1141347e+37
-5.0258159e+36
-2.7785986e+38
1.2937054e+37
-1.4821362e+37
-1.5130648e+37
1.1719924e+37
-1.0339379e+39
6.1156363e+37
5.9111765e+37
-6.6895686e+37
-5.6994729e+37
2.1872694e+38
-3.4716839e+36
-2.7777345e+38
-1.6078201e+37
-1.5006522e+37
1.1915351e+37
1.1571971e+37
-3.6232219e+36
-1.7822225e+37
1.0302133e+37
1.0906047e+37
-1.8551214e+37
-2.1666115e+38
-1.7497686e+37
-1.7555058e+37
1.1930433e+37
1.126992e+37
-2.722512e+38
-1.5304198e+37
-1.5167813e+37
1.2376513e+37
1.1458842e+37
7.0406232e+37
-1.1592337e+39
-1.8025261e+38
-1.1905029e+39
-1.7382394e+38
-4.2747896e+34
-1.059046e+37
1.937741e+34
1.3316286e+37
-7.2607341e+35
-7.3717304e+35
4.7191647e+35
4.8622314e+35
-1.0381537e+37
1.3013373e+37
-2.8572498e+34
4.8308847e+35
4.6340678e+35
-7.5017849e+35
-7.2438657e+35
-2.3842368e+35
-4.7605628e+37
1.4317633e+35
2.2944816e+36
-3.5686491e+36
-3.434016e+36
2.2661415e+36
-1.841604e+34
2.485608e+34
-1.3224611e+37
-7.7186656e+35
-4.8168253e+34
-1.3557373e+37
-6.979257e+35
-2.690972e+34
-1.0513026e+37
1.3140326e+37
1.6410247e+34
-7.1150175e+35
-7.303169e+35
4.8981594e+35
5.0217467e+35
-1.0594866e+37
1.3322689e+37
5.0144274e+35
4.8554391e+35
-7.3795102e+35
-7.1709325e+35
-4.7358246e+37
-6.0585004e+35
-3.4505988e+36
-3.4666851e+36
2.2623529e+36
2.4193535e+36
-1.5353044e+34
-1.356094e+37
-6.9781757e+35
-4.2907175e+34
-1.337711e+37
-7.0176353e+35
1.0142128e+37
-7.3822985e+34
6.3641482e+34
-6.380472e+35
-6.6587213e+35
5.4195921e+35
5.3260887e+35
-2.2411725e+34
1.277505e+37
2.2565128e+34
-6.4550657e+35
-6.6753057e+35
5.2327597e+35
5.3668664e+35
1.0218532e+37
-4.487874e+34
5.2569093e+35
-6.5702515e+35
5.4059998e+35
-6.434497e+35
-1.3080822e+34
1.2955575e+37
5.3254978e+35
-6.6785426e+35
-6.4932275e+35
5.1929308e+35
-1.8303974e+35
9.0952917e+34
-6.1823428e+37
-3.5334252e+36
-3.6700457e+36
2.3510901e+36
2.2439623e+36
-6.1173109e+37
-5.1955767e+35
-3.5132521e+36
-3.5299101e+36
2.2504627e+36
2.4325525e+36
1.0211347e+37
-3.2428586e+34
5.2337152e+35
-6.6056139e+35
5.0888797e+35
-6.7756547e+35
-3.9147764e+34
1.2949359e+37
5.0534714e+35
-6.6318571e+35
-6.7489845e+35
5.2207635e+35
1.0034958e+37
-5.4734078e+34
5.0305274e+35
-6.6945168e+35
5.2199557e+35
-6.5092656e+35
-1.2701974e+34
1.2667009e+37
5.1760805e+35
-6.7717376e+35
-6.5517872e+35
4.9858882e+35
-5.169851e+34
9.9298849e+36
4.7942504e+34
-1.2903558e+37
-6.4737561e+35
5.0829306e+35
5.1003187e+35
-6.6638587e+35
9.7308758e+36
-1.2579963e+37
-6.4661866e+35
-6.6302042e+35
5.1192435e+35
4.8588601e+35
-8.5629572e+34
6.3326228e+34
5.1636043e+35
-6.4030909e+35
5.0550532e+35
-6.54643e+35
-6.4078185e+35
4.9001907e+35
-6.5545484e+35
5.1716046e+35
9.8544655e+36
-5.7158172e+34
-1.2740529e+37
2.8975025e+34
5.165188e+35
-6.4462349e+35
4.9787208e+35
-6.623816e+35
-5.7477705e+34
1.2506507e+37
4.3235462e+34
-6.4005548e+35
5.0111665e+35
5.1743746e+35
-6.5678667e+35
9.9425832e+36
-1.2925263e+37
4.9820882e+35
-6.6397734e+35
5.1689443e+35
-6.4825391e+35
1.2656337e+37
-6.5954565e+35
5.2021383e+35
-6.3996102e+35
5.0213583e+35
9.6862964e+36
-8.443241e+34
7.5231645e+34
5.0572245e+35
-6.3245349e+35
4.9432771e+35
-6.5346289e+35
-7.2331492e+34
7.135936e+34
5.048556e+35
-6.2775684e+35
-6.4735557e+35
5.1794736e+35
9.7465421e+36
-6.3688759e+35
4.9057146e+35
-6.5312156e+35
5.1009234e+35
5.2347928e+35
-6.4670178e+35
-6.3330176e+35
5.0228021e+35
-2.4700139e+34
-1.054464e+37
1.3556882e+34
1.3260017e+37
-7.2004044e+35
-7.3446506e+35
4.7206674e+35
4.8200894e+35
-1.0321974e+37
1.2923921e+37
6.9042243e+33
4.8524499e+35
4.6169149e+35
-7.4467469e+35
-7.225104e+35
-2.2158237e+35
-4.7322898e+37
6.9809358e+35
2.3239191e+36
-3.5208242e+36
-3.3810308e+36
2.282236e+36
-2.7612938e+34
4.7969019e+34
-1.3150272e+37
-7.6133391e+35
-3.9918642e+34
-1.351226e+37
-6.81329e+35
-1.2613308e+34
-1.0488523e+37
1.311473e+37
-7.1560816e+35
-7.3248872e+35
4.6904366e+35
4.8418406e+35
-1.0556486e+37
1.3277858e+37
4.9097211e+35
4.7344978e+35
-7.4269252e+35
-7.2245799e+35
-4.8263282e+37
2.2925263e+36
-3.3888196e+36
-3.4834102e+36
2.3969243e+36
-1.1836953e+34
-1.353222e+37
-7.3210681e+35
-1.3377065e+37
-6.9901445e+35
1.0169656e+37
-2.6337433e+34
4.9019879e+34
-6.5300966e+35
-6.737309e+35
5.1113643e+35
5.1969198e+35
-5.0382408e+34
2.7299946e+34
-6.7423057e+35
5.068818e+35
5.1664024e+35
-6.562926e+35
9.9747853e+36
-4.5177396e+34
-6.6319342e+35
-6.4864078e+35
5.0063223e+35
5.250611e+35
-1.8383254e+34
-6.7179706e+35
-6.5556074e+35
5.1843699e+35
4.933169e+35
1.0100294e+37
-5.3912313e+34
5.2285013e+35
-6.4840157e+35
5.0908519e+35
-6.7256748e+35
-1.4875978e+34
-6.5437592e+35
5.020394e+35
5.1957011e+35
-6.7270595e+35
1.0185432e+37
5.1351021e+35
-6.6194315e+35
5.3088228e+35
-6.4894507e+35
-6.7215249e+35
5.2340878e+35
-6.5578443e+35
5.0686377e+35
3.8075008e+35
-6.2967325e+37
2.3507159e+36
-3.5464221e+36
-3.5558379e+36
2.4115763e+36
-6.1143138e+37
4.8103456e+35
-3.4624696e+36
-3.6086376e+36
2.3860091e+36
2.2780499e+36
9.9761347e+36
-3.7493372e+34
3.3909654e+34
5.134938e+35
-6.5315668e+35
4.9940745e+35
-6.6696965e+35
-5.9603614e+34
3.7321505e+34
1.2707027e+37
-6.5037298e+35
5.0139378e+35
5.1752994e+35
-6.6216455e+35
9.7962955e+36
-6.4560855e+35
4.8964217e+35
-6.6631373e+35
5.1018951e+35
1.2435439e+37
-6.6197532e+35
5.1510963e+35
-6.4235281e+35
4.9353618e+35
9.8988083e+36
-6.4999076e+34
5.1681574e+34
5.2988358e+35
-6.3491461e+35
5.1936534e+35
-6.5789255e+35
-4.7243206e+34
1.2544823e+37
4.2210427e+34
-6.3227927e+35
-6.5380978e+35
5.1923495e+35
5.3198767e+35
9.9770422e+36
5.1104814e+35
-6.5818594e+35
5.2575561e+35
-6.4063447e+35
1.2708435e+37
5.2846073e+35
-6.5576767e+35
-6.3795578e+35
5.1234735e+35
9.7163229e+36
-8.7576729e+34
7.0483059e+34
5.2243013e+35
-6.2412746e+35
5.1434361e+35
-6.4878948e+35
-6.1561369e+34
1.2357115e+37
6.0340957e+34
-6.1959866e+35
-6.4282988e+35
5.2141264e+35
5.3142468e+35
9.7834325e+36
-6.2102945e+34
-6.3153789e+35
5.0344348e+35
-6.4860686e+35
5.1974789e+35
-6.2794116e+34
1.2527485e+37
5.3017551e+35
-6.4381141e+35
-6.2835075e+35
5.1223856e+35
9.7913819e+36
-6.3780026e+34
5.0748449e+35
-6.4292594e+35
4.943642e+35
-6.5604368e+35
-8.320004e+34
1.2547672e+37
5.056558e+35
-6.366762e+35
-6.5034542e+35
5.1814489e+35
9.6238617e+36
-6.3559256e+35
4.8429931e+35
-6.5532638e+35
5.0543766e+35
5.1842987e+35
-6.4837809e+35
-6.3028401e+35
4.9531545e+35
5.3517518e+35
4.8241127e+37
-5.1017274e+35
-6.3061494e+37
-3.7569068e+36
-3.8911933e+36
2.2352371e+36
2.4481898e+36
4.7742229e+37
-6.1927426e+37
-6.1427021e+33
-3.7188157e+36
-3.494086e+36
2.4820943e+36
2.5452615e+36
-1.63198e+35
-6.1593068e+33
-3.4476815e+36
-3.4414058e+36
2.3209988e+36
2.4980651e+36
-3.9166576e+35
2.2690715e+36
-3.6803251e+36
-3.56822e+36
2.2339407e+36
2.4050207e+35
4.7861985e+37
2.6123199e+34
-6.2397339e+37
-3.6406632e+36
-3.7684019e+36
2.3361837e+36
2.5111939e+36
4.9040514e+37
-6.3666762e+37
-3.6354815e+36
-3.5028753e+36
2.623157e+36
2.5345286e+36
-4.3967652e+33
2.3302044e+36
-3.5196947e+36
-3.5081657e+36
2.4979958e+36
3.3781108e+35
2.3574973e+36
-3.588001e+36
-3.4426983e+36
2.3173206e+36
4.6848358e+35
4.8291677e+37
-8.5244249e+35
-6.2972116e+37
-3.7814817e+36
-3.9387191e+36
2.2474423e+36
2.39052e+36
4.7864041e+37
-6.2134361e+37
-3.8309062e+36
-3.8563654e+36
2.1187332e+36
2.4964338e+36
-2.4425146e+35
6.0905249e+37
2.1082235e+36
-3.676366e+36
-3.5783571e+36
2.3553106e+36
6.1688846e+37
-3.5480345e+36
-3.759455e+36
2.2385977e+36
2.2315934e+36
-4.7149625e+37
1.1269596e+35
2.1159759e+36
-3.5138429e+36
-3.5676142e+36
2.1987407e+36
-1.2131465e+35
2.1194004e+36
-3.5511956e+36
-3.5797918e+36
2.3011171e+36
-4.7518192e+37
2.2394898e+36
-3.6552424e+36
-3.5332147e+36
2.1056114e+36
2.1806566e+36
-3.71556e+36
-3.5622713e+36
2.164581e+36
-6.3356931e+37
-3.753062e+36
-3.6756392e+36
2.3710596e+36
2.4646114e+36
-1.0494691e+37
7.9783154e+34
-7.2811037e+35
-7.4166093e+35
4.5785575e+35
4.6788127e+35
-1.2588385e+33
-1.3466113e+37
-7.3579409e+35
-3.5257555e+34
-1.0363802e+37
1.294564e+37
-7.1749948e+35
-7.3709705e+35
4.6224369e+35
4.7460717e+35
-1.0463586e+37
1.3145281e+37
4.8221931e+35
4.6380677e+35
-7.4426388e+35
-7.2540005e+35
1.1875231e+34
-1.3442713e+37
-7.9525269e+35
-1.3209528e+37
-7.2456948e+35
9.9873466e+36
-7.643588e+34
5.1253314e+35
-6.4911915e+35
5.0311299e+35
-6.768925e+35
-6.5402479e+35
-6.7595428e+35
4.9463314e+35
5.0734871e+35
5.0202584e+35
-6.6192109e+35
5.2072762e+35
-6.5128824e+35
1.056544e+35
5.1637324e+35
-6.1788718e+35
5.0962837e+35
-6.3616343e+35
9.6394802e+36
-1.1631022e+35
1.1303885e+35
5.3249479e+35
-5.9841255e+35
5.2875979e+35
-6.2619559e+35
1.2653114e+35
-5.9019501e+35
-6.183362e+35
5.3826771e+35
5.4318141e+35
5.1250311e+35
-6.2524597e+35
5.3301586e+35
-6.1194903e+35
-8.1111419e+34
-2.1978519e+38
4.9627664e+35
1.324803e+37
1.2801227e+37
-1.197999e+37
-1.3169394e+37
-2.1403922e+38
-3.609129e+36
1.2986537e+37
1.3335183e+37
-1.2185949e+37
-1.1773224e+37
1.2813856e+37
-2.4209296e+38
-1.7959297e+37
-3.1416535e+37
1.7328767e+37
-2.5721117e+38
-3.110596e+37
2.410103e+36
4.9442976e+37
-2.6785522e+36
-6.2173895e+37
-3.9296152e+36
-3.8043952e+36
2.5891073e+36
2.4925755e+36
4.8456733e+37
2.3748885e+36
-6.0373677e+37
-3.9600853e+36
-3.7086945e+36
2.481672e+36
2.5632347e+36
2.2160208e+36
6.4227351e+37
-2.4796123e+36
-3.9901783e+36
-3.9408602e+36
2.6632527e+36
2.5043406e+36
6.2978779e+37
2.3369659e+36
-4.0390498e+36
-3.8048223e+36
2.5377768e+36
2.5636369e+36
-4.854873e+37
-8.3720827e+35
5.7863236e+35
2.5485153e+36
-3.7327196e+36
-3.8304792e+36
2.4580468e+36
-1.4244931e+36
1.5443187e+36
2.3665151e+36
-3.8271335e+36
-3.9730438e+36
2.4511246e+36
4.9176559e+37
-1.3926683e+36
-3.9141222e+36
-3.9841763e+36
2.4489239e+36
2.3735885e+36
-8.1327464e+35
2.3275336e+36
-3.937215e+36
-3.8056201e+36
2.2912673e+36
-4.9494524e+37
-8.7384452e+35
2.6405262e+36
-3.5502505e+36
-3.8043267e+36
2.6511153e+36
-1.1384301e+36
-6.4306457e+37
2.4332888e+36
-3.9310056e+36
-4.043649e+36
2.4819866e+36
4.8861524e+37
-6.3533348e+37
-1.1168295e+36
-3.8724015e+36
-3.9453283e+36
2.5439605e+36
2.4396804e+36
-4.6277503e+35
2.4377906e+36
-3.8160407e+36
-3.6662225e+36
2.3866711e+36
2.0614295e+36
4.9075348e+37
-2.2863079e+36
-6.1484973e+37
-3.8998109e+36
-3.7936171e+36
2.566573e+36
2.4656359e+36
4.9533636e+37
-6.236539e+37
-4.0635426e+36
-3.7735827e+36
2.4756074e+36
2.508498e+36
1.8485125e+36
-1.9510777e+36
-3.9596856e+36
-3.9147856e+36
2.6639296e+36
2.485741e+36
-4.1241738e+36
-3.9130925e+36