/*--------------------------------*- C++ -*----------------------------------*\
  =========                 |
  \\      /  F ield         | OpenFOAM: The Open Source CFD Toolbox
   \\    /   O peration     | Website:  https://openfoam.org
    \\  /    A nd           | Version:  7
     \\/     M anipulation  |
\*---------------------------------------------------------------------------*/
FoamFile
{
    version     2.0;
    format      ascii;
    class       volVectorField;
    location    "7000";
    object      UMean;
}
// * * * * * * * * * * * * * * * * * * * * * * * * * * * * * * * * * * * * * //

dimensions      [0 1 -1 0 0 0 0];

internalField   nonuniform List<vector> 
34251
(
(-5.0761357e+39 2.4526601e+38 3.9095784e+38)
(-4.602346e+39 3.8540728e+38 -1.73878e+38)
(-4.5358991e+39 2.2916056e+38 5.5012692e+38)
(-5.0624029e+39 9.1228201e+37 4.8556229e+38)
(-4.5616212e+39 7.0762285e+37 5.9780792e+38)
(-5.118115e+39 1.2650467e+38 5.366801e+38)
(-4.9629969e+39 8.041264e+37 -1.2364757e+38)
(-4.9387813e+39 5.4701635e+37 2.9987276e+38)
(-4.9815558e+39 1.0539108e+38 3.4228964e+38)
(-4.4347992e+39 2.0044881e+38 -6.3037235e+38)
(-3.592575e+39 3.7182306e+38 -1.1365325e+38)
(-4.4392573e+39 4.7902474e+37 -6.2050989e+38)
(-3.6075415e+39 7.5460729e+37 -7.4990989e+37)
(-3.7445731e+39 1.2252779e+38 4.2877503e+38)
(-3.7418924e+39 8.2559768e+37 4.2970269e+38)
(-4.6928587e+39 1.2063531e+38 5.0292342e+38)
(-4.6879328e+39 3.58404e+37 4.9488925e+38)
(-3.7696437e+39 5.7302614e+37 4.7098894e+38)
(-3.7769474e+39 8.7654697e+37 4.3993717e+38)
(-4.7340609e+39 1.1939443e+38 5.6299392e+38)
(-4.7517596e+39 2.2525683e+37 5.4408687e+38)
(-5.2493661e+39 1.0508326e+38 1.9780079e+38)
(-4.9905791e+39 5.5256856e+37 -1.241375e+38)
(-4.9794711e+39 3.2365723e+37 -1.36409e+38)
(-5.2068429e+39 3.0305452e+37 1.671569e+38)
(-4.4112493e+39 3.848584e+37 -1.9273371e+38)
(-4.5689051e+39 2.1112021e+37 -8.6748052e+37)
(-4.4417892e+39 1.5966051e+37 -1.968878e+38)
(-4.5414068e+39 6.1177223e+37 -8.0617687e+37)
(-5.0269692e+39 9.3368141e+37 -9.07889e+37)
(-5.0054471e+39 2.0252328e+37 -1.0056622e+38)
(-4.5881447e+39 5.1481744e+37 -2.7981496e+38)
(-4.5605368e+39 1.3775217e+37 -2.8341019e+38)
(-4.4310649e+39 1.5359868e+37 3.1244645e+38)
(-4.4434481e+39 9.2849387e+37 3.1383607e+38)
(-4.464646e+39 8.6960463e+37 3.4701737e+38)
(-4.473491e+39 5.5210892e+35 3.2720681e+38)
(-4.8619967e+39 6.134521e+37 -4.5705295e+38)
(-4.8346593e+39 1.9442533e+38 -4.6835205e+38)
(-4.1273332e+39 5.6864462e+37 -5.6466701e+38)
(-4.3237932e+39 8.6955446e+37 -5.1190575e+38)
(-4.3273624e+39 2.2912416e+37 -5.0805462e+38)
(-4.1266699e+39 7.6958902e+37 -5.7231313e+38)
(-3.3934824e+39 1.0837206e+38 -7.0695705e+38)
(-3.3892836e+39 4.7211343e+37 -7.0540326e+38)
(-2.6011928e+39 8.4478517e+37 -3.8721654e+37)
(-2.5714458e+39 2.5634076e+38 -5.9106724e+37)
(-4.3385087e+39 1.2024344e+37 -5.0762942e+38)
(-4.3186204e+39 8.8044518e+37 -5.026654e+38)
(-4.1208535e+39 4.3320042e+37 -5.6090676e+38)
(-4.1262801e+39 5.3963782e+37 -5.5565976e+38)
(-3.3645698e+39 1.738061e+37 -6.9735931e+38)
(-3.3881126e+39 7.9751931e+37 -6.9863698e+38)
(-2.5851222e+39 2.660998e+37 -2.0623902e+37)
(-2.6220838e+39 2.1241911e+38 -1.8856908e+37)
(-4.0708759e+39 2.0495631e+37 4.3694518e+38)
(-3.1253918e+39 6.4131289e+37 3.5235262e+38)
(-4.0997342e+39 8.1680904e+37 4.5546187e+38)
(-3.1226587e+39 4.3167742e+37 3.6041403e+38)
(-4.070878e+39 8.9609776e+37 4.5075829e+38)
(-3.1281592e+39 5.775541e+37 3.3842504e+38)
(-4.0822542e+39 2.5364366e+37 4.3494112e+38)
(-4.0964772e+39 8.5858096e+37 4.9490625e+38)
(-3.1388444e+39 3.0386307e+37 3.531576e+38)
(-4.0985071e+39 1.1104834e+37 4.736594e+38)
(-3.1215796e+39 4.2851215e+37 3.4226187e+38)
(-3.1362646e+39 4.6588897e+37 3.548942e+38)
(-4.0964566e+39 6.3090909e+37 4.5260817e+38)
(-4.0944707e+39 -1.2847425e+35 4.5607386e+38)
(-4.6920563e+39 8.1233607e+37 2.7691061e+38)
(-4.7075804e+39 3.5227829e+36 2.6412115e+38)
(-4.5152135e+39 4.6491187e+37 3.2974944e+36)
(-4.5178178e+39 8.3630834e+36 -1.1962952e+37)
(-4.4659967e+39 2.0361756e+36 -2.0046131e+38)
(-4.4358654e+39 2.7131398e+37 -1.9507813e+38)
(-4.5802719e+39 3.0331712e+36 -9.1177489e+37)
(-4.5707125e+39 4.7443039e+37 -7.9834024e+37)
(-5.0558252e+39 7.2594002e+37 -8.9741381e+37)
(-4.5776339e+39 4.8553152e+37 -9.4724399e+37)
(-4.4367748e+39 2.7172448e+37 -2.1273326e+38)
(-4.4550779e+39 9.5575572e+36 -1.9909494e+38)
(-4.5711982e+39 8.4446199e+36 -9.0400945e+37)
(-5.0447211e+39 -2.796215e+35 -1.0213747e+38)
(-4.6802355e+39 8.390267e+37 2.488046e+38)
(-4.6572565e+39 1.1965806e+37 2.4549308e+38)
(-4.5030709e+39 1.6993903e+37 -6.0690185e+36)
(-4.5000693e+39 5.5536784e+37 -9.9740176e+36)
(-4.6071323e+39 3.8390857e+37 -2.8059998e+38)
(-4.5940919e+39 1.5710421e+36 -2.8688765e+38)
(-3.8476342e+39 1.2715432e+37 -1.7801009e+38)
(-3.8545189e+39 1.1107107e+37 -1.6399031e+38)
(-3.8891788e+39 2.1798074e+37 -1.3686216e+38)
(-4.4570199e+39 4.2662335e+37 -2.0158407e+38)
(-3.8872356e+39 1.3686735e+37 -1.4813886e+38)
(-3.8128351e+39 1.3065349e+37 -1.4930999e+38)
(-3.8158012e+39 1.357399e+37 -1.4904203e+38)
(-3.8792474e+39 2.502443e+37 -9.0411312e+37)
(-3.8589903e+39 8.8273315e+36 -1.778229e+38)
(-3.8662002e+39 4.6630577e+36 -1.7595593e+38)
(-3.9028897e+39 8.5502067e+36 -1.470908e+38)
(-3.9061806e+39 1.4787314e+37 -1.4757246e+38)
(-4.5245649e+39 7.6789496e+36 -1.9686517e+38)
(-3.7983927e+39 1.4943392e+37 -1.4967423e+38)
(-3.8064549e+39 2.0749504e+37 -1.3628662e+38)
(-3.8505421e+39 3.1547607e+37 -8.5373749e+37)
(-3.852304e+39 1.3607481e+37 -9.5194119e+37)
(-4.3783258e+39 3.4570813e+37 -2.7928406e+38)
(-4.3882579e+39 3.1047175e+36 -2.8835612e+38)
(-4.3217387e+39 3.5048708e+37 -3.3754681e+38)
(-4.431612e+39 3.7194692e+37 -2.4785512e+38)
(-3.8412748e+39 7.7243295e+36 -2.060752e+38)
(-3.860208e+39 1.8946611e+37 -1.7764944e+38)
(-3.8019316e+39 3.4333772e+37 -6.0397894e+37)
(-5.0187902e+39 8.1232665e+37 -1.8562361e+38)
(-4.1185727e+39 3.5056422e+37 -4.1745089e+38)
(-4.5168562e+39 4.9412954e+37 -2.6027458e+38)
(-4.5553109e+39 5.9456542e+36 -2.5221471e+38)
(-4.1318598e+39 1.3009293e+36 -4.173546e+38)
(-5.0034372e+39 -3.696857e+36 -1.9063432e+38)
(-4.0324879e+39 3.2243685e+37 -4.4095975e+38)
(-4.4520429e+39 4.1792211e+37 -3.3478352e+38)
(-4.3691773e+39 5.9483099e+37 -5.2976021e+38)
(-4.3580949e+39 -2.6089318e+37 -5.244164e+38)
(-3.8558655e+39 7.3937618e+37 2.963434e+38)
(-3.8419628e+39 6.7687759e+37 2.9523654e+38)
(-3.8448295e+39 5.0502727e+36 2.7890523e+38)
(-3.8625872e+39 -7.5167236e+36 3.0438245e+38)
(-3.8642316e+39 5.6989663e+37 2.890403e+38)
(-3.8562232e+39 -7.3496356e+36 2.9288028e+38)
(-5.0999854e+39 1.0758932e+38 -5.0192995e+38)
(-5.0740378e+39 1.0159886e+38 -5.0781355e+38)
(-4.3817591e+39 6.5388492e+37 -6.2609484e+38)
(-4.254854e+39 6.7903885e+37 -4.0187118e+38)
(-4.2524084e+39 -8.0765732e+36 -4.0131577e+38)
(-4.3695088e+39 4.703626e+37 -6.2546535e+38)
(-3.5332128e+39 9.0529013e+36 -6.3488116e+38)
(-3.5274814e+39 5.4803946e+37 -6.325219e+38)
(-2.9718993e+39 5.3912289e+37 -7.284132e+38)
(-2.9835949e+39 4.5197813e+37 -7.3529228e+38)
(-3.531573e+39 4.1862537e+36 -6.322141e+38)
(-3.5196172e+39 5.6548719e+37 -6.3420051e+38)
(-2.969717e+39 5.0480544e+37 -7.4054253e+38)
(-2.9780432e+39 3.685872e+37 -7.2781127e+38)
(-2.0989293e+39 6.8873668e+37 -6.641993e+38)
(-1.826759e+39 1.4801211e+38 1.2647523e+38)
(-1.8138663e+39 3.7139189e+37 1.1791898e+38)
(-2.0825936e+39 5.0891652e+37 -6.7063064e+38)
(-2.0869647e+39 5.7900966e+37 -6.5987271e+38)
(-2.0913946e+39 7.5330767e+37 -6.7177432e+38)
(-1.805614e+39 6.0253087e+37 1.2384833e+38)
(-4.2760354e+39 -1.3199103e+37 -3.931548e+38)
(-4.2349696e+39 6.6691006e+37 -3.9473046e+38)
(-4.3724061e+39 5.0653312e+37 -6.1818821e+38)
(-4.3748895e+39 3.0176079e+37 -6.1045586e+38)
(-3.5264049e+39 -1.3397288e+37 -6.2595924e+38)
(-3.5162504e+39 4.0809825e+37 -6.2821287e+38)
(-2.954034e+39 2.3202959e+37 -7.3357882e+38)
(-2.9639829e+39 8.8116382e+36 -7.2534556e+38)
(-2.9578062e+39 3.0438903e+37 -7.2224567e+38)
(-3.5136754e+39 3.6667615e+37 -6.2024929e+38)
(-3.5165747e+39 -6.3751674e+36 -6.2341825e+38)
(-2.9676852e+39 3.0210056e+37 -7.3064413e+38)
(-2.0583036e+39 8.0328362e+36 -6.66376e+38)
(-2.0773453e+39 3.1358966e+37 -6.6196197e+38)
(-1.8344862e+39 9.8582385e+37 1.3329442e+38)
(-2.0810298e+39 6.0127397e+37 -6.6879287e+38)
(-2.0768258e+39 2.5829025e+37 -6.613643e+38)
(-1.8186384e+39 1.6079439e+37 1.189554e+38)
(-1.8170385e+39 1.3917423e+38 1.1657194e+38)
(-2.7217032e+39 3.5287195e+37 3.569256e+38)
(-2.6944593e+39 5.9315681e+37 3.2109723e+38)
(-3.4911404e+39 2.8295689e+37 4.2047782e+38)
(-3.4902515e+39 6.9857116e+37 4.3293216e+38)
(-2.7177022e+39 2.8104926e+36 3.5954589e+38)
(-2.7063676e+39 4.1090304e+37 3.2740504e+38)
(-3.4726361e+39 5.6737086e+37 4.3425097e+38)
(-3.4823863e+39 1.7274711e+37 4.2557059e+38)
(-3.48661e+39 4.2109938e+37 4.0951366e+38)
(-2.709963e+39 2.0006906e+37 3.2840829e+38)
(-2.7043976e+39 4.992731e+37 3.3276406e+38)
(-3.4786886e+39 1.1442921e+37 4.098266e+38)
(-2.7164982e+39 -1.3812566e+37 3.2798652e+38)
(-2.7187666e+39 2.9573804e+37 3.4795062e+38)
(-3.4899257e+39 2.5725298e+37 4.246217e+38)
(-3.486041e+39 -4.8021596e+36 4.2811099e+38)
(-2.7264442e+39 1.3428896e+37 3.5351398e+38)
(-2.6850721e+39 5.1366087e+37 2.9572722e+38)
(-3.4921052e+39 5.4593073e+37 4.2608993e+38)
(-3.4924075e+39 1.5579525e+37 4.1357192e+38)
(-2.7230074e+39 1.1386999e+36 3.3454919e+38)
(-2.7137541e+39 4.4732127e+37 3.3855554e+38)
(-3.4965294e+39 3.2992396e+37 4.2557611e+38)
(-3.4852376e+39 -3.6603568e+36 4.2732668e+38)
(-4.7674158e+39 8.4796864e+36 -4.9407755e+38)
(-3.8863764e+39 -2.7621807e+36 1.1886913e+38)
(-4.0895826e+39 -3.4920026e+36 3.185943e+38)
(-3.8919223e+39 2.786657e+36 1.1384554e+38)
(-3.8946401e+39 3.9485094e+37 1.1228245e+38)
(-4.082265e+39 -8.3763668e+36 3.0730243e+38)
(-4.0879088e+39 5.3425966e+37 3.0407205e+38)
(-3.949719e+39 1.5432623e+36 3.8701996e+37)
(-3.8126817e+39 5.9507184e+36 -7.8169341e+37)
(-3.8206289e+39 9.902922e+36 -7.8406062e+37)
(-3.8280181e+39 2.0760003e+37 -7.7297977e+37)
(-3.9596661e+39 3.3110546e+37 3.4228727e+37)
(-3.9543779e+39 1.25967e+36 3.5222769e+37)
(-3.8679223e+39 4.5963927e+36 -1.8114004e+38)
(-3.8785662e+39 -1.1683316e+36 -1.7726076e+38)
(-3.9159368e+39 8.3129233e+36 -1.4913081e+38)
(-3.9079672e+39 2.1682298e+36 -1.5003256e+38)
(-4.5473029e+39 -3.8770451e+36 -1.9946297e+38)
(-3.8749396e+39 6.2253788e+36 -1.6967048e+38)
(-3.8539433e+39 9.6057889e+36 -1.8258026e+38)
(-3.8935918e+39 8.5664503e+36 -1.525643e+38)
(-4.4803429e+39 3.2244589e+37 -2.0178625e+38)
(-3.8213693e+39 8.4158933e+36 -1.5173894e+38)
(-3.8261542e+39 8.4930232e+36 -1.5094172e+38)
(-3.8820806e+39 1.8107341e+37 -9.6863995e+37)
(-3.871779e+39 6.7931705e+36 -9.8198975e+37)
(-3.8058854e+39 1.0747939e+37 -1.5530411e+38)
(-3.8640115e+39 6.8682989e+36 -9.8550765e+37)
(-4.4076309e+39 -8.4412436e+36 -2.9452107e+38)
(-4.3952513e+39 2.3340754e+37 -2.8449365e+38)
(-3.8654508e+39 2.5671501e+37 -9.7777569e+37)
(-3.8189037e+39 2.1587003e+37 -1.6155241e+38)
(-3.80317e+39 1.2644211e+37 -1.591822e+38)
(-3.8867592e+39 1.7036461e+37 -9.8123299e+37)
(-3.8479891e+39 3.2573658e+36 -1.8810967e+38)
(-3.9127595e+39 1.7294612e+37 -1.589796e+38)
(-3.8884719e+39 1.411745e+37 -1.5788382e+38)
(-3.871682e+39 1.7779666e+37 -1.893922e+38)
(-4.4853962e+39 2.8369394e+37 -2.1962176e+38)
(-3.87736e+39 9.8732918e+36 -1.664844e+38)
(-3.8719257e+39 1.2357782e+37 -1.7735148e+38)
(-3.9104485e+39 2.1258583e+37 -1.4734739e+38)
(-4.5372306e+39 6.0807954e+35 -1.9919338e+38)
(-3.9088765e+39 8.1010381e+36 -1.39853e+38)
(-3.8226924e+39 1.5306504e+37 -1.399974e+38)
(-3.8723374e+39 1.3041618e+37 -8.8065081e+37)
(-3.8196259e+39 2.2076466e+37 -1.476602e+38)
(-3.8737987e+39 3.0045166e+37 -9.4453591e+37)
(-4.3871918e+39 2.353831e+37 -3.0616586e+38)
(-4.4143612e+39 2.4582781e+36 -2.8743539e+38)
(-3.8919114e+39 1.0837354e+37 1.0852561e+38)
(-3.8880004e+39 4.9841631e+37 1.1895225e+38)
(-4.0703065e+39 8.5096335e+36 2.9274994e+38)
(-4.0639377e+39 6.9782195e+37 3.0497104e+38)
(-4.0864979e+39 6.840573e+37 3.1017395e+38)
(-3.8909072e+39 1.5718851e+37 1.2760387e+38)
(-3.8922613e+39 5.4911513e+37 1.2082465e+38)
(-4.061632e+39 8.5982233e+36 3.0850834e+38)
(-3.9506566e+39 4.6717222e+37 3.9115213e+37)
(-3.8222096e+39 3.3914548e+37 -7.078366e+37)
(-3.8189751e+39 1.613851e+37 -6.4788567e+37)
(-3.9473102e+39 1.0825058e+37 4.5416104e+37)
(-3.9518222e+39 4.834973e+37 4.0667679e+37)
(-3.8240168e+39 1.8535624e+37 -8.0907909e+37)
(-3.8046652e+39 2.9296872e+37 -7.5756956e+37)
(-3.958881e+39 1.4819612e+37 3.1972601e+37)
(-5.0356705e+39 6.2232178e+37 -1.8644354e+38)
(-4.1179182e+39 2.8183455e+37 -4.1982448e+38)
(-4.5371409e+39 3.4252409e+37 -2.633269e+38)
(-4.5729507e+39 -1.2289649e+37 -2.6183356e+38)
(-4.1385083e+39 -1.65657e+37 -4.2691339e+38)
(-5.0289854e+39 -1.8183558e+37 -1.8944767e+38)
(-4.1276724e+39 2.3648375e+37 -4.3819114e+38)
(-4.5347768e+39 3.08223e+37 -2.8695279e+38)
(-4.5619065e+39 -7.3979267e+36 -2.6255994e+38)
(-4.1305237e+39 -1.457767e+37 -4.3286422e+38)
(-4.3774906e+39 4.9109405e+37 -5.3901295e+38)
(-4.3711213e+39 -3.5445807e+37 -5.3555948e+38)
(-3.2995688e+39 4.6348967e+36 -1.1923611e+38)
(-3.2903285e+39 5.2944924e+36 -1.2789901e+38)
(-3.9195756e+39 9.2646761e+36 -1.5507685e+38)
(-3.3232311e+39 3.501882e+36 -1.6586522e+38)
(-3.3287566e+39 2.8930428e+36 -1.5790565e+38)
(-3.3149485e+39 1.3367093e+37 -1.0670368e+38)
(-3.3091586e+39 3.9541412e+36 -1.1038592e+38)
(-3.9211516e+39 1.4585117e+37 -1.4311876e+38)
(-3.3443713e+39 2.0878245e+36 -1.4627763e+38)
(-3.3537214e+39 1.3211311e+37 -1.4313732e+38)
(-3.2059842e+39 1.1434469e+37 -1.0910857e+38)
(-3.2386716e+39 1.3763835e+37 -9.6115988e+37)
(-3.1987804e+39 5.8108529e+36 -1.1411473e+38)
(-3.2361737e+39 6.3857753e+36 -1.0000654e+38)
(-3.8857775e+39 6.7294826e+36 -1.9185349e+38)
(-3.9009832e+39 6.4372846e+36 -1.704155e+38)
(-3.18829e+39 1.8049685e+36 -1.2361161e+38)
(-3.2257781e+39 6.3113292e+36 -1.0867155e+38)
(-3.1808993e+39 6.6879714e+36 -1.3057019e+38)
(-3.218001e+39 6.754913e+36 -1.1411715e+38)
(-3.1565401e+39 6.1049767e+36 -1.1726375e+38)
(-3.1527847e+39 4.0046438e+36 -1.2127496e+38)
(-3.2014046e+39 9.4794288e+36 -1.0366006e+38)
(-3.196262e+39 4.4615059e+36 -1.0632123e+38)
(-3.14754e+39 5.7257503e+36 -1.2082754e+38)
(-3.1933473e+39 9.4469309e+36 -1.0584172e+38)
(-3.1587175e+39 7.527074e+36 -1.2344991e+38)
(-3.2030257e+39 7.2058452e+36 -1.0854543e+38)
(-3.1199017e+39 9.3175582e+36 -1.0837538e+38)
(-3.1948211e+39 1.487758e+37 -7.9296061e+37)
(-3.1286854e+39 7.5093145e+36 -1.1124615e+38)
(-3.2037119e+39 6.5090739e+36 -8.2189013e+37)
(-3.3063021e+39 5.6264766e+36 -1.1392034e+38)
(-3.302445e+39 -1.8481697e+36 -1.2223572e+38)
(-3.9371486e+39 3.633817e+36 -1.5672836e+38)
(-3.3363415e+39 -4.3137034e+36 -1.5973175e+38)
(-3.3349229e+39 4.2363878e+36 -1.5182587e+38)
(-3.2995344e+39 7.2701095e+36 -1.1720852e+38)
(-3.3086548e+39 2.6482371e+36 -1.2248646e+38)
(-3.9444432e+39 4.1290333e+36 -1.5549144e+38)
(-3.3430308e+39 3.9549962e+35 -1.5897187e+38)
(-3.3308845e+39 6.2076326e+36 -1.5498172e+38)
(-3.1937921e+39 3.9982225e+36 -1.1800208e+38)
(-3.2332537e+39 7.5786872e+36 -1.0431305e+38)
(-3.1919565e+39 7.6518696e+35 -1.2408596e+38)
(-3.2295186e+39 1.6544316e+36 -1.0875202e+38)
(-3.1876874e+39 4.7226559e+36 -1.2132149e+38)
(-3.2239718e+39 7.11379e+36 -1.0795056e+38)
(-3.1972494e+39 5.3500915e+36 -1.2544362e+38)
(-3.2359633e+39 5.2160228e+36 -1.1060051e+38)
(-3.9123709e+39 -6.5512568e+36 -1.9503395e+38)
(-3.8992416e+39 6.1291835e+36 -1.9874755e+38)
(-3.1492189e+39 4.4973931e+36 -1.2087376e+38)
(-3.1946006e+39 8.4942138e+36 -1.0634529e+38)
(-3.1409268e+39 7.9030444e+36 -1.2635293e+38)
(-3.186501e+39 7.5904735e+36 -1.104149e+38)
(-3.1629182e+39 1.2876917e+37 -1.0774728e+38)
(-3.2058709e+39 1.6688746e+37 -9.3104659e+37)
(-3.1592933e+39 7.8366654e+36 -1.1237462e+38)
(-3.2041241e+39 8.1973607e+36 -9.7595891e+37)
(-3.1359174e+39 1.6946537e+37 -9.4858122e+37)
(-3.1997429e+39 2.1561397e+37 -6.8935554e+37)
(-3.1323896e+39 7.9506502e+36 -1.0004812e+38)
(-3.2013372e+39 7.0474094e+36 -7.2826828e+37)
(-3.1223682e+39 8.6600167e+36 -1.0836935e+38)
(-3.1929474e+39 1.4047986e+37 -8.084389e+37)
(-3.1146717e+39 7.733008e+36 -1.1281482e+38)
(-3.1841305e+39 6.1764655e+36 -8.4204007e+37)
(-3.9697908e+39 7.1484156e+36 -2.4217523e+38)
(-3.9635534e+39 -9.1543468e+35 -2.3230053e+38)
(-3.9875321e+39 7.8537953e+36 -1.7831104e+38)
(-3.9633631e+39 6.8075446e+36 -2.0640423e+38)
(-3.9756658e+39 9.4121276e+35 -2.4950481e+38)
(-3.9759499e+39 -1.727882e+37 -2.4893583e+38)
(-4.0165093e+39 -6.8132493e+36 -1.922343e+38)
(-3.990101e+39 1.3703368e+36 -2.0510584e+38)
(-4.0043792e+39 2.9123131e+37 -2.7495991e+38)
(-4.0012439e+39 -1.0308052e+37 -2.7365903e+38)
(-3.9840252e+39 -1.3216668e+36 -2.358679e+38)
(-3.9939856e+39 2.819669e+37 -2.3623993e+38)
(-3.9028186e+39 7.0999829e+36 -1.9433444e+38)
(-3.9045661e+39 8.5933987e+35 -2.1605546e+38)
(-3.9142587e+39 2.3055521e+37 -1.9587608e+38)
(-3.908439e+39 2.4993445e+37 -2.2178986e+38)
(-3.9775384e+39 6.7999716e+36 -2.4811549e+38)
(-3.291715e+39 1.8877648e+37 -1.3632438e+38)
(-3.3226532e+39 1.6145363e+37 -1.7559501e+38)
(-3.276482e+39 7.4448538e+36 -1.358329e+38)
(-3.2912565e+39 8.287842e+36 -1.3866407e+38)
(-3.33326e+39 6.1053019e+36 -1.7535081e+38)
(-3.3126988e+39 6.5612472e+36 -1.742338e+38)
(-3.1672575e+39 5.337767e+36 -1.3712844e+38)
(-3.1986667e+39 8.2030011e+36 -1.2303349e+38)
(-3.1801364e+39 1.0393908e+37 -1.3910081e+38)
(-3.1414196e+39 1.3033694e+37 -9.425616e+37)
(-3.1497144e+39 2.0716295e+37 -8.2085359e+37)
(-3.2298502e+39 2.6146511e+37 -5.5575236e+37)
(-3.1499809e+39 8.4321623e+36 -8.6802896e+37)
(-4.494858e+39 1.6731427e+37 -2.5059103e+38)
(-4.4760759e+39 4.4898325e+37 -2.3898115e+38)
(-3.8795907e+39 7.6485504e+36 -3.4657641e+38)
(-3.8686029e+39 -1.267379e+37 -3.4750467e+38)
(-3.9779728e+39 3.7506735e+36 -4.8702837e+38)
(-3.9636667e+39 5.8728795e+36 -4.8901242e+38)
(-4.2146414e+39 1.4589708e+37 -2.9070055e+38)
(-4.199854e+39 1.5072609e+37 -2.8727178e+38)
(-4.0655484e+39 2.2942751e+36 -2.4799207e+38)
(-4.0392256e+39 7.3525457e+35 -3.0995733e+38)
(-4.0441348e+39 4.5216657e+36 -3.208835e+38)
(-4.0693617e+39 1.3691037e+37 -2.6057734e+38)
(-4.0951323e+39 -1.4202912e+37 -2.5233205e+38)
(-4.0462295e+39 -1.4375009e+37 -3.3301684e+38)
(-4.0560724e+39 -6.0607567e+36 -3.2008675e+38)
(-4.0806516e+39 -5.4289619e+36 -2.5777209e+38)
(-3.9994819e+39 -2.0689289e+36 -4.8753011e+38)
(-3.9838974e+39 -1.3406051e+37 -4.9684695e+38)
(-4.225859e+39 -5.6205455e+36 -2.9420985e+38)
(-4.2158214e+39 -6.9905289e+36 -3.0666199e+38)
(-3.8597851e+39 2.2581074e+37 -3.4171135e+38)
(-4.4475385e+39 3.654266e+37 -2.569307e+38)
(-3.8589299e+39 2.7390506e+36 -3.255947e+38)
(-3.9642548e+39 2.9147711e+37 -5.0311631e+38)
(-3.9604606e+39 -6.7226719e+36 -5.1195489e+38)
(-4.2344107e+39 3.7741561e+37 -3.5527133e+38)
(-4.23149e+39 -5.0207435e+36 -3.7263281e+38)
(-4.0757074e+39 -1.5101244e+37 -3.739291e+38)
(-4.0722856e+39 2.7736987e+37 -3.6827939e+38)
(-4.0949709e+39 -1.2496199e+37 -3.031522e+38)
(-4.1035755e+39 3.6707139e+37 -2.9852731e+38)
(-4.0483089e+39 1.6320512e+37 -3.3565051e+38)
(-4.0855333e+39 1.0456164e+37 -2.5014e+38)
(-4.1250506e+39 -1.3419192e+37 -5.2063826e+38)
(-4.1156071e+39 2.2478452e+37 -5.1235613e+38)
(-3.2814466e+39 5.9352147e+37 3.0035112e+38)
(-3.2801186e+39 1.4334181e+37 2.8291327e+38)
(-3.2619292e+39 4.5077219e+37 3.0692521e+38)
(-3.2691328e+39 1.7372872e+36 2.911862e+38)
(-3.2773806e+39 4.204783e+37 2.8409736e+38)
(-3.2678123e+39 7.4106302e+36 2.8662733e+38)
(-3.2748093e+39 2.5820347e+37 2.8728973e+38)
(-3.267786e+39 -1.0900078e+37 2.9696614e+38)
(-3.2767314e+39 4.4482477e+37 2.9648869e+38)
(-3.2782159e+39 3.2885812e+36 2.7302837e+38)
(-3.2837993e+39 3.4796337e+37 2.9281732e+38)
(-3.2725877e+39 -7.2714379e+36 2.9858756e+38)
(-5.1674036e+39 8.0591283e+37 -2.9451572e+38)
(-5.1446558e+39 6.6103261e+37 -2.9199539e+38)
(-4.469083e+39 5.0535369e+37 -5.1419244e+38)
(-3.5450924e+39 -1.0059096e+37 -6.4517812e+38)
(-3.5532274e+39 5.4645228e+37 -6.5364296e+38)
(-4.4222916e+39 6.1209365e+37 -3.0630863e+38)
(-4.4334283e+39 4.3925624e+34 -3.0688257e+38)
(-4.4669422e+39 3.0062006e+37 -5.1876395e+38)
(-3.5467361e+39 5.7862064e+37 -6.5097883e+38)
(-3.5497215e+39 -6.0447731e+36 -6.51323e+38)
(-3.1008625e+39 5.1208365e+37 -7.7965736e+38)
(-3.1083717e+39 3.5127402e+37 -7.8305444e+38)
(-3.1014973e+39 4.4614626e+37 -7.8866023e+38)
(-3.107371e+39 2.9610867e+37 -7.7780459e+38)
(-2.1544379e+39 3.2791667e+37 -6.6041042e+38)
(-2.1517196e+39 1.562098e+37 -6.6631124e+38)
(-1.566756e+39 4.8524032e+37 -7.0497872e+38)
(-1.5752228e+39 3.7816632e+37 -7.1364875e+38)
(-1.2277265e+39 6.7529965e+37 -2.4962262e+38)
(-1.2045045e+39 6.6661751e+37 -2.960915e+38)
(-1.7267244e+39 2.7777504e+37 2.4402406e+38)
(-1.7108352e+39 7.4853956e+37 2.301835e+38)
(-1.225454e+39 6.346786e+37 -2.6821446e+38)
(-1.210434e+39 4.7993676e+37 -2.8994245e+38)
(-1.7110663e+39 -6.3574428e+36 2.3831885e+38)
(-1.7411727e+39 5.830288e+37 2.3433775e+38)
(-1.5701995e+39 5.3096239e+37 -7.247622e+38)
(-2.1575459e+39 1.4828317e+37 -6.6858639e+38)
(-2.1559871e+39 3.9550117e+37 -6.770789e+38)
(-1.5741804e+39 2.8134624e+37 -7.0984237e+38)
(-2.1471005e+39 4.4283796e+37 -6.6626331e+38)
(-2.1497052e+39 2.3248791e+37 -6.5982826e+38)
(-1.5591454e+39 5.6660629e+37 -7.1316507e+38)
(-1.5686972e+39 3.9551436e+37 -7.0060392e+38)
(-2.1637857e+39 3.8881178e+37 -6.6365498e+38)
(-2.1644632e+39 1.9557088e+37 -6.7271986e+38)
(-1.5727102e+39 5.6280475e+37 -7.0292941e+38)
(-1.2146929e+39 6.9731519e+37 -2.5414786e+38)
(-1.1990366e+39 6.7870959e+37 -2.8932926e+38)
(-1.724334e+39 8.7196023e+37 2.331043e+38)
(-1.7203782e+39 2.1079312e+37 2.5095045e+38)
(-4.4789051e+39 -2.6293995e+36 -3.2015596e+38)
(-4.4169986e+39 5.2774393e+37 -3.0230368e+38)
(-4.4614853e+39 3.4689523e+37 -5.117239e+38)
(-3.5369602e+39 3.7927981e+37 -6.4587544e+38)
(-3.544368e+39 -2.6687871e+37 -6.3948478e+38)
(-4.4653889e+39 1.9525302e+37 -4.9682579e+38)
(-3.5381645e+39 -1.6142731e+37 -6.383388e+38)
(-3.5327824e+39 4.1692975e+37 -6.3546921e+38)
(-3.0856967e+39 1.9744374e+37 -7.7980278e+38)
(-3.0917548e+39 4.6977393e+36 -7.7490719e+38)
(-3.0876953e+39 3.1239008e+37 -7.7237128e+38)
(-3.097211e+39 2.4871582e+37 -7.8034634e+38)
(-2.1441814e+39 -8.9318766e+36 -6.6826641e+38)
(-2.1387687e+39 1.355475e+37 -6.6933234e+38)
(-1.556235e+39 -1.0712412e+37 -7.128251e+38)
(-1.548764e+39 2.701431e+37 -7.0848466e+38)
(-1.5606225e+39 6.4845984e+36 -7.2037313e+38)
(-2.1421157e+39 -8.9849682e+36 -6.6614604e+38)
(-2.137826e+39 1.0320001e+37 -6.5977626e+38)
(-1.2113674e+39 3.3074764e+37 -2.6221613e+38)
(-1.2216891e+39 2.5810048e+37 -2.7766885e+38)
(-1.7125996e+39 8.5208846e+36 2.1469839e+38)
(-1.7433269e+39 4.4154605e+37 2.4402419e+38)
(-1.5665623e+39 4.836134e+37 -7.0898114e+38)
(-1.5718412e+39 3.1289998e+37 -7.2093359e+38)
(-2.1448962e+39 1.0105246e+37 -6.7098332e+38)
(-2.1471206e+39 2.8354632e+37 -6.630146e+38)
(-1.549503e+39 2.3684248e+37 -7.1955582e+38)
(-1.563338e+39 1.8155458e+37 -7.1068732e+38)
(-2.1429811e+39 6.3439779e+36 -6.6233462e+38)
(-2.1352745e+39 2.2777845e+37 -6.6341784e+38)
(-1.2234857e+39 2.8808739e+37 -2.5614225e+38)
(-1.1705313e+39 3.1119138e+37 -3.5000441e+38)
(-1.7325126e+39 -2.6446381e+37 2.4147503e+38)
(-1.7215642e+39 6.518834e+37 1.8787101e+38)
(-1.235471e+39 6.8189665e+37 -2.4854493e+38)
(-1.1967274e+39 5.6931928e+37 -3.1787617e+38)
(-1.7242793e+39 1.9578141e+37 2.3596746e+38)
(-1.7236502e+39 7.6538993e+37 2.2470534e+38)
(-4.5229462e+39 -2.4938479e+36 1.0301556e+38)
(-2.3000785e+39 5.4000637e+37 3.0957974e+38)
(-2.3441942e+39 8.1418704e+36 3.5972518e+38)
(-3.0054431e+39 4.8703324e+37 3.6708456e+38)
(-3.007262e+39 2.6458828e+37 3.5877901e+38)
(-2.1314936e+39 3.3264746e+37 2.0594704e+38)
(-2.2950181e+39 5.5582385e+37 3.1647348e+38)
(-3.0071732e+39 4.8738947e+37 3.4744737e+38)
(-2.9633282e+39 9.8828516e+36 3.0551958e+38)
(-2.3440179e+39 1.5457363e+37 3.441319e+38)
(-2.3287126e+39 -5.2137939e+37 3.5462962e+38)
(-3.0002914e+39 1.9548576e+37 3.7605298e+38)
(-3.0029893e+39 3.9040406e+36 3.7185623e+38)
(-2.0973378e+39 2.0289983e+37 1.7688706e+38)
(-2.3256413e+39 5.9011388e+37 3.408208e+38)
(-3.0184348e+39 4.1048938e+37 3.6920929e+38)
(-2.9554773e+39 -2.5540587e+36 3.0135426e+38)
(-2.2924727e+39 3.0479153e+37 2.9880855e+38)
(-2.316184e+39 -4.6930256e+37 3.3958965e+38)
(-3.0153438e+39 1.8918608e+37 3.560189e+38)
(-3.0060981e+39 1.3473546e+37 3.3913787e+38)
(-2.2422374e+39 3.9781888e+37 2.8163928e+38)
(-2.3155664e+39 2.7369258e+37 3.3159671e+38)
(-3.0129633e+39 3.7377772e+37 3.6427472e+38)
(-2.9838745e+39 5.8309155e+36 3.3619061e+38)
(-2.3231689e+39 -1.5194315e+36 3.1810965e+38)
(-2.274149e+39 -1.4556193e+38 3.1276381e+38)
(-3.0043905e+39 -2.794095e+37 3.4476817e+38)
(-3.0122288e+39 -6.3458016e+36 3.4777441e+38)
(-2.3049379e+39 2.5898452e+37 3.3038616e+38)
(-2.2957391e+39 -5.4282295e+36 3.1469874e+38)
(-3.0050715e+39 1.5084077e+37 3.634229e+38)
(-2.9984461e+39 -1.300624e+37 3.5978581e+38)
(-2.3132514e+39 4.5189799e+37 3.2144638e+38)
(-2.3230374e+39 2.2037208e+36 3.4565189e+38)
(-3.0102513e+39 3.9415794e+37 3.6808576e+38)
(-3.0143073e+39 1.7749015e+37 3.618539e+38)
(-1.9247268e+39 5.3059439e+36 5.4863327e+37)
(-2.2943021e+39 1.0433153e+38 3.1385019e+38)
(-3.0154972e+39 5.7068378e+37 3.4782014e+38)
(-2.9249575e+39 -3.5171263e+36 2.551798e+38)
(-2.3358198e+39 1.5165534e+37 3.2691812e+38)
(-2.2962553e+39 -1.0879897e+38 3.2557312e+38)
(-3.0167942e+39 -5.2377548e+36 3.5294846e+38)
(-3.0200324e+39 4.0027925e+36 3.5328796e+38)
(-2.1669392e+39 1.4676072e+37 2.2573782e+38)
(-2.3208239e+39 4.4120829e+37 3.3381068e+38)
(-3.0195085e+39 3.4671001e+37 3.7379637e+38)
(-2.9714984e+39 -1.1278694e+37 3.2651153e+38)
(-4.7784779e+39 2.4876426e+36 -5.0068295e+38)
(-3.2730868e+39 1.8942985e+37 3.6836781e+37)
(-3.407595e+39 2.4406887e+37 1.4371155e+38)
(-3.2660114e+39 -8.7734417e+35 3.6216546e+37)
(-3.4025907e+39 -7.2746879e+36 1.4432281e+38)
(-3.3129062e+39 2.8853647e+37 2.0594953e+38)
(-3.4740656e+39 3.2807207e+37 3.331927e+38)
(-3.3095181e+39 -8.796565e+36 2.0781937e+38)
(-3.4692636e+39 -1.4101172e+37 3.383201e+38)
(-3.2841521e+39 2.7658328e+37 4.0784346e+37)
(-3.2747804e+39 3.9303297e+36 4.1391895e+37)
(-3.4120665e+39 3.2118828e+37 1.4361189e+38)
(-3.4062873e+39 -1.8063241e+36 1.4651711e+38)
(-3.2715325e+39 2.412831e+37 3.7066212e+37)
(-3.2837141e+39 3.3391891e+36 3.3947468e+37)
(-3.4018439e+39 3.4250859e+37 1.4150804e+38)
(-3.4127495e+39 3.2437558e+36 1.3713021e+38)
(-3.3193371e+39 3.8077594e+37 2.0962606e+38)
(-3.4822318e+39 3.8339596e+37 3.3536352e+38)
(-3.3145528e+39 -3.3264947e+36 2.1440572e+38)
(-3.4729252e+39 -1.0878311e+37 3.4135294e+38)
(-3.3126252e+39 3.5368165e+37 2.0719698e+38)
(-3.3187931e+39 -1.1900297e+36 1.998504e+38)
(-3.4723511e+39 4.6128538e+37 3.3330702e+38)
(-3.4800134e+39 1.4255965e+36 3.2466527e+38)
(-3.1814121e+39 1.1948776e+37 -6.5435629e+37)
(-3.1764972e+39 4.566844e+36 -6.6893712e+37)
(-3.3097342e+39 1.7522854e+37 9.6366252e+36)
(-3.302915e+39 -5.7799343e+35 8.4200578e+36)
(-3.1419774e+39 8.5478257e+36 -9.9675989e+37)
(-3.1355286e+39 6.0356949e+36 -1.0161131e+38)
(-3.2275457e+39 1.1719578e+37 -7.1559341e+37)
(-3.2205155e+39 3.946715e+36 -7.3598603e+37)
(-3.1491277e+39 9.7259897e+36 -9.5889093e+37)
(-3.1582005e+39 1.5203855e+37 -9.3601194e+37)
(-3.2411795e+39 1.8285904e+37 -6.8133282e+37)
(-3.2325379e+39 8.1675005e+36 -6.9011278e+37)
(-3.1460349e+39 1.1955612e+37 -9.7775847e+37)
(-3.1577382e+39 7.7823484e+36 -9.8616928e+37)
(-3.2306092e+39 1.6668753e+37 -7.0461046e+37)
(-3.2412162e+39 7.5068667e+36 -7.2207558e+37)
(-3.1853628e+39 1.6756936e+37 -6.3354095e+37)
(-3.1952635e+39 7.3404449e+36 -6.5520273e+37)
(-3.3069602e+39 2.2962998e+37 7.1786265e+36)
(-3.3202138e+39 4.6581388e+36 5.397202e+36)
(-3.1948397e+39 2.0304844e+37 -5.9995955e+37)
(-3.1873344e+39 9.3898561e+36 -6.0927525e+37)
(-3.3202574e+39 2.4788511e+37 1.105813e+37)
(-3.3111974e+39 4.2927756e+36 1.1090217e+37)
(-3.3123235e+39 6.4714987e+36 -1.1869769e+38)
(-3.303898e+39 1.7747139e+36 -1.2472895e+38)
(-3.941638e+39 -4.159566e+35 -1.6031509e+38)
(-3.3382851e+39 -1.9276407e+35 -1.6194874e+38)
(-3.3470666e+39 4.7270105e+36 -1.5348143e+38)
(-3.3030276e+39 6.8228073e+36 -1.2242404e+38)
(-3.316307e+39 2.6381602e+36 -1.19747e+38)
(-3.9560295e+39 -2.5610982e+36 -1.5600928e+38)
(-3.3455901e+39 5.7428541e+35 -1.5825487e+38)
(-3.3383845e+39 6.0165394e+36 -1.5892871e+38)
(-3.1914919e+39 5.1832911e+36 -1.2521611e+38)
(-3.2293374e+39 6.858527e+36 -1.105024e+38)
(-3.2032335e+39 6.2073835e+36 -1.2443348e+38)
(-3.2411502e+39 4.991737e+36 -1.0945189e+38)
(-3.2013405e+39 5.5134613e+36 -1.2070203e+38)
(-3.2413062e+39 8.2705459e+36 -1.0596187e+38)
(-3.1942694e+39 5.2666896e+36 -1.2627121e+38)
(-3.2322517e+39 4.9771724e+36 -1.0992988e+38)
(-3.9278505e+39 -1.416324e+37 -1.9521581e+38)
(-3.9089281e+39 2.0966056e+36 -2.0154586e+38)
(-3.3258459e+39 1.3798471e+36 -1.1255361e+38)
(-3.9435398e+39 1.1057332e+37 -1.4774137e+38)
(-3.3610279e+39 1.1308612e+37 -1.4779861e+38)
(-3.3639267e+39 -4.5190942e+35 -1.4864062e+38)
(-3.2944146e+39 2.5509564e+36 -1.284281e+38)
(-3.291164e+39 5.1665806e+36 -1.2809176e+38)
(-3.9249306e+39 5.7600549e+36 -1.5890767e+38)
(-3.3279053e+39 1.6423063e+36 -1.658264e+38)
(-3.3189343e+39 3.9221494e+36 -1.6772442e+38)
(-3.1831324e+39 1.6113082e+35 -1.310994e+38)
(-3.1801967e+39 7.3081487e+36 -1.3259586e+38)
(-3.2233921e+39 3.5901345e+36 -1.1477809e+38)
(-3.2167169e+39 6.4991673e+36 -1.1609933e+38)
(-3.8942148e+39 5.0295743e+36 -1.9582522e+38)
(-3.928986e+39 3.8341791e+36 -1.7747325e+38)
(-3.1644996e+39 7.5853996e+36 -1.181984e+38)
(-3.1558212e+39 7.5680945e+36 -1.221496e+38)
(-3.2102122e+39 1.0665836e+37 -1.0442781e+38)
(-3.2012108e+39 6.9479982e+36 -1.0685065e+38)
(-3.1522731e+39 5.8731334e+36 -1.2343456e+38)
(-3.1992637e+39 8.9244793e+36 -1.0834064e+38)
(-3.1637556e+39 8.0416556e+36 -1.2265498e+38)
(-3.2098302e+39 7.2063931e+36 -1.0839956e+38)
(-3.1267135e+39 8.9463591e+36 -1.1120813e+38)
(-3.1978747e+39 1.3176615e+37 -8.3158032e+37)
(-3.1370563e+39 8.2028295e+36 -1.1149796e+38)
(-3.209237e+39 5.5461417e+36 -8.3694987e+37)
(-3.1378333e+39 1.1817514e+37 -1.062796e+38)
(-3.2097725e+39 1.6127768e+37 -7.8898412e+37)
(-3.1301997e+39 8.4378905e+36 -1.0892719e+38)