/*--------------------------------*- C++ -*----------------------------------*\
  =========                 |
  \\      /  F ield         | OpenFOAM: The Open Source CFD Toolbox
   \\    /   O peration     | Website:  https://openfoam.org
    \\  /    A nd           | Version:  7
     \\/     M anipulation  |
\*---------------------------------------------------------------------------*/
FoamFile
{
    version     2.0;
    format      ascii;
    class       volVectorField;
    location    "6000";
    object      U;
}
// * * * * * * * * * * * * * * * * * * * * * * * * * * * * * * * * * * * * * //

dimensions      [0 1 -1 0 0 0 0];

internalField   nonuniform List<vector> 
33943
(
(-9.1297816e+35 2.2230738e+35 3.1447206e+34)
(-7.0568764e+35 1.1453723e+35 6.8088558e+34)
(-7.2084208e+35 1.379762e+35 1.3584887e+35)
(-7.8814387e+35 1.0925524e+35 4.2198927e+34)
(-1.002507e+36 1.7064772e+35 1.6938651e+34)
(-7.710475e+35 2.4852901e+35 -7.7448284e+34)
(-5.4528683e+35 1.3698432e+35 -2.1866064e+34)
(-9.1260701e+35 1.7879442e+35 2.4633597e+34)
(-7.2645524e+35 1.0046994e+35 6.3186593e+34)
(-7.1755879e+35 1.578355e+35 4.8075772e+34)
(-7.7121382e+35 1.2075819e+35 1.2243889e+35)
(-7.7445459e+35 1.3996026e+35 1.0186104e+35)
(-5.801121e+35 6.6191911e+34 6.6572518e+34)
(-6.4868184e+35 8.9766953e+34 1.2046936e+35)
(-6.5962894e+35 7.8585299e+34 1.1018932e+35)
(-5.8626609e+35 8.7365077e+34 5.8103436e+34)
(-7.8957726e+35 6.4901623e+34 -5.795269e+34)
(-7.9310227e+35 1.1286665e+35 7.5679267e+34)
(-7.973303e+35 1.161306e+35 7.2296371e+33)
(-8.1948413e+35 9.7872468e+34 3.1666971e+34)
(-1.0560643e+36 1.320834e+35 5.170055e+34)
(-6.6880155e+35 7.1206096e+34 4.5495096e+34)
(-6.7370479e+35 7.8593383e+34 6.0216995e+34)
(-1.0714752e+36 1.0190306e+35 6.0273628e+33)
(-8.1863154e+35 1.1866608e+35 2.3927591e+34)
(-8.3216631e+35 1.4579012e+35 -7.2436323e+34)
(-8.5894087e+35 1.3444732e+35 -2.8903322e+34)
(-8.4551241e+35 1.3005312e+35 6.4721257e+34)
(-7.7106571e+35 2.0646699e+35 -7.4290529e+34)
(-7.3578072e+35 9.8837235e+34 -1.2862633e+35)
(-7.2810861e+35 1.4922659e+35 -1.2560199e+35)
(-5.7806347e+35 1.1957009e+35 -2.7931241e+34)
(-5.5828907e+35 1.9086601e+35 -3.2767634e+34)
(-5.9280517e+35 7.2182271e+34 -7.9861032e+34)
(-6.027299e+35 7.3536439e+34 -1.2561292e+35)
(-5.3196583e+35 7.015601e+34 -1.0712301e+35)
(-5.3915792e+35 8.8084668e+34 -1.0650112e+35)
(-3.9196802e+35 8.623666e+34 -5.5237913e+33)
(-3.9071267e+35 1.2397193e+35 -9.8320816e+33)
(-7.4159689e+35 9.0501949e+34 6.4680386e+34)
(-7.3819265e+35 1.3980765e+35 5.1374749e+34)
(-7.9803433e+35 9.5447209e+34 1.1783874e+35)
(-8.1517275e+35 1.1270999e+35 1.068224e+35)
(-5.9042887e+35 5.9797276e+34 6.5181142e+34)
(-5.9710408e+35 8.6804303e+34 5.8221078e+34)
(-6.8226547e+35 7.7452239e+34 1.0389857e+35)
(-6.6792662e+35 8.2974954e+34 1.0900661e+35)
(-5.8812386e+35 6.3399778e+34 6.0396344e+34)
(-5.8856189e+35 9.5457414e+34 5.2132297e+34)
(-6.6806391e+35 8.2514602e+34 1.0573987e+35)
(-6.7551351e+35 8.805461e+34 9.4291929e+34)
(-4.8446216e+35 5.1822598e+34 5.5375906e+34)
(-5.7357121e+35 4.785606e+34 8.7695793e+34)
(-4.789192e+35 3.7752033e+34 6.1270625e+34)
(-5.6181712e+35 5.6363914e+34 9.3418376e+34)
(-4.7797544e+35 3.4168091e+34 5.7399014e+34)
(-4.8351398e+35 5.2403588e+34 5.3865949e+34)
(-5.6375016e+35 4.8285026e+34 9.0108178e+34)
(-5.73471e+35 4.6238519e+34 8.5287937e+34)
(-1.052481e+36 9.4574658e+34 1.353124e+34)
(-8.1953015e+35 5.6565461e+34 -6.1600943e+34)
(-8.3218438e+35 1.036252e+35 7.2786321e+34)
(-7.9954937e+35 7.0505044e+34 -8.2470954e+34)
(-8.3155188e+35 7.1865362e+34 5.5815036e+34)
(-6.7689111e+35 7.0931298e+34 2.2444074e+34)
(-6.4986054e+35 4.6082698e+34 -4.8876399e+34)
(-6.7920424e+35 4.385673e+34 1.5113432e+34)
(-6.4106974e+35 4.7129568e+34 -5.8527398e+34)
(-6.8203667e+35 8.4656477e+34 6.4436339e+34)
(-6.7755434e+35 6.1545982e+34 -1.2487954e+34)
(-6.8775944e+35 5.5308512e+34 5.8436958e+34)
(-6.7176047e+35 6.3440253e+34 -2.2918001e+34)
(-6.828962e+35 7.3105027e+34 4.7403684e+34)
(-6.7814031e+35 7.9786368e+34 3.718286e+34)
(-6.8509379e+35 7.2086383e+34 5.1662308e+34)
(-6.8339574e+35 6.9665623e+34 4.0620766e+34)
(-8.3087703e+35 9.699528e+34 1.4408295e+34)
(-1.0770059e+36 8.2115275e+34 4.4115695e+34)
(-8.3787558e+35 7.3566244e+34 2.7158502e+34)
(-8.1087193e+35 7.4939589e+34 4.5380557e+34)
(-8.2288871e+35 1.0530939e+35 6.6543528e+34)
(-8.4976468e+35 9.8993214e+34 -2.1728695e+34)
(-8.0030563e+35 1.2526879e+35 -5.9534891e+34)
(-5.6991014e+35 4.5983651e+34 5.4100833e+34)
(-5.7023599e+35 4.2098882e+34 4.8453854e+34)
(-5.6944643e+35 5.1736972e+34 5.8012925e+34)
(-5.7007408e+35 4.3352739e+34 4.9809623e+34)
(-9.1638206e+35 9.2914438e+34 4.5403881e+34)
(-8.3626238e+35 3.7260338e+34 4.5987483e+34)
(-8.9032805e+35 9.3441486e+34 -6.2913609e+34)
(-9.2752474e+35 1.0870513e+35 -4.8085494e+34)
(-7.3009831e+35 1.5151292e+35 -1.2058239e+34)
(-7.5803294e+35 1.8736927e+35 9.8209761e+33)
(-7.3457333e+35 2.0397154e+35 1.6416886e+34)
(-7.267158e+35 1.6070782e+35 1.4641723e+34)
(-7.5736933e+35 8.6172449e+34 -1.2383961e+35)
(-7.5071542e+35 1.3402031e+35 -1.250456e+35)
(-5.9301961e+35 1.012048e+35 -3.113686e+34)
(-5.7930669e+35 1.6575111e+35 -3.5568103e+34)
(-6.4357579e+35 6.9076213e+34 -1.2430154e+35)
(-6.2807993e+35 7.4728475e+34 -1.315547e+35)
(-6.1844469e+35 7.0711166e+34 -8.4798358e+34)
(-6.2365839e+35 8.6261785e+34 -8.1561304e+34)
(-6.2250811e+35 7.246875e+34 -1.2855112e+35)
(-6.1139883e+35 7.013909e+34 -8.2289493e+34)
(-6.1198247e+35 9.1344881e+34 -7.8002796e+34)
(-6.3288044e+35 7.1402844e+34 -1.179152e+35)
(-5.5183862e+35 6.6028389e+34 -1.1326754e+35)
(-5.5781212e+35 8.8517873e+34 -1.1344126e+35)
(-4.0829798e+35 1.190782e+35 -1.3457475e+34)
(-4.0829052e+35 7.5017231e+34 -1.0240329e+34)
(-5.4732291e+35 6.7418331e+34 -1.1107832e+35)
(-5.4641962e+35 9.3887417e+34 -1.0977556e+35)
(-3.9498523e+35 1.2922822e+35 -1.8170689e+34)
(-4.0624095e+35 8.2252359e+34 -1.1416532e+34)
(-6.5390011e+35 7.4155597e+34 -1.0677579e+35)
(-6.3606142e+35 6.091443e+34 -5.6677668e+34)
(-5.1055811e+35 4.5790982e+34 -1.1371631e+35)
(-5.014643e+35 5.3016956e+34 -1.1920539e+35)
(-4.2180463e+35 4.4714313e+34 -9.7814477e+34)
(-4.2916971e+35 5.1371304e+34 -9.4605284e+34)
(-4.9938596e+35 4.6737293e+34 -1.1606656e+35)
(-4.2097906e+35 3.9654349e+34 -9.421354e+34)
(-3.2629505e+35 5.1474531e+34 -8.7169911e+34)
(-3.3408282e+35 5.9928842e+34 -8.8139034e+34)
(-2.8203706e+35 4.9701417e+34 1.8245769e+34)
(-2.8398238e+35 7.9410912e+34 1.2007693e+34)
(-3.2654562e+35 4.767509e+34 -8.3510087e+34)
(-2.8133791e+35 4.730412e+34 1.7306609e+34)
(-2.7858078e+35 8.0886167e+34 7.9034739e+33)
(-8.2580957e+35 8.0491173e+34 9.2144936e+34)
(-6.0878193e+35 8.3404546e+34 5.89618e+34)
(-6.0297787e+35 5.7484299e+34 6.4729824e+34)
(-6.8097522e+35 6.9636454e+34 1.0555267e+35)
(-6.9729784e+35 6.6902351e+34 1.0298469e+35)
(-5.9686324e+35 8.757614e+34 5.3936907e+34)
(-6.9893801e+35 7.9115562e+34 9.5083205e+34)
(-5.9951064e+35 5.9635464e+34 6.0999088e+34)
(-6.9670256e+35 7.3948972e+34 1.0650798e+35)
(-4.8686478e+35 3.3676695e+34 6.2831476e+34)
(-4.8928172e+35 4.981428e+34 5.6483545e+34)
(-5.7289637e+35 5.3350077e+34 8.8710647e+34)
(-5.7939281e+35 4.8231004e+34 8.0889855e+34)
(-4.8722416e+35 3.5362704e+34 6.0045525e+34)
(-4.8834584e+35 5.4306899e+34 5.4435202e+34)
(-5.8296347e+35 4.8135517e+34 8.8228701e+34)
(-5.8129477e+35 4.9597555e+34 7.8952739e+34)
(-4.8429646e+35 3.7624124e+34 6.0821865e+34)
(-4.8768425e+35 5.5037039e+34 5.325958e+34)
(-5.7238174e+35 5.2275784e+34 8.7426286e+34)
(-5.7775407e+35 4.9898853e+34 7.9662903e+34)
(-4.8467205e+35 3.9812229e+34 5.786655e+34)
(-4.8548755e+35 5.7717461e+34 5.2104613e+34)
(-5.766957e+35 5.463627e+34 7.8279442e+34)
(-5.7500147e+35 5.3323478e+34 8.5687053e+34)
(-4.0694392e+35 2.0612629e+34 5.5663408e+34)
(-4.1161501e+35 3.3054829e+34 5.4152641e+34)
(-4.8819601e+35 2.842635e+34 7.6415948e+34)
(-4.903903e+35 2.9108048e+34 7.2409189e+34)
(-4.0934841e+35 2.0596748e+34 5.8839885e+34)
(-4.1273436e+35 3.2198501e+34 5.5255043e+34)
(-4.8142744e+35 3.3821728e+34 7.7733032e+34)
(-4.8729501e+35 3.0373352e+34 7.3972314e+34)
(-4.064185e+35 1.8438421e+34 5.7333116e+34)
(-4.0998138e+35 3.1487739e+34 5.3265387e+34)
(-4.8165417e+35 2.9421173e+34 7.6038747e+34)
(-4.8698196e+35 2.7963228e+34 7.2054946e+34)
(-4.8659113e+35 2.7413416e+34 7.5663448e+34)
(-4.0605673e+35 2.0568675e+34 5.4568724e+34)
(-4.0585447e+35 3.2419725e+34 5.2273521e+34)
(-4.8745598e+35 2.7840616e+34 7.1512383e+34)
(-1.0698004e+36 6.5208968e+34 1.1818542e+34)
(-8.5996771e+35 5.5503184e+34 5.5006471e+34)
(-8.3638643e+35 4.0141825e+34 -6.6431532e+34)
(-8.2464942e+35 5.7862017e+34 -8.3610951e+34)
(-7.8479757e+35 3.97557e+34 3.6461267e+34)
(-7.9267105e+35 7.9446568e+34 -6.222e+34)
(-8.0292035e+35 7.2257964e+34 -4.6119624e+34)
(-7.8493541e+35 8.2206507e+34 4.3460358e+34)
(-8.5724971e+35 8.2434923e+34 6.8533657e+34)
(-6.6230821e+35 4.1882433e+34 -4.7589784e+34)
(-6.5459428e+35 4.5996823e+34 -7.1030244e+34)
(-6.8981465e+35 4.1820667e+34 1.0370231e+34)
(-6.9326357e+35 6.6639212e+34 2.2952665e+34)
(-6.8529357e+35 5.722136e+34 -1.9347912e+34)
(-6.9723079e+35 7.8886551e+34 6.0060536e+34)
(-7.0322714e+35 5.2700881e+34 5.3988391e+34)
(-6.7873748e+35 6.2593634e+34 -3.2214644e+34)
(-6.9370556e+35 4.9026339e+34 8.2565155e+33)
(-6.5134515e+35 5.3194639e+34 -6.4124566e+34)
(-6.5938498e+35 4.0667157e+34 -5.4369542e+34)
(-6.9004189e+35 6.4555673e+34 1.5148437e+34)
(-7.0261512e+35 6.2857716e+34 5.1898009e+34)
(-6.9563567e+35 8.2501812e+34 5.4671396e+34)
(-6.8031306e+35 5.6139303e+34 -2.5544761e+34)
(-6.8211867e+35 7.0365789e+34 -2.795944e+34)
(-5.6746246e+35 5.0061486e+34 1.5590149e+33)
(-5.5760197e+35 4.4981571e+34 -3.4831422e+34)
(-5.5736715e+35 4.0933658e+34 -3.0558497e+34)
(-5.7062832e+35 3.7358661e+34 -1.66102e+33)
(-5.7310035e+35 3.710884e+34 -6.5481336e+33)
(-5.7037547e+35 4.9231283e+34 -4.0334646e+33)
(-5.5496593e+35 4.0707951e+34 -3.5622363e+34)
(-5.5847459e+35 4.4318861e+34 -3.8501058e+34)
(-5.6633046e+35 4.6162068e+34 5.2960649e+32)
(-5.5550758e+35 4.318037e+34 -3.4984535e+34)
(-5.5424543e+35 3.5190755e+34 -3.1650103e+34)
(-5.6846942e+35 3.5810649e+34 -2.3350167e+33)
(-5.7095541e+35 3.5927442e+34 -7.3328412e+33)
(-5.6799937e+35 4.3626935e+34 -5.5256119e+33)
(-5.8856958e+35 3.7225644e+34 6.027479e+34)
(-5.7911151e+35 4.6440578e+34 9.765442e+33)
(-5.7623397e+35 4.6224813e+34 9.4395052e+32)
(-5.8497076e+35 5.904824e+34 6.6572604e+34)
(-5.6204871e+35 4.4486266e+34 -2.5418742e+34)
(-5.7717677e+35 5.5365614e+34 2.5081016e+34)
(-5.6343262e+35 4.2990873e+34 -1.7678756e+34)
(-5.802126e+35 3.8375638e+34 1.9115444e+34)
(-5.7665036e+35 4.0603045e+34 7.5842178e+33)
(-5.8549071e+35 5.5355651e+34 6.3181033e+34)
(-5.8936822e+35 3.5298463e+34 6.0752774e+34)
(-5.7522522e+35 4.4034257e+34 1.8193093e+33)
(-5.7892931e+35 3.5678766e+34 1.8551358e+34)
(-5.6230077e+35 3.7734264e+34 -1.8453557e+34)
(-5.7733509e+35 4.8861551e+34 2.3462841e+34)
(-5.588859e+35 4.2190382e+34 -2.5053447e+34)
(-5.7496196e+35 4.5512071e+34 4.1849802e+34)
(-5.7632727e+35 4.7620595e+34 5.1971947e+34)
(-5.7344825e+35 5.0512903e+34 4.3439534e+34)
(-5.7923026e+35 4.9435911e+34 5.1827789e+34)
(-5.7908363e+35 4.3604371e+34 4.5131604e+34)
(-7.0072371e+35 7.1389886e+34 4.1382976e+34)
(-5.7834218e+35 4.9601451e+34 5.3950978e+34)
(-5.7706898e+35 4.5725864e+34 4.2859336e+34)
(-5.8592363e+35 4.5751418e+34 5.3984144e+34)
(-7.0742507e+35 6.5428119e+34 5.1939664e+34)
(-8.4787585e+35 7.1041198e+34 -6.5633446e+32)
(-8.1884063e+35 -2.1746621e+32 5.1475528e+34)
(-8.2004466e+35 3.3592019e+34 -4.7508176e+34)
(-8.6796876e+35 5.8668719e+34 -3.2721938e+34)
(-8.305743e+35 7.168107e+34 5.9373164e+34)
(-7.0603072e+35 6.1492709e+34 4.4501769e+34)
(-7.0083605e+35 6.2144677e+34 5.1705206e+34)
(-7.564933e+35 1.016395e+35 -6.0815853e+33)
(-7.6715017e+35 1.1087375e+35 1.1031674e+34)
(-7.5797267e+35 1.3540913e+35 1.6838078e+34)
(-7.3743329e+35 1.222815e+35 -2.0811345e+34)
(-4.791211e+35 2.7896776e+34 5.0037579e+34)
(-4.796579e+35 2.4477949e+34 4.3744524e+34)
(-4.8214049e+35 2.6132481e+34 4.8926783e+34)
(-4.7836026e+35 2.4326297e+34 4.4244159e+34)
(-4.8063177e+35 3.2021327e+34 5.2728232e+34)
(-4.8121058e+35 2.6585516e+34 4.6291626e+34)
(-4.8375023e+35 2.7533063e+34 4.9429327e+34)
(-4.809514e+35 2.5939132e+34 4.4822641e+34)
(-7.4915945e+35 1.1834433e+35 -1.4961096e+34)
(-7.7195469e+35 8.4806925e+34 -2.7843086e+33)
(-7.9953175e+35 1.2428747e+35 1.7079087e+34)
(-7.9293242e+35 1.6001085e+35 -6.187416e+33)
(-8.1721403e+35 1.3566449e+35 -1.5838116e+34)
(-7.0574289e+35 1.4181026e+35 8.0312098e+33)
(-7.1798292e+35 1.3123776e+35 1.6778487e+34)
(-6.9664344e+35 8.6169851e+34 1.4266368e+34)
(-7.8438678e+35 9.5794129e+34 -1.0237937e+35)
(-7.6857052e+35 9.3848686e+34 -9.945566e+34)
(-7.805868e+35 7.7346115e+34 -6.0576675e+34)
(-6.4986726e+35 6.6525715e+34 -1.3027571e+35)
(-6.6442575e+35 6.2289746e+34 -1.2505767e+35)
(-6.4078741e+35 7.9360315e+34 -8.4188378e+34)
(-6.3388768e+35 6.2409033e+34 -8.5393261e+34)
(-6.4457542e+35 6.9499047e+34 -1.3102786e+35)
(-6.5505822e+35 6.9401598e+34 -1.2326266e+35)
(-6.3182995e+35 8.7102063e+34 -8.3264122e+34)
(-6.2839015e+35 6.563603e+34 -8.5089503e+34)
(-5.660638e+35 5.9639866e+34 -1.149306e+35)
(-5.7174141e+35 8.2021402e+34 -1.1527095e+35)
(-4.1817512e+35 6.5633221e+34 -1.3804756e+34)
(-4.1789029e+35 1.0878913e+35 -1.6245274e+34)
(-5.621692e+35 6.3009294e+34 -1.1370126e+35)
(-5.6266733e+35 8.7295923e+34 -1.1433566e+35)
(-4.1650428e+35 7.1221088e+34 -1.3244645e+34)
(-4.0698872e+35 1.1579507e+35 -2.1000188e+34)
(-6.6102165e+35 6.2488612e+34 -5.323229e+34)
(-6.5652618e+35 6.3008087e+34 -6.411079e+34)
(-6.7417229e+35 7.3605228e+34 -1.0998139e+35)
(-6.733104e+35 7.0035622e+34 -1.0782829e+35)
(-6.5221432e+35 6.1578392e+34 -6.1858129e+34)
(-6.6580441e+35 7.4246723e+34 -1.0888155e+35)
(-6.6167888e+35 7.2219474e+34 -1.0526333e+35)
(-6.4925299e+35 6.2633108e+34 -4.8429671e+34)
(-5.2376216e+35 5.4778888e+34 -1.2370086e+35)
(-5.3019384e+35 4.8529069e+34 -1.1907563e+35)
(-4.4409783e+35 5.1576897e+34 -1.0071939e+35)
(-4.3903191e+35 4.3186358e+34 -1.0346783e+35)
(-4.3866994e+35 4.1347251e+34 -1.0146918e+35)
(-5.2336928e+35 5.1409273e+34 -1.2202613e+35)
(-5.2818601e+35 4.9595924e+34 -1.1703459e+35)
(-4.419448e+35 5.3942707e+34 -1.000531e+35)
(-3.4291075e+35 6.1497346e+34 -9.3306891e+34)
(-2.9035779e+35 4.4795936e+34 1.4632978e+34)
(-2.8691051e+35 7.9798937e+34 5.5266961e+33)
(-3.4017481e+35 4.6874553e+34 -9.0600913e+34)
(-3.3974732e+35 4.6871754e+34 -9.2089134e+34)
(-3.4532156e+35 5.8651583e+34 -9.3023032e+34)
(-2.8878717e+35 4.1258326e+34 1.4604907e+34)
(-2.9054022e+35 7.4629712e+34 9.8655445e+33)
(-5.1689622e+35 5.3901658e+34 -1.2259388e+35)
(-5.239435e+35 4.833081e+34 -1.1706294e+35)
(-4.3459992e+35 4.4096386e+34 -1.0231882e+35)
(-4.4032305e+35 5.2692899e+34 -9.9157894e+34)
(-4.3047371e+35 4.2921902e+34 -9.8603743e+34)
(-5.1265449e+35 5.15098e+34 -1.1903361e+35)
(-5.182374e+35 5.0113499e+34 -1.1289124e+35)
(-4.3412506e+35 5.5840568e+34 -9.6695083e+34)
(-3.3468534e+35 5.0443396e+34 -8.8303697e+34)
(-3.3589934e+35 6.4703452e+34 -9.1004122e+34)
(-2.8718904e+35 5.1968736e+34 1.2398936e+34)
(-2.8130436e+35 8.5309993e+34 3.5509603e+33)
(-3.3675109e+35 4.9697821e+34 -9.1479859e+34)
(-3.4342318e+35 6.1421305e+34 -9.2443283e+34)
(-2.8793938e+35 4.8488686e+34 1.3060418e+34)
(-2.9008985e+35 8.1690297e+34 7.6882744e+33)
(-6.68736e+35 6.442626e+34 -8.1336307e+34)
(-5.2806542e+35 4.8122092e+34 -8.7686436e+34)
(-5.3070445e+35 4.3003287e+34 -7.9327054e+34)
(-6.3244035e+35 6.5990415e+34 -8.1696082e+34)
(-6.5111625e+35 3.8989256e+34 -7.8016909e+34)
(-6.6747171e+35 6.0344101e+34 -7.9882577e+34)
(-5.263403e+35 4.3829674e+34 -8.4727895e+34)
(-4.8151011e+35 4.3160945e+34 -1.2574826e+35)
(-4.8567229e+35 3.9832183e+34 -1.2350095e+35)
(-4.8183579e+35 4.1000308e+34 -1.23097e+35)
(-2.9955025e+35 3.5290507e+34 -1.1322345e+35)
(-3.0219343e+35 3.0769652e+34 -1.091018e+35)
(-2.5363252e+35 3.7332885e+34 -8.0003741e+34)
(-2.4975544e+35 3.3297091e+34 -8.2595998e+34)
(-2.5072912e+35 2.9058364e+34 -7.992578e+34)
(-3.0417732e+35 3.0321351e+34 -1.0805724e+35)
(-3.0173817e+35 3.1461612e+34 -1.1067407e+35)
(-2.550339e+35 3.8036236e+34 -8.063478e+34)
(-2.4806162e+35 2.2073459e+34 4.2748397e+34)
(-2.5206614e+35 4.2154929e+34 4.0771306e+34)
(-1.7848637e+35 4.0889564e+34 -3.5138645e+34)
(-1.8350353e+35 4.0161476e+34 -3.7667472e+34)
(-1.8171055e+35 3.7787866e+34 -3.0891671e+34)
(-2.4747021e+35 2.2352415e+34 4.0536155e+34)
(-1.8244971e+35 4.128593e+34 -4.0881229e+34)
(-2.4628245e+35 4.349579e+34 3.4735039e+34)
(-2.9614879e+35 3.2172821e+34 -1.102595e+35)
(-2.9974807e+35 2.8768757e+34 -1.0638528e+35)
(-2.4717972e+35 3.0116551e+34 -7.9836015e+34)
(-2.5232108e+35 3.6538185e+34 -7.8049304e+34)
(-1.7819254e+35 3.7837446e+34 -3.0595586e+34)
(-2.4572537e+35 1.9423551e+34 4.0887203e+34)
(-1.8316596e+35 3.9978487e+34 -3.53948e+34)
(-2.4988302e+35 4.2504233e+34 3.7437936e+34)
(-1.8065264e+35 3.7801657e+34 -2.8185361e+34)
(-2.4669996e+35 2.3510091e+34 3.8665321e+34)
(-6.1022792e+35 8.1158427e+34 5.0789364e+34)
(-7.0236459e+35 6.2815483e+34 8.5407439e+34)
(-4.9781701e+35 3.7245663e+34 6.0397745e+34)
(-5.9223423e+35 4.7618643e+34 8.6858253e+34)
(-4.9899915e+35 5.4541292e+34 5.6786747e+34)
(-5.9473614e+35 4.7689695e+34 8.1502378e+34)
(-5.0012444e+35 5.2169616e+34 5.6062571e+34)
(-5.9042827e+35 4.5273046e+34 8.036177e+34)
(-4.9887156e+35 3.5816677e+34 6.2965874e+34)
(-5.8394405e+35 4.9788169e+34 8.4702146e+34)
(-4.9208509e+35 3.6935907e+34 5.9623856e+34)
(-4.9078967e+35 5.3037776e+34 5.538628e+34)
(-5.9119389e+35 5.2676618e+34 8.5533154e+34)
(-5.9242019e+35 5.2014834e+34 7.9774865e+34)
(-4.9451308e+35 3.6573435e+34 6.2500988e+34)
(-5.9037606e+35 5.1134369e+34 8.8128517e+34)
(-4.9397568e+35 5.3940206e+34 5.4560317e+34)
(-5.9442973e+35 4.9715966e+34 8.1283016e+34)
(-4.1390125e+35 1.9221053e+34 5.9624261e+34)
(-4.1432781e+35 3.0255959e+34 5.5697832e+34)
(-4.9074986e+35 3.3288195e+34 7.7270678e+34)
(-4.9421138e+35 3.0839388e+34 7.369096e+34)
(-4.1243956e+35 1.9914407e+34 5.5702657e+34)
(-4.1360492e+35 3.255084e+34 5.3997282e+34)
(-4.9240572e+35 2.9661334e+34 7.1938592e+34)
(-4.9449083e+35 3.0979253e+34 6.9067623e+34)
(-4.9397928e+35 3.0638323e+34 7.5736949e+34)
(-4.1217634e+35 2.0347699e+34 5.7838617e+34)
(-4.1306846e+35 3.3620229e+34 5.3487945e+34)
(-4.9774311e+35 3.0074176e+34 7.1379228e+34)
(-4.105034e+35 2.2808169e+34 5.4439903e+34)
(-4.1140158e+35 3.4576003e+34 5.2589845e+34)
(-4.9300186e+35 3.1190935e+34 6.8341985e+34)
(-4.9177054e+35 3.0043097e+34 7.1585264e+34)
(-4.1027541e+35 2.1532503e+34 5.7365157e+34)
(-4.1305912e+35 3.3579026e+34 5.3448741e+34)
(-4.920005e+35 2.976327e+34 7.0456941e+34)
(-4.8655366e+35 3.1289568e+34 7.4236474e+34)
(-4.1082472e+35 2.3150947e+34 5.44447e+34)
(-4.1155743e+35 3.6187828e+34 5.2148e+34)
(-4.9184156e+35 3.183171e+34 6.7961431e+34)
(-4.8971496e+35 2.9725948e+34 7.1644144e+34)
(-4.1189143e+35 2.3637057e+34 5.7178672e+34)
(-4.1308633e+35 3.6138217e+34 5.167945e+34)
(-4.9330067e+35 3.2193822e+34 7.0085991e+34)
(-4.8873443e+35 3.2794356e+34 7.4814054e+34)
(-4.0961574e+35 2.4646277e+34 5.3906726e+34)
(-4.1101492e+35 3.608585e+34 5.2125877e+34)
(-4.9030299e+35 3.3892e+34 6.8660413e+34)
(-4.8880079e+35 3.2467578e+34 7.2623668e+34)
(-3.2736849e+35 2.3819697e+34 6.151583e+34)
(-3.2477187e+35 1.0252321e+34 6.4934365e+34)
(-4.2447341e+35 1.8079278e+34 6.5737392e+34)
(-4.2824442e+35 1.8400533e+34 6.3404651e+34)
(-3.2357657e+35 1.2511961e+34 6.1880734e+34)
(-3.2660041e+35 2.4845087e+34 6.2179359e+34)
(-4.2671201e+35 1.7957862e+34 6.473332e+34)
(-4.257174e+35 1.7209479e+34 6.7244667e+34)
(-4.2304986e+35 1.9848112e+34 6.9966442e+34)
(-3.2785416e+35 1.098425e+34 6.6755646e+34)
(-3.2703323e+35 2.3048497e+34 6.3122678e+34)
(-4.2632503e+35 1.8975526e+34 6.5591164e+34)
(-3.27797e+35 2.4657653e+34 6.2516805e+34)
(-3.2392396e+35 1.1291242e+34 6.2700373e+34)
(-4.2571199e+35 1.6985426e+34 6.7505648e+34)
(-4.2781964e+35 1.889229e+34 6.5032095e+34)
(-3.2211498e+35 9.03104e+33 6.5593893e+34)
(-3.2521547e+35 2.2266437e+34 6.2354014e+34)
(-4.1996494e+35 1.7444592e+34 6.6013178e+34)
(-4.2477761e+35 1.6365528e+34 6.6148309e+34)
(-4.2246054e+35 1.5572457e+34 6.3466893e+34)
(-3.2031683e+35 1.0393996e+34 6.1499204e+34)
(-3.2544944e+35 2.4739168e+34 6.1190058e+34)
(-4.2574759e+35 1.7715114e+34 6.350719e+34)
(-3.2516925e+35 2.4814111e+34 6.0037337e+34)
(-3.2285741e+35 1.0252407e+34 6.3820365e+34)
(-4.2219263e+35 1.7346575e+34 6.5059361e+34)
(-4.2601649e+35 1.7741085e+34 6.4756682e+34)
(-3.2217684e+35 2.2925574e+34 6.1349171e+34)
(-3.2023404e+35 1.2657609e+34 6.0470324e+34)
(-4.2109501e+35 1.6659548e+34 6.511606e+34)
(-4.2268779e+35 1.6747544e+34 6.2909694e+34)
(-8.3640901e+35 3.6841292e+34 -8.9635996e+34)
(-8.0792583e+35 5.8018162e+33 3.2389068e+34)
(-7.9622531e+35 5.2949077e+34 3.8186522e+34)
(-8.146339e+35 4.0968608e+34 -5.5963383e+34)
(-8.0974444e+35 3.1061238e+34 -7.3018346e+34)
(-8.7809352e+35 3.1180266e+34 4.9685443e+34)
(-7.2070807e+35 7.2667428e+34 5.9298854e+34)
(-7.2697869e+35 5.3582312e+34 5.8287337e+34)
(-6.9691189e+35 6.3794695e+34 -2.774598e+34)
(-6.9593882e+35 4.7069312e+34 -2.8293512e+34)
(-6.752534e+35 3.4172018e+34 -5.0161128e+34)
(-7.1406871e+35 3.3012383e+34 1.3862087e+34)
(-6.7319066e+35 3.8729695e+34 -6.0439287e+34)
(-7.0764825e+35 5.7120474e+34 2.0961396e+34)
(-6.7346922e+35 3.450489e+34 -5.7288223e+34)
(-7.0990955e+35 4.2008166e+34 8.7759934e+33)
(-6.6608814e+35 4.7543122e+34 -6.3854112e+34)
(-7.0746502e+35 5.69095e+34 1.3234949e+34)
(-7.6239549e+35 6.8964405e+34 -8.3987949e+33)
(-7.7253678e+35 8.7707019e+34 7.4037018e+33)
(-7.792884e+35 9.5032516e+34 3.17976e+32)
(-7.6934008e+35 8.2952956e+34 -1.8983592e+34)
(-7.0044369e+35 4.802352e+34 -2.0165721e+34)
(-7.2398337e+35 4.2454355e+34 5.7150911e+34)
(-7.1358209e+35 6.7702758e+34 5.9775531e+34)
(-7.0453658e+35 5.4000744e+34 -2.2418701e+34)
(-5.6409669e+35 4.1914957e+34 -3.7818149e+34)
(-5.6169642e+35 3.9690801e+34 -3.4823488e+34)
(-5.8056679e+35 4.8153211e+34 -3.2067749e+33)
(-5.8413692e+35 3.4627443e+34 -4.7510556e+33)
(-5.5961191e+35 3.4446905e+34 -4.580614e+34)
(-5.6121471e+35 4.5988298e+34 -4.7399741e+34)
(-5.7454539e+35 4.2962303e+34 -1.0525235e+34)
(-5.7751363e+35 3.8307556e+34 -1.1057739e+34)
(-5.7469109e+35 4.7166543e+34 -5.1995832e+33)
(-5.6125415e+35 3.5599809e+34 -3.655555e+34)
(-5.6182412e+35 4.5935101e+34 -3.9897219e+34)
(-5.7634987e+35 3.8981454e+34 -7.1381934e+33)
(-5.6565967e+35 4.401097e+34 -3.7134522e+34)
(-5.6548814e+35 4.0129064e+34 -3.3081277e+34)
(-5.7501307e+35 4.8498969e+34 -3.1290132e+33)
(-5.7936968e+35 3.606904e+34 -5.229378e+33)
(-5.6935282e+35 4.2132006e+34 -2.2046585e+34)
(-5.7028206e+35 4.3919383e+34 -2.7333477e+34)
(-5.9037005e+35 3.6572107e+34 1.7886823e+34)
(-5.8534491e+35 5.3345764e+34 2.1550591e+34)
(-5.9265378e+35 5.6552433e+34 6.0487257e+34)
(-5.8522315e+35 4.4467068e+34 9.517599e+32)
(-5.8546445e+35 4.4556171e+34 7.1554886e+33)
(-5.987255e+35 3.5605402e+34 5.7436145e+34)
(-6.0003334e+35 5.5259448e+34 6.2147438e+34)
(-5.8305639e+35 4.5825373e+34 -7.6232487e+32)
(-5.8592953e+35 4.0667794e+34 5.9994636e+33)
(-5.9904789e+35 3.8172004e+34 5.6723169e+34)
(-5.8772991e+35 4.9428646e+34 1.9562979e+34)
(-5.671664e+35 4.5220436e+34 -2.8370773e+34)
(-5.692163e+35 3.8891476e+34 -2.2436947e+34)
(-5.8894586e+35 3.7980641e+34 1.5907803e+34)
(-5.6195899e+35 4.9083207e+34 -3.6559542e+34)
(-5.6242205e+35 3.8854332e+34 -3.2916066e+34)
(-5.7619613e+35 5.1052754e+34 -1.3972441e+33)
(-5.7668454e+35 4.2818897e+34 -4.3532979e+33)
(-5.7815595e+35 4.1701288e+34 -9.9206552e+33)
(-5.7662975e+35 4.7456275e+34 -7.5227412e+33)
(-5.5727481e+35 3.8564071e+34 -3.9673825e+34)
(-5.605062e+35 4.8542113e+34 -4.1682609e+34)
(-5.7754505e+35 4.8027497e+34 -5.1123042e+33)
(-5.5967058e+35 4.5318801e+34 -4.2123489e+34)
(-5.5828611e+35 3.8898427e+34 -3.812868e+34)
(-5.7949182e+35 3.8355931e+34 -8.9245853e+33)
(-5.7215218e+35 4.7412297e+34 -4.5555918e+33)
(-5.6166998e+35 4.6669627e+34 -4.1155415e+34)
(-5.6255903e+35 3.8597902e+34 -3.2564274e+34)
(-5.7426918e+35 3.9279218e+34 -9.1528889e+33)
(-5.8172152e+35 5.0611168e+34 -2.7965692e+32)
(-5.8423722e+35 4.4349534e+34 6.2722406e+33)
(-5.9582642e+35 5.9477858e+34 6.1560805e+34)
(-5.9550015e+35 4.2870711e+34 5.6300929e+34)
(-5.8057733e+35 4.6737059e+34 -2.5293125e+33)
(-5.8197467e+35 4.2906228e+34 5.8209713e+33)
(-5.9331387e+35 5.5759817e+34 6.1361584e+34)
(-5.9538989e+35 3.7909429e+34 5.4686383e+34)
(-5.8293345e+35 5.201534e+34 2.0221613e+34)
(-5.6586852e+35 4.010463e+34 -2.2922488e+34)
(-5.6602408e+35 4.6215769e+34 -3.029307e+34)
(-5.8596018e+35 3.9257157e+34 1.4807775e+34)
(-5.8575554e+35 5.3975528e+34 2.0722544e+34)
(-5.6846343e+35 4.2430254e+34 -2.2160971e+34)
(-5.6671108e+35 4.9698892e+34 -2.7032396e+34)
(-5.8734056e+35 4.2956954e+34 1.6289097e+34)
(-4.5884045e+35 2.4808619e+34 -2.249956e+34)
(-4.6797888e+35 3.1296695e+34 -2.598656e+33)
(-4.5831606e+35 2.7704715e+34 -2.7129698e+34)
(-4.6861786e+35 2.3936883e+34 -6.310797e+33)
(-4.6422454e+35 2.1975151e+34 -2.3531638e+34)
(-4.6128651e+35 2.4698994e+34 -2.7812081e+34)
(-4.7317457e+35 2.8255531e+34 -5.8905172e+33)
(-4.7110259e+35 2.2560061e+34 -9.6598685e+33)
(-4.6127135e+35 2.3242631e+34 -2.4296787e+34)
(-4.7039254e+35 2.9809654e+34 -6.1711894e+33)
(-4.6132092e+35 2.5768679e+34 -2.8492834e+34)
(-4.7068299e+35 2.3634143e+34 -1.002129e+34)
(-4.6110629e+35 2.3052391e+34 -2.2202734e+34)
(-4.6949854e+35 3.017571e+34 -4.1020434e+33)
(-4.5846808e+35 2.64439e+34 -2.6674509e+34)
(-4.6808124e+35 2.3922466e+34 -7.6920303e+33)
(-4.7015691e+35 2.1950638e+34 -2.188459e+34)
(-4.7693628e+35 2.759664e+34 -8.945128e+33)
(-4.6787209e+35 2.4639763e+34 -2.6322203e+34)
(-4.7487425e+35 2.1678573e+34 -1.2438697e+34)
(-4.678164e+35 2.3642256e+34 -2.3282854e+34)
(-4.7407292e+35 2.7972628e+34 -9.8511453e+33)
(-4.6735331e+35 2.6617429e+34 -2.7173196e+34)
(-4.7439671e+35 2.257716e+34 -1.3094351e+34)
(-4.8695927e+35 3.1126391e+34 -8.1428984e+33)
(-4.8683642e+35 2.5211733e+34 -1.0923452e+34)
(-4.8207135e+35 2.7726204e+34 -3.0306227e+34)
(-4.8125828e+35 2.9529214e+34 -3.3450877e+34)
(-4.8943459e+35 2.9951426e+34 -6.8265474e+33)
(-4.8762108e+35 2.3581437e+34 -1.0191102e+34)
(-4.8206117e+35 2.8284666e+34 -3.2750604e+34)
(-4.8482595e+35 2.6648568e+34 -2.8707658e+34)
(-4.551342e+35 2.1907354e+34 -2.3714296e+34)
(-4.5498935e+35 2.5408919e+34 -2.8007022e+34)
(-4.6502491e+35 2.8414111e+34 -3.5500213e+33)
(-4.6590982e+35 2.1462327e+34 -6.9219665e+33)
(-4.5979999e+35 2.0070014e+34 -2.3957336e+34)
(-4.6915371e+35 2.6113671e+34 -6.2044147e+33)
(-4.6953269e+35 1.9396481e+34 -8.2943213e+33)
(-4.5705049e+35 2.0477036e+34 -2.5765772e+34)
(-4.6680643e+35 2.690169e+34 -7.1954784e+33)
(-4.5784323e+35 2.3861172e+34 -2.9524593e+34)
(-4.6769794e+35 2.1249545e+34 -1.0656548e+34)
(-4.5703547e+35 2.086417e+34 -2.2830381e+34)
(-4.5686671e+35 2.2993723e+34 -2.5076225e+34)
(-4.6554676e+35 2.7993659e+34 -4.4367565e+33)
(-4.6512288e+35 2.076412e+34 -6.7248111e+33)
(-4.6553511e+35 2.0079619e+34 -2.1826852e+34)
(-4.7259558e+35 2.565055e+34 -9.0868592e+33)
(-4.6239369e+35 2.0127842e+34 -2.5200922e+34)
(-4.6970439e+35 2.475174e+34 -1.1356378e+34)
(-4.6290691e+35 2.5204443e+34 -2.8381482e+34)
(-4.7119694e+35 2.0573492e+34 -1.4068515e+34)
(-4.9226183e+35 2.4917681e+34 2.4394706e+34)
(-4.9054285e+35 2.6440544e+34 2.0123876e+34)
(-4.9916007e+35 3.4917708e+34 6.3442354e+34)
(-4.9943929e+35 2.0582321e+34 6.0685402e+34)
(-4.8200413e+35 2.7084733e+34 -4.6297723e+33)
(-4.816181e+35 2.7811636e+34 4.2899921e+32)
(-4.9415569e+35 3.6133277e+34 3.7318318e+34)
(-4.9624549e+35 2.2439816e+34 3.2836785e+34)
(-4.8313589e+35 2.4931995e+34 -1.4563928e+33)
(-4.8090075e+35 2.6838605e+34 -5.5328667e+33)
(-4.9541861e+35 3.1805771e+34 3.3908951e+34)
(-4.9599642e+35 2.1650755e+34 3.0534759e+34)
(-4.9113308e+35 2.6732946e+34 2.1660267e+34)
(-4.9179853e+35 2.9195033e+34 2.7521232e+34)
(-4.9475189e+35 3.8631716e+34 6.4771163e+34)
(-4.9797779e+35 2.1553117e+34 6.0910944e+34)
(-4.6326725e+35 2.4271993e+34 -1.901623e+34)
(-4.7521377e+35 3.0436086e+34 9.186527e+32)
(-4.6078553e+35 2.7255996e+34 -2.347848e+34)
(-4.743585e+35 2.3960195e+34 -2.9562575e+33)
(-4.6921797e+35 2.8596241e+34 -1.9855232e+34)
(-4.6932108e+35 2.6877346e+34 -1.4942238e+34)
(-4.8111648e+35 3.3812116e+34 1.1769717e+34)
(-4.8313626e+35 2.3726512e+34 7.845588e+33)
(-4.6115554e+35 2.6412665e+34 -1.8155015e+34)
(-4.7312452e+35 3.3083715e+34 2.1982184e+33)
(-4.6128949e+35 2.7269982e+34 -2.2656542e+34)
(-4.7440807e+35 2.4449603e+34 -1.9399254e+33)
(-4.7092978e+35 2.4029513e+34 -1.6002737e+34)
(-4.6889786e+35 2.7816185e+34 -2.0516638e+34)
(-4.8264992e+35 3.1808036e+34 9.7790117e+33)
(-4.8230338e+35 2.3634804e+34 6.344896e+33)
(-4.785464e+35 2.4598693e+34 -1.0388516e+33)
(-4.7923395e+35 2.4878075e+34 -5.675146e+33)
(-4.9132182e+35 3.2867791e+34 3.4867863e+34)
(-4.9377723e+35 2.0369024e+34 3.0753836e+34)
(-4.8879242e+35 2.575771e+34 2.4988247e+34)
(-4.8854801e+35 2.4781863e+34 1.9543426e+34)
(-4.9360826e+35 3.4714328e+34 6.2357232e+34)
(-4.9651068e+35 1.9243442e+34 5.8671845e+34)
(-4.9001438e+35 2.2973393e+34 2.4067089e+34)
(-4.8795946e+35 2.4288666e+34 2.0508892e+34)
(-4.984534e+35 3.3272892e+34 6.2734017e+34)
(-4.9794115e+35 1.851173e+34 6.0641388e+34)
(-4.8034047e+35 2.2941013e+34 -1.6697163e+33)
(-4.7801617e+35 2.5041629e+34 -5.3343085e+33)
(-4.9421478e+35 2.973492e+34 3.4300366e+34)
(-4.9425408e+35 1.9084712e+34 3.1604938e+34)
(-4.6731938e+35 2.1773414e+34 -1.6398734e+34)
(-4.6517267e+35 2.5822565e+34 -2.0192948e+34)
(-4.8027293e+35 2.9799912e+34 9.9012027e+33)
(-4.7987868e+35 2.1656118e+34 6.9521612e+33)
(-4.5808048e+35 2.3474785e+34 -1.9310225e+34)
(-4.7054221e+35 3.0004998e+34 1.3160876e+33)
(-4.5827872e+35 2.4917842e+34 -2.3438696e+34)
(-4.7199737e+35 2.1851351e+34 -2.4286159e+33)
(-4.6653856e+35 2.3592078e+34 -1.6208816e+34)
(-4.665441e+35 2.614699e+34 -2.0636314e+34)
(-4.781724e+35 3.0463745e+34 1.0022801e+34)
(-4.8036948e+35 2.1323408e+34 6.5663325e+33)
(-4.5934532e+35 2.1865798e+34 -1.9418533e+34)
(-4.7164532e+35 2.8123455e+34 5.9717754e+32)
(-4.5718123e+35 2.4440465e+34 -2.2776494e+34)
(-4.7101305e+35 2.1411885e+34 -2.4128941e+33)
(-4.8664935e+35 2.8586749e+34 4.6784409e+34)