/*--------------------------------*- C++ -*----------------------------------*\
  =========                 |
  \\      /  F ield         | OpenFOAM: The Open Source CFD Toolbox
   \\    /   O peration     | Website:  https://openfoam.org
    \\  /    A nd           | Version:  7
     \\/     M anipulation  |
\*---------------------------------------------------------------------------*/
FoamFile
{
    version     2.0;
    format      ascii;
    class       volVectorField;
    location    "6000";
    object      UMean;
}
// * * * * * * * * * * * * * * * * * * * * * * * * * * * * * * * * * * * * * //

dimensions      [0 1 -1 0 0 0 0];

internalField   nonuniform List<vector> 
33943
(
(-1.0049918e+34 1.1858839e+33 1.0974477e+33)
(-8.6782321e+33 6.3755402e+32 1.27284e+33)
(-9.3762365e+33 4.0441208e+32 1.0593108e+33)
(-9.4519255e+33 2.914648e+32 7.5322513e+32)
(-1.0946311e+34 7.2052229e+32 7.6316063e+32)
(-8.6356907e+33 1.4752961e+33 -7.0617428e+31)
(-6.5873901e+33 7.380991e+32 -1.0545627e+32)
(-9.7667801e+33 9.9374657e+32 1.1136659e+33)
(-8.6926259e+33 5.627592e+32 1.2615085e+33)
(-8.9122382e+33 8.0916969e+32 1.174109e+33)
(-9.4154838e+33 4.2568494e+32 1.0625059e+33)
(-9.5305875e+33 3.1900718e+32 1.0575858e+33)
(-7.4391217e+33 3.7062614e+32 1.0132769e+33)
(-8.9881584e+33 3.6667723e+32 1.1038607e+33)
(-9.0613968e+33 1.4572855e+32 1.0927861e+33)
(-7.5261417e+33 3.9117527e+32 9.5359632e+32)
(-9.509588e+33 2.0076826e+32 -1.7231978e+32)
(-9.8603572e+33 3.0869694e+32 3.8233603e+32)
(-9.462013e+33 1.9178117e+32 7.0958321e+32)
(-9.5091601e+33 3.4563856e+32 7.6656026e+32)
(-1.199022e+34 8.0530352e+32 9.3761662e+32)
(-8.6522293e+33 3.078927e+31 7.0798618e+32)
(-8.6602316e+33 2.163357e+32 7.3163321e+32)
(-1.1214743e+34 6.8990319e+32 8.4840969e+32)
(-7.6337907e+33 1.2036605e+32 1.9814905e+32)
(-6.4948721e+33 -3.0661304e+32 -1.6539324e+32)
(-6.8835573e+33 -1.9276502e+32 -8.7889257e+31)
(-7.6357263e+33 1.5052011e+32 2.4088935e+32)
(-8.6999761e+33 1.3725436e+33 7.161952e+31)
(-8.5518945e+33 4.3901419e+32 -9.3908675e+32)
(-8.7027389e+33 6.4358828e+32 -9.7173623e+32)
(-6.6165612e+33 6.6713554e+32 -1.1310061e+32)
(-6.8077871e+33 1.1023012e+33 -9.9036328e+31)
(-7.9791105e+33 2.2389214e+32 -9.1734854e+32)
(-8.4437443e+33 2.5755392e+32 -7.811562e+32)
(-6.4093119e+33 2.1428232e+32 -1.1569484e+33)
(-6.5327964e+33 2.7899495e+32 -1.1593079e+33)
(-4.8120707e+33 4.6274173e+32 2.0557177e+31)
(-4.9529332e+33 7.0656083e+32 4.0688836e+31)
(-8.8386354e+33 6.0802629e+32 1.3427092e+33)
(-9.0024802e+33 7.9713887e+32 1.2555268e+33)
(-9.4144697e+33 4.6891774e+32 1.0802237e+33)
(-9.6693045e+33 3.5044641e+32 1.127752e+33)
(-7.4580118e+33 3.3673901e+32 9.9240209e+32)
(-7.5603539e+33 3.769908e+32 9.5887758e+32)
(-9.0958519e+33 1.7100594e+32 1.1036547e+33)
(-8.9696588e+33 3.9776388e+32 1.0909388e+33)
(-7.4409876e+33 3.3171307e+32 9.4366644e+32)
(-7.5751253e+33 4.3170824e+32 9.4643199e+32)
(-9.0769171e+33 3.296315e+32 1.0344791e+33)
(-9.1377783e+33 1.8342035e+32 1.0531288e+33)
(-6.3738661e+33 1.9185974e+32 7.6657691e+32)
(-8.0543318e+33 9.0662076e+31 9.4522928e+32)
(-6.3165106e+33 2.0302566e+32 8.0778149e+32)
(-7.9682615e+33 2.425407e+32 9.4683527e+32)
(-6.2499375e+33 1.6312907e+32 7.3761444e+32)
(-6.3702125e+33 2.1026268e+32 7.8290243e+32)
(-7.9742452e+33 1.6704419e+32 8.8163077e+32)
(-8.0418922e+33 6.2575862e+31 9.2175453e+32)
(-1.2389345e+34 6.3587429e+32 2.6042271e+32)
(-9.6067044e+33 2.4779888e+32 -1.747001e+32)
(-9.9203921e+33 3.5718473e+32 4.0309041e+32)
(-9.5644298e+33 1.7092415e+32 -2.0960855e+32)
(-9.931177e+33 1.9589308e+32 3.5430822e+32)
(-8.8712176e+33 1.7482852e+32 -1.2957544e+32)
(-8.6463538e+33 1.3219165e+32 -3.5616942e+32)
(-8.8494001e+33 8.2032411e+31 -1.3602601e+32)
(-8.5917298e+33 7.3178247e+31 -3.5466167e+32)
(-9.003809e+33 2.1138884e+32 5.1900044e+32)
(-8.7865169e+33 1.6842569e+32 5.1417977e+31)
(-9.0329187e+33 6.5936399e+31 5.1480464e+32)
(-8.7452696e+33 7.3972551e+31 3.5872805e+31)
(-8.6718064e+33 2.1928908e+32 6.7757117e+32)
(-8.6933197e+33 6.123513e+31 6.9676754e+32)
(-8.6425179e+33 2.6226449e+32 7.4095879e+32)
(-8.6423225e+33 5.8868549e+31 7.056549e+32)
(-9.5367319e+33 2.4584421e+32 7.6198678e+32)
(-1.2135233e+34 7.496481e+32 9.6731085e+32)
(-9.5259886e+33 3.6173596e+32 7.8636663e+32)
(-7.9627648e+33 1.4040951e+32 1.3100425e+32)
(-8.1426604e+33 1.8748826e+32 1.9900324e+32)
(-7.7156778e+33 7.8087117e+31 1.5264367e+32)
(-7.6130605e+33 2.1779631e+32 1.2730568e+31)
(-7.6121271e+33 1.067551e+32 6.0697359e+32)
(-7.6281214e+33 -1.4870684e+31 6.2935622e+32)
(-7.6334937e+33 1.408565e+32 6.623657e+32)
(-7.6487715e+33 -3.8880473e+30 6.3013746e+32)
(-7.724939e+33 2.6729858e+32 1.6341364e+32)
(-7.4302138e+33 3.2560703e+32 8.5612995e+31)
(-6.3294314e+33 -5.4782097e+30 -2.0086633e+32)
(-6.4466065e+33 7.3014274e+31 -7.3411574e+31)
(-7.0187932e+33 3.4002985e+32 -1.5711848e+31)
(-6.6825077e+33 3.9143436e+31 -1.9564354e+32)
(-6.863659e+33 1.7927132e+32 -1.5923274e+32)
(-6.8841936e+33 2.8681644e+32 -1.8564071e+31)
(-8.7315106e+33 4.4992174e+32 -9.4970114e+32)
(-8.7898552e+33 6.8867798e+32 -9.7004378e+32)
(-6.7520187e+33 6.2737666e+32 -2.9880389e+31)
(-6.8618592e+33 1.0765849e+33 -2.7285843e+31)
(-8.5989518e+33 1.4789855e+32 -8.2113949e+32)
(-8.4882176e+33 3.1329726e+32 -7.8605588e+32)
(-8.0276401e+33 2.6916023e+32 -9.2602714e+32)
(-8.0756977e+33 2.2905836e+32 -8.9502647e+32)
(-8.4894946e+33 2.3379373e+32 -7.6497112e+32)
(-8.0039049e+33 2.0209806e+32 -9.0544335e+32)
(-8.0509332e+33 2.3397445e+32 -8.9513511e+32)
(-8.5602721e+33 1.31781e+32 -7.9257643e+32)
(-6.4520446e+33 2.4214237e+32 -1.1724224e+33)
(-6.5417219e+33 2.960901e+32 -1.1734448e+33)
(-4.9641931e+33 6.7037739e+32 4.4508253e+31)
(-4.8174041e+33 3.9938593e+32 1.3080207e+31)
(-6.4514929e+33 1.8971845e+32 -1.1626581e+33)
(-6.5326889e+33 3.101408e+32 -1.1693328e+33)
(-4.9329421e+33 7.1515731e+32 1.9632549e+30)
(-4.8272998e+33 4.1322737e+32 -1.0699621e+31)
(-8.478175e+33 2.1786505e+32 -1.0388796e+33)
(-8.3967087e+33 1.6697611e+32 -5.9694603e+32)
(-6.9172814e+33 4.851808e+30 -1.0770235e+33)
(-6.8565495e+33 1.189243e+32 -1.0636768e+33)
(-5.6490094e+33 1.4776948e+32 -1.292816e+33)
(-5.7088922e+33 8.1562045e+31 -1.2750598e+33)
(-6.8610673e+33 6.0479635e+31 -1.0283449e+33)
(-5.646276e+33 1.0048452e+32 -1.2510633e+33)
(-3.8363239e+33 1.3935958e+32 -1.113792e+33)
(-3.9251398e+33 1.3251654e+32 -1.1146514e+33)
(-3.4189951e+33 2.0121518e+32 2.8774758e+32)
(-3.5011957e+33 3.3376579e+32 2.7838485e+32)
(-3.8476107e+33 9.9198264e+31 -1.0749319e+33)
(-3.3758209e+33 1.6198018e+32 2.5439711e+32)
(-3.4719083e+33 3.6813525e+32 2.497588e+32)
(-9.533132e+33 3.9002012e+32 1.0535784e+33)
(-7.6690352e+33 4.1687797e+32 1.0036231e+33)
(-7.5629141e+33 3.820978e+32 1.0251836e+33)
(-9.0054209e+33 4.4400341e+32 1.113321e+33)
(-9.1614316e+33 2.2083373e+32 1.1455016e+33)
(-7.5891559e+33 4.2082847e+32 9.6389441e+32)
(-9.2353106e+33 2.3123748e+32 1.1049237e+33)
(-7.5434777e+33 3.6125268e+32 9.923297e+32)
(-9.2172245e+33 3.8975622e+32 1.120153e+33)
(-6.3159762e+33 1.7938801e+32 7.9691994e+32)
(-6.3682369e+33 1.7072715e+32 7.5117011e+32)
(-7.992258e+33 2.6885994e+32 9.5044455e+32)
(-8.0279513e+33 1.0497849e+32 9.2665551e+32)
(-6.2999386e+33 1.6174778e+32 7.5568568e+32)
(-6.3633326e+33 2.0166422e+32 7.5941955e+32)
(-8.0530056e+33 1.9218561e+32 9.1187546e+32)
(-8.0374876e+33 8.0302754e+31 8.9424284e+32)
(-6.2879092e+33 1.8345324e+32 7.664854e+32)
(-6.368788e+33 1.9940098e+32 7.3201743e+32)
(-7.9894119e+33 2.410567e+32 8.9641531e+32)
(-8.0423087e+33 1.0543387e+32 8.8263555e+32)
(-6.3342378e+33 1.9504381e+32 7.5725221e+32)
(-6.4162085e+33 2.3792312e+32 7.7576509e+32)
(-8.057399e+33 8.9440243e+31 9.122011e+32)
(-8.042011e+33 2.0121303e+32 8.988107e+32)
(-5.4983207e+33 8.9652949e+31 7.1954032e+32)
(-5.5600213e+33 1.1372559e+32 7.4323942e+32)
(-6.9573006e+33 8.996486e+31 8.3623318e+32)
(-6.973278e+33 2.5477612e+31 8.448534e+32)
(-5.5196782e+33 1.0801817e+32 7.6131758e+32)
(-5.5628159e+33 1.0199748e+32 7.3711734e+32)
(-6.915717e+33 1.5296695e+32 8.7293211e+32)
(-6.9585259e+33 5.2951319e+31 8.641017e+32)
(-5.4393754e+33 7.9519939e+31 7.2002465e+32)
(-5.5029459e+33 1.0031996e+32 7.106624e+32)
(-6.8765808e+33 1.1974778e+32 8.2239896e+32)
(-6.9191437e+33 4.0890676e+31 8.2076662e+32)
(-6.9203708e+33 8.7592222e+31 8.3959534e+32)
(-5.4748654e+33 1.0157905e+32 7.2531685e+32)
(-5.5141497e+33 1.23146e+32 7.3865568e+32)
(-6.925726e+33 2.0736338e+31 8.4772001e+32)
(-1.2542998e+34 6.2192781e+32 2.7035798e+32)
(-1.0017315e+34 2.2873834e+32 3.890509e+32)
(-9.6610856e+33 2.7644773e+32 -1.6730919e+32)
(-9.6324651e+33 2.046426e+32 -2.0843229e+32)
(-8.2613532e+33 1.3055479e+32 2.483259e+31)
(-8.1014148e+33 1.3831922e+32 -3.1913515e+31)
(-8.2308343e+33 1.5417836e+32 -8.5700765e+30)
(-8.2712616e+33 1.9990266e+32 3.350859e+31)
(-9.9466679e+33 3.8087644e+32 4.0467219e+32)
(-8.6513738e+33 1.8741049e+32 -3.2575759e+32)
(-8.6264254e+33 1.0867457e+32 -3.6610846e+32)
(-8.7846088e+33 1.1283232e+32 -1.7040385e+32)
(-8.8684126e+33 2.2857233e+32 -1.1320753e+32)
(-8.7945264e+33 2.209639e+32 7.6680032e+31)
(-8.971506e+33 2.5488594e+32 5.2597657e+32)
(-9.0116051e+33 9.6596373e+31 5.1194777e+32)
(-8.7251715e+33 9.9865358e+31 2.8811534e+31)
(-8.9265875e+33 1.0057465e+32 -1.4669643e+32)
(-8.6283427e+33 8.7249667e+31 -3.7283211e+32)
(-8.6482604e+33 1.214357e+32 -3.7650752e+32)
(-8.8690526e+33 1.6168705e+32 -1.7037906e+32)
(-9.1083633e+33 8.557226e+31 5.2313325e+32)
(-9.0334559e+33 2.1760826e+32 4.9065466e+32)
(-8.7715923e+33 1.6889893e+32 1.0454398e+31)
(-8.7988123e+33 1.0130187e+32 2.7887513e+31)
(-7.6567096e+33 7.7356446e+31 -1.578593e+32)
(-7.566983e+33 4.7678025e+31 -2.8386935e+32)
(-7.5579439e+33 6.2187838e+31 -2.7669205e+32)
(-7.6782604e+33 4.0053386e+31 -1.6578357e+32)
(-7.7283886e+33 5.4979683e+31 -2.865189e+32)
(-7.7056885e+33 7.4017608e+31 -2.8394794e+32)
(-7.646692e+33 5.5454599e+31 -3.5078382e+32)
(-7.6736379e+33 6.1810248e+31 -3.4647716e+32)
(-7.6294525e+33 5.2294775e+31 -1.8291595e+32)
(-7.5100727e+33 3.662638e+31 -2.9516248e+32)
(-7.4980056e+33 3.4722335e+31 -3.1015457e+32)
(-7.6333935e+33 2.2788472e+31 -1.7254467e+32)
(-7.6705097e+33 3.9147933e+31 -2.9365129e+32)
(-7.6574139e+33 4.5315472e+31 -3.0960236e+32)
(-8.031295e+33 1.925082e+31 6.1384208e+32)
(-7.7519372e+33 1.0963511e+32 2.9122845e+32)
(-7.7468479e+33 1.0132417e+31 2.6263441e+32)
(-7.9893763e+33 1.4772512e+32 6.3084877e+32)
(-7.5887152e+33 2.7886385e+31 -1.2071858e+32)
(-7.8136027e+33 1.1051916e+32 1.2347502e+32)
(-7.5758787e+33 7.4582341e+31 -1.0438888e+32)
(-7.8313066e+33 2.4487193e+31 1.0327998e+32)
(-7.7042141e+33 7.8094641e+31 2.4449276e+32)
(-7.9878771e+33 1.0943521e+32 5.954004e+32)
(-8.0261336e+33 -4.182409e+30 6.1600063e+32)
(-7.7021538e+33 1.7612459e+30 2.4963865e+32)
(-7.8041784e+33 7.5711152e+30 9.3921739e+31)
(-7.5331471e+33 4.7583794e+31 -1.3853147e+32)
(-7.7926566e+33 7.6559895e+31 8.8287455e+31)
(-7.5313935e+33 1.4957945e+31 -1.327194e+32)
(-7.6446095e+33 1.719519e+31 5.9444391e+32)
(-7.6320905e+33 1.4355395e+32 6.1613822e+32)
(-7.6570577e+33 1.1740003e+31 6.3827965e+32)
(-7.6761246e+33 1.4492666e+32 6.2646859e+32)
(-7.6433694e+33 2.2033052e+31 6.2602291e+32)
(-8.7762469e+33 1.2528744e+32 7.3997989e+32)
(-7.6284379e+33 1.7798426e+32 6.5728494e+32)
(-7.624171e+33 1.0965499e+31 6.0548337e+32)
(-7.6585836e+33 1.3599648e+32 6.0895749e+32)
(-8.7770788e+33 2.8134963e+32 7.3108775e+32)
(-9.601829e+33 2.9684211e+32 7.3657841e+32)
(-7.9425484e+33 1.6640168e+32 1.3105317e+32)
(-7.521997e+33 2.5656289e+32 1.0569583e+31)
(-7.8680523e+33 1.510616e+32 1.4329944e+31)
(-8.0530302e+33 2.0508726e+32 1.49917e+32)
(-8.7384353e+33 1.1307567e+32 7.6350737e+32)
(-8.6927621e+33 3.1488768e+32 7.8267288e+32)
(-7.4738769e+33 3.6048397e+32 6.9913219e+31)
(-7.5606807e+33 3.7343454e+32 1.0565281e+32)
(-7.3626465e+33 4.35623e+32 6.903573e+31)
(-7.4093389e+33 4.8439822e+32 7.7138574e+31)
(-6.5602346e+33 6.1713874e+31 6.2599178e+32)
(-6.5770268e+33 -2.0074738e+31 6.1201972e+32)
(-6.5996036e+33 6.1654919e+31 6.347048e+32)
(-6.582543e+33 -2.9321682e+31 6.3982799e+32)
(-6.6081566e+33 8.9289176e+31 6.7256516e+32)
(-6.6206359e+33 -1.5293983e+31 6.4908916e+32)
(-6.6326558e+33 5.4837771e+31 6.2341663e+32)
(-6.6242425e+33 -2.6221375e+31 6.3070242e+32)
(-7.1346323e+33 4.4428936e+32 -5.2317013e+31)
(-7.3025282e+33 7.4493482e+32 -7.322516e+31)
(-6.2468085e+33 4.6280216e+32 -2.6358348e+32)
(-6.2443898e+33 1.651308e+32 -2.8027552e+32)
(-5.4831511e+33 -4.2713661e+31 -1.8118716e+32)
(-6.2916907e+33 9.1235089e+31 -2.41654e+32)
(-6.7475104e+33 1.5296614e+32 -1.9836872e+32)
(-5.8222097e+33 -9.9114138e+31 -1.3930558e+32)
(-9.9941299e+33 4.5098508e+32 -8.2798483e+32)
(-9.91875e+33 3.9239131e+32 -8.0334523e+32)
(-1.0024306e+34 3.2410337e+32 -4.4537766e+32)
(-8.5727767e+33 3.5883104e+32 -7.9277736e+32)
(-8.6842188e+33 1.9584756e+32 -8.3137483e+32)
(-8.1758231e+33 2.8064493e+32 -9.1551368e+32)
(-8.1121036e+33 2.985589e+32 -9.3799029e+32)
(-8.5730723e+33 2.9147528e+32 -7.8964894e+32)
(-8.6252801e+33 1.8856059e+32 -8.0411883e+32)
(-8.1298624e+33 2.869947e+32 -9.2349291e+32)
(-8.0854158e+33 2.5203755e+32 -9.1508915e+32)
(-6.5689693e+33 2.8326797e+32 -1.1808276e+33)
(-6.6676098e+33 3.5969978e+32 -1.1841193e+33)
(-4.8517563e+33 3.8248588e+32 2.3598278e+31)
(-5.019522e+33 6.6495654e+32 8.082835e+31)
(-6.5543716e+33 2.4344868e+32 -1.1707989e+33)
(-6.603719e+33 3.5087268e+32 -1.1877065e+33)
(-4.9047736e+33 3.8569563e+32 5.0253018e+31)
(-4.9224033e+33 6.754298e+32 5.7810353e+30)
(-8.4709785e+33 6.6555628e+31 -6.1299932e+32)
(-8.4273355e+33 2.2224888e+32 -6.0852145e+32)
(-8.5469611e+33 2.548737e+32 -1.0456309e+33)
(-8.5432921e+33 1.9624411e+32 -1.0072631e+33)
(-8.4426687e+33 1.8068295e+32 -5.9249289e+32)
(-8.5080948e+33 2.2560307e+32 -1.0332609e+33)
(-8.5039505e+33 1.8014938e+32 -1.010783e+33)
(-8.4535569e+33 3.8030384e+31 -6.0460024e+32)
(-6.8850295e+33 1.6944855e+32 -1.0765352e+33)
(-6.9294246e+33 5.303834e+31 -1.0854746e+33)
(-5.737492e+33 1.1502737e+32 -1.288649e+33)
(-5.6994691e+33 1.7585734e+32 -1.3062835e+33)
(-5.6911092e+33 1.2931703e+32 -1.2726072e+33)
(-6.8864564e+33 1.1118016e+32 -1.0428584e+33)
(-6.9033012e+33 4.0372556e+31 -1.0597288e+33)
(-5.7154944e+33 1.2125796e+32 -1.2816131e+33)
(-3.9227786e+33 1.691275e+32 -1.1209844e+33)
(-3.405601e+33 1.564206e+32 2.6718486e+32)
(-3.4634912e+33 3.5532501e+32 2.5007448e+32)
(-3.8769088e+33 1.1464361e+32 -1.1005232e+33)
(-3.8813559e+33 1.5758685e+32 -1.1281254e+33)
(-3.9511562e+33 1.635732e+32 -1.1225441e+33)
(-3.4116393e+33 1.5755254e+32 2.7440686e+32)
(-3.4911655e+33 3.2754564e+32 2.8386304e+32)
(-6.8741305e+33 1.2850416e+32 -1.0651058e+33)
(-6.9295243e+33 2.4798043e+31 -1.0803283e+33)
(-5.6823768e+33 1.4959655e+32 -1.2961867e+33)
(-5.7414548e+33 9.6039863e+31 -1.2824018e+33)
(-5.67639e+33 1.1754959e+32 -1.2675455e+33)
(-6.8821237e+33 9.0788607e+31 -1.0410203e+33)
(-6.9130767e+33 3.163967e+31 -1.0600568e+33)
(-5.721477e+33 1.2003721e+32 -1.2791563e+33)
(-3.8761849e+33 1.1288914e+32 -1.0968028e+33)
(-3.9335409e+33 1.7642731e+32 -1.1240063e+33)
(-3.4417883e+33 1.9127679e+32 2.6238296e+32)
(-3.5071326e+33 3.9082216e+32 2.5115856e+32)
(-3.8583738e+33 1.3330751e+32 -1.1237517e+33)
(-3.9571934e+33 1.4764252e+32 -1.1250933e+33)
(-3.4039515e+33 1.8017572e+32 2.5522337e+32)
(-3.5214603e+33 3.5136168e+32 2.7043267e+32)
(-8.7071222e+33 1.6180099e+32 -8.6553788e+32)
(-6.9157079e+33 9.3049161e+31 -1.1055334e+33)
(-6.9471447e+33 -3.4123714e+31 -1.0993783e+33)
(-8.7143995e+33 1.4075293e+32 -4.3094688e+32)
(-8.8916273e+33 5.4468011e+31 -4.8532647e+32)
(-8.7071104e+33 1.1242246e+32 -8.2172079e+32)
(-6.9051914e+33 6.0246458e+31 -1.0665524e+33)
(-5.8923673e+33 1.1589966e+32 -1.3770326e+33)
(-5.9326123e+33 7.6997589e+31 -1.3589881e+33)
(-5.8871957e+33 9.7888772e+31 -1.3426984e+33)
(-4.1080377e+33 5.0080363e+31 -1.1968784e+33)
(-4.1180265e+33 -6.7208764e+30 -1.1834398e+33)
(-2.8723869e+33 3.1994789e+31 -1.2974378e+33)
(-2.8371133e+33 8.9303952e+31 -1.3294983e+33)
(-2.8394113e+33 4.7329446e+31 -1.3013397e+33)
(-4.1420042e+33 -1.7530383e+31 -1.1814855e+33)
(-4.1268266e+33 1.2809676e+31 -1.1671166e+33)
(-2.911426e+33 3.8031935e+31 -1.3024014e+33)
(-3.4099587e+33 5.7849335e+31 4.9171841e+32)
(-3.4913048e+33 1.1681542e+32 5.2531091e+32)
(-2.2828666e+33 1.927832e+32 -3.5984126e+32)
(-2.360756e+33 1.7257585e+32 -3.3006411e+32)
(-2.3222518e+33 1.7884287e+32 -3.0905079e+32)
(-3.4139492e+33 4.910053e+31 4.8795422e+32)
(-2.3295213e+33 1.7685049e+32 -3.9680059e+32)
(-3.4261049e+33 1.2336458e+32 4.7154567e+32)
(-4.0814039e+33 2.3874832e+31 -1.1619469e+33)
(-4.0983795e+33 -1.8611263e+31 -1.1526715e+33)
(-2.810962e+33 6.4541719e+31 -1.2985281e+33)
(-2.8676908e+33 3.1785769e+31 -1.268621e+33)
(-2.28461e+33 1.7389193e+32 -3.062079e+32)
(-3.3718798e+33 1.6661455e+31 4.802536e+32)
(-2.3664358e+33 1.8672162e+32 -2.945079e+32)
(-3.4748735e+33 1.2238669e+32 5.2155442e+32)
(-2.3127678e+33 1.9074746e+32 -2.8344578e+32)
(-3.4144771e+33 7.2475933e+31 4.9484862e+32)
(-7.6542898e+33 4.53712e+32 9.37507e+32)
(-9.1703234e+33 2.5125244e+32 1.0389436e+33)
(-6.4037053e+33 2.0423002e+32 7.8316656e+32)
(-8.1208527e+33 2.5169854e+32 9.467101e+32)
(-6.4841515e+33 2.4333308e+32 8.105973e+32)
(-8.1407918e+33 1.3200617e+32 9.5892095e+32)
(-6.466028e+33 2.1429646e+32 7.785588e+32)
(-8.1068884e+33 1.621437e+32 9.6596029e+32)
(-6.4277753e+33 2.2322758e+32 8.1954336e+32)
(-8.0562479e+33 3.2800886e+32 9.7452451e+32)
(-6.3931788e+33 2.1209499e+32 7.8993807e+32)
(-6.4212702e+33 2.2851787e+32 7.9382376e+32)
(-8.1228116e+33 2.5321419e+32 9.5311741e+32)
(-8.1202803e+33 1.1474929e+32 9.5893642e+32)
(-6.3802605e+33 2.0858294e+32 8.1051238e+32)
(-8.1017781e+33 2.9516051e+32 9.6955763e+32)
(-6.4306715e+33 2.2697996e+32 7.7012647e+32)
(-8.1420719e+33 1.614045e+32 9.5034127e+32)
(-5.5390733e+33 1.034659e+32 7.6495434e+32)
(-5.5548156e+33 9.2304927e+31 7.2913645e+32)
(-6.9515413e+33 1.6727634e+32 8.778687e+32)
(-6.9813743e+33 7.1767721e+31 8.623115e+32)
(-5.5204266e+33 8.0375182e+31 7.1433289e+32)
(-5.5650428e+33 1.0663013e+32 7.3663467e+32)
(-6.9640903e+33 1.084463e+32 8.272247e+32)
(-6.9721048e+33 3.6883626e+31 8.3826023e+32)
(-6.9276401e+33 1.3563059e+32 8.3861846e+32)
(-5.4720957e+33 8.057799e+31 7.2927372e+32)
(-5.5150838e+33 1.008056e+32 7.0786882e+32)
(-6.9636422e+33 5.8431748e+31 8.3130814e+32)
(-5.5009166e+33 9.9375426e+31 7.1215736e+32)
(-5.5450696e+33 1.3040908e+32 7.3284689e+32)
(-6.9438187e+33 4.0553105e+31 8.3203602e+32)
(-6.9390226e+33 1.0510248e+32 8.1879651e+32)
(-5.4774641e+33 1.050289e+32 7.3677554e+32)
(-5.5147846e+33 1.0116301e+32 7.0571275e+32)
(-6.939583e+33 5.8170313e+31 8.3109636e+32)
(-6.8948691e+33 1.5104743e+32 8.3927212e+32)
(-5.494743e+33 9.7715006e+31 7.01319e+32)
(-5.5434096e+33 1.3443938e+32 7.1736967e+32)
(-6.9546429e+33 4.8337338e+31 8.0925746e+32)
(-6.9423961e+33 1.0406484e+32 7.9829423e+32)
(-5.4994113e+33 1.1325788e+32 7.3183769e+32)
(-5.5511512e+33 1.2495386e+32 7.0934305e+32)
(-6.9718351e+33 7.257472e+31 8.3146391e+32)
(-6.9309822e+33 1.5061383e+32 8.3510047e+32)
(-5.5308608e+33 1.2676428e+32 7.2268689e+32)
(-5.5864615e+33 1.506592e+32 7.4393308e+32)
(-6.9736887e+33 5.0549279e+31 8.4990467e+32)
(-6.9612902e+33 1.1587378e+32 8.3693338e+32)
(-4.8094619e+33 6.9675495e+31 6.9600443e+32)
(-4.7916237e+33 2.4815414e+31 7.1844427e+32)
(-6.0645442e+33 6.5350571e+31 7.2987094e+32)
(-6.0903123e+33 1.1759567e+31 7.3416011e+32)
(-4.7782206e+33 5.0489809e+31 7.0088246e+32)
(-4.8034577e+33 9.0961762e+31 7.1341765e+32)
(-6.0865244e+33 -6.7925761e+30 7.5242691e+32)
(-6.0888544e+33 4.6752182e+31 7.5216236e+32)
(-6.0669658e+33 9.9315886e+31 7.8617815e+32)
(-4.8326206e+33 5.5462421e+31 7.4916246e+32)
(-4.8171123e+33 6.6440513e+31 7.0403392e+32)
(-6.0836725e+33 2.0035547e+31 7.736653e+32)
(-4.824685e+33 7.8679968e+31 7.1732091e+32)
(-4.7909035e+33 3.5373371e+31 7.0047156e+32)
(-6.0974488e+33 4.4373511e+31 7.53002e+32)
(-6.1058707e+33 -8.2918902e+29 7.5673852e+32)
(-4.7493531e+33 2.988369e+31 7.2123971e+32)
(-4.7589578e+33 6.3885131e+31 6.9414668e+32)
(-5.9959919e+33 6.9695297e+31 7.3539227e+32)
(-6.0314423e+33 6.575597e+30 7.4859839e+32)
(-6.0320817e+33 3.937633e+31 7.1600501e+32)
(-4.7305988e+33 3.9386404e+31 6.8432563e+32)
(-4.7666254e+33 9.3300723e+31 7.0231641e+32)
(-6.0517749e+33 2.1825979e+30 7.3264468e+32)
(-4.7770496e+33 9.0118025e+31 6.9675494e+32)
(-4.7603699e+33 4.1201325e+31 7.2032838e+32)
(-6.0247483e+33 7.4571314e+31 7.3432899e+32)
(-6.054123e+33 2.3365331e+31 7.4864159e+32)
(-4.7608798e+33 8.7036737e+31 7.102882e+32)
(-4.7431675e+33 6.5722573e+31 6.9516734e+32)
(-6.0320536e+33 5.3204519e+31 7.4655436e+32)
(-6.0326165e+33 -8.6543534e+30 7.5029478e+32)
(-9.6498543e+33 2.3102686e+32 -2.3935481e+32)
(-8.428442e+33 1.4168889e+32 1.9761247e+31)
(-8.3066966e+33 2.1987446e+32 4.3311808e+30)
(-8.3053063e+33 2.0872599e+32 -5.3857051e+31)
(-8.1469656e+33 1.8087306e+32 -6.9937608e+31)
(-1.0043096e+34 2.714732e+32 3.5773617e+32)
(-9.1452141e+33 2.661127e+32 5.427726e+32)
(-9.209051e+33 1.3886473e+32 5.7839947e+32)
(-8.8523644e+33 1.5448669e+32 4.317807e+31)
(-8.8386315e+33 2.066912e+32 2.1973121e+31)
(-8.7002885e+33 2.3213792e+32 -3.0608533e+32)
(-8.9520589e+33 1.5956313e+32 -1.2014055e+32)
(-8.6851446e+33 1.5462442e+32 -3.4903518e+32)
(-8.9039014e+33 2.6519521e+32 -1.014736e+32)
(-8.6986025e+33 1.7601943e+32 -3.7140023e+32)
(-8.9705028e+33 1.4906084e+32 -1.3669833e+32)
(-8.6627e+33 1.4093552e+32 -3.6461602e+32)
(-8.9357076e+33 2.1191319e+32 -1.6210329e+32)
(-7.7443239e+33 2.8364257e+32 -5.9848151e+31)
(-7.6461263e+33 3.1334492e+32 1.2462794e+31)
(-7.7857228e+33 3.2115858e+32 2.8101883e+31)
(-7.8966831e+33 3.1512172e+32 -5.7549681e+31)
(-8.8539439e+33 2.6200567e+32 1.0032484e+32)
(-9.1041332e+33 1.3769447e+32 5.5067362e+32)
(-8.9947714e+33 2.942324e+32 5.4450829e+32)
(-8.8438092e+33 1.4655559e+32 6.5083267e+31)
(-7.6646135e+33 9.6737625e+31 -3.4022838e+32)
(-7.6336036e+33 1.0413943e+32 -3.2245866e+32)
(-7.7103168e+33 1.2178135e+32 -2.5771009e+32)
(-7.7430551e+33 9.3790614e+31 -2.7347338e+32)
(-7.6335522e+33 6.3176925e+31 -3.6319993e+32)
(-7.6183204e+33 7.2074481e+31 -3.5146917e+32)
(-7.6531725e+33 7.0252958e+31 -3.2311863e+32)
(-7.6452296e+33 6.4686984e+31 -3.0877835e+32)
(-7.6310573e+33 7.3444283e+31 -1.9795488e+32)
(-7.5243881e+33 6.2084788e+31 -3.0639031e+32)
(-7.5142455e+33 6.2802641e+31 -2.9461084e+32)
(-7.6233956e+33 5.3384749e+31 -1.8634097e+32)
(-7.5802377e+33 7.8509586e+31 -2.7578513e+32)
(-7.5674597e+33 1.0723796e+32 -2.5257792e+32)
(-7.6454352e+33 1.1476242e+32 -1.5616257e+32)
(-7.6837059e+33 6.9468137e+31 -1.6622917e+32)
(-7.5774044e+33 1.130454e+32 -9.5458213e+31)
(-7.5939859e+33 5.3406758e+31 -1.142512e+32)
(-7.8343673e+33 5.2760142e+31 1.1174581e+32)
(-7.7997063e+33 1.4743476e+32 1.26905e+32)
(-7.9770178e+33 1.7938633e+32 6.2753435e+32)
(-7.7485345e+33 3.3541483e+31 2.7696198e+32)
(-7.7473542e+33 1.4821651e+32 3.05168e+32)
(-8.0232175e+33 4.6392663e+31 6.1704938e+32)
(-8.0427512e+33 1.4109614e+32 6.0524912e+32)
(-7.7038742e+33 3.0311546e+31 2.4744089e+32)
(-7.7200565e+33 1.0230586e+32 2.3850472e+32)
(-8.0148192e+33 2.5708354e+31 6.0462702e+32)
(-7.8046338e+33 9.7030002e+31 7.5309289e+31)
(-7.5354943e+33 4.5960259e+31 -1.3925681e+32)
(-7.5496229e+33 6.9428685e+31 -1.4875914e+32)
(-7.8008307e+33 3.9194313e+31 8.5425897e+31)
(-7.5431685e+33 5.9323045e+31 -2.8610002e+32)
(-7.5333622e+33 5.9350712e+31 -2.9955919e+32)
(-7.669174e+33 7.9818021e+31 -1.7525656e+32)
(-7.6730885e+33 4.7758645e+31 -1.6422064e+32)
(-7.7104871e+33 6.1061614e+31 -2.8793224e+32)
(-7.6981605e+33 7.0089445e+31 -2.9945369e+32)
(-7.6084605e+33 5.1905222e+31 -3.6729679e+32)
(-7.6375057e+33 6.8204955e+31 -3.4949769e+32)
(-7.6878561e+33 7.6719121e+31 -2.9142482e+32)
(-7.6250964e+33 7.0104861e+31 -3.6264053e+32)
(-7.6073975e+33 5.6524345e+31 -3.6038532e+32)
(-7.7018769e+33 6.5017552e+31 -2.9868698e+32)
(-7.6314467e+33 7.9780896e+31 -1.8678503e+32)
(-7.5444275e+33 5.8840775e+31 -2.9896195e+32)
(-7.5322245e+33 6.7693903e+31 -2.8761913e+32)
(-7.6489509e+33 5.0799612e+31 -1.9414869e+32)
(-7.7414409e+33 3.0188601e+31 2.7005127e+32)
(-7.7437292e+33 1.1740441e+32 2.5831348e+32)
(-8.0482004e+33 1.5048226e+32 6.1448375e+32)
(-8.0438627e+33 2.1841185e+31 6.2563852e+32)
(-7.7202951e+33 3.3312054e+31 2.3623608e+32)
(-7.7153012e+33 1.1400303e+32 2.5482614e+32)
(-7.995217e+33 1.5668711e+32 5.9968309e+32)
(-8.0239727e+33 4.374849e+31 5.8526683e+32)
(-7.7851425e+33 1.1379114e+32 8.6031291e+31)
(-7.549356e+33 7.8820651e+31 -1.3415689e+32)
(-7.5660237e+33 4.4833587e+31 -1.4456804e+32)
(-7.8103531e+33 4.5777274e+31 7.4905724e+31)
(-7.8321595e+33 1.0970823e+32 9.5626818e+31)
(-7.5758013e+33 7.7912098e+31 -1.305764e+32)
(-7.573362e+33 4.1783932e+31 -1.1999985e+32)
(-7.843023e+33 3.4324992e+31 1.0797266e+32)
(-6.3133382e+33 1.6104837e+31 -1.9688942e+32)
(-6.4398891e+33 2.4119809e+31 -1.3758901e+32)
(-6.3201581e+33 1.1764954e+30 -2.0622988e+32)
(-6.4587343e+33 -2.1212358e+30 -1.4445923e+32)
(-6.3802497e+33 -4.4933101e+30 -2.3266331e+32)
(-6.3600329e+33 -6.7155831e+30 -2.4126344e+32)
(-6.4599712e+33 5.7799824e+30 -2.036837e+32)
(-6.4457407e+33 -3.5613909e+30 -2.10085e+32)
(-6.3616078e+33 9.2663846e+30 -2.2341949e+32)
(-6.4372377e+33 1.9629264e+31 -1.9244897e+32)
(-6.3690692e+33 3.7256793e+30 -2.312842e+32)
(-6.449737e+33 5.8262459e+30 -2.0042997e+32)
(-6.3280974e+33 8.8034387e+29 -2.1079828e+32)
(-6.4618652e+33 7.9237911e+30 -1.5438259e+32)
(-6.3095425e+33 -7.4512806e+30 -2.1806283e+32)
(-6.450751e+33 -1.1564256e+31 -1.5772891e+32)
(-6.4580882e+33 -4.9310211e+30 -2.4184555e+32)
(-6.5190578e+33 3.7650611e+30 -2.0815303e+32)
(-6.4416506e+33 -6.7063966e+30 -2.5181408e+32)
(-6.5029794e+33 -5.2030351e+30 -2.1565011e+32)
(-6.4426812e+33 8.8422933e+30 -2.3350409e+32)
(-6.4950659e+33 1.4855415e+31 -2.019378e+32)
(-6.4466215e+33 5.5501501e+30 -2.4189782e+32)
(-6.5071371e+33 5.473255e+30 -2.0812752e+32)
(-6.6373878e+33 1.8299152e+31 -2.3086526e+32)
(-6.6446103e+33 9.6551698e+30 -2.3679628e+32)
(-6.7097528e+33 1.6283404e+31 -3.0111178e+32)
(-6.7080111e+33 7.4372863e+30 -3.0588776e+32)
(-6.6591642e+33 7.3339734e+30 -2.367039e+32)
(-6.6448421e+33 -2.4537682e+30 -2.4509386e+32)
(-6.7066135e+33 -4.3286905e+30 -3.1556301e+32)
(-6.726629e+33 4.1585914e+30 -3.0692148e+32)
(-6.2341111e+33 -7.0970969e+30 -2.3336877e+32)
(-6.2509675e+33 -4.5377648e+30 -2.359521e+32)
(-6.3705124e+33 2.4804458e+30 -1.701395e+32)
(-6.3964184e+33 -9.8972463e+30 -1.7078029e+32)
(-6.3049498e+33 -7.1572018e+30 -2.4330365e+32)
(-6.3887022e+33 2.7120035e+30 -2.1293056e+32)
(-6.3918533e+33 -5.5652883e+30 -2.0980799e+32)
(-6.2787339e+33 -1.5027862e+31 -2.6167255e+32)
(-6.3584679e+33 -4.1652497e+30 -2.2871617e+32)
(-6.298177e+33 -1.1422636e+30 -2.6350887e+32)
(-6.3810039e+33 -1.4158181e+30 -2.3061246e+32)
(-6.258682e+33 -4.9517267e+29 -2.1930897e+32)
(-6.2490448e+33 -7.5566187e+30 -2.1852648e+32)
(-6.3986599e+33 4.7377007e+30 -1.6080928e+32)
(-6.3950166e+33 -1.5631803e+31 -1.5720941e+32)
(-6.3735453e+33 -7.5096852e+30 -2.5361458e+32)
(-6.442915e+33 1.319111e+29 -2.1869739e+32)
(-6.346904e+33 -1.8532902e+31 -2.7668997e+32)
(-6.4101585e+33 -1.0432684e+31 -2.3998368e+32)
(-6.3664211e+33 2.2935005e+30 -2.8107024e+32)
(-6.4345898e+33 -6.4699371e+29 -2.4111925e+32)
(-6.7320255e+33 4.1996679e+31 4.3658198e+32)
(-6.7254652e+33 -3.1892659e+31 4.4052164e+32)
(-6.9804172e+33 6.1982477e+31 6.8073645e+32)
(-6.9839614e+33 -2.5576886e+31 6.8879324e+32)
(-6.6448136e+33 -1.7708473e+31 1.0859602e+32)
(-6.631269e+33 4.2850122e+31 1.2222585e+32)
(-6.859907e+33 7.236018e+31 3.3625648e+32)
(-6.8820713e+33 -8.1162248e+30 3.2104494e+32)
(-6.6451741e+33 1.9021253e+31 9.30128e+31)
(-6.6324453e+33 -2.7658768e+31 9.4484193e+31)
(-6.8794043e+33 3.5416139e+31 3.0057286e+32)
(-6.8826277e+33 -2.7221108e+31 3.0525317e+32)
(-6.7282154e+33 -2.3949291e+31 4.5830377e+32)
(-6.7250874e+33 7.4176864e+31 4.8198784e+32)
(-6.9426731e+33 1.0034496e+32 7.1483697e+32)
(-6.9744464e+33 -1.6789376e+30 7.0069938e+32)
(-6.3722122e+33 1.8110574e+30 -1.7930869e+32)
(-6.5310308e+33 9.9887947e+30 -1.2360218e+32)
(-6.3552113e+33 -1.29352e+31 -1.8333025e+32)
(-6.5256865e+33 -1.3619903e+31 -1.2506294e+32)
(-6.4601447e+33 -8.2261666e+30 -1.0061707e+32)
(-6.4508988e+33 2.7850539e+31 -8.8351543e+31)
(-6.671534e+33 4.2408608e+31 5.3638113e+31)
(-6.6979034e+33 -8.0724364e+30 4.5344036e+31)
(-6.3549786e+33 1.8852384e+31 -1.6093662e+32)
(-6.5122451e+33 3.0939437e+31 -1.0318341e+32)
(-6.3660213e+33 -4.640681e+30 -1.7004467e+32)
(-6.5318172e+33 -1.6644724e+30 -1.1273521e+32)
(-6.4631792e+33 7.6932768e+30 -1.1125346e+32)
(-6.4504951e+33 -1.6941768e+31 -1.1333146e+32)
(-6.6940821e+33 1.7779715e+31 3.0773547e+31)
(-6.6919667e+33 -2.353352e+31 3.2829379e+31)
(-6.5700438e+33 1.8979737e+31 8.4627288e+31)
(-6.5864677e+33 -2.3766254e+31 7.8828513e+31)
(-6.8016185e+33 4.6444605e+31 2.9391967e+32)
(-6.8257836e+33 -1.5992346e+31 2.8620051e+32)
(-6.664444e+33 4.9907533e+31 4.3608458e+32)
(-6.6720319e+33 -2.6464402e+31 4.2175395e+32)
(-6.8991351e+33 7.4904625e+31 6.7195293e+32)
(-6.9291804e+33 -9.5468059e+30 6.6418841e+32)
(-6.6842402e+33 4.9176498e+31 4.3439658e+32)
(-6.6760529e+33 -2.9655126e+31 4.4208897e+32)
(-6.9427642e+33 6.3931181e+31 6.8507971e+32)
(-6.9396982e+33 -3.2077184e+31 6.9585511e+32)
(-6.5936128e+33 2.0316834e+31 8.8277302e+31)
(-6.5827395e+33 -2.5949314e+31 9.380205e+31)
(-6.835028e+33 3.8515461e+31 2.9649898e+32)
(-6.837631e+33 -2.6737633e+31 3.0407834e+32)
(-6.4027216e+33 6.6267116e+30 -1.1845357e+32)
(-6.392631e+33 -1.556058e+31 -1.1611751e+32)
(-6.6442989e+33 1.7016555e+31 2.6581353e+31)
(-6.6435145e+33 -2.3887408e+31 3.1818098e+31)
(-6.2853469e+33 -3.3069478e+30 -1.9437828e+32)
(-6.447507e+33 7.9923946e+30 -1.3636848e+32)
(-6.3037971e+33 -1.1331434e+31 -1.9647758e+32)
(-6.4722057e+33 -1.0670933e+31 -1.3935866e+32)
(-6.3846503e+33 4.3194967e+30 -1.2272146e+32)
(-6.3978436e+33 -1.5244386e+31 -1.2779096e+32)
(-6.6123119e+33 1.7310174e+31 1.8329255e+31)
(-6.6414651e+33 -1.7548808e+31 1.6623845e+31)
(-6.3104123e+33 -6.8674605e+29 -1.8644001e+32)
(-6.4719553e+33 6.7999764e+30 -1.3166763e+32)
(-6.2972518e+33 -1.4891542e+31 -1.8490909e+32)
(-6.4694639e+33 -1.5622661e+31 -1.2864551e+32)