/*--------------------------------*- C++ -*----------------------------------*\
  =========                 |
  \\      /  F ield         | OpenFOAM: The Open Source CFD Toolbox
   \\    /   O peration     | Website:  https://openfoam.org
    \\  /    A nd           | Version:  7
     \\/     M anipulation  |
\*---------------------------------------------------------------------------*/
FoamFile
{
    version     2.0;
    format      ascii;
    class       volScalarField;
    location    "2000";
    object      k;
}
// * * * * * * * * * * * * * * * * * * * * * * * * * * * * * * * * * * * * * //

dimensions      [0 2 -2 0 0 0 0];

internalField   nonuniform List<scalar> 
34387
(
1.519722
1.5188198
1.5168545
1.523898
1.520865
1.519707
1.5197664
1.5197656
1.5196462
1.5196347
1.5187652
1.5186436
1.5189736
1.5189975
1.5186858
1.5187881
1.5187605
1.5186271
1.5186706
1.5171753
1.5171455
1.5168285
1.5213793
1.5200576
1.5239488
1.5240706
1.5240705
1.5240213
1.5240293
1.5239025
1.520858
1.521022
1.5210326
1.5206295
1.5206523
1.5196927
1.5197525
1.5196374
1.5197522
1.5196265
1.5222952
1.5222452
1.5206113
1.5206153
1.5187222
1.5189047
1.5188938
1.518603
1.5186408
1.5187451
1.5187225
1.5185857
1.5186271
1.5188367
1.5184664
1.5199562
1.5200041
1.518867
1.518503
1.5189426
1.5189157
1.5184175
1.5184432
1.5173483
1.5173304
1.5171534
1.517296
1.5171382
1.5168333
1.5181275
1.5255415
1.5213322
1.5212162
1.5211481
1.521196
1.5212572
1.520838
1.5199996
1.5239911
1.5240975
1.5241237
1.5240768
1.5240684
1.52317
1.5251664
1.5251463
1.5232131
1.524427
1.5238883
1.5235434
1.5238996
1.5239042
1.5235598
1.5208486
1.5209773
1.5209796
1.52064
1.5206155
1.5261282
1.5262349
1.5239241
1.5238866
1.5196754
1.5197428
1.5196293
1.5197403
1.5196179
1.5223433
1.520605
1.5223048
1.5206082
1.5225171
1.5224879
1.5206699
1.5206626
1.5186844
1.5186906
1.5187086
1.5185865
1.5185457
1.5185634
1.5188479
1.5188456
1.5186001
1.519907
1.5198663
1.518786
1.5184185
1.5188086
1.5184546
1.5188875
1.5188612
1.5183677
1.5183927
1.5180647
1.5189273
1.5179329
1.5199873
1.5200567
1.5180931
1.5189174
1.5179615
1.519067
1.5190527
1.5184782
1.5184991
1.5173958
1.5181578
1.5173401
1.5174023
1.5173021
1.5171406
1.517956
1.5173449
1.5171256
1.5166727
1.5197866
1.5181472
1.5180879
1.518131
1.5180686
1.5180863
1.518107
1.5180747
1.5180925
1.5181343
1.5260698
1.525557
1.5211486
1.5211024
1.5212857
1.5211787
1.5212136
1.5217209
1.5204217
1.5204514
1.5217265
1.5204831
1.5199535
1.5240353
1.5241645
1.5241252
1.5241309
1.5240993
1.5230722
1.5251971
1.5251799
1.5231235
1.5231443
1.5252394
1.5252638
1.52319
1.5251375
1.5245258
1.5245032
1.5247317
1.5247884
1.5245391
1.5238501
1.5235532
1.5238954
1.5238918
1.5235772
1.5288586
1.5286667
1.5285291
1.5286583
1.5208193
1.52095
1.5209442
1.5206388
1.5206123
1.5263431
1.526269
1.5239339
1.5239724
1.5265471
1.5266081
1.5241634
1.5241685
1.5197315
1.5196526
1.5196187
1.5197294
1.5196063
1.5223825
1.5205986
1.52235
1.5205971
1.5225331
1.5206203
1.5225441
1.5206044
1.5226619
1.522635
1.5207431
1.5207334
1.5186474
1.5186606
1.5188207
1.5188072
1.5185611
1.5185225
1.5185047
1.5185452
1.5186772
1.5188174
1.518836
1.5183435
1.5184074
1.5183145
1.5183668
1.5187285
1.5197928
1.5198238
1.5187588
1.5199283
1.5199029
1.518015
1.518855
1.5178881
1.5180383
1.5188851
1.5179093
1.5189815
1.5189011
1.5184492
1.5184608
1.5174333
1.5181242
1.5189292
1.5178547
1.5200856
1.520145
1.5174639
1.5181448
1.5189605
1.5178921
1.5190448
1.5190015
1.5184889
1.5185148
1.5173518
1.5180902
1.5173203
1.5173688
1.5172712
1.5170511
1.5178493
1.5173476
1.5170206
1.5171741
1.522562
1.5197612
1.5197326
1.5197153
1.5194773
1.5195189
1.518161
1.5181059
1.5180489
1.518042
1.5180572
1.5181151
1.5180626
1.518048
1.5180569
1.5180817
1.5181438
1.5180508
1.5181285
1.5180659
1.5181336
1.5184875
1.5188593
1.5188631
1.5185175
1.525975
1.5255884
1.5203971
1.5203627
1.5211034
1.5212285
1.5210558
1.5211381
1.5211748
1.5217049
1.5217114
1.5217547
1.5203814
1.5204354
1.5218007
1.525576
1.5202469
1.5199154
1.5241993
1.5240833
1.5241635
1.5241343
1.5241612
1.5251936
1.5251943
1.5229861
1.5230298
1.5229841
1.5252541
1.5252579
1.5230327
1.5230943
1.5253335
1.5253272
1.5231404
1.5282693
1.5256381
1.5267435
1.5261467
1.5258989
1.5264348
1.5246066
1.524812
1.52476
1.5245491
1.5245732
1.5273986
1.5282571
1.5283855
1.5274203
1.5238351
1.5238894
1.5238811
1.5236037
1.5236069
1.5291996
1.5289072
1.5287674
1.5290066
1.529344
1.5293161
1.5291365
1.5292385
1.5207785
1.5209276
1.5209227
1.5206324
1.5206024
1.5265041
1.5263926
1.523989
1.5240557
1.5266781
1.5266593
1.524177
1.5241512
1.5268093
1.5268723
1.52434
1.5243231
1.5224199
1.5197171
1.5196278
1.5196051
1.5197195
1.5195893
1.520583
1.5223857
1.5205745
1.5225849
1.520605
1.5225654
1.5206111
1.5226887
1.5207194
1.5226745
1.5207126
1.5186106
1.5187964
1.5186202
1.5186405
1.5185033
1.5184601
1.5184809
1.5185198
1.5187895
1.5187736
1.5197377
1.5197565
1.5186915
1.5183557
1.5186555
1.5183099
1.5182599
1.518289
1.5187962
1.5188448
1.5188491
1.5184348
1.5178651
1.517987
1.5178417
1.5183821
1.51796
1.5187723
1.5198677
1.5198975
1.5188
1.5200413
1.5200056
1.5173884
1.5180776
1.5188662
1.5178244
1.5174103
1.5180801
1.5188938
1.5178579
1.518955
1.5189118
1.5184394
1.5184624
1.517317
1.5180568
1.5172929
1.5173425
1.5172338
1.5171946
1.5178282
1.5172627
1.5170656
1.5166076
1.5263628
1.5223357
1.521824
1.522711
1.5227111
1.5219349
1.5190313
1.5189839
1.5197234
1.5197152
1.5196642
1.5194771
1.5195035
1.5186731
1.5186911
1.5180774
1.5181111
1.5180874
1.5180086
1.5180787
1.5180291
1.518015
1.5180344
1.5180221
1.5180128
1.5180334
1.5180176
1.518117
1.5180338
1.5181183
1.5181267
1.5188436
1.5188348
1.518428
1.5184549
1.5180603
1.5179067
1.5181752
1.5185379
1.5179207
1.5181906
1.5185448
1.5185461
1.518926
1.5189323
1.5185972
1.5277905
1.5259111
1.5256085
1.5203693
1.5203097
1.5203306
1.521175
1.5210541
1.5210107
1.5211315
1.5210974
1.5202864
1.5216838
1.5216927
1.5217228
1.5217517
1.5218279
1.5203838
1.5204144
1.5218409
1.5231998
1.5256657
1.5200864
1.5198857
1.5251818
1.5242065
1.5241305
1.5242502
1.5241855
1.5241632
1.5229056
1.52295
1.5251764
1.5252868
1.5253106
1.522918
1.5229153
1.5229734
1.5253718
1.5253527
1.5230291
1.5280236
1.5291758
1.5304989
1.5299524
1.5296487
1.5301544
1.5260974
1.5263409
1.526939
1.5266746
1.5261568
1.5281781
1.5297981
1.5295961
1.5281915
1.5246629
1.5248
1.524583
1.5247758
1.5245937
1.528578
1.5284666
1.5274119
1.5274389
1.5276737
1.5287121
1.5288648
1.5275917
1.5238274
1.5238901
1.5238773
1.5236566
1.5236665
1.5291291
1.5290004
1.5293414
1.529564
1.5296308
1.5294717
1.5294071
1.5294684
1.5296684
1.5295443
1.5294628
1.5295395
1.5207325
1.5209089
1.5205782
1.5206148
1.5209036
1.5267186
1.5265816
1.5240932
1.5241655
1.5268182
1.5267533
1.5241834
1.5242041
1.526933
1.526902
1.5243497
1.5243596
1.5226402
1.522426
1.5196024
1.5197009
1.519702
1.5195666
1.5195859
1.5205602
1.5224579
1.5205566
1.5206339
1.5226486
1.5205847
1.5227232
1.520706
1.5227049
1.5206976
1.5185772
1.5185797
1.5184162
1.5184598
1.5186
1.5184815
1.5187425
1.5187314
1.5184419
1.5196823
1.5187013
1.5187382
1.5182292
1.5182984
1.5181943
1.51825
1.5185857
1.5186188
1.5197083
1.5187899
1.5198161
1.519821
1.5179322
1.5187401
1.5178159
1.5178991
1.5186983
1.5177864
1.5183234
1.518342
1.518845
1.5188598
1.5188803
1.5184112
1.517799
1.5173612
1.5179664
1.5177707
1.517344
1.5183754
1.5180034
1.518806
1.5199461
1.519975
1.5188364
1.5172832
1.517314
1.5180256
1.5178019
1.517238
1.5171334
1.5169806
1.5167943
1.5169875
1.5167227
1.5215354
1.5262889
1.5263517
1.5265791
1.5268821
1.5266904
1.5221764
1.5226164
1.5225767
1.5217823
1.5218713
1.5207806
1.5241019
1.5241827
1.5208409
1.5190298
1.5189535
1.5189595
1.5189121
1.5196968
1.5196806
1.5196175
1.519496
1.5194638
1.5186493
1.5186649
1.518638
1.5186708
1.5181369
1.5180509
1.5180942
1.5179722
1.5180499
1.5180371
1.5179895
1.5180005
1.5179753
1.5179981
1.5180075
1.517997
1.5180747
1.5180001
1.5181072
1.517983
1.5181079
1.5188228
1.5188176
1.5183844
1.5184001
1.5178798
1.5181388
1.5185208
1.5178924
1.5181556
1.5185274
1.5180508
1.5189177
1.5189088
1.5184736
1.518529
1.5181248
1.5177563
1.517864
1.5181507
1.5186226
1.5178791
1.5177799
1.5181721
1.5186311
1.5185955
1.5190096
1.5190162
1.518635
1.523645
1.5279741
1.5258553
1.5256216
1.5203565
1.5203232
1.5203074
1.5211278
1.5209668
1.5210064
1.5210926
1.5210621
1.5202574
1.5202246
1.5216663
1.521659
1.5202444
1.5217673
1.5217721
1.5218188
1.5218225
1.5182241
1.5232917
1.5257379
1.5199518
1.5198637
1.5251885
1.5252899
1.5241728
1.5242978
1.5242008
1.5241851
1.5242537
1.5251983
1.5228376
1.5228743
1.5228203
1.5228851
1.5252961
1.5253728
1.5253808
1.5228835
1.5229224
1.5306579
1.5285767
1.52968
1.5294705
1.5291624
1.5293429
1.5300041
1.5309374
1.5306171
1.5302169
1.5305061
1.530202
1.5301395
1.5290069
1.5289768
1.5264557
1.5270418
1.5268825
1.5263516
1.526448
1.5301259
1.5280907
1.5281293
1.5299504
1.5284878
1.5299504
1.5298512
1.5284632
1.5246736
1.5247799
1.5247721
1.5246057
1.5246057
1.5288023
1.527443
1.5286714
1.5274794
1.5289952
1.5289336
1.5275901
1.5276066
1.527952
1.5289613
1.5290108
1.5278997
1.5238179
1.5237099
1.5239063
1.5237036
1.5238899
1.5293583
1.5292169
1.5297279
1.529962
1.5295645
1.5295046
1.5297794
1.5299919
1.5299057
1.529675
1.5296131
1.5297865
1.5206855
1.5205472
1.5208907
1.5208819
1.5205844
1.526921
1.5242369
1.5241876
1.5267949
1.5269973
1.5269168
1.5242816
1.5243367
1.5270504
1.5269826
1.5243814
1.524414
1.5227448
1.5226254
1.5195767
1.5196851
1.5196826
1.51956
1.5195392
1.522462
1.5224886
1.520532
1.5205397
1.5205947
1.5226616
1.5206048
1.5206857
1.5227376
1.5206662
1.5185487
1.5185396
1.5184065
1.5186887
1.5185614
1.5184185
1.5183722
1.5186863
1.5184455
1.5186386
1.5181342
1.5181904
1.5181645
1.518238
1.5186667
1.518554
1.5196365
1.5196033
1.5185277
1.5197925
1.5187007
1.5187373
1.5177586
1.5183039
1.5178631
1.5177281
1.518265
1.5178265
1.518616
1.5186506
1.5198153
1.5188084
1.5198967
1.5199161
1.5173214
1.5179441
1.5187677
1.5177513
1.5172983
1.5179271
1.5187278
1.5176915
1.5183104
1.5183422
1.5188373
1.5177788
1.517287
1.5172449
1.5179858
1.5177559
1.5172574
1.5172033
1.5179605
1.5172246
1.5171637
1.5170252
1.5172308
1.5170262
1.5165868
1.5245871
1.5212478
1.5212974
1.5212515
1.5213507
1.521386
1.5273955
1.5274887
1.5263915
1.526747
1.5264191
1.5270731
1.5269294
1.5295023
1.5293497
1.5220476
1.5217105
1.5224534
1.5224783
1.521803
1.5240298
1.5239541
1.5206795
1.520745
1.5207006
1.5242077
1.5242779
1.5207874
1.5189853
1.5189375
1.5189394
1.5188894
1.5188719
1.5188178
1.5196507
1.51963
1.5195808
1.519442
1.5194747
1.5186377
1.5186154
1.5186181
1.5186443
1.5186269
1.5186422
1.5181062
1.5180472
1.5179379
1.5179642
1.5180002
1.5180113
1.5179737
1.517939
1.5179756
1.5179829
1.5179606
1.5180532
1.518032
1.5179507
1.518103
1.5179663
1.5180982
1.5183521
1.5188015
1.518805
1.5183656
1.518046
1.5178668
1.518105
1.5185139
1.5178527
1.5180805
1.5185064
1.518899
1.5188906
1.5184331
1.5184777
1.5177117
1.5178444
1.5181047
1.5186124
1.517854
1.5177332
1.5181269
1.5185997
1.5181142
1.5189991
1.5189883
1.5185266
1.51856
1.5177344
1.5177362
1.5178629
1.5186333
1.5178758
1.517756
1.5177604
1.5186473
1.5300096
1.5234101
1.5281184
1.5258098
1.5256314
1.5202901
1.5210808
1.5210573
1.5209643
1.5209233
1.5210296
1.5201732
1.5202004
1.5216534
1.5216591
1.5202371
1.5201766
1.5217339
1.5217449
1.5202464
1.521804
1.5218175
1.5181922
1.5179326
1.5233926
1.525802
1.5198373
1.5198489
1.5252663
1.5253497
1.5242126
1.5242126
1.5243556
1.5243065
1.5242012
1.525195
1.5227595
1.5228061
1.5251888
1.5252952
1.5227513
1.5227569
1.5227887
1.5228372
1.5253583
1.5292381
1.5315647
1.5327336
1.5321827
1.5320683
1.5326043
1.5290777
1.5296091
1.5298587
1.5296493
1.5294346
1.5302137
1.5295534
1.5295714
1.5302185
1.5306651
1.5312049
1.5309453
1.5306955
1.5309566
1.5303019
1.5289064
1.5289459
1.5302542
1.530244
1.5301435
1.5288228
1.5286734
1.5266262
1.5270879
1.526504
1.5264715
1.5269944
1.5280091
1.5280453
1.530283
1.5304661
1.5302969
1.5283013
1.5284069
1.530124
1.5284818
1.5302194
1.5300905
1.52854
1.524657
1.524613
1.5247608
1.5246178
1.5247608
1.5290431
1.5289014
1.5274835
1.5275248
1.5291178
1.5276229
1.5290428
1.5276499
1.5291104
1.5290533
1.5278563
1.5278203
1.5238054
1.5239051
1.5239264
1.5237359
1.5237329
1.5303072
1.5295736
1.5301147
1.5294431
1.5297645
1.529682
1.5301333
1.530321
1.5297944
1.529732
1.5300302
1.5301768
1.520637
1.5208572
1.5208663
1.5205143
1.520551
1.524309
1.5271142
1.5269942
1.5242538
1.5271613
1.5244091
1.5243482
1.5270988
1.5272073
1.527127
1.5244549
1.5244923
1.5227506
1.5195515
1.5196715
1.5196657
1.5195314
1.5195083
1.522491
1.5224782
1.5205046
1.5204815
1.5226457
1.522671
1.520558
1.5206112
1.5206584
1.5227585
1.5206514
1.5185226
1.5186784
1.5186686
1.518411
1.5183691
1.5183253
1.518493
1.5185194
1.5183737
1.5185736
1.5184758
1.5181269
1.5195544
1.5186061
1.5181067
1.5181783
1.5180746
1.519569
1.5185016
1.5186591
1.5176774
1.5181718
1.5177721
1.5182093
1.5177014
1.5177982
1.5186651
1.5185831
1.5197316
1.5196876
1.5185571
1.519836
1.5187381
1.5187731
1.5172775
1.5176818
1.5182732
1.51786
1.51765
1.5172548
1.518231
1.5178369
1.5186502
1.5186872
1.5198719
1.5172366
1.5172214
1.517926
1.5177306
1.5171764
1.517233
1.5178917
1.5177016
1.5172106
1.5171386
1.5169622
1.5172123
1.516968
1.5166741
1.5210003
1.5242003
1.5241462
1.5244526
1.5241893
1.5242359
1.5210444
1.5212161
1.5211559
1.5210207
1.5211662
1.5216497
1.5211439
1.5211946
1.5217348
1.5276566
1.5277235
1.5275609
1.5269157
1.5272407
1.5265175
1.526496
1.5271047
1.5276482
1.5298666
1.52966
1.5298839
1.5297377
1.5219363
1.5223482
1.5223182
1.5216237
1.5217167
1.5205084
1.5237371
1.5238496
1.5206052
1.5240981
1.524036
1.5205906
1.5206633
1.5206688
1.524228
1.5243137
1.5207332
1.5189036
1.518865
1.5188785
1.5188094
1.518772
1.5187177
1.5195994
1.5195774
1.5195524
1.5194185
1.5194487
1.5185809
1.5186025
1.5186286
1.5185922
1.5186011
1.5186151
1.5180956
1.5179536
1.5179389
1.5179623
1.517904
1.517976
1.517947
1.5179591
1.517929
1.5179089
1.5179185
1.5181012
1.5179963
1.5180131
1.5179341
1.5180936
1.5183212
1.5187812
1.5187874
1.5183336
1.5180304
1.5180206
1.5178243
1.5180265
1.5184902
1.5178384
1.5180434
1.518497
1.5183783
1.5188738
1.51888
1.5184363
1.5180826
1.5178324
1.5176943
1.5180801
1.5185821
1.5176749
1.5178165
1.5180563
1.5185837
1.5189785
1.5189702
1.5184766
1.5185006
1.517679
1.5176973
1.5178362
1.5186099
1.5178496
1.5177172
1.517704
1.5186199
1.5177255
1.5176472
1.5176643
1.5176875
1.517677
1.5177507
1.5226731
1.5302697
1.5232075
1.5282435
1.5257696
1.5256362
1.5209211
1.5208654
1.5210333
1.5209989
1.5210236
1.5216576
1.5201517
1.5201197
1.5216563
1.5201592
1.5201691
1.5217
1.521715
1.5202137
1.5201793
1.5217845
1.5217733
1.5211085
1.5180524
1.5176909
1.5234984
1.5258582
1.5197358
1.5198412
1.5253487
1.5242526
1.5243992
1.5243564
1.5242123
1.5242342
1.5226704
1.5251969
1.5251931
1.5227226
1.5252603
1.5226794
1.52271
1.5252445
1.5253503
1.5227203
1.5227489
1.5253149
1.5297283
1.5297219
1.5299879
1.5307314
1.5304109
1.5324095
1.5332029
1.5330728
1.5326613
1.5327726
1.5326409
1.5324891
1.5329027
1.5330664
1.5294078
1.5297031
1.5299102
1.5297888
1.5296144
1.5301876
1.5301645
1.5294965
1.5295242
1.5303136
1.5293941
1.5294723
1.5302881
1.5310582
1.5312056
1.5313756
1.5310286
1.5312141
1.530368
1.5303378
1.5288672
1.5288147
1.5303198
1.5286295
1.5286262
1.5302934
1.5300392
1.5299961
1.5286996
1.528634
1.5266774
1.5265202
1.5270817
1.5265275
1.5270352
1.5279091
1.5307908
1.5306053
1.5279564
1.5281281
1.5282068
1.5304666
1.5306425
1.5304574
1.5283203
1.5284024
1.5303419
1.5246274
1.5247376
1.5246143
1.5246199
1.5247414
1.527554
1.5292532
1.5275295
1.5291356
1.5293478
1.529251
1.5276003
1.5276212
1.5292632
1.5277866
1.5291797
1.5277557
1.5237894
1.5239225
1.5239494
1.5237548
1.5237527
1.5296608
1.5297945
1.5305835
1.5304288
1.5305617
1.529969
1.5304462
1.52989
1.5299236
1.5298603
1.5303229
1.5304769
1.5205863
1.520846
1.520832
1.5205146
1.5204768
1.5271792
1.527285
1.52439
1.5243338
1.5244961
1.5273354
1.5272537
1.5244238
1.5273743
1.5245493
1.5245185
1.5272919
1.519527
1.5196633
1.5194747
1.5195
1.5196528
1.5224883
1.5224756
1.5204515
1.5204277
1.5226775
1.5226454
1.5205329
1.5204876
1.5227608
1.5227685
1.5206208
1.5206398
1.5184979
1.5183333
1.518682
1.5184453
1.5184759
1.5183289
1.5182745
1.5183754
1.5186612
1.5195361
1.5195374
1.518443
1.5181145
1.5184088
1.5180572
1.5180131
1.518496
1.5185331
1.518045
1.5186253
1.5177191
1.5185075
1.517631
1.5196086
1.5186354
1.5181128
1.5176542
1.5177458
1.5180741
1.5196307
1.5185314
1.518684
1.5176088
1.5172122
1.5181555
1.5177828
1.5181906
1.5176257
1.5172336
1.517786
1.5187065
1.5186154
1.5197864
1.5197419
1.5185869
1.5171979
1.517236
1.5176804
1.5178506
1.5176556
1.5172132
1.5171541
1.5178151
1.5171913
1.5171041
1.5171964
1.5170144
1.5170144
1.5165569
1.5158082
1.5209207
1.5213604
1.5204315
1.5205056
1.521303
1.5226778
1.5226068
1.5242186
1.524205
1.5244201
1.5243213
1.5242808
1.5231586
1.5231389
1.520913
1.5208207
1.5210769
1.5211124
1.5209357
1.5210958
1.5210465
1.521433
1.5215405
1.5217745
1.521132
1.5211783
1.5219036
1.5278695
1.5279272
1.5278108
1.526615
1.5266482
1.5270627
1.5273858
1.5272631
1.5301605
1.5278015
1.5277167
1.5300086
1.5279424
1.5301181
1.5299886
1.5300186
1.5298865
1.5218379
1.5215275
1.522212
1.5222253
1.5216218
1.5235841
1.5234481
1.5203325
1.5204268
1.5204498
1.523821
1.5239232
1.5205438
1.5241477
1.5240712
1.5205668
1.5206229
1.5188238
1.5187704
1.5187699
1.5186905
1.5186753
1.5186255
1.5195505
1.5195272
1.5195314
1.5193914
1.5194243
1.5185492
1.5185677
1.5185261
1.5185894
1.5185863
1.5185649
1.518759
1.5181033
1.5179362
1.5178863
1.5179203
1.5179602
1.5179296
1.5178644
1.5179032
1.517891
1.5179324
1.5179131
1.5178716
1.5179786
1.5179018
1.5180916
1.5187659
1.518301
1.5182846
1.5177972
1.5179753
1.5184766
1.518004
1.5179991
1.5178104
1.5179922
1.5184821
1.5183664
1.5188605
1.5188652
1.5183768
1.5180653
1.5180485
1.5176354
1.5177882
1.5180122
1.5185258
1.517655
1.517801
1.5180324
1.5185217
1.5184361
1.5189539
1.5189603
1.518458
1.5178218
1.5176731
1.5176628
1.5185955
1.5176455
1.5176465
1.5178058
1.5185819
1.5176638
1.5176192
1.5176155
1.517639
1.5176397
1.5176911
1.5176277
1.5175941
1.5176178
1.5176581
1.520927
1.5225731
1.5304956
1.5230257
1.5283557
1.5257307
1.5256363
1.5200863
1.5200412
1.5208603
1.5209824
1.5208032
1.5209917
1.5209625
1.5216425
1.5216454
1.5216917
1.5201043
1.5201031
1.5217252
1.5201254
1.5201518
1.5217631
1.5217673
1.5211534
1.5211676
1.5179311
1.5175331
1.523605
1.5259082
1.5196437
1.5198388
1.5242928
1.5242424
1.5244451
1.5242353
1.5244006
1.5251771
1.5251817
1.5226234
1.5225605
1.5226084
1.5252845
1.5252438
1.5226373
1.5253409
1.5226346
1.5226786
1.5253366
1.5246262
1.525713
1.5261558
1.5267657
1.5265089
1.5259473
1.5301762
1.5302147
1.5300592
1.530699
1.5309392
1.5250421
1.5247413
1.5273993
1.5276233
1.5330619
1.5333845
1.5335001
1.5332401
1.5331261
1.5328581
1.5332866
1.5331801
1.5327612
1.5327615
1.5325399
1.5327854
1.5328795
1.5295428
1.5299113
1.5296885
1.5296692
1.5298518
1.5294326
1.5301025
1.5301294
1.5294656
1.5302957
1.5302505
1.5293479
1.529362
1.5302329
1.5293903
1.529442
1.5302793
1.5312849
1.5314797
1.5313672
1.5312541
1.5313827
1.5287113
1.5304227
1.5287759
1.5303995
1.530329
1.53033
1.5286279
1.528601
1.5301394
1.5285489
1.5285882
1.5300893
1.5266639
1.5270501
1.5270244
1.526538
1.5265104
1.5311293
1.5277909
1.5309396
1.5278477
1.528037
1.5308892
1.5307348
1.5281079
1.5281718
1.5282456
1.5305717
1.5306831
1.5245914
1.524713
1.5247029
1.5246144
1.5246169
1.5294165
1.5275625
1.5275507
1.5293232
1.5275745
1.5295595
1.527569
1.5294839
1.5294373
1.5293527
1.5277184
1.5276949
1.5237696
1.5237684
1.5239772
1.5239434
1.5237646
1.529876
1.5299937
1.5308067
1.5306734
1.5300303
1.5301156
1.5308399
1.5307086
1.5307516
1.5300472
1.5306165
1.5299897
1.5205346
1.5208304
1.5208081
1.5204732
1.5204344
1.5273813
1.5273143
1.5244077
1.5244494
1.52745
1.5275331
1.5245733
1.5245107
1.5246197
1.5275494
1.5274635
1.5245759
1.519503
1.5196618
1.5196461
1.5194644
1.5194344
1.5224877
1.5203715
1.5203951
1.522475
1.5226767
1.5226491
1.52049
1.5204647
1.5227736
1.5227674
1.520598
1.5205722
1.5184706
1.5186542
1.51868
1.5183857
1.5184266
1.5182797
1.5182197
1.5182974
1.5183411
1.5183508
1.5179851
1.5195254
1.5184188
1.5184563
1.5179815
1.5180448
1.5179459
1.5183772
1.5195256
1.519589
1.5195976
1.5176918
1.5184686
1.5176036
1.5176626
1.5184278
1.5175733
1.5180185
1.5185306
1.5185672
1.5180449
1.5186254
1.5171746
1.5177016
1.5185322
1.5175837
1.5196871
1.5186557
1.5181206
1.5176002
1.5171933
1.5177099
1.5180893
1.519705
1.5185595
1.5176142
1.5171124
1.5171747
1.5177597
1.5176326
1.5171631
1.5172148
1.5177836
1.517178
1.5170623
1.5171797
1.5171572
1.5169841
1.5171599
1.5169922
1.5169919
1.5167212
1.5172076
1.5152621
1.5150677
1.5153551
1.5155121
1.5156634
1.5208946
1.520486
1.520433
1.5213301
1.5212792
1.5234175
1.5212124
1.5211951
1.5233134
1.5225871
1.5225511
1.5225242
1.5224053
1.5242531
1.5242632
1.5244906
1.5244769
1.5243935
1.5231889
1.5231802
1.5229386
1.5229162
1.521026
1.5209909
1.5208069
1.5206788
1.5207707
1.5212391
1.5209533
1.5209986
1.521328
1.5211354
1.5211508
1.5214555
1.5216159
1.52189
1.5211835
1.5212321
1.5220355
1.5279712
1.5278967
1.5280114
1.5267523
1.5267866
1.5271893
1.52751
1.5273992
1.5303643
1.5302557
1.5303798
1.5280534
1.5279946
1.5302314
1.5280294
1.5302902
1.5301514
1.5221259
1.5221114
1.5217465
1.5214273
1.5215232
1.5201461
1.523209
1.5233151
1.520244
1.523655
1.5235217
1.5202569
1.5203805
1.5204031
1.5238591
1.5239755
1.5204925
1.5187188
1.5186632
1.5186578
1.5185871
1.5185881
1.5185427
1.5195032
1.5195109
1.519474
1.5193592
1.5193954
1.5185205
1.5185376
1.5184751
1.5185118
1.5185231
1.5185461
1.5184631
1.518745
1.5188473
1.5177706
1.5180935
1.5179158
1.5178698
1.518004
1.5179365
1.5178255
1.5178903
1.5178456
1.5178719
1.5178935
1.5179134
1.5179135
1.5178436
1.5178171
1.5179114
1.5182646
1.5187399
1.5181089
1.5178526
1.5182415
1.5179971
1.5177836
1.5179352
1.5184694
1.5188514
1.5183177
1.5183289
1.517601
1.5177583
1.517971
1.5185332
1.5180189
1.5180317
1.5176179
1.5177731
1.5179897
1.5184972
1.5184079
1.5189366
1.5189443
1.5184219
1.5175997
1.5176027
1.517776
1.5185573
1.517623
1.5176198
1.5177906
1.5185649
1.5175926
1.5176069
1.517647
1.5176286
1.5175884
1.5175707
1.5175842
1.5175599
1.5175819
1.5176078
1.5175696
1.5175957
1.5215092
1.5208775
1.5224974
1.5307156
1.5228559
1.5284582
1.5256931
1.525636
1.5200453
1.5200018
1.5200275
1.5207953
1.5209326
1.5209457
1.5209193
1.5207468
1.5199575
1.5216302
1.5216148
1.5217229
1.521699
1.5217663
1.5200952
1.5200702
1.5217683
1.5243853
1.5210917
1.5212243
1.5178331
1.5174283
1.5237098
1.5259527
1.5195582
1.5198385
1.5243366
1.5244481
1.5244945
1.5242349
1.5242464
1.5224641
1.5251565
1.5225155
1.525163
1.525269
1.5252478
1.5225327
1.5225026
1.5225359
1.5253487
1.5253416
1.5225866
1.5274145
1.5247787
1.5252322
1.5251648
1.5250406
1.5250972
1.5260977
1.5262995
1.5261523
1.5267006
1.5268991
1.5267149
1.5247472
1.5248964
1.5266901
1.5304754
1.530368
1.5310482
1.5309198
1.5302918
1.5242694
1.5245145
1.5271795
1.5269248
1.5245862
1.5243205
1.5271035
1.5273573
1.5334715
1.5334442
1.5337013
1.5335346
1.533626
1.5334833
1.5330379
1.5329514
1.5333835
1.5329225
1.5331343
1.5330131
1.5328831
1.5325621
1.5324066
1.5327105
1.5328332
1.5295712
1.5296335
1.5298853
1.5296548
1.5298588
1.5300417
1.5293602
1.5293988
1.5300689
1.529318
1.5301148
1.5301864
1.5293432
1.5301968
1.5301651
1.5293021
1.5293464
1.5314221
1.5315456
1.5314854
1.5314008
1.5314759
1.5304702
1.5285868
1.528661
1.5304498
1.5284643
1.5303999
1.5285113
1.5303927
1.5302032
1.5301751
1.5285057
1.5284504
1.526618
1.5270126
1.5264748
1.5265163
1.5269931
1.5276851
1.5277333
1.5312874
1.5314681
1.53111
1.5279237
1.530972
1.528011
1.5280136
1.5308694
1.5307777
1.528099
1.5245531
1.5246184
1.5246641
1.524675
1.5246143
1.5294636
1.5295313
1.5275518
1.5275481
1.5296616
1.5275936
1.5275764
1.5296197
1.5276476
1.5295832
1.5276662
1.5295198
1.5237451
1.523779
1.5240109
1.5239682
1.5237736
1.5309747
1.5301409
1.5300478
1.530868
1.5301885
1.5302937
1.5310937
1.5309974
1.5301029
1.5301595
1.5310056
1.5308844
1.5204818
1.5204285
1.5207946
1.5208264
1.5203911
1.5274287
1.5273787
1.5244505
1.5244762
1.5276748
1.5276273
1.5245906
1.5246507
1.5276438
1.5277353
1.5247158
1.5246645
1.5194796
1.5196661
1.5193884
1.5194234
1.5196445
1.5224846
1.522474
1.5203328
1.5202963
1.5226781
1.5204269
1.5204331
1.5226449
1.5227744
1.52277
1.5205525
1.5205302
1.518445
1.5186686
1.5183109
1.5186477
1.5183043
1.5182551
1.5181578
1.5182233
1.5183641
1.5195139
1.5195065
1.5183229
1.5183724
1.5179115
1.5179733
1.5178721
1.5179036
1.5182976
1.5183241
1.5176076
1.5183757
1.5175225
1.5195976
1.5184524
1.5184831
1.5175476
1.5179903
1.5176349
1.5179546
1.5184003
1.5195991
1.5196689
1.5196752
1.5171555
1.5176598
1.5184966
1.5175609
1.5171339
1.5176778
1.5184596
1.5175313
1.5180294
1.5185454
1.5185822
1.518059
1.5171316
1.5171157
1.5177079
1.5175758
1.5175961
1.51718
1.5171425
1.5177288
1.5171167
1.5169296
1.5171185
1.5171357
1.5171911
1.5171477
1.5169691
1.5169713
1.5163615
1.5169851
1.5169794
1.5167435
1.5168822
1.516953
1.5168274
1.516032
1.5159619
1.5150279
1.5150392
1.514892
1.5152682
1.5153939
1.5169028
1.5169905
1.5209278
1.5213393
1.5204703
1.5205001
1.5212829
1.5212345
1.5212658
1.5237133
1.5235385
1.5235712
1.5215116
1.5214614
1.5235046
1.5224444
1.522386
1.5224704
1.5223777
1.5223029
1.5221873
1.5243149
1.5243303
1.5245833
1.5246069
1.5245318
1.5232547
1.523223
1.5229579
1.5229468
1.5228236
1.5227886
1.5209064
1.5208555
1.520933
1.5207125
1.5208991
1.5205681
1.5206482
1.5211006
1.5211622
1.5212618
1.5210295
1.5210916
1.5213391
1.5211408
1.5210943
1.5215881
1.5217372
1.5281179
1.5282086
1.5281203
1.5282423
1.526883
1.5268965
1.5273012
1.5276251
1.5275193
1.5305044
1.530426
1.530593
1.5304713
1.5305401
1.5281432
1.5280831
1.5304156
1.523088
1.5229762
1.5220261
1.5216544
1.5220065
1.5213202
1.5214214
1.5199851
1.5200672
1.5200596
1.5232723
1.5233645
1.520167
1.5237082
1.5235626
1.5202212
1.5203151
1.5186152
1.5185654
1.5185722
1.5185067
1.5185133
1.5194513
1.5194134
1.5194888
1.519361
1.519321
1.5184609
1.5184908
1.5185097
1.5184831
1.5184986
1.518493
1.5185075
1.5185008
1.5175671
1.518456
1.5188309
1.5189156
1.5177568
1.5177316
1.5179335
1.5179033
1.5179832
1.5179655
1.5177868
1.51787
1.5177923
1.5178188
1.5178695
1.5178928
1.5178974
1.517775
1.5178032
1.5178207
1.51812
1.5178694
1.5178889
1.5178362
1.518099
1.5187282
1.5187253
1.5182142
1.518194
1.5179144
1.5183183
1.5188097
1.5184496
1.517742
1.5178923
1.5183015
1.5180019
1.517584
1.5177424
1.5179495
1.518488
1.5189248
1.518388
1.5183766
1.5175656
1.5175698
1.5177453
1.5185441
1.5175853
1.5175823
1.5177603
1.518548
1.5175284
1.5175496
1.5175832
1.5176065
1.5175713
1.5175494
1.5175431
1.5175679
1.5175478
1.5175229
1.5175109
1.5175404
1.5189589
1.5215678
1.520836
1.5224478
1.5309306
1.5226931
1.5285556
1.5256581
1.5256385
1.5200309
1.5199588
1.519991
1.5199242
1.5208825
1.5207395
1.5206762
1.520893
1.5209097
1.5215893
1.5215763
1.5198818
1.5199353
1.5216678
1.5216643
1.5217542
1.5217577
1.5197432
1.5246499
1.521023
1.5212718
1.517744
1.5173495
1.5238106
1.525992
1.5194764
1.5198387
1.5245381
1.5243888
1.5242096
1.5244936
1.5242368
1.5251503
1.5251421
1.5223703
1.5224224
1.5224039
1.5252581
1.5224294
1.5252372
1.5253282
1.5253326
1.5224737
1.5224139
1.528547
1.5278334
1.5282252
1.5285215
1.5278739
1.5276522
1.5249133
1.5252113
1.5250898
1.5250476
1.5251596
1.5258306
1.5258295
1.5282407
1.5285502
1.5263433
1.5263564
1.5262966
1.5268394
1.526931
1.5267424
1.5267225
1.5246112
1.5244732
1.5269534
1.5243398
1.5245888
1.526886
1.5306335
1.5304258
1.5304553
1.531085
1.5310122
1.52377
1.5264179
1.5266881
1.5240445
1.5238216
1.5240397
1.5268246
1.5265664
1.524213
1.5239562
1.5268954
1.5270985
1.5337328
1.533831
1.5337305
1.5336837
1.5338226
1.5335802
1.533219
1.5331338
1.5336773
1.5333459
1.532988
1.5329494
1.5332495
1.5327317
1.533024
1.5329392
1.5326655
1.5295459
1.5298356
1.5298315
1.5295997
1.5295597
1.5292774
1.5299829
1.5293215
1.5300108
1.5300747
1.5291974
1.5292421
1.5301242
1.5291941
1.5300898
1.5301269
1.5292546
1.5315149
1.531593
1.5315522
1.5315023
1.53156
1.5305087
1.5304926
1.5285268
1.5284425
1.5304675
1.5282887
1.5283526
1.5304639
1.5283265
1.5302428
1.5283881
1.5302303
1.5265578
1.5264283
1.5269658
1.5269507
1.5264729
1.5275938
1.5317358
1.5315939
1.5276347
1.527754
1.5278428
1.5312594
1.5313934
1.5310286
1.5278243
1.530948
1.527927
1.5245132
1.5246285
1.524626
1.5246363
1.5246159
1.5275262
1.5296012
1.5295517
1.5275277
1.5296969
1.5297671
1.527546
1.5275957
1.5296718
1.5276114
1.5276306
1.5296343
1.5237155
1.5240574
1.5237802
1.5239996
1.5237882
1.5311026
1.5302647
1.530179
1.5310108
1.5312741
1.530394
1.5303379
1.5311636
1.530207
1.5302447
1.5312052
1.5311174
1.5204254
1.5207845
1.5208213
1.5203499
1.5203848
1.5244698
1.5274244
1.5274706
1.5244929
1.5277573
1.5277283
1.5246477
1.52469
1.5278777
1.5278156
1.5247581
1.5247984
1.5194544
1.5196801
1.5193345
1.5193768
1.5196502
1.5224695
1.5202166
1.5202524
1.5224651
1.5226721
1.5226462
1.5204006
1.5203681
1.5227805
1.5204837
1.5205053
1.5227723
1.5184263
1.5182245
1.5180904
1.5181625
1.5182901
1.5182666
1.5186274
1.5186575
1.5182155
1.5194784
1.5182121
1.5194901
1.5182639
1.5178914
1.5182283
1.5178149
1.5177967
1.5178354
1.5182676
1.5195872
1.5195412
1.5183412
1.5183933
1.5174964
1.5179197
1.5175778
1.5178714
1.5174674
1.5175436
1.5183175
1.5183417
1.5170893
1.5176307
1.5183984
1.5174837
1.5196554
1.5184685
1.5185048
1.5175083
1.5171114
1.5179952
1.5176321
1.5179601
1.5184262
1.5196626
1.5170995
1.5171144
1.5176838
1.5175504
1.5170955
1.5170821
1.5176635
1.5175218
1.5170825
1.5169921
1.5170754
1.517108
1.5172619
1.5170975
1.5169067
1.5169021
1.5166528
1.5252156
1.5172577
1.5172089
1.5166965
1.5162477
1.5164428
1.5168807
1.5168675
1.5168392
1.5167146
1.5167452
1.5185553
1.518626
1.5185654
1.5184679
1.5163695
1.5159015
1.5163006
1.514872
1.5150528
1.5147784
1.5148638
1.5151672