/*--------------------------------*- C++ -*----------------------------------*\
  =========                 |
  \\      /  F ield         | OpenFOAM: The Open Source CFD Toolbox
   \\    /   O peration     | Website:  https://openfoam.org
    \\  /    A nd           | Version:  7
     \\/     M anipulation  |
\*---------------------------------------------------------------------------*/
FoamFile
{
    version     2.0;
    format      ascii;
    class       volScalarField;
    location    "2000";
    object      p;
}
// * * * * * * * * * * * * * * * * * * * * * * * * * * * * * * * * * * * * * //

dimensions      [0 2 -2 0 0 0 0];

internalField   nonuniform List<scalar> 
34387
(
-4.8686405e+29
-4.6100808e+29
-4.6814223e+29
-4.6053685e+29
-4.8494957e+29
-4.5942453e+29
-4.7986418e+29
-4.9403445e+29
-4.9457824e+29
-4.8057443e+29
-4.350041e+29
-4.5490177e+29
-4.5481365e+29
-4.6828873e+29
-4.6827938e+29
-4.6799577e+29
-4.5450885e+29
-4.5485142e+29
-4.6813889e+29
-4.6813988e+29
-4.6814523e+29
-4.5499236e+29
-4.6004961e+29
-4.5861475e+29
-4.3449976e+29
-4.5461941e+29
-4.5439136e+29
-4.678911e+29
-4.6811925e+29
-4.8309586e+29
-4.5667697e+29
-4.9303674e+29
-4.7828236e+29
-4.7914644e+29
-4.9347826e+29
-4.3332776e+29
-4.5282895e+29
-4.6743314e+29
-4.6655099e+29
-4.5385412e+29
-4.8038368e+29
-4.9405145e+29
-4.9444986e+29
-4.8099074e+29
-4.1010283e+29
-4.4219283e+29
-4.2917193e+29
-4.2944563e+29
-4.4217209e+29
-4.4183713e+29
-4.2877107e+29
-4.2944851e+29
-4.4213863e+29
-4.5505752e+29
-4.5485503e+29
-4.551456e+29
-4.6826657e+29
-4.6833999e+29
-4.684153e+29
-4.6802388e+29
-4.5495025e+29
-4.5510852e+29
-4.6819069e+29
-4.6810562e+29
-4.6814298e+29
-4.5498987e+29
-4.6819151e+29
-4.5499306e+29
-4.4249342e+29
-4.5981216e+29
-4.5796411e+29
-4.3412649e+29
-4.5418872e+29
-4.5409792e+29
-4.675087e+29
-4.6769406e+29
-4.5479974e+29
-4.3262325e+29
-4.09653e+29
-4.2898826e+29
-4.2878073e+29
-4.4174225e+29
-4.4195593e+29
-4.5499641e+29
-4.5478487e+29
-4.6792397e+29
-4.6815833e+29
-4.8165848e+29
-4.530964e+29
-4.7746093e+29
-4.7666127e+29
-4.9222739e+29
-4.9252981e+29
-4.3074556e+29
-4.5047343e+29
-4.6448343e+29
-4.6560431e+29
-4.5179282e+29
-4.9327233e+29
-4.7903655e+29
-4.7976101e+29
-4.9362782e+29
-4.0858068e+29
-4.2702101e+29
-4.4109941e+29
-4.4005768e+29
-4.2806557e+29
-4.5335911e+29
-4.6758813e+29
-4.6674814e+29
-4.543235e+29
-4.8047707e+29
-4.9416362e+29
-4.9447221e+29
-4.8107305e+29
-3.861783e+29
-4.0410495e+29
-4.166102e+29
-4.1713548e+29
-4.0475773e+29
-4.0503444e+29
-4.046133e+29
-4.1706737e+29
-4.1726028e+29
-4.4218523e+29
-4.2958549e+29
-4.2973649e+29
-4.29667e+29
-4.4221424e+29
-4.4237996e+29
-4.4192622e+29
-4.2920281e+29
-4.2974861e+29
-4.4226531e+29
-4.5495514e+29
-4.5497325e+29
-4.5500008e+29
-4.5508195e+29
-4.6823917e+29
-4.6830154e+29
-4.6827017e+29
-4.6825914e+29
-4.6809625e+29
-4.550132e+29
-4.5511195e+29
-4.6825027e+29
-4.6810914e+29
-4.681627e+29
-4.5495617e+29
-4.6818997e+29
-4.5499003e+29
-4.4249275e+29
-4.6818074e+29
-4.5502298e+29
-4.4249291e+29
-4.3019893e+29
-4.5781166e+29
-4.6652407e+29
-4.3411396e+29
-4.5305525e+29
-4.5375907e+29
-4.669003e+29
-4.5401109e+29
-4.5413839e+29
-4.6722497e+29
-4.674396e+29
-4.5382751e+29
-4.3215433e+29
-4.4151917e+29
-4.2859271e+29
-4.0938747e+29
-4.2860125e+29
-4.4156155e+29
-4.5457076e+29
-4.5449222e+29
-4.6757009e+29
-4.6774085e+29
-4.2954805e+29
-4.0805091e+29
-3.8585616e+29
-4.0423456e+29
-4.1663961e+29
-4.0444112e+29
-4.168557e+29
-4.2939704e+29
-4.2922313e+29
-4.4183048e+29
-4.4200354e+29
-4.5496921e+29
-4.5476935e+29
-4.6795621e+29
-4.6822828e+29
-4.8071828e+29
-4.5021425e+29
-4.920597e+29
-4.9198598e+29
-4.7537902e+29
-4.7603684e+29
-4.2766288e+29
-4.4905653e+29
-4.4765626e+29
-4.6214701e+29
-4.6326828e+29
-4.7830009e+29
-4.7762425e+29
-4.926735e+29
-4.9293855e+29
-4.064253e+29
-4.2467094e+29
-4.3764228e+29
-4.3900967e+29
-4.260378e+29
-4.5121349e+29
-4.6490043e+29
-4.6589698e+29
-4.5240263e+29
-4.9343398e+29
-4.7917005e+29
-4.7985337e+29
-4.9375792e+29
-4.0255191e+29
-3.8490943e+29
-4.1592993e+29
-4.1489306e+29
-4.0348522e+29
-4.2752617e+29
-4.4121765e+29
-4.4025433e+29
-4.2850144e+29
-4.5340269e+29
-4.6767393e+29
-4.6679646e+29
-4.5436254e+29
-4.8048019e+29
-4.9416749e+29
-4.944781e+29
-4.810784e+29
-3.6308338e+29
-3.8035674e+29
-3.8081652e+29
-3.9289341e+29
-3.9308913e+29
-3.8108069e+29
-3.8100927e+29
-3.9288912e+29
-3.9240509e+29
-4.0452588e+29
-4.1671247e+29
-4.1729608e+29
-4.176404e+29
-4.050413e+29
-4.0519631e+29
-4.054386e+29
-4.0510187e+29
-4.172227e+29
-4.1751493e+29
-4.4216636e+29
-4.2961487e+29
-4.3000723e+29
-4.2976886e+29
-4.2999823e+29
-4.4228806e+29
-4.4218419e+29
-4.4232341e+29
-4.4197341e+29
-4.2924404e+29
-4.2976899e+29
-4.4225155e+29
-4.5498272e+29
-4.5486744e+29
-4.549707e+29
-4.5494618e+29
-4.5507927e+29
-4.6823509e+29
-4.6821953e+29
-4.6817016e+29
-4.6826529e+29
-4.6818544e+29
-4.6809865e+29
-4.5501447e+29
-4.5510827e+29
-4.68249e+29
-4.5495285e+29
-4.5486692e+29
-4.4247556e+29
-4.5501748e+29
-4.424915e+29
-4.3020023e+29
-4.5494715e+29
-4.4249756e+29
-4.3019812e+29
-4.1784732e+29
-4.5420417e+29
-4.6468102e+29
-4.5108981e+29
-4.321967e+29
-4.5226715e+29
-4.6572953e+29
-4.6650607e+29
-4.2782581e+29
-4.0940241e+29
-4.2863197e+29
-4.4121662e+29
-4.4060041e+29
-4.4157054e+29
-4.2887506e+29
-4.2856925e+29
-4.4149714e+29
-4.533883e+29
-4.539132e+29
-4.5406812e+29
-4.6697145e+29
-4.6730211e+29
-4.5440326e+29
-4.5441837e+29
-4.6739859e+29
-4.6750543e+29
-4.2895389e+29
-4.0774666e+29
-4.4160055e+29
-4.2902253e+29
-4.1653091e+29
-3.856505e+29
-4.0412593e+29
-4.0416285e+29
-4.1649723e+29
-4.2904424e+29
-4.4165308e+29
-4.5453586e+29
-4.5445899e+29
-4.6758561e+29
-4.67748e+29
-4.2577186e+29
-4.0584488e+29
-3.8456775e+29
-3.8072806e+29
-3.6285556e+29
-3.8076153e+29
-3.9275675e+29
-3.9262446e+29
-4.046897e+29
-4.1680113e+29
-4.0489535e+29
-4.1700848e+29
-4.2941503e+29
-4.2926158e+29
-4.4184126e+29
-4.4197179e+29
-4.5496806e+29
-4.5477137e+29
-4.679558e+29
-4.6822846e+29
-4.7998617e+29
-4.4794966e+29
-4.7431131e+29
-4.7479912e+29
-4.9183886e+29
-4.9184136e+29
-4.248294e+29
-4.4518792e+29
-4.6014302e+29
-4.6113491e+29
-4.4640528e+29
-4.9266012e+29
-4.9266283e+29
-4.7649595e+29
-4.7708399e+29
-4.039244e+29
-4.2191505e+29
-4.3482066e+29
-4.3631611e+29
-4.2339429e+29
-4.4995389e+29
-4.4870166e+29
-4.6279996e+29
-4.6378289e+29
-4.7836895e+29
-4.7774049e+29
-4.9284302e+29
-4.9309546e+29
-3.8316801e+29
-4.0034921e+29
-4.1262304e+29
-4.1393008e+29
-4.0156134e+29
-4.2525946e+29
-4.3797897e+29
-4.3927981e+29
-4.2658155e+29
-4.5125033e+29
-4.6495659e+29
-4.6593576e+29
-4.5243533e+29
-4.9344369e+29
-4.7917583e+29
-4.7985632e+29
-4.9376533e+29
-4.0298833e+29
-3.9099373e+29
-3.6206829e+29
-3.9177113e+29
-3.7910677e+29
-3.7973625e+29
-4.1607281e+29
-4.150513e+29
-4.0390701e+29
-4.2758933e+29
-4.4124788e+29
-4.4031593e+29
-4.285461e+29
-4.5341038e+29
-4.676775e+29
-4.6680109e+29
-4.5436565e+29
-3.4068487e+29
-3.5793234e+29
-3.573979e+29
-3.690457e+29
-3.6941397e+29
-3.5777625e+29
-3.5804748e+29
-3.6956098e+29
-3.6953782e+29
-3.8072337e+29
-3.8124142e+29
-3.9304315e+29
-3.9329824e+29
-3.9345166e+29
-3.8138108e+29
-3.8133164e+29
-3.8125728e+29
-3.9303616e+29
-3.9248877e+29
-4.0457858e+29
-4.167642e+29
-4.173538e+29
-4.1768851e+29
-4.1776291e+29
-4.0546812e+29
-4.0509173e+29
-4.0557643e+29
-4.0548815e+29
-4.0515713e+29
-4.1728832e+29
-4.1757756e+29
-4.4216776e+29
-4.2961761e+29
-4.3016269e+29
-4.3007008e+29
-4.297712e+29
-4.3003813e+29
-4.4242891e+29
-4.4228543e+29
-4.421848e+29
-4.4232605e+29
-4.4197626e+29
-4.2924983e+29
-4.2977434e+29
-4.4225317e+29
-4.4247201e+29
-4.4228792e+29
-4.3021352e+29
-4.4249436e+29
-4.3019919e+29
-4.1784753e+29
-4.423288e+29
-4.30178e+29
-4.1784658e+29
-4.0562745e+29
-4.4803195e+29
-4.2915851e+29
-4.4961978e+29
-4.4781915e+29
-4.61479e+29
-4.6332294e+29
-4.6486558e+29
-4.5162713e+29
-4.3854924e+29
-4.2580722e+29
-4.0781785e+29
-4.2706422e+29
-4.3978875e+29
-4.5268947e+29
-4.658111e+29
-4.6655656e+29
-4.2825124e+29
-4.1580017e+29
-3.8562702e+29
-4.0336143e+29
-4.1632263e+29
-4.0392238e+29
-4.1654186e+29
-4.0413432e+29
-4.0400111e+29
-4.1646988e+29
-4.2892247e+29
-4.2904648e+29
-4.4128836e+29
-4.4177098e+29
-4.4063526e+29
-4.4174764e+29
-4.292461e+29
-4.2902047e+29
-4.4155433e+29
-4.5339928e+29
-4.5419388e+29
-4.5383056e+29
-4.5441322e+29
-4.6712896e+29
-4.6695884e+29
-4.6722694e+29
-4.5435267e+29
-4.5436497e+29
-4.6736213e+29
-4.6750138e+29
-4.2501456e+29
-4.0552368e+29
-3.843948e+29
-4.415765e+29
-4.2902829e+29
-4.1669931e+29
-3.6276352e+29
-3.9238962e+29
-3.8034156e+29
-3.9251988e+29
-3.8055645e+29
-4.0459655e+29
-4.0462732e+29
-4.1664942e+29
-4.2907404e+29
-4.4165421e+29
-4.5453598e+29
-4.5445764e+29
-4.6758494e+29
-4.677452e+29
-4.225624e+29
-4.0344976e+29
-3.829129e+29
-3.6185088e+29
-3.8118815e+29
-3.6941936e+29
-3.4052785e+29
-3.5773669e+29
-3.5778732e+29
-3.6943351e+29
-3.811972e+29
-3.9292065e+29
-3.9279679e+29
-4.0471173e+29
-4.1683793e+29
-4.0493476e+29
-4.1705976e+29
-4.2941669e+29
-4.2926251e+29
-4.4184421e+29
-4.4197294e+29
-4.7907604e+29
-4.4599884e+29
-4.733702e+29
-4.9186285e+29
-4.9186752e+29
-4.7386082e+29
-4.222789e+29
-4.4417628e+29
-4.430474e+29
-4.5845912e+29
-4.5929105e+29
-4.7546546e+29
-4.7587666e+29
-4.9252711e+29
-4.9251301e+29
-4.0142667e+29
-4.1931672e+29
-4.3356244e+29
-4.3220279e+29
-4.2070544e+29
-4.4640389e+29
-4.6091923e+29
-4.6183536e+29
-4.4750969e+29
-4.9283247e+29
-4.9284591e+29
-4.7658627e+29
-4.7717976e+29
-3.8118475e+29
-3.9794745e+29
-4.1003677e+29
-4.1143761e+29
-3.9922602e+29
-4.2258848e+29
-4.3532341e+29
-4.3673991e+29
-4.2403425e+29
-4.5000591e+29
-4.4877747e+29
-4.6286691e+29
-4.6381037e+29
-4.7837187e+29
-4.7774669e+29
-4.928529e+29
-4.9310384e+29
-3.6067921e+29
-3.7720289e+29
-3.7820382e+29
-3.9002953e+29
-3.8892566e+29
-4.00752e+29
-4.1280756e+29
-4.1410027e+29
-4.0196504e+29
-4.253181e+29
-4.3802829e+29
-4.39323e+29
-4.2662935e+29
-4.5125721e+29
-4.6496109e+29
-4.6593941e+29
-4.5244123e+29
-4.0302737e+29
-3.9110805e+29
-3.3988704e+29
-3.6791292e+29
-3.5636184e+29
-3.5697827e+29
-3.6848773e+29
-3.9185132e+29
-3.7949065e+29
-3.8007203e+29
-4.16128e+29
-4.1510586e+29
-4.0395926e+29
-4.275946e+29
-4.4125257e+29
-4.4032337e+29
-4.2855191e+29
-3.1887739e+29
-3.3519241e+29
-3.3554099e+29
-3.4665264e+29
-3.4647757e+29
-3.4683424e+29
-3.469108e+29
-3.3548664e+29
-3.3556727e+29
-3.5832651e+29
-3.5769721e+29
-3.6907578e+29
-3.6948597e+29
-3.6981417e+29
-3.5794235e+29
-3.579966e+29
-3.5831705e+29
-3.6972574e+29
-3.6964228e+29
-3.8076291e+29
-3.8125956e+29
-3.9307774e+29
-3.9353182e+29
-3.93333e+29
-3.9346552e+29
-3.8163855e+29
-3.8140306e+29
-3.8159399e+29
-3.8127693e+29
-3.9306566e+29
-3.9253922e+29
-4.0458346e+29
-4.1677059e+29
-4.1735872e+29
-4.1771884e+29
-4.1784253e+29
-4.1781792e+29
-4.054839e+29
-4.0561765e+29
-4.0509474e+29
-4.0559801e+29
-4.0548995e+29
-4.0516037e+29
-4.1729177e+29
-4.1758021e+29
-4.3021351e+29
-4.3017876e+29
-4.3007214e+29
-4.300394e+29
-4.1785155e+29
-4.1784692e+29
-4.0562671e+29
-4.1782317e+29
-4.0562658e+29
-3.936339e+29
-4.4422869e+29
-4.5790166e+29
-4.4364483e+29
-4.2537272e+29
-4.4551148e+29
-4.5960214e+29
-4.0560792e+29
-4.3529118e+29
-4.2279264e+29
-4.2444522e+29
-4.3707085e+29
-4.5024087e+29
-4.4860466e+29
-4.6202279e+29
-4.636222e+29
-4.6492708e+29
-4.3874424e+29
-4.5169657e+29
-4.2628586e+29
-4.1387369e+29
-4.0167547e+29
-3.8444668e+29
-4.1500384e+29
-4.0262739e+29
-4.2751674e+29
-4.3993048e+29
-4.5276033e+29
-4.6587977e+29
-4.6655819e+29
-4.2828868e+29
-4.1589764e+29
-3.6279047e+29
-3.9167321e+29
-3.7968325e+29
-3.8016408e+29
-3.9198602e+29
-3.8024816e+29
-3.8034158e+29
-3.9218953e+29
-3.9228221e+29
-4.0374941e+29
-4.1645415e+29
-4.168188e+29
-4.0415451e+29
-4.0420727e+29
-4.1677018e+29
-4.0446035e+29
-4.0445259e+29
-4.1662284e+29
-4.2934916e+29
-4.2896939e+29
-4.2946442e+29
-4.4170716e+29
-4.4127546e+29
-4.4190968e+29
-4.4065714e+29
-4.4172762e+29
-4.2927342e+29
-4.290224e+29
-4.4150733e+29
-4.5340202e+29
-4.54494e+29
-4.5412936e+29
-4.5382881e+29
-4.5451599e+29
-4.6700855e+29
-4.6704736e+29
-4.6695418e+29
-4.6725124e+29
-4.5435111e+29
-4.5436399e+29
-4.6735767e+29
-4.675004e+29
-4.217407e+29
-4.0315728e+29
-3.827967e+29
-3.6178199e+29
-4.4157625e+29
-4.2902909e+29
-4.1672513e+29
-3.4053713e+29
-3.5764112e+29
-3.6910865e+29
-3.6932805e+29
-3.5773163e+29
-3.9252208e+29
-3.8072278e+29
-3.9267245e+29
-3.8097377e+29
-4.0462369e+29
-4.0464274e+29
-4.1668003e+29
-4.2907491e+29
-4.4165619e+29
-4.1984208e+29
-4.0091461e+29
-3.8103438e+29
-3.6053726e+29
-3.3973366e+29
-3.6956079e+29
-3.8120559e+29
-3.187756e+29
-3.3541931e+29
-3.3540699e+29
-3.4676149e+29
-3.4673442e+29
-3.5811641e+29
-3.581517e+29
-3.6955975e+29
-3.8122342e+29
-3.9295258e+29
-3.9281509e+29
-4.0471328e+29
-4.1683879e+29
-4.0493696e+29
-4.1706142e+29
-4.7779716e+29
-4.4405209e+29
-4.7205683e+29
-4.7277489e+29
-4.916878e+29
-4.9132403e+29
-4.1995455e+29
-4.4094523e+29
-4.42085e+29
-4.57669e+29
-4.5680217e+29
-4.7456282e+29
-4.9276818e+29
-4.9266123e+29
-4.7501191e+29
-3.9902061e+29
-4.1682818e+29
-4.2981484e+29
-4.3106118e+29
-4.1808971e+29
-4.454705e+29
-4.444016e+29
-4.5933771e+29
-4.6009485e+29
-4.755148e+29
-4.759028e+29
-4.926027e+29
-4.9257076e+29
-3.7905388e+29
-3.9559876e+29
-4.075256e+29
-4.0888184e+29
-3.9686852e+29
-4.2005117e+29
-4.3410064e+29
-4.328202e+29
-4.2139977e+29
-4.4649092e+29
-4.6097979e+29
-4.6189508e+29
-4.4758457e+29
-4.9284359e+29
-4.928564e+29
-4.7659581e+29
-4.7718637e+29
-3.5906157e+29
-3.7633024e+29
-3.7533683e+29
-3.8792775e+29
-3.8677818e+29
-3.9833656e+29
-4.1023272e+29
-4.1161189e+29
-3.9960186e+29
-4.2264761e+29
-4.3540409e+29
-4.3681348e+29
-4.2409298e+29
-4.5001398e+29
-4.4878685e+29
-4.628747e+29
-4.6381591e+29
-3.3873425e+29
-3.5564154e+29
-3.5500063e+29
-3.662741e+29
-3.6709857e+29
-3.7750624e+29
-3.7850868e+29
-3.9008485e+29
-3.8897143e+29
-4.0079087e+29
-4.1286617e+29
-4.1415284e+29
-4.0200758e+29
-4.2532304e+29
-4.3803523e+29
-4.3932907e+29
-4.2663435e+29
-4.0303152e+29
-3.9114728e+29
-3.1820151e+29
-3.3433348e+29
-3.4552211e+29
-3.4612768e+29
-3.348955e+29
-3.679667e+29
-3.5668186e+29
-3.5727906e+29
-3.6851789e+29
-3.9190099e+29
-3.7952696e+29
-3.8011042e+29
-4.1613348e+29
-4.1511026e+29
-4.0396396e+29
-2.97535e+29
-3.134817e+29
-3.139974e+29
-3.1377759e+29
-3.2453235e+29
-3.2472072e+29
-3.1378487e+29
-3.2481354e+29
-3.2479638e+29
-3.3547238e+29
-3.3571688e+29
-3.3557474e+29
-3.4670581e+29
-3.4692183e+29
-3.4647403e+29
-3.4694606e+29
-3.4696925e+29
-3.3580686e+29
-3.3577584e+29
-3.5834023e+29
-3.5772433e+29
-3.6911116e+29
-3.6977101e+29
-3.6951147e+29
-3.6984735e+29
-3.5815098e+29
-3.5796226e+29
-3.5824481e+29
-3.5832966e+29
-3.6974295e+29
-3.6965764e+29
-3.8076694e+29
-3.8126117e+29
-3.9308026e+29
-3.9361303e+29
-3.9353533e+29
-3.9333534e+29
-3.9347381e+29
-3.8173264e+29
-3.8165168e+29
-3.8140521e+29
-3.8160904e+29
-3.8127956e+29
-3.9306834e+29
-3.9254345e+29
-4.177189e+29
-4.1782444e+29
-4.1785244e+29
-4.1781882e+29
-4.0548484e+29
-4.0560739e+29
-4.0561502e+29
-4.0559847e+29
-4.0561526e+29
-4.0562589e+29
-3.9363301e+29
-4.0560762e+29
-3.9363312e+29
-3.8175425e+29
-4.4153776e+29
-4.2210579e+29
-4.4199734e+29
-4.4055609e+29
-4.5511078e+29
-4.5640461e+29
-4.5882176e+29
-4.449087e+29
-4.3154701e+29
-4.0315563e+29
-4.1948624e+29
-4.2118244e+29
-4.3338011e+29
-4.4665158e+29
-4.6031312e+29
-3.8285777e+29
-4.0067807e+29
-3.9954055e+29
-4.1128248e+29
-4.1268268e+29
-4.3560014e+29
-4.2325735e+29
-4.2489114e+29
-4.3729923e+29
-4.5030203e+29
-4.4868724e+29
-4.6210835e+29
-4.6367906e+29
-4.6493504e+29
-4.3881573e+29
-4.5170516e+29
-4.263432e+29
-4.1398981e+29
-4.0204306e+29
-3.9025311e+29
-3.7852567e+29
-3.6186053e+29
-3.7919173e+29
-3.9103729e+29
-4.1511012e+29
-4.0297578e+29
-4.2755708e+29
-4.3998788e+29
-4.5276777e+29
-4.6588934e+29
-4.2829419e+29
-4.1594623e+29
-3.4069436e+29
-3.575418e+29
-3.5708616e+29
-3.6853514e+29
-3.6883408e+29
-3.5762026e+29
-3.5769627e+29
-3.6900555e+29
-3.6906449e+29
-3.9167239e+29
-3.799539e+29
-3.8031887e+29
-3.803392e+29
-3.9204566e+29
-3.9234442e+29
-3.805963e+29
-3.8056382e+29
-3.9232577e+29
-3.9236307e+29
-4.0379124e+29
-4.1683279e+29
-4.1652195e+29
-4.1689716e+29
-4.0440616e+29
-4.0419765e+29
-4.0446189e+29
-4.1682335e+29
-4.0449151e+29
-4.044973e+29
-4.1667776e+29
-4.2962609e+29
-4.2942853e+29
-4.2897493e+29
-4.2950239e+29
-4.4172566e+29
-4.4211402e+29
-4.4127972e+29
-4.4199683e+29
-4.406625e+29
-4.4172964e+29
-4.2927612e+29
-4.2902349e+29
-4.4150688e+29
-4.5458707e+29
-4.5451042e+29
-4.5413209e+29
-4.5452224e+29
-4.6700294e+29
-4.669811e+29
-4.6714537e+29
-4.6725477e+29
-4.189693e+29
-4.0063247e+29
-3.80997e+29
-3.6052503e+29
-3.3973258e+29
-4.1672626e+29
-3.1883127e+29
-3.4674163e+29
-3.4676382e+29
-3.355317e+29
-3.3539958e+29
-3.579838e+29
-3.6918721e+29
-3.6945165e+29
-3.5811401e+29
-3.9255114e+29
-3.8074146e+29
-3.9269109e+29
-3.8099128e+29
-4.0462468e+29
-4.0464353e+29
-4.1668079e+29
-4.174599e+29
-3.9847085e+29
-3.7894732e+29
-3.5897685e+29
-3.3864146e+29
-3.1809958e+29
-3.695881e+29
-3.8120681e+29
-2.9744685e+29
-3.1382264e+29
-3.1375021e+29
-3.2475088e+29
-3.2476712e+29
-3.3573692e+29
-3.3571218e+29
-3.4682823e+29
-3.4680997e+29
-3.581416e+29
-3.5817529e+29
-3.6958604e+29
-3.812251e+29
-3.9295485e+29
-3.928167e+29
-4.7596582e+29
-4.4201187e+29
-4.7036886e+29
-4.9015524e+29
-4.9091353e+29
-4.7128615e+29
-4.176701e+29
-4.5506542e+29
-4.3884957e+29
-4.3992605e+29
-4.5594605e+29
-4.7310799e+29
-4.7384377e+29
-4.9251264e+29
-4.9194941e+29
-3.9668207e+29
-4.1449136e+29
-4.2754792e+29
-4.2875677e+29
-4.1569426e+29
-4.4229104e+29
-4.4342613e+29
-4.5850501e+29
-4.5760993e+29
-4.7451997e+29
-4.9287393e+29
-4.9266135e+29
-4.7498695e+29
-3.7688167e+29
-3.9326332e+29
-3.9444775e+29
-4.063221e+29
-4.0508304e+29
-4.1755803e+29
-4.3047068e+29
-4.3168105e+29
-4.1878952e+29
-4.4558428e+29
-4.4451953e+29
-4.594198e+29
-4.6015973e+29
-4.7552795e+29
-4.7591339e+29
-4.9260954e+29
-4.9257901e+29
-3.5722013e+29
-3.743631e+29
-3.7320721e+29
-3.8577537e+29
-3.845736e+29
-3.9600358e+29
-4.0775188e+29
-4.0908292e+29
-3.9725463e+29
-4.2011351e+29
-4.3418228e+29
-4.3292331e+29
-4.2145264e+29
-4.4650041e+29
-4.6099069e+29
-4.6190377e+29
-4.4759386e+29
-3.3733021e+29
-3.6460013e+29
-3.5339844e+29
-3.5420924e+29
-3.6547644e+29
-3.7661833e+29
-3.7564619e+29
-3.8794221e+29
-3.8680361e+29
-3.9836357e+29
-4.1027529e+29
-4.1165244e+29
-3.9962675e+29
-4.2265148e+29
-4.3541149e+29
-4.3682018e+29
-4.2409677e+29
-3.1720703e+29
-3.4426018e+29
-3.3308935e+29
-3.3376676e+29
-3.4487347e+29
-3.5590724e+29
-3.5529321e+29
-3.6628777e+29
-3.6709501e+29
-3.7752929e+29
-3.7853777e+29
-3.9011755e+29
-3.8899693e+29
-4.0079352e+29
-4.1286964e+29
-4.1415693e+29
-4.0201119e+29
-3.9115139e+29
-2.9695885e+29
-3.1276671e+29
-3.2373186e+29
-3.2420466e+29
-3.1315255e+29
-3.3462369e+29
-3.455521e+29
-3.461648e+29
-3.3518728e+29
-3.6800648e+29
-3.5671895e+29
-3.5730428e+29
-3.6854843e+29
-3.9190532e+29
-3.7953055e+29
-3.8011429e+29
-2.7659721e+29
-2.9243076e+29
-3.0330967e+29
-3.0336559e+29
-2.9261035e+29
-2.9261235e+29
-2.9233363e+29
-3.0308428e+29
-3.0319553e+29
-3.1374407e+29
-3.1421461e+29
-3.1401566e+29
-3.1406341e+29
-3.2451633e+29
-3.2476951e+29
-3.2496812e+29
-3.1393881e+29
-3.2482865e+29
-3.2489519e+29
-3.3549469e+29
-3.3573016e+29
-3.3572671e+29
-3.3576781e+29
-3.4671783e+29
-3.4682588e+29
-3.4689701e+29
-3.4649929e+29
-3.4696389e+29
-3.4699472e+29
-3.3583111e+29
-3.3579038e+29
-3.5834126e+29
-3.5772705e+29
-3.6911479e+29
-3.6989054e+29
-3.6978735e+29
-3.6951405e+29
-3.6986502e+29
-3.5816407e+29
-3.5824162e+29
-3.5796417e+29
-3.5826058e+29
-3.5833028e+29
-3.6974447e+29
-3.6965895e+29
-3.9361947e+29
-3.9361727e+29
-3.9353638e+29
-3.9347532e+29
-3.8174471e+29
-3.8174517e+29
-3.8165335e+29
-3.816108e+29
-3.9361844e+29
-3.9363217e+29
-3.8175369e+29
-3.9362064e+29
-3.8175363e+29
-3.6990998e+29
-4.3950079e+29
-4.5328381e+29
-4.3825159e+29
-4.1940729e+29
-4.3935025e+29
-4.540989e+29
-4.0056856e+29
-4.284752e+29
-4.1660279e+29
-4.1806815e+29
-4.2996088e+29
-4.4339313e+29
-4.4208293e+29
-4.5617477e+29
-4.5740442e+29
-4.5889947e+29
-4.4499338e+29
-4.3200934e+29
-3.8102895e+29
-3.9834267e+29
-3.970534e+29
-4.0844285e+29
-4.0994641e+29
-4.1996767e+29
-4.216493e+29
-4.3379083e+29
-4.4673224e+29
-4.603734e+29
-3.6062743e+29
-3.8840821e+29
-3.7687602e+29
-3.7780437e+29
-3.8940756e+29
-4.0100105e+29
-3.9986404e+29
-4.1136354e+29
-4.1276335e+29
-4.3568096e+29
-4.2330173e+29
-4.2493893e+29
-4.373589e+29
-4.5031139e+29
-4.4869573e+29
-4.6212016e+29
-4.6368821e+29
-4.3882329e+29
-4.2634917e+29
-4.1404333e+29
-4.0208228e+29
-3.9027278e+29
-3.7880959e+29
-3.6751588e+29
-3.5616326e+29
-3.3985799e+29
-3.5668185e+29
-3.6808127e+29
-3.7945989e+29
-3.910492e+29
-4.1515319e+29
-4.0301682e+29
-4.2756154e+29
-4.3999279e+29
-4.15951e+29
-3.3584158e+29
-3.3580116e+29
-3.3531619e+29
-3.1900284e+29
-3.4639382e+29
-3.4671294e+29
-3.4680853e+29
-3.4683412e+29
-3.3562431e+29
-3.577191e+29
-3.5774742e+29
-3.5735276e+29
-3.6850196e+29
-3.688815e+29
-3.6916642e+29
-3.5795727e+29
-3.5793573e+29
-3.6911085e+29
-3.6909282e+29
-3.9171972e+29
-3.7999184e+29
-3.8051443e+29
-3.8033426e+29
-3.8056049e+29
-3.9225151e+29
-3.9206369e+29
-3.9230879e+29
-3.80609e+29
-3.8057477e+29
-3.9234298e+29
-3.9239036e+29
-4.0379501e+29
-4.168792e+29
-4.1694592e+29
-4.1652558e+29
-4.1687638e+29
-4.0440343e+29
-4.0440561e+29
-4.0419867e+29
-4.0444095e+29
-4.1682544e+29
-4.0449206e+29
-4.0449819e+29
-4.1667971e+29
-4.2960966e+29
-4.2964709e+29
-4.2942966e+29
-4.295017e+29
-4.4172912e+29
-4.4217323e+29
-4.4218399e+29
-4.4200037e+29
-4.5459137e+29
-4.5454853e+29
-4.5451223e+29
-4.6698109e+29
-4.6700385e+29
-4.6715211e+29
-4.1657842e+29
-3.9819061e+29
-3.7895422e+29
-3.5902745e+29
-3.3867766e+29
-3.1813567e+29
-3.2490415e+29
-3.1391683e+29
-2.9752561e+29
-3.1381498e+29
-3.2475218e+29
-3.4680954e+29
-3.4683049e+29
-3.3585516e+29
-3.3571185e+29
-3.5799428e+29
-3.692001e+29
-3.6946857e+29
-3.581332e+29
-3.9255223e+29
-3.8074228e+29
-3.9269219e+29
-3.8099224e+29
-4.1513337e+29
-3.9609718e+29
-3.7677397e+29
-3.5718981e+29
-3.3729267e+29
-3.171457e+29
-2.9686644e+29
-3.6958949e+29
-2.7649633e+29
-2.9244272e+29
-3.0328942e+29
-3.0334097e+29
-2.9245588e+29
-3.141309e+29
-3.1404066e+29
-3.2478825e+29
-3.2480983e+29
-3.3575348e+29
-3.3573013e+29
-3.4684871e+29
-3.4682898e+29
-3.5814297e+29
-3.5817684e+29
-3.6958759e+29
-4.7325272e+29
-4.3972788e+29
-4.8816015e+29
-4.6832672e+29
-4.6951376e+29
-4.892531e+29
-4.153223e+29
-4.367864e+29
-4.3782881e+29
-4.5414602e+29
-4.5320008e+29
-4.7144984e+29
-4.9060187e+29
-4.9147881e+29
-4.7230508e+29
-3.9433836e+29
-4.1338908e+29
-4.1219251e+29
-4.2531102e+29
-4.2647005e+29
-4.5584013e+29
-4.4021673e+29
-4.4125069e+29
-4.5669429e+29
-4.7309498e+29
-4.7376765e+29
-4.9260721e+29
-4.9200519e+29
-3.7465339e+29
-3.9211047e+29
-3.9093984e+29
-4.0393164e+29
-4.0273468e+29
-4.1522214e+29
-4.2819677e+29
-4.2937713e+29
-4.1638862e+29
-4.4243757e+29
-4.4358161e+29
-4.5857632e+29
-4.5767081e+29
-4.7452809e+29
-4.9287826e+29
-4.9266272e+29
-4.7499666e+29
-3.5523806e+29
-3.7228902e+29
-3.7110258e+29
-3.8352643e+29
-3.8235677e+29
-3.9366772e+29
-3.9482343e+29
-4.0651451e+29
-4.0530616e+29
-4.1761594e+29
-4.3057578e+29
-4.3179527e+29
-4.1884542e+29
-4.4559274e+29
-4.4452756e+29
-4.594311e+29
-4.6017071e+29
-3.3569471e+29
-3.5152793e+29
-3.5247824e+29
-3.636465e+29
-3.6258887e+29
-3.7465609e+29
-3.735075e+29
-3.8580243e+29
-3.8461462e+29
-3.9603492e+29
-4.0779854e+29
-4.0912056e+29
-3.9727704e+29
-4.2011717e+29
-4.3418912e+29
-4.3293023e+29
-4.2145589e+29
-3.1595654e+29
-3.4273665e+29
-3.3162849e+29
-3.3239878e+29
-3.4350955e+29
-3.6463047e+29
-3.5370349e+29
-3.5447162e+29
-3.654727e+29
-3.7663342e+29
-3.7566009e+29
-3.879573e+29
-3.8682114e+29
-3.9836528e+29
-4.1027774e+29
-4.1165461e+29
-3.9962846e+29
-2.9608002e+29
-3.1165177e+29
-3.2255426e+29
-3.2322593e+29
-3.1231046e+29
-3.442473e+29
-3.3333231e+29
-3.3401032e+29
-3.4484946e+29
-3.5593016e+29
-3.5530949e+29
-3.663071e+29
-3.6712284e+29
-3.7753153e+29
-3.7854083e+29
-3.9012073e+29
-3.8899914e+29
-2.7605536e+29
-2.9167577e+29
-2.9211668e+29
-3.0278685e+29
-3.0241045e+29
-3.1302725e+29
-3.237347e+29
-3.241977e+29
-3.1339116e+29
-3.3465262e+29
-3.4558522e+29
-3.4619046e+29
-3.3521351e+29
-3.6800996e+29
-3.567224e+29
-3.5730719e+29
-3.6855172e+29
-2.5597519e+29
-2.7176512e+29
-2.716484e+29
-2.7148822e+29
-2.8213177e+29
-2.8231828e+29
-2.718773e+29
-2.8223714e+29
-2.8222635e+29
-2.9268291e+29
-3.0330401e+29
-3.0345141e+29
-3.0350612e+29
-2.9278384e+29
-2.9265837e+29
-2.9279289e+29
-2.9260089e+29
-3.0306952e+29
-3.0324425e+29
-3.1377088e+29
-3.1424741e+29
-3.1422465e+29
-3.1419379e+29
-3.1408081e+29
-3.2454277e+29
-3.2479063e+29
-3.2490602e+29
-3.2494184e+29
-3.1396112e+29
-3.2484985e+29
-3.2490575e+29
-3.3549684e+29
-3.3573216e+29
-3.3576653e+29
-3.3572773e+29
-3.3577532e+29
-3.4671911e+29
-3.4682623e+29
-3.4687994e+29
-3.4690234e+29
-3.4650162e+29
-3.4696456e+29
-3.4699611e+29
-3.3583248e+29
-3.3579117e+29
-3.6990449e+29
-3.6989984e+29
-3.6978856e+29
-3.6986612e+29
-3.58165e+29
-3.5824335e+29
-3.582499e+29
-3.5826124e+29
-3.8174567e+29
-3.8175297e+29
-3.8174597e+29
-3.6990973e+29
-3.6990937e+29
-3.5825405e+29
-4.3761297e+29
-4.170715e+29
-4.3734576e+29
-4.3642174e+29
-4.5195012e+29
-4.526069e+29
-4.5462032e+29
-4.399549e+29
-4.2605742e+29
-4.1419256e+29
-3.9811564e+29
-4.1542477e+29
-4.2724004e+29
-4.4096304e+29
-4.5529818e+29
-3.7897074e+29
-3.9585044e+29
-3.9462149e+29
-4.0578968e+29
-4.0715862e+29
-4.2905917e+29
-4.1712667e+29
-4.1855382e+29
-4.3047222e+29
-4.4356101e+29
-4.4228295e+29
-4.5625353e+29
-4.5746817e+29
-4.5891419e+29
-4.4500186e+29
-4.3209276e+29
-3.8629996e+29
-3.7508314e+29
-3.5914379e+29
-3.7605758e+29
-3.8740673e+29
-3.9858575e+29
-3.9729473e+29
-4.0844178e+29
-4.099496e+29
-4.2000128e+29
-4.2168291e+29
-4.3387276e+29
-4.4673958e+29
-4.6038535e+29
-3.3882348e+29
-3.556066e+29
-3.5492963e+29
-3.6606601e+29
-3.6687632e+29
-3.8839117e+29
-3.7712062e+29
-3.780569e+29
-3.894031e+29
-4.0103089e+29
-3.9988771e+29
-4.1139723e+29
-4.1280569e+29
-4.3568684e+29
-4.2330532e+29
-4.2494362e+29
-4.3736535e+29
-4.1404869e+29
-4.0208641e+29
-3.9030951e+29
-3.7883774e+29
-3.6749248e+29
-3.5641987e+29
-3.454564e+29
-3.3435999e+29
-3.1828432e+29
-3.3480004e+29
-3.4592663e+29
-3.5691656e+29
-3.6805445e+29
-3.7949271e+29
-3.9108885e+29
-4.1515817e+29
-4.0302152e+29
-3.3609743e+29
-3.3603346e+29
-3.2505027e+29
-3.3603388e+29
-3.2497619e+29
-3.3565255e+29
-3.2469481e+29
-2.9764194e+29
-3.1362253e+29
-3.2504614e+29
-3.1411344e+29
-3.139737e+29
-3.1401925e+29
-3.4641713e+29
-3.4681446e+29
-3.4708275e+29
-3.4693762e+29
-3.4688567e+29
-3.3597647e+29
-3.5796746e+29
-3.577464e+29
-3.5802075e+29
-3.5738355e+29
-3.685369e+29
-3.6912349e+29
-3.6890632e+29
-3.6917587e+29
-3.5796718e+29
-3.5795457e+29
-3.6912801e+29
-3.691055e+29
-3.9172362e+29
-3.7999528e+29
-3.8060592e+29
-3.8052632e+29
-3.803366e+29
-3.805758e+29
-3.9226693e+29
-3.9223957e+29
-3.9206523e+29
-3.9230494e+29
-3.8060958e+29
-3.8057557e+29
-3.9234341e+29
-3.9239105e+29
-4.1687854e+29
-4.1691445e+29
-4.1689641e+29
-4.1687446e+29
-4.0437062e+29
-4.0437038e+29
-4.044042e+29
-4.0444036e+29
-4.2960588e+29
-4.2967248e+29
-4.2964344e+29
-4.4217236e+29
-4.4223139e+29
-4.4218421e+29
-4.5455202e+29
-4.5454311e+29
-4.6699868e+29
-4.6700849e+29
-4.1425297e+29
-3.9581455e+29
-3.7679367e+29
-3.5728595e+29
-3.3737189e+29
-3.1720724e+29
-2.9691445e+29
-3.2496337e+29
-3.1422896e+29
-3.0346781e+29
-2.7655672e+29
-2.9264016e+29
-3.0342309e+29
-2.92603e+29
-3.1412541e+29
-3.2478993e+29
-3.4683349e+29
-3.4684916e+29
-3.3587676e+29
-3.3573249e+29
-3.5799487e+29
-3.6920066e+29
-3.6946939e+29
-3.5813422e+29
-4.1268844e+29
-3.937077e+29
-3.7453039e+29
-3.5523427e+29
-3.3571241e+29
-3.1594632e+29
-2.9601288e+29
-2.7598214e+29
-2.5588994e+29
-2.7156335e+29
-2.7160628e+29
-2.8217853e+29
-2.8219599e+29
-2.9270569e+29
-3.0331628e+29
-3.0337133e+29
-2.9271597e+29
-3.1413976e+29
-3.1405765e+29
-3.2480629e+29
-3.2482258e+29
-3.3575456e+29
-3.357313e+29
-3.4685001e+29
-3.4683008e+29
-4.6984188e+29
-4.3695439e+29
-4.6536244e+29
-4.6699139e+29
-4.8675338e+29
-4.8509466e+29
-4.1275859e+29
-4.3433717e+29
-4.5097477e+29
-4.5226516e+29
-4.3570448e+29
-4.8866111e+29
-4.6958589e+29
-4.706173e+29
-4.8957694e+29
-3.9191487e+29
-4.11097e+29
-4.0984216e+29
-4.2306405e+29
-4.2421605e+29
-4.3825126e+29
-4.392279e+29
-4.5497258e+29
-4.5412513e+29
-4.7149284e+29
-4.9046473e+29
-4.9138472e+29
-4.7227143e+29
-3.7236165e+29
-3.8860251e+29
-3.8980374e+29
-4.0160877e+29
-4.0040243e+29
-4.1409988e+29
-4.1295181e+29
-4.2598725e+29
-4.270962e+29
-4.5590802e+29
-4.4035062e+29
-4.4141694e+29
-4.567515e+29
-4.7310513e+29
-4.7377488e+29
-4.9261066e+29
-4.9201174e+29
-3.5316466e+29
-3.6889255e+29
-3.7004234e+29
-3.812269e+29
-3.800811e+29
-3.9247745e+29
-3.9133997e+29
-4.0412071e+29
-4.0295838e+29
-4.152851e+29
-4.2832561e+29
-4.2949976e+29
-4.1644291e+29
-4.4244891e+29
-4.4359165e+29
-4.5858864e+29
-4.5768437e+29
-3.3388171e+29
-3.4945947e+29
-3.6051668e+29
-3.6166591e+29
-3.5054784e+29
-3.7259031e+29
-3.7141042e+29
-3.835548e+29
-3.8240356e+29
-3.9369715e+29
-3.9484208e+29
-4.0654787e+29
-4.0535067e+29
-4.1762009e+29
-4.3058251e+29
-4.3180202e+29
-4.1884898e+29
-3.1447341e+29
-3.4097188e+29
-3.2994608e+29
-3.308218e+29
-3.4186897e+29
-3.5181248e+29
-3.527337e+29
-3.6363864e+29
-3.6259811e+29
-3.7466964e+29
-3.7352589e+29
-3.8581561e+29
-3.8463485e+29
-3.9603683e+29
-4.0780108e+29
-4.0912227e+29
-3.9727837e+29
-2.9494922e+29
-3.1104753e+29
-3.1035459e+29
-3.2117376e+29
-3.2190677e+29
-3.427186e+29
-3.3185523e+29
-3.326073e+29
-3.4346607e+29
-3.6464368e+29
-3.5371829e+29
-3.5448687e+29
-3.6548741e+29
-3.7663479e+29
-3.7566121e+29
-3.8795852e+29
-3.8682234e+29
-2.7526473e+29
-2.9077045e+29
-3.0138365e+29
-3.0201839e+29
-2.9131216e+29
-3.1188939e+29
-3.2252197e+29
-3.2319585e+29
-3.1255324e+29
-3.4427118e+29
-3.3335887e+29
-3.3402529e+29
-3.4486853e+29
-3.5593246e+29
-3.5531098e+29
-3.6630889e+29
-3.6712555e+29
-2.5546861e+29
-2.7082803e+29
-2.8144689e+29
-2.8186567e+29
-2.7119717e+29
-2.9192959e+29
-2.9237615e+29
-3.0278444e+29
-3.0240806e+29
-3.1305222e+29
-3.2376215e+29
-3.2422703e+29
-3.1341794e+29
-3.346555e+29