/*--------------------------------*- C++ -*----------------------------------*\
  =========                 |
  \\      /  F ield         | OpenFOAM: The Open Source CFD Toolbox
   \\    /   O peration     | Website:  https://openfoam.org
    \\  /    A nd           | Version:  7
     \\/     M anipulation  |
\*---------------------------------------------------------------------------*/
FoamFile
{
    version     2.0;
    format      ascii;
    class       volVectorField;
    location    "2000";
    object      U;
}
// * * * * * * * * * * * * * * * * * * * * * * * * * * * * * * * * * * * * * //

dimensions      [0 1 -1 0 0 0 0];

internalField   nonuniform List<vector> 
34387
(
(-1.3063724e+14 1.7708279e+12 -1.2624052e+12)
(-1.2897433e+14 -9.0532806e+11 -1.4854521e+12)
(-6.777542e+13 -7.6965596e+11 -7.4349072e+11)
(-1.3196658e+14 -1.835049e+12 -1.4953216e+12)
(-1.3262032e+14 3.2346527e+12 2.1466031e+11)
(-1.2937185e+14 -1.1760129e+12 -2.0004343e+12)
(-7.7287723e+13 -4.9719258e+11 1.3292493e+13)
(-7.4037385e+13 5.0895629e+12 -1.1760622e+13)
(-7.9166416e+13 -1.1931707e+12 -1.1878011e+13)
(-8.1200179e+13 4.0817929e+12 1.3054308e+13)
(-1.2671711e+14 -1.6902859e+12 -2.0236781e+12)
(-7.8733799e+13 1.4611777e+13 2.6259066e+12)
(-7.9866912e+13 1.3489362e+13 -4.2656935e+12)
(-7.9117629e+13 -1.1480379e+13 2.1698661e+12)
(-7.7030029e+13 -1.2654899e+13 -2.5006893e+12)
(-7.9149744e+13 4.5242222e+12 -1.2734761e+13)
(-7.8133708e+13 -2.3128222e+12 1.1669509e+13)
(-7.8616116e+13 3.5725501e+12 1.3428708e+13)
(-7.8949161e+13 -1.6710376e+12 -1.2962615e+13)
(-7.0659979e+13 -6.6422652e+11 -9.601781e+11)
(-6.1588688e+13 -6.1680699e+11 -6.5361586e+11)
(-6.7787817e+13 -6.5675781e+11 -8.6851766e+11)
(-1.3086647e+14 -1.8708618e+12 -1.3663586e+12)
(-1.3279098e+14 -3.6776859e+12 -1.9471662e+12)
(-1.2891047e+14 -2.2451356e+12 -1.1320266e+12)
(-7.95945e+13 1.2830758e+13 1.4267657e+12)
(-7.9420733e+13 1.3077629e+13 -4.0648832e+12)
(-7.6883056e+13 -1.0893636e+13 1.3786364e+12)
(-7.619591e+13 -1.0830805e+13 -3.7286252e+12)
(-1.4007048e+14 3.8039918e+12 -1.7070998e+12)
(-1.2590733e+14 -2.4012511e+12 -3.8491017e+12)
(-8.0643225e+13 5.1260227e+12 -1.0932773e+13)
(-7.9620093e+13 -1.5095859e+12 1.5242699e+13)
(-8.166518e+13 5.7016075e+12 1.4392446e+13)
(-8.4039207e+13 9.4778569e+10 -1.0802468e+13)
(-1.2675194e+14 -2.5318973e+12 -2.1940753e+12)
(-7.8781612e+13 -9.8752514e+11 1.1866927e+13)
(-8.2956551e+13 -1.1798071e+12 -1.1897304e+13)
(-7.8801991e+13 4.7463877e+12 -1.1223826e+13)
(-8.2198721e+13 3.1269819e+12 1.1162576e+13)
(-8.0893252e+13 2.1968535e+12 -2.4405653e+12)
(-7.8715817e+13 1.9790009e+12 1.9638215e+11)
(-8.5158601e+13 -5.6410777e+10 1.2188478e+12)
(-8.8286012e+13 4.7912434e+11 -1.9535627e+12)
(-1.2486666e+14 -2.7743947e+12 -2.2333701e+12)
(-7.7313727e+13 -1.0003938e+13 2.5744695e+12)
(-7.6609301e+13 1.3157474e+13 -3.778959e+12)
(-7.7714625e+13 1.3462132e+13 1.4066728e+12)
(-7.8683493e+13 -1.048123e+13 -1.7316601e+12)
(-7.7191891e+13 4.2382496e+12 -1.2108177e+13)
(-7.631924e+13 -2.4635898e+12 1.0729825e+13)
(-7.808627e+13 2.3439069e+12 1.1140152e+13)
(-8.2045152e+13 -5.3506892e+11 -1.2670931e+13)
(-7.8844834e+13 -5.0268512e+09 1.0397918e+12)
(-8.2868099e+13 5.8673614e+11 -7.5233335e+10)
(-7.9964567e+13 -9.8029548e+11 -4.637815e+11)
(-8.4089169e+13 -3.4941276e+11 -1.6481219e+12)
(-7.9961947e+13 -6.7628932e+11 -6.3304351e+11)
(-8.1642969e+13 -3.4999339e+11 4.4548876e+11)
(-8.3889615e+13 1.500313e+12 1.436785e+11)
(-8.2717273e+13 1.2798509e+12 -2.4451263e+12)
(-8.4254102e+13 2.2576049e+12 -1.5685566e+12)
(-8.5145562e+13 8.697717e+10 -5.4810798e+11)
(-7.790771e+13 -5.3590719e+11 -3.244526e+11)
(-5.6352412e+13 -6.2291736e+11 -8.8815107e+11)
(-7.1950934e+13 -6.3694746e+11 -1.1256164e+12)
(-8.8979848e+13 -4.4625778e+11 -6.4127014e+11)
(-6.6959279e+13 -2.6399688e+11 -8.6660599e+11)
(-6.5973934e+13 -6.3439321e+11 -8.4118998e+11)
(-1.2651826e+14 -2.2471793e+12 -4.2555997e+11)
(-1.3180022e+14 -4.2264651e+12 -1.6139554e+12)
(-1.2858722e+14 -2.5239601e+12 -7.7162615e+11)
(-7.9958102e+13 1.3120179e+13 2.2848305e+12)
(-8.47327e+13 1.226099e+13 -3.0663729e+12)
(-8.1537526e+13 -1.083311e+13 2.0947867e+12)
(-7.8300589e+13 -1.1057648e+13 -3.2800075e+12)
(-1.2735801e+14 -1.4267402e+13 -3.7845526e+12)
(-1.260227e+14 -4.0606697e+12 -1.4443701e+12)
(-1.2661197e+14 -2.6690184e+12 -8.7412996e+11)
(-7.9531358e+13 1.2038921e+13 1.7508968e+12)
(-8.0276919e+13 1.2091925e+13 -3.5890424e+12)
(-8.0089943e+13 -9.6131842e+12 1.297304e+12)
(-7.9414178e+13 -9.4714063e+12 -3.2549582e+12)
(-7.7567169e+13 -1.434858e+12 -1.8907789e+12)
(-7.9348308e+13 -1.3426753e+12 -1.8848677e+12)
(-7.9788359e+13 -6.5012002e+11 -1.810058e+12)
(-7.8776418e+13 -1.2382989e+12 -2.215265e+12)
(-1.4970375e+14 3.7406631e+12 -3.0980438e+12)
(-1.2850778e+14 -1.9276087e+12 -1.6002309e+13)
(-8.5488353e+13 5.8940442e+12 1.6178791e+13)
(-8.4664138e+13 -8.0049251e+11 1.5805351e+13)
(-8.3203195e+13 5.7440156e+12 -1.1013182e+13)
(-8.3870604e+13 -3.8651785e+11 -1.0852858e+13)
(-1.2422665e+14 -4.1991465e+12 -4.7229351e+12)
(-7.9358133e+13 -1.4708768e+12 1.122496e+13)
(-8.403512e+13 4.0986701e+12 -1.058825e+13)
(-8.6301992e+13 -4.8423564e+11 -1.106125e+13)
(-8.2476183e+13 4.1591273e+12 1.0748926e+13)
(-8.3324763e+13 2.4307581e+12 -3.2163139e+11)
(-8.4197704e+13 1.9742507e+12 -2.901103e+12)
(-8.7075237e+13 1.7705537e+12 -2.7070453e+12)
(-8.6462035e+13 2.404891e+12 -5.4950798e+11)
(-1.249366e+14 -2.9875494e+12 -2.3124475e+12)
(-8.0889738e+13 -1.3783061e+12 1.0426267e+13)
(-8.385463e+13 -1.632828e+12 -1.0876862e+13)
(-8.0845852e+13 3.8225513e+12 -1.021563e+13)
(-8.2510722e+13 2.6925434e+12 1.0026419e+13)
(-8.163179e+13 1.1338395e+12 -1.59214e+12)
(-8.6643257e+13 1.6080165e+11 -9.3719922e+11)
(-8.150542e+13 1.2478111e+12 -3.8586586e+11)
(-8.6743041e+13 -5.6479593e+11 -2.1133397e+12)
(-6.8140023e+13 2.8722023e+12 -8.8616318e+11)
(-8.4772801e+13 2.3271911e+12 -1.0874023e+12)
(-1.0107893e+14 -1.5456946e+10 -6.1701995e+11)
(-9.6147947e+13 7.5085799e+11 -1.2143575e+12)
(-1.2348061e+14 -3.0197975e+12 -2.1628804e+12)
(-7.6918863e+13 -2.6290975e+12 1.0020942e+13)
(-7.7182202e+13 3.4043311e+12 -1.1147768e+13)
(-7.9468548e+13 -1.7922793e+12 -1.1935715e+13)
(-7.8097281e+13 1.2126895e+12 1.070354e+13)
(-7.9214331e+13 1.0789663e+13 4.6245674e+11)
(-7.8040473e+13 1.1444404e+13 -4.1635653e+12)
(-7.7597322e+13 -9.7716807e+12 2.0353487e+12)
(-8.1617456e+13 -1.1021822e+13 -3.035981e+12)
(-7.8248803e+13 1.362655e+12 -2.7805206e+11)
(-7.7752181e+13 -8.9988944e+11 -4.1933605e+11)
(-8.0697179e+13 -2.9611785e+11 -9.2978368e+11)
(-8.3895078e+13 2.6055413e+11 -1.6093756e+12)
(-8.0316563e+13 1.2692162e+12 3.7357717e+11)
(-8.4704058e+13 1.8975865e+12 3.4225177e+11)
(-7.9135395e+13 9.242698e+11 -5.4978105e+11)
(-7.8118476e+13 5.650058e+11 -1.9343464e+12)
(-8.1397051e+13 2.8926514e+11 -1.1572569e+12)
(-8.4874455e+13 1.6539385e+12 -3.4338446e+11)
(-7.9316736e+13 3.4266975e+11 3.6343739e+11)
(-5.2501681e+13 2.9794333e+11 9.4460115e+11)
(-8.0521957e+13 1.3987146e+12 -3.3327505e+11)
(-5.8437002e+13 2.1376385e+11 -3.3867706e+11)
(-5.2348674e+13 -1.0279814e+12 -1.2120827e+12)
(-8.0695514e+13 2.3612931e+11 -4.1671018e+10)
(-3.9550368e+13 -1.0605282e+12 -4.916191e+11)
(-8.0487757e+13 -1.0215182e+12 3.9568902e+11)
(-9.3654459e+13 1.2298207e+12 -8.0891549e+11)
(-7.8866009e+13 1.4001036e+12 -8.0873712e+11)
(-6.3250177e+13 2.4242792e+12 -4.1484346e+11)
(-8.0004268e+13 1.9788211e+11 -9.6773226e+11)
(-4.8813436e+13 -1.088302e+11 -4.0819406e+11)
(-6.1423513e+13 -7.8544936e+11 9.8773224e+10)
(-8.0467967e+13 -8.3620315e+11 -1.0174846e+12)
(-7.2673414e+13 -6.2007706e+11 -2.8033483e+11)
(-6.3189889e+13 -2.5390536e+11 -1.1120701e+12)
(-6.7190859e+13 -7.086913e+11 -9.9701743e+11)
(-6.2758305e+13 -9.6831596e+11 -7.6048629e+11)
(-7.9886338e+13 -3.222708e+11 -1.0492353e+12)
(-7.038181e+13 -2.8961377e+11 -9.1243124e+11)
(-6.7380947e+13 -6.5966811e+11 -6.6763994e+11)
(-1.2976424e+14 -3.7567418e+12 -2.9210096e+11)
(-7.8030399e+13 4.1013035e+12 1.2175134e+13)
(-1.2535833e+14 -3.3968578e+12 8.5916838e+11)
(-7.8518077e+13 -2.9129191e+12 -1.2962444e+13)
(-7.7239714e+13 2.3216803e+12 -1.3427897e+13)
(-7.8985466e+13 -1.2798442e+12 1.3170924e+13)
(-7.6087097e+13 1.3407674e+13 3.455661e+12)
(-8.1583613e+13 1.3101144e+13 -2.1894901e+12)
(-8.1220329e+13 -1.2636582e+13 1.5889124e+12)
(-7.6042345e+13 -1.1846145e+13 -3.6841132e+12)
(-1.27352e+14 -1.5972999e+13 -1.1144034e+12)
(-1.2481512e+14 -4.7155241e+12 -1.2732068e+12)
(-8.368267e+13 -9.8228829e+12 2.0283991e+12)
(-8.4294933e+13 1.1163388e+13 -2.5029982e+12)
(-1.2670238e+14 -3.1286769e+12 -4.8219304e+11)
(-8.1773581e+13 1.1973969e+13 2.479072e+12)
(-8.1914515e+13 -9.6310396e+12 -2.6810774e+12)
(-8.2153228e+13 -1.1191325e+12 -4.604024e+11)
(-8.7966901e+13 -1.72309e+12 -8.5400644e+10)
(-8.8084744e+13 -1.1299517e+12 2.9083682e+10)
(-8.1346601e+13 -6.6885693e+11 -7.0502685e+11)
(-1.219507e+14 -9.0626223e+12 -3.406685e+12)
(-1.2395382e+14 -3.4553862e+12 -1.1400234e+12)
(-1.2482174e+14 -2.974509e+12 -6.7937522e+11)
(-8.2259157e+13 1.0636738e+13 -2.9543614e+12)
(-8.1505726e+13 -9.2970105e+12 1.4155065e+12)
(-8.005578e+13 1.0596543e+13 1.5867919e+12)
(-7.9973387e+13 -9.175305e+12 -2.7339795e+12)
(-7.7634996e+13 -9.5452933e+11 -1.0680495e+12)
(-8.1559393e+13 -1.6637549e+12 -1.2595667e+12)
(-8.1229636e+13 3.8632159e+11 -1.5561676e+12)
(-7.8386988e+13 1.0883254e+12 -1.4717637e+12)
(-4.8630817e+13 -3.7101042e+11 -1.6381991e+12)
(-6.3145649e+13 -2.6915149e+11 -1.9118475e+12)
(-5.7521042e+13 -1.0624771e+12 -1.7038601e+12)
(-5.9324076e+13 -1.6332179e+12 -1.9481561e+12)
(-1.5599857e+14 3.6894375e+12 -4.4508303e+12)
(-1.3275118e+14 5.8277169e+11 -1.9112173e+13)
(-8.8363011e+13 1.5493559e+11 -1.1685052e+13)
(-8.6560282e+13 5.3897368e+12 -1.2381544e+13)
(-8.8456044e+13 -1.8540556e+12 1.7324528e+13)
(-9.0611799e+13 6.479729e+12 1.6341334e+13)
(-1.1836646e+14 -2.9632499e+12 -9.1204449e+12)
(-8.3666588e+13 3.3405419e+12 9.1648962e+12)
(-8.0431081e+13 -4.1083306e+10 9.485286e+12)
(-8.6017647e+13 5.5749815e+12 -1.1913457e+13)
(-8.7755281e+13 -1.0881421e+12 -1.2174936e+13)
(-8.6643278e+13 2.3672778e+12 -2.5122074e+12)
(-8.626217e+13 3.6950381e+12 -2.5919948e+12)
(-8.5903173e+13 4.3810803e+12 -8.6241757e+11)
(-8.6269806e+13 2.8596498e+12 -1.3820497e+12)
(-1.2213635e+14 -4.1371545e+12 -3.1970706e+12)
(-7.9003671e+13 -1.2094346e+12 8.8605358e+12)
(-8.1126306e+13 3.6307733e+12 -1.0273797e+13)
(-8.4300215e+13 -8.8130096e+11 -1.0883129e+13)
(-8.0688414e+13 3.2530937e+12 8.5737141e+12)
(-8.1043639e+13 1.2624178e+12 -1.9388542e+12)
(-8.4880127e+13 9.5789809e+11 -7.8350111e+11)
(-8.6796681e+13 1.3361001e+12 -7.4408622e+11)
(-8.6449001e+13 1.00304e+12 -2.0537046e+12)
(-8.8597815e+13 2.7886439e+12 -1.5125515e+12)
(-6.6626039e+13 2.7804048e+12 -1.0439603e+12)
(-7.1089365e+13 2.7539918e+12 -9.5261983e+11)
(-9.1505624e+13 2.7109798e+12 -1.4803512e+12)
(-8.4240679e+13 -2.6194154e+12 9.2435779e+12)
(-1.2354686e+14 -2.8868348e+12 -1.9249206e+12)
(-8.3076318e+13 -1.6850341e+12 -1.0313361e+13)
(-8.2835091e+13 2.6569479e+12 -9.8626294e+12)
(-8.0965529e+13 2.3576826e+12 9.1177994e+12)
(-8.3669777e+13 7.3698473e+11 -1.9773358e+12)
(-8.5474845e+13 -5.3745674e+11 -2.3303541e+11)
(-8.412793e+13 8.1291681e+11 -2.8785682e+11)
(-8.5949169e+13 -4.0365574e+11 -1.7711117e+12)
(-7.087274e+13 1.3199334e+12 -4.2714594e+11)
(-7.8256681e+13 6.0454266e+11 -1.0667938e+12)
(-5.9518584e+13 2.2745063e+12 -5.9182965e+11)
(-7.1824511e+13 7.8181338e+10 -5.2144027e+11)
(-7.1176717e+13 2.4175242e+12 -3.9109716e+11)
(-7.0980295e+13 2.3901752e+12 -5.130282e+11)
(-8.2723355e+13 4.1898605e+11 -7.8899414e+11)
(-7.5477712e+13 1.2002817e+12 -8.0041996e+11)
(-1.2244079e+14 -3.0270418e+12 -1.5835219e+12)
(-7.8187116e+13 -3.8710952e+12 9.6110115e+12)
(-8.0764663e+13 1.0400936e+13 -3.8046213e+12)
(-7.9211449e+13 -9.8868239e+12 1.6515247e+12)
(-7.9389088e+13 -1.0836305e+13 -3.3605941e+12)
(-8.0015228e+13 1.0364955e+13 -1.0649528e+11)
(-7.9987698e+13 2.804084e+11 9.4067005e+12)
(-8.1837754e+13 -2.7929501e+12 -1.1508606e+13)
(-7.762497e+13 2.3777917e+12 -1.0536989e+13)
(-7.818096e+13 3.827773e+11 -2.0544963e+12)
(-7.8307322e+13 4.2860706e+11 -3.7328542e+11)
(-8.1294185e+13 -3.3273095e+11 -6.5152639e+11)
(-8.5878426e+13 1.5278686e+11 -8.2409541e+11)
(-8.261357e+13 -6.4308719e+11 -1.550808e+12)
(-8.4804335e+13 -1.4815741e+12 -1.3137123e+12)
(-8.2398907e+13 -1.7550062e+12 -1.6689995e+12)
(-8.0636967e+13 -2.0845849e+12 -1.6719035e+12)
(-8.0539664e+13 -2.7078512e+11 -1.2470101e+12)
(-8.7022925e+13 -7.512473e+11 -1.836899e+12)
(-7.4695404e+13 3.4311394e+10 -2.8175279e+11)
(-8.3441593e+13 -4.3964313e+11 -5.4005938e+11)
(-8.5343431e+13 -1.2713235e+12 -1.9511901e+12)
(-9.2799291e+13 -3.3720546e+11 -1.4023066e+12)
(-8.5764988e+13 2.9636405e+11 -1.8865356e+12)
(-8.4229206e+13 1.456373e+12 -8.2442742e+11)
(-8.2027548e+13 4.1191014e+11 3.9354479e+11)
(-8.5567216e+13 1.2322045e+12 5.1829603e+11)
(-6.4807131e+13 1.4446152e+12 -8.0469468e+11)
(-6.6298438e+13 9.577746e+11 -5.9971819e+11)
(-8.1373067e+13 1.1747064e+11 -4.8491545e+11)
(-6.5454317e+13 2.1049002e+12 -2.6984444e+11)
(-7.9491185e+13 5.2838754e+11 -4.7890564e+11)
(-6.303101e+13 5.9458743e+11 1.5402782e+11)
(-6.2749892e+13 -6.3682573e+11 1.1060961e+12)
(-6.2393926e+13 9.1468014e+11 -6.2609014e+10)
(-7.1368021e+13 -4.8833871e+11 -2.4860787e+11)
(-6.4268594e+13 -7.4359627e+11 -1.2672844e+12)
(-7.9237632e+13 1.8773397e+11 3.9292979e+11)
(-3.88251e+13 -7.0191711e+11 -1.5961678e+11)
(-5.6074583e+13 -9.6105682e+11 -3.8897508e+11)
(-4.3127855e+13 -1.1238332e+12 -8.7567066e+11)
(-7.361294e+13 1.5859447e+12 -5.6816412e+11)
(-7.4663648e+13 1.3644181e+12 -4.594098e+11)
(-7.4195686e+13 2.4643631e+12 -2.9617054e+11)
(-6.7910354e+13 -5.3035098e+10 -4.7840842e+11)
(-8.7790963e+13 -1.5775466e+11 -1.1847802e+12)
(-7.1406163e+13 -6.0297539e+11 1.3288877e+11)
(-7.1689218e+13 -9.2668278e+11 -1.6025086e+12)
(-9.1694065e+13 -3.0295257e+11 -1.2609521e+12)
(-6.8110148e+13 -3.6831382e+11 -1.0928443e+12)
(-6.5194173e+13 -7.3367411e+11 -5.7441342e+11)
(-7.0506344e+13 9.1618005e+11 -7.7889996e+11)
(-6.9266641e+13 -6.0238372e+11 -1.0805763e+12)
(-7.0846151e+13 -5.9796199e+11 -7.3081744e+11)
(-6.9526436e+13 -6.8699191e+11 -6.5036231e+11)
(-1.2930583e+14 -1.3159285e+13 1.2661064e+12)
(-8.4688445e+13 4.1766361e+12 1.133479e+13)
(-8.3032422e+13 -2.2309833e+12 -1.1719325e+13)
(-1.2523953e+14 -4.9598594e+12 5.5220434e+11)
(-7.9724323e+13 3.9224477e+12 -1.241651e+13)
(-8.1387031e+13 -8.134391e+11 1.1209564e+13)
(-8.1730237e+13 -1.6807179e+11 6.5145797e+11)
(-8.0409538e+13 -3.4975935e+12 -1.1197041e+13)
(-1.2437657e+14 -3.5385952e+12 1.3903338e+12)
(-7.5949515e+13 1.1239021e+12 -1.1442179e+13)
(-8.0849668e+13 -2.2593967e+12 1.1942527e+13)
(-8.0722997e+13 3.1474125e+12 1.0924418e+13)
(-8.0257488e+13 -1.1598852e+13 2.4119547e+12)
(-7.744032e+13 1.1438199e+13 -7.5210815e+11)
(-7.5879962e+13 1.2326165e+13 3.8273439e+12)
(-7.7430329e+13 -1.0389049e+13 -2.812148e+12)
(-8.3365357e+13 -9.3526973e+10 1.6063431e+12)
(-7.9999826e+13 1.3199995e+11 4.1889967e+11)
(-8.003991e+13 -6.9138637e+10 -1.821475e+11)
(-8.2424937e+13 3.3886166e+10 1.4048168e+12)
(-8.1167481e+13 1.0994827e+12 -3.5536765e+11)
(-7.6962224e+13 -1.1677104e+12 -1.1090179e+11)
(-8.4432646e+13 -7.2282129e+11 -3.365356e+11)
(-8.6538347e+13 -1.2544945e+12 -1.2383477e+12)
(-7.746851e+13 -9.9499792e+11 -2.3508794e+11)
(-1.2027452e+14 -1.0480648e+13 -1.2619468e+12)
(-1.2322436e+14 -4.0821925e+12 -1.0568241e+12)
(-8.6926147e+13 3.1804538e+11 -2.8752018e+10)
(-8.7013692e+13 -1.3545107e+12 1.9251909e+11)
(-8.41897e+13 -9.8285729e+12 2.1495563e+12)
(-1.2512152e+14 -2.8398643e+12 -7.8170684e+11)
(-8.2734917e+13 9.6573838e+12 -2.3082087e+12)
(-8.5109635e+13 1.0024036e+13 2.462021e+12)
(-8.4706002e+13 -9.5385241e+12 -2.1173298e+12)
(-8.4961094e+13 -1.630663e+12 -1.3581476e+10)
(-8.4938708e+13 4.1014621e+11 -1.4886629e+11)
(-6.2825223e+13 -8.4200543e+10 -3.5030055e+11)
(-6.474321e+13 -5.0128448e+11 7.2313176e+10)
(-6.2314122e+13 -1.4936589e+12 4.4044814e+11)
(-5.2889847e+13 -1.1287391e+12 -3.6163738e+11)
(-1.1761199e+14 -1.0024262e+13 -8.706407e+12)
(-1.2116514e+14 -4.8794882e+12 -1.9795817e+12)
(-1.2286934e+14 -2.8103382e+12 -6.9820124e+11)
(-8.3083278e+13 9.0036631e+12 -2.5631086e+12)
(-1.2374004e+14 -2.7932731e+12 -4.8645702e+11)
(-8.0865482e+13 9.6614172e+12 1.9382164e+12)
(-8.0358219e+13 -9.0035421e+12 -2.3950887e+12)
(-8.3736388e+13 -9.378637e+12 1.6767758e+12)
(-8.3002179e+13 -1.8293406e+12 -7.2146182e+11)
(-8.3531228e+13 -5.6232987e+11 -1.1125756e+12)
(-7.8913443e+13 -1.7154396e+12 -1.2898573e+12)
(-7.9705598e+13 -3.0719976e+11 -1.1737716e+12)
(-8.3466436e+13 -3.680162e+11 -1.1042179e+12)
(-7.8232693e+13 -7.5014688e+11 -1.1779956e+12)
(-8.1423465e+13 -5.9994733e+11 -1.5209841e+12)
(-6.9960632e+13 8.2817087e+10 -1.4499449e+12)
(-6.4521194e+13 -6.5939856e+11 -1.8188978e+12)
(-7.2922056e+13 -7.3940512e+11 -2.0195629e+12)
(-6.9575276e+13 -6.1819049e+11 -1.9579974e+12)
(-6.3509228e+13 -8.9708742e+11 -2.1172384e+12)
(-1.6000409e+14 4.0616404e+12 -6.1425535e+12)
(-1.3688541e+14 1.3522521e+12 -2.1018891e+13)
(-9.0290536e+13 -1.3767137e+12 1.8250855e+13)
(-9.0310339e+13 6.9974265e+12 1.8232112e+13)
(-8.6306147e+13 -2.5497442e+11 -1.262514e+13)
(-8.6287372e+13 6.2596876e+12 -1.2995487e+13)
(-1.1698201e+14 -4.9742373e+11 -1.0708837e+13)
(-8.1630938e+13 1.9558175e+11 9.802302e+12)
(-8.9795338e+13 5.3384831e+12 -1.1548867e+13)
(-9.1274162e+13 -1.8884655e+11 -1.191371e+13)
(-8.4493801e+13 4.8248893e+12 9.3633874e+12)
(-9.1620565e+13 4.5353289e+12 -2.0769812e+12)
(-8.8822168e+13 3.5550834e+12 -2.333419e+12)
(-8.7704048e+13 2.4229377e+12 -2.5828759e+12)
(-9.095774e+13 2.841113e+12 -2.9942015e+12)
(-1.1877213e+14 -3.5929276e+12 -3.9744903e+12)
(-7.9689129e+13 -2.9141743e+11 7.6386525e+12)
(-8.2246612e+13 4.4963176e+12 -1.1211257e+13)
(-8.5309448e+13 -1.2575026e+12 -1.1901515e+13)
(-8.0613284e+13 2.8022737e+12 7.1261836e+12)
(-8.7353074e+13 5.8589617e+11 -2.7396911e+12)
(-8.2516067e+13 2.1431629e+12 -2.827033e+12)
(-8.6219128e+13 2.4973166e+12 -5.8541591e+11)
(-8.7551064e+13 1.1810049e+12 -4.6124796e+11)
(-6.049498e+13 3.1565538e+12 -2.8125145e+11)
(-6.3155912e+13 4.3000792e+12 -4.0614754e+11)
(-8.2237751e+13 4.4760933e+12 -1.4032469e+12)
(-7.6828222e+13 3.2273216e+12 -1.4799028e+12)
(-1.2133678e+14 -3.6137518e+12 -1.8644833e+12)
(-8.0444831e+13 -1.947576e+12 8.5876298e+12)
(-7.9258154e+13 2.8997489e+12 -9.9360612e+12)
(-8.0055971e+13 -1.1583223e+12 -1.0219105e+13)
(-7.9434622e+13 2.3410056e+12 8.5211943e+12)
(-7.9637556e+13 9.6976043e+11 -2.1574839e+12)
(-8.120773e+13 9.1247838e+11 -5.6122917e+11)
(-8.4658557e+13 8.785317e+11 -6.5603398e+11)
(-8.2285373e+13 5.111732e+11 -2.252218e+12)
(-6.4261958e+13 2.1212335e+12 -1.5494686e+11)
(-5.7040296e+13 2.6969188e+12 -4.9145817e+11)
(-6.4769363e+13 2.5777868e+12 -5.7446466e+11)
(-7.1419011e+13 1.8024013e+12 -3.2617669e+11)
(-7.7858059e+13 2.619322e+12 -7.7110279e+11)
(-7.1490108e+13 2.0751112e+12 -5.0818922e+11)
(-7.3774711e+13 2.3339752e+12 -4.788456e+11)
(-7.6068572e+13 2.8666186e+12 -7.857014e+11)
(-8.6274355e+13 -8.8833858e+11 -1.927082e+12)
(-8.2582368e+13 1.7954385e+12 -9.7217526e+12)
(-1.2278123e+14 -2.589235e+12 -1.4894544e+12)
(-8.0995138e+13 -1.6413202e+12 -9.4748861e+12)
(-8.2940578e+13 -2.7874426e+12 8.5780775e+12)
(-8.2045778e+13 2.0374397e+12 9.3075587e+12)
(-8.4485306e+13 -2.2998838e+11 -5.8107066e+11)
(-8.6420687e+13 -3.7600522e+11 -7.3049488e+11)
(-8.1797042e+13 -1.4390766e+11 -2.0014941e+12)
(-7.8330437e+13 9.5080381e+11 -7.7143798e+11)
(-7.4422891e+13 -1.8604554e+11 -5.1499521e+11)
(-7.9643996e+13 8.5229324e+11 -8.0668758e+11)
(-8.0301185e+13 -2.2446687e+11 -5.7558146e+11)
(-7.5568707e+13 1.1250155e+12 -6.5528876e+11)
(-7.2317339e+13 7.3850532e+11 -6.2427683e+11)
(-7.4999316e+13 1.2709321e+12 -4.2959212e+11)
(-7.5469923e+13 -2.8874465e+11 -4.6436083e+11)
(-1.2142675e+14 -2.4435202e+12 -1.3734321e+12)
(-8.1668332e+13 9.0138089e+12 -3.6581602e+12)
(-7.8989642e+13 -3.1772e+12 9.4218947e+12)
(-7.7891901e+13 1.6115788e+12 -9.8616329e+12)
(-7.9545709e+13 -2.7355139e+12 -1.0786827e+13)
(-8.044071e+13 7.000104e+11 9.7152828e+12)
(-8.150928e+13 9.286126e+12 1.0439178e+12)
(-8.1508608e+13 -1.0496244e+13 -2.9412981e+12)
(-8.1176763e+13 -9.769254e+12 1.635315e+12)
(-7.8722888e+13 -1.3845469e+12 -1.9567321e+12)
(-8.2313389e+13 -1.8390909e+12 -1.2130277e+12)
(-8.3287212e+13 -5.8221335e+11 -1.5490665e+12)
(-8.2992056e+13 -8.399107e+11 -2.0738005e+12)
(-8.5320016e+13 -6.6457475e+11 -9.7545961e+11)
(-8.2878935e+13 -1.430981e+12 -2.1475753e+12)
(-8.2629417e+13 -1.3812039e+12 -2.2885739e+12)
(-8.2672145e+13 -1.5399569e+12 -1.5149111e+12)
(-8.4926732e+13 -1.3532304e+12 -8.1397554e+11)
(-7.8506984e+13 -7.1881489e+11 -6.1673382e+11)
(-7.3149894e+13 4.7724894e+11 -8.2232931e+11)
(-7.2570283e+13 5.6933625e+11 -8.6408e+11)
(-8.1389912e+13 -5.5338131e+11 -9.1451523e+11)
(-8.5771669e+13 -5.7713456e+11 -6.5506482e+11)
(-8.5875965e+13 -6.057388e+11 -1.6103314e+12)
(-8.4997946e+13 -8.3348422e+11 -1.6210843e+12)
(-7.5449274e+13 -4.0797858e+11 -8.2779553e+11)
(-8.4756566e+13 -1.8014989e+12 -8.8994337e+11)
(-7.6569191e+13 -8.3150067e+11 -1.4689081e+12)
(-7.0989171e+13 -9.0911828e+11 -1.4502772e+12)
(-7.7900087e+13 -9.718753e+11 -1.1656565e+12)
(-8.7507881e+13 -8.5769146e+11 -1.9012391e+12)
(-7.2902961e+13 -6.1598128e+11 -2.4971454e+11)
(-7.2009895e+13 -6.7636573e+11 -4.0612563e+11)
(-8.3925398e+13 -1.1695513e+12 -1.7810927e+12)
(-9.3373275e+13 -9.5184698e+11 -2.51252e+12)
(-7.3493837e+13 -5.8422134e+11 -1.0187289e+12)
(-8.7024693e+13 -7.5097004e+10 -8.4649189e+11)
(-8.4802944e+13 -5.9522145e+11 -1.8708683e+12)
(-1.0556891e+14 -1.0122552e+11 -1.75066e+12)
(-6.8324164e+13 -5.8711506e+11 4.3383005e+11)
(-9.1587418e+13 4.9934891e+11 -5.2065834e+11)
(-7.42854e+13 9.778218e+11 -5.2353589e+11)
(-7.3228848e+13 6.0456131e+11 -6.8827761e+11)
(-7.6071355e+13 3.4201343e+11 -7.3879993e+11)
(-8.0752371e+13 1.8868213e+12 -5.3550555e+11)
(-9.5284553e+13 -1.173364e+12 -1.9673958e+12)
(-7.5044924e+13 -6.6884874e+11 -1.2870633e+12)
(-6.7433907e+13 -7.7241423e+11 -1.3219682e+12)
(-7.7777945e+13 -6.3232217e+11 -1.6512133e+12)
(-6.8834599e+13 -6.8276128e+11 -6.3685322e+11)
(-6.7448e+13 -7.0367445e+11 -5.6521186e+11)
(-7.2006963e+13 7.2034168e+11 -8.3237896e+11)
(-6.6876788e+13 -6.6291168e+11 -8.565025e+11)
(-6.9124302e+13 -7.1923245e+11 -6.7955608e+11)
(-6.9441965e+13 -7.1526563e+11 -7.1191434e+11)
(-1.3356858e+14 -1.2116921e+13 1.6100798e+13)
(-1.2195343e+14 -9.7004412e+12 1.7506655e+12)
(-7.8085654e+13 3.3534612e+12 -1.09275e+13)
(-8.0514358e+13 -5.2320304e+12 -1.010948e+13)
(-9.2546361e+13 1.5447652e+12 1.0660064e+13)
(-8.4813445e+13 -1.8652019e+12 1.0906784e+13)
(-8.923686e+13 2.8258042e+11 4.1741894e+11)
(-8.8795379e+13 -5.097799e+11 1.8851697e+12)
(-8.398689e+13 1.8413646e+12 9.7982581e+12)
(-8.3184548e+13 -3.8240981e+12 -1.0515432e+13)
(-1.2377822e+14 -4.5783491e+12 1.0305592e+12)
(-7.9679374e+13 1.9651351e+12 -1.0223134e+13)
(-8.3238216e+13 -1.6837018e+12 1.016275e+13)
(-8.3877396e+13 5.499481e+11 1.9073146e+12)
(-8.2618688e+13 6.9363601e+11 1.9978559e+11)
(-6.0618887e+13 5.4450158e+11 1.3726375e+12)
(-8.4694241e+13 -8.6557822e+11 1.5426152e+12)
(-8.1171153e+13 2.2944199e+12 1.1071482e+13)
(-1.2311106e+14 -2.6422752e+12 5.7115126e+11)
(-7.9843669e+13 -3.7570276e+12 -1.0000817e+13)
(-7.8934641e+13 -2.3310406e+12 1.1897435e+13)
(-7.6296064e+13 1.4083903e+12 -1.0684612e+13)
(-7.8309797e+13 -1.1572442e+13 3.0903681e+12)
(-7.7422344e+13 1.086036e+13 -7.2973558e+11)
(-7.8523102e+13 1.0814574e+13 3.2444402e+12)
(-7.8356873e+13 -1.0545968e+13 -2.5107774e+12)
(-7.6837496e+13 -7.5820436e+11 8.0151805e+11)
(-7.9279356e+13 -1.2675298e+12 9.0896479e+11)
(-8.0299021e+13 -4.8762143e+11 -6.9050285e+11)
(-8.3453809e+13 1.0031123e+11 -8.1843714e+11)
(-8.4961716e+13 -6.5069524e+11 -2.6758217e+11)
(-8.2604401e+13 2.9984672e+11 1.0808164e+12)
(-7.991385e+13 -1.092017e+12 1.9236454e+12)
(-7.8107504e+13 -8.7817673e+11 9.8514699e+11)
(-7.8522172e+13 1.2957129e+12 6.2194925e+11)
(-5.8679284e+13 1.1214088e+12 5.6287387e+11)
(-7.2195196e+13 1.1906913e+12 -4.8614925e+10)
(-4.658601e+13 1.2172991e+12 -3.9849965e+10)
(-7.6999277e+13 -1.5472657e+12 -1.5453978e+12)
(-7.5230554e+13 2.0986449e+12 -2.9853015e+11)
(-4.7408165e+13 1.1358097e+12 1.3513167e+12)
(-7.5755666e+13 1.1540147e+12 -2.2700574e+12)
(-4.4977392e+13 -1.8858665e+11 -2.5246055e+11)
(-5.9590888e+13 1.5704495e+11 -9.7442869e+10)
(-5.0773478e+13 -1.0174917e+12 -1.2620159e+12)
(-3.9705658e+13 -1.820396e+12 -1.9430526e+11)
(-1.1566524e+14 -1.1998437e+13 -1.2311197e+12)
(-1.2068635e+14 -5.6977933e+12 -1.2910762e+12)
(-1.225355e+14 -2.9774609e+12 -9.5063194e+11)
(-7.3776452e+13 -3.0040899e+11 -1.7420545e+11)
(-8.2420584e+13 -3.6663471e+11 -49421917)
(-8.7438238e+13 -3.9935299e+11 3.0486729e+11)
(-1.2394557e+14 -2.6220162e+12 -7.7686962e+11)
(-8.249715e+13 -9.195178e+12 1.5665786e+12)
(-8.3350312e+13 9.708587e+12 -2.8914335e+12)
(-8.4709033e+13 -9.5290537e+12 -2.3978291e+12)
(-8.560316e+13 9.0242632e+12 1.2308725e+12)
(-8.4538131e+13 -2.0068029e+12 5.3735742e+09)
(-8.8988379e+13 -1.9296606e+12 1.9095717e+11)
(-8.908868e+13 -5.8676077e+11 2.1103535e+11)
(-8.0731966e+13 -7.0246593e+11 -1.0302076e+11)
(-8.1504593e+13 -4.6228557e+11 -2.4110935e+11)
(-7.2567755e+13 -6.8197409e+11 -2.9251803e+11)
(-7.1932173e+13 -8.0213414e+11 1.3209854e+11)
(-7.0204897e+13 -1.0272173e+12 4.7877243e+11)
(-6.4691682e+13 -7.8946321e+11 -4.3240225e+11)
(-1.1187099e+14 -4.0222167e+12 -1.1078094e+13)
(-1.1760554e+14 -4.8515596e+12 -2.8573799e+12)
(-1.2069073e+14 -3.3442765e+12 -7.5288732e+11)
(-1.2240742e+14 -2.2930513e+12 -3.471896e+11)
(-8.2774757e+13 -2.0406825e+12 -4.1933717e+11)
(-8.1310577e+13 -9.2513268e+12 1.7775069e+12)
(-1.2314601e+14 -2.2215886e+12 -2.5171678e+11)
(-8.2137547e+13 8.6470437e+12 -2.3418837e+12)
(-8.2693895e+13 9.0299294e+12 1.324157e+12)
(-8.1000198e+13 -8.7573891e+12 -2.117707e+12)
(-7.9827132e+13 -1.7245974e+12 -3.265129e+11)
(-8.0424532e+13 -4.2507143e+11 -9.3932531e+11)
(-8.5892667e+13 -6.0084994e+11 -5.9409712e+11)
(-7.1011407e+13 -6.3718923e+11 -7.374216e+11)
(-7.1240505e+13 -8.3404113e+11 -1.0377501e+12)
(-7.1039863e+13 -7.007424e+11 -1.2685311e+12)
(-7.5223369e+13 -7.8553136e+11 -1.1558964e+12)
(-7.0060799e+13 -6.5525243e+11 -1.0074194e+12)
(-6.940154e+13 -7.6598255e+11 -1.1367133e+12)
(-6.9902041e+13 -8.4799449e+11 -1.4129798e+12)
(-7.0065083e+13 -6.3247846e+11 -1.4596466e+12)
(-1.6141393e+14 3.8386812e+12 -6.7537893e+12)
(-1.3982543e+14 1.8757367e+12 -2.1666195e+13)
(-9.2492279e+13 -1.1186969e+12 1.7385951e+13)
(-8.774606e+13 6.828059e+12 -1.4756389e+13)
(-8.7700773e+13 5.7564879e+11 -1.3934961e+13)
(-9.1744437e+13 7.818558e+12 1.7959592e+13)
(-1.1836983e+14 5.4426621e+11 -1.1158044e+13)
(-8.2919626e+13 4.9339764e+12 9.4904792e+12)
(-8.2653324e+13 6.3553231e+10 9.7910486e+12)
(-9.0583311e+13 5.5793204e+12 -1.1762695e+13)
(-9.2560303e+13 -5.2287192e+11 -1.2025449e+13)
(-8.9822104e+13 3.770677e+12 -1.7417269e+12)
(-8.8096893e+13 2.7568533e+12 -1.5934491e+12)
(-8.7817033e+13 3.623658e+12 -1.6138543e+12)
(-8.9157001e+13 4.4177185e+12 -1.2580024e+12)
(-1.1591274e+14 -1.8784078e+12 -4.8092345e+12)
(-8.0268658e+13 -1.6646105e+10 7.0849068e+12)
(-8.7694194e+13 -2.0210112e+11 -1.1670933e+13)
(-8.505269e+13 4.6775957e+12 -1.127642e+13)
(-8.0977398e+13 3.9990856e+12 6.7767651e+12)
(-8.4195672e+13 2.7517685e+12 -2.8572803e+12)
(-8.7731886e+13 1.9899915e+12 1.4507855e+10)
(-8.9195779e+13 2.124301e+12 -4.6224289e+11)
(-8.8481386e+13 1.7102299e+12 -3.0599458e+12)
(-8.2722773e+13 4.7942263e+12 -1.5096179e+12)
(-6.5483716e+13 3.4273034e+12 -1.5454633e+12)
(-5.5073869e+13 2.5457232e+12 -1.2154437e+11)
(-6.7067389e+13 3.4547932e+12 -4.5551931e+11)
(-1.191794e+14 -3.3068287e+12 -1.9704551e+12)
(-8.1762584e+13 -1.3349491e+12 8.0317638e+12)
(-7.9852197e+13 3.5489032e+12 -1.0154409e+13)
(-8.0095731e+13 -1.3150984e+12 -1.0681321e+13)
(-7.9445743e+13 2.4694211e+12 7.6203453e+12)
(-8.0352541e+13 1.3302708e+12 -2.5650872e+12)
(-8.1747457e+13 1.382504e+12 -1.3161303e+12)
(-8.4738129e+13 5.6456706e+11 -1.2540584e+12)
(-8.1823583e+13 1.1509633e+11 -2.8530901e+12)
(-8.282622e+13 5.9622544e+11 -3.3196803e+11)
(-7.4306782e+13 2.4274696e+12 -3.9398848e+11)
(-6.3235105e+13 3.7292094e+12 -5.9717817e+10)
(-6.6078313e+13 2.214405e+12 5.7599074e+10)
(-7.2288764e+13 2.3281009e+12 -2.3805113e+11)
(-7.3914735e+13 3.6774049e+12 -2.7119848e+11)
(-7.4398339e+13 4.3395248e+12 -6.6556589e+11)
(-7.0882795e+13 3.0219552e+12 -7.3781571e+11)
(-1.213423e+14 -2.8980244e+12 -1.4191014e+12)
(-8.1929119e+13 -2.4506537e+12 8.6593621e+12)
(-8.0560617e+13 1.3676052e+12 8.6315793e+12)
(-7.9401691e+13 -2.3275686e+12 -9.3042578e+12)
(-7.9165077e+13 2.0789973e+12 -9.0859768e+12)
(-8.0081371e+13 1.1333099e+11 -2.0952763e+12)
(-8.0238841e+13 3.5503396e+11 -1.094254e+12)
(-7.978639e+13 5.6732365e+11 -9.0875968e+11)
(-7.9424973e+13 -2.4348119e+11 -2.0009218e+12)
(-7.9376217e+13 8.2873339e+11 -8.2102945e+11)
(-7.6178731e+13 1.1220049e+12 -5.9978014e+11)
(-7.7790879e+13 1.0770278e+12 -5.8681732e+11)
(-7.9695693e+13 6.0354832e+11 -6.9870828e+11)
(-7.4521426e+13 1.3707237e+12 -5.6085755e+11)
(-7.3422015e+13 1.3165146e+12 -3.8750609e+11)
(-7.7026139e+13 1.7004015e+12 -4.3023315e+11)
(-7.8584367e+13 1.3036379e+12 -5.4811868e+11)
(-7.7580806e+13 -3.2846257e+11 -6.0245952e+11)
(-8.5144022e+13 -8.5238616e+11 -6.9792265e+11)
(-1.2240932e+14 -2.301268e+12 -1.4227706e+12)
(-7.9822476e+13 1.5841954e+12 -9.0282786e+12)
(-8.1266648e+13 -2.8178964e+12 8.7092035e+12)
(-8.4926708e+13 1.4302926e+12 8.6654113e+12)
(-8.3468121e+13 -2.1248958e+12 -9.0527551e+12)
(-8.1411222e+13 1.8396447e+11 -5.3878481e+11)
(-8.2049119e+13 -7.81677e+11 -1.9962942e+12)
(-8.2816757e+13 -5.393983e+10 -1.7481021e+12)
(-7.9280705e+13 -1.2702096e+10 -7.9827366e+11)
(-7.6206355e+13 3.6369002e+11 -8.0544986e+11)
(-7.6581604e+13 1.1337217e+11 -8.0113637e+11)
(-7.2225832e+13 1.315499e+12 -6.951808e+11)
(-7.8457313e+13 -5.1869424e+11 -5.4386022e+11)
(-7.2774479e+13 1.3537075e+12 -7.511745e+11)
(-7.8365976e+13 -1.7459855e+11 -6.4687218e+11)
(-1.2038823e+14 -2.4460429e+12 -1.1611234e+12)
(-7.9745765e+13 -2.8108667e+12 8.7838037e+12)