/*--------------------------------*- C++ -*----------------------------------*\
  =========                 |
  \\      /  F ield         | OpenFOAM: The Open Source CFD Toolbox
   \\    /   O peration     | Website:  https://openfoam.org
    \\  /    A nd           | Version:  7
     \\/     M anipulation  |
\*---------------------------------------------------------------------------*/
FoamFile
{
    version     2.0;
    format      ascii;
    class       volScalarField;
    location    "1000";
    object      k;
}
// * * * * * * * * * * * * * * * * * * * * * * * * * * * * * * * * * * * * * //

dimensions      [0 2 -2 0 0 0 0];

internalField   nonuniform List<scalar> 
33899
(
1.5308089
1.5307924
1.5221063
1.5301289
1.5307211
1.5424207
1.5425169
1.5278594
1.527877
1.5204729
1.5202224
1.5229258
1.5209156
1.521665
1.5218216
1.5220658
1.5212207
1.5202097
1.5204307
1.5223174
1.5318007
1.5322705
1.5416195
1.5408974
1.5272561
1.5277836
1.5897238
1.5376685
1.5890684
1.5374814
1.5257677
1.5201527
1.523209
1.5232309
1.5192337
1.5199999
1.519649
1.5188657
1.5201335
1.5187494
1.5194936
1.5196487
1.5188581
1.5200871
1.5182792
1.5180241
1.5206122
1.5207752
1.5266557
1.5298508
1.5270951
1.530259
1.5274042
1.5206084
1.5217328
1.5214578
1.5208162
1.5210446
1.5227984
1.5224546
1.523998
1.5243479
1.5208617
1.5201785
1.5203543
1.5230942
1.5230418
1.5246347
1.524671
1.5219544
1.5219247
1.5212507
1.5212209
1.5200821
1.5203493
1.5210366
1.5205255
1.5205994
1.5213919
1.5204631
1.5295725
1.5295899
1.5428788
1.5430961
1.529042
1.5294814
1.5262189
1.585965
1.5369575
1.585493
1.5361886
1.5251676
1.5256169
1.6031379
1.5808901
1.5339208
1.6022139
1.5798088
1.5241196
1.519011
1.51805
1.521764
1.5230278
1.5231814
1.5217268
1.5221415
1.5221037
1.5220567
1.5226477
1.522582
1.5219413
1.5241535
1.5188288
1.5191214
1.5196981
1.519368
1.5189223
1.5206177
1.5202268
1.522104
1.521673
1.5201935
1.5217262
1.5201234
1.5215898
1.5192243
1.5186614
1.5186364
1.5186469
1.5191821
1.5181267
1.5184007
1.5185086
1.5191462
1.5191507
1.5185621
1.5185549
1.5200768
1.5200793
1.5215778
1.5215595
1.5203681
1.5202211
1.5217442
1.5218838
1.5186195
1.5193355
1.5192196
1.5186161
1.518727
1.5180853
1.5180445
1.5182283
1.517953
1.5240007
1.5239935
1.5270492
1.5243905
1.5241994
1.5272661
1.5273699
1.5342642
1.537255
1.5375189
1.5343735
1.5463955
1.5423716
1.5427068
1.5460381
1.5350619
1.5381483
1.5383518
1.5350866
1.5436939
1.5434432
1.5471731
1.5471963
1.5354225
1.5353064
1.538469
1.5384041
1.5438232
1.5204448
1.520184
1.5203339
1.520626
1.5225527
1.5225558
1.5235042
1.5234646
1.5224277
1.5221506
1.5230444
1.5233108
1.5213574
1.5208282
1.5210573
1.5215856
1.5211736
1.5211537
1.5217072
1.5217193
1.5248556
1.5249296
1.5264768
1.5263479
1.5247009
1.5244148
1.5258989
1.5261248
1.5282411
1.5284609
1.5305426
1.5304239
1.5311076
1.5288879
1.5287121
1.5311176
1.5207737
1.5207993
1.5204554
1.5204436
1.520034
1.5202375
1.5253017
1.525198
1.5267438
1.5268082
1.5250988
1.5251264
1.5266196
1.5266653
1.5290772
1.5313259
1.5314164
1.5290231
1.529239
1.5291838
1.5314147
1.5313924
1.5237442
1.5227597
1.5227529
1.5236757
1.5226959
1.5227116
1.5236226
1.5235996
1.5213581
1.5213797
1.5219264
1.5219117
1.5213294
1.5213507
1.5218892
1.5218709
1.5189021
1.5191774
1.5204257
1.5209533
1.5209699
1.5206225
1.5206141
1.5220689
1.5214785
1.5214812
1.5220233
1.5215146
1.5227961
1.5224958
1.5232059
1.5238919
1.5232257
1.5211263
1.521334
1.5211251
1.520958
1.522753
1.5401275
1.5401255
1.5266975
1.5267436
1.5238386
1.5239178
1.5866544
1.538351
1.5862481
1.5385887
1.5270611
1.5274484
1.5247558
1.5254315
1.5247137
1.5264217
1.5981085
1.5774411
1.5332941
1.5982394
1.5767587
1.5324968
1.5235004
1.5238606
1.6172907
1.5943068
1.5728624
1.5308191
1.6165053
1.5929615
1.5398416
1.5192588
1.5162171
1.5189968
1.5217888
1.5216425
1.5228997
1.5223141
1.521602
1.5219669
1.5216403
1.5216244
1.5219663
1.521883
1.5218097
1.5214532
1.5215261
1.5215225
1.5224117
1.5219146
1.5218505
1.5222829
1.5218028
1.5218071
1.5222382
1.5222369
1.5221994
1.521735
1.5217281
1.5221611
1.5229918
1.5229161
1.5243453
1.522919
1.5228151
1.524139
1.5216731
1.5215584
1.52211
1.5220092
1.5312506
1.5316144
1.534187
1.5185337
1.5187436
1.518783
1.5192046
1.5191626
1.5187792
1.5188957
1.5191563
1.5196316
1.5193336
1.5199563
1.5203062
1.521145
1.5207879
1.5207064
1.5198274
1.5197783
1.5205766
1.5184661
1.5182462
1.5239346
1.5224176
1.5220127
1.5234049
1.5217876
1.5219589
1.5233465
1.5231465
1.5255603
1.5261452
1.528199
1.5276281
1.527854
1.5255471
1.5252954
1.5273703
1.5237108
1.5221232
1.5235975
1.5220357
1.5284522
1.5260685
1.5259268
1.5280335
1.5218592
1.52195
1.5233857
1.5232442
1.5254534
1.5256572
1.5277923
1.527514
1.5207054
1.5197978
1.5206244
1.51973
1.5183722
1.5190869
1.5186194
1.5186049
1.5190365
1.5183623
1.5181152
1.5181023
1.5190926
1.5186231
1.5186009
1.5190432
1.5196935
1.519746
1.5205702
1.5205105
1.5180073
1.5182979
1.5182633
1.5182615
1.5180304
1.5180227
1.519739
1.519795
1.5206584
1.520593
1.5197234
1.5198017
1.5206515
1.5205732
1.5190614
1.5185677
1.5185332
1.5189916
1.5190502
1.5185553
1.5185363
1.5189997
1.5218881
1.5219794
1.5234342
1.5232936
1.5218603
1.521951
1.5233758
1.5232586
1.5254822
1.5256265
1.5277653
1.5275535
1.5280905
1.5257293
1.5255298
1.5276298
1.5224246
1.5223612
1.5238517
1.5238842
1.5221219
1.5221741
1.5236293
1.5235679
1.5282561
1.5259289
1.5258536
1.5279219
1.5285186
1.5262032
1.5262188
1.5282649
1.5183246
1.5184179
1.5181006
1.5181523
1.5200481
1.519981
1.5208809
1.5209433
1.519825
1.5198748
1.5207427
1.5206944
1.5191176
1.5186137
1.5185944
1.5190684
1.5191993
1.5186797
1.5187558
1.519254
1.5179704
1.5179123
1.5164164
1.5162775
1.5344964
1.5312333
1.5309602
1.5337895
1.5311086
1.5316367
1.5345533
1.533995
1.5390723
1.5396744
1.5317673
1.5320824
1.5345236
1.5348981
1.5313844
1.5317911
1.5341761
1.5346649
1.5397043
1.5391401
1.5425377
1.5437317
1.5399316
1.5395293
1.5428664
1.5539247
1.5638681
1.5648821
1.554232
1.5887806
1.5752348
1.5763633
1.5891667
1.5545083
1.5645938
1.5653769
1.5546842
1.5769284
1.576149
1.5890686
1.5897059
1.5552037
1.5546563
1.5647494
1.5762845
1.5204647
1.5201963
1.5206399
1.5203261
1.5200012
1.5201785
1.5204181
1.5204089
1.520723
1.5207393
1.523106
1.5231231
1.5253225
1.5252428
1.5230265
1.5227505
1.5249029
1.5251946
1.5213356
1.5204819
1.52072
1.5215756
1.5208485
1.5208252
1.5216742
1.5216859
1.5283541
1.5284947
1.5328011
1.5326022
1.5283353
1.5280365
1.5323385
1.5326113
1.5379382
1.5381954
1.5451875
1.5449302
1.54559
1.5384024
1.5381613
1.5454234
1.5209102
1.5205518
1.520555
1.520893
1.5209332
1.5205708
1.5205746
1.5209157
1.5203091
1.5202931
1.5188589
1.5191113
1.5289997
1.528655
1.5329551
1.5333757
1.5285681
1.5286254
1.5328675
1.5329195
1.5385159
1.5455518
1.5459986
1.5384985
1.53907
1.5385846
1.5456789
1.5461459
1.5256088
1.5232504
1.5233061
1.5253676
1.5231894
1.5232191
1.5253412
1.5252887
1.5210133
1.5210238
1.5218485
1.5218714
1.5209785
1.520996
1.5218186
1.5217977
1.5188672
1.5191162
1.5192715
1.5192664
1.5204759
1.5204901
1.5207267
1.5207233
1.521051
1.5210573
1.5210854
1.5207359
1.5207386
1.5210712
1.5234818
1.5256757
1.5220267
1.5211341
1.5211389
1.5219637
1.5211435
1.5198113
1.5262543
1.5256293
1.525715
1.5262114
1.5229562
1.5233841
1.5235567
1.5231659
1.5407482
1.5418428
1.5461765
1.5254698
1.5450558
1.5247417
1.5224211
1.522141
1.5281116
1.5273045
1.5277141
1.5246839
1.5252382
1.5814237
1.535385
1.5823778
1.5354495
1.5245975
1.5246584
1.5222816
1.5226098
1.5224665
1.524239
1.5243288
1.5223694
1.5225228
1.5226143
1.5243324
1.5242524
1.5990771
1.5790337
1.5348695
1.5981717
1.5781002
1.5350494
1.5255192
1.5258305
1.5238432
1.5218448
1.523292
1.5239585
1.5223882
1.5320959
1.5313062
1.611101
1.5898544
1.5697631
1.5301174
1.6115643
1.5892923
1.5689446
1.5293785
1.6084983
1.5858391
1.5654356
1.6072709
1.5374882
1.5375697
1.5908661
1.5945717
1.5912547
1.5375019
1.5373198
1.5193899
1.5194147
1.5194041
1.519382
1.5163488
1.5164901
1.5186034
1.5190148
1.5190122
1.5192315
1.5192415
1.5216109
1.5216895
1.5220818
1.5220946
1.5217633
1.5217554
1.5224009
1.5223603
1.5223809
1.5228741
1.5228446
1.5188445
1.5214472
1.5214004
1.521525
1.5216998
1.5216661
1.5214894
1.5216199
1.521621
1.5214543
1.5214488
1.5215409
1.5215395
1.5213559
1.5213451
1.5214604
1.521363
1.5212522
1.5211819
1.5212053
1.5212832
1.5183955
1.5237784
1.5228698
1.5226386
1.5234626
1.5221983
1.5217751
1.5216717
1.5220271
1.5215911
1.5215964
1.5219387
1.5219333
1.5233289
1.5224793
1.5224653
1.5232327
1.5244391
1.5245667
1.5215191
1.5215346
1.5218819
1.5218688
1.5215268
1.521546
1.5218893
1.5218688
1.5224009
1.5224264
1.5232019
1.5231729
1.5232714
1.5224245
1.5224076
1.5231826
1.5232922
1.5224328
1.5223715
1.5231656
1.5218257
1.5214457
1.521436
1.5217826
1.5214338
1.5214537
1.5217986
1.5217803
1.5231625
1.5223314
1.5223118
1.5230724
1.5245116
1.5243479
1.5242066
1.5243312
1.5256865
1.5255297
1.5281311
1.527822
1.5298096
1.5258046
1.5243425
1.5242567
1.5255861
1.5241204
1.5243198
1.5256459
1.5254155
1.5298699
1.5277329
1.5274333
1.5293447
1.5217706
1.521392
1.521382
1.5217292
1.521227
1.5213481
1.5217022
1.5215911
1.5222615
1.5223178
1.5230885
1.5230242
1.5230634
1.5222444
1.5221323
1.5228967
1.5497965
1.5503071
1.5596499
1.5184905
1.5182363
1.5182249
1.5184595
1.5183011
1.5183325
1.518977
1.5189493
1.5188115
1.5185087
1.5183386
1.5185993
1.518424
1.5186466
1.5193597
1.5190855
1.5202555
1.5205756
1.522564
1.5221981
1.5221247
1.5201102
1.520074
1.5219305
1.5182941
1.5180715
1.5297383
1.5254728
1.5250803
1.5290722
1.5247017
1.5249681
1.5289101
1.528572
1.5343615
1.5350249
1.5416501
1.5410272
1.5412494
1.5341442
1.5337347
1.5403115
1.5298422
1.5254437
1.5297754
1.5253698
1.5427023
1.535328
1.5352751
1.5421895
1.5250562
1.5251398
1.5291964
1.5290575
1.534351
1.534563
1.5413752
1.5410261
1.5223002
1.5201881
1.5222161
1.5201198
1.5180938
1.5181048
1.5183254
1.5183155
1.5189209
1.5181954
1.5181865
1.5188631
1.5183232
1.5180865
1.5180834
1.5183057
1.5179302
1.5179196
1.5189271
1.5182001
1.5181873
1.5188914
1.5200846
1.5201174
1.5220691
1.5220167
1.5163769
1.5165655
1.5182468
1.5180081
1.5179989
1.5182227
1.5182351
1.5179984
1.5179991
1.5182222
1.5178508
1.5178487
1.5201893
1.5202134
1.5222209
1.5221986
1.5201576
1.5202438
1.5222591
1.5221587
1.5189357
1.5181681
1.5181392
1.5188585
1.5189168
1.5181563
1.5181462
1.5188777
1.52514
1.525171
1.5292483
1.5291744
1.5251008
1.5251977
1.5292547
1.5291515
1.5345052
1.5345874
1.5413261
1.5412372
1.541883
1.5346276
1.5344876
1.5412019
1.5262232
1.5259185
1.530187
1.5305406
1.5255432
1.5255397
1.529692
1.5297121
1.5424087
1.5351237
1.5351628
1.5419991
1.5430873
1.5357185
1.5360987
1.5429908
1.5182927
1.5180649
1.5180667
1.5182809
1.5183608
1.5181388
1.5181829
1.5184232
1.5179224
1.5179849
1.520655
1.5204947
1.5226235
1.5228548
1.5202977
1.5203344
1.5223725
1.5223461
1.519006
1.5182208
1.5182073
1.5189572
1.5191087
1.5182928
1.5183876
1.5192177
1.516441
1.5163652
1.5165675
1.5163831
1.516368
1.5164374
1.5599731
1.5495683
1.5494574
1.5591827
1.5494491
1.5502474
1.5600794
1.5591643
1.5704204
1.5714803
1.5513405
1.5515304
1.5611322
1.5614111
1.5503366
1.5507706
1.5601423
1.5605656
1.5718107
1.5713861
1.5840697
1.5862131
1.5727058
1.5723468
1.5849463
1.579292
1.5747774
1.5729315
1.5770479
1.592824
1.587894
1.5858364
1.5902607
1.5939409
1.5888151
1.5871678
1.5915193
1.5732668
1.5750877
1.5791619
1.5774179
1.6243762
1.6189195
1.6164948
1.6213825
1.6076345
1.602294
1.6000071
1.6047901
1.6014305
1.6037058
1.6083638
1.606096
1.6247144
1.6189004
1.6167365
1.6216506
1.5739735
1.5756871
1.579729
1.5781536
1.5938821
1.5886019
1.5871254
1.591626
1.5947499
1.5895813
1.5878008
1.5921488
1.5739946
1.5757499
1.5798421
1.5780487
1.6020092
1.6045819
1.6092971
1.606641
1.6092825
1.6036833
1.6016086
1.6064702
1.625584
1.6198717
1.6173633
1.6223803
1.625613
1.6198315
1.6172305
1.6221014
1.5748531
1.5763822
1.5805493
1.578966
1.5738841
1.5759371
1.5799777
1.5780452
1.5940729
1.5888306
1.586944
1.591421
1.6093212
1.6037882
1.6012765
1.6060967
1.5201485
1.5200204
1.5203298
1.5201597
1.5188726
1.5190918
1.5202644
1.5202772
1.5204259
1.5204432
1.5251787
1.5251472
1.5268796
1.5269097
1.5272955
1.5253271
1.5252123
1.526995
1.5296628
1.5299943
1.5321895
1.5319039
1.5295155
1.5294769
1.531683
1.5316964
1.5250997
1.5252234
1.5269763
1.5268037
1.524987
1.5249543
1.526697
1.5266481
1.5292516
1.5293648
1.5315304
1.5313649
1.5293895
1.5296156
1.5318092
1.5315416
1.5221184
1.5230641
1.521857
1.5231766
1.519886
1.5205849
1.5201146
1.5208438
1.5210464
1.5202227
1.5209673
1.5202608
1.523363
1.5221726
1.5222351
1.5232956
1.5203546
1.5210717
1.5211487
1.5203846
1.5203402
1.5210746
1.5211175
1.5203528
1.5234542
1.5222616
1.5222883
1.5233742
1.5233533
1.5222043
1.5223092
1.5233729
1.5352481
1.53526
1.5379376
1.5378202
1.5355231
1.5358077
1.5384201
1.5381383
1.5464734
1.5430245
1.5427212
1.5456883
1.5460345
1.5425343
1.5423467
1.5452906
1.5350871
1.5354043
1.5380488
1.5376591
1.5380655
1.5351262
1.5349086
1.5374484
1.5460626
1.54268
1.5420071
1.5449681
1.546129
1.5426496
1.5422023
1.545172
1.5555358
1.5517105
1.5505868
1.5539852
1.5508014
1.5518074
1.5552583
1.5542042
1.5664949
1.5620166
1.5608917
1.5646745
1.5663759
1.5621869
1.5606691
1.5644124
1.5671088
1.5626267
1.5615994
1.5653636
1.556048
1.5521287
1.5513247
1.5547361
1.5508894
1.5517149
1.5551982
1.5542651
1.5671007
1.5627779
1.5614861
1.5652841
1.5205947
1.5203899
1.5203957
1.5205756
1.5206123
1.5204062
1.5204129
1.5205953
1.5192434
1.5192265
1.5188624
1.51909
1.5192254
1.5192418
1.5363483
1.5361995
1.5388518
1.5388908
1.5354797
1.5356688
1.5383047
1.5380671
1.546475
1.5429319
1.5426452
1.5456617
1.5469756
1.5435044
1.5435191
1.5464151
1.5353366
1.5356123
1.5382967
1.5379483
1.5386533
1.5357401
1.5355307
1.5380964
1.5465188
1.5429623
1.542542
1.5455845
1.5466293
1.5432522
1.5426721
1.5456369
1.5561917
1.5522786
1.5512719
1.5546899
1.5673262
1.5629582
1.5614297
1.5652295
1.5676717
1.5632154
1.5622634
1.5660867
1.5512949
1.5522605
1.5557635
1.5547808
1.5520962
1.5527189
1.5562053
1.5554508
1.5562323
1.5521996
1.5513336
1.5548248
1.567532
1.5630802
1.5616327
1.5654954
1.567444
1.5629832
1.5621795
1.5659219
1.530231
1.5300519
1.5322312
1.5323628
1.5271159
1.5252522
1.5252215
1.5269167
1.5271919
1.5252879
1.5256205
1.5273383
1.5294707
1.5296748
1.5318007
1.5316201
1.5251254
1.5252213
1.5269305
1.5268101
1.5271497
1.5252669
1.5252173
1.52692
1.5294979
1.5297449
1.5318681
1.5316546
1.5293377
1.5295051
1.5316963
1.5314889
1.5213618
1.520541
1.5212726
1.5205742
1.5205486
1.5205583
1.5212466
1.5212539
1.5234825
1.5223477
1.5223994
1.5234554
1.5224462
1.523507
1.5237579
1.5225701
1.5205128
1.5212122
1.5212424
1.5204935
1.5205109
1.5212142
1.5212485
1.5204992
1.5234726
1.5223337
1.522391
1.5234403
1.5223634
1.5234497
1.5223238
1.523388
1.519103
1.5188968
1.5188965
1.5190961
1.5192353
1.5192488
1.5192446
1.5192303
1.5193817
1.5193897
1.5193864
1.5193765
1.5193708
1.5193817
1.5193723
1.5193828
1.5205756
1.5205829
1.5205881
1.520592
1.5207457
1.5207517
1.5207564
1.5207611
1.5257769
1.5255364
1.5273028
1.5275506
1.530255
1.5299506
1.5321877
1.5324428
1.5226155
1.5237012
1.5238721
1.5226515
1.5213814
1.5206332
1.5213572
1.5206195
1.521378
1.5206431
1.5213472
1.5206213
1.5224892
1.5235626
1.5236971
1.5225319
1.5206284
1.5206422
1.5213308
1.521343
1.5224712
1.5210807
1.5224648
1.5224866
1.5230999
1.5230269
1.5205395
1.5206462
1.5202282
1.5201495
1.550206
1.5276101
1.5457609
1.5431064
1.5474098
1.5276453
1.5232521
1.5242685
1.524528
1.5235293
1.5481633
1.5494993
1.5553952
1.5506956
1.5274332
1.5495868
1.5541486
1.5266883
1.5586253
1.5287266
1.527012
1.5363576
1.5355744
1.5253387
1.5256886
1.5232517
1.5233954
1.5235195
1.5251514
1.5250045
1.5237044
1.5237846
1.5245436
1.5261581
1.5254421
1.5942181
1.573839
1.5318958
1.5946791
1.5748031
1.5319161
1.5229428
1.5230173
1.5212728
1.5209893
1.5194206
1.5196907
1.521197
1.5289657
1.5289281
1.5213622
1.5197148
1.5211891
1.5211322
1.5195502
1.5288633
1.5289836
1.6115171
1.5915037
1.5721258
1.5319478
1.61077
1.5903469
1.5707672
1.5320452
1.5207357
1.5216897
1.521184
1.5206153
1.5202393
1.5209357
1.5244729
1.525126
1.5214236
1.5663528
1.5655908
1.5644196
1.5652636
1.5747158
1.5745935
1.6027451
1.5821405
1.5626132
1.6026947
1.581146
1.5616775
1.599573
1.5779665
1.5883449
1.5919574
1.5921867
1.5890381
1.5922688
1.5934661
1.589096
1.5889908
1.6840592
1.6795121
1.683833
1.6867042
1.6894189
1.6986317
1.694895
1.6872584
1.6831463
1.6866704
1.5384058
1.5380253
1.5932374
1.5888491
1.587962
1.5909789
1.5889949
1.5924704
1.5913251
1.5882427
1.5395854
1.5386489
1.5203474
1.5204875
1.5195327
1.5164636
1.5164716
1.516536
1.5165138
1.5184648
1.5166686
1.5165009
1.5164887
1.5166525
1.5227407
1.5188863
1.5199274
1.5190994
1.519383
1.5202984
1.522675
1.5218288
1.5218007
1.5221135
1.5219243
1.5220936
1.522078
1.5219007
1.521889
1.5226547
1.5226711
1.5230921
1.5230694
1.5225658
1.5226126
1.5230298
1.5229759
1.5226166
1.5226389
1.5230531
1.5230256
1.5245124
1.5236861
1.5236477
1.5243922
1.524472
1.5236589
1.5235935
1.5243284
1.5190229
1.5186314
1.5190282
1.5186303
1.5212671
1.5211985
1.5211409
1.5211383
1.5213832
1.5215508
1.5214879
1.5213276
1.5212767
1.5212809
1.5214193
1.521418
1.5213676
1.5212236
1.5212179
1.5213561
1.5213563
1.5212116
1.5212086
1.5213458
1.5211155
1.5211226
1.5212655
1.5212638
1.5212704
1.5211119
1.5211096
1.521258
1.5210209
1.5210182
1.5210345
1.521042
1.5212032
1.5211995
1.5211404
1.5209482
1.5208924
1.5210402
1.520925
1.520855
1.5182935
1.5183728
1.5183751
1.5183017
1.5251929
1.5230427
1.5226222
1.52461
1.5217878
1.5211587
1.5209382
1.521447
1.5208197
1.5208303
1.521288
1.5212853
1.5242246
1.5223066
1.5223142
1.5241212
1.5268988
1.5269171
1.5271588
1.5207027
1.5207035
1.521169
1.5211766
1.5207194
1.52073
1.5211846
1.5211737
1.5221963
1.5221952
1.5239752
1.5239907
1.5241699
1.5222112
1.5222098
1.5240066
1.5242921
1.5222693
1.5222013
1.5241079
1.5211217
1.5206059
1.5205905
1.52106
1.5205879
1.5206032
1.5210544
1.5210527
1.5239967
1.5220728
1.522079
1.5238596
1.5271719
1.5269659
1.5265569
1.5267676
1.5306355
1.530325
1.5366181
1.5361443
1.5426865
1.5310878
1.5269402
1.5268239
1.5306976
1.5267294
1.5270272
1.5309534
1.530576
1.5430505
1.536107
1.5356279
1.5419902
1.5210649
1.5205502
1.5205399
1.5210064
1.5203956
1.5204985
1.5209948
1.5209028
1.5220543
1.5221339
1.5239889
1.5238856
1.5240381
1.5220622
1.5219681
1.5238008
1.5683016
1.5698603
1.5740208
1.5723849
1.5690739
1.5711562
1.5753305
1.5733702
1.5829102
1.5811467
1.5181015
1.5180356
1.5180304
1.518071
1.5175657
1.5175789
1.518206
1.5181928
1.5175798
1.5182001
1.5175989
1.51823
1.5203149
1.5192434
1.5191825
1.5201471
1.5192046
1.520186
1.5192232
1.5201968
1.5183796
1.5183021
1.5181458
1.5181869
1.5176561
1.5183096
1.5176561
1.5182947
1.5178627
1.5185479
1.5184561
1.5177641
1.5208491
1.5196824
1.5195271
1.5205712
1.5193318
1.5205061
1.5193817
1.5203245
1.5218132
1.5220938
1.5237731
1.5234212
1.5242798
1.5224559
1.5220959
1.5237228
1.5261324
1.526788
1.5288025
1.528191
1.5258074
1.5262786
1.5283915
1.5278667
1.5256685
1.5262177
1.5282303
1.5276974
1.5235689
1.521816
1.5215909
1.5231486
1.5216401
1.5216592
1.5232354
1.5231709
1.5254545
1.525559
1.5275785
1.527422
1.5166963
1.5165389
1.5426271
1.5395451
1.5385985
1.5414204
1.5348347
1.5321424
1.531491
1.5339152
1.5311727
1.531799
1.5342914
1.5336484
1.5419868
1.5386656
1.5379407
1.540818
1.5306104
1.5308194
1.533296
1.5330177
1.5309476
1.5315401
1.5339487
1.5334054
1.5415043
1.5382317
1.5376515
1.5405398
1.540859
1.5375414
1.537206
1.5400567
1.5461958
1.5474657
1.5508319
1.5495456
1.5515254
1.5479409
1.5467478
1.5500037
1.5618577
1.5578415
1.5563717
1.5599992
1.5616894
1.5573594
1.5560168
1.5597704
1.5621428
1.5579171
1.556415
1.560224
1.5507386
1.5468968
1.5458813
1.5492645
1.545369
1.5462142
1.5495934
1.5487044
1.5605255
1.5560845
1.5551402
1.5589014
1.5429555
1.5396114
1.5397319
1.5426116
1.5347678
1.5319651
1.5323786
1.5348409
1.5431433
1.5397673
1.5391362
1.5420626
1.5318021
1.5323181
1.5348689
1.5343079
1.564139
1.5597876
1.5590467
1.562872
1.5524451
1.5485206
1.5482059
1.5516088
1.5476042
1.548751
1.5521751
1.5510295
1.5633813
1.5588855
1.55767
1.5615131
1.5315008
1.5315576
1.5340422
1.533931
1.5315102
1.5317284
1.5342345
1.5339803
1.5420285
1.5386203
1.5383063
1.5412123
1.5416799
1.5383716
1.5382498
1.541078
1.5464736
1.5471139
1.5504787
1.5497503
1.5515108
1.547549
1.5466284
1.5500471
1.5625679
1.5581702
1.5566353
1.5604915
1.5613808
1.5570031
1.5562322
1.5599017
1.5265274
1.5262822
1.5283043
1.528607
1.5236452
1.5218879
1.5220931
1.5237688
1.5260534
1.5264105
1.5285262
1.528108
1.521837
1.5219992
1.5236691
1.5234296
1.5179063
1.517912
1.517956
1.5179456
1.5193211
1.519258
1.5202497
1.5203566
1.5181772
1.5175141
1.5181506
1.5174936
1.5181682
1.5175072
1.5181361
1.5175032
1.5202793
1.5191765
1.5192073
1.5202047
1.5179536
1.5178933
1.5178949
1.5179347
1.5164544
1.5164457
1.5192791
1.5203509
1.5192499
1.5203165
1.5175048
1.5175209
1.5181528
1.5181396
1.5182482
1.5175077
1.5181584
1.5175359
1.5203478
1.5192337
1.5193522
1.5203775
1.5219102
1.5218897
1.5235031
1.5235016
1.5236317
1.5218808
1.5218556
1.523462
1.5258573
1.5260452
1.5280761
1.5278907
1.525887
1.5259029
1.5279361
1.5278934
1.5164542
1.5164454
1.5167026
1.516539
1.5178949
1.5178251
1.5178212
1.5178697
1.5178838
1.5178164
1.5178203
1.5178692
1.5164459
1.5164465
1.5221471
1.5220518
1.5236946
1.523795
1.5238744
1.5220924
1.5220459
1.523658
1.5260905
1.5263359
1.528398
1.5281709
1.5262747
1.526133
1.528221
1.5283452
1.5219604
1.5220999
1.5237673
1.5235801
1.5240878
1.5222855
1.522025
1.5236378
1.5260666
1.5266041
1.5286066
1.5281178
1.5259997
1.5262475
1.5283527
1.528083
1.520529
1.519389
1.5193336
1.5203494
1.5175194
1.5175335
1.5182046
1.5181808
1.5182214
1.517502
1.5181654
1.5175177
1.5203752
1.5192541
1.5192954
1.5203049
1.5204082
1.5193083
1.5193517
1.5203751
1.5175222
1.5181794
1.5182079
1.517511
1.5182566
1.5175325
1.5181961
1.5175388
1.5203585
1.5192609
1.5193765
1.5204228
1.5317218
1.5315824
1.5341241
1.5341658
1.5315421
1.5317805
1.5343199
1.5340684
1.5421421
1.5387264
1.5384543
1.5414147
1.5418366
1.5384802
1.538492
1.5413143
1.5314463
1.5317595
1.5343101
1.533961
1.5347322
1.5319825
1.531453
1.5339207
1.542339
1.5391089
1.5382527
1.5411386
1.5420686
1.5387076
1.5383295
1.5412482
1.5467132
1.5475632
1.5509701
1.5500694
1.5515215
1.5477741
1.5465401
1.549894
1.5622274
1.5580334
1.5564092
1.5601522
1.5618854
1.557518
1.5566066
1.5603293
1.5630811
1.5587978
1.5576406
1.5614746
1.5515604
1.5476386
1.5469047
1.5503422
1.546714
1.5472803
1.5506641
1.5499861
1.5616428
1.5572218
1.5564629
1.5601408
1.5336604
1.5335679
1.5361027
1.5361436
1.5328354
1.533005
1.5355609
1.53538
1.5434533
1.5400629
1.5398768
1.5427934
1.5439288
1.540626
1.5406882
1.5434734
1.5322799
1.5322985
1.5348855
1.5347875
1.5351923
1.5323784
1.5321333
1.534639
1.542901
1.5396321
1.5390828
1.5419991
1.5427673
1.5393658
1.5392349
1.5421204
1.5635684
1.5593936
1.5581674
1.5618965
1.552185
1.5483795
1.5475081
1.5508807
1.5476163
1.5483016
1.5516814
1.5509304
1.562681
1.558288
1.55748
1.5611761
1.5642292
1.5600362
1.5589573
1.562694
1.5528289
1.5489764
1.5483084
1.5516811
1.5489807
1.5494464
1.5527131
1.5521694
1.5635579
1.5592596
1.5586655
1.5622203
1.5179459
1.5178856
1.5178914
1.5179318
1.5180092
1.5179567
1.5180026
1.5180719
1.5165452
1.5166225
1.524769
1.5227682
1.5230563
1.5248304
1.5244492
1.5225778
1.5225541
1.5242628
1.5268471
1.5270414
1.5291636
1.528993
1.5275375
1.5274792
1.5296521
1.529704
1.5222468
1.5222595
1.5239236
1.5239082
1.5241134
1.5223108
1.5222495
1.523868
1.5263352
1.5266092
1.5286549
1.5284076
1.5264096
1.5264128
1.5285287
1.5285149
1.5205771
1.519448
1.5194988
1.5205446
1.5175996
1.5182755
1.5183096
1.5175909
1.5176035
1.5182771
1.5183252
1.517592
1.5194641
1.520527
1.519385
1.5205193
1.5207771
1.5195958
1.5196746
1.5207572
1.517683
1.5177217
1.5183772
1.5184341
1.5177678
1.5185158
1.5187434
1.5179162
1.5200164
1.5197494
1.5208896
1.5211469
1.5165439
1.5166178
1.516446
1.5164452
1.516544
1.5166957
1.5166862
1.5165415
1.5164529
1.5164607
1.5164566
1.516449
1.5164512
1.5164495
1.5164466
1.5164469
1.5165417
1.5166083
1.5165957
1.516537
1.5890993
1.5840098
1.5815415
1.586072
1.5745209
1.5698309
1.5677713
1.5719361
1.5679922
1.5695114
1.5736338
1.5720853
1.5876508
1.5823378
1.5807773
1.5852238
1.5677737
1.5693641
1.5735891
1.5718653
1.5693296
1.5707661
1.5748498
1.5735215
1.5887966
1.5835507
1.5824101
1.5868934
1.5875865
1.5823157
1.5805365
1.5849711
1.594712
1.5973356
1.6021818
1.5995027
1.6042786
1.5985721
1.5967953
1.6016464
1.5697785
1.5712145
1.5753104
1.5737489
1.5704843
1.5719008
1.5759404
1.5746051
1.5892107
1.5839767
1.5822929
1.5866665
1.5897844
1.5845856
1.5834032
1.5878542
1.5688518
1.5704045
1.574576
1.572944
1.5696878
1.571206
1.5751698
1.5737787
1.5885874
1.5833193
1.5816352
1.5860678
1.5888715
1.5837512
1.5825598
1.5869604
1.6038686
1.5983794
1.5967191
1.6014685
1.5958103
1.5982283
1.6029438
1.6005721
1.6195287
1.6135707
1.6111856
1.616219
1.6217951
1.6162149
1.6142853
1.6192687
1.60482
1.5993164
1.5976507
1.602463
1.5962348
1.5987967
1.6035193
1.6009796
1.620029
1.614057
1.6114157
1.6164596
1.6313681
1.6192787
1.6175444
1.6290774
1.656799
1.6432421
1.6414011
1.6540877
1.6580817
1.6444278
1.643064
1.6556519
1.6181529
1.61958
1.6310055
1.6296276
1.716243
1.7006337
1.6971674
1.711848
1.6849774
1.6700875
1.6675355
1.6812946
1.6690707
1.6712259
1.6847733
1.6826966
1.7151445
1.6991512
1.6968637
1.7113857
1.6198604
1.6207865
1.6321164
1.6314572
1.6581553
1.6444099
1.6438379
1.6566836
1.6590625
1.6454917
1.6436674
1.6560932
1.619009
1.6208061
1.6322145
1.6304108
1.6692651
1.6722814
1.6858045
1.6826254
1.6863723
1.6714751
1.6701791
1.6841343
1.7166762
1.7006606
1.6986917
1.7137596
1.7158147
1.6999166
1.6965493
1.710943
1.619984
1.6208576
1.6322789
1.6315749
1.6187795
1.6207064
1.6320079
1.630199
1.6575651
1.644093
1.6422608
1.6547387
1.6848438
1.6704959
1.6677393
1.6811182
1.5196385
1.5191283
1.5194374
1.5192588
1.5189432
1.5193617
1.519731
1.5197739
1.5193691
1.5191272
1.5189015
1.5191161
1.5192377
1.5192516
1.5192596
1.5192462
1.5194735
1.5198547
1.5198767
1.519475
1.5194897
1.5198699
1.5199037
1.5194941
1.5294008
1.5289669
1.5326207
1.5331448
1.5338116
1.5296057
1.5296283
1.5335848
1.5383349
1.5384119
1.5435274
1.543638
1.5376658
1.537033
1.542058
1.542762
1.5292097
1.5292245
1.5328398
1.5328362
1.5291109
1.5292737
1.5329621
1.5326893
1.5370363
1.5373587
1.5423313
1.5420232
1.5372232
1.5371661
1.5420842
1.5421991
1.5221934
1.5260847
1.5219954
1.5260997
1.5199645
1.5208262
1.5201587
1.5210172
1.5212209
1.5202729
1.5211653
1.5202946
1.5261557
1.5222701
1.5223081
1.5261396
1.5204217
1.5212631
1.5213012
1.5204152
1.5204041
1.5212998
1.5212918
1.5203815
1.5263342
1.5223794
1.5223614
1.5263092
1.5259646
1.5222645
1.5223708
1.5262183
1.5485552
1.5478399
1.5541624
1.5547763
1.5496084
1.549283
1.5555078
1.5559489
1.5705252
1.5624047
1.5628909
1.5703539
1.5693764
1.5611515
1.5616511
1.5690646
1.5479052
1.547722
1.5539365
1.55414
1.5547852
1.5479688
1.5476651
1.5539097
1.5697231
1.5616511
1.5608251
1.5683486
1.5690712
1.5608547
1.5610577
1.5685923
1.5873033
1.5778429
1.576641
1.5855522
1.5770035
1.577412
1.5863337
1.5859172
1.6074106
1.5961689
1.5956542
1.6059139
1.6075414
1.5967457
1.5952532
1.6054444
1.6087138
1.597468
1.5966594
1.6068787
1.58825
1.5786977
1.5786077
1.5875014
1.5773308
1.5777543
1.5867145
1.5861093
1.6087823
1.5978198
1.597236
1.6075338
1.5196417
1.5200264
1.5196445
1.5200315
1.5193825
1.5193896
1.5200355
1.5196371
1.5196362
1.5200231
1.520084
1.519671
1.5200585
1.5196693
1.5194067
1.5194119
1.5200855
1.5196657
1.5196688
1.5200517
1.5194042
1.5193985
1.519381
1.5193708
1.5191084
1.5189217
1.5191083
1.5189188
1.5192423
1.5192294
1.5192286
1.5192403
1.5193691
1.5193611
1.5193602
1.5193678
1.5193858
1.51939
1.519384
1.5193882
1.5501476
1.5491831
1.555409
1.5564355
1.5484276
1.5475647
1.5536856
1.5545454
1.5688974
1.5606126
1.5613543
1.568761
1.5704541
1.5623096
1.563371
1.5708455
1.5478604
1.547862
1.5541458
1.5540718
1.5550669
1.5483824
1.5488421
1.5550803
1.569509
1.5611935
1.5610711
1.5686989
1.570045
1.5619446
1.562001
1.5694808
1.5878811
1.5782353
1.577736
1.5866592
1.6086842
1.5975814
1.5963644
1.6066199
1.6087001
1.5975423
1.5971463
1.6076173
1.577234
1.5778976
1.586882
1.5863026
1.5791419
1.5787578
1.5876834
1.5879552
1.5871126
1.5772715
1.5769876
1.585918
1.6082951
1.5970004
1.5956666
1.6060095
1.6083766
1.5973164
1.5975083
1.6076088
1.5386644
1.5379749
1.5429438
1.5437549
1.5326095
1.5288515
1.5292901
1.5329022
1.5332021
1.5292886
1.5299282
1.5337118
1.5372767
1.5367689
1.5415319
1.5422478
1.5290037
1.5288454
1.5323824
1.5325292
1.5330002
1.5290772
1.5293203
1.5330046
1.5374751
1.5373388
1.5422588
1.5425448
1.5367937
1.5366784
1.5416147
1.541668
1.5215956
1.5206185
1.5214909
1.520652
1.5206633
1.5205763
1.5214337
1.5213511
1.5259568
1.5223267
1.5224081
1.5262462
1.5225578
1.5262537
1.5266977
1.5226674
1.5205436
1.521364
1.5214394
1.5205665
1.5206011
1.5214089
1.5214064
1.5205306
1.5260699
1.5223542
1.522437
1.5262052
1.5224164
1.5259218
1.5223643
1.5260415
1.5192621
1.5190039
1.5189872
1.5192401
1.5194034
1.5194276
1.5193988
1.5193744
1.5195623
1.5195765
1.5195489
1.5195336
1.5195255
1.5195182
1.5195171
1.5195243
1.5195352
1.5195334
1.5195325
1.5195334
1.5195365
1.5195273
1.5195445
1.5195371
1.519547
1.5195441
1.5195525
1.5195543
1.519781
1.5201587
1.5197808
1.5201587
1.5201762
1.5197881
1.5197878
1.5201637
1.5201833
1.5197962
1.5201668
1.519793
1.520201
1.5198001
1.519803
1.5201697
1.5302556
1.5296897
1.5333627
1.534187
1.538888
1.5378149
1.54288
1.5441315
1.52274
1.526584
1.5268896
1.5227574
1.5215856
1.5207084
1.5215957
1.5206768
1.521572
1.520677
1.5215215
1.5206689
1.5225686
1.5262467
1.5264318
1.5226365
1.5206739
1.5206799
1.5215188
1.5215306
1.5225691
1.5224635
1.524352
1.5237402
1.5231951
1.5237582
1.5216789
1.5218474
1.5215198
1.5213644
1.5425272
1.5418346
1.5456239
1.5245546
1.5463422
1.5244941
1.5215833
1.5216676
1.5206706
1.5205763
1.5544079
1.5595797
1.5294116
1.5535834