/*--------------------------------*- C++ -*----------------------------------*\
  =========                 |
  \\      /  F ield         | OpenFOAM: The Open Source CFD Toolbox
   \\    /   O peration     | Website:  https://openfoam.org
    \\  /    A nd           | Version:  7
     \\/     M anipulation  |
\*---------------------------------------------------------------------------*/
FoamFile
{
    version     2.0;
    format      ascii;
    class       volScalarField;
    location    "6000";
    object      nut;
}
// * * * * * * * * * * * * * * * * * * * * * * * * * * * * * * * * * * * * * //

dimensions      [0 2 -1 0 0 0 0];

internalField   nonuniform List<scalar> 
34356
(
3.966648e-35
1.9703684e-34
1.6808812e-35
1.7294418e-35
5.3247755e-36
4.5606324e-36
2.0766415e-36
1.5832402e-36
1.566409e-36
3.1612269e-36
7.4140784e-35
3.3377201e-36
7.9732346e-35
8.0484608e-36
7.2852731e-36
3.2990847e-36
3.773066e-36
7.8224367e-36
3.8586599e-36
7.7710427e-36
4.426009e-36
1.1367129e-36
7.0046539e-37
7.1430583e-37
1.1324882e-36
2.1082793e-36
1.5862681e-36
1.5303725e-36
1.4635418e-36
1.6677486e-36
4.4246988e-37
3.8519523e-37
9.0084721e-37
6.9462201e-37
2.3576064e-36
2.3060368e-36
2.2728138e-36
2.2974765e-36
5.9009262e-36
1.1306798e-36
1.1730758e-36
5.004187e-36
4.6685007e-36
3.393693e-35
4.7770116e-36
3.7279825e-35
1.2217721e-36
1.4098895e-36
5.1817402e-36
6.1647842e-36
5.2086841e-36
4.9044271e-36
3.781393e-35
3.62568e-35
2.2817093e-36
2.9899536e-36
3.2484691e-36
2.6307851e-36
2.8965988e-36
2.2835851e-36
2.8085186e-36
1.994464e-36
3.0583054e-36
2.9638678e-36
2.3413784e-36
2.1224635e-36
2.268232e-36
2.7542676e-36
3.177633e-36
2.4901575e-36
1.4503647e-36
1.5251687e-36
1.3247292e-36
1.3804654e-36
9.2551692e-37
7.9297167e-37
7.5051703e-37
9.0817708e-37
3.7551881e-37
8.9834013e-37
7.6870633e-37
7.3078542e-37
8.45239e-37
4.0454892e-37
1.5221258e-36
1.4731573e-36
1.342206e-36
1.2497001e-36
4.1105316e-37
4.1964508e-37
1.766767e-36
1.5362373e-36
1.4566316e-36
1.355291e-36
9.5570569e-37
7.8548982e-37
2.5212435e-37
2.8236246e-37
2.291596e-37
2.5569912e-37
2.9522279e-37
3.2305948e-37
3.3599316e-37
3.5443357e-37
3.502998e-37
6.7934063e-37
8.1225331e-37
7.8987511e-37
6.7879821e-37
6.2618418e-37
5.3163995e-37
5.6484193e-37
5.642284e-37
1.4621367e-36
1.360695e-36
1.4501424e-36
1.5148939e-36
1.4398096e-36
1.405565e-36
1.4359474e-36
1.5250828e-36
1.0114376e-36
9.5661661e-37
2.0150585e-36
1.4507814e-36
1.4703383e-36
2.0045953e-36
2.9167454e-36
2.2311795e-36
2.2616711e-36
2.9724355e-36
3.7825888e-36
1.3009232e-35
1.4817522e-35
4.0613325e-36
2.8584151e-36
2.1133802e-36
2.1661828e-36
2.9622792e-36
4.1184629e-36
3.9717973e-36
1.4841791e-35
1.4831421e-35
1.4508467e-36
1.4714704e-36
1.961111e-36
2.092681e-36
2.2204648e-36
2.2393709e-36
3.0143422e-36
2.9618432e-36
2.8643118e-36
2.1541892e-36
2.1329987e-36
2.8675086e-36
4.1417482e-36
3.9653634e-36
1.3545168e-35
1.4348913e-35
4.0132142e-36
1.471299e-35
3.719577e-36
1.3209752e-35
1.146185e-36
1.247579e-36
1.0449023e-36
1.025511e-36
1.0812e-36
1.2633014e-36
1.2747969e-36
1.1006464e-36
1.0057036e-36
1.1650183e-36
1.231932e-36
1.0149513e-36
1.1590955e-36
1.09776e-36
9.8828973e-37
9.242961e-37
1.2960545e-36
1.2406133e-36
1.0953668e-36
1.0886464e-36
1.0734394e-36
1.2374504e-36
1.1868841e-36
1.0028619e-36
1.0416285e-36
1.1270992e-36
1.0050893e-36
9.9549918e-37
1.2187012e-36
1.2845341e-36
1.0951193e-36
1.1326677e-36
3.6314301e-37
2.9347513e-37
1.1625829e-36
1.3428555e-36
1.2332682e-36
1.253935e-36
1.2553254e-36
1.2840005e-36
1.1604316e-36
1.1615431e-36
9.8685997e-37
9.9800424e-37
1.0048775e-36
9.7504074e-37
9.2715367e-37
1.0377843e-36
9.6805189e-37
1.0111456e-36
6.8942022e-37
8.0160011e-37
7.5823402e-37
7.2369714e-37
7.0233603e-37
6.5413446e-37
5.9792043e-37
6.4647451e-37
4.1848132e-37
6.0795877e-37
6.0665862e-37
6.0330511e-37
3.7480822e-37
6.1726547e-37
7.2913699e-37
7.2945091e-37
6.96258e-37
7.0731225e-37
3.5485525e-37
3.8105485e-37
7.0282189e-37
7.6506596e-37
7.4799403e-37
7.0765408e-37
6.1658356e-37
5.7855219e-37
6.4597075e-37
6.2007939e-37
4.0465969e-37
5.6808357e-37
5.6795104e-37
5.6292081e-37
3.8376403e-37
5.5589032e-37
6.7588002e-37
6.5845329e-37
6.859968e-37
6.558246e-37
3.6845182e-37
3.7414539e-37
1.2213217e-36
1.2263912e-36
1.253566e-36
1.1478105e-36
1.2091563e-36
1.3360653e-36
1.2900098e-36
1.2302456e-36
9.2097477e-37
9.8235187e-37
1.003295e-36
9.8204774e-37
9.3812302e-37
9.4144672e-37
9.038968e-37
9.3077528e-37
7.8155775e-37
2.4243232e-37
9.0186983e-37
2.5176192e-37
2.7617977e-37
2.3369254e-37
2.5353668e-37
2.9402717e-37
2.8348931e-37
2.3176941e-37
2.5612182e-37
3.049791e-37
6.4336661e-37
5.1595017e-37
6.8090959e-37
5.8252084e-37
7.1916449e-37
6.2257076e-37
1.9032362e-37
1.1926783e-37
1.2437327e-37
1.9095395e-37
2.0188551e-37
1.1221464e-37
1.3840325e-37
1.4078631e-37
1.097584e-37
1.5794747e-37
1.5903696e-37
1.4380191e-37
1.5081375e-37
1.745029e-37
1.7188534e-37
1.371616e-37
1.3130287e-37
1.3801463e-37
1.1132134e-37
1.0626517e-37
2.5008486e-37
3.0841111e-37
3.012131e-37
2.9583581e-37
3.0756257e-37
3.2794044e-37
3.2645117e-37
3.6555933e-37
4.2491039e-37
4.364499e-37
3.7816222e-37
3.9703838e-37
4.0331619e-37
4.025905e-37
3.8298413e-37
3.9527809e-37
6.7736242e-37
5.5268644e-37
7.2363104e-37
5.901565e-37
6.7659722e-37
6.9605465e-37
6.0693582e-37
6.3603741e-37
5.8205825e-37
6.8489765e-37
6.2822958e-37
7.049998e-37
5.2338969e-37
4.9207275e-37
5.7002374e-37
5.0965036e-37
5.0337025e-37
4.6441065e-37
5.5961258e-37
5.0488594e-37
3.7992861e-37
4.167614e-37
4.1220124e-37
4.4908754e-37
4.0191643e-37
4.1986704e-37
4.6835916e-37
4.649282e-37
4.1716546e-37
4.3412957e-37
4.7406515e-37
4.8401658e-37
5.4796355e-37
7.34192e-37
7.3487054e-37
6.7666008e-37
7.126746e-37
7.4593979e-37
7.6040811e-37
7.8437022e-37
7.8348492e-37
7.7267228e-37
8.0155476e-37
7.2569064e-37
7.6761581e-37
7.1986824e-37
7.1843609e-37
7.8756641e-37
8.0834048e-37
9.4149286e-37
9.3661893e-37
4.2395999e-36
2.3490668e-36
2.2825917e-36
1.3144334e-36
1.5455385e-36
3.8760265e-36
2.3823351e-36
2.434196e-36
1.4557713e-36
1.408423e-36
1.8659085e-36
1.9061612e-36
1.4449009e-36
1.5097709e-36
1.4590593e-36
3.0932707e-36
1.6243351e-36
3.2295822e-36
1.6463192e-36
3.2056746e-36
1.6215564e-36
3.3544802e-36
1.9747665e-36
1.8388876e-36
1.5262366e-36
1.5576447e-36
1.4200571e-36
1.3803847e-36
1.9383541e-36
1.8143326e-36
1.4929658e-36
1.5254704e-36
1.9039937e-36
1.8547548e-36
1.5065826e-36
1.4618221e-36
1.6013281e-36
1.5997339e-36
3.3399692e-36
3.1846724e-36
3.3343276e-36
3.2859836e-36
1.6415835e-36
1.4808426e-36
1.2864859e-36
1.590227e-36
3.6573886e-36
2.2964112e-36
2.2872058e-36
5.1122148e-36
2.4115989e-36
2.3618342e-36
1.406704e-36
1.4698749e-36
1.4262964e-36
1.3606254e-36
3.7774674e-36
1.5424748e-36
1.996024e-36
1.8721042e-36
1.5549648e-36
1.9211728e-36
1.8853217e-36
1.5203981e-36
1.4543801e-36
1.554249e-36
2.844083e-36
1.6061922e-36
3.0311873e-36
1.6282768e-36
3.1557227e-36
3.2401699e-36
1.4613601e-36
1.8141499e-36
1.9407932e-36
1.4991239e-36
1.5265007e-36
1.6002584e-36
3.2040586e-36
1.5968293e-36
3.4023001e-36
1.8654629e-36
1.8150303e-36
1.481409e-36
1.4390985e-36
1.6138652e-36
1.4596327e-36
3.2814812e-36
3.1785946e-36
1.0107788e-36
9.7071361e-37
3.2805389e-37
3.3023869e-37
1.0510887e-36
1.0805312e-36
3.3418828e-37
3.3532134e-37
9.9406421e-37
3.2764137e-37
1.1260706e-36
3.4699553e-37
3.502337e-37
1.1939099e-36
1.1102655e-36
3.449535e-37
1.0291485e-36
9.811755e-37
3.1612194e-37
3.2419393e-37
1.0523478e-36
1.0650695e-36
3.202824e-37
3.2097058e-37
9.5648553e-37
1.0121368e-36
3.0697714e-37
3.1428844e-37
1.0279251e-36
9.2279747e-37
3.0529493e-37
2.9736661e-37
1.0952729e-36
1.1376692e-36
3.426109e-37
3.4082863e-37
1.0474917e-36
9.8352428e-37
3.5741985e-37
3.5274909e-37
9.752082e-37
1.0862395e-36
3.2828018e-37
3.3935764e-37
1.0048257e-36
1.1076211e-36
3.2917931e-37
3.250847e-37
8.5401919e-37
8.7855465e-37
3.1088753e-37
3.1100664e-37
3.0560979e-37
9.2921992e-37
8.7463801e-37
3.016081e-37
1.0419014e-36
8.8173049e-37
3.1962453e-37
3.4043371e-37
1.1285493e-36
1.1517012e-36
3.5875739e-37
3.5591585e-37
7.2730218e-37
2.3828251e-37
2.8130253e-37
3.2202004e-37
2.4977691e-37
2.5136074e-37
2.223051e-37
2.8363736e-37
6.0061331e-37
3.6626463e-37
6.0372478e-37
7.0906688e-37
3.3656972e-37
2.4203355e-37
7.2379419e-37
8.7746291e-37
2.3682939e-37
2.5551278e-37
7.2543339e-37
5.3898188e-37
7.4232298e-37
5.548058e-37
7.5360485e-37
7.7086602e-37
6.8148635e-37
6.9965458e-37
6.6417474e-37
5.9736467e-37
6.8850829e-37
6.2250071e-37
7.992081e-37
5.9274342e-37
8.0768568e-37
6.200219e-37
7.1871523e-37
6.9545916e-37
6.3781181e-37
6.2111168e-37
7.3314829e-37
6.4616969e-37
7.256674e-37
6.4556236e-37
7.5464851e-37
7.1797321e-37
5.6564404e-37
5.5447129e-37
5.7272605e-37
7.6452249e-37
7.59792e-37
5.7421093e-37
7.1029078e-37
5.5795684e-37
7.1569138e-37
5.6185265e-37
7.2851977e-37
7.3641428e-37
6.2224713e-37
6.3264992e-37
7.1939961e-37
7.1226873e-37
6.0701925e-37
6.0530439e-37
6.8418399e-37
6.711681e-37
5.4142169e-37
5.3391864e-37
6.3643738e-37
5.07661e-37
6.723112e-37
5.3406787e-37
7.4171979e-37
7.6694798e-37
6.3441552e-37
6.5694408e-37
6.6328004e-37
5.6806431e-37
7.093462e-37
6.0698656e-37
7.1166356e-37
7.3426845e-37
5.7402738e-37
5.9534852e-37
6.6452032e-37
5.4446738e-37
7.2262772e-37
5.8856727e-37
6.889844e-37
7.1446878e-37
6.1776987e-37
6.4266143e-37
6.1185105e-37
5.5900438e-37
6.7250746e-37
6.1338436e-37
7.3214264e-37
7.5841489e-37
6.0205064e-37
6.2489567e-37
5.4359015e-37
5.0663643e-37
5.8359851e-37
5.3123201e-37
4.7546926e-37
4.492849e-37
5.442496e-37
5.0061728e-37
3.5832446e-37
4.1236647e-37
4.0095084e-37
4.4445572e-37
4.5036902e-37
4.09663e-37
4.4209741e-37
4.9656246e-37
4.8988032e-37
4.7031322e-37
5.0510328e-37
5.3735342e-37
3.8568361e-37
4.0602647e-37
4.4654225e-37
4.5123166e-37
4.4367841e-37
3.9387483e-37
4.1281323e-37
4.3028965e-37
4.5423389e-37
4.5201582e-37
5.1308743e-37
4.8047003e-37
5.367985e-37
4.9793524e-37
4.2479059e-37
4.5571974e-37
5.1055757e-37
4.7832518e-37
5.295025e-37
4.865605e-37
6.5995889e-37
5.9078663e-37
6.6166591e-37
5.9561198e-37
6.6445627e-37
6.004517e-37
6.7929183e-37
6.1649103e-37
7.1892659e-37
5.8965779e-37
7.3465621e-37
6.0380728e-37
7.1830455e-37
5.8831531e-37
7.137773e-37
5.905216e-37
3.3254289e-37
3.7824843e-37
3.3656064e-37
3.5463793e-37
4.7777381e-37
3.880815e-37
3.9296389e-37
4.6641932e-37
7.1075504e-37
5.777955e-37
7.5241182e-37
6.121296e-37
6.7724958e-37
7.0367735e-37
6.0817487e-37
6.3415851e-37
6.5648832e-37
5.9820316e-37
6.9715631e-37
6.3733221e-37
7.1981535e-37
7.4319102e-37
5.8993741e-37
6.1017458e-37
3.9766272e-37
4.3089416e-37
4.571276e-37
4.7676799e-37
4.5441611e-37
3.9201957e-37
4.2869255e-37
4.0380203e-37
4.6673395e-37
4.4024099e-37
5.1793021e-37
4.8850097e-37
5.5475368e-37
5.1385286e-37
5.0620395e-37
4.7752772e-37
5.5022267e-37
5.1241526e-37
5.1748609e-37
4.8231013e-37
3.6006211e-37
3.7298541e-37
4.006967e-37
4.2366167e-37
4.1815695e-37
3.7060919e-37
4.0678504e-37
3.9926019e-37
4.5342283e-37
4.2490134e-37
4.7958727e-37
4.4706839e-37
5.2565208e-37
4.8310799e-37
4.2421455e-37
4.4504415e-37
4.7671662e-37
4.4873893e-37
4.8612036e-37
4.4972454e-37
6.339447e-37
5.6719585e-37
6.2887919e-37
5.6708901e-37
6.7670198e-37
5.5105442e-37
7.1924943e-37
5.8282844e-37
6.277428e-37
5.6441119e-37
6.6916233e-37
6.0222611e-37
6.8397233e-37
5.5796862e-37
6.7267625e-37
5.5350212e-37
3.3982946e-37
3.6576156e-37
3.3810365e-37
3.6281925e-37
4.2724205e-37
3.512598e-37
3.5976138e-37
4.0885517e-37
7.4924051e-37
5.4507468e-37
7.6137035e-37
5.6087652e-37
6.7465895e-37
6.4780986e-37
5.9071018e-37
5.7792828e-37
6.903671e-37
6.1366483e-37
7.022317e-37
6.2886522e-37
7.1118346e-37
5.3353755e-37
6.7601633e-37
5.2506341e-37
7.556041e-37
5.5798485e-37
7.8402318e-37
5.8439241e-37
7.3465108e-37
6.5774214e-37
7.4369426e-37
6.6824077e-37
7.040755e-37
6.3007373e-37
7.2860887e-37
6.6094975e-37
7.8379175e-37
7.8278352e-37
5.8724198e-37
6.0470282e-37
6.7026294e-37
7.0261394e-37
5.3800638e-37
5.626087e-37
6.9718509e-37
5.9413138e-37
7.3221444e-37
6.2846765e-37
7.2081859e-37
7.4125542e-37
6.1375738e-37
6.3356001e-37
6.956428e-37
7.118627e-37
5.6141849e-37
5.7529125e-37
6.8264861e-37
6.690283e-37
5.7478616e-37
5.7038267e-37
6.7578988e-37
7.07245e-37
5.7308771e-37
5.9977432e-37
6.5022434e-37
5.1904833e-37
6.7578253e-37
5.3846106e-37
6.5277692e-37
6.3466102e-37
5.1695966e-37
5.0870176e-37
1.8034114e-37
2.1051323e-37
1.1891343e-37
1.2820799e-37
2.1214107e-37
1.8611359e-37
1.2331152e-37
1.2915501e-37
1.8611673e-37
2.0700606e-37
1.1818807e-37
1.4263734e-37
1.6192321e-37
1.180683e-37
1.8785162e-37
1.8859586e-37
1.6750663e-37
1.7287155e-37
1.8396988e-37
1.8487046e-37
1.7105887e-37
1.5660415e-37
1.5297088e-37
1.4937237e-37
1.1406984e-37
1.1583813e-37
1.6267147e-37
1.4440685e-37
1.1628767e-37
1.2107313e-37
1.7897266e-37
1.6412047e-37
1.6720987e-37
1.6705973e-37
1.8324164e-37
1.8815007e-37
1.6768541e-37
1.7324325e-37
1.4764784e-37
1.5077304e-37
1.1502216e-37
1.1959564e-37
2.6137549e-37
2.634477e-37
2.3880263e-37
2.3483489e-37
2.287979e-37
1.903177e-37
1.9470327e-37
2.3232705e-37
3.2555433e-37
3.2163708e-37
2.8797707e-37
2.9242666e-37
2.8583733e-37
2.8361427e-37
2.3465065e-37
2.3812569e-37
3.1535907e-37
3.4694817e-37
3.0786432e-37
3.4999224e-37
2.5434172e-37
3.0704056e-37
3.1208957e-37
2.5749382e-37
8.1981184e-38
8.707798e-38
5.211425e-38
5.5642437e-38
1.0101551e-37
9.7824605e-38
5.3808513e-38
8.929035e-38
9.4053498e-38
9.7421959e-38
8.5244943e-38
7.948528e-38
1.131004e-37
1.1154739e-37
1.25944e-37
1.2404586e-37
1.0380784e-37
1.5107251e-37
1.1340746e-37
1.0228535e-37
8.0208507e-38
8.0550522e-38
8.1469958e-38
7.8662932e-38
1.8244103e-37
2.0765043e-37
1.9487187e-37
1.722212e-37
1.6010158e-37
1.5368386e-37
1.5087691e-37
1.6478698e-37
1.4416134e-37
1.4755801e-37
1.533387e-37
1.5877157e-37
1.6949583e-37
1.739671e-37
1.7675272e-37
1.7065008e-37
1.7416354e-37
2.0437319e-37
1.8628744e-37
1.6550079e-37
1.826136e-37
1.4902256e-37
1.5025774e-37
1.648092e-37
1.5505842e-37
1.5819634e-37
1.4096142e-37
1.4585379e-37
1.5350884e-37
1.5265888e-37
1.6627545e-37
1.596382e-37
1.0609537e-37
1.0325949e-37
1.0531529e-37
1.1369737e-37
7.7117989e-38
8.8296137e-38
8.3116747e-38
7.942992e-38
7.9336162e-38
8.1173744e-38
2.208252e-37
1.7611713e-37
2.3514066e-37
2.3402331e-37
2.3017386e-37
2.3632255e-37
2.3521635e-37
2.2852315e-37
2.2711703e-37
2.4266988e-37
2.4264474e-37
2.7007912e-37
2.8085273e-37
2.4776477e-37
2.4835964e-37
2.7641695e-37
2.7637887e-37
2.4567249e-37
2.2222072e-37
2.1681729e-37
2.3888391e-37
2.4847885e-37
2.3125327e-37
2.3201686e-37
2.3473737e-37
2.4076445e-37
2.8545335e-37
2.5936362e-37
2.2562264e-37
2.5148092e-37
2.4981312e-37
2.7995254e-37
2.8403022e-37
2.5126617e-37
2.8231628e-37
2.9489275e-37
3.2469801e-37
3.0842553e-37
3.2547662e-37
3.1971161e-37
2.9725006e-37
3.1095409e-37
3.4172781e-37
3.1304528e-37
2.7498672e-37
3.037211e-37
3.0031166e-37
3.3637527e-37
3.4851183e-37
3.1140634e-37
3.1415275e-37
3.285443e-37
3.3330575e-37
3.1519385e-37
3.2281464e-37
3.2827313e-37
3.0744413e-37
3.1018395e-37
3.5533627e-37
3.5117315e-37
3.0273675e-37
3.1687747e-37
3.128184e-37
3.4906312e-37
3.4859762e-37
3.1355017e-37
3.7487442e-37
4.1878968e-37
3.6616739e-37
4.2502834e-37
3.6182906e-37
2.9675647e-37
2.9980768e-37
3.691282e-37
4.5864574e-37
4.0202094e-37
4.5552391e-37
3.9356913e-37
3.9342258e-37
3.2028366e-37
3.9968579e-37
3.2630061e-37
6.3323793e-37
5.1986429e-37
5.313646e-37
6.2623792e-37
6.4442909e-37
6.4475208e-37
5.3405167e-37
5.4011075e-37
3.9989907e-37
5.0091565e-37
3.9670597e-37
5.1141028e-37
4.9768253e-37
5.7076539e-37
4.7986007e-37
5.9195275e-37
4.6658543e-37
3.7193886e-37
3.7581889e-37
4.765448e-37
5.3787067e-37
6.2774493e-37
5.2049776e-37
6.3454061e-37
5.1097576e-37
4.0457195e-37
5.2064665e-37
4.0807227e-37
4.5127208e-37
3.9348264e-37
3.9803487e-37
4.5557344e-37
9.403257e-37
9.4858495e-37
7.4784524e-37
7.5913143e-37
7.4382699e-37
5.5602618e-37
5.6166981e-37
7.3874397e-37
9.3777142e-37
9.4337052e-37
7.6201955e-37
7.5529483e-37
7.5814318e-37
7.6055202e-37
5.7069292e-37
5.761975e-37
7.1986913e-37
8.5750836e-37
6.9060156e-37
8.7955498e-37
6.7514557e-37
5.1531445e-37
5.2652614e-37
6.9442238e-37
7.7936934e-37
9.3470505e-37
7.5049783e-37
9.5699413e-37
7.4713451e-37
5.6411751e-37
7.7987923e-37
5.740756e-37
1.3974751e-36
1.4208278e-36
9.9310731e-37
1.0108256e-36
1.1501333e-36
1.1886295e-36
1.6088976e-36
1.625318e-36
7.6702187e-37
8.5556423e-37
1.4592543e-36
1.4713838e-36
9.9666877e-37
1.0163038e-36
1.1447987e-36
1.1303168e-36
1.6302037e-36
1.574844e-36
8.4252652e-37
8.5912002e-37
1.5872373e-36
1.5735049e-36
1.1066471e-36
1.1259246e-36
1.2115621e-36
1.2482725e-36
1.71049e-36
1.7056334e-36
8.6082422e-37
9.0330149e-37
8.1027322e-37
9.6313122e-37
7.8195671e-37
9.8110729e-37
2.9975594e-37
3.1262338e-37
3.0525392e-37
3.0174909e-37
2.9619263e-37
2.843455e-37
2.9588331e-37
2.9707128e-37
3.1875681e-37
3.0987596e-37
3.1909868e-37
3.2792554e-37
3.1838918e-37
3.2853342e-37
3.2963133e-37
3.2658099e-37
3.2688294e-37
3.2200038e-37
3.4438847e-37
3.2610028e-37
3.150649e-37
3.0843838e-37
3.239475e-37
3.2115171e-37
2.9940632e-37
3.0055712e-37
2.9272134e-37
3.0126033e-37
3.1690801e-37
3.2090843e-37
3.3491649e-37
3.3902513e-37
9.0455162e-37
7.7789034e-37
1.269362e-36
1.02478e-36
6.8883988e-37
1.1297653e-36
1.0919015e-36
1.0737863e-36
1.0412217e-36
2.8864529e-36
1.2672455e-36
1.2433813e-36
1.1035384e-36
1.0708707e-36
3.989319e-36
1.3034001e-36
1.2860272e-36
1.4119618e-36
1.3562538e-36
1.3676181e-36
1.3488273e-36
1.2800581e-36
1.315259e-36
1.355394e-36
1.3919052e-36
1.3906183e-36
1.2958489e-36
1.2983348e-36
1.2636618e-36
1.3470126e-36
1.3894189e-36
6.6830689e-37
6.8299825e-37
7.1251925e-37
1.3688785e-36
1.416823e-36
7.105625e-37
3.3756438e-37
5.0850269e-37
4.8676125e-37
3.2139979e-37
5.0819876e-37
4.1017975e-37
3.9127431e-37
4.7276951e-37
5.1556939e-37
5.1273298e-37
3.5764037e-37
3.648946e-37
4.3128038e-37
4.3116187e-37
5.1226126e-37
5.1604987e-37
5.1130928e-37
5.0647533e-37
3.3709593e-37
3.4914667e-37
5.0894281e-37
4.2020513e-37
4.3148137e-37
5.218723e-37
5.1110829e-37
5.2989032e-37
3.6172424e-37
3.4636791e-37
4.1984963e-37
4.3532221e-37
5.3839298e-37
5.1048059e-37
1.4102603e-36
1.3618036e-36
6.9855245e-37
7.0672176e-37
7.0541006e-37
1.3982161e-36
1.4452178e-36
6.9295395e-37
1.3698727e-36
1.3255347e-36
1.3159985e-36
1.336161e-36
1.2571932e-36
1.2931888e-36
1.3098026e-36
1.3512281e-36
1.3497713e-36
1.2707696e-36
1.2862018e-36
1.2656061e-36
6.8882496e-37
1.3466409e-36
6.965123e-37
1.3934402e-36
1.3837644e-36
1.426255e-36
6.9102259e-37
6.8210891e-37
7.0573638e-37
1.3765595e-36
7.1361129e-37
1.430347e-36
1.3489022e-36
1.3809199e-36
6.7794026e-37
6.6431101e-37
3.1111751e-37
4.9111415e-37
4.9539242e-37
3.2821486e-37
4.9869913e-37
5.1353833e-37
3.2433707e-37
3.4703228e-37
4.3265744e-37
5.3587323e-37
5.0782704e-37
4.1331261e-37
4.9353053e-37
4.0027545e-37
4.1909893e-37
5.1183722e-37
4.4700407e-37
4.3781132e-37
5.3754863e-37
5.4404329e-37
5.4043556e-37
4.1503631e-37
4.0000939e-37
5.0682663e-37
5.1286492e-37
5.1051658e-37
3.4404903e-37
3.440776e-37
4.8504784e-37
5.0592334e-37
3.264472e-37
3.3373589e-37
1.4914251e-36
1.2558319e-36
4.529194e-36
1.0525475e-36
1.0344829e-36
3.477176e-36
1.2643516e-36
1.2233001e-36
1.1048696e-36
1.082467e-36
2.8319315e-36
1.310425e-36
1.2671912e-36
1.4385462e-36
1.33668e-36
1.4024254e-36
1.3793719e-36
1.3022125e-36
1.283913e-36
1.2715203e-36
1.4359194e-36
1.386006e-36
1.3818544e-36
1.3507597e-36
1.2950773e-36
1.3366403e-36
1.3707416e-36
1.3547424e-36
1.3625068e-36
1.317682e-36
1.2676372e-36
1.2952201e-36
1.27171e-36
1.3337823e-36
1.3435759e-36
1.2511353e-36
1.2659334e-36
1.2444944e-36
1.9289224e-36
1.8956055e-36
1.5074617e-36
1.4588398e-36
1.4171141e-36
2.938193e-36
1.4047177e-36
1.4493875e-36
7.0670423e-37
7.0349315e-37
1.4544011e-36
1.4908838e-36
6.929262e-37
7.0827312e-37
1.4109074e-36
1.4496738e-36
7.1315017e-37
7.1463988e-37
6.8814e-37
1.3737576e-36
1.3946027e-36
6.6679536e-37
5.0371512e-37
5.0715573e-37
3.0633992e-37
3.1965537e-37
4.6237416e-37
3.8311782e-37
4.0442767e-37
4.8099917e-37
5.3553573e-37
3.2231193e-37
5.1618659e-37
3.0532758e-37
4.1737073e-37
4.212012e-37
5.1388815e-37
5.0324932e-37
5.2026159e-37
5.1347165e-37
3.1708193e-37
2.9702664e-37
5.4486738e-37
4.4181318e-37
4.3089316e-37
5.3764129e-37
5.4335023e-37
4.0881176e-37
3.8927179e-37
5.0504844e-37
5.0014128e-37
4.7714193e-37
3.0846815e-37
3.0925631e-37
1.4046421e-36
1.3628411e-36
6.9507978e-37
6.9668574e-37
1.4300017e-36
1.390664e-36
6.9602346e-37
6.852398e-37
4.9413375e-37
4.9429654e-37
3.0289652e-37
3.2787813e-37
5.1071312e-37
4.0926706e-37
4.1801851e-37
5.1963208e-37
4.9690914e-37
5.1308846e-37
3.2984987e-37
3.2185074e-37
4.075788e-37
4.1887219e-37
5.4020504e-37
5.1192078e-37
7.0473865e-37
1.3563864e-36
1.4076937e-36
7.0684734e-37
6.7658408e-37
1.328292e-36
1.3600544e-36
6.6044463e-37
5.0622795e-37
5.0586985e-37
3.2710104e-37
3.241114e-37
4.803985e-37
5.0220601e-37
3.1436328e-37
3.0036542e-37
4.1894311e-37
4.2976183e-37
5.287908e-37
5.225864e-37
3.8428618e-37
4.0064198e-37
5.2107215e-37
4.8255349e-37
7.5476045e-37
5.4177524e-37
5.2155913e-37
5.9094932e-37
5.9804245e-37
5.770969e-37
6.0386711e-37
6.1846053e-37
5.87104e-37
5.5792926e-37
5.4052446e-37
5.7663724e-37
5.9288514e-37
5.3701658e-37
5.492307e-37
5.3646291e-37
5.0061909e-37
5.991778e-37
6.1377365e-37
5.8883084e-37
5.7081613e-37
5.7098828e-37
5.8692973e-37
5.4133617e-37
5.7575551e-37
4.7565262e-37
4.7024393e-37
5.2565342e-37
5.2180381e-37
5.7605872e-37
5.3538938e-37
5.8702523e-37
5.9916318e-37
7.1784401e-37
6.9010865e-37
7.5379718e-37
8.7802685e-37
7.4270397e-37
6.1634949e-37
5.7397097e-37
6.9119992e-37
3.6770067e-37
3.8688083e-37
4.4518269e-37
4.3314413e-37
4.2202687e-37
4.1654459e-37
4.301364e-37
4.8366962e-37
4.9095323e-37
4.6182369e-37
5.0955112e-37
4.7132244e-37
6.3409922e-37
6.368314e-37
5.7335803e-37
3.740838e-37
3.9545148e-37
3.4833941e-37
4.0366788e-37
1.7031223e-37
1.1754105e-37
1.8578684e-37
1.2491388e-37
1.8478158e-37
1.5850491e-37
1.9173666e-37
1.874671e-37
1.8397122e-37
1.7411517e-37
1.3418314e-37
1.5031422e-37
1.1394211e-37
1.152864e-37
2.2603797e-37
2.2432519e-37
2.222933e-37
2.2429623e-37
2.4422979e-37
2.0195836e-37
1.9978717e-37
2.5051039e-37
2.2799109e-37
2.2469947e-37
2.2897411e-37
2.2226063e-37
2.4641213e-37
1.9799627e-37
2.4440998e-37
1.9824638e-37
2.2584595e-37
2.1057723e-37
2.1639436e-37
2.2852791e-37
2.4133977e-37
2.4193479e-37
2.2453678e-37
2.2553164e-37
2.0000896e-37
2.1784062e-37
1.9658294e-37
2.2699075e-37
2.331915e-37
2.0970399e-37
2.3301937e-37
2.0776321e-37
1.8995141e-37
1.9557184e-37
1.8666965e-37
1.9758118e-37
1.9367389e-37
1.779885e-37
1.7863061e-37
1.9812963e-37
1.9724342e-37
2.0753855e-37
1.9464495e-37
2.0850153e-37
2.0325736e-37
1.8450802e-37
2.0481213e-37
1.8512161e-37
2.444145e-37
2.3629813e-37
2.3721283e-37
2.4716425e-37
2.0495907e-37
2.6035368e-37
2.6285808e-37
2.1123571e-37
2.5581244e-37
2.5621481e-37
2.4751407e-37
2.5128804e-37
2.2461091e-37
2.7629188e-37
2.3067051e-37
2.7494933e-37
2.2107824e-37
2.0502288e-37
2.0831524e-37
2.2059799e-37
2.1559051e-37
2.189864e-37
2.0290239e-37
2.0212068e-37
1.9291755e-37
2.1284529e-37
1.9144788e-37
2.1982897e-37
2.1059312e-37
1.8929529e-37
2.1243092e-37
1.8958987e-37
2.1547551e-37
2.2511468e-37
2.1151921e-37
2.2749259e-37
2.160482e-37
1.9557343e-37
1.972201e-37
2.222652e-37
2.1149614e-37
2.2636761e-37
2.0982529e-37
2.2540336e-37
2.1708208e-37
1.9533292e-37
2.1756162e-37
1.9460803e-37
2.4063186e-37
2.3357524e-37
2.3217745e-37
2.4158841e-37
2.3776052e-37
2.3156657e-37
2.3558884e-37
2.3213626e-37
2.0945148e-37
2.1233229e-37
2.5866683e-37
2.5949625e-37
2.5625411e-37
2.5939002e-37
2.1472474e-37
2.1481357e-37
2.6554133e-37
2.1483565e-37
2.2690058e-37
2.7060707e-37
2.4048565e-37
2.447672e-37
2.3955511e-37
2.4609324e-37
2.4132222e-37
2.4314112e-37
2.3530019e-37
2.3519355e-37
2.615232e-37
2.6433387e-37
2.1484469e-37
2.1755773e-37
2.5988973e-37
2.8486112e-37
2.5665233e-37
2.870207e-37
2.5063778e-37
2.0744822e-37
2.096712e-37
2.5684544e-37
2.6136569e-37
2.8910957e-37
2.5785686e-37
2.9199888e-37
2.5561462e-37
2.0978921e-37
2.6069286e-37
2.1059839e-37
3.5037324e-37
3.1245182e-37
3.135411e-37
3.4604561e-37
3.5474496e-37
3.1433891e-37
3.1727827e-37
3.5325801e-37
3.1027605e-37
2.5677587e-37
2.5676533e-37
3.1270578e-37
3.157567e-37
2.6061224e-37
2.6127557e-37
3.1853559e-37
3.4443333e-37
3.0381474e-37
3.0398657e-37
3.3863919e-37
3.3633074e-37
3.4308946e-37
3.0158962e-37
2.9845644e-37
3.0300945e-37
2.4832182e-37
2.474723e-37
3.0391706e-37
2.9921501e-37
3.0299811e-37
2.4770157e-37
2.451218e-37
2.7723048e-37
2.4684193e-37
2.4705188e-37
2.7723643e-37
2.7024063e-37
2.7576256e-37
2.4488754e-37
2.416093e-37
2.016093e-37
2.0213739e-37
2.4481825e-37
2.454159e-37
2.4035934e-37
2.4537263e-37
2.0166882e-37
1.9923771e-37
2.2168044e-37
2.4142846e-37
2.1702448e-37
2.4410042e-37
2.1185536e-37
1.7883396e-37
1.8122258e-37
2.1818981e-37
2.6656879e-37
2.3981658e-37
2.6473971e-37
2.359848e-37
2.3266309e-37
1.9281465e-37
2.3525639e-37
1.9509186e-37
3.5702952e-37
3.1613589e-37
3.2040997e-37
3.5636864e-37
3.8139493e-37
3.3785184e-37
3.419327e-37
3.8134111e-37
2.6101603e-37
3.1376228e-37
2.5857857e-37
3.2081466e-37
2.7784613e-37
3.3949105e-37
2.7816392e-37
3.4090295e-37
2.7251778e-37
3.0195895e-37
2.6920129e-37
3.0290463e-37
2.6504803e-37
2.1912851e-37
2.2106277e-37
2.6962754e-37
2.9960455e-37
3.3170286e-37
2.9302532e-37
3.3608792e-37
2.9217935e-37
2.4070837e-37
2.9712327e-37
2.435179e-37
2.8644757e-37
2.5693304e-37
2.5957731e-37
2.8899859e-37
3.0829838e-37
2.7638573e-37
3.1003357e-37
2.7596635e-37
2.0880653e-37
2.1201136e-37
2.5339153e-37
2.5681004e-37
2.7435504e-37
2.7607434e-37
2.262049e-37
2.2650116e-37
3.5199751e-37
3.9922704e-37
3.4780077e-37
4.001826e-37
3.4472867e-37
2.8144819e-37
2.8195699e-37
3.4885979e-37
4.4805549e-37
3.9090363e-37
4.4353609e-37
3.8214645e-37
3.8242373e-37
3.0970992e-37
3.897864e-37
3.1590735e-37
6.5317266e-37
5.3960907e-37
5.4205547e-37
6.4073171e-37
6.7647187e-37
6.7754151e-37
5.6104063e-37
5.6301275e-37
4.1279397e-37
5.2578695e-37
4.1389577e-37
5.2824684e-37
5.5748133e-37
4.39561e-37
5.5809746e-37
4.3781627e-37
4.7167451e-37
5.5318488e-37
4.6223759e-37
5.6233436e-37
4.5270033e-37
3.5899847e-37
3.5927112e-37
4.5745181e-37
5.2829941e-37
6.2033596e-37
5.1296333e-37
6.2837355e-37
5.0812611e-37
4.0050352e-37
5.1820076e-37
4.0545856e-37
4.6388077e-37
4.0316872e-37
4.0336095e-37
4.6394867e-37
4.933223e-37
4.2710664e-37
4.930792e-37
4.2924764e-37
3.2906458e-37
3.2986056e-37
4.0573784e-37
4.0558041e-37
4.3497851e-37
4.3425984e-37
3.5191753e-37
3.5380977e-37
9.9398722e-37
9.9446011e-37
7.8654789e-37
7.8903976e-37
7.7687737e-37
5.8560807e-37
5.8450036e-37
7.8190885e-37
1.0155357e-36
1.0187608e-36
8.0945053e-37
8.0245256e-37
8.1560477e-37
8.1883392e-37
6.0833947e-37
6.1161182e-37
6.9445194e-37
8.5497626e-37
6.7740685e-37
8.6747858e-37
6.7124916e-37
5.0705229e-37
5.1126757e-37
6.7730694e-37
7.8097458e-37
9.5936943e-37
7.5464312e-37
9.7894379e-37
7.6058607e-37
5.6817324e-37
7.9260612e-37
5.794225e-37
1.325953e-36
1.3363924e-36
9.2685313e-37
9.4521607e-37
1.1079912e-36
1.1305447e-36
1.579496e-36
1.6015826e-36
8.1488997e-37
2.7951832e-37
3.2232551e-37
3.6060579e-37
3.1319392e-37
9.3419603e-37
1.5027712e-36
1.5105024e-36
1.0550737e-36
1.0688976e-36
1.155911e-36
1.1595969e-36
1.6564514e-36
1.6292926e-36
3.3700755e-37
3.7202879e-37
4.0147943e-37
3.4676885e-37
9.604624e-37
9.4350403e-37
3.0038759e-37
3.2272125e-37
3.6083835e-37
3.3320558e-37
3.7057417e-37
3.7425412e-37
3.356209e-37
3.5208246e-37
1.4754165e-36
1.4962045e-36
1.0266772e-36
1.0508746e-36
1.0704427e-36
1.071142e-36
1.5389015e-36
1.5289264e-36
3.1039438e-37
3.4442028e-37
3.6740334e-37
3.1411394e-37
9.0594146e-37
9.3445096e-37
1.4644458e-36
1.4773954e-36
1.0245753e-36
1.0447581e-36
1.1152508e-36
1.1325346e-36
1.593356e-36
1.5932056e-36
3.0636374e-37
3.5593989e-37
3.6465582e-37
3.1282389e-37
9.3366896e-37
8.9142957e-37
9.4898596e-37
9.5690044e-37
7.6103988e-37
7.5329744e-37
7.5722645e-37
7.5938599e-37
5.7002213e-37
5.7316939e-37
7.7631209e-37
9.7133933e-37
7.5744641e-37
9.8416556e-37
5.8179517e-37
7.7508347e-37
7.8877269e-37
5.8881925e-37
3.2809411e-37
3.5529422e-37
3.4123692e-37
3.1908215e-37
3.4065416e-37
3.5019737e-37
3.1028786e-37
3.2246194e-37
7.6568451e-37
9.6584716e-37
7.5400901e-37
9.742033e-37
5.6625668e-37
7.6389802e-37
7.6487998e-37
5.6619046e-37
7.4271515e-37
9.4461435e-37
7.3281382e-37
9.4964584e-37
5.6395249e-37
7.5464296e-37
7.5740192e-37
5.6077116e-37
5.1172611e-37
6.2325998e-37
5.1222331e-37
6.1770361e-37
5.0982128e-37
3.9833174e-37
3.9962289e-37
5.0652792e-37
6.1273769e-37
5.0615786e-37
6.1978539e-37
5.0884912e-37
5.0953376e-37
3.9904625e-37
5.0317228e-37
3.9603147e-37
5.169976e-37
6.197153e-37
5.1708057e-37
6.1677363e-37
5.115327e-37
5.0997651e-37
4.0503583e-37
4.0490281e-37
5.2828392e-37
6.3221499e-37
5.214336e-37
6.3515528e-37
4.1323148e-37
5.228068e-37
5.2694155e-37
4.1675817e-37
3.9209865e-37
4.4975488e-37
3.9253805e-37
4.4656746e-37
3.2308906e-37
3.9473524e-37
3.9354224e-37
3.2235879e-37
4.5981354e-37
4.0024206e-37
4.5865348e-37
3.9638904e-37
3.2784426e-37
4.0207165e-37
4.0444574e-37
3.3023049e-37
3.8482124e-37
4.4700893e-37
3.8657263e-37
4.4378856e-37
3.1509755e-37
3.8928358e-37
3.8786351e-37
3.1355775e-37
4.4003951e-37
3.8218566e-37
4.4628254e-37
3.8471335e-37
3.1628325e-37
3.9054255e-37
3.8544957e-37
3.1393521e-37
2.5193442e-37
2.6868268e-37
2.4803271e-37
2.519676e-37
2.6170744e-37
2.5608897e-37
2.4797025e-37
2.6481289e-37
2.450462e-37
2.6609638e-37
2.7512155e-37
2.4739431e-37
2.5285565e-37
2.6700474e-37
2.8181626e-37
2.5182204e-37
2.5514814e-37
3.0285223e-37
3.2891438e-37
2.8069931e-37
2.7125679e-37
2.6428432e-37
2.9095852e-37
2.9361948e-37
2.5876999e-37
2.8809879e-37
2.6966726e-37
2.7354062e-37
2.8225328e-37
2.9167468e-37
3.1614474e-37
2.849001e-37
3.8635149e-37
4.3736501e-37
3.8161563e-37
4.3855082e-37
3.7691837e-37
3.0770703e-37
3.0811927e-37
3.81325e-37
4.7095275e-37
4.1225424e-37
4.7032058e-37
4.0618252e-37
4.0549491e-37
3.2889944e-37
4.0953815e-37
3.3282941e-37
6.4124239e-37
5.2671713e-37
5.3686177e-37
6.3263508e-37
6.6115416e-37
6.6160469e-37
5.4663471e-37
5.4905052e-37
4.0720298e-37
5.1356124e-37
4.0569059e-37
5.2106862e-37
5.412207e-37
4.2621046e-37
5.424122e-37