/*--------------------------------*- C++ -*----------------------------------*\
  =========                 |
  \\      /  F ield         | OpenFOAM: The Open Source CFD Toolbox
   \\    /   O peration     | Website:  https://openfoam.org
    \\  /    A nd           | Version:  7
     \\/     M anipulation  |
\*---------------------------------------------------------------------------*/
FoamFile
{
    version     2.0;
    format      ascii;
    class       volScalarField;
    location    "6000";
    object      pMean;
}
// * * * * * * * * * * * * * * * * * * * * * * * * * * * * * * * * * * * * * //

dimensions      [0 2 -2 0 0 0 0];

internalField   nonuniform List<scalar> 
34356
(
-1.0154673e+70
-1.0187284e+70
-1.0191061e+70
-1.0181589e+70
-1.0166279e+70
-1.0168856e+70
-9.5731463e+69
-1.0120224e+70
-1.0127764e+70
-1.0180926e+70
-1.0197721e+70
-1.0175039e+70
-1.0191663e+70
-1.034535e+70
-1.034846e+70
-1.0388728e+70
-1.0395631e+70
-1.0339765e+70
-1.0388989e+70
-1.0338739e+70
-1.0381899e+70
-9.8206388e+69
-9.5952632e+69
-9.5933901e+69
-9.8159916e+69
-9.0388374e+69
-9.4147837e+69
-9.4148679e+69
-9.5491761e+69
-9.5392163e+69
-8.9533961e+69
-9.2529796e+69
-9.7699877e+69
-9.610061e+69
-1.0338777e+70
-1.0344644e+70
-1.0344463e+70
-1.0341861e+70
-1.0256875e+70
-1.0227264e+70
-1.0221036e+70
-1.0260744e+70
-1.0247585e+70
-1.0311468e+70
-1.0237865e+70
-1.0304248e+70
-1.0224031e+70
-1.0220335e+70
-1.0252011e+70
-1.0253547e+70
-1.0235221e+70
-1.0235301e+70
-1.0301413e+70
-1.0302667e+70
-1.044336e+70
-1.0405399e+70
-1.0410357e+70
-1.045292e+70
-1.0408292e+70
-1.045384e+70
-1.0408832e+70
-1.0444048e+70
-1.0407954e+70
-1.0406669e+70
-1.0449117e+70
-1.0442366e+70
-1.0443773e+70
-1.0409478e+70
-1.0410956e+70
-1.0450368e+70
-1.011434e+70
-1.0119541e+70
-9.9318426e+69
-9.9297419e+69
-9.7657397e+69
-9.609242e+69
-9.5976849e+69
-9.7635255e+69
-9.2610081e+69
-9.7648899e+69
-9.607694e+69
-9.5971572e+69
-9.7618263e+69
-9.2657759e+69
-1.0115852e+70
-1.012148e+70
-9.9306334e+69
-9.9281695e+69
-8.9697328e+69
-8.9669523e+69
-9.1274256e+69
-9.1109537e+69
-8.9782853e+69
-8.9951469e+69
-9.9814831e+69
-8.5060062e+69
-8.7272326e+69
-9.0167357e+69
-9.1554333e+69
-9.1502773e+69
-9.0081606e+69
-9.2381885e+69
-9.2416054e+69
-9.4115393e+69
-9.409901e+69
-9.8574014e+69
-9.779896e+69
-9.7779174e+69
-9.6761552e+69
-9.6761581e+69
-9.59747e+69
-9.5970608e+69
-9.5953619e+69
-1.0461094e+70
-1.0453127e+70
-1.0457021e+70
-1.045984e+70
-1.0456295e+70
-1.0453253e+70
-1.0455831e+70
-1.0457342e+70
-1.0050845e+70
-1.0053325e+70
-1.0266534e+70
-1.019673e+70
-1.0183553e+70
-1.0261702e+70
-1.0336545e+70
-1.0289559e+70
-1.0288546e+70
-1.0338443e+70
-1.0320796e+70
-1.0350527e+70
-1.0348557e+70
-1.0318221e+70
-1.033511e+70
-1.0286024e+70
-1.0288751e+70
-1.0334722e+70
-1.0317141e+70
-1.0317055e+70
-1.0348622e+70
-1.0350153e+70
-1.0198061e+70
-1.0189709e+70
-1.026261e+70
-1.0266066e+70
-1.0284771e+70
-1.0286595e+70
-1.0332921e+70
-1.0335852e+70
-1.0334583e+70
-1.0287597e+70
-1.0286608e+70
-1.0335511e+70
-1.031948e+70
-1.0316607e+70
-1.0354368e+70
-1.0351873e+70
-1.031761e+70
-1.0350418e+70
-1.0319028e+70
-1.0350755e+70
-1.0448679e+70
-1.0453241e+70
-1.0478287e+70
-1.0471298e+70
-1.0479962e+70
-1.0455025e+70
-1.0453991e+70
-1.0475221e+70
-1.0474703e+70
-1.0452354e+70
-1.0455656e+70
-1.0481661e+70
-1.0454574e+70
-1.0453072e+70
-1.0481453e+70
-1.0474694e+70
-1.0457025e+70
-1.0453294e+70
-1.0475156e+70
-1.0480664e+70
-1.0480263e+70
-1.0454479e+70
-1.0450558e+70
-1.0472328e+70
-1.0457243e+70
-1.0462562e+70
-1.0477967e+70
-1.0483794e+70
-1.0461726e+70
-1.045768e+70
-1.0483732e+70
-1.0476955e+70
-9.317241e+69
-9.249969e+69
-1.031158e+70
-1.0213457e+70
-1.0209775e+70
-1.0316087e+70
-1.0213672e+70
-1.0215996e+70
-1.0312548e+70
-1.0317303e+70
-1.0080328e+70
-9.9757047e+69
-9.9753368e+69
-1.0078156e+70
-1.0077218e+70
-9.9738261e+69
-9.9729658e+69
-1.0079399e+70
-9.8444233e+69
-9.7635253e+69
-9.762456e+69
-9.8464534e+69
-9.6655598e+69
-9.6646729e+69
-9.5874024e+69
-9.5896678e+69
-9.4131252e+69
-9.5862885e+69
-9.5880727e+69
-9.6642499e+69
-9.4118396e+69
-9.6630086e+69
-9.7625584e+69
-9.763227e+69
-9.8475125e+69
-9.8464193e+69
-9.262488e+69
-9.2572587e+69
-9.8471447e+69
-9.7657372e+69
-9.7647594e+69
-9.848713e+69
-9.5909914e+69
-9.5883932e+69
-9.6677903e+69
-9.6662703e+69
-9.4178156e+69
-9.5929848e+69
-9.5916401e+69
-9.668232e+69
-9.4071591e+69
-9.6705795e+69
-9.7693071e+69
-9.8502574e+69
-9.7668219e+69
-9.8510219e+69
-9.2551237e+69
-9.2618348e+69
-1.0321135e+70
-1.0212327e+70
-1.0217551e+70
-1.0312288e+70
-1.0316128e+70
-1.0217013e+70
-1.0214614e+70
-1.0320802e+70
-1.0080839e+70
-9.9759476e+69
-9.9763517e+69
-1.0083431e+70
-9.9766834e+69
-9.9766998e+69
-1.008322e+70
-1.0079734e+70
-8.5187283e+69
-8.7449368e+69
-8.5174543e+69
-8.7399728e+69
-9.0347381e+69
-9.1722526e+69
-9.1768689e+69
-9.0317857e+69
-9.0267932e+69
-9.1726356e+69
-9.1689376e+69
-9.0220516e+69
-1.009682e+70
-1.0155985e+70
-9.97668e+69
-1.0021442e+70
-9.9770149e+69
-1.0022237e+70
-8.2858489e+69
-8.9181056e+69
-8.9173799e+69
-8.7588731e+69
-8.7563231e+69
-9.1052466e+69
-9.0620925e+69
-9.0520576e+69
-9.1038963e+69
-9.1756119e+69
-9.1225602e+69
-9.122728e+69
-9.1786696e+69
-9.1750789e+69
-9.1242932e+69
-9.1144698e+69
-9.1677033e+69
-9.0490035e+69
-9.1041748e+69
-9.0874284e+69
-9.2428229e+69
-9.2485998e+69
-9.3186553e+69
-9.3143304e+69
-9.2487457e+69
-9.2480056e+69
-9.3207518e+69
-9.3188197e+69
-9.4058905e+69
-9.4059561e+69
-9.4873724e+69
-9.4870433e+69
-9.4044417e+69
-9.4023864e+69
-9.4842397e+69
-9.478139e+69
-9.8618824e+69
-9.9010152e+69
-9.8628112e+69
-9.9016269e+69
-9.7699598e+69
-9.7708931e+69
-9.8023652e+69
-9.7687148e+69
-9.8012837e+69
-9.7696313e+69
-9.8022297e+69
-9.8627146e+69
-9.6703088e+69
-9.7042682e+69
-9.6711202e+69
-9.704609e+69
-9.6699586e+69
-9.70334e+69
-9.6709884e+69
-9.7045465e+69
-9.6114318e+69
-9.6115393e+69
-9.5822263e+69
-9.582281e+69
-9.6117738e+69
-9.6120099e+69
-9.582646e+69
-9.5828249e+69
-9.6111e+69
-9.6082554e+69
-9.582083e+69
-9.5791561e+69
-9.6700192e+69
-1.0497964e+70
-1.0500777e+70
-1.0495874e+70
-1.0499967e+70
-1.0496142e+70
-1.0499677e+70
-1.0500454e+70
-1.0497416e+70
-1.0499339e+70
-1.049778e+70
-1.0494639e+70
-1.04993e+70
-1.0498187e+70
-1.0500242e+70
-1.0500306e+70
-1.0497259e+70
-9.9221734e+69
-9.9290409e+69
-1.0258111e+70
-1.0343026e+70
-1.0340525e+70
-1.0108965e+70
-1.0103661e+70
-1.0252436e+70
-1.0341616e+70
-1.0340066e+70
-1.0399945e+70
-1.0399705e+70
-1.0366705e+70
-1.0367751e+70
-1.0379387e+70
-1.0377395e+70
-1.0399245e+70
-1.042293e+70
-1.04001e+70
-1.0428061e+70
-1.0399792e+70
-1.0428541e+70
-1.0400136e+70
-1.0429882e+70
-1.0368045e+70
-1.0366462e+70
-1.037724e+70
-1.0377781e+70
-1.0399433e+70
-1.0399078e+70
-1.0366706e+70
-1.03654e+70
-1.0375492e+70
-1.0375973e+70
-1.0367103e+70
-1.036633e+70
-1.0376334e+70
-1.037828e+70
-1.0398728e+70
-1.0399889e+70
-1.0430692e+70
-1.0424092e+70
-1.0431179e+70
-1.04264e+70
-1.0400286e+70
-1.0399829e+70
-1.0112383e+70
-1.0107059e+70
-1.025291e+70
-1.0341216e+70
-1.034313e+70
-1.0260472e+70
-1.0344577e+70
-1.0342162e+70
-1.0400849e+70
-1.040241e+70
-1.0400625e+70
-1.0399117e+70
-1.0322601e+70
-1.0382701e+70
-1.0371291e+70
-1.0370712e+70
-1.0381321e+70
-1.036925e+70
-1.0369836e+70
-1.0380033e+70
-1.0379396e+70
-1.0408797e+70
-1.0437792e+70
-1.0408155e+70
-1.0444743e+70
-1.0406891e+70
-1.0442726e+70
-1.0433847e+70
-1.0404368e+70
-1.0368159e+70
-1.0368502e+70
-1.0378081e+70
-1.037703e+70
-1.0403596e+70
-1.0433414e+70
-1.0402071e+70
-1.0433743e+70
-1.0366534e+70
-1.0366666e+70
-1.0375979e+70
-1.0377093e+70
-1.0400603e+70
-1.0398685e+70
-1.0430585e+70
-1.0422719e+70
-1.0462156e+70
-1.0461846e+70
-1.0493019e+70
-1.0497881e+70
-1.0458914e+70
-1.0459904e+70
-1.0498316e+70
-1.0494518e+70
-1.0456226e+70
-1.0493811e+70
-1.0465736e+70
-1.0500617e+70
-1.0500772e+70
-1.0466456e+70
-1.0465193e+70
-1.0495447e+70
-1.0462666e+70
-1.0459937e+70
-1.0493032e+70
-1.0498069e+70
-1.0464834e+70
-1.0462247e+70
-1.0498222e+70
-1.0495487e+70
-1.046042e+70
-1.0465612e+70
-1.0494687e+70
-1.0500147e+70
-1.0468353e+70
-1.0464228e+70
-1.0500244e+70
-1.0494094e+70
-1.0462093e+70
-1.0462058e+70
-1.0501737e+70
-1.0497732e+70
-1.0459961e+70
-1.0455368e+70
-1.0495829e+70
-1.050129e+70
-1.0456359e+70
-1.0464964e+70
-1.0495698e+70
-1.0501899e+70
-1.0464109e+70
-1.0466224e+70
-1.0500492e+70
-1.0494116e+70
-1.0455426e+70
-1.0457861e+70
-1.0496649e+70
-1.0500867e+70
-1.0500931e+70
-1.0454354e+70
-1.0451851e+70
-1.0495815e+70
-1.0460328e+70
-1.0449538e+70
-1.0495347e+70
-1.050307e+70
-1.0463059e+70
-1.0464645e+70
-1.0504144e+70
-1.0498768e+70
-8.100121e+69
-9.3655556e+69
-9.3403699e+69
-9.3398147e+69
-9.3638946e+69
-9.2943739e+69
-9.2691402e+69
-9.2925432e+69
-9.5846929e+69
-9.4027472e+69
-9.6604858e+69
-9.7593435e+69
-9.2553796e+69
-8.7595066e+69
-8.5424925e+69
-8.5376697e+69
-9.1669245e+69
-9.0246582e+69
-1.0383157e+70
-1.0414658e+70
-1.0385636e+70
-1.0418232e+70
-1.024752e+70
-1.0247209e+70
-1.0309163e+70
-1.0306988e+70
-1.0245854e+70
-1.0306452e+70
-1.0246978e+70
-1.030888e+70
-1.0385531e+70
-1.0418329e+70
-1.0383853e+70
-1.0414129e+70
-1.0249147e+70
-1.0248191e+70
-1.031041e+70
-1.0307683e+70
-1.0248223e+70
-1.0307915e+70
-1.0249626e+70
-1.0310775e+70
-1.0386311e+70
-1.0383808e+70
-1.0418637e+70
-1.0413367e+70
-1.0414807e+70
-1.0383817e+70
-1.038625e+70
-1.0418146e+70
-1.0093838e+70
-1.015431e+70
-1.0095203e+70
-1.0156532e+70
-9.970774e+69
-9.9715018e+69
-1.0016601e+70
-1.0017858e+70
-9.9712298e+69
-9.9711325e+69
-1.0017543e+70
-1.0016576e+70
-1.009437e+70
-1.0093552e+70
-1.0156192e+70
-1.0154209e+70
-1.0090888e+70
-1.0151321e+70
-1.0092341e+70
-1.0153538e+70
-9.9685899e+69
-9.9695867e+69
-1.0015249e+70
-1.0015482e+70
-9.9682885e+69
-1.0014119e+70
-9.9685035e+69
-1.0015098e+70
-1.0092561e+70
-1.0092896e+70
-1.0154206e+70
-1.0153318e+70
-9.8509635e+69
-9.8907891e+69
-9.8514111e+69
-9.8912039e+69
-9.7546779e+69
-9.755863e+69
-9.7883656e+69
-9.7893221e+69
-9.7549842e+69
-9.7884472e+69
-9.7547229e+69
-9.7883396e+69
-9.8513645e+69
-9.8525221e+69
-9.8913563e+69
-9.8921008e+69
-9.6547844e+69
-9.6875335e+69
-9.6560657e+69
-9.6883745e+69
-9.6549384e+69
-9.687918e+69
-9.6551423e+69
-9.6877971e+69
-9.5973747e+69
-9.5967397e+69
-9.5682949e+69
-9.4773312e+69
-9.5680936e+69
-9.5976566e+69
-9.5986328e+69
-9.4786576e+69
-9.5704905e+69
-9.5688082e+69
-9.400219e+69
-9.402366e+69
-9.598466e+69
-9.5988001e+69
-9.4744734e+69
-9.5705713e+69
-9.5697426e+69
-9.5988213e+69
-9.598412e+69
-9.476023e+69
-9.5701889e+69
-9.570436e+69
-9.6557826e+69
-9.6886946e+69
-9.6562027e+69
-9.6888491e+69
-9.400979e+69
-9.4031854e+69
-9.6556679e+69
-9.6886703e+69
-9.6565647e+69
-9.6891028e+69
-9.7558868e+69
-9.7903112e+69
-9.7564276e+69
-9.790325e+69
-9.7561752e+69
-9.7900202e+69
-9.756174e+69
-9.7903768e+69
-9.8533402e+69
-9.8934258e+69
-9.8540645e+69
-9.8943634e+69
-9.8538693e+69
-9.8943117e+69
-9.8537759e+69
-9.8937716e+69
-9.2559851e+69
-9.2607968e+69
-9.32332e+69
-9.3221353e+69
-9.3208416e+69
-9.2538662e+69
-9.2545423e+69
-9.3217372e+69
-9.8551617e+69
-9.8948315e+69
-9.8555585e+69
-9.8952758e+69
-9.7577956e+69
-9.7593529e+69
-9.7918682e+69
-9.7929188e+69
-9.7582056e+69
-9.7921127e+69
-9.7578993e+69
-9.791984e+69
-9.8553098e+69
-9.8564229e+69
-9.8952011e+69
-9.8958474e+69
-9.6010091e+69
-9.6023417e+69
-9.4811615e+69
-9.5742982e+69
-9.5722949e+69
-9.6009657e+69
-9.6001968e+69
-9.4806947e+69
-9.571572e+69
-9.5719179e+69
-9.6582334e+69
-9.6908623e+69
-9.6600308e+69
-9.6923452e+69
-9.6581452e+69
-9.6912869e+69
-9.6585001e+69
-9.691146e+69
-9.4098219e+69
-9.4074898e+69
-9.6050751e+69
-9.6074909e+69
-9.4797563e+69
-9.5790545e+69
-9.5761919e+69
-9.6030037e+69
-9.6036745e+69
-9.4798868e+69
-9.5754179e+69
-9.5746766e+69
-9.6603323e+69
-9.692953e+69
-9.661941e+69
-9.694463e+69
-9.406544e+69
-9.4039493e+69
-9.6628154e+69
-9.6958649e+69
-9.6659877e+69
-9.6985878e+69
-9.7624297e+69
-9.7964417e+69
-9.7647178e+69
-9.7976821e+69
-9.8572199e+69
-9.8969023e+69
-9.8587113e+69
-9.898368e+69
-9.7601138e+69
-9.7938896e+69
-9.7613599e+69
-9.7953423e+69
-9.8592585e+69
-9.898967e+69
-9.8599221e+69
-9.8989491e+69
-9.2538083e+69
-9.2479792e+69
-9.321312e+69
-9.3175525e+69
-9.3264449e+69
-9.2595432e+69
-9.2560693e+69
-9.3243972e+69
-1.0387284e+70
-1.0418049e+70
-1.0389399e+70
-1.0421936e+70
-1.0250174e+70
-1.0248125e+70
-1.0311258e+70
-1.0307144e+70
-1.0250776e+70
-1.0310587e+70
-1.0251827e+70
-1.0313012e+70
-1.0387243e+70
-1.0420991e+70
-1.0383576e+70
-1.041524e+70
-1.0384986e+70
-1.0415301e+70
-1.0388448e+70
-1.0420506e+70
-1.0250714e+70
-1.0312143e+70
-1.0250518e+70
-1.0310177e+70
-1.024943e+70
-1.0309221e+70
-1.0250943e+70
-1.0312349e+70
-1.038826e+70
-1.0386963e+70
-1.0421024e+70
-1.0417362e+70
-1.0094278e+70
-1.0095749e+70
-1.0155461e+70
-1.015771e+70
-9.9717113e+69
-1.0017888e+70
-9.9719259e+69
-1.0018792e+70
-9.9717324e+69
-9.9726285e+69
-1.0018561e+70
-1.0018564e+70
-1.0095758e+70
-1.0096037e+70
-1.0157708e+70
-1.0156952e+70
-9.9746548e+69
-9.9749847e+69
-1.0020684e+70
-1.0019602e+70
-9.9734211e+69
-9.9746213e+69
-1.0019112e+70
-1.0020745e+70
-1.0096054e+70
-1.0157416e+70
-1.0097613e+70
-1.0159294e+70
-1.0097001e+70
-1.0095898e+70
-1.0158373e+70
-1.0155406e+70
-8.2769611e+69
-8.7811588e+69
-8.9446644e+69
-8.9483382e+69
-8.7671909e+69
-8.2761724e+69
-8.941925e+69
-8.9292627e+69
-8.7600011e+69
-8.7654845e+69
-9.1311522e+69
-9.091778e+69
-9.0855454e+69
-9.1346819e+69
-9.181905e+69
-9.1324717e+69
-9.1377999e+69
-9.1897988e+69
-9.1890939e+69
-9.1417353e+69
-9.1336114e+69
-9.1827846e+69
-9.0836248e+69
-9.0725554e+69
-9.1343997e+69
-9.1246396e+69
-9.0710817e+69
-9.0766996e+69
-9.1272982e+69
-9.1261662e+69
-9.134507e+69
-9.1347083e+69
-9.187518e+69
-9.1869361e+69
-9.1365553e+69
-9.1257224e+69
-9.1835759e+69
-9.1736725e+69
-9.0617731e+69
-9.0731253e+69
-9.1283732e+69
-9.1138421e+69
-1.0083855e+70
-1.008411e+70
-1.0118035e+70
-1.011769e+70
-1.0161568e+70
-1.0196976e+70
-1.0198148e+70
-1.0162464e+70
-9.9596735e+69
-9.9593726e+69
-9.9805969e+69
-9.9809348e+69
-1.0016851e+70
-1.0016284e+70
-1.0039546e+70
-1.0039974e+70
-9.9806776e+69
-9.9597703e+69
-9.9809785e+69
-9.9597397e+69
-1.003996e+70
-1.0016849e+70
-1.0016839e+70
-1.00398e+70
-8.7530399e+69
-8.7344672e+69
-9.0234715e+69
-9.0241125e+69
-9.0564371e+69
-9.0390394e+69
-9.0187426e+69
-9.0311589e+69
-9.0666792e+69
-9.0597892e+69
-9.0662862e+69
-9.0770665e+69
-9.0775924e+69
-9.0834531e+69
-9.0849001e+69
-9.0846648e+69
-9.0725225e+69
-9.0808514e+69
-9.0809979e+69
-9.0736621e+69
-9.0793789e+69
-9.0655781e+69
-9.0622055e+69
-9.0763597e+69
-9.2243888e+69
-9.1988623e+69
-9.199987e+69
-9.2245609e+69
-9.157989e+69
-9.1237162e+69
-9.1294854e+69
-9.1603413e+69
-9.1251464e+69
-9.1275931e+69
-9.1603045e+69
-9.1570023e+69
-9.2245262e+69
-9.1996637e+69
-9.1987705e+69
-9.2234991e+69
-9.2226061e+69
-9.1986296e+69
-9.1960827e+69
-9.2194373e+69
-9.1543408e+69
-9.1236215e+69
-9.1249462e+69
-9.1543319e+69
-9.1236247e+69
-9.1268175e+69
-9.1543377e+69
-9.1532311e+69
-9.2192497e+69
-9.1956155e+69
-9.1967206e+69
-9.2208368e+69
-9.0775166e+69
-9.0746909e+69
-9.0722189e+69
-9.0785568e+69
-9.0640984e+69
-9.0636593e+69
-9.0771973e+69
-9.0779465e+69
-9.0779436e+69
-9.0680512e+69
-9.1976479e+69
-9.223353e+69
-9.2679285e+69
-9.267463e+69
-9.2942208e+69
-9.2940431e+69
-9.268452e+69
-9.2699978e+69
-9.2964649e+69
-9.2939877e+69
-9.3682806e+69
-9.3403892e+69
-9.3388359e+69
-9.3652078e+69
-9.3652373e+69
-9.3398589e+69
-9.3398432e+69
-9.3649591e+69
-9.3008633e+69
-9.2740319e+69
-9.2734475e+69
-9.2993463e+69
-9.2698761e+69
-9.2712168e+69
-9.297856e+69
-9.2962198e+69
-9.345022e+69
-9.3454515e+69
-9.3733317e+69
-9.3715626e+69
-9.3704152e+69
-9.3438849e+69
-9.3426715e+69
-9.3700624e+69
-9.4502319e+69
-9.422061e+69
-9.4213932e+69
-9.4492555e+69
-9.4207146e+69
-9.4209027e+69
-9.4489996e+69
-9.4486303e+69
-9.4993305e+69
-9.4996872e+69
-9.5316287e+69
-9.5307568e+69
-9.5300696e+69
-9.4987746e+69
-9.4986703e+69
-9.5302263e+69
-9.4478099e+69
-9.4197099e+69
-9.4167998e+69
-9.4444763e+69
-9.4146446e+69
-9.4157905e+69
-9.4432431e+69
-9.4407751e+69
-9.494611e+69
-9.4979064e+69
-9.529917e+69
-9.5257107e+69
-9.5233304e+69
-9.4923225e+69
-9.4896182e+69
-9.5207194e+69
-9.868409e+69
-9.8503275e+69
-9.8681686e+69
-9.8509259e+69
-9.9015728e+69
-9.9205327e+69
-9.92106e+69
-9.902154e+69
-9.8516817e+69
-9.8691206e+69
-9.8511651e+69
-9.8688053e+69
-9.9023538e+69
-9.9211152e+69
-9.9025431e+69
-9.9209129e+69
-9.7586081e+69
-9.772323e+69
-9.7723257e+69
-9.7588291e+69
-9.7588395e+69
-9.7586864e+69
-9.7724633e+69
-9.7725668e+69
-9.8177571e+69
-9.8035841e+69
-9.8176292e+69
-9.803887e+69
-9.7705814e+69
-9.7560843e+69
-9.7700452e+69
-9.7569324e+69
-9.8013572e+69
-9.8157524e+69
-9.8165226e+69
-9.8022147e+69
-9.771694e+69
-9.7574142e+69
-9.7711552e+69
-9.7582138e+69
-9.8026454e+69
-9.8167679e+69
-9.803301e+69
-9.8173757e+69
-9.8520489e+69
-9.8696267e+69
-9.8697106e+69
-9.852135e+69
-9.672043e+69
-9.6721575e+69
-9.68063e+69
-9.6806458e+69
-9.7122924e+69
-9.7236558e+69
-9.7237727e+69
-9.7121571e+69
-9.6720765e+69
-9.6719825e+69
-9.6805764e+69
-9.6806365e+69
-9.7117267e+69
-9.7117211e+69
-9.7235999e+69
-9.7236627e+69
-9.6793755e+69
-9.6706321e+69
-9.6783577e+69
-9.6719903e+69
-9.7094136e+69
-9.7210552e+69
-9.7220706e+69
-9.7107621e+69
-9.6802835e+69
-9.6718666e+69
-9.6797946e+69
-9.6723745e+69
-9.7110361e+69
-9.7225393e+69
-9.7117169e+69
-9.7234005e+69
-9.6348803e+69
-9.6371458e+69
-9.6384525e+69
-9.6401887e+69
-9.639603e+69
-9.6397762e+69
-9.636502e+69
-9.6365933e+69
-9.5799051e+69
-9.5801101e+69
-9.6365377e+69
-9.6374278e+69
-9.6399571e+69
-9.6404449e+69
-9.6398676e+69
-9.6395007e+69
-9.6359625e+69
-9.6351307e+69
-9.5791085e+69
-9.5806891e+69
-9.6345754e+69
-9.6345328e+69
-9.6394648e+69
-9.6386551e+69
-9.6369012e+69
-9.6358998e+69
-9.6327035e+69
-9.6320532e+69
-9.578112e+69
-9.5756577e+69
-9.6791169e+69
-9.6718832e+69
-9.6803309e+69
-9.6709221e+69
-1.05113e+70
-1.0515012e+70
-1.051515e+70
-1.0513049e+70
-1.0514547e+70
-1.050981e+70
-1.051558e+70
-1.0512667e+70
-1.0510408e+70
-1.0513814e+70
-1.0514327e+70
-1.0512086e+70
-1.0512734e+70
-1.0516849e+70
-1.0515607e+70
-1.0511823e+70
-1.0515592e+70
-1.0513204e+70
-1.0516107e+70
-1.0511908e+70
-1.051415e+70
-1.0509939e+70
-1.0516016e+70
-1.0512513e+70
-1.0514399e+70
-1.0511636e+70
-1.0511168e+70
-1.0514302e+70
-1.051173e+70
-1.0516003e+70
-1.0512154e+70
-1.0515686e+70
-9.9369091e+69
-9.6690348e+69
-1.0027551e+70
-1.0034723e+70
-9.6734677e+69
-1.0029973e+70
-1.0040132e+70
-1.0343384e+70
-1.0340849e+70
-1.017866e+70
-1.0371441e+70
-1.0371675e+70
-1.0338776e+70
-1.0340859e+70
-1.0184031e+70
-1.0369849e+70
-1.0367068e+70
-1.0435163e+70
-1.0429512e+70
-1.0468161e+70
-1.0469647e+70
-1.0426128e+70
-1.0426739e+70
-1.0428462e+70
-1.0433763e+70
-1.0469243e+70
-1.0468468e+70
-1.0426405e+70
-1.0426772e+70
-1.0416998e+70
-1.0415837e+70
-1.0425587e+70
-1.0425709e+70
-1.0425593e+70
-1.0415426e+70
-1.0417288e+70
-1.0426034e+70
-1.0413629e+70
-1.041447e+70
-1.0414951e+70
-1.0413298e+70
-1.0399345e+70
-1.0414582e+70
-1.0410574e+70
-1.0395369e+70
-1.0416033e+70
-1.0415837e+70
-1.0415484e+70
-1.0415314e+70
-1.0411491e+70
-1.0414324e+70
-1.0397256e+70
-1.0393649e+70
-1.0414936e+70
-1.0415078e+70
-1.0413509e+70
-1.0414585e+70
-1.0392253e+70
-1.0409842e+70
-1.0412934e+70
-1.0394494e+70
-1.0415809e+70
-1.0415478e+70
-1.0415509e+70
-1.0415636e+70
-1.0413204e+70
-1.0412836e+70
-1.0394205e+70
-1.0396312e+70
-1.0416394e+70
-1.0414508e+70
-1.0424509e+70
-1.0424973e+70
-1.0425406e+70
-1.0416774e+70
-1.0416118e+70
-1.0425724e+70
-1.0434889e+70
-1.0428755e+70
-1.0469772e+70
-1.0468571e+70
-1.0426584e+70
-1.0426944e+70
-1.0429981e+70
-1.0434213e+70
-1.0469421e+70
-1.0469016e+70
-1.0426743e+70
-1.0426664e+70
-1.0424976e+70
-1.0414465e+70
-1.0424984e+70
-1.0416075e+70
-1.0416155e+70
-1.041517e+70
-1.0425064e+70
-1.0424976e+70
-1.0424861e+70
-1.0414842e+70
-1.0425263e+70
-1.0416705e+70
-1.0416154e+70
-1.0415317e+70
-1.042507e+70
-1.0425115e+70
-1.0413635e+70
-1.0415146e+70
-1.0414597e+70
-1.0413591e+70
-1.0415161e+70
-1.0414995e+70
-1.0413528e+70
-1.0414101e+70
-1.0411092e+70
-1.039182e+70
-1.0391683e+70
-1.040999e+70
-1.0393383e+70
-1.0411682e+70
-1.0411719e+70
-1.0393239e+70
-1.0408636e+70
-1.0413235e+70
-1.0396888e+70
-1.0390168e+70
-1.0396442e+70
-1.0411776e+70
-1.0409772e+70
-1.0395469e+70
-1.0414988e+70
-1.0415408e+70
-1.0413716e+70
-1.041363e+70
-1.0414695e+70
-1.0414566e+70
-1.0412355e+70
-1.0412791e+70
-1.0116196e+70
-1.0115227e+70
-1.0260565e+70
-1.0341417e+70
-1.0343535e+70
-1.0178624e+70
-1.0373497e+70
-1.0370717e+70
-1.0345492e+70
-1.0342561e+70
-1.0189021e+70
-1.0373823e+70
-1.0374572e+70
-1.0402936e+70
-1.0432453e+70
-1.0436575e+70
-1.0472809e+70
-1.0431422e+70
-1.0472004e+70
-1.0430444e+70
-1.0437092e+70
-1.043159e+70
-1.0472585e+70
-1.0473359e+70
-1.0432634e+70
-1.0432503e+70
-1.0436497e+70
-1.0431875e+70
-1.0471556e+70
-1.0471517e+70
-1.0429423e+70
-1.0428823e+70
-1.0429454e+70
-1.0435288e+70
-1.0470907e+70
-1.0469616e+70
-1.042795e+70
-1.0427134e+70
-1.0372618e+70
-1.0371763e+70
-1.0380946e+70
-1.0384174e+70
-1.0408574e+70
-1.0434247e+70
-1.0421357e+70
-1.0422496e+70
-1.0432338e+70
-1.0432737e+70
-1.0422661e+70
-1.0420724e+70
-1.0431617e+70
-1.0432435e+70
-1.0420279e+70
-1.0421487e+70
-1.0431126e+70
-1.043144e+70
-1.0430469e+70
-1.0420574e+70
-1.0418763e+70
-1.0429748e+70
-1.042384e+70
-1.0422798e+70
-1.0420713e+70
-1.0420034e+70
-1.0392164e+70
-1.0415231e+70
-1.0415309e+70
-1.039029e+70
-1.0423046e+70
-1.0421175e+70
-1.0422812e+70
-1.0421814e+70
-1.0415348e+70
-1.0416219e+70
-1.0390787e+70
-1.03896e+70
-1.0423072e+70
-1.0421827e+70
-1.0421531e+70
-1.0422009e+70
-1.0388935e+70
-1.0415517e+70
-1.0419146e+70
-1.0395096e+70
-1.0396421e+70
-1.0417377e+70
-1.0414129e+70
-1.0394928e+70
-1.0420875e+70
-1.0420572e+70
-1.0418409e+70
-1.0419514e+70
-1.0418751e+70
-1.0417925e+70
-1.0429105e+70
-1.0428617e+70
-1.0417508e+70
-1.0418697e+70
-1.0428584e+70
-1.0428212e+70
-1.0419251e+70
-1.0420565e+70
-1.0418631e+70
-1.0418612e+70
-1.0389514e+70
-1.041294e+70
-1.0415881e+70
-1.0392664e+70
-1.0418718e+70
-1.0419084e+70
-1.0418956e+70
-1.0418508e+70
-1.0414559e+70
-1.0415608e+70
-1.0393753e+70
-1.0394312e+70
-1.0427536e+70
-1.0416519e+70
-1.0417975e+70
-1.0427513e+70
-1.0426567e+70
-1.0416777e+70
-1.0415488e+70
-1.0426038e+70
-1.0417577e+70
-1.0418501e+70
-1.0418324e+70
-1.041794e+70
-1.0415542e+70
-1.0415907e+70
-1.0415958e+70
-1.04146e+70
-1.0417044e+70
-1.0412911e+70
-1.0390841e+70
-1.0397031e+70
-1.0412068e+70
-1.0415212e+70
-1.0396784e+70
-1.0394852e+70
-8.0579808e+69
-1.0509047e+70
-1.0507733e+70
-1.0507872e+70
-1.0509178e+70
-1.0506554e+70
-1.0511641e+70
-1.0511165e+70
-1.0509439e+70
-1.0509874e+70
-1.0507849e+70
-1.0510304e+70
-1.0510192e+70
-1.0508001e+70
-1.0510973e+70
-1.0510286e+70
-1.0507312e+70
-1.0509392e+70
-1.0510157e+70
-1.0509528e+70
-1.0506201e+70
-1.0506536e+70
-1.0511186e+70
-1.0508173e+70
-1.0510183e+70
-1.0504843e+70
-1.0505211e+70
-1.0504453e+70
-1.0502321e+70
-1.0508061e+70
-1.0500956e+70
-1.0508205e+70
-1.0509471e+70
-8.1161883e+69
-9.3734977e+69
-9.3417711e+69
-9.3407257e+69
-9.3720861e+69
-9.3039812e+69
-9.2705553e+69
-9.3029766e+69
-9.5955002e+69
-9.5954077e+69
-9.4708961e+69
-9.5669655e+69
-9.5664458e+69
-9.4733568e+69
-9.3971554e+69
-9.3964123e+69
-9.6527561e+69
-9.6858853e+69
-9.6531381e+69
-9.685777e+69
-9.7529197e+69
-9.7530255e+69
-9.786578e+69
-9.2450044e+69
-9.2517684e+69
-9.3176757e+69
-9.3135463e+69
-8.7845245e+69
-8.9394115e+69
-8.7956651e+69
-8.9423309e+69
-8.2920936e+69
-9.0778377e+69
-9.1835429e+69
-9.1407671e+69
-9.130369e+69
-9.1749049e+69
-9.0792703e+69
-9.0844617e+69
-9.1369171e+69
-9.1262336e+69
-1.044293e+70
-1.0413538e+70
-1.0440386e+70
-1.0415178e+70
-1.0470597e+70
-1.0471243e+70
-1.0473561e+70
-1.0472423e+70
-1.0413644e+70
-1.0439774e+70
-1.0415098e+70
-1.0442552e+70
-1.0471666e+70
-1.0472605e+70
-1.0469414e+70
-1.0468904e+70
-1.0246317e+70
-1.0284028e+70
-1.0285301e+70
-1.0247324e+70
-1.0246808e+70
-1.024721e+70
-1.0285451e+70
-1.0284341e+70
-1.0367377e+70
-1.0329643e+70
-1.0366038e+70
-1.0330652e+70
-1.032966e+70
-1.0365218e+70
-1.0330758e+70
-1.0367318e+70
-1.0284169e+70
-1.0244907e+70
-1.0282789e+70
-1.0245722e+70
-1.0328313e+70
-1.0364638e+70
-1.0366854e+70
-1.0329811e+70
-1.028317e+70
-1.0245868e+70
-1.0284437e+70
-1.0245368e+70
-1.0330147e+70
-1.0367048e+70
-1.0329139e+70
-1.0365225e+70
-1.0414271e+70
-1.0440533e+70
-1.0442548e+70
-1.0415114e+70
-1.0469138e+70
-1.0469698e+70
-1.0471628e+70
-1.0473066e+70
-1.0414944e+70
-1.0413539e+70
-1.0442312e+70
-1.0439793e+70
-1.0472896e+70
-1.0469284e+70
-1.0469688e+70
-1.047124e+70
-1.0248302e+70
-1.0285709e+70
-1.0286966e+70
-1.0249107e+70
-1.0247964e+70
-1.0248641e+70
-1.0286814e+70
-1.0285417e+70
-1.0368822e+70
-1.0331151e+70
-1.0367354e+70
-1.0332169e+70
-1.0330557e+70
-1.0366015e+70
-1.0331923e+70
-1.036842e+70
-1.0286258e+70
-1.0247348e+70
-1.02848e+70
-1.0248316e+70
-1.0330018e+70
-1.0365725e+70
-1.036805e+70
-1.0331604e+70
-1.028566e+70
-1.0248443e+70
-1.0286569e+70
-1.0248092e+70
-1.0332028e+70
-1.0368436e+70
-1.0331422e+70
-1.0367126e+70
-1.0415303e+70
-1.044159e+70
-1.0443939e+70
-1.041629e+70
-1.041571e+70
-1.0443356e+70
-1.041402e+70
-1.0440471e+70
-1.0471442e+70
-1.0474993e+70
-1.0471037e+70
-1.0473091e+70
-1.0469882e+70
-1.0472331e+70
-1.0474253e+70
-1.0470277e+70
-1.0470018e+70
-1.0470382e+70
-1.0475306e+70
-1.0473638e+70
-1.0443685e+70
-1.0414097e+70
-1.0440489e+70
-1.0415854e+70
-1.0415204e+70
-1.041607e+70
-1.0443366e+70
-1.0441414e+70
-1.0471016e+70
-1.047236e+70
-1.0473814e+70
-1.0471503e+70
-1.0114786e+70
-1.0079784e+70
-1.0114125e+70
-1.0080457e+70
-1.0158947e+70
-1.0194963e+70
-1.0196395e+70
-1.0159927e+70
-1.011478e+70
-1.008055e+70
-1.0115096e+70
-1.0080706e+70
-1.0160396e+70
-1.0196691e+70
-1.0160016e+70
-1.0196058e+70
-9.9525244e+69
-9.9743096e+69
-9.9747805e+69
-9.9530192e+69
-9.9530102e+69
-9.9748401e+69
-9.9747596e+69
-9.9530952e+69
-1.0010928e+70
-1.0034689e+70
-1.0035546e+70
-1.0011692e+70
-1.0011659e+70
-1.0035473e+70
-1.0035472e+70
-1.0011858e+70
-9.953111e+69
-9.9749112e+69
-9.9751335e+69
-9.9534121e+69
-9.9531961e+69
-9.9533458e+69
-9.9751963e+69
-9.974935e+69
-1.0011662e+70
-1.0035438e+70
-1.0035857e+70
-1.0012039e+70
-1.0011455e+70
-1.0011744e+70
-1.003569e+70
-1.0035147e+70
-1.0080582e+70
-1.0115132e+70
-1.0115556e+70
-1.0080746e+70
-1.0080242e+70
-1.0080558e+70
-1.0115311e+70
-1.0114662e+70
-1.0196212e+70
-1.01972e+70
-1.0160105e+70
-1.0160624e+70
-1.0159421e+70
-1.0160149e+70
-1.0196682e+70
-1.019555e+70
-1.0111472e+70
-1.0076407e+70
-1.0110807e+70
-1.0077068e+70
-1.0155397e+70
-1.0191865e+70
-1.0193165e+70
-1.0156453e+70
-1.0077426e+70
-1.0111771e+70
-1.0077404e+70
-1.0111999e+70
-1.0157139e+70
-1.0193596e+70
-1.0157005e+70
-1.0192904e+70
-9.950542e+69
-9.9724031e+69
-9.9729684e+69
-9.9512645e+69
-9.951546e+69
-9.9734818e+69
-9.973642e+69
-9.9519358e+69
-1.0033827e+70
-1.0009231e+70
-1.0033197e+70
-1.0009792e+70
-1.0034039e+70
-1.0010198e+70
-1.003416e+70
-1.0010488e+70
-9.9713549e+69
-9.9492569e+69
-9.9710229e+69
-9.9497084e+69
-1.0007545e+70
-1.0031414e+70
-1.003218e+70
-1.0008182e+70
-9.9715295e+69
-9.9497998e+69
-9.9716357e+69
-9.9498467e+69
-1.0008506e+70
-1.0032436e+70
-1.0008594e+70
-1.0032357e+70
-1.0078305e+70
-1.0112803e+70
-1.0113545e+70
-1.0078792e+70
-1.0079123e+70
-1.0113805e+70
-1.0079067e+70
-1.0113545e+70
-1.0193947e+70
-1.019532e+70
-1.0157834e+70
-1.0158829e+70
-1.0158501e+70
-1.0158857e+70
-1.0195257e+70
-1.0194435e+70
-9.8563132e+69
-9.8379423e+69
-9.8561624e+69
-9.8382987e+69
-9.8902611e+69
-9.9095847e+69
-9.9101461e+69
-9.8907391e+69
-9.8386794e+69
-9.8567267e+69
-9.8384229e+69
-9.8565918e+69
-9.890927e+69
-9.9101809e+69
-9.8910243e+69
-9.9099807e+69
-9.7430447e+69
-9.7571079e+69
-9.7573132e+69
-9.7433348e+69
-9.7440806e+69
-9.7434187e+69
-9.757633e+69
-9.7582818e+69
-9.8042012e+69
-9.789188e+69
-9.8037548e+69
-9.7896783e+69
-9.7903068e+69
-9.8049619e+69
-9.7897454e+69
-9.8044538e+69
-9.7561423e+69
-9.7420211e+69
-9.7560467e+69
-9.7422839e+69
-9.7880798e+69
-9.8026559e+69
-9.8031073e+69
-9.7885038e+69
-9.75645e+69
-9.7423612e+69
-9.7563292e+69
-9.7426841e+69
-9.7886294e+69
-9.8031088e+69
-9.7888828e+69
-9.8033174e+69
-9.8392098e+69
-9.8575077e+69
-9.8579399e+69
-9.8395375e+69
-9.839899e+69
-9.858289e+69
-9.8404931e+69
-9.8587399e+69
-9.9107132e+69
-9.9114408e+69
-9.8915546e+69
-9.8921172e+69
-9.8927318e+69
-9.8923303e+69
-9.9117141e+69
-9.911971e+69
-9.6561396e+69
-9.656367e+69
-9.6643791e+69
-9.6645413e+69
-9.6963954e+69
-9.7074592e+69
-9.7076769e+69
-9.6961853e+69
-9.6560269e+69
-9.6567216e+69
-9.6652245e+69
-9.6645262e+69
-9.6960389e+69
-9.696667e+69
-9.7076644e+69
-9.7082823e+69
-9.6637615e+69
-9.6557982e+69
-9.6633791e+69
-9.6564633e+69
-9.6951469e+69
-9.706352e+69
-9.7067289e+69
-9.6958303e+69
-9.6637441e+69
-9.6559592e+69
-9.6636355e+69
-9.6562268e+69
-9.6955293e+69
-9.7067287e+69
-9.6957235e+69
-9.7070737e+69
-9.6208604e+69
-9.6226708e+69
-9.6234854e+69
-9.6246311e+69
-9.6237996e+69
-9.6236898e+69
-9.6217684e+69
-9.6214565e+69
-9.5647891e+69
-9.5168177e+69
-9.4880329e+69
-9.4879977e+69
-9.5161245e+69
-9.5648643e+69
-9.6212736e+69
-9.6221333e+69
-9.6237093e+69
-9.6243091e+69
-9.623802e+69
-9.6243214e+69
-9.6211469e+69
-9.6213238e+69
-9.5166593e+69
-9.489493e+69
-9.4910505e+69
-9.5184935e+69
-9.5660188e+69
-9.5658092e+69
-9.4398838e+69
-9.4137933e+69
-9.4139357e+69
-9.4395322e+69
-9.4166954e+69
-9.4150006e+69
-9.4409961e+69
-9.4421447e+69
-9.6226441e+69
-9.6239071e+69
-9.6247694e+69
-9.6257103e+69
-9.625425e+69
-9.6255914e+69
-9.6229057e+69
-9.6226101e+69
-9.5174759e+69
-9.4902563e+69
-9.4906258e+69
-9.5183767e+69
-9.567412e+69
-9.567257e+69
-9.6213709e+69
-9.6231627e+69
-9.6244168e+69
-9.6254363e+69
-9.6246866e+69
-9.6249569e+69
-9.6226571e+69
-9.622916e+69
-9.5189682e+69
-9.491185e+69
-9.4902999e+69
-9.5180588e+69
-9.566862e+69
-9.5663683e+69
-9.6569073e+69
-9.6574924e+69
-9.6654385e+69
-9.6652686e+69
-9.6968361e+69
-9.6971408e+69
-9.7084447e+69
-9.7085895e+69
-9.6654483e+69
-9.6569649e+69
-9.6650351e+69
-9.6574997e+69
-9.7081003e+69
-9.6965761e+69
-9.6969829e+69
-9.7084645e+69
-9.4424515e+69
-9.4169501e+69
-9.4155717e+69
-9.4415154e+69
-9.4180484e+69
-9.4166082e+69
-9.4425035e+69
-9.4431138e+69