/*--------------------------------*- C++ -*----------------------------------*\
  =========                 |
  \\      /  F ield         | OpenFOAM: The Open Source CFD Toolbox
   \\    /   O peration     | Website:  https://openfoam.org
    \\  /    A nd           | Version:  7
     \\/     M anipulation  |
\*---------------------------------------------------------------------------*/
FoamFile
{
    version     2.0;
    format      ascii;
    class       volScalarField;
    location    "2000";
    object      k;
}
// * * * * * * * * * * * * * * * * * * * * * * * * * * * * * * * * * * * * * //

dimensions      [0 2 -2 0 0 0 0];

internalField   nonuniform List<scalar> 
34251
(
1.5210715
1.5171073
1.520097
1.5214886
1.5202032
1.5216646
1.5205579
1.5211401
1.5212938
1.5170151
1.5162774
1.5164362
1.5159219
1.5193675
1.5193083
1.5204538
1.5204051
1.5194002
1.5193407
1.5205791
1.520527
1.5213225
1.521006
1.5208834
1.5211692
1.5197299
1.5198314
1.5197195
1.5198474
1.5206436
1.5209412
1.5202138
1.5205027
1.5202035
1.5202379
1.5203371
1.5202977
1.5179008
1.5186746
1.5154626
1.5173157
1.5177137
1.5159659
1.5155414
1.5150276
1.5157547
1.5162264
1.5169765
1.5170071
1.5154129
1.5153148
1.5150173
1.5149187
1.515762
1.5156685
1.5196764
1.5186705
1.5196564
1.5186113
1.5196414
1.5186193
1.5196388
1.5197548
1.5186441
1.5197078
1.5186474
1.5186391
1.5196992
1.5196722
1.5203721
1.5203275
1.5201409
1.5201131
1.5200971
1.5201174
1.5201826
1.5202154
1.521074
1.5201329
1.5200498
1.5200082
1.5200852
1.5209515
1.5202725
1.5202259
1.520023
1.52006
1.5207344
1.5206538
1.5193037
1.5192992
1.5193362
1.5197752
1.5193382
1.5193069
1.5193065
1.5193721
1.5193068
1.5193068
1.5193402
1.5193437
1.5197539
1.5193
1.5192917
1.5193581
1.519362
1.5196484
1.5196317
1.5197499
1.5198928
1.5193583
1.5194001
1.5193169
1.5202963
1.5196709
1.5197054
1.5196827
1.5196525
1.5204852
1.519767
1.5198161
1.5197883
1.5199679
1.5194887
1.5194636
1.5194715
1.5195236
1.51952
1.5194987
1.5177639
1.5184151
1.5151881
1.5169574
1.5173899
1.5156468
1.5155328
1.5152831
1.5150971
1.5154937
1.51499
1.5149558
1.5148342
1.514879
1.5148436
1.5158525
1.5158287
1.5147911
1.5150465
1.5155551
1.5160366
1.5166948
1.516739
1.515177
1.515066
1.5149661
1.5150222
1.5149188
1.5148355
1.5147775
1.5148854
1.5148864
1.5147845
1.5148726
1.514776
1.5158086
1.5147459
1.5147378
1.5158147
1.5158011
1.5179889
1.518001
1.5190272
1.5190223
1.5179318
1.5179215
1.5189825
1.5189812
1.5190027
1.5179443
1.517943
1.5189847
1.5179465
1.5179398
1.5190389
1.5190195
1.5179499
1.5179418
1.5190305
1.5190283
1.5179573
1.5179583
1.5190291
1.5190071
1.5198966
1.519338
1.5195528
1.5193184
1.5193416
1.5195245
1.5195543
1.5193941
1.5192897
1.5192738
1.5192989
1.5194021
1.5193716
1.5193453
1.5193689
1.519402
1.5193734
1.5201653
1.5194027
1.5193628
1.5193925
1.5201919
1.5192801
1.5193052
1.5193841
1.5193524
1.5192957
1.5193722
1.5200775
1.5200937
1.5193224
1.5192622
1.5192432
1.5193315
1.5193095
1.5193534
1.5193421
1.5193275
1.5201238
1.5193469
1.5193297
1.519361
1.5200727
1.519378
1.5193044
1.5193734
1.5192718
1.5193463
1.5200397
1.5199949
1.5192997
1.5192856
1.5194961
1.5194965
1.5195163
1.5193659
1.5193161
1.5195451
1.5193691
1.5192696
1.5193142
1.5194031
1.519345
1.519255
1.5192372
1.5193511
1.5207951
1.520138
1.5201694
1.5201507
1.5201259
1.5207114
1.520096
1.5201167
1.5200717
1.5200582
1.5203811
1.5203444
1.5189385
1.5189324
1.5193272
1.5189862
1.5189913
1.5188864
1.5189294
1.5193275
1.5189874
1.5189512
1.5187949
1.5188257
1.5188513
1.5188762
1.519264
1.5192605
1.5188616
1.5188903
1.5188588
1.5188829
1.5188633
1.5188657
1.5189074
1.5189051
1.5188565
1.5189002
1.5188611
1.5189011
1.5188638
1.5189334
1.5188686
1.5189343
1.518955
1.5189545
1.5193269
1.5190058
1.5190041
1.5189521
1.518952
1.5193303
1.5190026
1.5190023
1.5188823
1.5189109
1.5188851
1.5189088
1.518878
1.5189055
1.5188815
1.518906
1.5192653
1.5192662
1.5188389
1.5188838
1.5188352
1.5188757
1.5187649
1.5188171
1.5188258
1.5188682
1.5187737
1.5188547
1.518833
1.5189017
1.5188465
1.5189177
1.5188419
1.5189082
1.5192579
1.5192548
1.5192864
1.5192866
1.5192599
1.5192563
1.519287
1.5192862
1.5193543
1.5193253
1.5193525
1.5193792
1.5193884
1.5193226
1.5194165
1.5193549
1.5195158
1.5190245
1.5190677
1.5189863
1.5190013
1.5190492
1.5190311
1.5189151
1.5189454
1.5189337
1.518887
1.5188193
1.5188939
1.5188741
1.5197018
1.5197227
1.5196305
1.5196252
1.5193645
1.5193741
1.5193394
1.5193467
1.5192955
1.5192847
1.5192823
1.5192944
1.519291
1.5192764
1.5192813
1.5192928
1.5193638
1.5193588
1.5193368
1.5193339
1.5197161
1.5198146
1.5199173
1.5194806
1.5194645
1.5194474
1.5194303
1.5193631
1.5193861
1.5193696
1.5193924
1.5195251
1.5195559
1.5196672
1.519887
1.5188795
1.5188901
1.5188339
1.5188375
1.5188619
1.5188462
1.5188875
1.51887
1.5188815
1.5188841
1.5188816
1.5188624
1.5177175
1.5182879
1.5149885
1.5148888
1.5148545
1.5169533
1.5173159
1.5154124
1.515141
1.5154254
1.5150397
1.5154202
1.5148021
1.5148392
1.5148039
1.5148265
1.514779
1.5148123
1.5148994
1.5149194
1.5159342
1.5159301
1.5148645
1.5148732
1.515905
1.5159002
1.5147517
1.5147791
1.5147741
1.5147596
1.5149698
1.5150225
1.5149247
1.5150046
1.5153116
1.5155768
1.5152637
1.5150261
1.5151158
1.5160738
1.5160187
1.5166646
1.516725
1.5150011
1.5149372
1.5148718
1.5148867
1.5147995
1.5147953
1.5148871
1.5148033
1.5147479
1.5147549
1.5148315
1.5148835
1.5147913
1.5147432
1.5147302
1.5147611
1.5147709
1.5148666
1.5148354
1.5159017
1.5158675
1.5147085
1.5147201
1.514736
1.5147289
1.5147056
1.514703
1.5147226
1.5147247
1.514831
1.5148214
1.5158824
1.5158668
1.514837
1.5148327
1.515907
1.5158944
1.5171296
1.5168395
1.5168779
1.5186169
1.5186126
1.5169018
1.51683
1.5186228
1.5186296
1.51677
1.51682
1.5185658
1.5185602
1.5167828
1.5167505
1.518567
1.5185654
1.516766
1.5168005
1.5185945
1.5185875
1.5168307
1.516781
1.5185804
1.5185786
1.5167383
1.5167775
1.5186096
1.518601
1.5167894
1.5167568
1.5185949
1.5185904
1.5167575
1.5167969
1.518605
1.5186014
1.5167724
1.5167458
1.5186105
1.518605
1.5167686
1.5167944
1.5186121
1.5186051
1.5168373
1.5168026
1.5186004
1.5185913
1.5203984
1.5185869
1.5187384
1.5185648
1.5187135
1.5187106
1.5189144
1.5186904
1.5188911
1.5185898
1.5185652
1.5187366
1.5187091
1.5185868
1.5185937
1.5187375
1.5187371
1.5187094
1.518907
1.5186869
1.5188816
1.5187085
1.5187128
1.5189091
1.5189064
1.5184664
1.5184437
1.5186291
1.5186004
1.5184008
1.5183786
1.5185233
1.5184943
1.5183797
1.5184069
1.5185267
1.5184933
1.5184064
1.5184129
1.518528
1.5185274
1.5184702
1.5184768
1.5186296
1.5186292
1.5184719
1.5184452
1.51863
1.5185983
1.5185577
1.5185293
1.5194172
1.5186475
1.5186716
1.5185635
1.5185634
1.5194441
1.5186779
1.518675
1.5183988
1.5184527
1.5184035
1.5184511
1.518394
1.5184475
1.5183698
1.5184154
1.5193766
1.5193551
1.5186064
1.5194772
1.5187734
1.5187255
1.5185512
1.5185349
1.5194394
1.518664
1.5186526
1.5183858
1.5183732
1.5184422
1.5184199
1.5193767
1.5194057
1.5183383
1.518312
1.5184241
1.5183907
1.5183419
1.5184285
1.5183465
1.5184266
1.5183448
1.5184766
1.5183497
1.5184745
1.5183427
1.5184742
1.5183154
1.5184391
1.5183137
1.518393
1.5183154
1.5184703
1.5184411
1.5202355
1.5194105
1.5194252
1.519448
1.5194261
1.5194452
1.5194338
1.5194748
1.519451
1.5202987
1.5202317
1.5182803
1.518415
1.5182916
1.5184174
1.5183381
1.518302
1.5184207
1.5183795
1.5182746
1.518363
1.5182866
1.5183664
1.5183409
1.5183064
1.5184692
1.5184292
1.5184906
1.5184996
1.5193881
1.5186136
1.5185985
1.5183955
1.518446
1.5183576
1.5184028
1.518328
1.5183846
1.5183418
1.5183897
1.5185561
1.5185129
1.5193982
1.5186684
1.5186261
1.5193391
1.5193245
1.5186335
1.5187059
1.5194014
1.5188017
1.518736
1.5185597
1.5185478
1.5193985
1.5186547
1.5186658
1.5184026
1.5184548
1.5183977
1.5184449
1.5193345
1.5193353
1.5184844
1.5185372
1.5185807
1.5186225
1.5184404
1.5185254
1.5185473
1.5186169
1.5184553
1.5185811
1.5185667
1.5186722
1.5183499
1.5184344
1.518348
1.5184269
1.5183558
1.518483
1.5183569
1.5184779
1.5193913
1.5193833
1.519401
1.5194085
1.5193861
1.5194031
1.519394
1.5193753
1.5185809
1.5185558
1.5187244
1.5186975
1.5185349
1.5186879
1.5185441
1.5186888
1.5186972
1.5188878
1.5186765
1.5188645
1.51866
1.5188606
1.5186661
1.5188585
1.5187132
1.5189049
1.5187242
1.5189079
1.5187089
1.5188043
1.5188454
1.5189164
1.5185957
1.5187407
1.5186057
1.5187441
1.5188234
1.5189042
1.5184823
1.5186358
1.5184904
1.5186366
1.5184182
1.5184227
1.5185361
1.5185348
1.5185251
1.5186349
1.5186407
1.5187299
1.5185953
1.5187008
1.5187421
1.5188234
1.5184141
1.5185767
1.5184251
1.5185784
1.5184038
1.5183714
1.5185214
1.518485
1.5183467
1.5184701
1.5183576
1.5184732
1.5184676
1.5184383
1.5186213
1.518588
1.5201807
1.5201653
1.5200763
1.5200732
1.5196294
1.5196749
1.5196746
1.5196275
1.5195267
1.5195247
1.5195246
1.519519
1.5195091
1.5195115
1.5195017
1.5194939
1.5196148
1.5196581
1.5196551
1.5196049
1.5201062
1.5201443
1.520053
1.520024
1.5196339
1.5196305
1.5195848
1.5195889
1.5194794
1.519471
1.5194753
1.5194864
1.5194589
1.5194781
1.5194694
1.5194516
1.519608
1.5196295
1.519582
1.5195587
1.5201028
1.5200629
1.5178981
1.5178993
1.5180759
1.5180695
1.5180982
1.5180873
1.517927
1.5179282
1.5190248
1.5189816
1.5189815
1.5190188
1.5179376
1.5179089
1.5176645
1.5176764
1.5178739
1.5178803
1.5180368
1.5180274
1.5178487
1.5178515
1.5189783
1.5189443
1.5189915
1.5190199
1.5178608
1.5176834
1.5178555
1.5178748
1.5180445
1.5180305
1.5180119
1.5180362
1.518162
1.5181804
1.5181702
1.5180237
1.5181794
1.5180221
1.5182975
1.5181647
1.5181615
1.518289
1.518965
1.51896
1.5189985
1.5189981
1.5189548
1.5189192
1.5189645
1.5189939
1.5182068
1.5180639
1.5182113
1.5180639
1.5183237
1.518197
1.5181976
1.518321
1.5182175
1.5180871
1.5182288
1.5180828
1.5183369
1.5182152
1.518209
1.5183257
1.5183519
1.5184414
1.5184396
1.5183535
1.5183704
1.5183735
1.5184595
1.5184526
1.5185107
1.5184269
1.5185113
1.5184288
1.5184432
1.5185213
1.518446
1.5185274
1.5184336
1.5183451
1.518433
1.5183483
1.5184176
1.5185008
1.5185031
1.5184222
1.5184329
1.5183568
1.5184443
1.518349
1.5184299
1.5185127
1.518422
1.5185022
1.5185508
1.5184858
1.5185469
1.5184921
1.5186005
1.5185308
1.5185381
1.518605
1.5184915
1.51855
1.5184988
1.5185593
1.5186129
1.5185441
1.5185376
1.5186043
1.5179478
1.5179488
1.5181209
1.5181142
1.5181483
1.5181391
1.5179805
1.517983
1.5190347
1.5189921
1.5189981
1.5190349
1.5179904
1.5179574
1.51795
1.5179504
1.5181202
1.5181139
1.518128
1.5181158
1.5179567
1.5179563
1.5190351
1.5189938
1.5189934
1.5190319
1.5179656
1.5179598
1.5181106
1.5181102
1.5182542
1.5182496
1.518242
1.518365
1.5183618
1.5182416
1.518139
1.5181369
1.5182695
1.518278
1.5182663
1.5182633
1.5183856
1.5183773
1.5182466
1.5181088
1.5182502
1.5181088
1.5182373
1.5183591
1.5183573
1.5182386
1.5182476
1.518118
1.5182599
1.5181121
1.5182479
1.5183696
1.5182402
1.5183572
1.5190108
1.518973
1.5189734
1.5190083
1.51898
1.5189706
1.5190079
1.5190124
1.5183995
1.5183091
1.5184007
1.5183109
1.5183845
1.5184713
1.5184713
1.5183872
1.5183161
1.5184002
1.5183228
1.5184105
1.5183949
1.5184783
1.5183884
1.5184686
1.5182746
1.5181435
1.5182522
1.5181709
1.5182328
1.5182643
1.5183358
1.5183624
1.5183714
1.5182827
1.5183788
1.5182794
1.5184531
1.5183627
1.5183601
1.518447
1.5184251
1.5183175
1.5183941
1.5183533
1.5183753
1.5184148
1.5184604
1.5184932
1.5184366
1.5185006
1.5184381
1.5185047
1.5185631
1.5184889
1.5184887
1.5185599
1.5185216
1.518456
1.51852
1.51846
1.5185756
1.5185034
1.5185084
1.5185777
1.5184575
1.5185165
1.5184634
1.5185246
1.5185782
1.5185086
1.5185038
1.518571
1.5189146
1.5188976
1.5189509
1.5189396
1.518894
1.5188509
1.5188998
1.5189351
1.5189179
1.5188796
1.518935
1.5189666
1.5189731
1.5189237
1.5189358
1.5189775
1.5189304
1.5189114
1.5189656
1.5189517
1.5189167
1.5189141
1.5189553
1.5189553
1.5189864
1.5189397
1.5189402
1.5189842
1.518983
1.5189356
1.5189506
1.518991
1.5190091
1.5189892
1.5190265
1.5190437
1.5189731
1.5189652
1.5190016
1.5190098
1.5190249
1.5189812
1.5189928
1.5190358
1.519028
1.5190078
1.5190516
1.5190689
1.5190658
1.5190246
1.5190429
1.5190794
1.5190436
1.5190065
1.5190222
1.5190574
1.5190993
1.519057
1.5190767
1.5191117
1.5190741
1.5190354
1.5190563
1.5190902
1.5191395
1.5191218
1.5191631
1.519178
1.5180604
1.5180614
1.5182229
1.5182162
1.5180682
1.5180383
1.5180391
1.5181952
1.5181898
1.5182123
1.5182014
1.5180503
1.5180507
1.5180577
1.5180463
1.5183131
1.5181838
1.5183152
1.518185
1.5183028
1.5183059
1.518417
1.518417
1.5183261
1.5182027
1.5183371
1.5181979
1.5186174
1.5185601
1.5186147
1.5185656
1.5185404
1.5184425
1.5185068
1.5184831
1.5184891
1.5185288
1.5185636
1.5185948
1.5186023
1.5185482
1.5186039
1.518549
1.5194197
1.5194229
1.5194212
1.5194158
1.5194356
1.5194237
1.5194177
1.519423
1.5194491
1.5194516
1.5190428
1.5190358
1.5189863
1.5190005
1.5190272
1.5190105
1.5189555
1.5189847
1.5189356
1.5189148
1.5189195
1.5189413
1.5189143
1.5188746
1.5188807
1.5189209
1.5188739
1.5188229
1.5188678
1.5189116
1.5188576
1.518831
1.5188752
1.5188979
1.5189
1.518876
1.5188987
1.5189199
1.5189144
1.5188699
1.518892
1.5189302
1.5189292
1.5188834
1.5188921
1.5189326
1.5189113
1.5188866
1.5189006
1.5189197
1.5189101
1.5188875
1.5189105
1.5189308
1.5189273
1.5188831
1.5189052
1.5189442
1.5190478
1.5190434
1.5189956
1.519007
1.5190459
1.5190382
1.51899
1.5190048
1.5189439
1.5189253
1.5189294
1.5189494
1.5189398
1.5189216
1.5189268
1.5189431
1.519563
1.5195141
1.519527
1.5195369
1.5195225
1.5191646
1.5191579
1.5191064
1.5191161
1.5191458
1.5191323
1.5190791
1.5190938
1.5190486
1.519034
1.5190331
1.5190483
1.5190215
1.5190066
1.519008
1.5190194
1.5189635
1.5189734
1.5189885
1.5189815
1.5190061
1.5189877
1.5190213
1.5190041
1.5189496
1.5189864
1.5189924
1.5189562
1.5189722
1.519009
1.5190266
1.518992
1.5191363
1.519113
1.5191276
1.5191481
1.5191172
1.519101
1.5191451
1.5191596
1.5191494
1.5191572
1.5169945
1.517189
1.5185346
1.5185286
1.518538
1.5185497
1.5184813
1.5184739
1.5184807
1.5184834
1.5185119
1.5185038
1.518495
1.5184981
1.5185239
1.5185137
1.5185075
1.5185075
1.5185199
1.5185149
1.5185255
1.5185233
1.5185287
1.5185208
1.5185166
1.5185111
1.5177772
1.5163331
1.516403
1.5182846
1.5165506
1.5169468
1.521489
1.5148759
1.5148488
1.5148262
1.5147757
1.5148053
1.5153917
1.5151403
1.5152198
1.5150222
1.5153212
1.5168145
1.5150442
1.5150137
1.5149453
1.5149972
1.5149247
1.5149895
1.5154433
1.5152709
1.5152356
1.515246
1.5155204
1.5148018
1.5147983
1.514768
1.5147738
1.5147537
1.5147597
1.5148384
1.514822
1.5147917
1.5148147
1.514779
1.5148065
1.5147577
1.514768
1.5147621
1.5147706
1.5147921
1.5148045
1.5148
1.5147811
1.514757
1.5147525
1.514758
1.514764
1.5147759
1.5147986
1.514807
1.5147803
1.5157551
1.5150719
1.5150588
1.5157259
1.515748
1.5150876
1.5150985
1.5157754
1.5147298
1.5147338
1.5147331
1.5147389
1.5147436
1.5147379
1.5147417
1.514748
1.5157519
1.5150483
1.515038
1.515719
1.5150401
1.5150508
1.5157189
1.5157212
1.5147441
1.5147457
1.5147377
1.5147348
1.5147422
1.514751
1.5147527
1.5147452
1.5148839
1.5149037
1.5148982
1.5149123
1.514963
1.5149901
1.5149427
1.5149843
1.5151643
1.5152005
1.5152482
1.5152447
1.5148695
1.5148723
1.5148906
1.5148922
1.5149819
1.514932
1.5149913
1.514932
1.5152044
1.515826
1.5159033
1.5152722
1.5158371
1.5151678
1.5151693
1.5158143
1.5148642
1.5149246
1.5148538
1.5148669
1.5147931
1.5147895
1.5147867
1.5147427
1.5147253
1.5147297
1.5148709
1.5149034
1.514823
1.5148833
1.5147961
1.5148039
1.5148123
1.5147683
1.5147581
1.5147345
1.5147466
1.5147461
1.5147477
1.514718
1.5147202
1.5147034
1.5147067
1.5147548
1.5147501
1.5147228
1.514731
1.5147192
1.5147096
1.5147865
1.5147783
1.5147625
1.5147758
1.5147372
1.514734
1.514723
1.5147283
1.514725
1.5147218
1.5147107
1.5147151
1.5147242
1.5147178
1.5147298
1.5147221
1.5147105
1.5147051
1.5147154
1.514709
1.515714
1.5150342
1.5150133
1.5156844
1.5149985
1.5150168
1.5156948
1.5156956
1.514701
1.5147019
1.5146949
1.5146933
1.5147104
1.5147145
1.5147096
1.5147027
1.5146999
1.5146984
1.5146909
1.5146933
1.5146959
1.5146962
1.5146893
1.5146887
1.5146905
1.5146876
1.5146968
1.5146944
1.5146857
1.5146863
1.5146931
1.5146937
1.515715
1.5150118
1.5149988
1.5156896
1.5149922
1.5150017
1.5156842
1.515689
1.5146899
1.5146919
1.5146962
1.5146994
1.5146994
1.5147076
1.5147067
1.5147158
1.5157188
1.5150155
1.5150089
1.5157033
1.5150183
1.5150263
1.5157282
1.5157342
1.5171117
1.5146894
1.5166668
1.5167034
1.5167335
1.5166584
1.5165938
1.5166424
1.51661
1.5165725
1.5165943
1.5166247
1.5166614
1.5166068
1.5165637
1.5166015
1.5166183
1.5165809
1.5165811
1.5166205
1.5166006
1.5165724
1.5165938
1.5166172
1.516668
1.5166274
1.5182313
1.518135
1.5182384
1.5181308
1.5182342
1.5183576
1.5183498
1.5182284
1.5182099
1.5181202
1.518222
1.5181102
1.5182179
1.518341
1.5182085
1.5183297
1.5184378
1.5183548
1.5184446
1.5183489
1.518555
1.5184416
1.5184357
1.5185455
1.5183302
1.518419
1.5183387
1.518428
1.5185384
1.5184254
1.518419
1.5185323
1.5181535
1.5182525
1.5182462
1.5181494
1.518128
1.5181427
1.518239
1.5182227
1.5182473
1.5183666
1.5183604
1.5182431
1.5182201
1.5182344
1.5183527
1.5183368
1.5181364
1.5182387
1.518239
1.5181405
1.5181591
1.5182576
1.5182446
1.5181477
1.5183549
1.5182335
1.5183558
1.518236
1.5183592
1.5182528
1.5183715
1.5182423
1.5184451
1.5183634
1.5184501
1.5183596
1.5185576
1.5184468
1.5184432
1.5185496
1.5183366
1.5184221
1.5183503
1.5184358
1.5185438
1.5184333
1.5184214
1.5185325
1.5183519
1.5184408
1.5184405
1.5183537
1.5183685
1.5184545
1.5183591
1.5184449
1.5185499
1.5185461
1.5184368
1.5184383
1.518444
1.5184509
1.5185579
1.5185509
1.5180098
1.5179162
1.5180181
1.5179131
1.517904
1.5180027
1.5179858
1.517889
1.5180021
1.5181407
1.5179952
1.5181326
1.518125
1.5181095
1.5179872
1.5179749
1.5178483
1.5177484
1.517854
1.5177471
1.5177408
1.5178432
1.5178207
1.5177223
1.5178206
1.5179442
1.5178185
1.5179377
1.5179312
1.5179106
1.5178109
1.5177931
1.5177629
1.5177434
1.5178412
1.5178643
1.5177675
1.5178731
1.5178661
1.5177656
1.5178383
1.5178418
1.5179642
1.5179562
1.5179537
1.5178347
1.5178159
1.5179317
1.5177527
1.5178573
1.5178581
1.5177587
1.5177823
1.5178849
1.5178622
1.5177629
1.5178236
1.5179465
1.5179468
1.517829
1.5178534
1.5179732
1.5179521
1.5178353
1.5179186
1.5180195
1.5180194
1.5179234
1.5179472
1.5180442
1.5180266
1.5179309
1.518004
1.5181419
1.5181415
1.5180061
1.5180291
1.518164
1.5181476
1.5180154
1.5179392
1.5180397
1.5180312
1.5179349
1.5179136
1.5179309
1.5180283
1.518009
1.5180258
1.51816
1.5181511
1.5180188
1.5180003
1.5180159
1.5181479
1.5181285
1.5164128
1.5164137
1.5167856
1.5167683
1.5168086
1.5167797
1.5164439
1.5164432
1.5186597
1.5186765
1.5187528
1.518728
1.5164541
1.5164241
1.516441
1.5164404
1.5168042
1.5167881
1.5168074
1.516779
1.5164329
1.5164315
1.5186889
1.5187624
1.5187573
1.5186833
1.5164433
1.5164524
1.5167845
1.5167796
1.5170675
1.5170812
1.5170554
1.5173086
1.517296
1.5170497
1.5170616
1.5167909
1.5170938
1.5167738
1.5170699
1.5173266
1.5170455
1.5172917
1.5167675
1.5167621
1.5170712
1.5170553
1.5170382
1.5173035
1.5172882
1.5170456
1.5167921
1.5167759
1.5170554
1.5170871
1.5170627
1.5170403
1.5173133
1.5172792
1.5186731
1.5186834
1.5187488
1.5187381
1.5187326
1.5186656
1.5186553
1.5187146
1.519573
1.5168428
1.5168119
1.516458
1.5164557
1.5187343
1.5187853
1.5188077
1.518857
1.5164668
1.5164241
1.5164242
1.5167908
1.5167738
1.5168074
1.5167807
1.5164443
1.5164441
1.5186764
1.5187517
1.5187382
1.5186706
1.5164348
1.5164559
1.5167714
1.5170693
1.5170532
1.5167649
1.5167886
1.5170816
1.5170507
1.5167732
1.5170427
1.5172973
1.5172813
1.5170339
1.5170321
1.5170551
1.5173045
1.5172707
1.5186736
1.5186714
1.51873
1.5187367
1.5187213
1.5187718
1.5188385
1.5187887
1.5172753
1.5174591
1.5174452
1.5172675
1.5172602
1.5172864
1.5174637
1.5174302
1.5175866
1.5174266
1.5175994
1.517419
1.5174058
1.5175673
1.5174324
1.5175997
1.5174485
1.5172794
1.5174587
1.517274
1.517425
1.5175948
1.5175875
1.5174215
1.5174466
1.5172996
1.5174809
1.5172718
1.5174493
1.5176194
1.5174213
1.5175867
1.5176806
1.5175612
1.5176841
1.5175611
1.5177876
1.5176482
1.5176509
1.5177865
1.517562
1.5176816
1.5175883
1.5177105
1.5178145
1.5176769
1.5176537
1.5177884
1.5175679
1.5176933
1.5176833
1.5175618
1.5177998
1.5176593
1.5176547
1.5177915
1.5175695
1.5175439
1.51769
1.517661
1.5177934
1.5176342
1.517767
1.5176573
1.5172489
1.5172753
1.5174511
1.5174183
1.5173917
1.5175841
1.5175531
1.5174179
1.5175515
1.5175273
1.5176444
1.5176718
1.5176409
1.5177827
1.5176378
1.5177753
1.517774
1.517637
1.5176155
1.5177489
1.5196307
1.51966
1.5196325
1.5196063
1.5186611
1.5186461
1.5187098
1.518707
1.518654
1.5186645
1.5187275
1.5187144
1.5186504
1.5186632
1.5187398
1.518726
1.5186433
1.5187198
1.5187109
1.5186446
1.5187995
1.5187336
1.5186926
1.5187563
1.518683
1.5186715
1.5187267
1.5187318
1.5186948
1.5187424
1.5188215
1.5187737
1.5187323
1.5186605
1.5186672
1.5187317
1.5202615
1.5201151
1.5196599
1.5196784
1.519697
1.5196734
1.5197697
1.51978
1.5197581
1.5197418
1.5176276
1.5175106
1.5176319
1.5175103
1.5175975
1.5177365
1.5177336
1.5175993
1.5175152
1.5176328
1.5175303
1.5176517
1.5176187
1.5177574
1.5176063
1.5177405
1.5172977
1.5174766
1.5174618
1.5172899
1.5172645
1.5172837
1.5174575
1.5174306
1.5175996
1.5174444
1.5176125
1.5174361
1.5174072
1.5175654
1.5174263
1.5175906
1.5173996
1.5172357
1.5174108
1.5172298
1.517378
1.5175439
1.5175357
1.517374
1.5174004
1.5172484
1.5174261
1.5172302
1.5173946
1.517562
1.5173764
1.5175387
1.5175814
1.5177034
1.5176935
1.5175752
1.5175604
1.5176792
1.5175428
1.5176577
1.5178074
1.5177988
1.5176698
1.5176655
1.5176316
1.5176465
1.5177819
1.517762
1.5164274
1.5164261
1.516777
1.516759
1.5167752
1.5167516
1.5164137
1.5164156
1.5186884
1.5186147
1.5186245
1.5186953
1.5164249
1.5164359
1.516807
1.5168018
1.5171019
1.5170854
1.5170678
1.5173266
1.5173106
1.517076
1.5168017
1.5167907
1.5170624
1.5170898
1.5170656
1.5170481
1.5173112
1.5172824
1.5170283
1.5167569
1.5170439
1.5167506
1.5170191
1.517265
1.5172507
1.5170119
1.5170253
1.516757
1.5170512
1.5167458
1.5170267
1.5172767
1.51701
1.5172494
1.5164662
1.5164661
1.5168266
1.5168084
1.5168191
1.5167937
1.5164648
1.5164669
1.5186388
1.5186792
1.5187498
1.5187063
1.5164774
1.5164765
1.5186308
1.5186684
1.5187333
1.5186921
1.518617
1.5186157
1.5186784
1.5186807
1.5165968
1.5166108
1.5169578
1.5169554
1.5172297
1.5172479
1.5169079
1.516945
1.5188044
1.5187259
1.5187936
1.5188586
1.5169344
1.5166131
1.5165158
1.5165154
1.5168683
1.5168497
1.5168668
1.5168441
1.5165134
1.516517
1.5187462
1.518671
1.5186595
1.5187293
1.5165253
1.5165254
1.5168498
1.5168435
1.5171215
1.5171375
1.5171138
1.5171071
1.5173591
1.5173446
1.5171149
1.5168507
1.5171386
1.5168418
1.5173608
1.5171157
1.517103
1.5173375
1.5187255
1.518658
1.5186491
1.5187108
1.5187689
1.5186973
1.5187693
1.5188281
1.5172394
1.5169424
1.5172368
1.5169557
1.5174641
1.5172149
1.5172305
1.5174709
1.5175062
1.5172193
1.517484
1.5172576
1.5176915
1.5174687
1.5175075
1.5177169
1.5176298
1.5174405
1.5176187
1.5174589
1.5175912
1.5177577
1.5177724
1.5176129
1.5177143
1.5178635
1.5176751
1.5178342
1.5178141
1.5179617
1.5178565
1.5179942
1.5178721
1.5177312
1.5178529
1.5177565
1.5179586
1.5178239
1.5178527
1.5179803
1.5179876
1.5180877
1.5179427
1.5180506
1.5181476
1.5180292
1.5180779
1.5181864
1.5174947
1.5173324
1.5175065
1.5173262
1.5174756
1.5174708
1.5176398
1.51763
1.5174891
1.5173351
1.5175095
1.5173217
1.5176437
1.5174795
1.5174679
1.5176261
1.5177217
1.5176091
1.5177282
1.5176066
1.5178296
1.5176953
1.5176948
1.5178242
1.5176053
1.5177204
1.5176142
1.5177334
1.5178356
1.5177015
1.5176963
1.5178254
1.5186186
1.5186413
1.5187024
1.518672
1.518613
1.5186238
1.5186788
1.5186676
1.5186099
1.5186788
1.5186737
1.5186023
1.5186097
1.5186418
1.5187193
1.5186817
1.5186313
1.5186435
1.5187011
1.5186884
1.5187119
1.5186377
1.5186277
1.5186989
1.51874
1.5186574
1.5187358
1.5188035
1.5187136
1.5186529
1.5187309
1.5187811
1.5181497
1.5182471
1.5182421
1.5181471
1.5181212
1.5181277
1.5182256
1.5182167
1.5183533
1.5182418
1.5183586
1.518239
1.5182157
1.5183304
1.5182216
1.5183392
1.518194
1.5180933
1.5181957
1.5180959
1.5181918
1.5183136
1.5183104
1.5181919
1.5182027
1.5181094
1.5182091
1.5181062
1.5182049
1.5183243
1.5182014
1.5183178
1.5183549
1.51844
1.5184359
1.5183522
1.5185425
1.5184333
1.5184361
1.5185344
1.518337
1.5183313
1.5184225
1.5184155
1.5185249
1.5184155
1.5185209
1.5184194
1.5183963
1.5183103
1.5183988
1.5183097
1.5185091
1.5183954
1.5183944
1.5185027
1.5183183
1.5184036
1.5183215
1.5184082
1.5185123
1.518405
1.5184032
1.5185094
1.5184568
1.5183727
1.5184576
1.5183742
1.5184532
1.5185619
1.5185567
1.5184544
1.5183912
1.518473
1.518385
1.5184697
1.5184659
1.5185687
1.5184733
1.5185738
1.5183049
1.5183973
1.5184174
1.5183322
1.518502
1.5184616
1.5185408
1.5185716
1.5185208
1.5183927
1.5185037
1.5184172
1.518573
1.5186578
1.5185377
1.5186325
1.5182646
1.5181691
1.518266
1.518171
1.5182607
1.5183772
1.5183753
1.518262
1.518278
1.5181782
1.5182758
1.5181846
1.5182717
1.518388
1.518278
1.5183899
1.5185006
1.5185816
1.5185973
1.5185221
1.5186307
1.5187001
1.5186603
1.5187221
1.5180541
1.5179606
1.5180582
1.5179612
1.5180439
1.5181748
1.5181712
1.5180426
1.5180637
1.5179688
1.5180645
1.5179709
1.5180497
1.5181818
1.5180551
1.5181813
1.5177985
1.5178989
1.5178955
1.5177996
1.517806
1.5179065
1.5179001
1.5178037
1.5178677
1.5179861
1.5179817
1.5178688
1.5178763
1.5179937
1.5179883
1.5178764
1.5179323
1.5180337
1.5180572
1.517963
1.5181778
1.5181283
1.518217
1.5182578
1.5180068
1.5181235
1.5181457
1.5180377
1.5182471
1.5181965
1.5182973
1.5183373
1.5181027
1.5181986
1.5182202
1.518132
1.5183308
1.5182819
1.5183648
1.518404
1.5183109
1.5183311
1.5181877
1.518214
1.5184034
1.5183576
1.5184647
1.5184984
1.5179715
1.5178728
1.5179745
1.5178743
1.5179606
1.5180973
1.5180956
1.5179603
1.5178869
1.5179822
1.517894
1.5179922
1.5179779
1.5181135
1.5179725
1.5181044
1.5177765
1.5178798
1.5178721
1.5177734
1.5177519
1.5178526
1.5178359
1.5177387
1.5179592
1.5178483
1.5179681
1.5178446
1.5179242
1.517822
1.5179402
1.5178107
1.5178063
1.5177043
1.5178083
1.5177072
1.5177766
1.5178989
1.5178958
1.5177787
1.5178164
1.517727
1.5178301
1.5177166
1.5177993
1.5179195
1.5177908
1.5179065
1.517943
1.5180413
1.5180319
1.5179378
1.517916
1.5180126
1.5179055
1.5179998
1.5181566
1.5181485
1.5180265
1.518019
1.5179904
1.5179981
1.5181312
1.5181188
1.5196984
1.5197455
1.519743
1.519697
1.5197319
1.5197267
1.5196842
1.5196856
1.5197144
1.5196975
1.518843
1.5188356
1.5188321
1.5188273
1.5189735
1.5190578
1.519059
1.5189676
1.5189691
1.5190574
1.5190646
1.518973
1.5188357
1.5188273
1.5188224
1.518833
1.5187917
1.5187219
1.5187564
1.5186897
1.51879
1.5187537
1.5187671
1.5187362
1.5187414
1.5187287
1.5187555
1.5187683
1.5186934
1.5186786
1.5187361
1.5187465
1.5187313
1.5186677
1.5186615
1.5187209
1.5187531
1.5187292
1.5187291
1.5187487
1.5187292
1.5186983
1.5187269
1.5187508
1.5187097
1.5186465
1.5186723
1.5187254
1.5188255
1.5188226
1.5188271
1.5188264
1.5189549
1.5190366
1.5190472
1.5189627
1.519045
1.519041
1.5189435
1.5189609
1.5187929
1.5187987
1.5188286
1.5188249
1.5197031
1.5196806
1.5196459
1.5196616
1.5197027
1.5196997
1.5196565
1.519656
1.5196833
1.5196694
1.5190238
1.5190315
1.5189326
1.5189534
1.5190184
1.5190063
1.5189138
1.5189263
1.5187841
1.5187752
1.5187755
1.5187788
1.5188212
1.518814
1.5187856
1.5187939
1.5186792
1.5186809
1.5187108
1.5187048
1.5186228
1.5186327
1.5186906
1.5186787
1.5187067
1.5186469
1.5186288
1.5186822
1.5187307
1.5187137
1.5186866
1.5187082
1.5187574
1.5186917
1.5187205
1.5187846
1.5186952
1.5187038
1.5187301
1.5187178
1.518709
1.5186501
1.5186339
1.5186924
1.5187212
1.5186467
1.5187093
1.5187777
1.5190318
1.5190286
1.5189384
1.5189576
1.5190336
1.5190333
1.518947
1.5189469
1.5188085
1.5188023
1.5187962
1.5188066
1.5188376
1.5187966
1.5187888
1.5188398
1.5146481
1.514801
1.5178398
1.5178406
1.5178363
1.5178385
1.5178614
1.5178673
1.5178648
1.5178695
1.5179217
1.5179287
1.5179579
1.5179507
1.5178624
1.5178497
1.517793
1.5178056
1.5178312
1.517833
1.5177771
1.5177751
1.5175907
1.517631
1.517585
1.5176314
1.5177814
1.5177925
1.5177856
1.5177946
1.5178796
1.5176964
1.5176937
1.5178734
1.5177915
1.5177731
1.5177146
1.5177346
1.517512
1.5175841
1.5176501
1.5175944
1.5175757
1.5176278
1.5176232
1.5175649
1.5175534
1.5176181
1.5175425
1.5176135
1.5177793
1.5177741
1.5177659
1.5177866
1.5177481
1.517757
1.5177721
1.5177653
1.5179637
1.5179344
1.5179329
1.5179622
1.5178831
1.5176914
1.5176958
1.5178829
1.5178251
1.5178299
1.5178226
1.5178325
1.5178069
1.5178147
1.5178178
1.517811
1.5178535
1.5178547
1.5178471
1.5178611
1.5178309
1.5178389
1.5178459
1.5178387
1.5178607
1.5178546
1.5178563
1.5178622
1.5179035
1.5178913
1.5178853
1.5178985
1.5178442
1.5178482
1.517842
1.5178503
1.517893
1.5178876
1.5178789
1.5178727
1.5178523
1.5178572
1.5178501
1.5178591
1.5178426
1.5178354
1.5178384
1.5178454
1.5178553
1.5178624
1.5178555
1.5178624
1.5178483
1.5178413
1.5178483
1.5178415
1.5178237
1.5178279
1.5178203
1.5178313
1.517804
1.5178122
1.5178159
1.5178083
1.5178342
1.5178269
1.517834
1.5178267
1.5178105
1.5178187
1.517819
1.5178112
1.5178939
1.5178929
1.5178913
1.5178915
1.5179217
1.5179297
1.5179244
1.5179307
1.5179691
1.5179759
1.5180067
1.5180011
1.5179259
1.5179123
1.5178601
1.5178742
1.5178805
1.5178862
1.5178346
1.5178283
1.5178954
1.5178953
1.5178923
1.5178931
1.5178969
1.5178969
1.5178997
1.517899
1.517972
1.5179791
1.5179856
1.5179783
1.5178892
1.5178888
1.5178352
1.5178345
1.5178883
1.5178917
1.517838
1.5178343
1.517886
1.5178864
1.51788
1.5178804
1.5178741
1.5178672
1.5178684
1.5178736
1.5179164
1.5179253
1.5179202
1.5179104
1.5179039
1.5179145
1.5178978
1.5179093
1.5178801
1.5178862
1.5178793
1.5178872
1.5178718
1.5178648
1.5178661
1.517873
1.5178837
1.5178908
1.517884
1.5178908
1.5178766
1.5178698
1.5178763
1.5178696
1.517984
1.5179863
1.5179937
1.5179907
1.5180113
1.5179834
1.5179807
1.5180102
1.5177971
1.5177993
1.5177919
1.5178042
1.5177842
1.5177768
1.5177831
1.5177902
1.5178315
1.5178245
1.5178231
1.5178156
1.5178077
1.5178003
1.5178172
1.5178103
1.5176046
1.5175312
1.5175202
1.517609
1.5175087
1.5176011