/*--------------------------------*- C++ -*----------------------------------*\
  =========                 |
  \\      /  F ield         | OpenFOAM: The Open Source CFD Toolbox
   \\    /   O peration     | Website:  https://openfoam.org
    \\  /    A nd           | Version:  7
     \\/     M anipulation  |
\*---------------------------------------------------------------------------*/
FoamFile
{
    version     2.0;
    format      ascii;
    class       volScalarField;
    location    "2000";
    object      nut;
}
// * * * * * * * * * * * * * * * * * * * * * * * * * * * * * * * * * * * * * //

dimensions      [0 2 -1 0 0 0 0];

internalField   nonuniform List<scalar> 
34251
(
7.1162755e-90
2.6013082e-89
3.1649059e-90
9.6910333e-91
3.2536636e-90
9.499902e-91
1.8117905e-91
2.601651e-91
3.1170895e-91
7.681172e-91
2.0170004e-89
7.9477908e-91
1.6003524e-89
1.229069e-90
1.413036e-90
6.652056e-91
5.3204318e-91
1.1931265e-90
1.1776454e-90
5.7415097e-91
5.4540862e-91
3.1512677e-91
1.9603695e-91
1.9997167e-91
2.3732876e-91
1.1820317e-91
1.4423355e-91
1.1629625e-91
1.4709113e-91
8.3548248e-92
7.8499756e-92
9.3143466e-92
9.0617209e-92
2.2237297e-91
2.4877014e-91
2.4757826e-91
2.1983132e-91
7.213022e-91
6.2183468e-91
6.1629521e-91
2.688198e-91
2.3000287e-91
5.4120196e-91
8.6881814e-91
8.7725862e-91
6.5106697e-90
7.4003238e-90
2.5204557e-91
2.559795e-91
6.2334305e-91
6.0389749e-91
7.4883257e-91
7.7253648e-91
5.3689555e-90
6.4132305e-90
2.7418972e-91
5.1014606e-91
2.9897378e-91
5.0870329e-91
3.2059426e-91
4.8466444e-91
3.0191086e-91
2.6562483e-91
4.8831532e-91
2.8917038e-91
5.1426932e-91
4.8149634e-91
2.9361092e-91
2.7313525e-91
2.1768838e-91
2.0318768e-91
2.0964772e-91
2.2113483e-91
1.0969363e-91
1.1516787e-91
1.3199806e-91
1.4372183e-91
8.6079241e-92
1.610162e-91
1.1858561e-91
1.1183195e-91
1.3820238e-91
8.1545248e-92
2.0425667e-91
1.9132401e-91
2.0825122e-91
2.0704369e-91
9.8142696e-92
9.6893932e-92
7.5303983e-92
7.4399564e-92
7.6012475e-92
7.546016e-92
7.6331991e-92
9.7238069e-92
9.4301e-92
8.7779307e-92
7.4483484e-92
7.1878428e-92
7.5794475e-92
7.5030361e-92
7.334579e-92
9.7525327e-92
9.3272315e-92
8.9126619e-92
9.1455303e-92
7.820253e-92
8.751667e-92
8.0763009e-92
7.3726382e-92
8.5774363e-92
9.4036135e-92
1.2563519e-91
5.5823097e-92
5.8816671e-92
4.0917839e-92
4.0179569e-92
6.0953168e-92
5.3511015e-92
6.0128014e-92
4.1551401e-92
2.4274736e-91
1.9991906e-91
1.9164809e-91
1.9359055e-91
1.8455532e-91
1.7917064e-91
1.8646544e-91
1.7894654e-91
2.9658686e-91
2.441593e-91
2.2703691e-91
1.7429108e-91
1.4967141e-91
2.1794952e-91
3.2783496e-91
3.4474585e-91
4.7057138e-91
4.3715066e-91
3.464969e-91
3.3864516e-91
4.512668e-91
4.5138337e-91
5.7380288e-91
2.8788195e-90
2.5076497e-90
5.4810217e-91
6.2543602e-91
6.2162313e-91
2.8026817e-90
1.3448268e-91
1.6999372e-91
2.3245629e-91
2.1711236e-91
3.536792e-91
3.4710293e-91
4.4581643e-91
4.5006092e-91
4.7123433e-91
3.5067827e-91
3.3310025e-91
4.4388115e-91
5.3857122e-91
5.6357554e-91
2.7703467e-90
6.1205492e-91
6.1865963e-91
2.7747934e-90
2.7434967e-90
2.0116532e-91
2.0010354e-91
1.5611862e-91
1.5557533e-91
2.0778001e-91
2.0504435e-91
1.6752044e-91
1.7226536e-91
1.6657633e-91
2.1535308e-91
2.0019316e-91
1.5363442e-91
2.225736e-91
2.046704e-91
1.6284074e-91
1.5290921e-91
2.0587357e-91
2.0028555e-91
1.6338677e-91
1.563878e-91
2.0811922e-91
1.9290474e-91
1.5819501e-91
1.4930765e-91
2.2415556e-91
1.7615289e-91
1.3987812e-91
1.7111474e-91
1.6359461e-91
1.3547162e-91
1.4013058e-91
1.27219e-91
1.3138134e-91
1.2716182e-91
1.2467942e-91
1.2405736e-91
1.2380249e-91
6.9763329e-92
6.7788956e-92
7.1255226e-92
7.2161171e-92
7.409398e-92
7.2752544e-92
7.3786733e-92
7.4734321e-92
7.7510592e-92
9.1647108e-92
8.9350444e-92
8.5906131e-92
8.6414344e-92
9.6402023e-92
9.1347814e-92
8.7257062e-92
7.9287158e-92
9.6103115e-92
9.7507189e-92
9.8924363e-92
9.0153465e-92
7.4544355e-92
7.638131e-92
7.759668e-92
7.2606101e-92
7.8091414e-92
6.9130817e-92
7.227015e-92
7.5675921e-92
7.3341826e-92
7.3586256e-92
9.2376438e-92
8.7847494e-92
9.3613959e-92
9.1598683e-92
8.0830285e-92
8.2275334e-92
1.8307834e-91
1.7560143e-91
1.4954448e-91
1.5379866e-91
1.5634421e-91
1.7248249e-91
1.7683526e-91
1.3870734e-91
1.3226231e-91
1.3040741e-91
1.2614041e-91
1.2273335e-91
1.2687174e-91
1.2771177e-91
1.3008419e-91
1.222961e-91
5.7298381e-92
5.76253e-92
4.2336937e-92
4.1507047e-92
6.1167253e-92
5.4893534e-92
5.9984552e-92
4.1874335e-92
4.024273e-92
5.5872188e-92
2.5881912e-91
2.1489367e-91
4.7393578e-92
4.9113996e-92
6.062832e-92
5.3735708e-92
5.2655507e-92
4.3536623e-92
4.6296525e-92
6.0554963e-92
5.066193e-92
4.7568272e-92
6.2016451e-92
6.0507756e-92
6.7620379e-92
6.4943399e-92
6.6708948e-92
6.1739479e-92
6.6709881e-92
6.5317322e-92
7.0108446e-92
6.6827009e-92
9.4247141e-92
9.5163478e-92
8.8431078e-92
8.8258888e-92
9.1103918e-92
8.431738e-92
9.3151197e-92
8.5345571e-92
1.0040645e-91
8.2061872e-92
1.0361311e-91
8.3819518e-92
4.7529289e-92
4.8570853e-92
5.5502081e-92
5.2575114e-92
5.2229969e-92
4.555204e-92
4.6655277e-92
5.4350839e-92
5.0468942e-92
5.0318948e-92
6.6337127e-92
6.5385076e-92
6.8437153e-92
6.5661109e-92
6.4959097e-92
6.4180108e-92
6.7746365e-92
6.5390027e-92
5.6157983e-92
6.1150363e-92
9.4103292e-92
8.7278492e-92
9.7010491e-92
8.8680997e-92
8.582219e-92
7.8964243e-92
9.2757348e-92
8.4130563e-92
9.6131975e-92
7.8597281e-92
1.047057e-91
8.4240802e-92
1.0488729e-91
8.5540005e-92
1.0810429e-91
8.6839086e-92
5.248434e-92
5.6395167e-92
5.818947e-92
5.7147158e-92
5.2232969e-92
5.3940126e-92
5.0259342e-92
5.5887361e-92
6.2751683e-92
6.4500418e-92
7.3716127e-92
6.8599868e-92
6.9633608e-92
7.1535605e-92
6.5823741e-92
6.9968916e-92
5.4763577e-92
5.3767481e-92
5.9435047e-92
5.3841795e-92
5.4711644e-92
6.0368737e-92
6.0622743e-92
7.5902677e-92
7.3992816e-92
7.8635295e-92
1.0695941e-91
9.6472097e-92
8.2514169e-92
1.0416772e-91
1.7888187e-92
1.8109873e-92
3.1227225e-92
2.9872227e-92
2.66941e-92
2.4817978e-92
1.9348725e-92
1.9778989e-92
3.0880962e-92
3.0739658e-92
3.354146e-92
2.9035877e-92
3.0752989e-92
3.2906744e-92
3.5459964e-92
2.8641e-92
2.4964739e-92
2.4032496e-92
1.96376e-92
1.9610156e-92
3.5898767e-92
1.8286221e-92
3.2673962e-92
2.6615975e-92
2.6265521e-92
1.9532928e-92
2.0275881e-92
3.7815447e-92
4.0812796e-92
3.4677455e-92
3.3672413e-92
3.4023066e-92
2.8701266e-92
4.7663836e-92
4.1920704e-92
1.2110425e-91
1.210487e-91
1.2677018e-91
1.2864393e-91
1.3018885e-91
1.2578136e-91
1.2902194e-91
1.2555958e-91
1.2288623e-91
1.1894277e-91
1.2513814e-91
1.2151899e-91
6.5631954e-91
6.8954707e-91
3.0647128e-91
3.4889769e-91
3.4053618e-91
1.6644581e-91
1.4715882e-91
2.9298576e-91
3.720813e-91
3.4962714e-91
1.9854517e-91
1.9919794e-91
1.9154215e-91
2.0026216e-91
2.8171166e-91
2.5645168e-91
2.1952382e-91
2.2494542e-91
2.0905035e-91
2.1876567e-91
6.718832e-91
6.7041282e-91
1.8361768e-91
2.0749393e-91
6.0619691e-91
6.6579422e-91
2.0469538e-91
2.7016354e-91
2.7328347e-91
2.1690656e-91
2.8241371e-91
2.782417e-91
2.0414345e-91
2.217309e-91
2.7922237e-91
2.5743373e-91
2.2171381e-91
1.868861e-91
2.0775901e-91
6.5956026e-91
6.0768155e-91
1.4856601e-91
1.5966848e-91
3.1956657e-91
3.5823353e-91
3.3934861e-91
2.8602116e-91
3.3655615e-91
3.676471e-91
1.9494382e-91
1.9912132e-91
1.9960246e-91
1.977461e-91
2.6920322e-91
2.721393e-91
2.1373385e-91
2.1719205e-91
2.1999359e-91
2.5974037e-91
2.8173509e-91
2.0326063e-91
2.0898763e-91
6.6893732e-91
6.6134171e-91
2.1967693e-91
2.2087113e-91
2.5832855e-91
2.8010063e-91
2.0639589e-91
2.1855e-91
2.7727209e-91
2.8424134e-91
1.8566108e-91
2.0541009e-91
6.1389457e-91
6.674026e-91
2.0533731e-91
2.0877318e-91
6.6155282e-91
6.4568722e-91
2.3480346e-91
2.0747173e-91
1.9900537e-91
5.2278936e-92
5.8706703e-92
2.0853401e-91
2.2050615e-91
5.6581127e-92
5.4272035e-92
2.3350153e-91
2.1956002e-91
5.6351499e-92
6.1975315e-92
2.2165198e-91
2.3937898e-91
5.8869449e-92
5.6899618e-92
2.1038443e-91
2.1228116e-91
5.4299303e-92
5.8117961e-92
2.1320263e-91
2.2602084e-91
5.5603158e-92
5.3942661e-92
2.3659531e-91
2.3449429e-91
5.7716452e-92
6.1224589e-92
2.315287e-91
2.4177199e-91
5.7559346e-92
5.6285761e-92
2.2451973e-91
2.1973982e-91
5.4065328e-92
6.016326e-92
2.1912893e-91
2.3021179e-91
5.4251893e-92
5.3442654e-92
2.082995e-91
2.0871573e-91
5.3502808e-92
5.6821672e-92
2.0682678e-91
2.1149991e-91
5.4222167e-92
5.2849889e-92
2.3050021e-91
1.1029774e-91
9.8175571e-92
1.117304e-91
9.6172443e-92
1.1193868e-91
7.6135139e-92
1.13723e-91
7.4790863e-92
1.0804871e-91
1.0858994e-91
1.011315e-91
9.6441064e-92
1.0491859e-91
1.0671166e-91
9.5932818e-92
9.4002324e-92
1.1369568e-91
7.7005343e-92
1.1611653e-91
7.5595363e-92
1.0896206e-91
1.1406005e-91
7.6357638e-92
7.5406813e-92
1.0443133e-91
1.0624855e-91
8.0576603e-92
8.0672268e-92
1.099107e-91
1.0921351e-91
9.4344777e-92
9.3512156e-92
1.0378172e-91
1.0310844e-91
9.107026e-92
9.0524031e-92
1.00396e-91
1.0144657e-91
8.6891602e-92
8.7016977e-92
9.6519397e-92
9.9117157e-92
7.7541653e-92
7.7983823e-92
9.8773874e-92
1.0064682e-91
7.8973549e-92
7.8451581e-92
4.6084905e-92
4.7422217e-92
5.2987532e-92
5.0897537e-92
4.8902825e-92
4.4618613e-92
4.4542717e-92
5.1055298e-92
4.881506e-92
4.7890354e-92
6.3944827e-92
6.2710463e-92
6.4689758e-92
6.3134967e-92
6.5050255e-92
6.3760159e-92
6.7021341e-92
6.4248209e-92
5.275314e-92
5.7230822e-92
4.5202646e-92
5.8198993e-92
4.7092563e-92
4.9155733e-92
4.9536993e-92
4.9030584e-92
5.8690089e-92
5.3971225e-92
5.4303291e-92
7.0037989e-92
7.0040777e-92
6.8260813e-92
6.7402434e-92
6.2845506e-92
5.869383e-92
9.0385349e-92
9.1489683e-92
8.4860921e-92
8.4978446e-92
8.8021967e-92
8.1753953e-92
8.9028194e-92
8.2070467e-92
9.9211978e-92
8.1904278e-92
1.0088364e-91
8.2539506e-92
1.0161973e-91
8.3902632e-92
1.0264709e-91
8.3952017e-92
9.6324616e-92
8.8714883e-92
1.0770603e-91
8.8360708e-92
8.6722643e-92
7.4440931e-92
4.7384537e-92
4.5839233e-92
4.668279e-92
5.1996519e-92
5.109184e-92
4.8975142e-92
5.4483941e-92
5.3940039e-92
4.0414176e-92
5.954034e-92
1.0769536e-91
8.6344273e-92
1.1176647e-91
8.918161e-92
9.056585e-92
9.469628e-92
8.4108442e-92
8.6990845e-92
9.7302047e-92
8.8829803e-92
9.9938447e-92
9.075051e-92
1.0041358e-91
1.0472061e-91
8.2714353e-92
8.455617e-92
5.040984e-92
5.1227594e-92
6.1398055e-92
5.5809406e-92
5.6397874e-92
6.5546991e-92
6.3111389e-92
7.0428514e-92
6.58202e-92
7.1088423e-92
6.8636471e-92
7.382244e-92
7.0270752e-92
4.5934703e-92
4.9099413e-92
5.8133556e-92
4.9237812e-92
5.3777669e-92
5.9371403e-92
6.4336934e-92
4.4709635e-92
4.4355423e-92
5.2582186e-92
4.7632124e-92
4.8622462e-92
4.6296001e-92
4.9233439e-92
5.6888869e-92
5.3477648e-92
5.1449059e-92
6.578338e-92
6.5010208e-92
7.1411181e-92
6.8904788e-92
5.9768264e-92
6.1652946e-92
6.3441931e-92
6.2976918e-92
6.3500883e-92
6.1697693e-92
8.9115927e-92
8.4007614e-92
8.7233463e-92
8.1362495e-92
1.0060456e-91
8.3424787e-92
9.8341898e-92
8.0403922e-92
9.0670516e-92
8.4954201e-92
9.6685871e-92
8.8991538e-92
1.0276809e-91
8.5616683e-92
1.0965004e-91
8.9461789e-92
5.3816536e-92
5.373316e-92
5.8698154e-92
5.5547115e-92
5.0935036e-92
5.6125363e-92
5.8133853e-92
5.0174638e-92
1.0999968e-91
1.1275215e-91
1.0301703e-91
9.9029807e-92
1.0859264e-91
9.6127208e-92
1.1225286e-91
9.5911797e-92
1.1688852e-91
7.8927472e-92
1.2059461e-91
7.7167361e-92
1.1107947e-91
7.8360113e-92
1.1974574e-91
7.9527893e-92
1.1168544e-91
7.6392777e-92
1.2088413e-91
7.7288649e-92
1.0533557e-91
1.0103644e-91
1.0019045e-91
9.0406902e-92
1.0691802e-91
9.7079071e-92
1.119776e-91
9.7014086e-92
1.1329934e-91
1.1161977e-91
1.0038227e-91
8.037159e-92
1.0632569e-91
8.2870844e-92
1.0257593e-91
1.0828472e-91
8.9627953e-92
9.231197e-92
1.0163367e-91
9.8802404e-92
8.9550792e-92
8.536444e-92
9.7456281e-92
9.5381482e-92
7.8021013e-92
7.4189105e-92
1.0234738e-91
7.9619234e-92
1.0663013e-91
8.1168686e-92
1.0430943e-91
1.0811559e-91
9.1093755e-92
9.2208662e-92
1.0595311e-91
9.05288e-92
1.0952229e-91
9.2262087e-92
1.0039728e-91
1.0379744e-91
8.0078015e-92
8.0039613e-92
1.8054662e-92
1.7676114e-92
3.1815523e-92
2.9606181e-92
2.2483378e-92
3.0343339e-92
2.604124e-92
1.967105e-92
3.2021672e-92
3.3439241e-92
3.1362633e-92
2.8724584e-92
2.8892491e-92
3.2244666e-92
3.5152637e-92
2.9324371e-92
2.094291e-92
2.6019311e-92
2.5478139e-92
1.9962627e-92
1.7355567e-92
1.7597576e-92
3.4951882e-92
3.3700331e-92
2.8350611e-92
2.5250564e-92
2.002212e-92
2.0071168e-92
3.0976007e-92
3.0728426e-92
3.231556e-92
3.4671149e-92
3.7297953e-92
3.4990846e-92
2.9832082e-92
3.0671784e-92
2.4649298e-92
2.4719252e-92
2.0344053e-92
2.0485121e-92
5.0072795e-92
4.3839192e-92
1.8703846e-91
1.8897442e-91
1.3011009e-91
1.3282169e-91
1.3620803e-91
1.3837714e-91
1.9548849e-91
1.9777665e-91
3.6443557e-92
4.021807e-92
4.1615372e-92
3.6430427e-92
1.2104875e-91
1.2083823e-91
1.7082003e-91
1.7257183e-91
1.1596267e-91
1.1942895e-91
1.315062e-91
1.3506258e-91
1.9126023e-91
1.9759921e-91
3.9734365e-92
3.77638e-92
3.3286715e-92
3.5004977e-92
1.2175193e-91
1.0926256e-91
1.0517356e-91
1.0618079e-91
8.5906728e-92
8.4521296e-92
8.5964918e-92
8.8180135e-92
6.5531805e-92
6.7351806e-92
9.7887485e-92
1.1772044e-91
9.583613e-92
1.1895562e-91
7.3273289e-92
9.5854138e-92
9.8651852e-92
7.4631342e-92
3.7831603e-92
3.9008838e-92
3.5905885e-92
3.599415e-92
3.7006537e-92
3.5502488e-92
3.3194298e-92
3.4393081e-92
9.7382303e-92
1.1841607e-91
9.5928839e-92
1.1978663e-91
7.5018273e-92
9.7528385e-92
9.9436873e-92
7.570378e-92
1.0140361e-91
1.2170807e-91
1.0080241e-91
1.2133515e-91
7.8338694e-92
1.0128122e-91
1.0265619e-91
7.8837833e-92
8.1476748e-92
6.8743891e-92
7.0747457e-92
8.2734807e-92
8.4016848e-92
8.3097664e-92
7.1167845e-92
7.1796756e-92
5.5081208e-92
6.7776233e-92
5.4355502e-92
7.0273976e-92
7.018498e-92
5.5793515e-92
6.9241401e-92
5.5307408e-92
6.9394597e-92
7.9565311e-92
6.7430565e-92
8.124358e-92
6.6638832e-92
5.300613e-92
5.3396796e-92
6.8915886e-92
7.2208131e-92
8.1876435e-92
6.9592884e-92
8.4086224e-92
6.7885719e-92
5.4039458e-92
7.0523609e-92
5.4685719e-92
5.1755365e-92
5.8960229e-92
5.1758589e-92
5.972616e-92
4.2894343e-92
5.2630746e-92
5.3225581e-92
4.2906807e-92
6.1472653e-92
5.3872989e-92
6.0253187e-92
5.3141477e-92
4.3372649e-92
5.3164438e-92
5.4357563e-92
4.4006823e-92
1.8943859e-91
1.9358197e-91
1.3142757e-91
1.3464345e-91
1.3258678e-91
1.3539284e-91
1.8923878e-91
1.9529612e-91
3.6431121e-92
4.0121402e-92
4.1093592e-92
3.6008916e-92
1.1828059e-91
1.2156448e-91
1.823188e-91
1.8268007e-91
1.2495804e-91
1.2752208e-91
1.3208578e-91
1.3514458e-91
1.8880011e-91
1.9556145e-91
3.4999583e-92
3.9423834e-92
3.9619062e-92
3.5083791e-92
1.1964995e-91
1.1378028e-91
1.1966021e-91
1.2091823e-91
9.6483674e-92
9.7652655e-92
1.0006844e-91
7.5275798e-92
7.6464927e-92
9.7948714e-92
1.1906121e-91
1.1854675e-91
9.8370897e-92
9.8198327e-92
9.8385e-92
9.9226221e-92
7.596364e-92
7.6515613e-92
9.3904963e-92
1.1423048e-91
9.2636253e-92
1.1510823e-91
9.431515e-92
7.2753923e-92
7.3974594e-92
9.6283902e-92
9.875777e-92
1.1824693e-91
9.7293001e-92
1.1873343e-91
9.7040036e-92
7.454345e-92
9.9349145e-92
7.586564e-92
3.5205263e-92
3.752287e-92
3.6464409e-92
3.4143108e-92
3.7775599e-92
3.9339687e-92
3.6328945e-92
3.6194315e-92
6.9193405e-92
8.1062814e-92
6.8470027e-92
8.2203116e-92
6.8490117e-92
5.4539453e-92
5.5247878e-92
6.9669993e-92
8.6812551e-92
7.3800402e-92
8.5868159e-92
7.3098471e-92
7.1933003e-92
5.7214481e-92
7.3179564e-92
5.7974293e-92
6.1745291e-92
7.1763533e-92
6.0270124e-92
7.3884655e-92
6.0406459e-92
6.25023e-92
4.7665321e-92
4.900542e-92
6.9547307e-92
8.0765699e-92
6.7817848e-92
8.2788076e-92
5.2791359e-92
6.6859109e-92
6.9028375e-92
5.3799927e-92
4.7459999e-92
5.3203875e-92
4.6438127e-92
5.4772621e-92
4.7517376e-92
4.9201136e-92
3.8715615e-92
3.9747762e-92
6.0514652e-92
5.2630908e-92
5.9001045e-92
5.1471164e-92
4.2055528e-92
5.1757404e-92
5.3306017e-92
4.2885392e-92
5.2899806e-92
6.0012059e-92
5.2644724e-92
6.0874804e-92
4.3806004e-92
5.3476321e-92
5.4475864e-92
4.4107301e-92
6.453634e-92
5.6806975e-92
6.3437897e-92
5.6173352e-92
4.616038e-92
5.6352059e-92
5.7474522e-92
4.6659278e-92
2.8453366e-92
3.1463926e-92
2.950262e-92
3.0356765e-92
3.0345213e-92
2.9339554e-92
2.8390516e-92
2.9865189e-92
3.3019446e-92
3.155192e-92
2.8216333e-92
2.9177232e-92
3.063683e-92
3.3305537e-92
3.4211645e-92
2.9891989e-92
2.9814876e-92
3.2737284e-92
3.0435833e-92
3.1437648e-92
2.9521474e-92
2.9422919e-92
2.9139136e-92
2.849586e-92
2.8648879e-92
3.1646203e-92
3.2078701e-92
2.8380934e-92
3.1016714e-92
3.4173565e-92
3.4162195e-92
2.9952858e-92
3.4174786e-92
3.3145431e-92
3.4160065e-92
3.3289211e-92
3.5676941e-92
3.3140991e-92
3.3919505e-92
3.4001324e-92
3.5130896e-92
3.8832274e-92
3.7139246e-92
3.3870018e-92
3.6305032e-92
3.8641067e-92
3.39221e-92
3.288676e-92
4.2699275e-92
4.7198008e-92
4.5444255e-92
4.1126013e-92
4.0416686e-92
4.245595e-92
4.1412668e-92
3.922779e-92
4.1406207e-92
4.6406949e-92
4.4515422e-92
3.9991976e-92
4.0089441e-92
4.1877238e-92
4.0244028e-92
3.8717999e-92
3.0671252e-92
2.9434138e-92
2.9970621e-92
3.0305747e-92
2.0596834e-91
2.0701119e-91
1.4268344e-91
1.4513789e-91
1.2592694e-91
1.9813975e-91
2.0009035e-91
1.3704063e-91
1.4039795e-91
1.4520685e-91
1.4810679e-91
2.0911661e-91
2.1413279e-91
1.2975913e-91
1.218911e-91
1.0466274e-91
1.261267e-91
1.0283057e-91
1.2743162e-91
1.0536451e-91
1.0840989e-91
8.1162806e-92
8.2839042e-92
1.086992e-91
1.3013255e-91
1.071795e-91
1.3056738e-91
4.1693389e-92
4.629701e-92
4.1292423e-92
4.6792978e-92
3.769988e-92
4.1368888e-92
3.6840014e-92
4.263901e-92
3.7116862e-92
3.8674221e-92
3.0347489e-92
3.1312288e-92
4.1004088e-92
4.5191524e-92
4.0274969e-92
4.6351625e-92
6.804812e-93
6.8322058e-93
1.1007621e-92
1.086262e-92
7.1599328e-93
7.059229e-93
1.0380612e-92
1.064917e-92
2.615838e-92
2.3599835e-92
1.3242798e-92
1.6080539e-92
1.9167135e-92
1.7248754e-92
1.5573685e-92
1.6666919e-92
2.0361017e-92
1.8241658e-92
1.6161677e-92
1.5926575e-92
1.5947931e-92
1.5653558e-92
1.6591693e-92
1.7473771e-92
1.6879109e-92
1.6046292e-92
2.5502274e-92
2.9816447e-92
2.6855356e-92
2.3790927e-92
2.6085839e-92
2.5725457e-92
2.4498758e-92
2.4395988e-92
2.2425918e-92
2.3814121e-92
2.4425618e-92
2.2957011e-92
2.4204706e-92
2.6365796e-92
2.505606e-92
2.2884474e-92
2.3651884e-92
2.802029e-92
2.7305541e-92
2.36978e-92
2.7573393e-92
2.4973685e-92
2.4057025e-92
2.4726752e-92
2.3963176e-92
2.5442208e-92
2.6538585e-92
2.53401e-92
2.5407009e-92
2.7115381e-92
2.6194145e-92
2.3689295e-92
1.2124163e-92
1.5442753e-92
1.7947093e-92
1.6781154e-92
1.4299617e-92
1.5664112e-92
1.8578461e-92
1.7621217e-92
1.6528618e-92
1.653312e-92
1.6503064e-92
1.6186343e-92
1.6017133e-92
1.6356125e-92
1.6021475e-92
1.5811628e-92
2.3584032e-92
1.0483238e-92
7.2425259e-93
7.091168e-93
1.0511754e-92
1.3697652e-92
1.4660636e-92
1.697312e-92
1.6089526e-92
1.6312949e-92
1.6793742e-92
1.8487854e-92
1.6936785e-92
1.8397092e-92
1.7554491e-92
1.7616904e-92
1.7841707e-92
1.9259882e-92
1.9055184e-92
1.8512119e-92
1.8514505e-92
2.585148e-92
2.6131367e-92
2.8238152e-92
2.8003879e-92
2.3706634e-92
2.4854026e-92
2.56208e-92
2.7556806e-92
2.9420485e-92
2.7428963e-92
2.8285995e-92
3.0231518e-92
2.9649012e-92
2.7171138e-92
2.7426504e-92
2.9012061e-92
2.706066e-92
2.3629643e-92
2.5279851e-92
2.7133143e-92
2.7174648e-92
2.4965541e-92
2.2694466e-92
2.4903315e-92
1.631653e-92
1.6209064e-92
5.0999607e-92
4.2930172e-92
5.2383633e-92
5.9056636e-92
5.7061293e-92
5.6243525e-92
5.9274022e-92
6.2201506e-92
6.1760441e-92
5.9561416e-92
5.5965726e-92
5.6579568e-92
5.9340078e-92
5.706357e-92
6.0472167e-92
6.1214612e-92
6.2164116e-92
6.0534073e-92
5.6398206e-92
6.065378e-92
5.6713302e-92
5.6047009e-92
5.4902077e-92
5.5966768e-92
5.7960422e-92
5.5988663e-92
3.489265e-91
1.9982804e-91
1.6171207e-91
3.8735396e-91
1.7913425e-91
1.5927431e-91
1.9824714e-91
1.4096504e-91
1.3919598e-91
2.5630305e-91
1.682986e-91
1.6735118e-91
1.4040005e-91
1.456713e-91
2.513191e-91
1.7110425e-91
1.6883835e-91
5.3762763e-91
2.3787533e-91
2.2856221e-91
2.014293e-91
2.1846648e-91
1.7097338e-91
1.7645554e-91
2.2446213e-91
2.3217782e-91
2.0484932e-91
1.7102497e-91
2.0676289e-91
2.1519826e-91
2.0561589e-91
1.9391398e-91
2.0704769e-91
1.6910085e-91
1.7443721e-91
2.1813387e-91
2.2699555e-91
2.0335264e-91
2.0432941e-91
1.7199616e-91
1.6746792e-91
9.8535828e-92
2.244217e-91
1.0139002e-91
2.1756882e-91
2.2786194e-91
2.1280031e-91
1.039864e-91
1.050274e-91
8.2182304e-92
5.9320246e-92
6.2943992e-92
8.8304759e-92
6.1717909e-92
6.1966286e-92
9.6866264e-92
9.1519503e-92
6.7585384e-92
5.6463093e-92
5.8049058e-92
7.3436681e-92
7.1834166e-92
5.9297403e-92
5.6944095e-92
7.2171094e-92
5.8725561e-92
6.254382e-92
8.063506e-92
8.7430763e-92
9.1205802e-92
6.2669051e-92
6.3231275e-92
9.4605697e-92
6.5014924e-92
5.4827619e-92
5.6457354e-92
7.0467044e-92
5.7047821e-92
5.8234953e-92
7.0583385e-92
7.1220297e-92
2.1492089e-91
2.1253206e-91
9.9913942e-92
9.6216119e-92
1.0716559e-91
2.3086564e-91
2.1857867e-91
1.05017e-91
9.7896755e-92
2.2458627e-91
1.0060647e-91
2.1782345e-91
2.3581438e-91
2.239794e-91
1.0739015e-91
1.0745251e-91
9.9582233e-92
2.2175009e-91
2.176044e-91
1.0113533e-91
8.310886e-92
5.878031e-92
6.2499381e-92
9.1536673e-92
6.4236971e-92
6.2929046e-92
9.6840516e-92
9.5990482e-92
5.9612121e-92
7.1914132e-92
7.2608121e-92
5.8499113e-92
6.6223912e-92
5.5689332e-92
5.7058728e-92
7.2112165e-92
1.414506e-91
1.447212e-91
2.7908395e-91
1.6670664e-91
1.7658825e-91
1.3991314e-91
1.466849e-91
2.7915637e-91
1.6930163e-91
1.6833256e-91
2.2211691e-91
2.0571504e-91
2.067164e-91
1.9088734e-91
1.7467908e-91
2.1330954e-91
2.1764304e-91
1.9987397e-91
2.0190414e-91
1.7268112e-91
1.7481975e-91
2.3200556e-91
2.2298321e-91
2.1426094e-91
2.0185513e-91
1.7663911e-91
1.7251812e-91
2.1360735e-91
2.1799025e-91
2.0158336e-91
2.0081035e-91
1.6800746e-91
1.7293392e-91
2.2517583e-91
2.1833684e-91
1.0487133e-91
1.0391902e-91
2.2026096e-91
2.1791633e-91
1.0123473e-91
9.6577081e-92
2.268743e-91
2.1527296e-91
1.0254943e-91
1.0247272e-91
5.7920472e-92
6.1426983e-92
8.7443116e-92
9.2388715e-92
5.9540606e-92
6.0400683e-92
9.2825043e-92
9.5131478e-92
6.7733255e-92
5.6715234e-92
5.788019e-92
7.2543421e-92
5.6202064e-92
5.8497302e-92
7.0838343e-92
7.0122551e-92
2.2195461e-91
2.1779575e-91
1.013176e-91
9.7407149e-92
2.2560431e-91
2.143447e-91
1.0345604e-91
1.0291045e-91
2.22152e-91
2.1768162e-91
1.0165759e-91
9.6864336e-92
2.3078775e-91
2.224776e-91
1.0635432e-91
1.0601128e-91
5.7703367e-92
6.1569919e-92
8.9922817e-92
9.6604186e-92
6.1440982e-92
6.2544981e-92
9.8271774e-92
9.9092847e-92
6.543629e-92
5.5371811e-92
5.6953153e-92
7.0775771e-92
5.7896244e-92
5.8954856e-92
7.0928596e-92
7.202816e-92
5.8523916e-92
6.1868593e-92
8.4879567e-92
8.933457e-92
6.00181e-92
6.1425206e-92
9.0237819e-92
9.4151967e-92
6.7492562e-92
5.7048468e-92
5.8373633e-92
7.2638597e-92
5.596537e-92
5.8509129e-92
7.0419579e-92
6.9812369e-92
5.9066277e-92
2.4180689e-91
8.4263605e-92
7.8418432e-92
8.2636031e-92
8.5774067e-92
8.6598239e-92
8.0031925e-92
8.2970374e-92
8.5570051e-92
8.565862e-92
8.0935664e-92
8.0721543e-92
8.3769197e-92
8.9185051e-92
8.4672465e-92
8.2306728e-92
8.4920819e-92
8.4871785e-92
8.0298806e-92
8.1183107e-92
8.2687429e-92
8.2628302e-92
7.8981905e-92
7.678862e-92
7.8287548e-92
2.948401e-92
3.0933681e-92
2.8879448e-92
3.1365684e-92
2.9673407e-92
2.6606737e-92
2.6763735e-92
3.0739173e-92
3.0271134e-92
3.2185249e-92
3.0315129e-92
3.2466784e-92
3.0172573e-92
2.7014648e-92
3.1653986e-92
2.7079246e-92
3.1948792e-92
3.3158255e-92
3.2157255e-92
3.4169992e-92
2.9206414e-92
3.6675018e-92
3.8205761e-92
2.8868136e-92
3.415842e-92
3.2486488e-92
3.3762798e-92
3.2916571e-92
2.9137632e-92
3.7723548e-92
3.8176519e-92
2.8838577e-92
2.861733e-92
2.6965111e-92
2.7762661e-92
2.9358759e-92
2.9984913e-92
2.9554799e-92
2.8041366e-92
2.8136161e-92
2.7955419e-92
2.5411467e-92
2.5846909e-92
2.9895256e-92
2.9159599e-92
2.8514523e-92
2.5773229e-92
2.5966583e-92
2.9671131e-92
2.7754426e-92
2.8331739e-92
3.0346284e-92
2.9186161e-92
2.7426902e-92
2.8205061e-92
3.0057388e-92
2.6017354e-92
2.8675751e-92
2.5667682e-92
3.0492015e-92
2.5624898e-92
2.8069777e-92
2.5198818e-92
2.9873772e-92
3.0084788e-92
3.1196496e-92
3.044488e-92
3.2154931e-92
2.7543937e-92
3.4268987e-92
3.5708658e-92
2.7137278e-92
3.2496289e-92
3.1216793e-92
3.2134578e-92
3.1658458e-92
2.7966013e-92
3.6002342e-92
3.6572531e-92
2.7842804e-92
3.1874529e-92
3.1013341e-92
3.0631626e-92
3.2797012e-92
3.1477301e-92
3.0599922e-92
3.2459072e-92
3.0383421e-92
2.8194778e-92
2.79089e-92
3.5165976e-92
3.6600849e-92
3.5538314e-92
3.4951398e-92
2.7207871e-92
2.6828843e-92
3.6659752e-92
3.9893895e-92
3.5779735e-92
4.0600035e-92
4.1211883e-92
3.7449843e-92
3.7809511e-92
4.1806022e-92
3.5392999e-92
2.9062511e-92
3.6711814e-92
2.9491511e-92
2.9961168e-92
3.0206122e-92
3.6352567e-92
3.7890257e-92
4.5114095e-92
4.9249179e-92
4.373779e-92
4.9689973e-92
5.003192e-92
4.5299293e-92
4.5986332e-92
5.0601714e-92
4.3732978e-92
3.6159853e-92
4.5309484e-92
3.671882e-92
3.7153379e-92
3.7232352e-92
4.4672992e-92
4.5796409e-92
4.6460219e-92
4.7120737e-92
4.2583985e-92
4.2035474e-92
4.5108715e-92
4.0327262e-92
4.132611e-92
4.5834766e-92
4.1810018e-92
4.0266952e-92
3.3362277e-92
3.407545e-92
3.4366471e-92
4.1231547e-92
4.2319014e-92
3.4864367e-92
4.6295698e-92
4.1278298e-92
4.2233023e-92
4.6846813e-92
4.5362347e-92
4.0836542e-92
4.2099451e-92
4.6529326e-92
4.1412049e-92
3.4014767e-92
3.4516877e-92
4.2815731e-92
4.0368842e-92
3.3439791e-92
3.4054616e-92
4.1966105e-92
3.7353705e-92
3.3549861e-92
3.4259539e-92
3.8533688e-92
3.6797797e-92
3.3477982e-92
3.4234392e-92
3.8237972e-92
3.3707766e-92
2.7826332e-92
2.8303792e-92
3.489606e-92
3.3054701e-92
2.728463e-92
2.7828473e-92
3.4164893e-92
3.6220799e-92
3.2597391e-92
3.3262808e-92
3.7184925e-92
3.812212e-92
3.7805554e-92
3.4181682e-92
3.4309695e-92
3.2492277e-92
2.7060613e-92
2.7744037e-92
3.3743024e-92
3.4007335e-92
3.3441727e-92
2.7772341e-92
2.8148676e-92
1.8681949e-91
1.9150142e-91
1.2996338e-91
1.3278788e-91
1.2835616e-91
1.3177376e-91
1.8292695e-91
1.8987099e-91
3.8846915e-92
3.9368849e-92
3.4105601e-92
3.5005518e-92
1.1493175e-91
1.1437174e-91
1.7821127e-91
1.8194029e-91
1.2461776e-91
1.2712314e-91
1.2306565e-91
1.2695927e-91
1.7284176e-91
1.7899835e-91
3.7431715e-92
3.3392577e-92
3.4207564e-92
3.790613e-92
1.1647492e-91
1.1271482e-91
1.1182e-91
1.1286082e-91
9.3272735e-92
9.1723635e-92
9.3065344e-92
7.1599781e-92
7.3483654e-92
9.534024e-92
9.5729138e-92
1.1354682e-91
9.3032796e-92
1.1576298e-91
9.2935911e-92
7.1656148e-92
9.6473244e-92
7.3721337e-92
1.1568776e-91
1.1702145e-91
9.4236571e-92
9.5618678e-92
9.755338e-92
7.3316694e-92
7.4753421e-92
9.5264519e-92
1.1563762e-91
1.1604809e-91
9.6662189e-92
9.5659026e-92
9.6003184e-92
9.7718048e-92
7.4097052e-92
7.5306961e-92
3.488577e-92
3.4183586e-92
3.2310385e-92
3.2584592e-92
3.5655041e-92
3.6303901e-92
3.7391262e-92
3.4721205e-92
5.5042038e-92
1.259723e-91
1.2940523e-91
1.8244761e-91
1.8797169e-91
3.8575407e-92
3.7404634e-92
3.4139557e-92
3.3032638e-92
1.192653e-91
2.0065836e-91
2.0732188e-91
1.3970395e-91
1.4244588e-91
1.3441288e-91
1.3481149e-91
1.8979355e-91
1.8656783e-91
4.1389416e-92
3.698807e-92
3.7343096e-92
4.1788937e-92
1.2433917e-91
1.2378211e-91
1.2469652e-91
1.0200552e-91
1.037219e-91
1.2584268e-91
1.2319672e-91
1.0114161e-91
1.0194947e-91
1.2252064e-91
1.032845e-91
7.9565904e-92
8.082327e-92
1.0540953e-91
1.0337111e-91
1.020725e-91
7.8595732e-92
7.9475905e-92
3.7831368e-92
3.9581611e-92
3.6057013e-92
3.6575179e-92
3.5770887e-92
3.5298562e-92
3.2812811e-92
3.3323203e-92
7.8643536e-92
6.6561339e-92
6.7924809e-92
8.0559503e-92
8.2216738e-92
8.0500732e-92
6.8892076e-92
7.0105497e-92
5.442925e-92
6.6647102e-92
5.3157298e-92
6.8422548e-92
6.9225723e-92
5.5147842e-92
6.7711062e-92
5.4094592e-92
6.7931928e-92
7.796748e-92
6.6160736e-92
8.0124246e-92
6.630327e-92
5.2710688e-92
5.3900686e-92
6.8402962e-92
6.8877452e-92
7.8103129e-92
6.6605978e-92
8.1126965e-92
6.5541745e-92
5.2270306e-92
6.8238392e-92
5.3743176e-92
5.2361979e-92
5.8591198e-92
5.1526583e-92
6.0162829e-92
4.3021466e-92
5.2646293e-92
5.4091586e-92
4.3653576e-92
5.9973845e-92
5.2721208e-92
5.7902048e-92
5.1283073e-92
4.2209249e-92
5.1459979e-92
5.3209692e-92
4.3221045e-92
5.8184121e-92
5.1163667e-92
5.1970359e-92
5.9664686e-92
4.258328e-92
5.1949112e-92
5.34557e-92
4.3328002e-92
5.9588721e-92
6.0947292e-92
5.3049747e-92
5.3875248e-92
4.3716981e-92
5.4219196e-92
4.4440038e-92
5.3076955e-92
8.7006416e-92
8.5444423e-92
7.2966259e-92
7.4175741e-92
7.3686582e-92
5.7849174e-92
5.8468378e-92
7.2217275e-92
6.4002888e-92
6.4938446e-92
5.7281923e-92
5.6720134e-92
5.7182013e-92
4.648612e-92
5.8192033e-92
4.7042738e-92
4.6766693e-92
5.7053791e-92
5.8023159e-92
4.7250764e-92
4.3862328e-92
4.8043144e-92
5.056855e-92
4.3946674e-92
2.8090822e-92
2.9881382e-92
2.8760489e-92
2.8995461e-92
2.7689223e-92
2.7180987e-92
2.6078976e-92
2.7009377e-92
3.0669371e-92
2.9622063e-92
2.6628633e-92
2.7153127e-92
3.2132415e-92
2.8986106e-92
2.9385656e-92
3.2809533e-92
2.9577468e-92
3.0223991e-92
2.868843e-92
2.7575001e-92
2.7875537e-92
2.8988732e-92
2.9741043e-92
2.8769172e-92
3.1545412e-92
3.2650923e-92
2.7891937e-92
2.8163779e-92
3.1272736e-92
3.4752588e-92
3.4012178e-92
2.9950447e-92
1.7463125e-92
3.3845806e-92
3.4561592e-92
3.1165133e-92
2.6969611e-92
2.823006e-92
2.6708325e-92
2.4551603e-92
2.1323863e-92
2.1896437e-92
5.8882235e-92
6.550366e-92
5.7402172e-92
6.7553512e-92
5.7925833e-92
4.6974802e-92
4.779447e-92
6.0523443e-92
6.7311772e-92
5.9274344e-92
6.6373729e-92
5.8172519e-92
5.8058508e-92
4.701714e-92
5.9338824e-92
4.7615163e-92
7.8938996e-92
6.6824646e-92
6.8878548e-92
8.0511767e-92
8.5569943e-92
8.4392294e-92
7.2173569e-92
7.3216022e-92
5.4053365e-92
6.6070344e-92
5.2859964e-92
6.885979e-92
7.2003373e-92
5.7223642e-92
7.0577554e-92
5.6376754e-92
7.6585011e-92
8.686867e-92
7.344797e-92
8.9875899e-92
7.3189637e-92
5.7997373e-92
5.9294931e-92
7.6800955e-92
7.8908594e-92
8.9875152e-92
7.6110779e-92
9.2038982e-92
7.4797357e-92
5.9194284e-92
7.7397453e-92
5.9749108e-92
5.842107e-92
5.1460395e-92
5.2692839e-92
6.0584094e-92
6.2779669e-92
5.5722149e-92
6.4032658e-92
5.6482074e-92
4.3086653e-92
4.4073106e-92
5.2548945e-92
5.4385667e-92
5.7194931e-92
5.6040548e-92
4.5939159e-92
4.6569337e-92
1.9262822e-91
1.9357426e-91
1.3337537e-91
1.3620618e-91
1.4471776e-91
1.4558679e-91