/*--------------------------------*- C++ -*----------------------------------*\
  =========                 |
  \\      /  F ield         | OpenFOAM: The Open Source CFD Toolbox
   \\    /   O peration     | Website:  https://openfoam.org
    \\  /    A nd           | Version:  7
     \\/     M anipulation  |
\*---------------------------------------------------------------------------*/
FoamFile
{
    version     2.0;
    format      ascii;
    class       volScalarField;
    location    "2000";
    object      omega;
}
// * * * * * * * * * * * * * * * * * * * * * * * * * * * * * * * * * * * * * //

dimensions      [0 0 -1 0 0 0 0];

internalField   nonuniform List<scalar> 
34251
(
2293.8088
4646.4821
4121.175
941.86113
4062.7751
912.45187
788.35285
955.41156
944.7369
1349.0497
9460.5839
1355.4731
9462.0767
7619.2782
7795.9348
1991.4811
2002.3386
7661.4374
7714.2947
1943.0691
1965.5151
854.19287
790.29751
793.99261
867.65118
1491.6661
1645.6346
1478.3609
1641.2877
687.17654
692.66182
619.15957
619.11262
2152.587
2170.213
2150.224
2140.3812
658.02425
658.15011
2107.0977
762.5597
766.61654
2115.4202
4698.656
4682.9188
18816.212
18699.979
765.10977
764.51522
2122.8575
2128.4174
4719.647
4731.1781
18732.721
18867.132
4421.7744
13318.945
4451.4354
13509.091
4557.5403
13496.428
4554.9909
4381.6384
13612.999
4532.6431
13377.733
13279.942
4429.4365
4500.6084
1964.5727
1965.9918
1963.1202
1939.5804
1477.2196
1500.4352
1643.7229
1653.8339
689.58404
1661.1014
1497.8995
1501.3935
1668.586
695.31611
1982.9419
1986.1867
1960.0964
1971.5756
620.71294
620.47747
3127.1512
3119.2697
3411.8111
1265.8843
3458.6866
4099.8704
4028.6948
4189.7096
3150.2695
3099.9328
3485.3698
3409.5281
1261.1652
4076.6139
4027.8123
4172.6634
4262.2241
1141.7833
1125.221
1147.2611
1286.926
3285.5636
3629.7029
4750.6547
554.81768
862.81224
979.36192
969.92807
850.47655
555.90648
848.85077
976.31383
502.05556
502.82042
4965.1526
5092.7808
5031.8707
5059.3828
4943.7043
4994.9659
654.99738
656.04395
2287.1198
785.08526
787.0103
2297.4532
3660.4778
3651.8309
6875.9415
6813.2913
3667.3847
3626.2384
6794.7661
6857.9961
13094.847
33324.448
33158.777
13038.744
13155.109
13059.853
33161.927
787.09498
786.25129
2302.4505
2316.1924
3697.7971
3670.6211
6860.1111
6899.8884
6928.5419
3685.889
3690.9056
6855.7063
13079.77
13139.246
33266.68
13062.839
13235.906
33233.329
33112.897
21673.791
22053.162
8236.2097
8149.673
21914.482
22183.983
8323.1626
8361.6619
8204.4889
21962.911
22004.69
8340.5687
22368.908
22185.843
8294.5728
8363.1634
21917.62
22006.056
8169.5894
8167.5945
21686.737
21541.845
8073.9364
8192.3087
477.90196
5288.7481
4812.0113
5203.9559
5143.7222
4759.7903
4675.8753
4847.0038
4918.9187
4836.2044
4773.0879
4690.8488
4780.4756
3141.0417
3103.6574
3412.2967
3471.2727
1260.5802
3149.8804
3174.0422
3512.4138
1273.1011
4081.9111
4028.0059
4191.7412
4273.6768
4144.8007
4333.0849
1126.0728
1147.7257
4367.7227
4096.1939
4199.4136
4293.4255
3218.3489
3477.6858
3545.7088
3136.9306
1270.5551
3143.4628
3160.9799
3469.8396
1286.2238
3454.9612
4041.0796
4221.692
4090.7295
4253.4597
1139.5651
1149.9836
5229.2977
5328.0508
4791.1858
4825.0379
4705.0277
5081.5499
5181.8739
4661.5081
4735.7349
4832.8318
4753.5137
4688.6209
4865.412
4860.1453
4973.5928
4801.3564
555.59051
868.14495
984.72236
971.99922
854.70698
556.07754
855.94559
975.88582
988.72097
863.39194
502.59068
503.11144
7107.1204
7259.3638
2713.0313
6107.2196
5993.8563
6883.5968
7111.5334
2707.6881
5968.4568
5810.8525
8045.864
8137.7913
8301.521
8430.6102
2557.7133
2582.7123
8309.267
8413.248
8455.7318
8616.9453
9342.8517
9422.9606
9143.8199
9285.5842
9257.0545
9067.5348
9315.551
9162.6217
9797.014
9379.1661
9853.7039
9469.2006
7156.0521
7237.1337
2742.3516
6093.2675
6036.0955
7087.1401
7152.0794
2688.3558
6023.7736
5998.8839
8365.9269
8472.3667
8423.3585
8588.8593
8278.8474
8389.1232
8331.6195
8481.073
2544.6333
2583.306
9279.1061
9083.2004
9467.1166
9322.7725
8971.0866
8770.8058
9266.154
9086.9049
9463.3269
9050.861
9767.1367
9365.3505
9804.4557
9382.8186
10022.882
9646.9613
2082.6172
2129.271
2270.1893
2245.7269
2098.5299
2068.786
2227.6353
2268.1751
2106.8638
2150.8768
2326.2263
2291.4448
2831.3514
2665.3921
2798.7351
2618.3186
2020.2514
7515.3665
6371.8638
7565.7859
7568.5466
6385.1469
6446.0621
8800.2259
8921.7388
8798.5529
10035.134
9678.8691
9239.6689
9968.1611
748.39466
751.56623
629.82462
628.33568
1265.7909
1304.6564
1432.5993
1473.6381
1864.3966
1697.1246
1644.0099
1824.5017
1807.901
1633.0853
1647.652
1837.756
1252.9029
1248.4115
1428.3853
1415.2458
622.60728
743.08631
625.13859
1231.1018
1252.2858
1411.4811
1437.2498
1669.1136
1631.5131
1869.056
1835.7926
1586.2394
1764.9515
553.54241
557.38385
8954.385
9016.5019
9155.9892
9157.0448
8975.6996
9105.1645
9131.6145
9182.5504
8983.1778
8935.9307
8880.5426
8985.1645
640.55312
641.19047
2368.6626
4176.2497
4130.1477
778.41859
781.78453
2378.9059
4176.9366
4151.0159
7567.238
7482.5578
7466.3448
7541.6309
12571.402
12606.853
18462.441
18328.314
29508.742
28866.142
49298.143
49281.483
28980.704
29290.155
48893.088
49389.18
18185.405
12613.379
12398.326
18448.057
12528.812
12743.101
18340.82
18579.605
12521.011
12556.089
18459.501
29241.616
29268.688
49365.416
48997.895
781.76969
778.57913
2384.8771
4185.609
4211.5181
2398.5968
4186.7904
4212.242
7543.0439
7591.0862
7620.9583
7533.5937
12673.374
12459.263
18477.954
18487.27
18355.526
12655.478
12625.332
29575.747
28926.408
49404.923
49091.705
18431.392
18235.4
12562.94
12555.946
18410.803
18600.943
12796.692
12628.278
29338.655
29374.129
49017.504
49376.271
29465.262
28744.981
49115.327
48841.45
473.8828
39020.665
38000.135
11735.046
11817.942
38854.804
39819.273
11937.186
11915.988
39252.985
38271.736
11943.146
12023.434
39019.983
39716.259
12035.721
12040.192
39471.976
38757.397
11827.435
11909.401
38541.707
39407.139
11941.06
11950.982
40164.514
39558.905
12060.136
12132.761
38819.737
39673.786
12058.691
12062.485
39187.22
38618.139
11865.686
11904.898
38802.206
39354.607
11832.691
11854.634
38864.324
38433.82
11702.387
11761.09
37763.659
38302.095
11705.729
11768.87
478.04056
10272.301
9453.4464
10341.233
9556.2725
9806.3348
8794.9846
9872.3443
8889.1995
9934.962
10075.096
9165.4276
9332.1866
10054.871
9968.1093
9261.487
9231.937
9509.4307
8557.1784
9641.9819
8705.3198
9620.1387
9555.2671
8644.2489
8630.0292
10510.165
10576.214
9789.5526
9906.0216
10362.102
10414.887
9889.3539
9999.8522
10145.695
10015.153
9565.8423
9748.2802
10091.23
10011.366
9643.2501
9609.0728
10258.525
10172.744
9574.462
9537.6835
10154.338
10299.661
9473.8468
9656.7989
7089.0931
7193.3039
2734.4962
6060.9964
5973.7916
7120.7098
7088.5079
2691.3111
5977.0608
6037.3266
8311.4428
8420.7473
8257.5135
8405.5742
8286.8952
8400.3033
8367.6735
8528.409
2546.7104
2577.8407
7156.69
2734.0039
5937.5288
6013.4765
7329.5312
7341.2445
2748.4812
6178.1828
6179.3666
8571.4363
8553.2003
8678.7224
8718.9705
2587.6267
2606.9348
9263.6548
9359.7146
9072.0935
9219.67
9288.2696
9100.9304
9236.5404
9086.0189
9832.9039
9421.6575
9771.7589
9399.2892
9788.8265
9368.8043
9903.5919
9538.8982
9584.4492
9443.9189
10155.875
9682.3175
9778.5575
1128.2139
2096.2816
2072.9224
2232.3953
2264.7855
2146.3342
2097.9966
2292.6714
2267.061
973.55454
855.69266
10207.775
9769.7883
10252.497
9843.855
9274.1121
9516.057
9101.3618
9381.3516
9639.5662
9448.2574
9698.1047
9539.9282
9827.1908
10079.413
9416.2928
9703.1918
7407.4844
7442.8409
2778.7754
6261.9831
6284.6388
8270.7403
8399.3428
8497.4049
8665.9985
8632.8297
8740.2463
8669.6476
8824.4996
7072.1001
7306.0874
2726.2563
5962.9916
6164.6573
2568.1037
2623.9336
7018.5278
6997.8448
2758.418
5901.0142
5925.3526
7134.337
7352.9509
2746.9147
6213.2253
6053.5279
8318.0468
8429.4303
8552.8197
8699.9318
2604.8833
2623.4604
8203.3825
8303.5245
8129.4771
8279.5817
9151.0929
8942.9666
9065.1987
8916.7043
9638.3259
9204.889
9549.1419
9186.8854
9292.1981
9110.1574
9550.1536
9384.1698
9837.4183
9428.572
10078.515
9677.9338
2092.1011
2124.8677
2291.9227
2258.3218
2122.645
2285.0686
2320.0146
2160.4959
10007.637
10220.45
9239.3521
9458.9614
10329.988
9493.6217
10317.232
9526.5148
9588.1931
8643.0944
9764.59
8823.2366
9842.0673
8827.8267
9837.1936
8864.2113
9588.6679
8623.3668
9675.9153
8726.1111
9682.4646
9614.5702
8923.3225
8923.3218
10020.005
9234.2773
10143.183
9369.746
9255.5345
9208.4194
10234.38
9547.448
10397.358
9725.7952
10084.424
10287.995
9633.844
9847.3617
9822.1516
9739.4844
9357.4977
9344.6365
9918.6218
9843.6801
9239.2389
9235.5377
10588.384
9853.6036
10582.545
9892.8199
10066.147
10318.309
9618.8829
9899.4855
10449.407
9972.0112
10468.562
10021.614
10213.543
10455.895
9538.3554
9802.3543
756.8787
752.97563
632.728
631.51082
1479.5966
1307.6986
1274.538
1442.4447
1874.7586
1703.8504
1655.7105
1836.902
1810.2469
1629.7421
1650.189
1837.2503
1415.8709
1256.5609
1262.0032
1436.4608
756.82644
751.16844
626.99851
630.20569
1252.9383
1269.8598
1443.0885
1424.1699
1667.0156
1853.4954
1828.4674
1640.678
1709.977
1665.0689
1852.6839
1899.6386
1296.2244
1269.5882
1441.7792
1482.7605
553.96266
557.77431
20305.65
20322.483
18421.566
18541.998
18531.306
18680.551
20365.569
20361.074
5343.0716
5310.0111
5360.7652
5441.9302
19545.612
19533.668
19400.685
19472.293
17556.102
17745.347
18445.731
18627.67
20410.25
20426.903
5296.3112
5170.7215
5185.7433
5334.2806
19649.375
18732.835
17899.141
18020.116
16413.865
16235.355
16638.535
16766.908
15287.614
15460.263
17220.406
18789.688
17017.266
18894.9
16006.3
17442.344
17586.475
16216.729
4800.7751
4806.1859
4848.2665
4889.6288
4808.4568
4719.7597
4733.6272
4848.0678
17154.466
18772.666
17051.836
18817.068
16090.274
17490.638
17533.869
16177.969
17368.233
18889.617
17204.46
18954.127
16287.111
17656.905
17756.434
16459.281
16777.618
15760.278
15828.706
16794.024
16720.991
16613.107
15647.333
15817.952
15383.954
16278.909
15328.247
16298.646
16279.459
15425.905
16161.95
15256.36
15547.969
16488.77
15535.709
16470.493
16069.105
15171.205
15149.374
16017.579
15846.549
16626.051
15643.551
16777.543
16161.575
15239.538
16316.366
15436.255
15000.162
15698.155
15045.327
15614.653
14850.711
15616.44
15520.08
14802.475
15905.261
15279.11
15753.525
15092.121
14886.751
15655.836
15803.697
15071.319
20627.586
20634.526
18708.197
18822.761
18414.141
18593.036
20244.362
20267.095
5391.2478
5360.5105
5375.9412
5450.3636
19448.157
19831.152
20053.436
20072.079
18232.844
18341.408
18504.924
18698.606
20388.179
20422.803
5347.1161
5318.2979
5325.1576
5386.8546
19608.478
19294.867
19063.224
19095.265
17302.687
17397.978
17777.193
16311.1
16393.751
17746.113
18769.325
18856.242
17262.219
17084.406
17526.602
17630.884
16152.744
16332.036
17005.947
18596.178
16929.88
18622.833
17374.436
16014.051
16066.068
17386.571
17337.062
18854.224
17132.78
18968.706
17568.14
16165.434
17714.059
16378.925
4854.2912
4816.5357
4802.9801
4868.0255
4838.685
4856.8911
4899.0571
4919.3372
15636.515
16549.407
15564.147
16581.976
16086.237
15166.948
15226.812
16110.186
16875.963
15972.734
16761.342
15800.638
16336.597
15431.495
16458.342
15605.947
14932.193
15711.486
14769.988
15839.99
15249.036
15376.198
14374.47
14533.707
15650.704
16450.933
15441.614
16608.632
15006.787
15943.481
16108.493
15216.55
14362.583
14850.194
14213.574
14971.337
14727.365
14847.523
14003.883
14156.355
15668.988
15022.722
15499.435
14817.015
14579.906
15353.135
15523.65
14786.579
15051.401
15681.475
15009.7
15689.536
14805.178
15573.355
15570.049
14841.192
16083.752
15467.361
15958.568
15301.424
15109.065
15874.22
15996.174
15274.453
3720.3541
3785.1723
3868.643
3911.5408
3800.9603
3829.1188
3911.326
3928.4456
4340.0084
4298.437
4328.1045
4402.7855
4385.3788
4319.2638
4271.2345
4377.4612
3775.8137
3823.2857
3917.7008
3951.62
3763.1385
3787.0018
3894.5624
3902.6379
4389.1386
4318.1653
4307.0038
4390.8889
4435.9733
4368.4874
4325.0565
4424.2912
3876.3644
3902.4784
4049.4675
4027.2381
3951.5554
3954.508
4094.3145
4092.9604
4630.7683
4535.0598
4520.1378
4609.0772
4446.4058
4485.0425
4583.9028
4552.9045
5728.9677
5665.9076
5589.7714
5690.0257
5159.5933
5094.8131
5041.729
5111.9501
5670.6287
5603.9609
5545.0419
5666.6924
5104.1776
5036.6907
4982.5766
5072.3126
3670.9959
3659.5906
3787.2519
3812.9195
21226.907
21226.805
19345.301
19460.272
20401.797
20703.079
20746.89
18927.755
19074.981
19244.796
19429.868
21129.436
21151.874
20326.429
19942.998
17796.578
19313.2
17671.065
19384.59
18138.125
18206.03
16794.864
16907.542
18096.268
19624.344
17895.61
19728.097
14791.061
15349.982
14758.102
15342.15
14109.853
14509.271
13961.153
14629.158
14486.033
14614.68
13810.095
13972.792
14709.053
15099.692
14512.641
15269.599
1106.2967
1111.0168
870.93934
868.75105
1145.7858
1126.4661
888.99504
897.30212
711.02158
706.76054
1677.171
1668.7466
1912.4452
1898.1584
1770.6158
1798.7991
2060.9772
1989.9173
2183.4348
2215.407
2437.6529
2396.6743
2281.8449
2376.2944
2578.5791
2490.3081
3469.0626
3361.2291
3298.8935
3440.117
3029.9321
2878.9598
2792.1972
2964.2646
2691.216
2741.4591
2922.883
2869.9178
3415.2088
3264.3314
3201.9649
3363.1669
3415.2819
3272.2299
3231.3252
3392.4871
2908.4845
2725.3738
2686.3311
2881.5865
2742.4348
2749.2934
2941.3905
2926.7484
3447.48
3295.1819
3267.1526
3419.7225
1674.2217
1647.4332
1891.7502
1907.2606
1644.5031
1637.2237
1886.924
1861.9079
2207.9486
2200.1113
2433.6469
2433.5486
2148.9204
2189.9475
2418.8164
2375.8559
698.97696
865.30175
1100.5502
1093.7584
860.31911
1620.1788
1612.5976
1849.626
1854.9496
1659.685
1675.8164
1946.6043
1898.9042
2158.1075
2158.4592
2410.0156
2406.4714
2209.0716
2267.4087
2506.7825
2460.2629
2834.3033
2795.8123
3012.4077
3034.1706
2733.7615
2743.7421
2951.0443
2961.8901
3399.555
3565.2094
3562.4902
3385.9178
3334.33
3514.0075
3496.0687
3313.9039
2792.5702
2603.8666
2623.8039
2817.0642
3158.7621
3148.1599
3298.9399
3314.9083
2075.9982
2299.2769
544.54414
548.30435
12447.64
12559.878
12709.293
12634.959
12657.119
12768.109
12796.044
12745.998
12543.867
12644.058
12693.364
12641.664
12782.199
12875.36
12795.877
12739.23
12577.518
12633.534
12554.647
12531.452
12401.365
12471.634
12405.1
12424.666
619.84641
806.50595
802.23342
620.26017
804.57749
804.64449
585.05656
4183.5056
4114.7705
2348.1026
4774.8879
4834.5801
4159.9218
4168.2065
2359.0568
4847.5357
4800.0012
2173.672
6355.1807
6343.0669
10468.254
10548.093
15691.844
16038.296
6289.9154
6241.0599
10401.124
15772.518
10335.669
6269.2193
6242.3522
10314.746
10421.246
15537.266
15899.098
6345.7899
6297.7876
10477.113
10412.396
15816.608
15777.159
23174.545
18972.473
23301.007
19069.393
18820.297
18851.225
22956.97
23084.697
41475.032
27131.928
27276.564
41657.395
27076.804
26893.342
41008.566
41368.989
54486.274
65572.804
65755.985
55095.987
55049.582
65584.815
65216.558
54806.949
26716.896
27000.767
40681.717
41338.916
41821.305
27226.95
27114.934
41418.46
54049.492
64953.494
65363.15
54528.974
65423.269
65895.715
54723.489
54755.203
18621.568
18776.118
23017.735
22782.232
23242.944
18979.554
19037.045
23180.956
22939.993
18770.394
23159.859
18923.272
19114.358
19161.525
23386.833
23301.354
23208.293
18959.634
19059.024
23334.145
41123.668
26911.133
27164.228
41463.731
27245.836
27382.305
41294.914
41805.369
65895.169
55263.598
54943.63
65386.975
54250.321
65323.737
65529.773
54901.615
4214.1526
4170.3166
2364.4568
4847.1664
4870.5659
4195.9686
4204.0932
2373.3786
4879.2479
4838.6292
6352.7711
6321.9042
10524.615
10407.491
15963.283
6394.709
6349.0596
10550.372
10489.24
15846.62
15893.712
6386.953
6394.692
10588.767
10563.018
16092.789
15820.78
6344.8387
6299.9778
10468.499
10392.949
15719.975
15808.348
19027.281
19095.946
23204.689
23254.386
19030.415
19132.363
23339.824
23215.079
18876.148
18920.466
22984.999
23088.518
27141.275
27262.547
41721.196
41782.831
27026.431
26852.172
41522.444
41037.849
54988.641
65519.937
65635.735
55205.596
64928.021
65491.058
54875.233
54648.274
18967.124
19053.454
23274.875
23176.943
18744.446
18775.59
22847.87
22975.428
18881.902
19032.883
23223.071
23005.602
19161.66
19216.017
23319.131
23386.695
26910.687
27159.045
41241.435
41814.941
27324.528
27204.549
42045.887
41625.419
54322.864
65139.984
65539.769
54723.501
65492.039
65904.174
54964.462
54864.73
27121.617
27221.24
41456.13
41643.549
26945.652
26745.876
41468.07
40967.146
54495.202
65451.9
65672.002
54804.937
64936.685
65548.529
54519.617
54371.447
531.84726
473.6394
41384.886
40360.141
41219.469
42235.602
41641.621
40654.534
41358.175
42167.507
41780.007
41115.208
40845.131
41809.471
42479.224
41875.944
41039.036
42011.645
41480.643
40915.575
41015.753
41614.736
41141.63
40731.981
39965.918
40600.521
13936.63
14667.872
13885.773
14689.853
14146.482
13222.757
13274.952
14179.157
13949.155
14647.847
13880.611
14685.866
14136.819
13222.445
14174.734
13291.026
12734.47
13430.638
12691.639
13460.254
12170.001
12898.1
12926.408
12245.323
13463.55
12752.306
13424.833
12695.52
12182.039
12893.024
12921.708
12204.917
14112.981
13396.775
13443.374
14141.29
14253.392
14112.25
13418.262
13577.29
13672.476
12803.677
12839.825
13689.662
13821.489
13684.8
12828.59
12979.802
14378.765
13623.61
13596.216
14309.187
14147.624
13431.348
13529.115
14226.841
12982.298
13896.251
12999.337
13843.409
12930.615
13705.07
12842.129
13772.153
12343.981
13021.177
12318.758
13028.208
11828.172
12530.996
12537.415
11889.927
13162.179
12476.504
13035.877
12347.178
11850.096
12544.07
12650.492
11943.631
13219.397
12498.306
12480.986
13173.812
13058.536
12363.5
13114.709
12431.606
11992.006
12019.096
12715.287
12677.484
12617.391
12580.52
11925.139
11961.289
15058.377
15690.89
14979.892
15718.769
15659.623
14979.722
15087.772
15745.955
15384.234
14391.832
15449.196
14458.383
14384.454
14480.493
15378.031
15434.079
15365.466
15942.984
15321.922
15945.248
15866.928
15277.293
15428.924
15972.223
15918.118
15156.826
15929.719
15213.961
15131.964
15273.537
15862.504
15970.389
15253.813
15434.965
14911.636
14692.198
15312.21
14710.193
14778.839
15333.005
15308.58
15269.921
14543.356
14623.246
14541.396
15239.061
15425.604
14758.347
15550.805
14963.701
14929.875
15467.833
15232.743
14666.508
14862.623
15397.637
15556.353
14825.154
14795.964
15479.99
15233.267
14537.346
14719.991
15392.587
15357.341
14676.78
14656.506
15287.058
15051.372
14414.409
14563.858
15190.509
15074.396
14104.957
14082.433
15034.064
14812.002
13874.521
14006.424
14920.988
15039.961
14365.654
14452.063
15088.49
15196.047
15019.057
14371.552
14565.888
14744.993
13823.996
13903.372
14817.819
14891.364
14734.5
13833.381
14023.457
20344.656
20354.923
18464.996
18589.5
18199.329
18409.934
20016.677
20055.883
5354.1362
5304.291
5338.1902
5423.0235
19241.852
19546.826
20029.466
20042.848
18254.71
18359.734
18238.219
18450.082
20097.609
20140.937
5335.1516
5375.3449
5349.1471
5298.2044
19304.489
19229.856
18629.555
18661.313
17073.914
16986.739
17441.668
16087.779
16161.125
17472.699
17126.958
18581.703
16882.346
18728.059
17309.822
15923.062
17508.655
16186.796
18820.469
18869.429
17093.598
17210.871
17598.468
16126.816
16237.486
17538.06
18537.418
18670.31
17104.568
16871.369
17299.023
17474.003
15940.415
16191.089
4789.0893
4821.2263
4866.292
4847.5567
4849.7469
4804.0935
4829.3464
4902.3852
2536.508
18496.189
18725.053
20469.087
20519.838
5340.6593
5289.6737
5374.9743
5298.7364
19720.138
20995.492
21002.246
19060.924
19178.948
18700.361
18844.284
20563.104
20547.074
5453.6586
5493.909
5504.4803
5424.5362
20199.825
19739.289
19425.891
17664.749
17780.784
19474.998
19067.993
17374.252
17548.556
19133.348
18126.51
16681.089
16793.169
18190.778
17953.036
17839.206
16454.763
16643.827
4857.2494
4922.2368
4946.7867
4972.5804
4862.7871
4845.5921
4850.2821
4895.2733
16586.437
15588.534
15688.465
16644.326
16585.529
16384.584
15435.241
15689.284
15263.372
16107.301
15172.152
16161.677
16150.056
15306.095
15940.664
15052.71
15670.119
16565.777
15620.587
16584.38
16162.242
15265.654
15285.885
16155.826
15662.947
16370.234
15403.559
16587.99
15913.518
15012.437
16130.731
15263.128
15144.065
15804.679
15154.781
15764.609
14976.021
15740.534
15676.554
14953.279
15724.449
15103.505
15519.682
14875.059
14687.667
15431.542
15619.01
14902.402
15679.018
14995.981
15071.245
15721.616
14772.567
15552.708
15585.593
14842.803
15550.076
15759.873
14911.948
15154.403
14723.959
15661.531
14955.81
15459.755
17069.739
16939.234
15975.899
16158.285
16648.253
15612.689
15786.521
16520.291
16147.332
16269.45
15650.133
15487.544
16183.212
15367.856
16193.114
15419.58
15300.233
16069.601
16184.466
15458.146
2069.9933
2230.4334
2241.0187
2086.6307
3760.8261
3797.6237
3907.443
3920.4439
3780.8959
3822.1266
3929.6167
3902.2853
4307.163
4339.2542
4402.6938
4383.1117
4326.2075
4394.1721
4412.8526
4313.6213
4029.374
3945.8929
3898.6782
4006.573
3760.9587
3835.479
3974.799
3914.4016
4410.8817
4427.583
4449.7599
4460.4479
4478.9313
4394.9439
4321.7456
4428.729
754.63
629.67228
1655.6676
1625.828
1807.7298
1835.9577
1270.5969
1249.8163
1410.0366
1441.2468
15717.149
16265.357
15601.277
16356.465
16187.375
15394.789
15493.386
16258.135
16475.713
15819.642
16408.872
15711.186
16282.713
15459.807
16335.741
15560.449
16573.73
15597.834
15717.077
16641.346
16930.015
16794.866
15837.906
16032.474
15317.872
16129.678
15213.767
16201.969
16509.92
15656.204
16372.798
15468.934
16237.833
17017.691
16063.441
17164.664
16615.604
15713.89
15860.619
16742.476
16442.2
17304.727
16287.535
17401.213
16828.003
15871.663
16918.586
16007.795
15732.575
15062.806
15147.035
15784.714
15990.714
15334.675
16122.669
15507.258
14849.267
14928.847
15627.537
15668.891
16024.29
15903.357
15132.704
15300.278
20598.161
20666.417
18767.264
18960.081
19207.103
19346.043
21143.334
21118.808
5582.5733
5531.3457
5521.5667
5585.6689
20312.961
19864.258
18684.543
18736.453
17006.415
17133.567
17540.789
16092.256
16216.349
17468.185
18902.901
18984.485
17425.758
17232.108
17686.062
17811.342
16315.839
16519.027
17646.188
19127.004
17450.594
19259.181
17898.505
16527.52
16724.869
18052.662
17964.597
19575.711
17803.615
19628.107
18262.637
16815.951
18355.22
16983.665
20109.734
20131.867
18302.224
18437.302
18534.802
18710.702
20343.07
20345.801
5431.0487
5265.7055
5318.1405
5506.5799
19298.367
19515.665
4896.6658
4763.847
4813.8543
4970.0806
4974.0498
4963.5327
5029.714
5042.1373
20340.869
20331.296
18393.408
18507.147
17805.913
17954.955
19669.834
19654.748
5318.2806
5313.5803
5276.0401
5313.9867
18914.15
19555.859
19987.04
20059.563
18174.652
18378.314
18939.683
19119.633
20829.833
20832.617
5406.7426
5380.4566
5504.8035
5561.8148
19993.927
19258
18527.791
18664.806
17076.632
16875.8
17310.432
17462.12
15960.469
16158.074
17763.674
19304.721
17562.062
19397.462
16584.78
18015.277
18146.65
16790.116
4921.6239
4885.703
4970.2746
5037.1096
4832.0161
4879.9367
4886.539
4866.2815
17065.825
18738.276
16968.311
18762.272
15960.34
17400.417
17425.307
16038.983
16592.85
18132.143
16442.708
18183.785
15482.762
16849.057
16917.002
15622.843
15437.711
16402.716
15381.73
16412.63
15880.028
14929.558
14965.451
15874.108
15962.829
15058.727
15897.746
14936.055
15406.736
14515.993
15461.507
14625.509
14726.953
15413.942
14717.53
15384.733
14462.838
15249.53
15199.867
14461.243
15019.375
14417.414
14975.533
14329.569
14103.709
14834.378
14861.119
14181.503
15664.508
16422.749
15483.644
16571.873
16007.822
16146.382
15122.176
15290.088
16237.261
17055.054
16045.806
17192.598
15624.365
16574.778
16704.636
15804.353
15143.075
15641.308
14997.34
15761.221
14804.013
15558.077
15665.609
14946.724
16262.033
15610.679
16143.801
15452.7
15218.422
16018.11
16118.943
15365.936
3837.882
3783.7786
3902.082
3983.7657
3861.8046
3849.1177
3988.361
4011.9552
4417.4492
4509.7756
4532.8887
4437.9451
4396.3634
4300.8268
4362.7501
4484.1704
3909.1211
3857.8705
3984.3036
4043.595
4465.0417
4399.0993
4463.6039
4548.4289
4489.0624
4457.7304
4392.5975
4454.0297
4048.272
3934.3435
3881.1942
4006.4429
14220.602
13495.978
13540.698
14243.651
14493.188
14436.693
13691.898
13779.239
12939.337
13770.43
12899.634
13785.815
14004.89
13151.819
13946.951
13061.875
13865.355
14604.352
13827.642
14604.77
14080.176
13171.905
13213.666
14096.235
13883.857
14613.433
13843.135
14612.92
14096.971
13188.844
14108.079
13237.595
13118.414
12416.867
12447.819
13129.527
11946.858
12647.665
12632.236
12029.896
13265.052
13324.311
12556.598
12633.835
12089.863
12804
12126.54
12759.963
12684.691
13378.322
12651
13393.216
12106.699
12854.267
12869.542
12185.129
13407.095
12703.88
13390.997
12665.009
12177.481
12865.743
12875.063
12194.722
12421.679
13085.992
12389.538
13100.788
12608.399
11898.189
11976.021
12617.515
13250.251
12559.478
13251.564
12533.15
12747.997
12085.408
12736.397
12083.876
13750.773
13057.268
13028.724
13682.324
13454.671
13451.5
12801.025
12847.736
12461.401
13335.333
12487.384
13269.179
13085.714
12324.183
13067.733
12264.248
13514.464
14174.842
13454.464
14214.523
13728.253
12863.196
12913.447
13757.851
13716.433
14450.01
13685.408
14440.221
13944.26
13043.288
13939.49
13081.271
12709.315
12022.879
11994.903
12647.391
12475.379
11822.501
12506.225
11879.892
14572.923
15115.283
14445.292
15214.919
14827.084
13900.973
13998.954
14931.926
14862.869
15481.816
14798.42
15529.766
15193.501
14200.441
15195.994
14258.188
15345.704
14770.167
14900.934
15446.12
15761.606
15151.051
15275.337
15850.611
15335.403
14616.137
14753.928
15437.52
15722.59
14973.229
15089.221
15795.044
14969.859
14363.963
14354.989
14911.362
14604.687
14586.098
14028.654
14092.812
14899.351
14171.045
14174.189
14846.769
14547.757
14538.067
13860.254
13922.446
14639.268
13967.367
13973.989
14597.275
14308.762
14302.493
13674.467
13723.838
13453.613
13449.454
14327.748
14304.945
14015.182
14010.453
13174.062
13235.766
15049.054
15677.662
14963.497
15734.366
15340.58
14355.863
14402.402
15399.092
15719.585
15055.421
15690.808
14990.444
15371.253
14363.854
15388.935
14423.949
15387.622
14787.406
14867.465
15426.159
15674.347
15086.624
15239.013
15790.909
14721.743
15355.452
14628.316
15405.116
15080.054
15657.358
14932.464
15764.074
15437.374
15954.549
15345.805
16011.63
15924.789
15167.721
15264.795
15986.855
15459.721
16003.175
15375.605
16049.429
15945.656
15183.607
15982.914
15270.748
15129.833
14453.344
14559.205
15193.876
15434.68
14763.269
15531.662
14886.858
13929.308
14012.749
14843.951
14933.639
15222.517
15152.543
14185.62
14304.655
905.84024
1152.8716
1137.6929
898.77194
1117.8707
1122.2111
881.16107
879.34393
715.398
711.1897
2595.1081
2382.75
2527.8199
2314.4673
2060.6157
1796.1782
1768.7731
2009.878
1926.2653
1686.3693
1679.2481
1921.9022
2215.2087
2235.9307
2467.9012
2436.2381
3573.1102
3449.8143
3524.4976
3386.1093
3097.4468
2925.5243
3033.6615
2852.6489
2730.0005
2773.5886
2961.6244
2911.722
3240.4396
3305.366
3464.9891
3402.9393
3448.0966
3302.3032
3258.4196
3415.1773
2935.1949
2737.7671
2699.7129
2900.3915
2728.7729
2740.8084
2933.9072
2912.9104
3433.5616
3285.3632
3247.3836
3404.7655
2419.8765
2196.2886
2174.8401
2395.5479
1904.19
1673.1491
1662.6712
1886.6516
1682.9177
1664.9964
1909.2573
1913.8243
2438.7196
2212.4071
2207.878
2429.8818
1126.4427
1142.2861
888.97353
881.90545
1122.3243
1117.2857
881.76667
883.60621
705.39185
719.02366
1650.8023
1657.433
1891.4969
1872.593
1675.7183
1690.4625
1953.6385
1923.7893
2223.6198
2261.3383
2484.6833
2453.6165
2162.3055
2394.9694
2425.2173
2191.9092
2766.9723
2791.9932
2973.3392
2961.597
3316.4215
3317.9281
3473.6551
3484.8541
3413.6412
3263.0287
3294.3854
3467.592
2911.998
2709.7642
2741.8935
2943.6843
2896.103
2898.4112
3080.0644
3068.0754
2794.8073
2772.4075
2964.0102
3002.5967
3477.4099
3322.9113
3377.4418
3535.3573
3402.9797
3432.8197
3571.8015
3536.8202
1790.4211
1744.5728
2003.5551
2041.1977
1681.609
1676.9529
1914.1592
1920.2563
2218.9694
2453.8353
2469.5029
2230.0659
2360.001
2334.6815
2572.3746
2584.1232
544.63461
549.20108
27071.793
27342.743
27275.242
27459.452
27743.359
27560.628
27551.257
27454.476
18096.918
17115.342
16982.005
18021.885
28899.359
29361.025
35719.432
35347.138
28902.907
28297.087
34426.637
35251.627
25554.064
26085.072
25765.871
26214.273
27483.553
27470.527
27309.714
27379.37
17246.891
16639.195
17473.766
18218.728
28709.392
28845.614
34998.613
35063.422
31658.739
25924.521
27017.643
33142.288
26215.946
26697.785
27298.385
26785.849
27394.026
27944.786
27983.453
28570.053
28625.565
28002.805
28631.859
27984.472
29987.821
29316.751
29322.777
29991.384
15014.761
15230.791
16172.009
15991.002
15379.226
15050.953
15844.147
16313.22
28619.878
27789.082
28418.053
27979.492
29773.457
29102.231
29317.336
29987.767
28800.381
28317.684
29004.807
28113.38
30477.233
29749.135
29547.018
30269.613
30921.273
31611.787
31833.329
31149.693
30669.183
30894.642
31610.013
31371.188
33191.07
32321.691
32999.256
32534.105
32091.627
32781.895
32340.034
33037.363
31004.462
30208.611
30921.541
30330.23
31658.92
32364.734
32374.962
31704.231
31772.77
30971.75
31685.325
31064.286
32415.393
33113.343
32496.542
33192.631
33760.797
33081.248
33783.169
33074.067
35190.438
34509.181
34487.033
35174.738
33907.532
34611.863
33823.036
34521.642
35928.383
35245.179
35346.655
36040.23
27456.833
27742.862
27666.775
27865.375
27475.255
27350.92
27261.959
27228.956
18359.824
17352.851
16954.216
17963.634
28485.036
28798.07
35083.522
34887.523
29500.567
28806.123
34979.457
35886.536
26708.973
26929.629
26919.655
27057.459
27573.083
27629.603
27384.434
27521.108
17891.657
16942.032
17079.284
18105.657
29104.91
29053.937
35315.092
35533.603
28373.617
27809.407
33878.474
34637.268
28198.128
28403.029
28839.136
29058.632
29768.018
30217.844
30452.763
29536.452
28043.36
27889.452
28542.617
28720.12
29450.584
29256.579
30165.388
29954.983
28243.274
27444.497
28094.905
27586.954
28801.225
29493.095
29636.605
28955.569
28886.976
28139.118
28815.392
28198.291
29543.11
30251.15
29630.167
30341.508
16036.63
15128.493
15132.236
16102.574
15042.984
15419.595
16384.841
15992.36
31347.573
30460.659
31143.43
30673.086
31853.264
32534.29
32728.582
32056.421
31005.003
31728.588
31214.024
31939.638
32685.732
33398.998
32474.286
33186.006
29844.444
28589.584
29201.377
29210.874