/*--------------------------------*- C++ -*----------------------------------*\
  =========                 |
  \\      /  F ield         | OpenFOAM: The Open Source CFD Toolbox
   \\    /   O peration     | Website:  https://openfoam.org
    \\  /    A nd           | Version:  7
     \\/     M anipulation  |
\*---------------------------------------------------------------------------*/
FoamFile
{
    version     2.0;
    format      ascii;
    class       volScalarField;
    location    "2000";
    object      p;
}
// * * * * * * * * * * * * * * * * * * * * * * * * * * * * * * * * * * * * * //

dimensions      [0 2 -2 0 0 0 0];

internalField   nonuniform List<scalar> 
34251
(
-1.5084137e+183
-1.5203045e+183
-1.4726675e+183
-1.4485409e+183
-1.4662116e+183
-1.4423848e+183
-1.3043256e+183
-1.3977185e+183
-1.3920268e+183
-1.4827348e+183
-1.4834195e+183
-1.4758924e+183
-1.4766456e+183
-1.4529658e+183
-1.44981e+183
-1.4317178e+183
-1.4348006e+183
-1.4440582e+183
-1.446915e+183
-1.4259034e+183
-1.42882e+183
-1.3429278e+183
-1.2941579e+183
-1.2994193e+183
-1.3482675e+183
-1.3027116e+183
-1.3279255e+183
-1.3053549e+183
-1.3249173e+183
-1.2588605e+183
-1.2638928e+183
-1.2097991e+183
-1.2144414e+183
-1.4032742e+183
-1.3999951e+183
-1.3946218e+183
-1.3971959e+183
-1.4684462e+183
-1.4749622e+183
-1.4560622e+183
-1.4491724e+183
-1.4524448e+183
-1.4594027e+183
-1.46344e+183
-1.4600323e+183
-1.4583117e+183
-1.4616241e+183
-1.4463684e+183
-1.443348e+183
-1.450278e+183
-1.4533079e+183
-1.454347e+183
-1.4573138e+183
-1.4526115e+183
-1.4554966e+183
-1.4282959e+183
-1.4394976e+183
-1.4267114e+183
-1.4363376e+183
-1.4235232e+183
-1.4379574e+183
-1.4251932e+183
-1.4181008e+183
-1.4322867e+183
-1.4193915e+183
-1.4335529e+183
-1.4348961e+183
-1.4206462e+183
-1.4220562e+183
-1.3657041e+183
-1.3682028e+183
-1.3372204e+183
-1.3398879e+183
-1.2948775e+183
-1.2923101e+183
-1.3170507e+183
-1.314339e+183
-1.2492812e+183
-1.3197496e+183
-1.2975746e+183
-1.3003665e+183
-1.3224819e+183
-1.2542791e+183
-1.3707982e+183
-1.3740354e+183
-1.345388e+183
-1.3423574e+183
-1.200842e+183
-1.2054991e+183
-1.3041198e+183
-1.3028007e+183
-1.312665e+183
-1.2818864e+183
-1.3140274e+183
-1.3272677e+183
-1.3254769e+183
-1.3370189e+183
-1.3071089e+183
-1.3053808e+183
-1.3171455e+183
-1.315415e+183
-1.2843383e+183
-1.3240227e+183
-1.3226359e+183
-1.3342352e+183
-1.3355951e+183
-1.2595841e+183
-1.2619989e+183
-1.2644031e+183
-1.2868362e+183
-1.3085687e+183
-1.318644e+183
-1.3459398e+183
-1.1618118e+183
-1.212922e+183
-1.2380485e+183
-1.240293e+183
-1.2144266e+183
-1.1660635e+183
-1.2164445e+183
-1.2424919e+183
-1.1071061e+183
-1.111207e+183
-1.4071251e+183
-1.4038557e+183
-1.4054918e+183
-1.3996633e+183
-1.400943e+183
-1.4024656e+183
-1.4243791e+183
-1.4300116e+183
-1.4322076e+183
-1.4251068e+183
-1.4281882e+183
-1.435203e+183
-1.4473356e+183
-1.4457429e+183
-1.4490345e+183
-1.4506675e+183
-1.4442794e+183
-1.4426539e+183
-1.4459587e+183
-1.447575e+183
-1.4483909e+183
-1.4449076e+183
-1.4432906e+183
-1.4467605e+183
-1.4498274e+183
-1.4514749e+183
-1.446401e+183
-1.4223548e+183
-1.4196542e+183
-1.4268502e+183
-1.4294952e+183
-1.4387771e+183
-1.4373704e+183
-1.4406671e+183
-1.4420848e+183
-1.4433008e+183
-1.4400393e+183
-1.4413342e+183
-1.4446338e+183
-1.4414473e+183
-1.4428431e+183
-1.4393111e+183
-1.4453993e+183
-1.4440374e+183
-1.4405422e+183
-1.4418961e+183
-1.4309549e+183
-1.4318281e+183
-1.4234805e+183
-1.4226069e+183
-1.42785e+183
-1.4286226e+183
-1.4194419e+183
-1.4202148e+183
-1.4209629e+183
-1.4293777e+183
-1.4301463e+183
-1.4217935e+183
-1.4238835e+183
-1.4244532e+183
-1.4153285e+183
-1.4159414e+183
-1.4251005e+183
-1.4257973e+183
-1.4166006e+183
-1.4173052e+183
-1.4264713e+183
-1.427137e+183
-1.417982e+183
-1.4187145e+183
-1.0447195e+183
-1.3640692e+183
-1.3816144e+183
-1.3667112e+183
-1.3652448e+183
-1.3843269e+183
-1.3828305e+183
-1.3497866e+183
-1.33629e+183
-1.3390981e+183
-1.3375994e+183
-1.3510612e+183
-1.35244e+183
-1.2962205e+183
-1.2945924e+183
-1.3044938e+183
-1.3060518e+183
-1.2742443e+183
-1.2920491e+183
-1.2933529e+183
-1.303206e+183
-1.2717432e+183
-1.3160325e+183
-1.3144284e+183
-1.325938e+183
-1.3275065e+183
-1.3131255e+183
-1.3246029e+183
-1.2523788e+183
-1.2498653e+183
-1.3287469e+183
-1.3187024e+183
-1.317347e+183
-1.3299687e+183
-1.2975812e+183
-1.308823e+183
-1.3073818e+183
-1.2989718e+183
-1.2768643e+183
-1.3016164e+183
-1.3001999e+183
-1.3100488e+183
-1.2796875e+183
-1.3114819e+183
-1.321472e+183
-1.3330052e+183
-1.3199331e+183
-1.3313664e+183
-1.25483e+183
-1.2576944e+183
-1.3694832e+183
-1.3679242e+183
-1.3873178e+183
-1.3856845e+183
-1.3889546e+183
-1.3727441e+183
-1.371058e+183
-1.3906012e+183
-1.3566259e+183
-1.3429903e+183
-1.3447007e+183
-1.358276e+183
-1.353557e+183
-1.3414515e+183
-1.340161e+183
-1.3550164e+183
-1.1532473e+183
-1.2041481e+183
-1.2288283e+183
-1.2313043e+183
-1.2061544e+183
-1.1575145e+183
-1.2084661e+183
-1.2336269e+183
-1.2364276e+183
-1.2113358e+183
-1.0991206e+183
-1.1031225e+183
-1.3083009e+183
-1.309002e+183
-1.2947163e+183
-1.3041606e+183
-1.3034754e+183
-1.3070262e+183
-1.3076985e+183
-1.2934698e+183
-1.3028607e+183
-1.3021845e+183
-1.3117807e+183
-1.31687e+183
-1.312439e+183
-1.3174989e+183
-1.2850632e+183
-1.2838719e+183
-1.3130154e+183
-1.3181102e+183
-1.3137587e+183
-1.3188658e+183
-1.3262866e+183
-1.3272467e+183
-1.3316532e+183
-1.3325475e+183
-1.3246388e+183
-1.3299961e+183
-1.3254477e+183
-1.3308162e+183
-1.3354602e+183
-1.341439e+183
-1.3362644e+183
-1.3421804e+183
-1.3112802e+183
-1.3122708e+183
-1.2975242e+183
-1.3073977e+183
-1.3063918e+183
-1.3096184e+183
-1.3104424e+183
-1.29586e+183
-1.3055413e+183
-1.3047625e+183
-1.3160475e+183
-1.321188e+183
-1.3170451e+183
-1.322168e+183
-1.3144018e+183
-1.319552e+183
-1.3152364e+183
-1.3203522e+183
-1.2860594e+183
-1.2877181e+183
-1.3231686e+183
-1.3285693e+183
-1.3239395e+183
-1.3293142e+183
-1.3219005e+183
-1.3272621e+183
-1.3225433e+183
-1.3279276e+183
-1.332786e+183
-1.338822e+183
-1.3334519e+183
-1.3394705e+183
-1.334065e+183
-1.3400895e+183
-1.3348145e+183
-1.3408129e+183
-1.2668499e+183
-1.2660375e+183
-1.2749431e+183
-1.2760081e+183
-1.269215e+183
-1.2677871e+183
-1.2769711e+183
-1.2785297e+183
-1.2718419e+183
-1.2704656e+183
-1.2798747e+183
-1.2812723e+183
-1.2989556e+183
-1.2890371e+183
-1.3002697e+183
-1.290398e+183
-1.2729824e+183
-1.3145121e+183
-1.3096156e+183
-1.3130434e+183
-1.3138634e+183
-1.3089715e+183
-1.3082044e+183
-1.3177968e+183
-1.3229312e+183
-1.3186249e+183
-1.3460147e+183
-1.3447348e+183
-1.3511211e+183
-1.3453977e+183
-1.1853789e+183
-1.1843281e+183
-1.1457905e+183
-1.1463539e+183
-1.2234316e+183
-1.2235286e+183
-1.2369803e+183
-1.236592e+183
-1.2567872e+183
-1.2467676e+183
-1.2473084e+183
-1.2574855e+183
-1.2584442e+183
-1.2481547e+183
-1.2494036e+183
-1.2596933e+183
-1.2249797e+183
-1.2239244e+183
-1.2387206e+183
-1.2375972e+183
-1.1483372e+183
-1.1874541e+183
-1.1519849e+183
-1.2268213e+183
-1.2255896e+183
-1.2410175e+183
-1.2396318e+183
-1.250493e+183
-1.2518667e+183
-1.2609058e+183
-1.2622818e+183
-1.2532633e+183
-1.2635016e+183
-1.0961562e+183
-1.1001805e+183
-1.410414e+183
-1.4112614e+183
-1.4071801e+183
-1.4078958e+183
-1.4086803e+183
-1.4096272e+183
-1.4029862e+183
-1.4036761e+183
-1.4043048e+183
-1.4049666e+183
-1.4056798e+183
-1.4065107e+183
-1.3761651e+183
-1.3814073e+183
-1.4076474e+183
-1.4324174e+183
-1.4308916e+183
-1.4016169e+183
-1.4045005e+183
-1.4104213e+183
-1.4338419e+183
-1.4353976e+183
-1.4381311e+183
-1.4396792e+183
-1.435174e+183
-1.4366396e+183
-1.440511e+183
-1.4412442e+183
-1.4411189e+183
-1.441897e+183
-1.4395246e+183
-1.4402819e+183
-1.435064e+183
-1.4358181e+183
-1.4380519e+183
-1.4388335e+183
-1.4335593e+183
-1.4343368e+183
-1.4396561e+183
-1.4398037e+183
-1.4390407e+183
-1.4404435e+183
-1.4420097e+183
-1.4428322e+183
-1.4426368e+183
-1.4435026e+183
-1.4435797e+183
-1.4443534e+183
-1.4442237e+183
-1.4410627e+183
-1.4419294e+183
-1.4375092e+183
-1.4366362e+183
-1.3991279e+183
-1.3964952e+183
-1.4027543e+183
-1.4258657e+183
-1.4271867e+183
-1.4052161e+183
-1.4296364e+183
-1.4283955e+183
-1.4301219e+183
-1.4314192e+183
-1.4326413e+183
-1.4338667e+183
-1.4346152e+183
-1.4339299e+183
-1.4352106e+183
-1.435789e+183
-1.4364327e+183
-1.4358581e+183
-1.4352394e+183
-1.4341737e+183
-1.4347765e+183
-1.4296632e+183
-1.430234e+183
-1.4383099e+183
-1.438994e+183
-1.438362e+183
-1.4377271e+183
-1.4370258e+183
-1.437728e+183
-1.4371304e+183
-1.4364694e+183
-1.4353999e+183
-1.4361022e+183
-1.4308788e+183
-1.4315794e+183
-1.4367068e+183
-1.4373641e+183
-1.4322144e+183
-1.4328575e+183
-1.039127e+183
-1.4245061e+183
-1.4240738e+183
-1.4198005e+183
-1.4202234e+183
-1.4253834e+183
-1.4249293e+183
-1.420617e+183
-1.4211075e+183
-1.4213905e+183
-1.420997e+183
-1.4166655e+183
-1.4170499e+183
-1.4220892e+183
-1.4217221e+183
-1.4173682e+183
-1.4177695e+183
-1.4228987e+183
-1.4224525e+183
-1.418136e+183
-1.4185821e+183
-1.4236905e+183
-1.42328e+183
-1.4189597e+183
-1.4194046e+183
-1.417349e+183
-1.4170164e+183
-1.4126212e+183
-1.4129398e+183
-1.4179336e+183
-1.4176239e+183
-1.4132098e+183
-1.4135612e+183
-1.4185924e+183
-1.418229e+183
-1.4138756e+183
-1.4142129e+183
-1.419248e+183
-1.4189009e+183
-1.4144962e+183
-1.4148735e+183
-1.4199837e+183
-1.4195771e+183
-1.415206e+183
-1.4156044e+183
-1.4206651e+183
-1.4203145e+183
-1.4159328e+183
-1.4163245e+183
-1.0373193e+183
-1.3624122e+183
-1.3710456e+183
-1.3631389e+183
-1.3716937e+183
-1.3801599e+183
-1.3914094e+183
-1.3808322e+183
-1.3920862e+183
-1.3651382e+183
-1.3658702e+183
-1.3737724e+183
-1.3744938e+183
-1.3637433e+183
-1.3644646e+183
-1.3723096e+183
-1.373072e+183
-1.3828908e+183
-1.3941301e+183
-1.383684e+183
-1.3949562e+183
-1.3814593e+183
-1.3822088e+183
-1.3927329e+183
-1.3934221e+183
-1.3476246e+183
-1.3484012e+183
-1.3549826e+183
-1.3557218e+183
-1.3348392e+183
-1.3355971e+183
-1.341186e+183
-1.3419344e+183
-1.3383849e+183
-1.3376729e+183
-1.3439774e+183
-1.3446327e+183
-1.3362382e+183
-1.3369805e+183
-1.3425627e+183
-1.3433025e+183
-1.3490061e+183
-1.349726e+183
-1.3563464e+183
-1.357051e+183
-1.3503651e+183
-1.3510591e+183
-1.3577117e+183
-1.3584241e+183
-1.3001613e+183
-1.3010428e+183
-1.2868576e+183
-1.2962388e+183
-1.2953158e+183
-1.2986921e+183
-1.2994176e+183
-1.2851444e+183
-1.2945968e+183
-1.2938535e+183
-1.3034342e+183
-1.3084906e+183
-1.3041557e+183
-1.3092041e+183
-1.304896e+183
-1.3099592e+183
-1.30576e+183
-1.3108075e+183
-1.27546e+183
-1.2772734e+183
-1.2967101e+183
-1.2827297e+183
-1.2910854e+183
-1.2917882e+183
-1.2973477e+183
-1.2980675e+183
-1.2839698e+183
-1.2924503e+183
-1.2932347e+183
-1.3020905e+183
-1.3028015e+183
-1.3071187e+183
-1.3078528e+183
-1.2743994e+183
-1.2732073e+183
-1.3150006e+183
-1.3158517e+183
-1.3203723e+183
-1.3211827e+183
-1.3135073e+183
-1.3188442e+183
-1.3142453e+183
-1.3196108e+183
-1.3243394e+183
-1.3303367e+183
-1.3251114e+183
-1.331084e+183
-1.3258416e+183
-1.3318076e+183
-1.3266469e+183
-1.332562e+183
-1.3128754e+183
-1.3181964e+183
-1.3236842e+183
-1.3289131e+183
-1.3296752e+183
-1.2480023e+183
-1.259222e+183
-1.2574978e+183
-1.2664981e+183
-1.2682498e+183
-1.2556711e+183
-1.2565069e+183
-1.2643948e+183
-1.2654606e+183
-1.2269531e+183
-1.2021461e+183
-1.3271922e+183
-1.3330458e+183
-1.3277655e+183
-1.3335642e+183
-1.3177379e+183
-1.3184095e+183
-1.3229679e+183
-1.3236292e+183
-1.3164794e+183
-1.3217699e+183
-1.3171437e+183
-1.3223974e+183
-1.3282931e+183
-1.3290136e+183
-1.3341391e+183
-1.334914e+183
-1.3016917e+183
-1.302435e+183
-1.28827e+183
-1.2976143e+183
-1.2969347e+183
-1.307835e+183
-1.3128026e+183
-1.3085267e+183
-1.3134736e+183
-1.3063875e+183
-1.3114434e+183
-1.3071526e+183
-1.3121493e+183
-1.3031106e+183
-1.3038008e+183
-1.2896606e+183
-1.2982767e+183
-1.2990004e+183
-1.2801406e+183
-1.2787176e+183
-1.3056323e+183
-1.3064191e+183
-1.2923016e+183
-1.3015596e+183
-1.3007945e+183
-1.3043169e+183
-1.3049726e+183
-1.2909008e+183
-1.3001509e+183
-1.2995373e+183
-1.3090257e+183
-1.3140446e+183
-1.3096999e+183
-1.3147295e+183
-1.2814337e+183
-1.2828907e+183
-1.3103583e+183
-1.315439e+183
-1.311186e+183
-1.3162685e+183
-1.3204772e+183
-1.3258564e+183
-1.3213097e+183
-1.32667e+183
-1.3313371e+183
-1.3373419e+183
-1.3321871e+183
-1.3382033e+183
-1.3190123e+183
-1.3242871e+183
-1.3197414e+183
-1.3250854e+183
-1.3297237e+183
-1.3356786e+183
-1.3305651e+183
-1.3365366e+183
-1.2622991e+183
-1.260643e+183
-1.2697171e+183
-1.2712105e+183
-1.2635925e+183
-1.2725379e+183
-1.274066e+183
-1.2651069e+183
-1.3678233e+183
-1.3687628e+183
-1.376583e+183
-1.3775041e+183
-1.3663978e+183
-1.3750521e+183
-1.3670643e+183
-1.3757887e+183
-1.3858106e+183
-1.3971231e+183
-1.3867913e+183
-1.3980976e+183
-1.3842875e+183
-1.395616e+183
-1.3850334e+183
-1.3963309e+183
-1.3875882e+183
-1.3989095e+183
-1.3884379e+183
-1.3997364e+183
-1.3711765e+183
-1.3720141e+183
-1.3799393e+183
-1.3807476e+183
-1.3695391e+183
-1.3782762e+183
-1.3703823e+183
-1.3791363e+183
-1.3891994e+183
-1.3900664e+183
-1.3545323e+183
-1.3620304e+183
-1.3554253e+183
-1.3628748e+183
-1.3415548e+183
-1.34244e+183
-1.3479557e+183
-1.3488631e+183
-1.3432508e+183
-1.3441247e+183
-1.3496797e+183
-1.3505182e+183
-1.3561981e+183
-1.3570552e+183
-1.3636676e+183
-1.3645128e+183
-1.3515427e+183
-1.3589364e+183
-1.3521478e+183
-1.3595586e+183
-1.3399641e+183
-1.3407871e+183
-1.3463253e+183
-1.3471655e+183
-1.33881e+183
-1.3450701e+183
-1.3393451e+183
-1.3456561e+183
-1.3528228e+183
-1.3537278e+183
-1.3602914e+183
-1.3612231e+183
-1.1757693e+183
-1.1771944e+183
-1.1375305e+183
-1.138194e+183
-1.2274219e+183
-1.2142216e+183
-1.2147644e+183
-1.228028e+183
-1.2467398e+183
-1.2373365e+183
-1.2379413e+183
-1.2475222e+183
-1.248551e+183
-1.2390332e+183
-1.2404685e+183
-1.2501148e+183
-1.2290509e+183
-1.2158041e+183
-1.2172623e+183
-1.2303735e+183
-1.1824455e+183
-1.1794396e+183
-1.1401823e+183
-1.1437682e+183
-1.2195761e+183
-1.2182788e+183
-1.2314913e+183
-1.2330656e+183
-1.2415873e+183
-1.2514646e+183
-1.253142e+183
-1.2432081e+183
-1.2462399e+183
-1.2447598e+183
-1.25448e+183
-1.2559588e+183
-1.2231331e+183
-1.2212166e+183
-1.2346325e+183
-1.2361767e+183
-1.0882573e+183
-1.092191e+183
-1.3078224e+183
-1.308093e+183
-1.3105373e+183
-1.3108185e+183
-1.3111838e+183
-1.3115158e+183
-1.3084306e+183
-1.3087529e+183
-1.2992718e+183
-1.2949739e+183
-1.2956637e+183
-1.2999547e+183
-1.3047751e+183
-1.3041504e+183
-1.3065567e+183
-1.3068939e+183
-1.3093048e+183
-1.3096397e+183
-1.309989e+183
-1.3102848e+183
-1.3072382e+183
-1.3075361e+183
-1.2943823e+183
-1.2937224e+183
-1.2980055e+183
-1.2986625e+183
-1.3035645e+183
-1.3028787e+183
-1.3116645e+183
-1.3120166e+183
-1.3143705e+183
-1.3140236e+183
-1.3164628e+183
-1.3168052e+183
-1.3189647e+183
-1.319297e+183
-1.3149942e+183
-1.3123424e+183
-1.3146765e+183
-1.3126462e+183
-1.3195982e+183
-1.3170977e+183
-1.3174285e+183
-1.3199267e+183
-1.2873699e+183
-1.2867453e+183
-1.290876e+183
-1.2915293e+183
-1.2861684e+183
-1.285588e+183
-1.2896397e+183
-1.290274e+183
-1.3155833e+183
-1.3128904e+183
-1.3152646e+183
-1.3131996e+183
-1.3202205e+183
-1.3177084e+183
-1.3180337e+183
-1.3205413e+183
-1.3162749e+183
-1.3135488e+183
-1.3159101e+183
-1.3138959e+183
-1.3208799e+183
-1.3183538e+183
-1.318738e+183
-1.32127e+183
-1.3257328e+183
-1.3282898e+183
-1.3287385e+183
-1.3261888e+183
-1.3271252e+183
-1.3266305e+183
-1.3291767e+183
-1.3296564e+183
-1.3339883e+183
-1.3308502e+183
-1.3335555e+183
-1.331294e+183
-1.3321866e+183
-1.3348577e+183
-1.3317043e+183
-1.3343938e+183
-1.3270901e+183
-1.3241301e+183
-1.3267004e+183
-1.3245185e+183
-1.3292696e+183
-1.3319824e+183
-1.332328e+183
-1.3296395e+183
-1.3279094e+183
-1.3248845e+183
-1.3274542e+183
-1.3253414e+183
-1.3300113e+183
-1.3327127e+183
-1.3304697e+183
-1.3331703e+183
-1.3378707e+183
-1.3346783e+183
-1.3375213e+183
-1.3350248e+183
-1.3434475e+183
-1.3403943e+183
-1.3407342e+183
-1.3437695e+183
-1.3358567e+183
-1.33868e+183
-1.3353991e+183
-1.3382405e+183
-1.3441054e+183
-1.3410765e+183
-1.3415094e+183
-1.3445097e+183
-1.3107183e+183
-1.3111575e+183
-1.3134493e+183
-1.3138992e+183
-1.314412e+183
-1.3148824e+183
-1.3116556e+183
-1.3121321e+183
-1.3021139e+183
-1.2977226e+183
-1.2987472e+183
-1.3031357e+183
-1.3080651e+183
-1.3070945e+183
-1.3090549e+183
-1.3093958e+183
-1.3118015e+183
-1.3121594e+183
-1.3126146e+183
-1.3130609e+183
-1.3098375e+183
-1.3102933e+183
-1.3005513e+183
-1.2962328e+183
-1.2969098e+183
-1.3012701e+183
-1.3062183e+183
-1.3053873e+183
-1.3158254e+183
-1.316302e+183
-1.31822e+183
-1.3186914e+183
-1.3211563e+183
-1.32322e+183
-1.3236779e+183
-1.3206858e+183
-1.3167865e+183
-1.317258e+183
-1.3196228e+183
-1.3191479e+183
-1.3215957e+183
-1.3220859e+183
-1.3241253e+183
-1.324621e+183
-1.3169787e+183
-1.314184e+183
-1.3165869e+183
-1.3145729e+183
-1.3190626e+183
-1.3216069e+183
-1.3219855e+183
-1.3194521e+183
-1.3178275e+183
-1.3150027e+183
-1.3173753e+183
-1.3154507e+183
-1.3198296e+183
-1.322364e+183
-1.3202887e+183
-1.3228158e+183
-1.2920559e+183
-1.2878209e+183
-1.2884326e+183
-1.2926909e+183
-1.2902948e+183
-1.2892613e+183
-1.2935179e+183
-1.2945203e+183
-1.3256135e+183
-1.3227122e+183
-1.3252704e+183
-1.3230454e+183
-1.3278592e+183
-1.3306071e+183
-1.3309362e+183
-1.3282019e+183
-1.3237895e+183
-1.3263635e+183
-1.3233872e+183
-1.3259592e+183
-1.328536e+183
-1.3312746e+183
-1.328945e+183
-1.3316748e+183
-1.3243351e+183
-1.3214476e+183
-1.3239924e+183
-1.3217861e+183
-1.3265723e+183
-1.3269116e+183
-1.3293112e+183
-1.3296402e+183
-1.3249796e+183
-1.3220857e+183
-1.3246402e+183
-1.3224228e+183
-1.3299512e+183
-1.3272105e+183
-1.3275648e+183
-1.3303087e+183
-1.3352459e+183
-1.3320301e+183
-1.3348979e+183
-1.3323676e+183
-1.3377925e+183
-1.3381368e+183
-1.3408641e+183
-1.3412004e+183
-1.3330332e+183
-1.3359014e+183
-1.3326752e+183
-1.3355559e+183
-1.3415045e+183
-1.3384318e+183
-1.338788e+183
-1.3418582e+183
-1.3365332e+183
-1.3333251e+183
-1.3361927e+183
-1.3336579e+183
-1.342152e+183
-1.3390797e+183
-1.3394157e+183
-1.3424753e+183
-1.3343841e+183
-1.3372357e+183
-1.3339902e+183
-1.3368642e+183
-1.3427977e+183
-1.3397312e+183
-1.3401098e+183
-1.343169e+183
-1.2717949e+183
-1.2713381e+183
-1.275539e+183
-1.2750684e+183
-1.271024e+183
-1.2707159e+183
-1.2742541e+183
-1.2746543e+183
-1.2782519e+183
-1.2777779e+183
-1.2816509e+183
-1.2821635e+183
-1.2827171e+183
-1.2787348e+183
-1.2792599e+183
-1.2833064e+183
-1.2743252e+183
-1.2733351e+183
-1.2782353e+183
-1.2772043e+183
-1.2725955e+183
-1.2721025e+183
-1.2763848e+183
-1.2758377e+183
-1.283691e+183
-1.2795834e+183
-1.2801663e+183
-1.2842645e+183
-1.2851061e+183
-1.2809916e+183
-1.2820583e+183
-1.2861715e+183
-1.2770363e+183
-1.2762961e+183
-1.2802553e+183
-1.2809686e+183
-1.275699e+183
-1.2750363e+183
-1.2789804e+183
-1.2796592e+183
-1.2869452e+183
-1.2828194e+183
-1.2835012e+183
-1.2876048e+183
-1.284788e+183
-1.2840936e+183
-1.2882062e+183
-1.2888939e+183
-1.3039683e+183
-1.2995418e+183
-1.3002635e+183
-1.3046973e+183
-1.2952815e+183
-1.2910394e+183
-1.2917151e+183
-1.2959869e+183
-1.3053232e+183
-1.3008558e+183
-1.3014309e+183
-1.305884e+183
-1.2965961e+183
-1.2923225e+183
-1.2929766e+183
-1.2972002e+183
-1.2781162e+183
-1.2775191e+183
-1.2814245e+183
-1.2820109e+183
-1.314052e+183
-1.3143349e+183
-1.3167886e+183
-1.3170882e+183
-1.3103635e+183
-1.3125271e+183
-1.3129262e+183
-1.3152513e+183
-1.3156637e+183
-1.3161167e+183
-1.3164968e+183
-1.313363e+183
-1.3137408e+183
-1.3097358e+183
-1.3089153e+183
-1.3204483e+183
-1.3176177e+183
-1.3200088e+183
-1.3180559e+183
-1.3224755e+183
-1.322908e+183
-1.3250052e+183
-1.3254209e+183
-1.3212444e+183
-1.3184825e+183
-1.3208444e+183
-1.3188743e+183
-1.348584e+183
-1.3451193e+183
-1.3482411e+183
-1.3454506e+183
-1.3472921e+183
-1.3438265e+183
-1.3469372e+183
-1.3441703e+183
-1.3500221e+183
-1.3503734e+183
-1.3533701e+183
-1.3537115e+183
-1.3479512e+183
-1.3444741e+183
-1.3476029e+183
-1.3448316e+183
-1.2058787e+183
-1.2070563e+183
-1.1812411e+183
-1.1794844e+183
-1.2060425e+183
-1.2054579e+183
-1.1792859e+183
-1.1804744e+183
-1.1435767e+183
-1.1440096e+183
-1.233686e+183
-1.2334008e+183
-1.2410688e+183
-1.2412275e+183
-1.2337891e+183
-1.2343963e+183
-1.2415353e+183
-1.2412197e+183
-1.2464812e+183
-1.2463478e+183
-1.2511501e+183
-1.2514334e+183
-1.2463268e+183
-1.2466042e+183
-1.2512214e+183
-1.2511155e+183
-1.267015e+183
-1.2631426e+183
-1.2633479e+183
-1.2672417e+183
-1.2593722e+183
-1.255476e+183
-1.2554833e+183
-1.2595066e+183
-1.2559286e+183
-1.2555765e+183
-1.2596611e+183
-1.2600813e+183
-1.2674853e+183
-1.2635321e+183
-1.2639859e+183
-1.2679598e+183
-1.2683206e+183
-1.2643733e+183
-1.2647625e+183
-1.2687223e+183
-1.2604185e+183
-1.2562449e+183
-1.2566466e+183
-1.2608357e+183
-1.2580179e+183
-1.2572233e+183
-1.2614025e+183
-1.2622359e+183
-1.269349e+183
-1.2653186e+183
-1.2662009e+183
-1.2703148e+183
-1.235623e+183
-1.2345751e+183
-1.2422851e+183
-1.2430495e+183
-1.2340403e+183
-1.2337454e+183
-1.2413507e+183
-1.2416994e+183
-1.2483596e+183
-1.2476832e+183
-1.2526477e+183
-1.2534138e+183
-1.2470354e+183
-1.2467571e+183
-1.2517201e+183
-1.2520763e+183
-1.1461149e+183
-1.1822639e+183
-1.2078937e+183
-1.2089375e+183
-1.1828817e+183
-1.2374627e+183
-1.2362335e+183
-1.2442805e+183
-1.2453116e+183
-1.2357011e+183
-1.2356896e+183
-1.2433597e+183
-1.2436971e+183
-1.2508991e+183
-1.2499154e+183
-1.2550601e+183
-1.256046e+183
-1.2492971e+183
-1.2488689e+183
-1.2539546e+183
-1.2544614e+183
-1.2585437e+183
-1.259091e+183
-1.2634191e+183
-1.2628157e+183
-1.2606407e+183
-1.2596985e+183
-1.264923e+183
-1.2640294e+183
-1.2668408e+183
-1.2710222e+183
-1.271654e+183
-1.2674705e+183
-1.2680652e+183
-1.2722467e+183
-1.2730326e+183
-1.2689047e+183
-1.2655597e+183
-1.2613474e+183
-1.2621245e+183
-1.2662364e+183
-1.270095e+183
-1.2694728e+183
-1.2735473e+183
-1.2741342e+183
-1.2517741e+183
-1.256837e+183
-1.0927062e+183
-1.0967763e+183
-1.4122179e+183
-1.4126079e+183
-1.4130199e+183
-1.4135749e+183
-1.4090208e+183
-1.409357e+183
-1.4096814e+183
-1.4101228e+183
-1.4104927e+183
-1.4109286e+183
-1.4113453e+183
-1.4118517e+183
-1.404928e+183
-1.4052111e+183
-1.4055007e+183
-1.4058983e+183
-1.4061896e+183
-1.4065073e+183
-1.4068022e+183
-1.4072224e+183
-1.4075485e+183
-1.4079263e+183
-1.4082784e+183
-1.4087142e+183
-1.3257779e+183
-1.3743056e+183
-1.3716074e+183
-1.3308127e+183
-1.3765168e+183
-1.3792336e+183
-1.281713e+183
-1.4202022e+183
-1.4188086e+183
-1.3838074e+183
-1.4058888e+183
-1.4071145e+183
-1.4230429e+183
-1.4215692e+183
-1.3864421e+183
-1.4084379e+183
-1.4098596e+183
-1.3654567e+183
-1.4286422e+183
-1.427922e+183
-1.4299138e+183
-1.430672e+183
-1.4364526e+183
-1.4372363e+183
-1.4301927e+183
-1.4293653e+183
-1.4314149e+183
-1.4379977e+183
-1.4322103e+183
-1.4257451e+183
-1.4250934e+183
-1.4271111e+183
-1.4277877e+183
-1.4335864e+183
-1.4342948e+183
-1.4272537e+183
-1.4264467e+183
-1.4284846e+183
-1.4292215e+183
-1.4349864e+183
-1.4357008e+183
-1.4371696e+183
-1.4368915e+183
-1.4375726e+183
-1.4373174e+183
-1.437651e+183
-1.4379692e+183
-1.4382658e+183
-1.4379004e+183
-1.4350256e+183
-1.4365869e+183
-1.4369879e+183
-1.4354167e+183
-1.4373056e+183
-1.4376833e+183
-1.4361266e+183
-1.4357619e+183
-1.4268423e+183
-1.4321025e+183
-1.4324984e+183
-1.427263e+183
-1.4276306e+183
-1.4328675e+183
-1.433227e+183
-1.4280269e+183
-1.4351947e+183
-1.4356042e+183
-1.4336304e+183
-1.4340235e+183
-1.4343604e+183
-1.43592e+183
-1.4362557e+183
-1.434687e+183
-1.4254064e+183
-1.4306875e+183
-1.431084e+183
-1.4257913e+183
-1.431746e+183
-1.4314395e+183
-1.4261221e+183
-1.4264692e+183
-1.4354837e+183
-1.4359162e+183
-1.436185e+183
-1.4357719e+183
-1.4365137e+183
-1.436258e+183
-1.4365449e+183
-1.4368386e+183
-1.4386484e+183
-1.438364e+183
-1.4390997e+183
-1.4388341e+183
-1.4392125e+183
-1.4395456e+183
-1.4394711e+183
-1.4398552e+183
-1.4402326e+183
-1.4399311e+183
-1.4403894e+183
-1.4406634e+183
-1.436529e+183
-1.4380746e+183
-1.4385271e+183
-1.4369736e+183
-1.4392932e+183
-1.438891e+183
-1.4377538e+183
-1.4373588e+183
-1.4344851e+183
-1.4292639e+183
-1.4296943e+183
-1.4348714e+183
-1.4284208e+183
-1.4336337e+183
-1.4340806e+183
-1.4288579e+183
-1.4152938e+183
-1.4139863e+183
-1.3791844e+183
-1.401243e+183
-1.4026308e+183
-1.4176255e+183
-1.416454e+183
-1.3816187e+183
-1.4036905e+183
-1.4048012e+183
-1.4208883e+183
-1.4202746e+183
-1.4229171e+183
-1.4222843e+183
-1.4292431e+183
-1.422198e+183
-1.4214813e+183
-1.4235173e+183
-1.4241903e+183
-1.4304969e+183
-1.4298656e+183
-1.4233418e+183
-1.4227771e+183
-1.4253757e+183
-1.4247808e+183
-1.4317084e+183
-1.4311009e+183
-1.4245394e+183
-1.4238889e+183
-1.4259289e+183
-1.4265226e+183
-1.4329195e+183
-1.4322952e+183
-1.4311442e+183
-1.4314072e+183
-1.4316778e+183
-1.4313798e+183
-1.4317082e+183
-1.4320968e+183
-1.4323234e+183
-1.4319617e+183
-1.4323835e+183
-1.4326376e+183
-1.4328886e+183
-1.4325954e+183
-1.4313679e+183
-1.4317155e+183
-1.4297995e+183
-1.4301243e+183
-1.4319732e+183
-1.4322706e+183
-1.4304011e+183
-1.4306737e+183
-1.4214853e+183
-1.4268372e+183
-1.4271675e+183
-1.4218098e+183
-1.4277101e+183
-1.4274524e+183
-1.4220794e+183
-1.4223716e+183
-1.434173e+183
-1.4345608e+183
-1.4348022e+183
-1.4344314e+183
-1.4348543e+183
-1.435135e+183
-1.4354269e+183
-1.4350935e+183
-1.43294e+183
-1.4333304e+183
-1.4335563e+183
-1.4331845e+183
-1.4336249e+183
-1.4338742e+183
-1.434139e+183
-1.4338448e+183
-1.4325779e+183
-1.432945e+183
-1.4309883e+183
-1.4313415e+183
-1.4332283e+183
-1.4335365e+183
-1.4316523e+183
-1.4319526e+183
-1.4226739e+183
-1.4280184e+183
-1.4283841e+183
-1.4230309e+183
-1.4290034e+183
-1.4287076e+183
-1.4233362e+183
-1.4236736e+183
-1.4338382e+183
-1.4342056e+183
-1.4322708e+183
-1.4326309e+183
-1.4344933e+183
-1.4348402e+183
-1.4329442e+183
-1.4332741e+183
-1.4240113e+183
-1.4293239e+183
-1.4296986e+183
-1.4244009e+183
-1.430335e+183
-1.4300271e+183
-1.4247229e+183
-1.4250599e+183
-1.0961173e+183
-1.0315916e+183
-1.415443e+183
-1.4150281e+183
-1.4163951e+183
-1.4158969e+183
-1.4122248e+183
-1.4118572e+183
-1.4129494e+183
-1.4125596e+183
-1.4137805e+183
-1.4133382e+183
-1.4146345e+183
-1.4141896e+183
-1.4081274e+183
-1.4078255e+183
-1.4087368e+183
-1.4084026e+183
-1.4093946e+183
-1.4090441e+183
-1.4100763e+183
-1.4097087e+183
-1.4108152e+183
-1.410424e+183
-1.4115281e+183
-1.4111569e+183
-1.3658387e+183
-1.3612946e+183
-1.3654847e+183
-1.361635e+183
-1.3696903e+183
-1.3745834e+183
-1.374874e+183
-1.3700084e+183
-1.3665198e+183
-1.3619582e+183
-1.3661487e+183
-1.3623361e+183
-1.370293e+183
-1.3751508e+183
-1.3706659e+183
-1.3755e+183
-1.3854089e+183
-1.379431e+183
-1.385121e+183
-1.3797124e+183
-1.3979112e+183
-1.3909819e+183
-1.3912558e+183
-1.3981695e+183
-1.3803524e+183
-1.3860565e+183
-1.3799919e+183
-1.3857062e+183
-1.3984619e+183
-1.3915398e+183
-1.3919279e+183
-1.3988651e+183
-1.3640578e+183
-1.368255e+183
-1.3686398e+183
-1.3644191e+183
-1.3650785e+183
-1.3647176e+183
-1.368934e+183
-1.3692818e+183
-1.3724331e+183
-1.3772995e+183
-1.3776479e+183
-1.3727966e+183
-1.3734825e+183
-1.3731048e+183
-1.3779889e+183
-1.3783824e+183
-1.362633e+183
-1.3668079e+183
-1.3672166e+183
-1.3630169e+183
-1.3633504e+183
-1.3675526e+183
-1.3679597e+183
-1.3637604e+183
-1.3761811e+183
-1.3709682e+183
-1.3758177e+183
-1.3713527e+183
-1.3769673e+183
-1.3716999e+183
-1.3765481e+183
-1.3721158e+183
-1.3881887e+183
-1.3821195e+183
-1.3877955e+183
-1.3824836e+183
-1.4005591e+183
-1.3936425e+183
-1.3940261e+183
-1.4009238e+183
-1.3832457e+183
-1.3889525e+183
-1.3828358e+183
-1.388557e+183
-1.4012859e+183
-1.3943812e+183
-1.394816e+183
-1.4017319e+183
-1.3806551e+183
-1.386351e+183
-1.3867203e+183
-1.381017e+183
-1.381377e+183
-1.3870746e+183
-1.3817995e+183
-1.3874689e+183
-1.3991721e+183
-1.3994806e+183
-1.3922306e+183
-1.3925692e+183
-1.3933065e+183
-1.3928857e+183
-1.399788e+183
-1.4002127e+183
-1.3504391e+183
-1.3465149e+183
-1.3500531e+183
-1.3468897e+183
-1.3472521e+183
-1.3507845e+183
-1.3511574e+183
-1.3476496e+183
-1.3535845e+183
-1.3575049e+183
-1.3539454e+183
-1.3578401e+183
-1.3581733e+183
-1.3585456e+183
-1.3542693e+183
-1.3546532e+183
-1.3373198e+183
-1.333865e+183
-1.3369548e+183
-1.3342157e+183
-1.3345571e+183
-1.3376622e+183
-1.3380622e+183
-1.3349697e+183
-1.339991e+183
-1.343277e+183
-1.3403477e+183
-1.3436297e+183
-1.3440022e+183
-1.3444111e+183
-1.3406989e+183
-1.3411082e+183
-1.3373727e+183
-1.3376967e+183
-1.3407225e+183
-1.3404234e+183
-1.336709e+183
-1.3397736e+183
-1.340126e+183
-1.3370626e+183
-1.343134e+183
-1.3427942e+183
-1.346065e+183
-1.3463887e+183
-1.3466893e+183
-1.3434149e+183
-1.3437347e+183
-1.3470163e+183
-1.3352771e+183
-1.3383633e+183
-1.3387345e+183
-1.3356379e+183
-1.3359824e+183
-1.3390755e+183
-1.3394662e+183
-1.3363922e+183
-1.3414032e+183
-1.3446903e+183
-1.3450376e+183
-1.341765e+183
-1.3420978e+183
-1.3453733e+183
-1.3457731e+183
-1.3424942e+183
-1.3479151e+183
-1.3514242e+183
-1.3517862e+183
-1.3482613e+183
-1.3485931e+183
-1.3521263e+183
-1.3525007e+183
-1.3489876e+183
-1.3549462e+183
-1.3588554e+183
-1.3592289e+183
-1.3553153e+183
-1.3556425e+183
-1.3595648e+183
-1.3599616e+183
-1.356034e+183
-1.3492729e+183
-1.3527969e+183
-1.3531556e+183
-1.3496099e+183
-1.3502556e+183
-1.3499127e+183
-1.3534632e+183
-1.3538032e+183
-1.3563318e+183
-1.3602664e+183
-1.36062e+183
-1.3566934e+183
-1.3573509e+183
-1.3569929e+183
-1.3609292e+183
-1.3612838e+183
-1.299556e+183
-1.2999585e+183
-1.3022858e+183
-1.302693e+183
-1.3031358e+183
-1.3035315e+183
-1.300403e+183
-1.3008127e+183
-1.2878104e+183
-1.2868776e+183
-1.2911479e+183
-1.2920611e+183
-1.2967973e+183
-1.2959239e+183
-1.2981322e+183
-1.2984728e+183
-1.3008547e+183
-1.3011861e+183
-1.3015412e+183
-1.3019112e+183
-1.2988336e+183
-1.2991839e+183
-1.2852555e+183
-1.2896123e+183
-1.290368e+183
-1.2860412e+183
-1.2951999e+183
-1.2944676e+183
-1.3032089e+183
-1.3035627e+183
-1.3059164e+183
-1.3055634e+183
-1.3079945e+183
-1.3104839e+183
-1.3108311e+183
-1.3083476e+183
-1.3066494e+183
-1.3039051e+183
-1.3062549e+183
-1.3042876e+183
-1.3086818e+183
-1.3111751e+183
-1.3090864e+183
-1.3115788e+183
-1.3046486e+183
-1.3050783e+183
-1.3070109e+183
-1.3074318e+183
-1.3098648e+183
-1.3119442e+183
-1.3123531e+183