/*--------------------------------*- C++ -*----------------------------------*\
  =========                 |
  \\      /  F ield         | OpenFOAM: The Open Source CFD Toolbox
   \\    /   O peration     | Website:  https://openfoam.org
    \\  /    A nd           | Version:  7
     \\/     M anipulation  |
\*---------------------------------------------------------------------------*/
FoamFile
{
    version     2.0;
    format      ascii;
    class       surfaceScalarField;
    location    "2000";
    object      phi;
}
// * * * * * * * * * * * * * * * * * * * * * * * * * * * * * * * * * * * * * //

dimensions      [0 3 -1 0 0 0 0];

internalField   nonuniform List<scalar> 
101838
(
3.253911e+87
-1.1672393e+88
-1.2607403e+88
-1.1766807e+88
-1.2080165e+88
-1.0847678e+88
-9.0009396e+87
-1.0983568e+88
-9.5946795e+87
-1.8872937e+87
5.4281653e+86
1.1238131e+87
-2.4085105e+87
-2.4766051e+87
-3.0733957e+87
-3.0324531e+87
1.4953055e+87
-1.0907813e+88
-2.1077436e+87
1.372362e+87
-2.482404e+87
-2.5429551e+87
-3.0959321e+87
-3.3064983e+87
-1.1027046e+88
1.4120233e+87
-6.6981659e+86
5.9946612e+86
-8.5074131e+86
7.2792195e+86
-1.3434781e+88
1.4207828e+87
9.7151193e+86
7.9287121e+86
-1.4039429e+88
-4.7359595e+86
-3.0965929e+86
1.032608e+87
9.0005238e+86
-1.414047e+88
-2.4859359e+86
-4.5359872e+86
4.7812505e+86
6.5799724e+86
-5.230124e+86
-2.5848904e+87
-2.9320705e+87
-2.9387571e+87
-2.5682401e+87
3.9291828e+86
-2.1897418e+87
-2.2503309e+87
-1.8040187e+87
-1.6772752e+87
4.2547274e+86
-5.5641291e+86
-3.0972014e+87
-2.9049605e+87
-2.5693103e+87
-2.705706e+87
-2.2549061e+87
-2.3418202e+87
-1.8355226e+87
-1.8406411e+87
1.3127152e+86
-4.106047e+86
2.9563794e+86
-6.4802053e+86
-5.1231473e+86
-6.7404068e+86
-4.4267067e+86
1.3880707e+86
3.4978173e+86
-5.0899311e+86
-6.5903379e+86
-5.2410288e+86
-6.9912077e+86
-2.8573683e+86
3.675696e+86
-2.6263866e+87
-2.5742181e+87
-8.2711423e+85
-4.8363605e+86
3.7609885e+86
-6.7174751e+86
-5.2974903e+86
-7.1522898e+86
-4.1651683e+86
3.148384e+86
-5.1876e+86
-5.0851585e+86
-6.8594053e+86
-6.7196355e+86
-2.3229613e+86
-2.6610464e+87
-2.6876889e+87
-1.0915813e+88
-1.2601007e+87
8.8040823e+86
7.337318e+86
-5.8418243e+86
-7.7424531e+86
-1.0953738e+87
-8.8196981e+86
-7.0500716e+86
5.9035127e+86
7.2168152e+86
-1.3750207e+88
1.0870056e+88
6.9312412e+86
-7.538874e+86
-8.6946255e+86
5.3170182e+86
-1.3715663e+88
8.4170681e+86
6.5967402e+86
-7.7431769e+86
-6.2327731e+86
-1.6235708e+86
2.4763285e+87
2.1610609e+86
-1.8778638e+86
-1.5963301e+86
1.4225873e+86
-3.1174406e+87
1.2270786e+86
-2.5344692e+87
1.8080735e+86
-1.8799836e+86
-1.6850003e+86
1.4317403e+86
-1.9096261e+86
-1.7615774e+86
1.1328539e+86
1.3664765e+86
-3.2257544e+87
2.5175968e+86
-1.8501727e+86
-1.5337378e+86
1.43626e+86
1.2153689e+86
-1.154077e+87
-9.9176895e+87
1.4751136e+87
6.454918e+86
5.494622e+86
-7.1004435e+86
-8.6666809e+86
-9.9460724e+87
-7.2644261e+86
6.3066034e+86
-1.2440063e+87
1.5854959e+87
-1.2604738e+88
-3.5822403e+86
7.5670897e+86
6.2602432e+86
-5.5572181e+86
-1.2619454e+88
-3.4748847e+86
7.1937851e+86
2.636784e+86
1.7474711e+86
2.1558905e+86
-3.2010266e+87
-5.6668439e+85
3.2795542e+86
2.1490724e+86
1.9241444e+86
-3.2662396e+87
-5.1948753e+85
-8.9455451e+85
-2.6137084e+86
2.25845e+86
2.0507962e+86
-3.2758678e+87
-8.4730508e+85
2.1810976e+86
1.8302546e+86
-3.3260399e+87
-6.0159959e+85
-8.9638152e+85
-1.1936631e+87
-1.2775211e+88
-1.2530786e+88
-2.4201439e+86
-2.1926514e+86
2.8093386e+86
2.6893486e+86
-2.673479e+87
-2.8752414e+86
3.7604388e+86
-7.9241362e+86
-2.4701904e+87
2.0988825e+86
-6.3787319e+86
-2.4610687e+87
2.6366827e+86
-2.6198182e+87
1.4128514e+86
1.048349e+86
-5.6106927e+86
-5.6186276e+86
-4.7198339e+86
-4.722911e+86
8.9960343e+85
1.8626455e+86
-5.8973248e+86
-5.5567998e+86
-4.6643469e+86
-4.9248897e+86
-9.9272708e+85
1.3373813e+86
-3.8439078e+86
-3.2286578e+86
-3.2300842e+86
-3.6847564e+86
-3.6741362e+86
-3.6118041e+86
-3.1619208e+86
2.416564e+86
2.0199533e+86
-6.455797e+86
-2.5192297e+87
2.3724577e+86
-7.7358134e+86
-2.4856485e+87
-1.7831356e+86
2.7550951e+86
-2.6861535e+87
2.5081469e+86
-2.6639038e+87
-1.0655841e+86
8.1688378e+85
-5.9760939e+86
-5.6282207e+86
-4.7005118e+86
-4.9833697e+86
9.0155275e+85
-4.7828229e+86
-5.7063421e+86
-5.715168e+86
-4.8102086e+86
-8.4833677e+85
-3.719255e+86
-3.9151067e+86
-3.349331e+86
-3.7219394e+86
-3.7359393e+86
-3.2569773e+86
-3.1525711e+86
5.3231041e+85
-9.2801058e+85
2.7353757e+85
8.8617193e+85
-1.0698773e+86
-1.1021846e+86
-1.505791e+86
-1.4245884e+86
6.9212322e+85
-5.6723389e+86
-9.5956086e+85
-1.5611725e+85
2.3003657e+85
8.8585881e+85
-1.0685413e+86
-1.1085544e+86
-1.408322e+86
-1.5047276e+86
-4.3802249e+85
6.4113954e+85
-5.6039424e+86
-8.3473974e+85
7.4157658e+85
-1.4578234e+86
-1.0879274e+86
-1.0615178e+86
-1.4231751e+86
-5.6477018e+86
-3.823943e+85
-9.0455926e+85
-2.4790104e+85
8.0316901e+85
-1.0954415e+86
-1.0714002e+86
-1.4757979e+86
-1.4423336e+86
-6.236616e+85
-5.7647841e+86
-2.6109186e+85
-9.4490936e+85
9.1246714e+85
-1.0809269e+86
-1.1104615e+86
-1.434941e+86
-1.5156352e+86
-8.6357165e+85
7.7361574e+85
-1.0886788e+86
-1.0613594e+86
-1.4624119e+86
-1.4138062e+86
-5.0245214e+85
-5.7444258e+86
-5.6142648e+86
-2.4129655e+86
-2.6130577e+87
-1.3627245e+86
1.8434005e+86
-2.6399888e+87
-3.1112171e+86
-1.42545e+86
-1.1633225e+86
1.710791e+86
2.0530432e+86
-1.956891e+86
-3.2738246e+87
1.4896542e+86
-1.7091747e+86
-3.333241e+87
-2.5225651e+86
-1.7424467e+86
-1.5275922e+86
1.6666553e+86
1.3591293e+86
1.5342575e+86
2.587389e+87
-1.8881519e+86
-1.9566256e+86
-1.8088091e+86
1.3702487e+86
1.1356586e+86
-3.3080173e+87
2.5329391e+87
-1.6430322e+86
-1.9153794e+86
1.2320042e+86
-3.1972576e+87
1.7811645e+86
-2.2214492e+86
-1.9206775e+86
-1.7291937e+86
1.405577e+86
1.1295745e+86
-1.8896286e+86
1.2238489e+86
-1.1370085e+87
-1.0135336e+88
5.5255744e+86
6.4221974e+86
-9.1331139e+86
-7.5375488e+86
-2.5471348e+87
-1.8947246e+86
3.2974579e+87
1.4220333e+86
-1.9056666e+86
-1.6325969e+86
1.2175182e+86
-1.6263348e+86
-1.6850285e+86
1.2115419e+86
1.3923845e+86
-1.9503157e+86
-3.2240622e+87
2.5150622e+87
-1.938144e+86
-1.7945352e+86
1.3438931e+86
-3.2010906e+87
1.0891709e+86
3.2273783e+87
-1.899601e+86
1.0769872e+86
-1.7197469e+86
1.3590914e+86
-1.0094211e+88
6.3724756e+86
5.1335999e+86
-7.8202458e+86
-8.9782047e+86
-2.4643675e+86
-2.610597e+87
-1.433958e+86
-1.0793739e+86
1.7253865e+86
2.0017405e+86
-2.5624256e+87
2.0127518e+86
-1.4217631e+86
-1.1454953e+86
1.6213859e+86
1.9048264e+86
1.6197307e+86
-1.5164558e+86
-1.7177714e+86
1.3039654e+86
1.7044762e+86
-1.728724e+86
-1.3936788e+86
1.4360248e+86
-1.2423332e+87
-1.2785953e+88
-4.0873303e+86
7.5136728e+86
6.2214914e+86
-6.0635051e+86
-1.2734486e+88
-4.1556394e+86
7.304824e+86
5.7603808e+86
-5.7425451e+86
2.5136298e+85
5.5338049e+86
-3.063257e+85
2.7341282e+85
2.2314771e+85
-7.0208119e+86
-4.3290818e+85
-3.995452e+85
5.4673767e+86
3.4638627e+85
2.8423668e+85
2.4802998e+85
-6.8926562e+86
-4.2607043e+85
-3.7226887e+85
-2.9399347e+85
6.9123921e+86
4.0910033e+85
-3.2657771e+85
3.0461715e+85
-3.8322315e+85
2.6765008e+85
-1.7251295e+86
-2.4007836e+87
2.3371171e+86
1.1553102e+86
1.3152163e+86
-2.0417777e+86
-1.7523816e+86
-3.5223287e+85
7.0291027e+86
-3.5768132e+85
2.9470805e+85
-3.9056393e+85
2.4355857e+85
2.9364316e+85
-6.9449802e+86
-3.4799722e+85
-3.8204816e+85
2.9285615e+85
2.3642721e+85
5.4553804e+86
-7.0557965e+86
3.7440434e+85
-3.319046e+85
2.958794e+85
-3.860469e+85
2.5672801e+85
4.4914171e+85
-3.2566875e+85
2.969288e+85
-3.8268319e+85
2.5656538e+85
2.2973916e+85
5.4863222e+86
-3.2465649e+85
2.7010636e+85
2.177394e+85
-6.9505972e+86
-4.3542694e+85
-4.0285196e+85
5.5598716e+86
2.709454e+85
2.3531939e+85
-7.0747203e+86
-4.4123945e+85
-3.883398e+85
2.7596331e+85
-3.7248542e+85
-3.6180296e+85
2.9013175e+85
-3.9396082e+85
2.3635104e+85
-3.4853852e+85
2.8793163e+85
-3.9898025e+85
2.5386965e+85
-2.4723503e+87
-2.2125593e+86
1.0873994e+86
1.3143152e+86
-1.9012487e+86
-2.0524482e+86
3.1788556e+85
5.4183096e+86
-3.4363909e+85
2.9554366e+85
-3.7730379e+85
2.4253956e+85
5.3629242e+86
4.4139332e+85
-3.1298319e+85
3.0947337e+85
-3.7189671e+85
2.6762947e+85
-3.7005534e+85
6.7630691e+86
5.1250128e+85
-3.0765137e+85
3.0749898e+85
-3.7047044e+85
2.642932e+85
-3.3614134e+85
2.9864242e+85
-3.7617636e+85
2.418549e+85
-1.7579521e+86
-3.0489169e+87
2.5124058e+86
-2.0964535e+86
-1.8000041e+86
1.3827496e+86
1.1401517e+86
-2.3094495e+86
-3.1309086e+87
-2.0967176e+86
-1.8827317e+86
1.35814e+86
1.0917157e+86
2.3610461e+87
-2.9708468e+87
-2.1158632e+86
-1.8652842e+86
1.251778e+86
1.1058373e+86
1.2085438e+86
-1.8170329e+86
1.0459738e+86
-2.0797109e+86
5.4229272e+86
-6.8656315e+86
2.6724931e+85
2.3371959e+85
-4.425308e+85
-3.8293122e+85
-3.4063762e+85
2.8664239e+85
-3.9404767e+85
5.2710321e+85
-2.8449443e+85
3.2986242e+85
-3.4914439e+85
-1.3493428e+87
-9.9262408e+87
1.6111865e+87
7.8218685e+86
9.6665147e+86
-1.8513651e+86
-4.0166827e+86
2.2504985e+87
-3.0430414e+86
3.8396604e+86
-2.7410583e+87
-1.4878256e+86
-1.0688014e+86
1.4188893e+86
1.6644845e+86
-2.199956e+86
3.1351356e+86
1.3225947e+86
-1.7683655e+86
-2.0668065e+86
1.160306e+86
-2.2962523e+87
-2.9012395e+86
1.3960158e+86
-1.8673963e+86
-2.04887e+86
1.1352226e+86
-3.9499327e+86
-2.7971516e+87
-1.4723812e+86
-1.1505495e+86
1.3369183e+86
1.6446912e+86
-1.0030495e+88
-2.3426975e+86
9.6447836e+86
-3.6851978e+86
2.1778102e+87
-2.6893168e+87
-1.4423607e+86
-1.0122307e+86
1.3409067e+86
1.5914505e+86
-1.7654592e+86
-2.049634e+86
1.253274e+86
1.103809e+86
-1.4999436e+87
-1.1213869e+88
2.0144208e+87
-1.173205e+87
-1.069766e+88
-1.2736845e+87
6.3305412e+85
4.4900215e+85
4.8528353e+85
-7.0380309e+86
-9.4368691e+84
-1.6109767e+85
-5.0829338e+85
6.4304393e+85
4.8341384e+85
4.5372235e+85
-6.9519128e+86
-8.6556376e+84
-1.5684591e+85
4.7904959e+85
4.0771881e+85
-7.025193e+86
-1.1141571e+85
-1.6765479e+85
-5.9828144e+85
4.9391648e+85
4.3080922e+85
-7.1657588e+86
-1.0641233e+85
-1.5749175e+85
-4.8914484e+85
4.8418878e+85
4.5072862e+85
-7.1268573e+86
-9.8256544e+84
-1.6496485e+85
4.8530998e+85
4.1255207e+85
-6.9837069e+86
-1.093396e+85
-1.6156223e+85
-1.2458252e+87
-6.1272492e+86
-4.2344367e+86
-1.2878346e+88
-4.0453548e+86
-5.7321076e+86
-1.2747015e+88
-2.1242771e+86
-1.8417791e+86
1.6577696e+86
1.8416183e+86
1.9533899e+86
-2.7283115e+87
-6.063852e+85
-3.320053e+85
-2.6002338e+86
3.2719094e+86
-3.1543208e+87
1.7691298e+86
-3.1586111e+87
1.5863452e+86
1.8537904e+86
-2.7089304e+87
-3.2379988e+85
-5.971121e+85
5.5144001e+85
7.0702788e+85
-4.6333876e+86
7.4842596e+85
7.0307306e+85
-4.6648951e+86
-3.6547785e+85
4.3417268e+85
7.088688e+85
-4.748967e+86
6.8048471e+85
-4.7039969e+86
4.5318601e+85
7.1723239e+85
-4.7069002e+86
7.6481477e+85
6.9438364e+85
-4.7211932e+86
-2.8921146e+85
7.2094885e+85
4.274306e+85
-4.7586989e+86
6.9134711e+85
-4.7540422e+86
5.896894e+83
2.5351938e+85
-3.9684813e+85
-8.3025066e+85
-8.3020883e+85
-6.7926659e+85
-6.7539882e+85
1.8933958e+85
-2.9402287e+85
-5.882458e+85
-5.7112302e+85
-6.2325175e+85
-5.9387706e+85
4.4394265e+84
2.661903e+85
-5.8416295e+85
-6.09995e+85
-6.2767123e+85
-6.4363935e+85
3.7958187e+85
-6.5937803e+85
-8.6918379e+85
-8.136149e+85
-7.0329832e+85
-2.989063e+85
-4.8461916e+84
-8.0397697e+85
-8.581282e+85
-6.5629106e+85
-6.9634745e+85
-8.2403687e+85
-8.1981995e+85
-6.7298683e+85
-5.6905558e+85
-5.9474869e+85
-6.2748404e+85
-6.1555143e+85
2.6632456e+86
1.677074e+86
-3.2387958e+87
2.0461133e+86
-3.1800407e+87
-1.9277617e+86
1.6638504e+86
1.8543124e+86
-2.7412623e+87
-3.433495e+85
-6.4016375e+85
1.8255281e+86
1.5534098e+86
-2.7277189e+87
-6.6229118e+85
-3.7579285e+85
4.1412772e+85
7.2247222e+85
-6.558584e+85
-4.7929822e+86
7.6938794e+85
-4.7759333e+86
-2.5390302e+85
7.1409209e+85
-4.7930701e+86
-4.0674146e+85
6.8485279e+85
-4.7929097e+86
-7.3166949e+85
-3.7081763e+85
6.8924017e+85
-4.776316e+86
-5.412584e+85
-4.7270833e+86
6.907136e+85
-4.6993464e+86
6.691337e+85
-4.7320153e+86
-2.407732e+85
-8.7692297e+85
-8.2573895e+85
-7.0825757e+85
-1.5800859e+84
-4.0103548e+85
-6.8447555e+85
-6.8570578e+85
-8.428903e+85
-8.4111711e+85
-3.1845882e+85
-5.9824152e+85
-5.9025588e+85
-6.3725151e+85
-6.1569481e+85
3.3669852e+85
-1.1015443e+83
-6.7545945e+85
-6.7449488e+85
-8.2883903e+85
-8.3002606e+85
-7.053109e+84
-6.5861968e+85
-7.0299727e+85
-8.6762647e+85
-8.1126059e+85
-2.7399922e+85
-5.7718426e+85
-6.0842513e+85
-6.2879422e+85
-6.4509626e+85
-5.868043e+85
-5.79021e+85
-6.2176569e+85
-6.0027465e+85
-3.0340873e+84
-2.2678898e+85
4.6372798e+84
2.6821462e+85
-2.2915156e+85
-2.1611798e+85
-3.2947361e+85
-3.5259118e+85
-2.0485472e+85
2.4027046e+85
-2.1927946e+85
-2.1941773e+85
-3.4152423e+85
-3.3404243e+85
7.6913348e+84
-1.2170639e+86
1.1849088e+85
-1.2076712e+86
-2.254957e+84
-2.3156347e+85
4.0769916e+84
2.6853051e+85
-2.2875077e+85
-2.1604693e+85
-3.2882158e+85
-3.5010904e+85
-2.1009478e+85
-4.6379764e+84
2.4305681e+85
-2.1952081e+85
-2.2040663e+85
-3.4307063e+85
-3.3468788e+85
-7.0876458e+84
1.1168116e+85
-1.1972761e+86
-1.171179e+85
-1.2148585e+86
2.1792037e+85
-9.5531087e+84
-1.2182809e+86
-5.2855316e+84
2.6824478e+85
-2.2900492e+85
-2.1685669e+85
-3.3394076e+85
-3.519737e+85
-1.9709752e+85
2.2877318e+85
-2.1583492e+85
-2.1693076e+85
-3.3914667e+85
-3.2776343e+85
-1.189594e+86
-4.9822294e+84
-2.2870325e+85
2.7876147e+85
-2.3042526e+85
-2.1864228e+85
-3.3609887e+85
-3.5380674e+85
-2.1251812e+85
-4.1716452e+84
2.4495928e+85
-2.1826348e+85
-2.195587e+85
-3.4297488e+85
-3.3114971e+85
-8.5171005e+84
-1.2293905e+86
-1.0540934e+85
-1.2038041e+86
-2.9736273e+84
-2.3104126e+85
2.7554819e+85
-2.3085228e+85
-2.1765684e+85
-3.3342019e+85
-3.5548447e+85
-2.0891851e+85
-5.4991901e+84
2.459192e+85
-2.2048572e+85
-2.2058396e+85
-3.4467095e+85
-3.3646572e+85
-7.1069996e+84
-1.2161328e+86
-1.1814967e+85
-1.2267453e+86
-5.5615425e+84
-2.2253376e+85
2.7198481e+85
-2.3030306e+85
-2.1795663e+85
-3.3575124e+85
-3.5349518e+85
-2.0542883e+85
2.3799218e+85
-2.1777826e+85
-2.1940147e+85
-3.4180985e+85
-3.2977846e+85
-9.4743605e+84
-1.2230416e+86
-1.1897454e+86
9.9936175e+87
9.2680272e+87
-2.6972979e+87
4.4376797e+87
5.6193755e+86
-5.0919422e+85
-7.0594733e+86
-2.6263913e+85
4.049898e+85
-3.0393616e+85
3.4491458e+85
-5.7626788e+85
-2.0236758e+85
4.6066555e+85
-2.4986585e+85
3.9624737e+85
3.9411407e+85
5.5126603e+86
-6.9407751e+86
-5.4631539e+85
-2.6656475e+85
-3.0811309e+85
3.9763892e+85
3.3190606e+85
5.5933399e+86
-7.059986e+86
-2.5205769e+85
-3.1290057e+85
3.9946944e+85
3.5373317e+85
4.6175689e+85
-6.0731479e+85
-2.0274569e+85
4.5477134e+85
-2.5088906e+85
3.8416628e+85
-1.9290667e+85
-2.56128e+85
4.5020194e+85
4.0384765e+85
-5.456362e+86
-5.0250891e+85
-3.0237126e+85
-3.4622239e+85
3.4925018e+85
2.8827781e+85
-4.4661184e+85
-6.9760187e+86
-3.2007916e+85
-3.5970616e+85
3.1895877e+85
2.5939777e+85
3.5957229e+85
5.3934071e+86
-6.8710117e+86
-5.0282379e+85
-3.6310678e+85
-3.2424359e+85
3.1432776e+85
2.5143452e+85
5.482162e+86
-7.0125089e+86
-3.0934095e+85
-3.6687125e+85
3.1774162e+85
2.7418694e+85
-4.0129041e+85
-2.9380287e+85
-3.5341666e+85
3.3845597e+85
2.9637695e+85
-5.5350611e+85
-3.0571374e+85
-3.4847313e+85
3.4160405e+85
2.7656028e+85
2.2196664e+85
5.5552622e+86
-3.1852777e+85
2.6658236e+85
2.1730865e+85
-7.0431598e+86
-4.4143746e+85
-4.1462153e+85
5.6333486e+86
2.834862e+85
2.6952225e+85
2.4114459e+85
-7.1793043e+86
-4.3949188e+85
-3.9554874e+85
-2.6865724e+85
3.349783e+85
7.1455403e+86
-3.5273405e+85
2.8995194e+85
-4.0323566e+85
2.5775469e+85
7.0260406e+86
-3.7055541e+85
-3.658744e+85
2.9245299e+85
-3.9820273e+85
2.3840253e+85
1.6096745e+86
-2.5433374e+87
-2.0665801e+86
1.0960216e+86
1.309662e+86
-1.9653732e+86
-2.1046336e+86
-2.272108e+85
2.5120735e+85
-7.0118715e+86
-3.811081e+85
-4.3217706e+85
5.5929391e+86
2.6927063e+85
2.2739538e+85
-7.1069646e+86
-4.1028691e+85
-4.3145794e+85
7.1026165e+86
-3.6207953e+85
-3.9525805e+85
2.941477e+85
2.4511267e+85
-2.4704114e+87
1.316643e+86
1.1538681e+86
-2.0937335e+86
-1.8170653e+86
2.8497263e+85
5.4333173e+86
-4.0372932e+85
-3.5291303e+85
-3.8545992e+85
2.9269874e+85
2.3647856e+85
5.5132087e+86
3.6374405e+85
-3.3769443e+85
2.9438032e+85
-3.8949051e+85
2.5717156e+85
-3.6069689e+85
4.3582822e+85
-3.3249507e+85
2.9576469e+85
-3.882963e+85
2.5617448e+85
-4.7434425e+85
-3.4466641e+85
2.970926e+85
-3.8351397e+85
2.3661654e+85
5.4789161e+86
-3.8205029e+85
2.4253568e+85
-3.8012619e+85
2.9956574e+85
2.4402073e+85
1.6655236e+86
-2.2178751e+86
-3.2228273e+87
-2.1868962e+86
-1.997094e+86
1.3268119e+86
1.0713057e+86
-3.1408102e+87
2.3976253e+86
-1.8786711e+86
-2.1797759e+86
1.3704299e+86
1.1223576e+86
-5.4372643e+86
-3.5468916e+85
6.877157e+86
-3.1999991e+85
3.023768e+85
-3.8184529e+85
2.6195503e+85
3.0362064e+85
5.5106262e+86
-7.1367895e+86
-3.8724217e+85
-3.5209533e+85
-3.8523344e+85
2.976447e+85
2.4380342e+85
-7.0153368e+86
-3.2708363e+85
2.9817695e+85
-3.8515217e+85
2.5942635e+85
-4.3792061e+85
6.994222e+86
-3.4446699e+85
-3.8157464e+85
2.9950168e+85
2.4369472e+85
5.5374846e+86
-2.3902481e+85
2.7401665e+85
2.3933003e+85
-6.9942455e+86
-4.3930967e+85
-3.8180713e+85
2.7144623e+85
-5.6114298e+86
-3.6572847e+85
-3.644078e+85
2.9788521e+85
-3.987291e+85
2.4571728e+85
-3.427658e+85
2.9286763e+85
-3.9504115e+85
2.6036263e+85
-3.0620364e+85
2.6839869e+85
2.2086156e+85
-7.1287274e+86
-4.1332884e+85
-4.4177098e+85
-1.7509928e+86
-2.4661772e+87
1.2952883e+86
1.1342402e+86
-2.09926e+86
-1.8522323e+86
2.4711292e+85
5.4893675e+86
2.7032273e+85
2.1815357e+85
-6.9754537e+86
-4.3679376e+85
-4.0446726e+85
5.5770251e+86
2.699608e+85
2.3198996e+85
-7.0955681e+86
-4.4485268e+85
-3.9218099e+85
-2.9423073e+85
7.0632002e+86
-3.5089535e+85
2.8718225e+85
-4.0185102e+85
2.5178504e+85
-2.4745657e+87
1.0912053e+86
1.2978598e+86
-1.9347937e+86
-1.9997971e+86
6.9154056e+86
-3.6046893e+85
2.9187025e+85
-3.9215057e+85
2.3875191e+85
5.3540381e+86
2.9987469e+85
-3.4662247e+85
2.9312052e+85
-3.8023938e+85
2.3702665e+85
3.7411557e+85
6.7576416e+86
-3.3937729e+85
2.9587724e+85
-3.7961575e+85
2.3488581e+85
5.4347906e+86
-3.3435867e+85
2.917067e+85
-3.8793246e+85
2.5188004e+85
6.9058759e+86
-3.2933008e+85
2.9116957e+85
-3.8675278e+85
2.4911476e+85
-1.7097894e+86
-3.1375865e+87
-2.143949e+86
-1.9374383e+86
1.2636985e+86
1.2034478e+86
-3.1157454e+87
-2.0070577e+86
1.292209e+86
1.0845981e+86
-2.1335409e+86
4.1112916e+85
5.5434328e+86
-5.2267209e+85
-7.019391e+86
-2.6501807e+85
-3.0952613e+85
3.9620861e+85
3.3188013e+85
5.5150345e+86
-6.9502405e+86
-2.3857034e+85
4.0630771e+85
-3.0540736e+85
3.5831655e+85
4.6906019e+85
-6.0015749e+85
-2.0305476e+85
4.5028071e+85
-2.540717e+85
3.8157034e+85
-1.7980525e+85
4.5107469e+85
-2.4826044e+85
4.0359888e+85
-5.5297926e+86
-5.0565969e+85
-1.8757049e+85
4.5119562e+85
-2.5451634e+85
4.0090786e+85
4.2275977e+85
5.4218911e+86
-6.8194822e+86
-2.6081078e+85
-3.0667745e+85
3.9603303e+85
3.2663722e+85
-6.9680058e+86
-2.4655744e+85
4.0096913e+85
-3.1163542e+85
3.5003019e+85
-1.970499e+85
-2.4957951e+85
-5.4091429e+86
-4.303197e+85
5.0787065e+85
-2.897771e+85
3.3689718e+85
-3.5329755e+85
2.8949524e+85
-3.7080782e+85
4.4165417e+85
-3.0601223e+85
-3.6549348e+85
3.1413124e+85
2.6680604e+85
5.3106976e+86
-3.1840217e+85
-3.5907647e+85
3.1373504e+85
2.4921195e+85
-3.0039447e+85
-3.4715731e+85
3.3934373e+85
2.7171432e+85
-5.4060672e+86
-4.1178699e+85
-2.8023097e+85
3.4487141e+85
-3.4589743e+85
2.9984127e+85
3.6750364e+85
5.45277e+86
-3.2321548e+85
-3.6119326e+85
3.1532039e+85
2.5596753e+85
-2.9632346e+85
3.2091922e+85
-3.5849748e+85
2.7599265e+85
-3.0482956e+85
-3.4936409e+85
3.4146948e+85
2.782116e+85
-1.3351373e+87
-1.0039404e+88
9.6092145e+86
7.9001166e+86
-2.0116196e+86
-4.1056165e+86
2.326284e+87
-2.8422609e+86
3.610759e+86
-2.8278886e+87
1.5992965e+86
-1.2084251e+86
-1.6278435e+86
1.3971887e+86
-2.0656685e+86
2.9199703e+86
1.3511687e+86
-1.8254416e+86
-2.1608783e+86
1.1492581e+86
-2.3710148e+87
-2.7505398e+86
1.4119803e+86
-1.9567556e+86
-2.1661134e+86
1.0991225e+86
-3.592632e+86
-2.9027714e+87
1.6293765e+86
-1.3023285e+86
-1.6177012e+86
1.2950771e+86
-1.0132643e+88
7.6862415e+86
9.7615769e+86
-2.4332717e+86
-3.8171691e+86
2.3075645e+87
-2.7507141e+86
-2.8239542e+87
-1.599008e+86
-1.2102531e+86
1.6051849e+86
1.3704091e+86
-2.0655177e+86
-1.9020139e+86
1.2522108e+86
1.1379887e+86
-2.1686037e+86
-2.2765565e+87
-2.105298e+86
-1.9066016e+86
1.3556379e+86
1.0943701e+86
-2.7560578e+87
-1.5302094e+86
-1.2259951e+86
1.6113773e+86
1.2862379e+86
-1.4750342e+87
-1.1365186e+88
-1.1050156e+87
-1.08706e+88
-1.2030542e+87
-5.8823116e+84
-1.211399e+86
7.4292566e+84
1.510144e+86
-7.2369946e+84
-8.1634941e+84
6.0440621e+84
5.2763315e+84
-1.1852074e+86
1.4748385e+86
-7.7489186e+84
6.006323e+84
4.8508671e+84
-7.5478505e+84
-8.0910615e+84
2.3318752e+85
-5.4992776e+86
-3.0611066e+85
2.7966056e+85
-3.8798668e+85
-4.1872137e+85
2.3374739e+85
5.1935659e+84
-6.8647063e+84
-1.5100477e+86
-9.1355865e+84
6.4506241e+84
-1.5475914e+86
-7.5923246e+84
-6.2307715e+84
-1.1969453e+86
1.4842509e+86
8.8026851e+84
-6.8463039e+84
-7.8888339e+84
6.3397428e+84
5.5166403e+84
-1.202716e+86
1.5023578e+86
6.2576232e+84
5.1142853e+84
-7.3588021e+84
-7.9757848e+84
-5.4394202e+86
3.275628e+85
-4.1305581e+85
-3.6201563e+85
2.8664918e+85
2.5602746e+85
5.6475088e+84
-1.5391193e+86
-8.1635548e+84
7.6881025e+84
-1.5197745e+86
-6.9845528e+84
1.1421967e+86
-6.1315563e+84
8.5714848e+84
-6.2277735e+84
-7.4610983e+84
5.9745116e+84
6.8221115e+84
-6.4352356e+84
1.4356558e+86
9.1459864e+84
-6.431388e+84
-7.6614032e+84
6.6489477e+84
5.8489146e+84
1.1501815e+86
-7.2949839e+84
5.5684584e+84
-6.7172011e+84
6.6821736e+84
-7.4746606e+84
-7.8390225e+84
1.4572069e+86
6.5765459e+84
-6.9173371e+84
-7.6782254e+84
5.4853041e+84
1.9262189e+85
-2.6147538e+85
-7.1525191e+86
-4.3097745e+85
-4.0507107e+85
2.8252266e+85
2.3384385e+85
-7.0404491e+86
2.8389313e+85
-4.1905858e+85
-3.738047e+85
2.8844709e+85
2.6179266e+85
1.1542908e+86
-5.4167293e+84
5.7492258e+84
-6.6214083e+84
6.5188168e+84
-7.7076713e+84
-6.2676362e+84
1.4594497e+86
6.3794445e+84
-6.7773387e+84
-7.8572416e+84
5.6386849e+84
1.1331626e+86
-7.4852155e+84
5.2842691e+84
-6.9217784e+84
6.417215e+84
-7.5999919e+84
-7.9119221e+84
1.4274845e+86
6.2985408e+84
-7.1078653e+84
-7.7998762e+84
5.1771924e+84
-6.1873095e+84
1.1252453e+86
7.7082079e+84
-1.4611679e+86
-6.7456118e+84
6.3699637e+84
5.5032205e+84
-7.855852e+84
1.1008591e+86
-1.4239885e+86
-7.7710574e+84
-7.0759674e+84
6.2338136e+84
5.0464352e+84
-6.6755882e+84
8.0246502e+84
5.5170841e+84
-6.7384964e+84
6.2783557e+84
-7.7851979e+84
-7.7667316e+84
5.0448649e+84
-7.0420343e+84
6.2325095e+84
1.1130273e+86
-6.061036e+84
-1.4381322e+86
7.7850231e+84
5.6424302e+84
-6.6377555e+84
6.3225304e+84
-7.7310939e+84
-6.2203814e+84
1.4122641e+86
8.3570271e+84
-6.6116709e+84
6.2844805e+84
5.5764817e+84
-7.7216082e+84
1.1228515e+86
-1.4584079e+86
5.1916432e+84
-7.0877811e+84
6.2803514e+84
-7.786053e+84
1.4301184e+86
-7.0511473e+84
6.2898324e+84
-7.7059793e+84
5.2177251e+84
1.0920221e+86
-6.3096985e+84
8.4329627e+84
5.4231069e+84
-6.5774318e+84
6.2006113e+84
-7.7121641e+84
-6.8085165e+84
9.1849646e+84
6.2317666e+84
-6.5425895e+84
-7.6975198e+84
5.4787259e+84
1.1001289e+86
-7.7113904e+84
5.0786366e+84
-7.0380223e+84
6.1639674e+84
6.2563593e+84
-6.9668535e+84
-7.70878e+84
5.1489314e+84
-5.8716143e+84
-1.2129514e+86
7.2550378e+84
1.5126644e+86
-7.2734798e+84
-8.2334795e+84
5.987112e+84
5.1758084e+84
-1.1846089e+86
1.4726106e+86
-7.99954e+84
6.0004742e+84
4.795149e+84
-7.5591367e+84
-8.1347985e+84
2.3107018e+85
-5.4690285e+86
-3.1751555e+85
2.7701921e+85
-3.9170381e+85
-4.2202039e+85
2.2898173e+85
5.192017e+84
-7.1092728e+84
-1.5087711e+86
-9.2091695e+84
6.3995207e+84
-1.5503879e+86
-7.7490484e+84
-5.5189528e+84
-1.201008e+86
1.489989e+86
-7.134878e+84
-8.1289493e+84
5.9911226e+84
5.2392239e+84
-1.2039033e+86
1.5045725e+86
6.0266109e+84
4.8850929e+84
-7.5545822e+84
-8.1560034e+84
-5.561873e+86
2.789882e+85
-3.7112779e+85
-4.2737949e+85
2.4594685e+85
5.1591822e+84
-1.5425153e+86
-9.0223771e+84
-1.5292657e+86
-7.7137193e+84
1.1556049e+86
-5.5045638e+84
7.3086967e+84
-6.6431348e+84
-7.7659966e+84
6.478298e+84
5.6523815e+84
-6.5190739e+84
7.8943063e+84
-7.9518416e+84
6.3250928e+84
5.5179758e+84
-6.8095579e+84
1.1320408e+86
-7.9220507e+84
-6.9210811e+84
-7.6446426e+84
5.2199813e+84
6.424147e+84
-8.4765503e+84
-7.1135999e+84
-7.8648306e+84
6.2860141e+84
5.0902599e+84
1.1433547e+86
-5.586689e+84
5.6940865e+84
-6.5391576e+84
6.4513463e+84
-7.6951858e+84
-5.9341343e+84
-6.7119677e+84
6.3092e+84
5.5959566e+84
-7.8555494e+84
1.1508326e+86
5.3253748e+84
-6.9148942e+84
6.446939e+84
-7.6594319e+84
-7.1119904e+84
6.3347053e+84
-7.8714336e+84
5.2383325e+84
-1.7123061e+85
-7.2717108e+86
2.877418e+85
-3.8847888e+85
-4.3405405e+85
2.5313593e+85
-7.0836211e+86
-2.8017006e+85
-4.3224332e+85
-4.0702182e+85
2.8060272e+85
2.2974698e+85
1.1242937e+86
-5.9175818e+84
7.6231874e+84
5.5790527e+84
-6.719174e+84
6.3606725e+84
-7.774422e+84
-6.4996041e+84
8.2252335e+84
1.4296974e+86
-6.7315133e+84
6.2849305e+84
5.5375437e+84
-7.802541e+84
1.1033405e+86
-7.7074684e+84
5.0958517e+84
-7.0633524e+84
6.2264476e+84
1.3993618e+86
-7.0399237e+84
6.2115195e+84
-7.7367074e+84
5.0743896e+84
1.1116655e+86
-6.5099802e+84
9.1484573e+84
5.7924307e+84
-6.3847787e+84
6.6347833e+84
-7.5801818e+84
-6.8850079e+84
1.4079834e+86
9.822212e+84
-6.3605786e+84
-7.594059e+84
6.5755084e+84
5.7575011e+84
1.1222597e+86
5.4086125e+84
-6.8988058e+84
6.5156677e+84
-7.6072129e+84
1.4291066e+86
6.5165402e+84
-6.864606e+84
-7.622152e+84
5.3887268e+84
1.0889595e+86
-6.9174116e+84
9.7850316e+84
5.6377684e+84
-6.3246433e+84
6.5162422e+84
-7.5596984e+84
-7.4343969e+84
1.3817833e+86
1.0549057e+85
-6.2763123e+84
-7.5463289e+84
6.5174275e+84
5.6580923e+84
1.0990103e+86
-8.2072778e+84
-7.5722022e+84
5.2729296e+84
-6.8467144e+84
6.3984719e+84
-9.0200977e+84
1.4045848e+86
6.467326e+84
-6.7722669e+84
-7.561222e+84
5.3237503e+84
1.1006884e+86
-6.2607816e+84
5.4568319e+84
-6.6542704e+84
6.2492879e+84
-7.7115486e+84
-7.2019123e+84
1.4072743e+86
6.2616924e+84
-6.619955e+84
-7.7253686e+84
5.471116e+84
1.0811612e+86
-7.6735246e+84
4.9626906e+84
-7.0136048e+84
6.0990458e+84
6.176265e+84
-6.9460641e+84
-7.6710658e+84
5.0139781e+84
1.8403055e+85
5.5980009e+86
-2.0741725e+85
-7.2783547e+86
-4.6136788e+85
-4.4721938e+85
2.3418385e+85
2.8169141e+85
5.5207213e+86
-7.1246322e+86
2.4959211e+85
-4.4538495e+85
-3.9062409e+85
2.9965699e+85
2.7469788e+85
-1.8661485e+85
2.9352619e+85
-4.2008665e+85
-3.7707053e+85
2.8701889e+85
2.6624881e+85
-2.4777131e+85
2.7202086e+85
-4.1648509e+85
-4.4100207e+85
2.3225649e+85
1.4945066e+85
5.5639519e+86
-2.3141868e+85
-7.1988417e+86
-4.5791318e+85
-4.4262366e+85
2.3716113e+85
2.835173e+85
5.6974695e+86
-7.3556143e+86
-4.498752e+85
-4.0617301e+85
2.7614964e+85
2.9734557e+85
-1.625882e+85
2.7901482e+85
-4.0045129e+85
-4.3913281e+85
2.5928531e+85
-2.4781115e+85
2.7501525e+85
-4.1597406e+85
-4.3632163e+85
2.345504e+85
1.8252244e+85
5.6057316e+86
-2.6789689e+85
-7.2314532e+86
-4.6604963e+85
-4.5426251e+85
2.6565765e+85
2.4988863e+85
5.5257468e+86
-7.1024566e+86
-4.581429e+85
-4.2350078e+85
2.7140925e+85
2.7276496e+85
-1.9241834e+85
7.0297869e+86
2.7193509e+85
-3.9860844e+85
-4.3580083e+85
2.548203e+85
7.1608381e+86
-4.419636e+85
-4.27723e+85
2.6928923e+85
2.3483352e+85
-5.4299156e+86
-2.5063751e+85
2.7122238e+85
-3.725327e+85
-4.2889488e+85
2.3615597e+85
-2.0992152e+85
2.76067e+85
-3.8059508e+85
-4.3173317e+85
2.4885138e+85
-5.5052208e+86
2.6992129e+85
-4.0318333e+85
-4.3474189e+85
2.1534153e+85
2.6650476e+85
-4.1634094e+85
-4.3764575e+85
2.2666541e+85
-7.2788173e+86
-4.6170825e+85
-4.2226004e+85
2.8440704e+85
2.6348438e+85
-1.2123614e+86
7.4174876e+84
-7.3911881e+84
-8.318222e+84
5.8607112e+84
5.0911495e+84
6.5399206e+84
-1.5504901e+86
-8.3511329e+84
-5.6542361e+84
-1.1905245e+86
1.4744932e+86
-7.102124e+84
-8.1107936e+84
5.9786473e+84
5.2170518e+84
-1.2009432e+86
1.4994764e+86
6.0512472e+84
4.928591e+84
-7.5528952e+84
-8.1450431e+84
5.420623e+84
-1.5401717e+86
-9.2108981e+84
-1.5141434e+86
-7.6198668e+84
1.1331007e+86
-5.7190933e+84
5.6443136e+84
-6.5056426e+84
6.4243249e+84
-7.6904313e+84
-6.6496616e+84
-7.8263162e+84
6.2726542e+84
5.5446626e+84
5.3670037e+84
-6.9035363e+84
6.464999e+84
-7.6389709e+84
8.6876651e+84
5.5490614e+84
-6.4071666e+84
6.3675157e+84
-7.4997443e+84
1.0772763e+86
-7.3908601e+84
1.0430678e+85
5.709432e+84
-6.0567503e+84
6.6268277e+84
-7.3180513e+84
1.1237614e+85
-5.9370546e+84
-7.2217286e+84
6.6839586e+84
5.8176505e+84
5.3552314e+84
-6.5859437e+84
6.5062007e+84
-7.3338696e+84
3.9686105e+86
-2.1627154e+87
-4.8235368e+86
2.1201473e+86
1.639123e+86
-8.8581155e+85
-5.410087e+85
-2.0968354e+87
4.7020029e+86
2.1069174e+86
1.7027387e+86
-9.1049824e+85
-4.0825824e+85
-4.2420033e+86
-2.3551641e+87
5.9385225e+86
-9.6458634e+85
-6.1836581e+86
-2.25635e+87
-1.1386645e+86
6.1094617e+85
5.4572667e+86
-7.2787957e+85
-6.6826934e+86
-4.1433809e+85
-3.6443713e+85
3.3445548e+85
2.9885607e+85
5.3598179e+86
7.8443688e+85
-6.4994747e+86
-4.146982e+85
-3.3998598e+85
3.3801552e+85
3.1403425e+85
4.027725e+85
7.2882932e+86
-4.8784835e+85
-4.6880171e+85
-4.4597504e+85
3.1044118e+85
2.7727541e+85
7.1354885e+86
5.6951243e+85
-4.6712172e+85
-4.1632316e+85
3.1114256e+85
2.943764e+85
-5.5758311e+86
-2.1468286e+85
2.9770593e+85
3.032956e+85
-4.2170202e+85
-4.6044126e+85
2.6961844e+85
-2.6773591e+85
3.9795739e+85
2.8813439e+85
-4.3423224e+85
-4.6962433e+85
2.7679274e+85
5.668621e+86
-3.0663515e+85
-4.7580199e+85
-4.6931769e+85
2.8111622e+85
2.5576889e+85
-2.4669079e+85
2.6972665e+85
-4.616424e+85
-4.6860451e+85
2.4310068e+85
-5.7046228e+86
-2.0524696e+85
3.058036e+85
-4.1637594e+85
-4.6884665e+85
2.8300015e+85
-2.375427e+85
-7.2811806e+86
2.9230524e+85
-4.4960223e+85
-4.8141689e+85
2.7878401e+85
5.6090641e+86
-7.1627737e+86
-3.3779186e+85
-4.7314895e+85
-4.6756268e+85
2.8749939e+85
2.5830289e+85
-2.6194496e+85
2.752858e+85
-4.5687183e+85
-4.6149013e+85
2.452198e+85
5.6990894e+85
5.3675409e+86
-7.9915916e+85
-6.4977596e+86
-4.0169263e+85
-3.5114229e+85
3.3986656e+85
3.0005848e+85
5.4493445e+86
-6.6422734e+86
-4.166519e+85
-3.4729797e+85
3.3446219e+85
3.138983e+85
3.6002929e+85
-5.0122316e+85
-4.6188567e+85
-4.4014236e+85
3.1075805e+85
2.7415061e+85
-4.762447e+85
-4.3178752e+85
3.0374517e+85