/*--------------------------------*- C++ -*----------------------------------*\
  =========                 |
  \\      /  F ield         | OpenFOAM: The Open Source CFD Toolbox
   \\    /   O peration     | Website:  https://openfoam.org
    \\  /    A nd           | Version:  7
     \\/     M anipulation  |
\*---------------------------------------------------------------------------*/
FoamFile
{
    version     2.0;
    format      ascii;
    class       volScalarField;
    location    "2000";
    object      pMean;
}
// * * * * * * * * * * * * * * * * * * * * * * * * * * * * * * * * * * * * * //

dimensions      [0 2 -2 0 0 0 0];

internalField   nonuniform List<scalar> 
34251
(
-1.9273106e+179
-1.9477445e+179
-1.9294905e+179
-1.9137004e+179
-1.9324943e+179
-1.9176436e+179
-1.8207309e+179
-1.9123521e+179
-1.9172527e+179
-1.9317769e+179
-1.9356503e+179
-1.9350685e+179
-1.9397873e+179
-1.9543055e+179
-1.9563519e+179
-1.9599123e+179
-1.9569957e+179
-1.9622632e+179
-1.9592006e+179
-1.9650663e+179
-1.9633349e+179
-1.8664222e+179
-1.8283261e+179
-1.8251737e+179
-1.8617638e+179
-1.8252493e+179
-1.8491437e+179
-1.8232362e+179
-1.8501983e+179
-1.7639635e+179
-1.7618454e+179
-1.710879e+179
-1.7088456e+179
-1.9520459e+179
-1.9543376e+179
-1.9596938e+179
-1.9572823e+179
-1.9325832e+179
-1.9282585e+179
-1.9478236e+179
-1.9432551e+179
-1.941333e+179
-1.946867e+179
-1.9406809e+179
-1.9412564e+179
-1.9526933e+179
-1.9514563e+179
-1.94568e+179
-1.9487287e+179
-1.9537188e+179
-1.9510352e+179
-1.947596e+179
-1.9452109e+179
-1.959458e+179
-1.9561926e+179
-1.9683523e+179
-1.9659299e+179
-1.9709412e+179
-1.9685471e+179
-1.9722409e+179
-1.9676156e+179
-1.9725525e+179
-1.9779439e+179
-1.972973e+179
-1.9781382e+179
-1.9716417e+179
-1.9697221e+179
-1.9764632e+179
-1.973687e+179
-1.9199794e+179
-1.9183776e+179
-1.8888909e+179
-1.8876243e+179
-1.8303857e+179
-1.8329025e+179
-1.8570658e+179
-1.8588966e+179
-1.7705344e+179
-1.8549922e+179
-1.8297537e+179
-1.826637e+179
-1.852604e+179
-1.7680109e+179
-1.9157481e+179
-1.9127493e+179
-1.8819693e+179
-1.8844571e+179
-1.7163302e+179
-1.7142291e+179
-1.8220919e+179
-1.8224705e+179
-1.8347369e+179
-1.7891392e+179
-1.8342807e+179
-1.8498885e+179
-1.8505239e+179
-1.8640935e+179
-1.820384e+179
-1.8211306e+179
-1.8326485e+179
-1.8335176e+179
-1.7890216e+179
-1.851068e+179
-1.8513943e+179
-1.8652954e+179
-1.8649114e+179
-1.7625019e+179
-1.7630646e+179
-1.7616682e+179
-1.7875169e+179
-1.8193324e+179
-1.8315431e+179
-1.8878954e+179
-1.6681888e+179
-1.7216526e+179
-1.7464504e+179
-1.7463947e+179
-1.7210777e+179
-1.6656767e+179
-1.7175381e+179
-1.74529e+179
-1.6397709e+179
-1.6389897e+179
-1.9737127e+179
-1.975265e+179
-1.974904e+179
-1.9798489e+179
-1.9785971e+179
-1.9766249e+179
-1.9221809e+179
-1.9167104e+179
-1.9521793e+179
-1.9424639e+179
-1.9399318e+179
-1.949947e+179
-1.9492348e+179
-1.9502713e+179
-1.9579039e+179
-1.9573628e+179
-1.951761e+179
-1.9522757e+179
-1.9606524e+179
-1.9594274e+179
-1.9544659e+179
-1.9597847e+179
-1.9609426e+179
-1.9555743e+179
-1.9526003e+179
-1.952087e+179
-1.9579783e+179
-1.9438533e+179
-1.9473667e+179
-1.9573507e+179
-1.9544263e+179
-1.9567634e+179
-1.9577977e+179
-1.9665042e+179
-1.9648682e+179
-1.9633113e+179
-1.9555394e+179
-1.9541086e+179
-1.9624324e+179
-1.9617766e+179
-1.9602729e+179
-1.9655758e+179
-1.9574918e+179
-1.9584283e+179
-1.9639354e+179
-1.962446e+179
-1.9730472e+179
-1.9729021e+179
-1.9765867e+179
-1.976169e+179
-1.9754605e+179
-1.9753347e+179
-1.978764e+179
-1.9793297e+179
-1.9786577e+179
-1.9748673e+179
-1.973978e+179
-1.9770933e+179
-1.9804948e+179
-1.979474e+179
-1.9841742e+179
-1.9824993e+179
-1.9787908e+179
-1.9786442e+179
-1.9818062e+179
-1.9821496e+179
-1.9776632e+179
-1.9764948e+179
-1.9813166e+179
-1.9795052e+179
-1.565076e+179
-1.9388167e+179
-1.9555708e+179
-1.9358458e+179
-1.937364e+179
-1.9520704e+179
-1.9542574e+179
-1.9144103e+179
-1.8963754e+179
-1.894325e+179
-1.8953761e+179
-1.9133847e+179
-1.9118213e+179
-1.8273714e+179
-1.8283623e+179
-1.8409376e+179
-1.8397154e+179
-1.7960299e+179
-1.8298513e+179
-1.8294386e+179
-1.8418314e+179
-1.7966145e+179
-1.8571458e+179
-1.8582688e+179
-1.872427e+179
-1.8711936e+179
-1.8591164e+179
-1.8733403e+179
-1.7693504e+179
-1.7692126e+179
-1.8696532e+179
-1.8553279e+179
-1.8559757e+179
-1.868956e+179
-1.8265336e+179
-1.838138e+179
-1.8387393e+179
-1.8258155e+179
-1.7940589e+179
-1.8234064e+179
-1.8246866e+179
-1.8370258e+179
-1.7916825e+179
-1.8359734e+179
-1.8531871e+179
-1.8669503e+179
-1.8541439e+179
-1.86801e+179
-1.7667642e+179
-1.7657587e+179
-1.9337473e+179
-1.9341425e+179
-1.9507317e+179
-1.9508168e+179
-1.9496714e+179
-1.9310839e+179
-1.9329145e+179
-1.9474038e+179
-1.9087899e+179
-1.8905633e+179
-1.8895871e+179
-1.9072778e+179
-1.910428e+179
-1.891457e+179
-1.8926437e+179
-1.9098185e+179
-1.6723136e+179
-1.7265153e+179
-1.7525777e+179
-1.7523165e+179
-1.7262956e+179
-1.6707983e+179
-1.7239986e+179
-1.7503658e+179
-1.7496635e+179
-1.724497e+179
-1.6422048e+179
-1.6418287e+179
-1.8225207e+179
-1.8222191e+179
-1.8024356e+179
-1.8177718e+179
-1.817964e+179
-1.8231675e+179
-1.8227948e+179
-1.8026224e+179
-1.8183397e+179
-1.8186947e+179
-1.8332713e+179
-1.838732e+179
-1.8329463e+179
-1.8383414e+179
-1.7904309e+179
-1.7902424e+179
-1.8324705e+179
-1.8378677e+179
-1.8322934e+179
-1.8376062e+179
-1.8483163e+179
-1.8480745e+179
-1.8539176e+179
-1.8535614e+179
-1.8489683e+179
-1.8545015e+179
-1.8486203e+179
-1.8542034e+179
-1.8656506e+179
-1.8722138e+179
-1.8654147e+179
-1.8719659e+179
-1.8211903e+179
-1.8210015e+179
-1.80044e+179
-1.8166198e+179
-1.8166909e+179
-1.8217789e+179
-1.821431e+179
-1.801227e+179
-1.8169986e+179
-1.8172959e+179
-1.8312425e+179
-1.8365219e+179
-1.8310799e+179
-1.8363052e+179
-1.8318318e+179
-1.8371411e+179
-1.8316223e+179
-1.8368397e+179
-1.7890511e+179
-1.7885715e+179
-1.8495956e+179
-1.855309e+179
-1.8493879e+179
-1.855015e+179
-1.8504143e+179
-1.8561121e+179
-1.8500109e+179
-1.855722e+179
-1.8672119e+179
-1.8741632e+179
-1.8669016e+179
-1.873813e+179
-1.8664036e+179
-1.8732573e+179
-1.8661361e+179
-1.8728531e+179
-1.7649221e+179
-1.7658336e+179
-1.7757288e+179
-1.775357e+179
-1.7634228e+179
-1.7651669e+179
-1.7749968e+179
-1.7738073e+179
-1.7619766e+179
-1.7618374e+179
-1.7728321e+179
-1.7728225e+179
-1.799747e+179
-1.7870412e+179
-1.7994474e+179
-1.786955e+179
-1.7617984e+179
-1.8199611e+179
-1.8154821e+179
-1.8207967e+179
-1.8203544e+179
-1.8159052e+179
-1.8163353e+179
-1.8306241e+179
-1.8359057e+179
-1.830348e+179
-1.8868362e+179
-1.8877716e+179
-1.8956164e+179
-1.8873908e+179
-1.7025528e+179
-1.703336e+179
-1.6790471e+179
-1.6748352e+179
-1.7324388e+179
-1.7333886e+179
-1.7423749e+179
-1.7421222e+179
-1.7520749e+179
-1.744601e+179
-1.7446442e+179
-1.7520675e+179
-1.7513e+179
-1.7442739e+179
-1.742559e+179
-1.7497488e+179
-1.7310708e+179
-1.7313212e+179
-1.7402631e+179
-1.7416045e+179
-1.6727171e+179
-1.6987021e+179
-1.6768703e+179
-1.7306057e+179
-1.7307341e+179
-1.7420712e+179
-1.7416835e+179
-1.742798e+179
-1.7433599e+179
-1.7497059e+179
-1.7503851e+179
-1.7426644e+179
-1.7489242e+179
-1.5971003e+179
-1.5967228e+179
-1.9811133e+179
-1.981045e+179
-1.9835861e+179
-1.9836616e+179
-1.9830445e+179
-1.981996e+179
-1.9881491e+179
-1.9870529e+179
-1.9863935e+179
-1.9861553e+179
-1.9854803e+179
-1.9842697e+179
-1.898083e+179
-1.8933182e+179
-1.9530929e+179
-1.9635585e+179
-1.9638693e+179
-1.9278191e+179
-1.9253725e+179
-1.9507795e+179
-1.9621859e+179
-1.9607705e+179
-1.9701033e+179
-1.9688991e+179
-1.9725431e+179
-1.9714001e+179
-1.9643366e+179
-1.9638679e+179
-1.9651419e+179
-1.9650844e+179
-1.9685624e+179
-1.968044e+179
-1.9716346e+179
-1.9706981e+179
-1.9698161e+179
-1.9692312e+179
-1.9722409e+179
-1.9721216e+179
-1.9665882e+179
-1.9650393e+179
-1.9655744e+179
-1.9658736e+179
-1.9629947e+179
-1.962516e+179
-1.9639344e+179
-1.9634407e+179
-1.9615127e+179
-1.961156e+179
-1.9623582e+179
-1.9671759e+179
-1.9666026e+179
-1.9698095e+179
-1.9698747e+179
-1.9305609e+179
-1.9327994e+179
-1.9581776e+179
-1.9695746e+179
-1.9685386e+179
-1.9550959e+179
-1.9654478e+179
-1.9672553e+179
-1.9782348e+179
-1.9768394e+179
-1.9754501e+179
-1.9740776e+179
-1.9709302e+179
-1.9715169e+179
-1.9717688e+179
-1.9708666e+179
-1.970638e+179
-1.9695432e+179
-1.9701884e+179
-1.974684e+179
-1.9740086e+179
-1.9777004e+179
-1.9766296e+179
-1.9678245e+179
-1.9677349e+179
-1.9665554e+179
-1.9670067e+179
-1.9696281e+179
-1.9689885e+179
-1.9680472e+179
-1.9686848e+179
-1.9732864e+179
-1.9725566e+179
-1.9760681e+179
-1.9757613e+179
-1.9714152e+179
-1.9707805e+179
-1.9743797e+179
-1.973234e+179
-1.5558596e+179
-1.9749209e+179
-1.9754554e+179
-1.9801526e+179
-1.980709e+179
-1.9742151e+179
-1.9747431e+179
-1.9803228e+179
-1.9794064e+179
-1.9775981e+179
-1.977791e+179
-1.9829261e+179
-1.9836572e+179
-1.9768678e+179
-1.9779157e+179
-1.9834741e+179
-1.9823711e+179
-1.9763779e+179
-1.9770377e+179
-1.9820651e+179
-1.9823731e+179
-1.9753707e+179
-1.9762473e+179
-1.9818224e+179
-1.9805408e+179
-1.9813856e+179
-1.981513e+179
-1.9876277e+179
-1.9880709e+179
-1.9802049e+179
-1.9811222e+179
-1.9875101e+179
-1.9862159e+179
-1.9799151e+179
-1.9801373e+179
-1.9858428e+179
-1.9863787e+179
-1.9792122e+179
-1.9798265e+179
-1.9859313e+179
-1.9850147e+179
-1.9789797e+179
-1.9791844e+179
-1.984671e+179
-1.9850907e+179
-1.9776329e+179
-1.9785989e+179
-1.9844699e+179
-1.9831128e+179
-1.5663283e+179
-1.9449443e+179
-1.9554702e+179
-1.9444342e+179
-1.9545915e+179
-1.9684759e+179
-1.9735273e+179
-1.9677103e+179
-1.972326e+179
-1.9426612e+179
-1.9420114e+179
-1.9531649e+179
-1.9521671e+179
-1.9436708e+179
-1.9433743e+179
-1.9538512e+179
-1.9538191e+179
-1.9663216e+179
-1.9712653e+179
-1.9653375e+179
-1.9698658e+179
-1.9671482e+179
-1.9670924e+179
-1.9718122e+179
-1.9719337e+179
-1.917442e+179
-1.9170565e+179
-1.9282958e+179
-1.9276752e+179
-1.8955314e+179
-1.895191e+179
-1.9036888e+179
-1.9032259e+179
-1.8931605e+179
-1.8936423e+179
-1.9016658e+179
-1.9009738e+179
-1.8945573e+179
-1.8942013e+179
-1.9025065e+179
-1.9022203e+179
-1.9163213e+179
-1.9160677e+179
-1.9269785e+179
-1.9268072e+179
-1.9153779e+179
-1.9147164e+179
-1.9261467e+179
-1.9253095e+179
-1.8280663e+179
-1.8277882e+179
-1.8073425e+179
-1.8232906e+179
-1.8234906e+179
-1.8289563e+179
-1.8285843e+179
-1.8082204e+179
-1.8239642e+179
-1.8244585e+179
-1.8392129e+179
-1.844639e+179
-1.8388427e+179
-1.8442367e+179
-1.8384066e+179
-1.8438283e+179
-1.8380517e+179
-1.8433984e+179
-1.7958502e+179
-1.79547e+179
-1.8300303e+179
-1.809734e+179
-1.82581e+179
-1.8254362e+179
-1.8297187e+179
-1.8295787e+179
-1.8094863e+179
-1.8251491e+179
-1.8249397e+179
-1.8399417e+179
-1.839693e+179
-1.8454877e+179
-1.8451774e+179
-1.7972364e+179
-1.7970421e+179
-1.855747e+179
-1.8553745e+179
-1.8615571e+179
-1.8610961e+179
-1.8566412e+179
-1.8623611e+179
-1.8562241e+179
-1.8619872e+179
-1.8737339e+179
-1.8806258e+179
-1.8734127e+179
-1.8803115e+179
-1.8729097e+179
-1.8798327e+179
-1.8724262e+179
-1.8792752e+179
-1.8571961e+179
-1.862957e+179
-1.8742881e+179
-1.8815754e+179
-1.8812239e+179
-1.7727752e+179
-1.7695269e+179
-1.7700708e+179
-1.7811825e+179
-1.7801395e+179
-1.7715851e+179
-1.7706934e+179
-1.7821187e+179
-1.7816399e+179
-1.755314e+179
-1.7289152e+179
-1.8716296e+179
-1.8783467e+179
-1.8711263e+179
-1.8778212e+179
-1.8536665e+179
-1.8533339e+179
-1.8593072e+179
-1.8588861e+179
-1.8546908e+179
-1.8603768e+179
-1.8541719e+179
-1.8598435e+179
-1.8704664e+179
-1.8701006e+179
-1.8772119e+179
-1.8768042e+179
-1.8273846e+179
-1.8267967e+179
-1.8065482e+179
-1.8222724e+179
-1.8228175e+179
-1.8365039e+179
-1.8418225e+179
-1.836161e+179
-1.8413949e+179
-1.8373738e+179
-1.8427696e+179
-1.8369958e+179
-1.8423733e+179
-1.8262862e+179
-1.82599e+179
-1.8061213e+179
-1.8218066e+179
-1.821562e+179
-1.7937838e+179
-1.7945352e+179
-1.8242899e+179
-1.8237735e+179
-1.8038451e+179
-1.8192564e+179
-1.8197011e+179
-1.8253473e+179
-1.8248176e+179
-1.8049057e+179
-1.8203355e+179
-1.8208418e+179
-1.8354113e+179
-1.8407481e+179
-1.8350629e+179
-1.8403512e+179
-1.7930607e+179
-1.7921974e+179
-1.8345267e+179
-1.8399338e+179
-1.834127e+179
-1.8395145e+179
-1.8517307e+179
-1.8574323e+179
-1.851324e+179
-1.8569578e+179
-1.8686708e+179
-1.8755044e+179
-1.8681801e+179
-1.8750241e+179
-1.8526293e+179
-1.8582338e+179
-1.8522056e+179
-1.8578569e+179
-1.8694735e+179
-1.8762458e+179
-1.8691884e+179
-1.8759767e+179
-1.7690462e+179
-1.7683077e+179
-1.7790227e+179
-1.7791372e+179
-1.7677091e+179
-1.7780134e+179
-1.7767703e+179
-1.7667168e+179
-1.9402319e+179
-1.9398401e+179
-1.9507162e+179
-1.9499644e+179
-1.9410532e+179
-1.9512129e+179
-1.9407421e+179
-1.9511873e+179
-1.9638746e+179
-1.9689196e+179
-1.963206e+179
-1.9677956e+179
-1.9643792e+179
-1.9691249e+179
-1.9644249e+179
-1.9694867e+179
-1.9623982e+179
-1.9669279e+179
-1.9622727e+179
-1.9669939e+179
-1.937983e+179
-1.9372872e+179
-1.9483492e+179
-1.9473262e+179
-1.939132e+179
-1.9491903e+179
-1.9388382e+179
-1.9491216e+179
-1.9614871e+179
-1.9604632e+179
-1.9117486e+179
-1.9224683e+179
-1.9115252e+179
-1.9222932e+179
-1.8899947e+179
-1.8896969e+179
-1.8979059e+179
-1.8976775e+179
-1.88914e+179
-1.8887336e+179
-1.8971383e+179
-1.8965664e+179
-1.9108048e+179
-1.9102039e+179
-1.9215936e+179
-1.9207914e+179
-1.9137057e+179
-1.9243469e+179
-1.9133843e+179
-1.924154e+179
-1.8909801e+179
-1.8906426e+179
-1.8990757e+179
-1.8985992e+179
-1.8921496e+179
-1.9000696e+179
-1.8915975e+179
-1.8996714e+179
-1.9128417e+179
-1.9124682e+179
-1.9236642e+179
-1.9231581e+179
-1.7069143e+179
-1.7075094e+179
-1.682445e+179
-1.6796003e+179
-1.7482476e+179
-1.7377852e+179
-1.7372917e+179
-1.7472628e+179
-1.7583841e+179
-1.7520684e+179
-1.7505088e+179
-1.7580487e+179
-1.7570026e+179
-1.7502632e+179
-1.7486804e+179
-1.75584e+179
-1.7465994e+179
-1.7374279e+179
-1.736034e+179
-1.7455825e+179
-1.7056791e+179
-1.7061903e+179
-1.6786705e+179
-1.6811711e+179
-1.7349612e+179
-1.7348717e+179
-1.7447683e+179
-1.745478e+179
-1.7474886e+179
-1.7550459e+179
-1.7558554e+179
-1.7483174e+179
-1.7459837e+179
-1.7475185e+179
-1.7546722e+179
-1.7530788e+179
-1.7350098e+179
-1.7344827e+179
-1.7449499e+179
-1.7434399e+179
-1.5986564e+179
-1.5979938e+179
-1.8275636e+179
-1.8274098e+179
-1.8273361e+179
-1.827149e+179
-1.8270088e+179
-1.8267581e+179
-1.8272354e+179
-1.8268744e+179
-1.8089143e+179
-1.8045261e+179
-1.8043006e+179
-1.8087532e+179
-1.8170988e+179
-1.8174579e+179
-1.82837e+179
-1.8283141e+179
-1.8282944e+179
-1.828134e+179
-1.8278998e+179
-1.8275593e+179
-1.8282019e+179
-1.8277798e+179
-1.8048409e+179
-1.8051251e+179
-1.8097644e+179
-1.809379e+179
-1.8179285e+179
-1.818285e+179
-1.8340101e+179
-1.8338566e+179
-1.8348925e+179
-1.8351081e+179
-1.840546e+179
-1.8403628e+179
-1.8423715e+179
-1.8421372e+179
-1.8344756e+179
-1.8336094e+179
-1.834674e+179
-1.8333554e+179
-1.8418713e+179
-1.8401057e+179
-1.8399349e+179
-1.8417127e+179
-1.7915416e+179
-1.7917553e+179
-1.7960994e+179
-1.795755e+179
-1.7918543e+179
-1.7922026e+179
-1.7966823e+179
-1.7962685e+179
-1.8339719e+179
-1.8330333e+179
-1.8342045e+179
-1.832874e+179
-1.8414567e+179
-1.8396816e+179
-1.8394961e+179
-1.8412648e+179
-1.8337089e+179
-1.8327139e+179
-1.8338359e+179
-1.8325398e+179
-1.8410621e+179
-1.8392639e+179
-1.8391459e+179
-1.8409797e+179
-1.8463202e+179
-1.8485975e+179
-1.848445e+179
-1.8462373e+179
-1.8460111e+179
-1.8460889e+179
-1.848356e+179
-1.8482775e+179
-1.8565185e+179
-1.8543177e+179
-1.8566372e+179
-1.8542197e+179
-1.8538974e+179
-1.8562125e+179
-1.8539906e+179
-1.8563218e+179
-1.8490987e+179
-1.8470566e+179
-1.8493576e+179
-1.8468717e+179
-1.8550076e+179
-1.8573806e+179
-1.8571954e+179
-1.8548252e+179
-1.8488547e+179
-1.8466322e+179
-1.8489019e+179
-1.8466108e+179
-1.8546245e+179
-1.8569878e+179
-1.854594e+179
-1.8569395e+179
-1.8664701e+179
-1.8636529e+179
-1.8666654e+179
-1.8634515e+179
-1.8758502e+179
-1.8726492e+179
-1.8725e+179
-1.8757003e+179
-1.8631836e+179
-1.8661541e+179
-1.8632437e+179
-1.8662534e+179
-1.8754255e+179
-1.8722417e+179
-1.8721518e+179
-1.8752591e+179
-1.8263379e+179
-1.8263113e+179
-1.8259131e+179
-1.8258826e+179
-1.8258189e+179
-1.8255134e+179
-1.8262169e+179
-1.8257401e+179
-1.8075501e+179
-1.8031848e+179
-1.8030665e+179
-1.8075724e+179
-1.8160266e+179
-1.8161913e+179
-1.8267074e+179
-1.826655e+179
-1.8265541e+179
-1.8264265e+179
-1.8262856e+179
-1.8261542e+179
-1.8266533e+179
-1.8265217e+179
-1.8083271e+179
-1.8038692e+179
-1.8034366e+179
-1.8079016e+179
-1.8164859e+179
-1.8166089e+179
-1.8316594e+179
-1.8316451e+179
-1.8327427e+179
-1.8326744e+179
-1.8382067e+179
-1.8399566e+179
-1.8398796e+179
-1.8382621e+179
-1.8315341e+179
-1.8313122e+179
-1.8324581e+179
-1.8326007e+179
-1.8380176e+179
-1.8378859e+179
-1.8397569e+179
-1.8396704e+179
-1.8332394e+179
-1.8322895e+179
-1.8334217e+179
-1.8322065e+179
-1.8389118e+179
-1.8406978e+179
-1.8404971e+179
-1.8387793e+179
-1.8330279e+179
-1.8320616e+179
-1.833088e+179
-1.8319777e+179
-1.8385571e+179
-1.8402711e+179
-1.8385092e+179
-1.8402254e+179
-1.7952281e+179
-1.7910473e+179
-1.790513e+179
-1.7947792e+179
-1.7903519e+179
-1.7904161e+179
-1.7946764e+179
-1.7945642e+179
-1.8498903e+179
-1.8477737e+179
-1.850096e+179
-1.8475961e+179
-1.8557277e+179
-1.8581686e+179
-1.8579668e+179
-1.8555669e+179
-1.8473289e+179
-1.849655e+179
-1.8473978e+179
-1.8497241e+179
-1.8553426e+179
-1.8577695e+179
-1.8552758e+179
-1.857677e+179
-1.8507679e+179
-1.8486831e+179
-1.8510143e+179
-1.8484609e+179
-1.8566242e+179
-1.8564147e+179
-1.8590987e+179
-1.8588711e+179
-1.8503492e+179
-1.8481936e+179
-1.8505159e+179
-1.8480487e+179
-1.8585996e+179
-1.8561454e+179
-1.8559964e+179
-1.8584321e+179
-1.8682714e+179
-1.8653873e+179
-1.8685004e+179
-1.8651614e+179
-1.8745155e+179
-1.8743188e+179
-1.8778553e+179
-1.8776637e+179
-1.8647473e+179
-1.8678116e+179
-1.8649027e+179
-1.8680185e+179
-1.8773606e+179
-1.8740297e+179
-1.873845e+179
-1.8771216e+179
-1.8673351e+179
-1.8644676e+179
-1.8675353e+179
-1.8642728e+179
-1.8768328e+179
-1.8735586e+179
-1.8733811e+179
-1.8766724e+179
-1.8639618e+179
-1.8669869e+179
-1.8640455e+179
-1.8671252e+179
-1.8764162e+179
-1.8731175e+179
-1.8729734e+179
-1.8762141e+179
-1.7681753e+179
-1.7687269e+179
-1.77179e+179
-1.7722336e+179
-1.7691749e+179
-1.7693723e+179
-1.7730938e+179
-1.7726065e+179
-1.7801285e+179
-1.7803432e+179
-1.7839456e+179
-1.7835694e+179
-1.7833507e+179
-1.7797976e+179
-1.7794186e+179
-1.7831169e+179
-1.7671329e+179
-1.7674627e+179
-1.7707386e+179
-1.7708544e+179
-1.7676114e+179
-1.7678312e+179
-1.7708647e+179
-1.7713505e+179
-1.7823802e+179
-1.7787544e+179
-1.7784278e+179
-1.7819007e+179
-1.7818811e+179
-1.7785447e+179
-1.7784973e+179
-1.7819702e+179
-1.7657806e+179
-1.7657865e+179
-1.7694742e+179
-1.7694776e+179
-1.7661159e+179
-1.7664908e+179
-1.7702729e+179
-1.769743e+179
-1.7816172e+179
-1.7780449e+179
-1.7776347e+179
-1.7811843e+179
-1.7772384e+179
-1.7773517e+179
-1.7808419e+179
-1.7807811e+179
-1.8073991e+179
-1.8027349e+179
-1.8022157e+179
-1.8069964e+179
-1.7942259e+179
-1.7899372e+179
-1.7893237e+179
-1.7936766e+179
-1.8064613e+179
-1.8019506e+179
-1.8015443e+179
-1.8062537e+179
-1.7933523e+179
-1.7891386e+179
-1.7889994e+179
-1.793235e+179
-1.7651825e+179
-1.7652348e+179
-1.7689342e+179
-1.7687051e+179
-1.8250769e+179
-1.8248794e+179
-1.8247096e+179
-1.8245356e+179
-1.8150206e+179
-1.8255135e+179
-1.8253892e+179
-1.8253784e+179
-1.8252339e+179
-1.825131e+179
-1.8249714e+179
-1.8254057e+179
-1.8253009e+179
-1.8154205e+179
-1.8157138e+179
-1.8320567e+179
-1.8310526e+179
-1.8322634e+179
-1.830933e+179
-1.8376595e+179
-1.8374873e+179
-1.8395112e+179
-1.8393243e+179
-1.8317984e+179
-1.830816e+179
-1.8319039e+179
-1.8306975e+179
-1.8874211e+179
-1.8838746e+179
-1.8875682e+179
-1.883703e+179
-1.8884024e+179
-1.8848955e+179
-1.8886065e+179
-1.8846826e+179
-1.894998e+179
-1.8948208e+179
-1.8991439e+179
-1.8989926e+179
-1.8878726e+179
-1.8843893e+179
-1.8881244e+179
-1.8841783e+179
-1.7237277e+179
-1.7230863e+179
-1.7259113e+179
-1.7238336e+179
-1.7243583e+179
-1.7244375e+179
-1.7256122e+179
-1.7306378e+179
-1.6718106e+179
-1.6671406e+179
-1.7396787e+179
-1.7397878e+179
-1.7418297e+179
-1.7401904e+179
-1.7413797e+179
-1.740292e+179
-1.7409358e+179
-1.7416097e+179
-1.7389774e+179
-1.7403283e+179
-1.7409692e+179
-1.7401781e+179
-1.7399835e+179
-1.7399441e+179
-1.7406594e+179
-1.7411442e+179
-1.7613564e+179
-1.7584837e+179
-1.758161e+179
-1.7612734e+179
-1.7517424e+179
-1.7480331e+179
-1.7481536e+179
-1.7517609e+179
-1.7473095e+179
-1.7478552e+179
-1.7513424e+179
-1.7508481e+179
-1.7608357e+179
-1.7575901e+179
-1.7572332e+179
-1.7604833e+179
-1.7599263e+179
-1.757089e+179
-1.7568462e+179
-1.7595352e+179
-1.7501301e+179
-1.7469963e+179
-1.7468525e+179
-1.7501557e+179
-1.7457734e+179
-1.7466913e+179
-1.7498271e+179
-1.7493723e+179
-1.7594347e+179
-1.7564622e+179
-1.7560507e+179
-1.759324e+179
-1.7393142e+179
-1.7387906e+179
-1.7408979e+179
-1.7388652e+179
-1.7394939e+179
-1.7387349e+179
-1.7401788e+179
-1.740242e+179
-1.7374689e+179
-1.7396193e+179
-1.7399812e+179
-1.7386155e+179
-1.7389858e+179
-1.739422e+179
-1.7400285e+179
-1.7400706e+179
-1.6659468e+179
-1.7233701e+179
-1.7216258e+179
-1.7219518e+179
-1.7205624e+179
-1.7405682e+179
-1.740943e+179
-1.7426644e+179
-1.7414191e+179
-1.7416418e+179
-1.7399209e+179
-1.7408052e+179
-1.7430693e+179
-1.7381099e+179
-1.7389694e+179
-1.7390849e+179
-1.7384471e+179
-1.7390139e+179
-1.7379701e+179
-1.738514e+179
-1.7391777e+179
-1.7450472e+179
-1.7451274e+179
-1.7489557e+179
-1.74908e+179
-1.7447692e+179
-1.7451721e+179
-1.7484693e+179
-1.7487926e+179
-1.7553533e+179
-1.7588523e+179
-1.7583782e+179
-1.7551328e+179
-1.7548689e+179
-1.7580735e+179
-1.7580958e+179
-1.7546629e+179
-1.7475836e+179
-1.7444351e+179
-1.7449137e+179
-1.7481497e+179
-1.7541445e+179
-1.753939e+179
-1.7578318e+179
-1.7574728e+179
-1.7380524e+179
-1.7379307e+179
-1.5825184e+179
-1.5833429e+179
-1.9842145e+179
-1.9845749e+179
-1.984248e+179
-1.9836781e+179
-1.9867396e+179
-1.987221e+179
-1.9870024e+179
-1.9862555e+179
-1.9859942e+179
-1.9861827e+179
-1.9855994e+179
-1.9846473e+179
-1.9911102e+179
-1.9913033e+179
-1.9907565e+179
-1.9898339e+179
-1.989524e+179
-1.9899315e+179
-1.9894601e+179
-1.9888119e+179
-1.9883831e+179
-1.9885764e+179
-1.9879753e+179
-1.9869759e+179
-1.8512452e+179
-1.9210307e+179
-1.9221394e+179
-1.8478311e+179
-1.9157552e+179
-1.91375e+179
-1.7871245e+179
-1.9653823e+179
-1.9659512e+179
-1.9424459e+179
-1.9738276e+179
-1.9729383e+179
-1.9623254e+179
-1.9639839e+179
-1.9405833e+179
-1.9716711e+179
-1.9701533e+179
-1.9158815e+179
-1.9774736e+179
-1.9770951e+179
-1.9839443e+179
-1.9835736e+179
-1.9753168e+179
-1.9747225e+179
-1.9752621e+179
-1.9766026e+179
-1.9827881e+179
-1.9740151e+179
-1.9821995e+179
-1.9796568e+179
-1.9791474e+179
-1.9864784e+179
-1.9860372e+179
-1.9779691e+179
-1.9773251e+179
-1.9779111e+179
-1.9791222e+179
-1.985349e+179
-1.984653e+179
-1.9766317e+179
-1.975963e+179
-1.9743442e+179
-1.9729994e+179
-1.9741148e+179
-1.9729987e+179
-1.9726038e+179
-1.9720177e+179
-1.9733491e+179
-1.9736658e+179
-1.9701904e+179
-1.9719865e+179
-1.9717064e+179
-1.9700974e+179
-1.9710413e+179
-1.9708211e+179
-1.9690423e+179
-1.9693903e+179
-1.9644756e+179
-1.9687169e+179
-1.9683789e+179
-1.9637593e+179
-1.9634849e+179
-1.9678485e+179
-1.9671514e+179
-1.962738e+179
-1.9733139e+179
-1.9730004e+179
-1.9714194e+179
-1.9712712e+179
-1.9709612e+179
-1.972572e+179
-1.9724045e+179
-1.9707917e+179
-1.9653054e+179
-1.9697538e+179
-1.9696738e+179
-1.9649393e+179
-1.9688333e+179
-1.9697358e+179
-1.9652287e+179
-1.9642339e+179
-1.9743022e+179
-1.9742179e+179
-1.9753898e+179
-1.9756919e+179
-1.9750364e+179
-1.9739609e+179
-1.9733423e+179
-1.9747209e+179
-1.972889e+179
-1.9716347e+179
-1.9726503e+179
-1.9715753e+179
-1.9713251e+179
-1.9707286e+179
-1.9723281e+179
-1.9720114e+179
-1.9715045e+179
-1.970254e+179
-1.9702183e+179
-1.9712502e+179
-1.9684364e+179
-1.9704145e+179
-1.9701975e+179
-1.9684276e+179
-1.9695787e+179
-1.9697804e+179
-1.9678035e+179
-1.9681142e+179
-1.966501e+179
-1.9621753e+179
-1.9617522e+179
-1.9660024e+179
-1.9629083e+179
-1.9670233e+179
-1.9668555e+179
-1.9623583e+179
-1.9704547e+179
-1.9711528e+179
-1.948587e+179
-1.9786051e+179
-1.97806e+179
-1.9672537e+179
-1.9690355e+179
-1.9466691e+179
-1.9764229e+179
-1.9749421e+179
-1.9849652e+179
-1.9845984e+179
-1.991594e+179
-1.992041e+179
-1.9832832e+179
-1.9829145e+179
-1.9840891e+179
-1.9908607e+179
-1.9901846e+179
-1.9817874e+179
-1.9825632e+179
-1.9825304e+179
-1.9823613e+179
-1.9888528e+179
-1.9894154e+179
-1.9802055e+179
-1.9809509e+179
-1.9801298e+179
-1.9815316e+179
-1.988044e+179
-1.9872862e+179
-1.9787362e+179
-1.9794104e+179
-1.9797526e+179
-1.9792006e+179
-1.9807069e+179
-1.9809947e+179
-1.9788067e+179
-1.9788087e+179
-1.9800939e+179
-1.980327e+179
-1.9783525e+179
-1.9777737e+179
-1.979294e+179
-1.9796074e+179
-1.9782148e+179
-1.977857e+179
-1.9763395e+179
-1.9761792e+179
-1.977216e+179
-1.9769444e+179
-1.9755557e+179
-1.9751832e+179
-1.9691214e+179
-1.9741747e+179
-1.974188e+179
-1.9688435e+179
-1.9729354e+179
-1.9736148e+179
-1.9684357e+179
-1.9677198e+179
-1.9758213e+179
-1.9758177e+179
-1.9770601e+179
-1.9773143e+179
-1.9753513e+179
-1.9748167e+179
-1.9762466e+179
-1.9765359e+179
-1.9773e+179
-1.9772892e+179
-1.9785613e+179
-1.9788101e+179
-1.9769496e+179
-1.9763538e+179
-1.9778394e+179
-1.9781754e+179
-1.9765976e+179
-1.9762731e+179
-1.9746529e+179
-1.9745176e+179
-1.9758225e+179
-1.9755655e+179
-1.9741665e+179
-1.9739191e+179
-1.9676739e+179
-1.9726321e+179
-1.9725561e+179
-1.9672855e+179
-1.9717588e+179
-1.9722652e+179
-1.9672294e+179
-1.9667088e+179
-1.9751019e+179
-1.974747e+179
-1.973369e+179
-1.973187e+179
-1.9740359e+179
-1.973809e+179
-1.972484e+179
-1.9721105e+179
-1.9667238e+179
-1.971448e+179
-1.9713633e+179
-1.9664028e+179
-1.9699765e+179
-1.970674e+179
-1.9658386e+179
-1.9650837e+179
-1.5933048e+179
-1.5566636e+179
-1.9837848e+179
-1.9839051e+179
-1.9831352e+179
-1.9836323e+179
-1.9864291e+179
-1.9862477e+179
-1.9857332e+179
-1.9863296e+179
-1.9854044e+179
-1.9855531e+179
-1.9841046e+179
-1.9848366e+179
-1.9903261e+179
-1.9903165e+179
-1.9890226e+179
-1.9897381e+179
-1.9889605e+179
-1.9888321e+179
-1.9881254e+179
-1.9885987e+179
-1.9877658e+179
-1.987809e+179
-1.986349e+179
-1.9871056e+179
-1.9516142e+179
-1.9449877e+179
-1.9516123e+179
-1.9448914e+179
-1.9596509e+179
-1.9658811e+179
-1.9658612e+179
-1.9596277e+179
-1.9508383e+179
-1.944596e+179
-1.9513095e+179
-1.9443172e+179
-1.9592175e+179
-1.9655185e+179
-1.9587601e+179
-1.9649462e+179
-1.9787485e+179
-1.9742924e+179
-1.9786821e+179
-1.9741674e+179
-1.9835125e+179
-1.9836827e+179
-1.9837026e+179
-1.9837105e+179
-1.9733825e+179
-1.9777403e+179
-1.9738105e+179
-1.9784069e+179
-1.9832502e+179
-1.9832866e+179
-1.9827022e+179
-1.9823978e+179
-1.9428201e+179
-1.9493462e+179
-1.9493205e+179
-1.9427412e+179
-1.9419289e+179
-1.9422993e+179
-1.9489536e+179
-1.9484674e+179
-1.9573859e+179
-1.9636822e+179
-1.9636502e+179
-1.9572949e+179
-1.9564028e+179
-1.9568806e+179
-1.9632472e+179
-1.9625706e+179
-1.9439456e+179
-1.950458e+179
-1.9504949e+179
-1.9439069e+179
-1.9435615e+179
-1.9502224e+179
-1.9498367e+179
-1.9433404e+179
-1.9647702e+179
-1.9583986e+179
-1.9646376e+179
-1.958415e+179
-1.9640984e+179
-1.9581786e+179
-1.9645755e+179
-1.9578202e+179
-1.9765109e+179
-1.9720418e+179
-1.976379e+179
-1.9719402e+179
-1.9811009e+179
-1.9813624e+179
-1.981428e+179
-1.9813447e+179
-1.9709431e+179
-1.975317e+179
-1.9714914e+179
-1.9761046e+179
-1.9808776e+179
-1.9809611e+179
-1.9802623e+179
-1.9799413e+179
-1.9730535e+179
-1.9773713e+179
-1.9776075e+179
-1.9730785e+179
-1.9728668e+179
-1.9773865e+179
-1.9724952e+179
-1.9768243e+179
-1.9820427e+179
-1.9824482e+179
-1.9823079e+179
-1.9825193e+179
-1.9817576e+179
-1.9821772e+179
-1.9820749e+179
-1.9814577e+179
-1.9210432e+179
-1.9150568e+179
-1.9211847e+179
-1.9149058e+179
-1.9146496e+179
-1.9208169e+179
-1.9204824e+179
-1.9144485e+179
-1.929306e+179
-1.9356656e+179
-1.9292023e+179
-1.9356193e+179
-1.9353284e+179
-1.9349623e+179
-1.9288899e+179
-1.928555e+179
-1.8959737e+179
-1.892358e+179
-1.8961591e+179
-1.8922e+179
-1.8919421e+179
-1.8957808e+179
-1.8955985e+179
-1.8918198e+179
-1.9027642e+179
-1.906946e+179
-1.9025991e+179
-1.9067915e+179
-1.9065536e+179
-1.9063389e+179
-1.9023622e+179
-1.9022041e+179
-1.8899429e+179
-1.8896745e+179
-1.8933603e+179
-1.8936871e+179
-1.8904436e+179
-1.8941847e+179
-1.8939579e+179
-1.8902538e+179
-1.9005641e+179
-1.9007627e+179
-1.9048709e+179
-1.9046992e+179
-1.9043383e+179
-1.9001885e+179
-1.8998761e+179
-1.9039922e+179
-1.8914695e+179
-1.895237e+179
-1.8950284e+179
-1.8912865e+179
-1.8910012e+179
-1.8947764e+179
-1.8945515e+179
-1.8908323e+179
-1.9018063e+179
-1.9059169e+179
-1.9057784e+179
-1.901653e+179
-1.9013504e+179
-1.9055026e+179
-1.9052716e+179
-1.9011713e+179
-1.9140449e+179
-1.9201225e+179
-1.9200234e+179
-1.9138766e+179
-1.9136071e+179
-1.9197787e+179
-1.9195043e+179
-1.913397e+179
-1.9281986e+179
-1.934608e+179
-1.9346172e+179
-1.9281442e+179
-1.9278523e+179
-1.9343025e+179
-1.9339999e+179
-1.9276163e+179
-1.9129668e+179
-1.9190745e+179
-1.918912e+179
-1.9127795e+179
-1.9121072e+179
-1.9123955e+179
-1.9185687e+179
-1.9182133e+179
-1.9271531e+179
-1.9335193e+179
-1.9334633e+179
-1.9270172e+179
-1.9262135e+179
-1.9265792e+179
-1.933042e+179
-1.9325757e+179
-1.8331851e+179
-1.8329775e+179
-1.8330189e+179
-1.8328413e+179
-1.8327014e+179
-1.8322947e+179
-1.8328858e+179
-1.8323768e+179
-1.8096627e+179
-1.8099639e+179
-1.8145483e+179
-1.8141304e+179
-1.8225848e+179
-1.822851e+179
-1.8340133e+179
-1.8338554e+179
-1.8338675e+179
-1.8336486e+179
-1.8334492e+179
-1.8332262e+179
-1.8337871e+179
-1.8335067e+179
-1.8106955e+179
-1.8152458e+179
-1.8147101e+179
-1.8102987e+179
-1.823394e+179
-1.8237447e+179
-1.8396693e+179
-1.839507e+179
-1.8405653e+179
-1.8407939e+179
-1.8463754e+179
-1.848204e+179
-1.8479554e+179
-1.8461956e+179
-1.8402459e+179
-1.8392621e+179
-1.8403931e+179
-1.839106e+179
-1.8459813e+179
-1.8477563e+179
-1.8458419e+179
-1.8476241e+179
-1.8388436e+179
-1.8387102e+179
-1.8399459e+179
-1.8397672e+179
-1.8453595e+179