/*--------------------------------*- C++ -*----------------------------------*\
  =========                 |
  \\      /  F ield         | OpenFOAM: The Open Source CFD Toolbox
   \\    /   O peration     | Website:  https://openfoam.org
    \\  /    A nd           | Version:  7
     \\/     M anipulation  |
\*---------------------------------------------------------------------------*/
FoamFile
{
    version     2.0;
    format      ascii;
    class       volVectorField;
    location    "2000";
    object      U;
}
// * * * * * * * * * * * * * * * * * * * * * * * * * * * * * * * * * * * * * //

dimensions      [0 1 -1 0 0 0 0];

internalField   nonuniform List<vector> 
34251
(
(-5.1489722e+90 5.7247221e+89 2.1812708e+89)
(-4.1086553e+90 4.7230404e+89 3.3140957e+89)
(-4.5226105e+90 4.2664293e+89 4.4193246e+89)
(-4.5297418e+90 7.6370071e+89 8.4779864e+89)
(-4.9598126e+90 3.3581734e+88 4.7472619e+89)
(-4.6194241e+90 7.5053514e+89 8.5772003e+89)
(-5.0633645e+90 4.2561858e+89 -5.6173925e+89)
(-4.9266992e+90 6.8458889e+89 1.4774037e+88)
(-5.1340138e+90 5.3836446e+89 8.6590743e+88)
(-4.5571308e+90 4.7510467e+89 -2.1791478e+89)
(-3.393843e+90 4.7405398e+89 2.8225856e+89)
(-4.977187e+90 6.8814231e+88 -2.8810649e+89)
(-4.0432092e+90 -1.3701687e+89 4.5237111e+89)
(-3.7471526e+90 2.7274414e+89 4.3912062e+89)
(-3.9946307e+90 5.9126147e+88 4.6250056e+89)
(-4.4599568e+90 5.4562243e+89 7.8166589e+89)
(-4.4114451e+90 4.8546972e+89 8.069801e+89)
(-4.0871105e+90 4.5035257e+88 5.1859101e+89)
(-3.7962795e+90 3.1249134e+89 4.3768095e+89)
(-4.6353774e+90 5.1428998e+89 8.9154108e+89)
(-4.554261e+90 4.9663816e+89 8.2151646e+89)
(-5.2051059e+90 7.4155091e+89 5.5409627e+89)
(-5.1639461e+90 4.2217081e+89 -6.0061486e+89)
(-5.0223767e+90 5.8572402e+89 -6.0514947e+89)
(-5.3306716e+90 3.8185485e+89 5.7876552e+89)
(-4.5609753e+90 2.740622e+89 -4.4695385e+89)
(-4.818282e+90 2.1765613e+89 1.430364e+89)
(-4.5629465e+90 3.1777272e+89 -4.9826642e+89)
(-4.7345686e+90 4.5684155e+89 1.5701024e+89)
(-4.8600075e+90 7.0077277e+89 5.0538008e+89)
(-5.0161156e+90 3.5047994e+89 5.645426e+89)
(-4.5334896e+90 4.6431309e+89 -2.5237233e+88)
(-4.4042134e+90 6.6315106e+89 -1.6396834e+88)
(-4.5258814e+90 4.7842759e+89 2.6718791e+89)
(-4.5997087e+90 4.5228394e+89 2.7257375e+89)
(-4.7050946e+90 4.4601996e+89 3.6687705e+89)
(-4.6156809e+90 4.4440489e+89 2.9874763e+89)
(-4.7401514e+90 3.1968127e+89 2.6759008e+89)
(-4.4033263e+90 7.6456168e+89 2.3111143e+89)
(-3.9204125e+90 2.4923806e+89 -1.1199267e+89)
(-4.2303632e+90 4.9011063e+89 -5.1114973e+89)
(-4.1910285e+90 4.7244886e+89 -5.0782668e+89)
(-3.7225616e+90 4.6655269e+89 -1.1727576e+89)
(-3.4642482e+90 3.1406302e+89 -4.1392039e+89)
(-3.687612e+90 7.5329e+88 -4.6483346e+89)
(-2.915915e+90 -1.1091018e+89 4.7201667e+89)
(-2.497544e+90 3.6852993e+89 3.3639667e+89)
(-4.2346333e+90 5.0892822e+89 -4.8369829e+89)
(-4.2692709e+90 4.8818019e+89 -5.0481556e+89)
(-3.9558528e+90 2.5209135e+89 -1.0703506e+89)
(-3.7771921e+90 4.9879454e+89 -8.8497247e+88)
(-3.7099236e+90 7.9086512e+88 -4.5582784e+89)
(-3.5139784e+90 3.7208799e+89 -4.0237179e+89)
(-2.9598731e+90 -9.3162236e+88 4.9527294e+89)
(-2.583418e+90 4.4479792e+89 3.7691707e+89)
(-3.8506898e+90 3.5757704e+89 6.6992313e+89)
(-3.2925184e+90 5.3044834e+88 4.429274e+89)
(-3.9588313e+90 3.8650426e+89 6.8274381e+89)
(-3.3208172e+90 3.5040586e+88 4.6171952e+89)
(-3.9590554e+90 3.8112909e+89 7.1626483e+89)
(-3.1427179e+90 2.2482647e+89 3.9146563e+89)
(-3.9038082e+90 3.7781164e+89 6.7477875e+89)
(-4.065374e+90 3.5423842e+89 7.9158501e+89)
(-3.1865826e+90 2.2201215e+89 4.1862983e+89)
(-3.9963233e+90 3.5038853e+89 7.2859336e+89)
(-3.3161291e+90 6.4476372e+88 4.4744816e+89)
(-3.1713426e+90 2.1888918e+89 4.1253298e+89)
(-4.0038914e+90 3.7282649e+89 6.9523416e+89)
(-3.9470964e+90 3.508678e+89 6.8802595e+89)
(-4.8646781e+90 5.5964504e+89 5.0847426e+89)
(-4.9315428e+90 2.9761141e+89 4.9947634e+89)
(-4.8297002e+90 3.1892257e+89 -2.5669834e+89)
(-4.7708846e+90 3.9726904e+89 -3.1328747e+89)
(-4.6778997e+90 3.0183858e+89 -5.0727295e+89)
(-4.662684e+90 2.5821705e+89 -4.5766091e+89)
(-4.9046124e+90 2.1167396e+89 1.153349e+89)
(-4.8380107e+90 4.4127125e+89 1.3539635e+89)
(-4.9921955e+90 6.8732134e+89 4.3770436e+89)
(-4.7914208e+90 4.2921193e+89 8.3180919e+88)
(-4.6314877e+90 2.5615965e+89 -4.9887541e+89)
(-4.6048751e+90 3.3478944e+89 -5.248296e+89)
(-4.8349194e+90 2.3482902e+89 8.9080065e+88)
(-5.104389e+90 3.5549234e+89 4.8030342e+89)
(-4.7696896e+90 5.8020764e+89 4.1815467e+89)
(-4.8165608e+90 3.4064721e+89 4.5222683e+89)
(-4.7041428e+90 4.1104252e+89 -3.2607507e+89)
(-4.8100632e+90 2.994035e+89 -2.7533902e+89)
(-4.6030575e+90 4.6035521e+89 -5.746671e+88)
(-4.4539341e+90 6.6361894e+89 -3.3878298e+88)
(-4.0132084e+90 1.9223876e+89 -3.1406186e+89)
(-4.0379796e+90 1.8048269e+89 -2.7457438e+89)
(-4.1160522e+90 2.8316478e+89 1.463491e+88)
(-4.5482311e+90 4.3365064e+89 -4.5406859e+88)
(-4.1335396e+90 1.4826194e+89 -5.8628257e+87)
(-3.9601243e+90 2.6314152e+89 -3.2276511e+89)
(-3.9928741e+90 1.7971926e+89 -3.1245961e+89)
(-4.0250165e+90 3.1273308e+89 -1.6412734e+88)
(-4.0119824e+90 2.0848086e+89 -3.4027491e+89)
(-4.0438492e+90 1.4876843e+89 -3.3004392e+89)
(-4.1386605e+90 1.5565846e+89 -3.4015104e+88)
(-4.1208405e+90 2.4538145e+89 -4.1933548e+88)
(-4.7033483e+90 1.9877283e+89 -1.4272798e+88)
(-3.9640449e+90 2.4326981e+89 -2.9221648e+89)
(-4.0047395e+90 2.1574412e+89 -2.5367553e+89)
(-3.9907762e+90 3.4036712e+89 1.470429e+88)
(-4.0116983e+90 2.0482041e+89 1.1897681e+87)
(-4.4020388e+90 3.0769639e+89 -5.3862194e+89)
(-4.4216571e+90 3.4571237e+89 -5.4716672e+89)
(-4.2577938e+90 3.1076891e+89 -5.6260134e+89)
(-4.4704456e+90 4.4035956e+89 -7.9324018e+88)
(-3.9917242e+90 1.7140742e+89 -3.5063582e+89)
(-4.0567692e+90 2.6975825e+89 -2.5230441e+88)
(-3.9609473e+90 2.7691457e+89 -1.7909099e+89)
(-4.9896572e+90 6.6833493e+89 9.6138067e+89)
(-3.9127473e+90 5.0764431e+89 1.5581588e+88)
(-4.5843098e+90 5.4751444e+89 2.4609155e+89)
(-4.6702839e+90 2.7144216e+89 2.5984106e+89)
(-3.8639237e+90 5.6511608e+89 -1.2880124e+88)
(-5.1261918e+90 4.6189225e+89 1.0057719e+90)
(-3.7342503e+90 5.5279764e+89 3.8515496e+88)
(-4.3635152e+90 5.3894084e+89 2.3183539e+89)
(-3.4349774e+90 8.771546e+89 -8.1772189e+89)
(-3.5224985e+90 6.2969606e+89 -7.5554155e+89)
(-3.9752378e+90 3.5193975e+89 3.6343046e+89)
(-3.9625242e+90 3.5838024e+89 3.8214168e+89)
(-3.9053193e+90 3.4667109e+89 3.3331106e+89)
(-3.9908919e+90 3.2323179e+89 3.7942525e+89)
(-4.0021842e+90 3.4182547e+89 3.61486e+89)
(-3.9403488e+90 3.4108094e+89 3.484126e+89)
(-5.1790406e+90 5.0212465e+89 -1.8267671e+89)
(-5.1417993e+90 4.6412583e+89 -2.0323846e+89)
(-4.4419096e+90 3.0503951e+89 -4.7474882e+89)
(-4.3929642e+90 4.0408354e+89 1.0063154e+89)
(-4.3349539e+90 4.6155952e+89 1.3167763e+89)
(-4.4061539e+90 2.7407991e+89 -4.6454244e+89)
(-3.1969024e+90 3.6862357e+89 -5.8486807e+89)
(-3.2279309e+90 3.6755827e+89 -5.7065043e+89)
(-2.8114386e+90 1.4906235e+89 -3.1557888e+89)
(-2.7224309e+90 3.0522567e+89 -3.1981313e+89)
(-3.2295777e+90 3.8032356e+89 -5.8487139e+89)
(-3.2575013e+90 3.7460963e+89 -5.8127265e+89)
(-2.8276921e+90 1.5748281e+89 -3.3343532e+89)
(-2.7303858e+90 3.2476594e+89 -3.1890689e+89)
(-2.0992395e+90 2.9282812e+89 -3.0530854e+89)
(-1.783968e+90 3.659567e+89 4.3131374e+89)
(-2.0642483e+90 -6.9983547e+88 5.5097666e+89)
(-2.2428313e+90 9.3506264e+88 -3.3391686e+89)
(-2.2412841e+90 8.3087972e+88 -3.2893834e+89)
(-2.0952156e+90 2.4749382e+89 -3.0812719e+89)
(-2.0397236e+90 -7.1864051e+88 5.5900455e+89)
(-4.4371706e+90 4.8578047e+89 1.5045472e+89)
(-4.4265959e+90 4.2141128e+89 1.095951e+89)
(-4.4721982e+90 3.2389389e+89 -4.623169e+89)
(-4.4417652e+90 3.041886e+89 -4.3309494e+89)
(-3.2877089e+90 3.6806412e+89 -5.7542873e+89)
(-3.3235976e+90 3.531844e+89 -5.8860019e+89)
(-2.8590339e+90 1.455106e+89 -3.3679038e+89)
(-2.7800078e+90 3.1257988e+89 -3.2232431e+89)
(-2.8274365e+90 1.557446e+89 -3.0656912e+89)
(-3.2675276e+90 3.6459007e+89 -5.5209217e+89)
(-3.2332014e+90 3.8330443e+89 -5.5400158e+89)
(-2.7475514e+90 3.2913828e+89 -3.1185453e+89)
(-2.2619527e+90 9.4212866e+88 -3.3061118e+89)
(-2.1378821e+90 2.9672949e+89 -3.0173607e+89)
(-1.8663177e+90 3.7873383e+89 4.7294037e+89)
(-2.1222066e+90 2.9667595e+89 -3.0369324e+89)
(-2.2494869e+90 1.0866761e+89 -3.1637513e+89)
(-2.0702247e+90 -2.7534734e+88 5.773251e+89)
(-1.8496497e+90 3.6783307e+89 4.5714464e+89)
(-2.8955549e+90 2.2609279e+88 5.3093277e+89)
(-2.7623489e+90 1.7490785e+89 4.7053641e+89)
(-3.3995734e+90 2.6619943e+89 6.3259197e+89)
(-3.4343517e+90 2.6234368e+89 6.5968338e+89)
(-2.9040312e+90 1.1825718e+88 5.4559826e+89)
(-2.7936826e+90 1.6657613e+89 4.8359473e+89)
(-3.4130869e+90 2.5589596e+89 6.7252135e+89)
(-3.3845432e+90 2.6603284e+89 6.4135572e+89)
(-3.4035138e+90 2.6931953e+89 6.1659613e+89)
(-2.8795072e+90 4.2594668e+88 5.0440772e+89)
(-2.7501962e+90 1.7360518e+89 4.5571744e+89)
(-3.3596945e+90 2.6717982e+89 6.0601871e+89)
(-2.8964721e+90 3.9679679e+88 5.3028461e+89)
(-2.7928768e+90 1.6805027e+89 4.9160534e+89)
(-3.4350945e+90 2.4063831e+89 6.4833597e+89)
(-3.4032085e+90 2.424851e+89 6.4307023e+89)
(-2.9264053e+90 2.2780097e+88 5.4472753e+89)
(-2.79003e+90 1.7812734e+89 4.8210394e+89)
(-3.4496824e+90 2.4455421e+89 6.6329617e+89)
(-3.4122476e+90 2.5966911e+89 6.3128509e+89)
(-2.891901e+90 4.9186093e+88 5.2210614e+89)
(-2.7875732e+90 1.6511465e+89 4.8425232e+89)
(-3.4160962e+90 2.6045651e+89 6.2663557e+89)
(-3.3731952e+90 2.523502e+89 6.2330747e+89)
(-5.4585731e+90 4.4080662e+89 -6.507423e+89)
(-4.094621e+90 3.0411639e+89 -4.957211e+87)
(-4.2751302e+90 2.3121684e+89 5.4198797e+89)
(-4.0688018e+90 3.2905954e+89 -5.0158077e+88)
(-4.1118062e+90 2.6858259e+89 -4.0577917e+88)
(-4.2142625e+90 2.5219298e+89 5.0626681e+89)
(-4.1993487e+90 4.315303e+89 4.8572016e+89)
(-4.1512689e+90 2.1933151e+89 2.0094719e+89)
(-3.9737047e+90 2.7586171e+89 -2.268287e+89)
(-3.9663544e+90 3.0952905e+89 -2.5296087e+89)
(-4.0097249e+90 2.4118421e+89 -2.3754294e+89)
(-4.1332774e+90 3.5224975e+89 1.621855e+89)
(-4.1472744e+90 2.3484147e+89 1.668251e+89)
(-4.0683888e+90 2.0357926e+89 -3.5006445e+89)
(-4.0984024e+90 1.3958887e+89 -3.3103531e+89)
(-4.174827e+90 2.3525926e+89 -4.7942464e+88)
(-4.1837525e+90 1.5344302e+89 -4.6115647e+88)
(-4.8228843e+90 1.8225087e+89 -4.7010051e+88)
(-4.1036988e+90 1.6203703e+89 -2.7945776e+89)
(-4.0588071e+90 1.7776028e+89 -3.2104503e+89)
(-4.1735401e+90 1.4026669e+89 -1.8319631e+88)
(-4.6777993e+90 4.1263579e+89 -7.8866596e+88)
(-4.0130146e+90 2.549581e+89 -3.251885e+89)
(-4.0449478e+90 1.7308945e+89 -3.1185886e+89)
(-4.0561865e+90 3.0961563e+89 -4.2280269e+88)
(-4.0591299e+90 2.2627721e+89 -3.701184e+88)
(-4.0078195e+90 2.343566e+89 -3.0366748e+89)
(-4.0606384e+90 1.926935e+89 -9.7438708e+87)
(-4.5541347e+90 3.3292712e+89 -5.9519962e+89)
(-4.5310882e+90 2.9329173e+89 -5.7849465e+89)
(-4.0462605e+90 3.1620086e+89 8.4550944e+86)
(-4.0212397e+90 2.3946735e+89 -2.9995355e+89)
(-4.0250641e+90 1.9825516e+89 -2.9045888e+89)
(-4.0885116e+90 1.9051305e+89 -1.6426327e+87)
(-4.0672777e+90 1.6229289e+89 -3.0665175e+89)
(-4.1808998e+90 1.4663407e+89 -2.8242511e+88)
(-4.1558423e+90 2.5878561e+89 -1.6745718e+88)
(-4.0581307e+90 1.9013066e+89 -3.373354e+89)
(-4.6255642e+90 4.2052386e+89 -1.0233474e+89)
(-4.048285e+90 2.1512601e+89 -3.4395922e+89)
(-4.0656926e+90 1.5504259e+89 -3.3766685e+89)
(-4.1334836e+90 2.5345232e+89 -5.4063674e+88)
(-4.747327e+90 2.1772918e+89 -5.9891998e+88)
(-4.1403868e+90 1.6926729e+89 -4.290507e+88)
(-3.9780771e+90 2.6834203e+89 -3.1840868e+89)
(-4.015578e+90 2.3733426e+89 -3.6059018e+88)
(-4.0047012e+90 1.8646368e+89 -3.1738707e+89)
(-3.9978564e+90 3.2007239e+89 -5.6123592e+88)
(-4.4625388e+90 2.8671519e+89 -5.8888447e+89)
(-4.4845918e+90 3.5828853e+89 -5.7933041e+89)
(-4.0500516e+90 3.2216987e+89 -4.1639724e+88)
(-4.1129329e+90 2.7961551e+89 -5.81029e+87)
(-4.1850393e+90 2.4707693e+89 5.0139718e+89)
(-4.1609553e+90 4.4106789e+89 5.0468524e+89)
(-4.1419791e+90 4.5593811e+89 4.7410383e+89)
(-4.0286511e+90 3.619576e+89 -4.8450218e+88)
(-4.0749795e+90 2.8228087e+89 -4.5646107e+88)
(-4.1500822e+90 2.9467477e+89 4.9627987e+89)
(-4.0751755e+90 3.7189675e+89 1.4405323e+89)
(-3.9676559e+90 2.4683199e+89 -2.464719e+89)
(-3.9274955e+90 3.1904869e+89 -2.4506218e+89)
(-4.0947164e+90 2.6081997e+89 1.6377279e+89)
(-4.1156953e+90 3.7822824e+89 1.9361618e+89)
(-3.9675594e+90 2.7678533e+89 -2.3101568e+89)
(-4.0030542e+90 2.5156433e+89 -1.905172e+89)
(-4.1328459e+90 2.2424566e+89 1.7793115e+89)
(-5.0325006e+90 6.5467149e+89 9.4954154e+89)
(-4.0445142e+90 4.7585616e+89 -5.0501023e+88)
(-4.7279661e+90 5.1833281e+89 1.8731247e+89)
(-4.8047961e+90 2.5502841e+89 1.8721238e+89)
(-4.015947e+90 5.323353e+89 -7.8764544e+88)
(-5.1433811e+90 4.6487746e+89 9.9357061e+89)
(-3.9559744e+90 4.9565547e+89 -4.753467e+88)
(-4.6440053e+90 5.059538e+89 1.6461126e+89)
(-4.7095516e+90 2.7658397e+89 2.09151e+89)
(-3.8795134e+90 5.5696569e+89 -4.3088859e+88)
(-3.5126722e+90 8.6726138e+89 -7.8321447e+89)
(-3.6039938e+90 6.1821334e+89 -7.2340382e+89)
(-3.5154009e+90 1.7486059e+89 -2.4065356e+88)
(-3.4883659e+90 1.4115539e+89 -4.0442606e+88)
(-4.1265504e+90 1.1950845e+89 -8.5781798e+88)
(-3.4470209e+90 1.8420074e+89 -2.8510323e+89)
(-3.4895642e+90 1.3473272e+89 -2.4499129e+89)
(-3.5204488e+90 2.0969039e+89 1.4673499e+88)
(-3.50613e+90 1.3847053e+89 -2.2648681e+87)
(-4.1107029e+90 2.3839149e+89 -7.3792067e+88)
(-3.4687327e+90 1.7372883e+89 -2.45232e+89)
(-3.5087799e+90 1.6884037e+89 -2.176486e+89)
(-3.3733572e+90 1.6953234e+89 -1.1911559e+89)
(-3.3902185e+90 2.2658661e+89 -1.7217699e+88)
(-3.3369678e+90 1.8385512e+89 -1.4752587e+89)
(-3.3835443e+90 1.5615538e+89 -3.0925571e+88)
(-4.0414691e+90 1.7009582e+89 -4.2100524e+89)
(-4.0705464e+90 1.2809857e+89 -3.5706552e+89)
(-3.3556081e+90 1.3573942e+89 -1.6366618e+89)
(-3.3729782e+90 2.034256e+89 -5.7051765e+88)
(-3.3172077e+90 1.8542597e+89 -1.8161019e+89)
(-3.3596675e+90 1.6262488e+89 -6.4191756e+88)
(-3.2961706e+90 1.642709e+89 -2.0105533e+89)
(-3.2603526e+90 2.1306795e+89 -2.150251e+89)
(-3.3513933e+90 2.1385054e+89 -4.1470671e+88)
(-3.3404996e+90 1.7548894e+89 -4.4488503e+88)
(-3.2883576e+90 1.591838e+89 -1.8731502e+89)
(-3.3543465e+90 2.1248262e+89 -2.1939813e+88)
(-3.2717454e+90 1.932613e+89 -2.0599707e+89)
(-3.3563571e+90 1.5600966e+89 -3.213689e+88)
(-3.2736449e+90 1.6565665e+89 -1.9345599e+89)
(-3.3156882e+90 2.383555e+89 -2.5568784e+88)
(-3.2518993e+90 2.0656732e+89 -2.1042698e+89)
(-3.3198896e+90 1.7593462e+89 -3.2453615e+88)
(-3.5211846e+90 1.7660246e+89 -3.2700451e+88)
(-3.5002008e+90 1.4520022e+89 -4.373082e+88)
(-4.1497854e+90 1.363192e+89 -1.1572747e+89)
(-3.4593362e+90 1.914599e+89 -2.8885556e+89)
(-3.4982246e+90 1.3695745e+89 -2.5190666e+89)
(-3.5176028e+90 1.7967073e+89 -1.8486198e+88)
(-3.50399e+90 1.3056843e+89 -3.3987178e+88)
(-4.1443495e+90 2.1721517e+89 -1.1809343e+89)
(-3.4613755e+90 1.7225437e+89 -2.7973214e+89)
(-3.4995607e+90 1.3836052e+89 -2.4273048e+89)
(-3.3633914e+90 1.3997996e+89 -1.7040594e+89)
(-3.3765333e+90 2.1128235e+89 -6.8133735e+88)
(-3.3273286e+90 1.9340458e+89 -1.853264e+89)
(-3.3674104e+90 1.7427231e+89 -7.0747131e+88)
(-3.3571242e+90 1.4141961e+89 -1.5947423e+89)
(-3.3744789e+90 1.9911489e+89 -5.2350425e+88)
(-3.3295407e+90 1.8280841e+89 -1.7860144e+89)
(-3.3779816e+90 1.5253457e+89 -6.0284594e+88)
(-4.0965528e+90 9.7128988e+88 -4.0226567e+89)
(-4.0483919e+90 1.8422457e+89 -4.3426314e+89)
(-3.2926724e+90 1.5723844e+89 -1.9157753e+89)
(-3.3448578e+90 2.1097695e+89 -3.6634356e+88)
(-3.2561837e+90 1.9803421e+89 -2.077744e+89)
(-3.332641e+90 1.6452417e+89 -4.2928377e+88)
(-3.3108546e+90 1.8795799e+89 -1.5179378e+89)
(-3.3608398e+90 2.4533292e+89 4.6044168e+87)
(-3.2845228e+90 1.9274858e+89 -1.7671939e+89)
(-3.3580185e+90 1.6431437e+89 -9.4764766e+87)
(-3.2894911e+90 1.96308e+89 -1.6118549e+89)
(-3.3159697e+90 2.6957735e+89 3.6737086e+87)
(-3.2618514e+90 2.1094476e+89 -1.8554907e+89)
(-3.3186808e+90 1.8131691e+89 -7.2474486e+87)
(-3.2698236e+90 1.6280245e+89 -2.004984e+89)
(-3.3052092e+90 2.4263605e+89 -3.5366888e+88)
(-3.2352268e+90 2.1410911e+89 -2.1771094e+89)
(-3.2946117e+90 1.8814092e+89 -4.0737111e+88)
(-4.0614921e+90 1.4677007e+89 -4.8871852e+89)
(-4.0718823e+90 1.1569544e+89 -4.2148981e+89)
(-4.2161227e+90 2.0793062e+89 -3.4586304e+88)
(-4.2178779e+90 8.4968996e+88 -1.2269778e+89)
(-4.0607244e+90 1.4937175e+89 -4.9088539e+89)
(-4.1199305e+90 8.1784039e+88 -3.8842544e+89)
(-4.2907188e+90 1.6993394e+89 -7.6029831e+88)
(-4.2437825e+90 7.9096805e+88 -1.1147063e+89)
(-4.0413222e+90 1.7046178e+89 -5.0012645e+89)
(-4.05209e+90 1.1124692e+89 -4.6540212e+89)
(-4.1844586e+90 1.9768981e+89 -1.2025231e+89)
(-4.2242982e+90 9.9234187e+88 -1.2767529e+89)
(-4.0730105e+90 2.3844964e+89 -1.5140201e+89)
(-4.0552977e+90 1.278558e+89 -4.0215346e+89)
(-4.1170028e+90 1.4420199e+89 -1.5686696e+89)
(-4.0464371e+90 1.8608265e+89 -4.3708669e+89)
(-4.0866366e+90 1.2537153e+89 -4.5126585e+89)
(-3.5108799e+90 1.8052694e+89 -4.6242925e+88)
(-3.4961471e+90 1.4095055e+89 -2.7503759e+89)
(-3.4989365e+90 1.8983856e+89 -1.791182e+88)
(-3.4952912e+90 1.3172905e+89 -3.0654482e+88)
(-3.4621568e+90 1.7426997e+89 -2.9007e+89)
(-3.4881659e+90 1.5140177e+89 -2.4578353e+89)
(-3.340884e+90 1.5344603e+89 -1.6198696e+89)
(-3.3554595e+90 2.1160334e+89 -4.9261288e+88)
(-3.3270937e+90 1.8203745e+89 -1.781596e+89)
(-3.2689451e+90 1.880026e+89 -1.819989e+89)
(-3.2802784e+90 2.2316956e+89 -1.4226264e+89)
(-3.3510283e+90 2.9049147e+89 5.2371015e+88)
(-3.2563669e+90 2.2154161e+89 -1.6647398e+89)
(-4.4165117e+90 5.7107717e+89 7.682547e+89)
(-4.3237125e+90 6.8726612e+89 7.5988889e+89)
(-2.7938599e+90 8.453181e+89 -4.4671378e+89)
(-2.820962e+90 6.8009908e+89 -4.5709191e+89)
(-3.7292129e+90 4.2815163e+89 -1.5510161e+89)
(-3.7484288e+90 4.2729101e+89 -1.1494276e+89)
(-4.3939889e+90 1.9541186e+89 8.347647e+88)
(-4.3531051e+90 3.9198689e+89 9.958206e+88)
(-4.2375882e+90 2.2074089e+89 -1.5831455e+89)
(-4.0724075e+90 1.8869869e+89 -4.253213e+89)
(-4.0634753e+90 1.9617216e+89 -4.6672475e+89)
(-4.2708655e+90 8.9631448e+88 -1.7744111e+89)
(-4.2955725e+90 1.9901437e+89 -1.4063057e+89)
(-4.0749922e+90 1.5289868e+89 -4.5117365e+89)
(-4.0445846e+90 1.9805608e+89 -4.663426e+89)
(-4.2922256e+90 8.7974556e+88 -1.4927628e+89)
(-3.6990622e+90 4.521531e+89 -1.3096932e+89)
(-3.7564636e+90 4.1278253e+89 -1.3261373e+89)
(-4.3632168e+90 1.8081588e+89 9.2386334e+88)
(-4.347326e+90 3.5063186e+89 7.0541932e+88)
(-2.6657744e+90 1.0787154e+90 -5.0037667e+89)
(-4.2380225e+90 7.5535748e+89 7.255534e+89)
(-2.7689751e+90 8.5192719e+89 -4.3882904e+89)
(-3.612364e+90 4.461213e+89 -1.2979492e+89)
(-3.6070958e+90 4.2959617e+89 -1.020234e+89)
(-4.2272126e+90 1.9314404e+89 7.8633713e+88)
(-4.173403e+90 3.6145383e+89 7.2200758e+88)
(-3.9986058e+90 1.7319314e+89 -4.5540683e+89)
(-3.9804234e+90 2.2503135e+89 -4.8480615e+89)
(-4.1937434e+90 2.1010302e+89 -1.8338442e+89)
(-4.2297343e+90 1.1487602e+89 -1.8446883e+89)
(-4.0145461e+90 2.1196914e+89 -4.3672232e+89)
(-4.248786e+90 2.4337058e+89 -1.4173479e+89)
(-3.8788506e+90 9.5802956e+89 -9.409933e+88)
(-4.0497912e+90 5.1305017e+89 -9.2564169e+88)
(-3.3813892e+90 2.6134334e+89 3.7952887e+89)
(-3.3396333e+90 2.4294002e+89 3.4971446e+89)
(-3.3730199e+90 2.5901985e+89 3.9883445e+89)
(-3.342842e+90 2.4089057e+89 3.586987e+89)
(-3.3744324e+90 2.5818255e+89 3.511343e+89)
(-3.3237636e+90 2.5389639e+89 3.3589874e+89)
(-3.4033672e+90 2.3123997e+89 3.7754846e+89)
(-3.3617618e+90 2.2889177e+89 3.6250511e+89)
(-3.4073927e+90 2.4363932e+89 3.8770111e+89)
(-3.3721518e+90 2.3643899e+89 3.4850594e+89)
(-3.3948307e+90 2.4904368e+89 3.6448462e+89)
(-3.3448288e+90 2.4375746e+89 3.5401122e+89)
(-5.3226623e+90 4.9815057e+89 -1.4443292e+89)
(-5.2622286e+90 4.7182133e+89 -1.4459066e+89)
(-4.6578012e+90 2.7745788e+89 -3.9107118e+89)
(-3.4167881e+90 3.5091178e+89 -2.6150476e+89)
(-3.4844357e+90 3.1650582e+89 -2.7663567e+89)
(-4.4491857e+90 5.5684864e+89 -3.092155e+89)
(-4.5200436e+90 3.2643402e+89 -3.0993552e+89)
(-4.6311912e+90 2.5267165e+89 -3.7833872e+89)
(-3.4255652e+90 3.0936388e+89 -2.6025848e+89)
(-3.3894582e+90 3.4991341e+89 -2.6167813e+89)
(-3.3851089e+90 1.5760187e+89 -6.6504149e+89)
(-3.3891012e+90 1.4769608e+89 -6.5614604e+89)
(-3.3958513e+90 1.7019199e+89 -6.7598212e+89)
(-3.3966425e+90 1.591098e+89 -6.4888335e+89)
(-1.8235187e+90 2.7121272e+89 -5.0552208e+89)
(-1.769145e+90 2.7043689e+89 -5.21452e+89)
(-1.7255982e+90 1.0810711e+89 -2.8668149e+89)
(-1.6100811e+90 2.5957288e+89 -3.1365678e+89)
(-1.3906409e+90 9.082634e+88 1.7289187e+89)
(-1.2025225e+90 2.3392736e+89 9.7356066e+88)
(-1.8603268e+90 -2.0932121e+88 6.6361118e+89)
(-1.664657e+90 2.6708923e+89 5.4983284e+89)
(-1.3801236e+90 8.4533133e+88 1.4380174e+89)
(-1.23432e+90 2.335122e+89 1.2737668e+89)
(-1.8663654e+90 -5.3026801e+88 6.5145224e+89)
(-1.7119798e+90 2.6378438e+89 5.6875973e+89)
(-1.7156327e+90 1.159974e+89 -3.0674626e+89)
(-1.796537e+90 2.6688288e+89 -5.3300254e+89)
(-1.8391263e+90 2.7008579e+89 -5.2722742e+89)
(-1.625545e+90 2.5618433e+89 -3.1118919e+89)
(-1.8033577e+90 2.7166218e+89 -5.1473457e+89)
(-1.7670728e+90 2.7010079e+89 -5.2858275e+89)
(-1.7011055e+90 1.0447274e+89 -2.9412617e+89)
(-1.60914e+90 2.5182998e+89 -3.0953781e+89)
(-1.8176155e+90 2.6799626e+89 -5.101202e+89)
(-1.762729e+90 2.5583484e+89 -5.3255105e+89)
(-1.7228624e+90 1.0202684e+89 -2.9357369e+89)
(-1.3537656e+90 7.4726005e+88 1.6241296e+89)
(-1.2061855e+90 2.290633e+89 1.099705e+89)
(-1.6746584e+90 2.6897148e+89 5.5990397e+89)
(-1.8431591e+90 -4.5652987e+88 6.4886495e+89)
(-4.6489888e+90 3.3538367e+89 -3.2804668e+89)
(-4.4949034e+90 5.664588e+89 -3.0919574e+89)
(-4.6860525e+90 2.8948418e+89 -3.8696315e+89)
(-3.5060824e+90 3.0520361e+89 -2.799115e+89)
(-3.4854387e+90 3.4289848e+89 -2.5526238e+89)
(-4.6683182e+90 2.7545906e+89 -3.5615806e+89)
(-3.437042e+90 3.5808502e+89 -2.4066215e+89)
(-3.462721e+90 3.0694385e+89 -2.4674505e+89)
(-3.4138237e+90 1.6012269e+89 -6.7739311e+89)
(-3.4060583e+90 1.579448e+89 -6.5360165e+89)
(-3.392028e+90 1.6960979e+89 -6.5542595e+89)
(-3.3942809e+90 1.7143319e+89 -6.4982252e+89)
(-1.8174147e+90 2.5123236e+89 -5.3089487e+89)
(-1.8637572e+90 2.503052e+89 -5.3796932e+89)
(-1.6370812e+90 2.4951454e+89 -3.0701313e+89)
(-1.7237697e+90 1.1204556e+89 -2.8449808e+89)
(-1.6324831e+90 2.5756608e+89 -3.0865773e+89)
(-1.8016441e+90 2.57171e+89 -5.2342868e+89)
(-1.8423091e+90 2.570409e+89 -5.0883686e+89)
(-1.3946847e+90 1.0288436e+89 1.9109132e+89)
(-1.2436554e+90 2.3506742e+89 1.227385e+89)
(-1.8785391e+90 -7.470926e+87 6.824689e+89)
(-1.7158571e+90 2.7257087e+89 5.8657613e+89)
(-1.7176621e+90 1.2063511e+89 -2.9082111e+89)
(-1.6217253e+90 2.596929e+89 -3.185399e+89)
(-1.7810472e+90 2.6619385e+89 -5.2230154e+89)
(-1.8246099e+90 2.7059834e+89 -5.0457127e+89)
(-1.6931036e+90 1.1549161e+89 -2.8609223e+89)
(-1.6181813e+90 2.6162768e+89 -3.0309436e+89)
(-1.7908061e+90 2.6390698e+89 -5.1880994e+89)
(-1.8161724e+90 2.6380575e+89 -5.0743313e+89)
(-1.359115e+90 9.5738913e+88 1.8578747e+89)
(-1.2301125e+90 2.4652064e+89 1.3693741e+89)
(-1.8676019e+90 -3.1038425e+88 6.6926558e+89)
(-1.7089317e+90 2.8646418e+89 5.7506359e+89)
(-1.3793869e+90 1.0863642e+89 1.7149952e+89)
(-1.2304394e+90 2.3054151e+89 1.0110751e+89)
(-1.8480979e+90 3.9593415e+86 6.6131367e+89)
(-1.689821e+90 2.6674447e+89 5.699279e+89)
(-5.5022855e+90 4.4339991e+89 1.5211892e+89)
(-2.2578111e+90 1.8633544e+89 6.1960404e+89)
(-2.2806369e+90 4.5218017e+88 6.4075146e+89)
(-3.0350282e+90 1.7941533e+89 6.1878762e+89)
(-3.0369959e+90 1.839601e+89 6.2876147e+89)
(-2.2279041e+90 1.9770469e+89 6.1652874e+89)
(-2.2546459e+90 5.2818943e+88 6.1416792e+89)
(-3.0275885e+90 1.8249913e+89 5.8983699e+89)
(-3.0167908e+90 1.9058479e+89 5.9082016e+89)
(-2.271965e+90 1.7126834e+89 6.3882947e+89)
(-2.2810482e+90 3.1726398e+88 6.6018952e+89)
(-3.0223745e+90 1.6459244e+89 6.5233056e+89)
(-3.0168968e+90 1.7863811e+89 6.2726809e+89)
(-2.2330566e+90 1.9065268e+89 6.330108e+89)
(-2.2603561e+90 4.7892533e+88 6.2950838e+89)
(-3.0292368e+90 1.6870278e+89 6.2188908e+89)
(-3.0131629e+90 1.86878e+89 5.9684505e+89)
(-2.2562682e+90 1.9463112e+89 6.1750342e+89)
(-2.2771156e+90 4.5183099e+88 6.4302609e+89)
(-3.0512854e+90 1.7234035e+89 6.3101711e+89)
(-3.0338934e+90 1.9491685e+89 6.0125443e+89)
(-2.2132388e+90 1.9329369e+89 6.222689e+89)
(-2.2395043e+90 6.0598186e+88 6.1823097e+89)
(-3.0163313e+90 1.8364607e+89 6.0383338e+89)
(-2.9931036e+90 1.9219074e+89 5.8521029e+89)
(-2.2853049e+90 1.8144637e+89 6.4425959e+89)
(-2.2967552e+90 3.4974019e+88 6.6553122e+89)
(-3.0604338e+90 1.5084621e+89 6.501065e+89)
(-3.0480057e+90 1.7403672e+89 6.2028264e+89)
(-2.25521e+90 1.8057028e+89 6.553527e+89)
(-2.2648074e+90 5.155724e+88 6.4385172e+89)
(-3.0330933e+90 1.6357625e+89 6.2974532e+89)
(-3.0189634e+90 1.7084611e+89 6.1084744e+89)
(-2.2864076e+90 1.7982293e+89 6.4292581e+89)
(-2.2932431e+90 3.3567232e+88 6.6366685e+89)
(-3.0623345e+90 1.5724139e+89 6.5049014e+89)
(-3.0617007e+90 1.7039971e+89 6.4181221e+89)
(-2.2473923e+90 1.9719338e+89 6.3577494e+89)
(-2.2675381e+90 5.4052909e+88 6.3418109e+89)
(-3.0486253e+90 1.7224486e+89 6.0102167e+89)
(-3.0358601e+90 1.8420932e+89 5.9634639e+89)
(-2.2753944e+90 1.927704e+89 6.2684086e+89)
(-2.2925571e+90 5.2847166e+88 6.4884756e+89)
(-3.064063e+90 1.6936827e+89 6.3897864e+89)
(-3.0491856e+90 1.8726883e+89 6.1082738e+89)
(-2.2437254e+90 1.8267424e+89 6.3990214e+89)
(-2.2654739e+90 6.1246716e+88 6.3010866e+89)
(-3.0331139e+90 1.7410871e+89 6.1801451e+89)
(-3.0129878e+90 1.8023027e+89 6.0058401e+89)
(-5.4805069e+90 4.5516974e+89 -6.3003351e+89)
(-3.4434531e+90 1.9837831e+89 -5.3905792e+88)
(-3.5571801e+90 2.6757352e+89 2.6971717e+89)
(-3.4019066e+90 2.3361437e+89 -6.9187501e+88)
(-3.5556039e+90 1.7354635e+89 2.6462289e+89)
(-3.5260096e+90 1.9804389e+89 1.4075033e+89)
(-3.5709014e+90 3.1684718e+89 5.0458308e+89)
(-3.4931408e+90 2.3027276e+89 1.2715678e+89)
(-3.5730874e+90 1.7808525e+89 5.1046469e+89)
(-3.4408642e+90 2.1563423e+89 -6.021826e+88)
(-3.3957751e+90 2.5550494e+89 -7.2923954e+88)
(-3.5325374e+90 2.8775046e+89 2.5434855e+89)
(-3.530955e+90 1.9838782e+89 2.5634351e+89)
(-3.4333901e+90 2.1048441e+89 -4.6589385e+88)
(-3.4165337e+90 2.2871806e+89 -6.5035373e+88)
(-3.5376892e+90 2.8822671e+89 2.7543904e+89)
(-3.5498814e+90 1.795129e+89 2.6397284e+89)
(-3.5173415e+90 2.1549105e+89 1.337525e+89)
(-3.5575849e+90 3.3610323e+89 4.8915481e+89)
(-3.4765138e+90 2.5129308e+89 1.2594336e+89)
(-3.5535442e+90 1.9898505e+89 5.0151621e+89)
(-3.5240339e+90 2.1330711e+89 1.5026605e+89)
(-3.49346e+90 2.3509146e+89 1.2520211e+89)
(-3.571465e+90 3.2207262e+89 5.0982136e+89)
(-3.5835663e+90 1.7825558e+89 5.0419338e+89)
(-3.3506779e+90 1.7584505e+89 -1.6362483e+89)
(-3.3128014e+90 2.3292808e+89 -1.8173444e+89)
(-3.4309195e+90 2.5997582e+89 7.8858103e+88)
(-3.4163608e+90 1.906976e+89 7.2008552e+88)
(-3.2951967e+90 1.7757928e+89 -1.7999902e+89)
(-3.25535e+90 2.240346e+89 -2.0179946e+89)
(-3.3813042e+90 2.3176791e+89 1.4723405e+88)
(-3.3625243e+90 1.8163578e+89 2.1651725e+87)
(-3.2624899e+90 2.4632969e+89 -2.0490299e+89)
(-3.3041688e+90 1.9564604e+89 -1.8865785e+89)
(-3.381832e+90 2.5297786e+89 -5.6554848e+86)
(-3.3696451e+90 2.0437937e+89 -5.7193124e+87)
(-3.2963022e+90 1.877456e+89 -1.7773307e+89)
(-3.2812125e+90 2.181501e+89 -1.9388381e+89)
(-3.384007e+90 2.4917671e+89 2.0867394e+88)
(-3.3886898e+90 1.8031457e+89 1.0463112e+88)
(-3.3546715e+90 1.9153024e+89 -1.5667904e+89)
(-3.335465e+90 2.3102786e+89 -1.7477504e+89)
(-3.4213059e+90 2.6714655e+89 7.2219073e+88)
(-3.4336715e+90 1.8706722e+89 6.5490401e+88)
(-3.3580078e+90 1.9381267e+89 -1.6691371e+89)
(-3.3186582e+90 2.4955348e+89 -1.8081109e+89)
(-3.4217371e+90 2.8167596e+89 5.685242e+88)
(-3.4099918e+90 2.1641052e+89 5.5545711e+88)
(-3.5371138e+90 1.7637578e+89 -4.3525813e+88)
(-3.523866e+90 1.466148e+89 -4.9937362e+88)
(-4.204377e+90 1.3130474e+89 -1.2843709e+89)
(-3.4931394e+90 1.8698036e+89 -2.8891096e+89)
(-3.5277306e+90 1.3964416e+89 -2.6666789e+89)
(-3.5266233e+90 1.7834585e+89 -2.6114764e+88)
(-3.5477113e+90 1.2197041e+89 -3.0466471e+88)
(-4.2055782e+90 2.0077869e+89 -1.2531876e+89)
(-3.5036652e+90 1.5882011e+89 -2.6008502e+89)
(-3.5030442e+90 1.3989856e+89 -2.5755088e+89)
(-3.3724831e+90 1.3937194e+89 -1.6235802e+89)
(-3.4014075e+90 1.9392024e+89 -5.4659994e+88)
(-3.3647789e+90 1.7653196e+89 -1.8054819e+89)
(-3.408433e+90 1.4689106e+89 -6.1317963e+88)
(-3.3842884e+90 1.3892218e+89 -1.6951973e+89)
(-3.4074011e+90 2.0777382e+89 -6.8409258e+88)
(-3.3537259e+90 1.9365096e+89 -1.8748856e+89)
(-3.3943041e+90 1.7470999e+89 -7.3790887e+88)
(-4.1617611e+90 7.8638489e+88 -4.0941347e+89)
(-4.1105539e+90 1.7277324e+89 -4.4265007e+89)
(-3.5497711e+90 1.2371201e+89 -5.3919976e+87)
(-4.1836953e+90 2.1873571e+89 -8.5262864e+88)
(-3.5421182e+90 1.5126902e+89 -2.2316176e+89)
(-3.5187952e+90 1.5752343e+89 -2.4624099e+89)
(-3.5211173e+90 1.6728816e+89 -3.4505392e+88)
(-3.5275445e+90 1.2985785e+89 -3.8158385e+88)
(-4.1760666e+90 1.0358818e+89 -1.0221336e+89)
(-3.5048216e+90 1.264531e+89 -2.6565992e+89)
(-3.4855651e+90 1.667211e+89 -2.6660614e+89)
(-3.3653459e+90 1.3082184e+89 -1.674665e+89)
(-3.3469445e+90 1.8003962e+89 -1.8555676e+89)
(-3.3906304e+90 1.9376055e+89 -6.1857294e+88)
(-3.3831595e+90 1.573329e+89 -6.8288474e+88)
(-4.1006658e+90 1.5255778e+89 -4.3189677e+89)
(-4.1522901e+90 1.1068552e+89 -3.6538201e+89)
(-3.328238e+90 1.635095e+89 -2.0022684e+89)
(-3.2904766e+90 2.1195062e+89 -2.1494603e+89)
(-3.3797514e+90 2.1649792e+89 -4.8814524e+88)
(-3.3637483e+90 1.8106719e+89 -5.2820402e+88)
(-3.3152314e+90 1.5593559e+89 -1.9145504e+89)
(-3.3788199e+90 2.0912852e+89 -3.2643368e+88)
(-3.304341e+90 1.8828006e+89 -2.0566603e+89)
(-3.3829759e+90 1.5690877e+89 -3.9873074e+88)
(-3.2982409e+90 1.6218377e+89 -1.9886106e+89)
(-3.34247e+90 2.334396e+89 -3.0346823e+88)
(-3.2821384e+90 2.0706207e+89 -2.1306129e+89)
(-3.3475369e+90 1.747907e+89 -3.6001011e+88)
(-3.3039448e+90 1.6993236e+89 -2.0662471e+89)
(-3.3414697e+90 2.4915295e+89 -4.5321053e+88)
(-3.2657791e+90 2.2978013e+89 -2.2150688e+89)
(-3.3233082e+90 2.0735088e+89 -4.937186e+88)
(-3.2816658e+90 1.9372043e+89 -2.1287263e+89)
(-3.3557167e+90 1.5845125e+89 -5.0008604e+88)