/*--------------------------------*- C++ -*----------------------------------*\
  =========                 |
  \\      /  F ield         | OpenFOAM: The Open Source CFD Toolbox
   \\    /   O peration     | Website:  https://openfoam.org
    \\  /    A nd           | Version:  7
     \\/     M anipulation  |
\*---------------------------------------------------------------------------*/
FoamFile
{
    version     2.0;
    format      ascii;
    class       volVectorField;
    location    "2000";
    object      UMean;
}
// * * * * * * * * * * * * * * * * * * * * * * * * * * * * * * * * * * * * * //

dimensions      [0 1 -1 0 0 0 0];

internalField   nonuniform List<vector> 
34251
(
(-2.6531725e+88 1.5381577e+87 2.8578685e+87)
(-2.4431062e+88 2.1756306e+87 -3.5566623e+86)
(-2.523961e+88 1.6684072e+87 3.5405997e+87)
(-2.7509294e+88 7.1375882e+86 2.8904863e+87)
(-2.5352249e+88 1.1368437e+87 3.8421204e+87)
(-2.7627882e+88 1.1848757e+87 3.1635445e+87)
(-2.7699512e+88 6.7051095e+86 -6.311092e+86)
(-2.7265986e+88 4.9806642e+86 1.914267e+87)
(-2.7461789e+88 9.085398e+86 2.1697811e+87)
(-2.466081e+88 1.4382847e+87 -2.8906796e+87)
(-1.9440141e+88 2.1457364e+87 -8.1228571e+85)
(-2.4448997e+88 7.3138686e+86 -2.8423727e+87)
(-1.9332859e+88 8.8918193e+86 9.4404302e+84)
(-2.1313045e+88 9.0434887e+86 2.7027717e+87)
(-2.1254333e+88 7.4543498e+86 2.7145263e+87)
(-2.5956809e+88 9.1212561e+86 2.9968618e+87)
(-2.6000066e+88 3.8112992e+86 2.9744475e+87)
(-2.1372396e+88 7.525768e+86 2.9041983e+87)
(-2.1398966e+88 8.7318922e+86 2.7375648e+87)
(-2.608657e+88 1.0358214e+87 3.3006315e+87)
(-2.626628e+88 4.3862102e+86 3.2180725e+87)
(-2.8802216e+88 8.6894952e+86 1.0859739e+87)
(-2.7723517e+88 5.9277818e+86 -6.3801057e+86)
(-2.771069e+88 4.3608154e+86 -7.4098088e+86)
(-2.8780398e+88 4.2060873e+86 9.3457236e+86)
(-2.4569574e+88 4.0905404e+86 -1.0431292e+87)
(-2.5567504e+88 3.0201694e+86 -4.3692767e+86)
(-2.4823547e+88 2.6739226e+86 -1.0576732e+87)
(-2.5292029e+88 5.3444526e+86 -4.2352567e+86)
(-2.7989809e+88 7.8156421e+86 -4.7486261e+86)
(-2.7980857e+88 3.5636166e+86 -5.3587207e+86)
(-2.571554e+88 5.6283852e+86 -1.4729161e+87)
(-2.5556474e+88 3.3759428e+86 -1.5105692e+87)
(-2.4668951e+88 2.61225e+86 1.9586503e+87)
(-2.4736987e+88 7.56504e+86 1.9563494e+87)
(-2.4810631e+88 8.0953712e+86 2.1325813e+87)
(-2.4856637e+88 2.7674834e+86 2.0275305e+87)
(-2.6982808e+88 6.1934821e+86 -2.0396576e+87)
(-2.6966049e+88 1.2254309e+87 -2.0214165e+87)
(-2.2881784e+88 5.748403e+86 -2.6429577e+87)
(-2.4002341e+88 6.3749398e+86 -2.3248114e+87)
(-2.4138504e+88 2.7800014e+86 -2.3219148e+87)
(-2.2891677e+88 6.4118543e+86 -2.6814925e+87)
(-1.8732438e+88 8.6024288e+86 -3.44627e+87)
(-1.8711301e+88 5.8411601e+86 -3.4306238e+87)
(-1.4098092e+88 5.7522103e+86 9.7904961e+85)
(-1.4008507e+88 1.4335491e+87 -8.8753948e+84)
(-2.4156505e+88 3.0314447e+86 -2.3537596e+87)
(-2.3901217e+88 7.624443e+86 -2.3144587e+87)
(-2.2805965e+88 6.3312293e+86 -2.6762364e+87)
(-2.2864899e+88 6.1345072e+86 -2.6214206e+87)
(-1.8514834e+88 5.9903378e+86 -3.433341e+87)
(-1.8671369e+88 8.4976332e+86 -3.417956e+87)
(-1.395815e+88 5.7365147e+86 1.1238058e+86)
(-1.4086093e+88 1.4194985e+87 1.3200234e+86)
(-2.2932125e+88 2.6226135e+86 2.59817e+87)
(-1.8038744e+88 5.0165492e+86 2.1296962e+87)
(-2.3073345e+88 6.2621325e+86 2.6875803e+87)
(-1.7964437e+88 4.2704196e+86 2.1578142e+87)
(-2.2842263e+88 7.144393e+86 2.6223188e+87)
(-1.8016247e+88 5.2383984e+86 2.0409531e+87)
(-2.2948742e+88 3.4189806e+86 2.5551231e+87)
(-2.2949997e+88 7.6002142e+86 2.8377303e+87)
(-1.7987328e+88 4.9632912e+86 2.0942954e+87)
(-2.2983272e+88 3.5717253e+86 2.7352801e+87)
(-1.8036143e+88 4.6845939e+86 2.117623e+87)
(-1.8041736e+88 5.1907009e+86 2.1466692e+87)
(-2.3023757e+88 6.1479248e+86 2.6729208e+87)
(-2.3004057e+88 2.4004319e+86 2.6739631e+87)
(-2.5883771e+88 7.3522133e+86 1.5740382e+87)
(-2.6093678e+88 2.9751141e+86 1.5362634e+87)
(-2.5089871e+88 5.6396276e+86 1.3153113e+86)
(-2.5173868e+88 3.1179167e+86 4.7169115e+85)
(-2.4875222e+88 2.4664813e+86 -1.0508945e+87)
(-2.4617158e+88 4.1881358e+86 -1.0217028e+87)
(-2.5507813e+88 2.7682889e+86 -4.6003724e+86)
(-2.5324049e+88 5.4482726e+86 -4.1229773e+86)
(-2.8040901e+88 7.0250766e+86 -5.2499487e+86)
(-2.5470774e+88 4.9852722e+86 -5.171256e+86)
(-2.4706276e+88 3.6859999e+86 -1.1604229e+87)
(-2.484435e+88 2.6130905e+86 -1.0709101e+87)
(-2.5517596e+88 2.7564715e+86 -4.706431e+86)
(-2.809745e+88 2.8754649e+86 -5.939428e+86)
(-2.5911373e+88 6.9655748e+86 1.4175631e+87)
(-2.5887739e+88 2.8062147e+86 1.4417405e+87)
(-2.5144174e+88 3.1109795e+86 6.5284604e+85)
(-2.5084801e+88 5.4648575e+86 2.401157e+85)
(-2.5767299e+88 5.1466721e+86 -1.5046624e+87)
(-2.5691922e+88 2.921303e+86 -1.5591134e+87)
(-2.164067e+88 2.858484e+86 -9.6835122e+86)
(-2.1637115e+88 2.6726154e+86 -9.1119215e+86)
(-2.1819214e+88 3.1876823e+86 -7.6750853e+86)
(-2.4786678e+88 4.2585317e+86 -1.1257007e+87)
(-2.1857735e+88 2.8622668e+86 -8.0753069e+86)
(-2.1517495e+88 2.4054244e+86 -8.0597696e+86)
(-2.1524955e+88 2.5009478e+86 -8.0742183e+86)
(-2.1860872e+88 3.0222331e+86 -4.8825717e+86)
(-2.1772676e+88 2.3689989e+86 -9.7051111e+86)
(-2.1795289e+88 2.1875474e+86 -9.6630915e+86)
(-2.2019003e+88 2.3001727e+86 -7.994841e+86)
(-2.2012868e+88 2.6636965e+86 -8.1051577e+86)
(-2.5293275e+88 2.3152714e+86 -1.0927609e+87)
(-2.1374746e+88 2.8240039e+86 -8.0986411e+86)
(-2.1383557e+88 3.0854131e+86 -7.5393584e+86)
(-2.1590891e+88 3.5193387e+86 -4.8869441e+86)
(-2.1656092e+88 2.6195724e+86 -5.1562557e+86)
(-2.4392635e+88 3.809699e+86 -1.4906008e+87)
(-2.4518335e+88 1.7347262e+86 -1.5604413e+87)
(-2.4137421e+88 3.4424389e+86 -1.8682935e+87)
(-2.4738084e+88 3.5885025e+86 -1.4173278e+87)
(-2.1632847e+88 2.0334521e+86 -1.1702583e+87)
(-2.1720597e+88 2.5651751e+86 -1.0222506e+87)
(-2.1368459e+88 3.6060324e+86 -3.2178445e+86)
(-2.822529e+88 7.8568016e+86 -9.1291195e+86)
(-2.2829152e+88 3.6386754e+86 -2.2112687e+87)
(-2.5142857e+88 4.5150786e+86 -1.4223382e+87)
(-2.5463745e+88 2.0518552e+86 -1.3820798e+87)
(-2.2973659e+88 1.4032264e+86 -2.2268367e+87)
(-2.8248581e+88 3.01321e+86 -9.4830015e+86)
(-2.2375308e+88 3.3471993e+86 -2.3522625e+87)
(-2.4874158e+88 3.8540741e+86 -1.853805e+87)
(-2.4589358e+88 6.4128426e+86 -2.8450044e+87)
(-2.4552432e+88 1.5166479e+86 -2.8477955e+87)
(-2.1780894e+88 5.8199661e+86 1.7921011e+87)
(-2.1637302e+88 5.8443321e+86 1.7589361e+87)
(-2.1679122e+88 2.2108661e+86 1.678731e+87)
(-2.1702248e+88 2.3116121e+86 1.7921531e+87)
(-2.1782435e+88 5.6694001e+86 1.7606819e+87)
(-2.1721036e+88 1.9083237e+86 1.7736291e+87)
(-2.8331775e+88 8.3371974e+86 -2.3446208e+87)
(-2.8278376e+88 7.2259511e+86 -2.318991e+87)
(-2.432496e+88 6.2372656e+86 -3.0567524e+87)
(-2.3651643e+88 5.4290962e+86 -1.8190905e+87)
(-2.3740502e+88 1.2045651e+86 -1.8185204e+87)
(-2.4294282e+88 4.963983e+86 -3.0613588e+87)
(-1.9634488e+88 2.5115552e+86 -3.1632233e+87)
(-1.9577492e+88 5.0396117e+86 -3.1309441e+87)
(-1.6426369e+88 4.7912408e+86 -3.7143236e+87)
(-1.6500166e+88 4.0793643e+86 -3.7632881e+87)
(-1.9619689e+88 2.7447836e+86 -3.1457423e+87)
(-1.9520181e+88 5.3936969e+86 -3.1318873e+87)
(-1.6390411e+88 4.9378901e+86 -3.7706929e+87)
(-1.6453837e+88 4.1420395e+86 -3.7126271e+87)
(-1.143282e+88 5.3933137e+86 -3.3197433e+87)
(-9.9988468e+87 8.1594307e+86 7.7050011e+86)
(-9.9256241e+87 2.1835459e+86 7.7083375e+86)
(-1.1319375e+88 4.5837172e+86 -3.3258354e+87)
(-1.1405334e+88 4.5960182e+86 -3.2905547e+87)
(-1.1420001e+88 5.2273019e+86 -3.3795389e+87)
(-9.9742183e+87 3.1050782e+86 8.1926373e+86)
(-2.3846433e+88 1.6186314e+86 -1.8169765e+87)
(-2.3518569e+88 6.2363428e+86 -1.8363394e+87)
(-2.4223298e+88 6.3904119e+86 -3.0411352e+87)
(-2.4256515e+88 4.7717433e+86 -2.9813219e+87)
(-1.9579621e+88 2.837128e+86 -3.1398834e+87)
(-1.9492571e+88 5.6939956e+86 -3.1438197e+87)
(-1.630766e+88 5.1210286e+86 -3.7758251e+87)
(-1.6359386e+88 4.0224955e+86 -3.7268485e+87)
(-1.630716e+88 4.676715e+86 -3.6808624e+87)
(-1.9469385e+88 4.9050044e+86 -3.0694911e+87)
(-1.9519736e+88 2.5627666e+86 -3.1029507e+87)
(-1.6380586e+88 4.2863899e+86 -3.7429914e+87)
(-1.1185811e+88 4.79559e+86 -3.3317353e+87)
(-1.129943e+88 5.3164465e+86 -3.2954614e+87)
(-9.9398988e+87 7.9248892e+86 7.7384916e+86)
(-1.1291702e+88 5.550319e+86 -3.3248177e+87)
(-1.1293616e+88 4.5555572e+86 -3.2381028e+87)
(-9.9574883e+87 2.7764543e+86 8.261247e+86)
(-9.8500306e+87 8.3757542e+86 6.9791933e+86)
(-1.564226e+88 3.1201121e+86 2.0212523e+87)
(-1.5599344e+88 3.6392234e+86 1.90735e+87)
(-1.9887242e+88 2.8268166e+86 2.3975996e+87)
(-1.9848918e+88 5.1995129e+86 2.4419658e+87)
(-1.5595453e+88 2.4269264e+86 2.0261749e+87)
(-1.5624483e+88 3.0132992e+86 1.9419084e+87)
(-1.9702153e+88 4.9934401e+86 2.4368649e+87)
(-1.978147e+88 2.6441825e+86 2.4017918e+87)
(-1.9830085e+88 4.059357e+86 2.3255841e+87)
(-1.5631266e+88 2.9881401e+86 1.9214961e+87)
(-1.5626076e+88 3.9353902e+86 1.9401588e+87)
(-1.97874e+88 2.1908542e+86 2.3292997e+87)
(-1.5659849e+88 2.8466808e+86 1.9794313e+87)
(-1.564025e+88 3.7396158e+86 1.9952686e+87)
(-1.9812067e+88 4.1305876e+86 2.4221906e+87)
(-1.9779186e+88 2.0249243e+86 2.4286355e+87)
(-1.5677131e+88 2.6801475e+86 2.010357e+87)
(-1.5652758e+88 3.5319446e+86 1.9107918e+87)
(-1.9835772e+88 4.9594018e+86 2.4147533e+87)
(-1.9880842e+88 2.9186059e+86 2.3797405e+87)
(-1.5714488e+88 3.3432759e+86 1.9959725e+87)
(-1.5708604e+88 3.792783e+86 2.0319248e+87)
(-1.9877569e+88 4.1502113e+86 2.4413949e+87)
(-1.9820175e+88 1.7653228e+86 2.4507346e+87)
(-2.69916e+88 4.2644482e+86 -2.6893223e+87)
(-2.1866802e+88 2.5858931e+86 7.3881916e+86)
(-2.2921447e+88 2.5678904e+86 1.8348597e+87)
(-2.1954897e+88 2.4573781e+86 7.4342858e+86)
(-2.1970275e+88 4.7265807e+86 7.286968e+86)
(-2.2941308e+88 1.9274059e+86 1.8079224e+87)
(-2.2945567e+88 5.4409669e+86 1.774122e+87)
(-2.2166379e+88 2.851753e+86 2.7475308e+86)
(-2.1408173e+88 3.0919364e+86 -3.8578308e+86)
(-2.1516432e+88 2.8945313e+86 -3.7012754e+86)
(-2.1550323e+88 3.7218168e+86 -3.6933338e+86)
(-2.2265133e+88 4.3655445e+86 2.6084353e+86)
(-2.2258182e+88 2.4479441e+86 2.7558345e+86)
(-2.1758381e+88 2.6536024e+86 -9.7145983e+86)
(-2.1806634e+88 2.5129471e+86 -9.5766855e+86)
(-2.2008743e+88 3.0331556e+86 -8.0163811e+86)
(-2.1982005e+88 2.5686192e+86 -7.9762868e+86)
(-2.5341134e+88 2.1672825e+86 -1.1028909e+87)
(-2.1698194e+88 3.0381545e+86 -9.216566e+86)
(-2.16088e+88 3.2886317e+86 -9.8203699e+86)
(-2.1827606e+88 3.2985243e+86 -8.1840245e+86)
(-2.4825941e+88 4.2155672e+86 -1.1250734e+87)
(-2.1507671e+88 2.8849394e+86 -7.9634207e+86)
(-2.1530866e+88 3.0680008e+86 -7.959331e+86)
(-2.1809438e+88 3.5583759e+86 -5.09094e+86)
(-2.1773137e+88 2.8012797e+86 -5.0647257e+86)
(-2.1361669e+88 3.4219443e+86 -8.246402e+86)
(-2.1656232e+88 3.1964679e+86 -5.2341857e+86)
(-2.4569669e+88 1.4739644e+86 -1.5737482e+87)
(-2.4423812e+88 3.6231868e+86 -1.5007281e+87)
(-2.1686653e+88 3.5873831e+86 -5.5060556e+86)
(-2.1507693e+88 3.57025e+86 -8.7294183e+86)
(-2.1370307e+88 2.9321729e+86 -8.7729738e+86)
(-2.1868089e+88 3.2675226e+86 -5.2731873e+86)
(-2.1601415e+88 2.4055078e+86 -1.0493076e+87)
(-2.2017709e+88 3.3633778e+86 -8.6610051e+86)
(-2.1818564e+88 2.9966852e+86 -8.8391296e+86)
(-2.1795297e+88 3.375106e+86 -1.0328331e+87)
(-2.4948236e+88 3.6357092e+86 -1.2511194e+87)
(-2.1836113e+88 2.7692798e+86 -8.917681e+86)
(-2.1781793e+88 2.8702338e+86 -9.7409161e+86)
(-2.1994065e+88 3.3457886e+86 -8.0786249e+86)
(-2.5319784e+88 2.2130968e+86 -1.1199017e+87)
(-2.2012412e+88 2.6646013e+86 -7.4798352e+86)
(-2.1540723e+88 2.9985219e+86 -7.3963661e+86)
(-2.1804319e+88 2.8135386e+86 -4.5949637e+86)
(-2.1508448e+88 3.3734176e+86 -7.9757008e+86)
(-2.1782599e+88 3.7497253e+86 -5.1326231e+86)
(-2.444458e+88 3.2112512e+86 -1.6652322e+87)
(-2.4615675e+88 1.9380634e+86 -1.5532735e+87)
(-2.1965156e+88 2.6912579e+86 6.9256447e+86)
(-2.1908442e+88 4.8970296e+86 7.3560769e+86)
(-2.2871226e+88 2.5449962e+86 1.7061102e+87)
(-2.2780175e+88 5.9101506e+86 1.7476195e+87)
(-2.2962905e+88 5.5779161e+86 1.8045679e+87)
(-2.1976542e+88 2.5482245e+86 8.1917982e+86)
(-2.1978419e+88 4.9275197e+86 7.6861127e+86)
(-2.2859641e+88 2.1180478e+86 1.8167626e+87)
(-2.2233138e+88 4.5386696e+86 2.7716816e+86)
(-2.1537204e+88 3.9120981e+86 -3.4873915e+86)
(-2.1532889e+88 2.811898e+86 -3.0156681e+86)
(-2.2244218e+88 2.4528924e+86 3.2766068e+86)
(-2.2190974e+88 4.8290636e+86 2.6507859e+86)
(-2.1546421e+88 3.261549e+86 -4.048953e+86)
(-2.1394243e+88 3.8098002e+86 -3.975408e+86)
(-2.2284506e+88 3.0072031e+86 2.3697459e+86)
(-2.8288105e+88 7.0563428e+86 -9.4189911e+86)
(-2.2781415e+88 3.4398786e+86 -2.2140105e+87)
(-2.5210398e+88 4.0118362e+86 -1.4315758e+87)
(-2.5518155e+88 1.3674393e+86 -1.4274896e+87)
(-2.29861e+88 6.1485608e+85 -2.2622621e+87)
(-2.8339266e+88 2.4198288e+86 -9.7140689e+86)
(-2.2886102e+88 3.0492702e+86 -2.3502922e+87)
(-2.526756e+88 3.51667e+86 -1.5938311e+87)
(-2.5454104e+88 1.5187085e+86 -1.450791e+87)
(-2.2900979e+88 6.381691e+85 -2.3180687e+87)
(-2.4602007e+88 6.1324086e+86 -2.8736246e+87)
(-2.4583518e+88 1.2610905e+86 -2.8772356e+87)
(-1.8744447e+88 2.0370297e+86 -6.5493847e+86)
(-1.8674042e+88 2.1305487e+86 -7.0518682e+86)
(-2.2032715e+88 2.7187698e+86 -8.4276718e+86)
(-1.8849752e+88 2.1036726e+86 -9.1299618e+86)
(-1.8896201e+88 1.9616201e+86 -8.6602501e+86)
(-1.8767956e+88 2.3817261e+86 -6.10895e+86)
(-1.8763797e+88 2.1645021e+86 -6.2010664e+86)
(-2.1989321e+88 2.8722919e+86 -8.0112769e+86)
(-1.8950354e+88 2.137555e+86 -8.1461252e+86)
(-1.8974965e+88 2.3872094e+86 -8.0467571e+86)
(-1.8191303e+88 2.2219913e+86 -6.264927e+86)
(-1.8353929e+88 2.3231921e+86 -5.6705342e+86)
(-1.8178426e+88 2.164679e+86 -6.4281672e+86)
(-1.8367245e+88 2.115239e+86 -5.7256615e+86)
(-2.185094e+88 2.5663773e+86 -1.0293124e+87)
(-2.1896717e+88 2.5175794e+86 -9.2534823e+86)
(-1.8150131e+88 1.780108e+86 -6.8126974e+86)
(-1.8341605e+88 1.9928926e+86 -6.1048782e+86)
(-1.8086791e+88 2.0660633e+86 -7.2320781e+86)
(-1.8281814e+88 2.023491e+86 -6.404887e+86)
(-1.8021558e+88 1.582982e+86 -6.526363e+86)
(-1.7976528e+88 1.394604e+86 -6.776492e+86)
(-1.8263982e+88 1.7304956e+86 -5.7786947e+86)
(-1.821787e+88 1.3823751e+86 -5.9241962e+86)
(-1.7951739e+88 1.656672e+86 -6.8162197e+86)
(-1.8198736e+88 1.8274932e+86 -5.9869286e+86)
(-1.8013163e+88 1.8183488e+86 -6.872956e+86)
(-1.8256138e+88 1.7375979e+86 -6.041032e+86)
(-1.7818037e+88 1.7351108e+86 -6.0754335e+86)
(-1.8215356e+88 1.9934963e+86 -4.5264601e+86)
(-1.7865915e+88 1.6241804e+86 -6.157604e+86)
(-1.8271375e+88 1.5254209e+86 -4.5848224e+86)
(-1.8827521e+88 1.7879103e+86 -6.2904776e+86)
(-1.878081e+88 1.4207656e+86 -6.7987191e+86)
(-2.2209231e+88 2.1776538e+86 -8.5675791e+86)
(-1.8965396e+88 1.3817074e+86 -8.8397453e+86)
(-1.898179e+88 1.7583714e+86 -8.3552683e+86)
(-1.876709e+88 1.9507478e+86 -6.5809572e+86)
(-1.8815786e+88 1.9084761e+86 -6.7975798e+86)
(-2.2218975e+88 2.1646639e+86 -8.6116628e+86)
(-1.9002175e+88 1.8911453e+86 -8.7911297e+86)
(-1.8937633e+88 1.9274971e+86 -8.6347678e+86)
(-1.8222036e+88 1.5947582e+86 -6.530907e+86)
(-1.8426737e+88 1.7629096e+86 -5.8815853e+86)
(-1.8183511e+88 1.4099672e+86 -6.9280659e+86)
(-1.8385515e+88 1.413634e+86 -6.1379059e+86)
(-1.8169037e+88 1.7259619e+86 -6.810323e+86)
(-1.8352887e+88 1.8092508e+86 -6.1904396e+86)
(-1.8218362e+88 1.9192729e+86 -6.972654e+86)
(-1.842149e+88 1.8293402e+86 -6.2251128e+86)
(-2.2053005e+88 1.6145341e+86 -1.0669347e+87)
(-2.200404e+88 2.3310746e+86 -1.0840066e+87)
(-1.7940092e+88 1.7941981e+86 -6.7026082e+86)
(-1.8183358e+88 1.9872961e+86 -5.9048265e+86)
(-1.7873975e+88 1.9368028e+86 -7.0242102e+86)
(-1.8124537e+88 1.8937741e+86 -6.129123e+86)
(-1.796048e+88 2.2275792e+86 -6.23248e+86)
(-1.8189077e+88 2.4197356e+86 -5.4220849e+86)
(-1.7963953e+88 2.08121e+86 -6.3446632e+86)
(-1.8202811e+88 2.0433294e+86 -5.5213143e+86)
(-1.7833913e+88 2.3656651e+86 -5.478183e+86)
(-1.8159709e+88 2.5430725e+86 -4.1586971e+86)
(-1.7832247e+88 1.9297937e+86 -5.6344803e+86)
(-1.8189551e+88 1.8154332e+86 -4.2209166e+86)
(-1.7811801e+88 1.8934853e+86 -5.9703557e+86)
(-1.8179849e+88 2.1460826e+86 -4.5386562e+86)
(-1.775046e+88 1.7681396e+86 -6.2315155e+86)
(-1.8122069e+88 1.6563927e+86 -4.7052798e+86)
(-2.2290511e+88 2.3913203e+86 -1.3178994e+87)
(-2.2202944e+88 1.8886209e+86 -1.2799947e+87)
(-2.2358814e+88 2.500789e+86 -9.8427506e+86)
(-2.2270138e+88 2.54646e+86 -1.1199452e+87)
(-2.2416774e+88 1.8617929e+86 -1.3716831e+87)
(-2.2376029e+88 8.4141847e+85 -1.3892844e+87)
(-2.2626669e+88 1.5318751e+86 -1.0614088e+87)
(-2.2514322e+88 2.0504044e+86 -1.1230046e+87)
(-2.2604959e+88 3.4399751e+86 -1.5171046e+87)
(-2.2525017e+88 1.0355672e+86 -1.5248538e+87)
(-2.2427769e+88 1.5726121e+86 -1.3255877e+87)
(-2.2555649e+88 3.5260211e+86 -1.3028064e+87)
(-2.195722e+88 2.0100029e+86 -1.111557e+87)
(-2.1998634e+88 1.7625825e+86 -1.2038302e+87)
(-2.2087665e+88 3.2053598e+86 -1.0903655e+87)
(-2.2079257e+88 3.3378976e+86 -1.2171427e+87)
(-2.2442428e+88 1.8576394e+86 -1.3769155e+87)
(-1.8770439e+88 2.5241269e+86 -7.6442023e+86)
(-1.893793e+88 2.3951141e+86 -9.8038552e+86)
(-1.8597511e+88 1.6575904e+86 -7.9414112e+86)
(-1.8721963e+88 2.0943562e+86 -7.9073957e+86)
(-1.895499e+88 2.0787322e+86 -9.8827734e+86)
(-1.8795649e+88 1.6420726e+86 -1.000979e+87)
(-1.8016265e+88 1.4738635e+86 -8.0154261e+86)
(-1.8172635e+88 1.5768953e+86 -7.3487966e+86)
(-1.812626e+88 2.0945877e+86 -7.9375203e+86)
(-1.7923631e+88 1.9858253e+86 -5.1601393e+86)
(-1.7914335e+88 2.4109399e+86 -4.7705783e+86)
(-1.8346824e+88 2.6680205e+86 -3.258258e+86)
(-1.7930922e+88 1.7655944e+86 -4.8977599e+86)
(-2.5336175e+88 3.1113582e+86 -1.1671523e+87)
(-2.5184836e+88 4.8155964e+86 -1.0880866e+87)
(-2.1706649e+88 2.5810344e+86 -1.6516695e+87)
(-2.1711498e+88 1.5414623e+86 -1.6864414e+87)
(-2.2144177e+88 1.1873503e+86 -2.5833e+87)
(-2.1989254e+88 1.4844716e+86 -2.6201052e+87)
(-2.3673211e+88 2.2645055e+86 -1.4970545e+87)
(-2.3524413e+88 2.2568925e+86 -1.4956593e+87)
(-2.2748888e+88 1.8842183e+86 -1.3771308e+87)
(-2.2583149e+88 1.6187535e+86 -1.6772192e+87)
(-2.2669724e+88 1.7944028e+86 -1.7232296e+87)
(-2.2837705e+88 2.6920508e+86 -1.4244812e+87)
(-2.3033442e+88 8.3631902e+85 -1.4004307e+87)
(-2.2734435e+88 6.5005233e+85 -1.8164492e+87)
(-2.2837127e+88 1.0285645e+86 -1.732064e+87)
(-2.2996847e+88 1.3901549e+86 -1.4211498e+87)
(-2.2372403e+88 8.6919265e+85 -2.6024472e+87)
(-2.2242556e+88 3.2846401e+85 -2.6686946e+87)
(-2.3833032e+88 9.5558237e+85 -1.533617e+87)
(-2.3723322e+88 8.7863818e+85 -1.6218577e+87)
(-2.1600208e+88 3.5826705e+86 -1.6624181e+87)
(-2.5097384e+88 4.1769841e+86 -1.189822e+87)
(-2.1602099e+88 2.5992659e+86 -1.5562675e+87)
(-2.2160777e+88 2.6004698e+86 -2.6638723e+87)
(-2.2044752e+88 6.6808859e+85 -2.7406972e+87)
(-2.3894842e+88 3.4402788e+86 -1.8786702e+87)
(-2.3804416e+88 9.5216605e+85 -1.9894317e+87)
(-2.2897913e+88 4.5474036e+85 -2.0520083e+87)
(-2.2942818e+88 2.9501607e+86 -2.0126801e+87)
(-2.302546e+88 7.5361425e+85 -1.7001931e+87)
(-2.3154728e+88 3.8040694e+86 -1.6492486e+87)
(-2.2809759e+88 2.1894803e+86 -1.8347848e+87)
(-2.3034374e+88 1.9386661e+86 -1.3902264e+87)
(-2.3401979e+88 2.1431856e+86 -2.7764944e+87)
(-2.3423897e+88 4.2680713e+86 -2.7422396e+87)
(-1.876635e+88 4.5196021e+86 1.765427e+87)
(-1.8780637e+88 1.9851274e+86 1.6990716e+87)
(-1.8613011e+88 4.2359157e+86 1.7893131e+87)
(-1.8669697e+88 1.6936692e+86 1.730817e+87)
(-1.874768e+88 4.071081e+86 1.6945523e+87)
(-1.8687768e+88 1.9148644e+86 1.6987738e+87)
(-1.869269e+88 4.0692035e+86 1.7380403e+87)
(-1.86363e+88 1.6842187e+86 1.7441798e+87)
(-1.8731472e+88 4.2553282e+86 1.7523566e+87)
(-1.8762592e+88 2.0276418e+86 1.6936629e+87)
(-1.8781668e+88 4.1879382e+86 1.777471e+87)
(-1.8706874e+88 1.4909199e+86 1.7977934e+87)
(-2.8810355e+88 6.956838e+86 -1.3188782e+87)
(-2.8750862e+88 5.5919418e+86 -1.2523973e+87)
(-2.4939363e+88 5.3386346e+86 -2.5582681e+87)
(-1.9719456e+88 1.9883736e+86 -3.2731936e+87)
(-1.9744336e+88 5.2002935e+86 -3.3050334e+87)
(-2.464733e+88 4.9481253e+86 -1.3273001e+87)
(-2.4839824e+88 1.6013673e+86 -1.3481932e+87)
(-2.497073e+88 4.0095322e+86 -2.5907178e+87)
(-1.9714487e+88 5.160225e+86 -3.2959899e+87)
(-1.9760218e+88 1.8500401e+86 -3.313077e+87)
(-1.7206341e+88 4.6015698e+86 -4.0407721e+87)
(-1.7277389e+88 3.6675301e+86 -4.0742154e+87)
(-1.719043e+88 4.5633552e+86 -4.0770809e+87)
(-1.7243956e+88 3.6885501e+86 -4.0338266e+87)
(-1.1867841e+88 3.0668381e+86 -3.4213721e+87)
(-1.184793e+88 2.0788688e+86 -3.4578987e+87)
(-8.5114784e+87 3.1409488e+86 -3.7632811e+87)
(-8.5452949e+87 2.6231574e+86 -3.8145315e+87)
(-6.7430674e+87 3.3216562e+86 -1.0136975e+87)
(-6.5549466e+87 3.5581014e+86 -1.3085354e+87)
(-9.7369454e+87 1.1763317e+86 1.3877652e+87)
(-9.5643684e+87 3.8945364e+86 1.2589335e+87)
(-6.6023863e+87 3.4778426e+86 -1.2135241e+87)
(-6.741294e+87 3.2080611e+86 -1.0398012e+87)
(-9.5864394e+87 3.7389677e+85 1.2851882e+87)
(-9.7352953e+87 2.8227511e+86 1.3734249e+87)
(-8.479895e+87 3.7988999e+86 -3.8602717e+87)
(-1.1868736e+88 2.272824e+86 -3.4501476e+87)
(-1.1859089e+88 3.6267892e+86 -3.4958759e+87)
(-8.5376564e+87 2.5238559e+86 -3.7706135e+87)
(-1.1822094e+88 3.5077386e+86 -3.4497436e+87)
(-1.1845692e+88 2.4205548e+86 -3.4192162e+87)
(-8.4716412e+87 3.6461746e+86 -3.8005219e+87)
(-8.5518335e+87 2.8627538e+86 -3.7281532e+87)
(-1.1952498e+88 3.1473691e+86 -3.4548069e+87)
(-1.1944717e+88 1.9661904e+86 -3.500775e+87)
(-8.5934684e+87 3.4922617e+86 -3.7577217e+87)
(-6.6012369e+87 3.4999425e+86 -1.1186445e+87)
(-6.6855148e+87 3.9771631e+86 -1.1003821e+87)
(-9.6894047e+87 3.7627448e+86 1.3631932e+87)
(-9.5916649e+87 1.033407e+86 1.3256479e+87)
(-2.5044732e+88 2.0566274e+86 -1.4556126e+87)
(-2.4546552e+88 5.1785905e+86 -1.34127e+87)
(-2.4859478e+88 5.2407538e+86 -2.5729535e+87)
(-1.965757e+88 5.3225911e+86 -3.3006461e+87)
(-1.9721907e+88 2.0349215e+86 -3.2630708e+87)
(-2.4910715e+88 3.9662813e+86 -2.4743972e+87)
(-1.9700521e+88 2.0352348e+86 -3.2496927e+87)
(-1.9625837e+88 5.0364531e+86 -3.2197103e+87)
(-1.7072512e+88 4.5877457e+86 -4.0550757e+87)
(-1.7120181e+88 3.579084e+86 -4.0258164e+87)
(-1.7088627e+88 4.5577931e+86 -3.9927887e+87)
(-1.7171835e+88 3.955119e+86 -4.0482381e+87)
(-1.1797385e+88 2.6420917e+86 -3.4516018e+87)
(-1.1800006e+88 4.0067209e+86 -3.506683e+87)
(-8.3906691e+87 2.9751652e+86 -3.7917613e+87)
(-8.3642027e+87 3.4701964e+86 -3.776611e+87)
(-8.405764e+87 2.6321767e+86 -3.8327798e+87)
(-1.1776283e+88 2.1561394e+86 -3.457402e+87)
(-1.1779636e+88 3.278345e+86 -3.4221789e+87)
(-6.6907309e+87 3.4559751e+86 -9.5505395e+86)
(-6.5145901e+87 3.3905804e+86 -1.2678401e+87)
(-9.8436517e+87 1.0890794e+86 1.4156653e+87)
(-9.6601627e+87 3.7824713e+86 1.2719317e+87)
(-8.4605283e+87 3.7715842e+86 -3.7777683e+87)
(-8.4780051e+87 2.8326589e+86 -3.8422663e+87)
(-1.1800761e+88 2.3115943e+86 -3.4712861e+87)
(-1.1826495e+88 3.4346639e+86 -3.4291276e+87)
(-8.3316895e+87 3.7377537e+86 -3.8122815e+87)
(-8.4283495e+87 3.0921547e+86 -3.7499682e+87)
(-1.176517e+88 2.6119951e+86 -3.4008376e+87)
(-1.1725133e+88 3.6094057e+86 -3.4195479e+87)
(-6.5533715e+87 3.4245163e+86 -1.1125909e+87)
(-6.6618775e+87 3.881256e+86 -1.078943e+87)
(-9.6755861e+87 5.1931251e+85 1.2998893e+87)
(-9.784786e+87 3.5691403e+86 1.3508067e+87)
(-6.7537215e+87 4.2207311e+86 -9.7556362e+86)
(-6.543641e+87 3.8433102e+86 -1.3066446e+87)
(-9.8210958e+87 1.9276985e+86 1.4186273e+87)
(-9.6140173e+87 4.2018291e+86 1.2775806e+87)
(-2.5649453e+88 3.7429481e+86 7.0625228e+86)
(-1.3548397e+88 3.171408e+86 1.9231223e+87)
(-1.3542571e+88 1.5779868e+86 2.0132569e+87)
(-1.7258156e+88 3.971697e+86 2.0880259e+87)
(-1.7325705e+88 2.2734305e+86 2.1167773e+87)
(-1.3430703e+88 3.1688548e+86 1.9018939e+87)
(-1.3417449e+88 1.7447853e+86 1.8687445e+87)
(-1.7303258e+88 3.0307749e+86 2.0085312e+87)
(-1.7272805e+88 1.5959933e+86 2.0044003e+87)
(-1.3561694e+88 2.1198414e+86 1.9556155e+87)
(-1.3513898e+88 7.1725584e+85 2.0241304e+87)
(-1.7213354e+88 3.5148604e+86 2.1453691e+87)
(-1.72292e+88 1.7363728e+86 2.1184653e+87)
(-1.3483896e+88 3.0987063e+86 1.9434383e+87)
(-1.3483868e+88 1.3150716e+86 1.9348618e+87)
(-1.7307212e+88 2.7490292e+86 2.0894988e+87)
(-1.7256127e+88 1.3753426e+86 2.0352487e+87)
(-1.3519007e+88 3.4051413e+86 1.8799762e+87)
(-1.3506157e+88 1.2979135e+86 1.9756566e+87)
(-1.7332635e+88 3.5790462e+86 2.0604824e+87)
(-1.732306e+88 2.3688057e+86 2.0154976e+87)
(-1.3443871e+88 3.3870798e+86 1.9162829e+87)
(-1.3421979e+88 2.2162197e+86 1.8749759e+87)
(-1.7306048e+88 3.3231857e+86 2.076305e+87)
(-1.7231711e+88 1.7110776e+86 2.0273231e+87)
(-1.353687e+88 3.1349876e+86 1.899873e+87)
(-1.3458808e+88 1.1039216e+86 1.9475605e+87)
(-1.7296304e+88 3.5607777e+86 2.0729356e+87)
(-1.729497e+88 2.3232254e+86 2.0454588e+87)
(-1.3404967e+88 3.3169736e+86 1.9131274e+87)
(-1.3412652e+88 2.106192e+86 1.8822663e+87)
(-1.7277163e+88 3.2459001e+86 2.1043724e+87)
(-1.7204009e+88 1.4824677e+86 2.0567635e+87)
(-1.3519515e+88 2.8632435e+86 1.9074999e+87)
(-1.3458366e+88 1.0232315e+86 1.9630892e+87)
(-1.7296125e+88 3.7268457e+86 2.0929615e+87)
(-1.7348407e+88 2.1517291e+86 2.1026412e+87)
(-1.3443675e+88 3.4175395e+86 1.8948347e+87)
(-1.3416998e+88 1.6970546e+86 1.8556156e+87)
(-1.7330498e+88 3.0919954e+86 2.0028282e+87)
(-1.7298019e+88 1.7282637e+86 1.9990033e+87)
(-1.3574659e+88 3.4122917e+86 1.9061943e+87)
(-1.3514926e+88 1.3974076e+86 1.967879e+87)
(-1.7362081e+88 3.7738578e+86 2.0936335e+87)
(-1.7355719e+88 2.4434385e+86 2.0652154e+87)
(-1.3498922e+88 3.0202635e+86 1.9516385e+87)
(-1.3479168e+88 2.3863196e+86 1.9060292e+87)
(-1.7337471e+88 3.2128865e+86 2.1451521e+87)
(-1.7267006e+88 1.2568674e+86 2.0999558e+87)
(-2.7046118e+88 4.1121109e+86 -2.7268796e+87)
(-1.8684872e+88 3.2601523e+86 2.5311179e+86)
(-1.9414733e+88 3.5822469e+86 8.5808468e+86)
(-1.862751e+88 2.0817105e+86 2.4787351e+86)
(-1.9378565e+88 1.8044587e+86 8.6155197e+86)
(-1.8942696e+88 3.7810486e+86 1.2326229e+87)
(-1.9755585e+88 4.124146e+86 1.942063e+87)
(-1.8904276e+88 1.6509739e+86 1.2392025e+87)
(-1.9718325e+88 1.5061454e+86 1.9589659e+87)
(-1.8787745e+88 3.4257525e+86 2.8792569e+86)
(-1.8715309e+88 1.9328891e+86 2.9265835e+86)
(-1.9481034e+88 3.7072325e+86 8.7604847e+86)
(-1.9440801e+88 1.7120384e+86 8.957081e+86)
(-1.8706516e+88 3.4115008e+86 2.5578214e+86)
(-1.8763049e+88 2.1704421e+86 2.3964073e+86)
(-1.9411292e+88 3.994371e+86 8.5224074e+86)
(-1.9472032e+88 2.2293807e+86 8.3183621e+86)
(-1.9019102e+88 4.0323434e+86 1.2733701e+87)
(-1.9838507e+88 4.1584182e+86 1.9734041e+87)
(-1.8970932e+88 1.5859095e+86 1.2976365e+87)
(-1.9784738e+88 1.3374911e+86 2.0054713e+87)
(-1.8970773e+88 3.9953269e+86 1.2448527e+87)
(-1.9000422e+88 1.9249023e+86 1.207156e+87)
(-1.9767696e+88 4.5248331e+86 1.9367771e+87)
(-1.9830586e+88 2.1250099e+86 1.9123638e+87)
(-1.8143972e+88 2.9205477e+86 -3.3446776e+86)
(-1.8093972e+88 2.4307139e+86 -3.4546983e+86)
(-1.8844746e+88 3.236562e+86 8.2961834e+85)
(-1.8794565e+88 2.1940549e+86 7.5651105e+85)
(-1.7890395e+88 2.7846617e+86 -5.361786e+86)
(-1.7828436e+88 2.5759478e+86 -5.488369e+86)
(-1.8360687e+88 2.9670662e+86 -3.7870571e+86)
(-1.8302141e+88 2.4907029e+86 -3.9075631e+86)
(-1.7946094e+88 2.3641334e+86 -5.0909888e+86)
(-1.8020194e+88 2.8143967e+86 -4.9665553e+86)
(-1.8477872e+88 2.9836149e+86 -3.5017022e+86)
(-1.8413692e+88 2.3005017e+86 -3.527939e+86)
(-1.7939792e+88 2.8108495e+86 -5.310883e+86)
(-1.7994678e+88 2.5148055e+86 -5.3112804e+86)
(-1.8404802e+88 3.0778081e+86 -3.7483543e+86)
(-1.8458181e+88 2.5160589e+86 -3.7929545e+86)
(-1.8195172e+88 3.0417846e+86 -3.2603477e+86)
(-1.8238189e+88 2.4302744e+86 -3.36374e+86)
(-1.8856359e+88 3.3847199e+86 6.8236437e+85)
(-1.8925253e+88 2.3250301e+86 6.3007342e+85)
(-1.8259505e+88 3.0424697e+86 -2.9627347e+86)
(-1.819391e+88 2.2761117e+86 -3.0054172e+86)
(-1.8943926e+88 3.3037754e+86 1.0180384e+86)
(-1.8882139e+88 2.0511525e+86 1.0564471e+86)
(-1.8803783e+88 2.4724232e+86 -6.4184736e+86)
(-1.8733151e+88 2.2525412e+86 -6.8090777e+86)
(-2.2166259e+88 2.4036539e+86 -8.6638637e+86)
(-1.8919734e+88 2.1737155e+86 -8.8614682e+86)
(-1.8993602e+88 2.3500612e+86 -8.3036704e+86)
(-1.8740231e+88 2.6192339e+86 -6.7747247e+86)
(-1.8807015e+88 2.5646008e+86 -6.5352072e+86)
(-2.222186e+88 2.3454881e+86 -8.5508675e+86)
(-1.8961339e+88 2.4639318e+86 -8.6911925e+86)
(-1.8932159e+88 2.5489965e+86 -8.7694082e+86)
(-1.8145485e+88 2.5005567e+86 -6.9184793e+86)
(-1.8342315e+88 2.5975208e+86 -6.1971002e+86)
(-1.82026e+88 2.6899776e+86 -6.8015528e+86)
(-1.8402698e+88 2.6014562e+86 -6.0331251e+86)
(-1.8208791e+88 2.3874488e+86 -6.5239675e+86)
(-1.8422267e+88 2.5569592e+86 -5.7992117e+86)
(-1.8143905e+88 2.3617566e+86 -6.9005216e+86)
(-1.8349103e+88 2.3528366e+86 -6.0389489e+86)
(-2.2083452e+88 1.6768471e+86 -1.0556068e+87)
(-2.1987199e+88 2.4675929e+86 -1.0856375e+87)
(-1.8802886e+88 2.7281696e+86 -6.1710074e+86)
(-2.2055348e+88 3.2174161e+86 -8.1500925e+86)
(-1.8986057e+88 2.9641858e+86 -8.1341336e+86)
(-1.9005741e+88 2.6281265e+86 -8.1592109e+86)
(-1.8661419e+88 2.5787545e+86 -6.9266051e+86)
(-1.8613792e+88 2.8135348e+86 -6.9530286e+86)
(-2.198781e+88 3.0436339e+86 -8.6110792e+86)
(-1.8837072e+88 2.4760564e+86 -8.9529483e+86)
(-1.8757696e+88 2.744266e+86 -9.1600231e+86)
(-1.8071215e+88 2.4181704e+86 -7.085991e+86)
(-1.8020964e+88 2.8591475e+86 -7.2185216e+86)
(-1.8280655e+88 2.6337513e+86 -6.2986169e+86)
(-1.8215146e+88 2.8243807e+86 -6.3831441e+86)
(-2.1830025e+88 2.8954956e+86 -1.0399451e+87)
(-2.2000363e+88 2.8441241e+86 -9.4746604e+86)
(-1.8018062e+88 2.4867278e+86 -6.3957178e+86)
(-1.794383e+88 2.4060562e+86 -6.6511634e+86)
(-1.8268381e+88 2.6663576e+86 -5.640556e+86)
(-1.8196934e+88 2.3898931e+86 -5.7758383e+86)
(-1.7939007e+88 2.5322877e+86 -6.8187857e+86)
(-1.8194936e+88 2.72186e+86 -5.9805508e+86)
(-1.7995417e+88 2.691797e+86 -6.7015175e+86)
(-1.8248338e+88 2.6450051e+86 -5.896569e+86)
(-1.7822779e+88 2.6987074e+86 -6.0842309e+86)
(-1.8196664e+88 2.9114294e+86 -4.6326201e+86)
(-1.7870727e+88 2.6281534e+86 -6.0489504e+86)
(-1.8254486e+88 2.4822169e+86 -4.5782766e+86)
(-1.7894764e+88 2.6814741e+86 -5.703287e+86)
(-1.8278298e+88 2.9110854e+86 -4.2707852e+86)
(-1.7826204e+88 2.3868841e+86 -5.8686752e+86)
(-1.8199959e+88 2.3108574e+86 -4.3676752e+86)
(-1.781391e+88 2.8290803e+86 -7.0471466e+86)