/*--------------------------------*- C++ -*----------------------------------*\
  =========                 |
  \\      /  F ield         | OpenFOAM: The Open Source CFD Toolbox
   \\    /   O peration     | Website:  https://openfoam.org
    \\  /    A nd           | Version:  7
     \\/     M anipulation  |
\*---------------------------------------------------------------------------*/
FoamFile
{
    version     2.0;
    format      ascii;
    class       volScalarField;
    location    "1000";
    object      p;
}
// * * * * * * * * * * * * * * * * * * * * * * * * * * * * * * * * * * * * * //

dimensions      [0 2 -2 0 0 0 0];

internalField   nonuniform List<scalar> 
34377
(
-7.7287861e+95
-7.8096853e+95
-7.4970278e+95
-7.5281397e+95
-7.3637663e+95
-7.6531825e+95
-7.395716e+95
-6.6166605e+95
-7.1156917e+95
-7.0871389e+95
-7.5945411e+95
-7.5903021e+95
-7.5667446e+95
-7.7404964e+95
-7.5603296e+95
-7.4681144e+95
-7.2736745e+95
-7.3713e+95
-7.3860288e+95
-7.2889122e+95
-7.399208e+95
-7.4130506e+95
-7.316779e+95
-7.3026508e+95
-7.332613e+95
-7.4351756e+95
-7.2988431e+95
-6.5700413e+95
-6.8162744e+95
-6.5439701e+95
-6.5668277e+95
-6.1115821e+95
-6.4866736e+95
-6.4629809e+95
-6.7033431e+95
-6.7293497e+95
-6.84136e+95
-7.1448401e+95
-7.1298665e+95
-7.0279159e+95
-7.0581215e+95
-7.1025574e+95
-7.1163971e+95
-7.4424855e+95
-7.4060215e+95
-7.4175714e+95
-7.4547459e+95
-7.475423e+95
-7.4482717e+95
-7.4624976e+95
-7.4615687e+95
-7.5390531e+95
-7.4170778e+95
-7.3817887e+95
-7.3945068e+95
-7.4307275e+95
-7.5099304e+95
-7.4992358e+95
-7.5311662e+95
-7.4359015e+95
-7.4207155e+95
-7.4502e+95
-7.4353516e+95
-7.3589041e+95
-7.3453976e+95
-7.2467726e+95
-7.2608983e+95
-7.2988923e+95
-7.3057352e+95
-7.2301343e+95
-7.2370174e+95
-7.2437122e+95
-7.3122473e+95
-7.3191038e+95
-7.2508621e+95
-7.3254871e+95
-7.2572362e+95
-7.3329359e+95
-7.2647339e+95
-7.3394893e+95
-7.2715851e+95
-7.3458164e+95
-7.2783039e+95
-7.2159748e+95
-7.3151983e+95
-7.3316769e+95
-7.2325464e+95
-6.5236104e+95
-6.5010799e+95
-6.764804e+95
-6.7912636e+95
-6.0776828e+95
-6.4181348e+95
-6.4419063e+95
-6.6784847e+95
-6.6520645e+95
-6.9441918e+95
-6.957085e+95
-6.7997039e+95
-6.7877106e+95
-6.660388e+95
-6.5357177e+95
-6.5453799e+95
-6.6710828e+95
-6.2903796e+95
-6.6833115e+95
-6.5575333e+95
-6.5706171e+95
-6.6963268e+95
-6.310335e+95
-6.0138616e+95
-6.0289159e+95
-5.9923012e+95
-6.2498412e+95
-6.2292982e+95
-6.0088193e+95
-6.9695611e+95
-6.8113029e+95
-6.8255604e+95
-6.9842372e+95
-7.1721658e+95
-7.1645422e+95
-7.1508294e+95
-7.157811e+95
-7.0628597e+95
-7.0486178e+95
-7.0759718e+95
-7.0902309e+95
-7.1295801e+95
-7.1233953e+95
-7.1441954e+95
-7.1360416e+95
-7.2720538e+95
-7.293504e+95
-7.3071533e+95
-7.2675086e+95
-7.2789733e+95
-7.3189947e+95
-7.3787684e+95
-7.3970351e+95
-7.4031463e+95
-7.3846474e+95
-7.3859274e+95
-7.3930879e+95
-7.3643309e+95
-7.3715833e+95
-7.3729323e+95
-7.3658032e+95
-7.3911886e+95
-7.3839797e+95
-7.3990538e+95
-7.383963e+95
-7.3778344e+95
-7.3923715e+95
-7.3580983e+95
-7.3700944e+95
-7.404869e+95
-7.2839872e+95
-7.2457065e+95
-7.2564528e+95
-7.2953258e+95
-7.3456074e+95
-7.3321504e+95
-7.3650983e+95
-7.3798101e+95
-7.3816268e+95
-7.3970315e+95
-7.3647743e+95
-7.380888e+95
-7.4100765e+95
-7.4231641e+95
-7.3943147e+95
-7.4077376e+95
-7.3478703e+95
-7.3408999e+95
-7.3583136e+95
-7.3653392e+95
-7.3596632e+95
-7.3667173e+95
-7.3377027e+95
-7.3446647e+95
-7.3599141e+95
-7.3538326e+95
-7.3779202e+95
-7.3714739e+95
-7.3730508e+95
-7.3796647e+95
-7.3511695e+95
-7.3579271e+95
-7.2873753e+95
-7.2932494e+95
-7.2245747e+95
-7.218445e+95
-7.2746634e+95
-7.2814318e+95
-7.2050579e+95
-7.2120495e+95
-7.2540327e+95
-7.2572072e+95
-7.2113236e+95
-7.2083935e+95
-7.2600149e+95
-7.2631203e+95
-7.2174994e+95
-7.2142975e+95
-7.2661706e+95
-7.2698523e+95
-7.2243216e+95
-7.2205433e+95
-7.2731055e+95
-7.2765594e+95
-7.2279721e+95
-7.2316767e+95
-7.234814e+95
-7.2798882e+95
-7.2835971e+95
-7.2384269e+95
-7.2868659e+95
-7.2903844e+95
-7.2452712e+95
-7.2417805e+95
-7.2936984e+95
-7.2973534e+95
-7.2484492e+95
-7.2523151e+95
-7.2556345e+95
-7.3004506e+95
-7.3033479e+95
-7.2587212e+95
-7.2541697e+95
-7.18452e+95
-7.1764554e+95
-7.245835e+95
-7.261393e+95
-7.2683999e+95
-7.1988825e+95
-7.1918331e+95
-6.6509804e+95
-6.5268738e+95
-6.5167461e+95
-6.6396051e+95
-6.2729583e+95
-6.6193913e+95
-6.4987658e+95
-6.5064274e+95
-6.2540225e+95
-6.6287696e+95
-6.8943542e+95
-6.9071262e+95
-6.7533369e+95
-6.7423821e+95
-6.7647272e+95
-6.9191899e+95
-6.7768816e+95
-6.9323523e+95
-5.9984976e+95
-5.9595244e+95
-6.1900914e+95
-6.2106136e+95
-5.9757529e+95
-6.9334969e+95
-6.9271709e+95
-7.0244498e+95
-7.0305982e+95
-6.9474294e+95
-6.9400592e+95
-7.037083e+95
-7.0449393e+95
-6.8607997e+95
-6.7856256e+95
-6.7927899e+95
-6.8676421e+95
-6.8480003e+95
-6.7793773e+95
-6.7738972e+95
-6.8541412e+95
-6.7098001e+95
-6.6512583e+95
-6.6467867e+95
-6.7146104e+95
-6.5947211e+95
-6.590427e+95
-6.5342053e+95
-6.538141e+95
-6.4176898e+95
-6.5481196e+95
-6.5420601e+95
-6.598959e+95
-6.4270502e+95
-6.6050195e+95
-6.6625275e+95
-6.6559022e+95
-6.7201909e+95
-6.7273112e+95
-6.3009541e+95
-6.2914704e+95
-6.7329815e+95
-6.6751226e+95
-6.6683283e+95
-6.7392823e+95
-6.5612014e+95
-6.5537319e+95
-6.6178536e+95
-6.6107027e+95
-6.439178e+95
-6.5678138e+95
-6.6244644e+95
-6.7459459e+95
-6.6814652e+95
-6.7536171e+95
-6.3123697e+95
-5.7519032e+95
-6.0181214e+95
-6.1664452e+95
-6.1751203e+95
-6.0226937e+95
-6.0296203e+95
-6.184687e+95
-7.0516753e+95
-7.0587358e+95
-6.9533722e+95
-6.9604645e+95
-6.8729977e+95
-6.8800284e+95
-6.7978253e+95
-6.8043658e+95
-6.8189764e+95
-6.8113285e+95
-6.8870516e+95
-6.8943428e+95
-6.9746584e+95
-6.9671218e+95
-7.065378e+95
-7.0729793e+95
-7.1922539e+95
-7.1887608e+95
-7.1816882e+95
-7.185461e+95
-7.1679479e+95
-7.1712366e+95
-7.1745195e+95
-7.1783694e+95
-7.0867392e+95
-7.0941771e+95
-7.0732442e+95
-7.0799119e+95
-7.1001532e+95
-7.1061617e+95
-7.1184305e+95
-7.1119789e+95
-7.1464461e+95
-7.1499808e+95
-7.1411382e+95
-7.143522e+95
-7.164798e+95
-7.1605706e+95
-7.153119e+95
-7.1566972e+95
-7.2496478e+95
-7.2272363e+95
-6.9944448e+95
-7.1688828e+95
-7.3074455e+95
-7.3004288e+95
-7.3195186e+95
-7.3135471e+95
-7.3381463e+95
-7.3450176e+95
-7.3486975e+95
-7.3473742e+95
-7.3511196e+95
-7.3520595e+95
-7.3552079e+95
-7.3543063e+95
-7.3576596e+95
-7.3372452e+95
-7.3409984e+95
-7.3154316e+95
-7.3116187e+95
-7.3186317e+95
-7.3219691e+95
-7.3442102e+95
-7.3474871e+95
-7.3319067e+95
-7.3250125e+95
-7.358237e+95
-7.3617028e+95
-7.3606445e+95
-7.3642151e+95
-7.3570558e+95
-7.3317867e+95
-7.3506403e+95
-7.3253057e+95
-7.3542524e+95
-7.328869e+95
-7.2616197e+95
-7.2239606e+95
-7.2353667e+95
-7.272942e+95
-7.1475343e+95
-7.2766875e+95
-7.2828954e+95
-7.113313e+95
-7.1232073e+95
-7.1571903e+95
-7.2884087e+95
-7.2945183e+95
-7.2123973e+95
-7.2013619e+95
-7.2380968e+95
-7.2498978e+95
-7.30727e+95
-7.2915509e+95
-7.2990558e+95
-7.3150238e+95
-7.3216936e+95
-7.3054682e+95
-7.3113251e+95
-7.3279373e+95
-7.3073358e+95
-7.3152621e+95
-7.2848761e+95
-7.2930517e+95
-7.3222435e+95
-7.3286922e+95
-7.3001709e+95
-7.3069329e+95
-7.3339119e+95
-7.3172164e+95
-7.3237399e+95
-7.3406189e+95
-7.3463905e+95
-7.3294653e+95
-7.3351391e+95
-7.3523068e+95
-7.3348761e+95
-7.3416323e+95
-7.3131723e+95
-7.3198858e+95
-7.3535731e+95
-7.3258249e+95
-7.347567e+95
-7.3317893e+95
-7.3004195e+95
-7.3066837e+95
-7.3197025e+95
-7.3232017e+95
-7.3216092e+95
-7.3251347e+95
-7.3263725e+95
-7.3293785e+95
-7.3282355e+95
-7.3314387e+95
-7.2857512e+95
-7.2892177e+95
-7.3114406e+95
-7.3148985e+95
-7.2921425e+95
-7.2951396e+95
-7.3179842e+95
-7.3210926e+95
-7.3188066e+95
-7.3125644e+95
-7.3323671e+95
-7.3358041e+95
-7.3344727e+95
-7.3380657e+95
-7.3388721e+95
-7.341899e+95
-7.3410502e+95
-7.3443123e+95
-7.3242049e+95
-7.298331e+95
-7.3277975e+95
-7.3019353e+95
-7.3308781e+95
-7.3340754e+95
-7.304997e+95
-7.3081962e+95
-7.242828e+95
-7.245866e+95
-7.2002658e+95
-7.1972154e+95
-7.248519e+95
-7.203113e+95
-7.2512185e+95
-7.2059355e+95
-7.2310751e+95
-7.2344946e+95
-7.1855673e+95
-7.1888087e+95
-7.1917067e+95
-7.2373278e+95
-7.2401617e+95
-7.1946345e+95
-7.2174198e+95
-7.2159864e+95
-7.1928173e+95
-7.1941436e+95
-7.2198718e+95
-7.2186502e+95
-7.1953873e+95
-7.1968095e+95
-7.2228791e+95
-7.22116e+95
-7.198163e+95
-7.1997701e+95
-7.2259539e+95
-7.2244623e+95
-7.2013014e+95
-7.2029989e+95
-7.2293975e+95
-7.2274593e+95
-7.2045966e+95
-7.2064215e+95
-7.232859e+95
-7.2311533e+95
-7.2081268e+95
-7.210065e+95
-7.2117143e+95
-7.234508e+95
-7.2365657e+95
-7.2136512e+95
-7.240036e+95
-7.238378e+95
-7.2154611e+95
-7.2173664e+95
-7.2436122e+95
-7.2416939e+95
-7.218924e+95
-7.2207635e+95
-7.2467803e+95
-7.2452218e+95
-7.2224122e+95
-7.2240258e+95
-7.2484508e+95
-7.225609e+95
-7.2504083e+95
-7.227451e+95
-7.2291943e+95
-7.2521965e+95
-7.253881e+95
-7.2310715e+95
-7.2577035e+95
-7.2556269e+95
-7.2327e+95
-7.2347718e+95
-7.2365716e+95
-7.2595089e+95
-7.2609851e+95
-7.2382221e+95
-7.2642404e+95
-7.2626059e+95
-7.2395184e+95
-7.2412965e+95
-7.2668711e+95
-7.2657225e+95
-7.2428137e+95
-7.2442379e+95
-7.2103185e+95
-7.2140436e+95
-7.1645864e+95
-7.1684075e+95
-7.2026391e+95
-7.2066215e+95
-7.157248e+95
-7.1609108e+95
-7.1718096e+95
-7.2172986e+95
-7.2212399e+95
-7.1755426e+95
-7.2245444e+95
-7.2279016e+95
-7.1790319e+95
-7.1825498e+95
-6.6428604e+95
-6.6376244e+95
-6.7053396e+95
-6.6999367e+95
-6.5867816e+95
-6.5818757e+95
-6.5261285e+95
-6.5309048e+95
-6.409464e+95
-6.5731171e+95
-6.5221474e+95
-6.5178367e+95
-6.5773938e+95
-6.4003539e+95
-6.632953e+95
-6.6284573e+95
-6.6910728e+95
-6.6955515e+95
-6.276488e+95
-6.2858156e+95
-6.6141944e+95
-6.6751672e+95
-6.5597388e+95
-6.5051511e+95
-6.5076833e+95
-6.5629399e+95
-6.3908591e+95
-6.5131192e+95
-6.5686122e+95
-6.2676332e+95
-6.6242426e+95
-6.6866525e+95
-6.6181569e+95
-6.6801899e+95
-6.9774941e+95
-6.8881937e+95
-6.9834158e+95
-6.9014987e+95
-6.894515e+95
-6.9970111e+95
-6.989835e+95
-6.8168054e+95
-6.7434673e+95
-6.8234529e+95
-6.7501728e+95
-6.7376174e+95
-6.8105657e+95
-6.7547722e+95
-6.7592617e+95
-6.8331798e+95
-6.8282621e+95
-6.9117025e+95
-6.9065593e+95
-7.0027106e+95
-7.0083329e+95
-6.8377738e+95
-6.7635144e+95
-6.769049e+95
-6.8431521e+95
-6.9224152e+95
-6.9165779e+95
-7.0136742e+95
-7.0198201e+95
-6.0025497e+95
-6.1530036e+95
-6.1621698e+95
-6.0122864e+95
-6.9230288e+95
-6.926915e+95
-6.9711892e+95
-6.9748194e+95
-6.9173278e+95
-6.9653989e+95
-6.9198491e+95
-6.9680219e+95
-7.0165487e+95
-7.0784819e+95
-7.0189879e+95
-7.080773e+95
-7.02198e+95
-7.0837038e+95
-7.0257014e+95
-7.0873085e+95
-6.9372858e+95
-6.9410464e+95
-6.9854568e+95
-6.9892659e+95
-6.9301736e+95
-6.9779506e+95
-6.9337284e+95
-6.9817107e+95
-7.0287364e+95
-7.0904135e+95
-7.0324648e+95
-7.0940463e+95
-7.0362708e+95
-7.0404723e+95
-7.0979559e+95
-7.1022711e+95
-6.8478762e+95
-6.8886781e+95
-6.8515029e+95
-6.8921741e+95
-6.7762725e+95
-6.7798198e+95
-6.8115906e+95
-6.8152742e+95
-6.7831474e+95
-6.7865297e+95
-6.8185923e+95
-6.8218042e+95
-6.8546878e+95
-6.8581047e+95
-6.8955786e+95
-6.8992123e+95
-6.8351118e+95
-6.8757234e+95
-6.8376502e+95
-6.8781926e+95
-6.7695997e+95
-6.7730802e+95
-6.8046979e+95
-6.808302e+95
-6.7644336e+95
-6.7991773e+95
-6.7668329e+95
-6.8017558e+95
-6.8405952e+95
-6.8444533e+95
-6.8813332e+95
-6.885295e+95
-6.699622e+95
-6.73196e+95
-6.7018194e+95
-6.7341916e+95
-6.6444656e+95
-6.6470561e+95
-6.6740172e+95
-6.6767472e+95
-6.6403675e+95
-6.6695762e+95
-6.6423184e+95
-6.6717388e+95
-6.7041019e+95
-6.7071554e+95
-6.7367426e+95
-6.7400662e+95
-6.5878063e+95
-6.6162032e+95
-6.5901728e+95
-6.6186723e+95
-6.5840494e+95
-6.6123184e+95
-6.5860216e+95
-6.6142037e+95
-6.5567885e+95
-6.5586415e+95
-6.5290878e+95
-6.4804119e+95
-6.5306677e+95
-6.5604698e+95
-6.56267e+95
-6.4837223e+95
-6.5345822e+95
-6.5324936e+95
-6.425781e+95
-6.4283959e+95
-6.5694558e+95
-6.5726837e+95
-6.4933755e+95
-6.5443578e+95
-6.5411482e+95
-6.5643617e+95
-6.5668218e+95
-6.4872326e+95
-6.538492e+95
-6.5362403e+95
-6.5919049e+95
-6.6207942e+95
-6.5944136e+95
-6.6233627e+95
-6.4312856e+95
-6.4378107e+95
-6.5970241e+95
-6.6262049e+95
-6.6003943e+95
-6.629648e+95
-6.6552459e+95
-6.6857517e+95
-6.6587582e+95
-6.6892266e+95
-6.6494475e+95
-6.6794174e+95
-6.6522349e+95
-6.6825605e+95
-6.7101075e+95
-6.7432202e+95
-6.7134492e+95
-6.7466722e+95
-6.7166844e+95
-6.7500123e+95
-6.7202423e+95
-6.7535129e+95
-6.3309934e+95
-6.3246497e+95
-6.3783726e+95
-6.3848938e+95
-6.3736138e+95
-6.3199496e+95
-6.3216177e+95
-6.3755349e+95
-6.7228538e+95
-6.7558888e+95
-6.7257821e+95
-6.7586032e+95
-6.667939e+95
-6.6717863e+95
-6.6982529e+95
-6.7019195e+95
-6.6615836e+95
-6.6919532e+95
-6.6646883e+95
-6.6950462e+95
-6.7287983e+95
-6.7326191e+95
-6.761754e+95
-6.7657157e+95
-6.5823259e+95
-6.5864799e+95
-6.5069911e+95
-6.5586072e+95
-6.5542648e+95
-6.5752808e+95
-6.5787748e+95
-6.4994812e+95
-6.5504824e+95
-6.5470129e+95
-6.6097358e+95
-6.6388754e+95
-6.6138728e+95
-6.6428633e+95
-6.6030353e+95
-6.6324041e+95
-6.6064297e+95
-6.6355549e+95
-6.4440912e+95
-6.4517935e+95
-6.5896692e+95
-6.5935464e+95
-6.5656679e+95
-6.5619095e+95
-6.6170571e+95
-6.6460825e+95
-6.6208868e+95
-6.6497046e+95
-6.7124402e+95
-6.7359833e+95
-6.7691486e+95
-6.7397761e+95
-6.7728374e+95
-6.6748969e+95
-6.7051063e+95
-6.6785155e+95
-6.7088608e+95
-6.7431971e+95
-6.7763106e+95
-6.746742e+95
-6.7798525e+95
-6.391643e+95
-6.3378861e+95
-6.345202e+95
-6.3991798e+95
-5.8600786e+95
-5.8584546e+95
-5.6578769e+95
-5.6562402e+95
-5.3987501e+95
-6.0646237e+95
-6.1463972e+95
-6.1474659e+95
-6.0633583e+95
-6.2092497e+95
-6.2081653e+95
-6.2656802e+95
-6.2669207e+95
-6.2705379e+95
-6.2129117e+95
-6.2183496e+95
-6.2762004e+95
-6.1499922e+95
-6.0648395e+95
-6.1547269e+95
-6.0691537e+95
-6.159292e+95
-6.071823e+95
-6.1650709e+95
-6.2829403e+95
-6.2236116e+95
-6.2303947e+95
-6.2898693e+95
-7.0436164e+95
-7.1054829e+95
-7.0470981e+95
-7.1088245e+95
-7.0503388e+95
-7.054264e+95
-7.1121036e+95
-7.1159521e+95
-6.9437392e+95
-6.9921189e+95
-6.9469224e+95
-6.9956151e+95
-6.9502977e+95
-6.998993e+95
-6.954284e+95
-7.0027388e+95
-6.8605681e+95
-6.8635882e+95
-6.9017922e+95
-6.9048397e+95
-6.8669212e+95
-6.8709515e+95
-6.9082328e+95
-6.9122497e+95
-6.788719e+95
-6.8240538e+95
-6.7915027e+95
-6.8270287e+95
-6.7947649e+95
-6.7987681e+95
-6.830407e+95
-6.8343124e+95
-6.8092784e+95
-6.8127908e+95
-6.8448555e+95
-6.8481794e+95
-6.8020899e+95
-6.8058063e+95
-6.8375904e+95
-6.8413754e+95
-6.874201e+95
-6.8779275e+95
-6.9155827e+95
-6.919259e+95
-6.8812514e+95
-6.8846229e+95
-6.9226112e+95
-6.9259224e+95
-6.964591e+95
-7.0134486e+95
-6.9679095e+95
-7.0165793e+95
-6.9574951e+95
-7.0060136e+95
-6.9612236e+95
-7.0100057e+95
-7.0575308e+95
-7.1194021e+95
-7.0614566e+95
-7.1232808e+95
-7.0647883e+95
-7.126656e+95
-7.0681405e+95
-7.1300812e+95
-7.2015252e+95
-7.2031763e+95
-7.1984235e+95
-7.2000129e+95
-7.1914465e+95
-7.1933259e+95
-7.1950967e+95
-7.1970794e+95
-7.1775441e+95
-7.1790829e+95
-7.1806264e+95
-7.1824863e+95
-7.1840673e+95
-7.1858338e+95
-7.1875354e+95
-7.1897437e+95
-7.106181e+95
-7.1093297e+95
-7.1128563e+95
-7.1167429e+95
-7.0921523e+95
-7.0949716e+95
-7.0986193e+95
-7.1027347e+95
-7.1197828e+95
-7.1225065e+95
-7.1251797e+95
-7.1282332e+95
-7.1360506e+95
-7.1390304e+95
-7.130721e+95
-7.1332509e+95
-7.1561383e+95
-7.1576579e+95
-7.1592026e+95
-7.1612111e+95
-7.1511428e+95
-7.1520722e+95
-7.1531519e+95
-7.154728e+95
-7.1737702e+95
-7.1759965e+95
-7.1719314e+95
-7.1700252e+95
-7.1627826e+95
-7.1644346e+95
-7.1682574e+95
-7.1660691e+95
-6.9758675e+95
-6.9565615e+95
-6.7072988e+95
-6.9696093e+95
-6.9791747e+95
-7.2400757e+95
-7.2330286e+95
-7.0309089e+95
-7.1599105e+95
-7.1670314e+95
-7.2465882e+95
-7.2861569e+95
-7.2829671e+95
-7.2948755e+95
-7.2982173e+95
-7.3292717e+95
-7.3326368e+95
-7.3159144e+95
-7.3193805e+95
-7.3264721e+95
-7.3254196e+95
-7.3284766e+95
-7.3275759e+95
-7.3292577e+95
-7.3306327e+95
-7.3301105e+95
-7.3317134e+95
-7.322726e+95
-7.3260974e+95
-7.3332444e+95
-7.332216e+95
-7.3351989e+95
-7.3343405e+95
-7.335904e+95
-7.3371955e+95
-7.3367163e+95
-7.3382591e+95
-7.3138409e+95
-7.3226874e+95
-7.3246394e+95
-7.3158613e+95
-7.3279008e+95
-7.3262478e+95
-7.3190327e+95
-7.317462e+95
-7.3005029e+95
-7.2697499e+95
-7.2713369e+95
-7.3020372e+95
-7.2661612e+95
-7.2968905e+95
-7.2988169e+95
-7.2681109e+95
-7.3034937e+95
-7.3054374e+95
-7.2749263e+95
-7.272926e+95
-7.2766535e+95
-7.3071596e+95
-7.3086665e+95
-7.2782602e+95
-7.3313326e+95
-7.3294405e+95
-7.3223977e+95
-7.3205742e+95
-7.3344432e+95
-7.3328014e+95
-7.3256712e+95
-7.3238794e+95
-7.2798264e+95
-7.2758808e+95
-7.2879045e+95
-7.2917215e+95
-7.2725383e+95
-7.2691873e+95
-7.2811443e+95
-7.2845449e+95
-7.3408466e+95
-7.3387134e+95
-7.3397571e+95
-7.3417668e+95
-7.3433593e+95
-7.3424842e+95
-7.3437828e+95
-7.3449134e+95
-7.3339138e+95
-7.3426148e+95
-7.3442662e+95
-7.3355847e+95
-7.2869291e+95
-7.3172348e+95
-7.3188385e+95
-7.2885165e+95
-7.3379844e+95
-7.3359873e+95
-7.3272016e+95
-7.3293149e+95
-7.2800062e+95
-7.3104317e+95
-7.3124437e+95
-7.2820539e+95
-7.3308641e+95
-7.3395598e+95
-7.3412229e+95
-7.3325366e+95
-7.3156217e+95
-7.3141544e+95
-7.2838227e+95
-7.2852571e+95
-7.1277699e+95
-7.2602683e+95
-7.2543115e+95
-7.0934593e+95
-7.1040408e+95
-7.1385447e+95
-7.265678e+95
-7.2713195e+95
-7.2160406e+95
-7.2106619e+95
-7.0107779e+95
-7.1393347e+95
-7.1436455e+95
-7.2271408e+95
-7.2212387e+95
-7.0196646e+95
-7.1484346e+95
-7.1543581e+95
-7.0831979e+95
-7.0733504e+95
-7.1077803e+95
-7.2373127e+95
-7.2309386e+95
-7.1169752e+95
-7.2485055e+95
-7.2428832e+95
-7.2529629e+95
-7.2596039e+95
-7.2655879e+95
-7.2714142e+95
-7.270592e+95
-7.2746801e+95
-7.2737727e+95
-7.2697984e+95
-7.2773095e+95
-7.2805112e+95
-7.2782126e+95
-7.2816809e+95
-7.2599483e+95
-7.2341434e+95
-7.2639923e+95
-7.2381353e+95
-7.2676593e+95
-7.2710495e+95
-7.2418766e+95
-7.2453152e+95
-7.2849029e+95
-7.2870316e+95
-7.2836482e+95
-7.2884358e+95
-7.2900014e+95
-7.2928541e+95
-7.2914418e+95
-7.2945291e+95
-7.2744434e+95
-7.2779081e+95
-7.2487915e+95
-7.252338e+95
-7.2811513e+95
-7.2557365e+95
-7.2841617e+95
-7.2587945e+95
-7.2773404e+95
-7.2833645e+95
-7.2889339e+95
-7.2945948e+95
-7.2958598e+95
-7.2992913e+95
-7.2975295e+95
-7.3010074e+95
-7.3023703e+95
-7.3051994e+95
-7.3040289e+95
-7.3070453e+95
-7.2873405e+95
-7.290689e+95
-7.26217e+95
-7.2654325e+95
-7.2967162e+95
-7.2938769e+95
-7.2686136e+95
-7.2712456e+95
-7.3139576e+95
-7.3167424e+95
-7.3187482e+95
-7.3157919e+95
-7.2996826e+95
-7.302782e+95
-7.2742762e+95
-7.2771957e+95
-7.3111685e+95
-7.3080269e+95
-7.3098696e+95
-7.3130899e+95
-7.3056384e+95
-7.3084416e+95
-7.2800394e+95
-7.2825949e+95
-7.2486966e+95
-7.2459236e+95
-7.2602509e+95
-7.2574492e+95
-7.2912156e+95
-7.2943568e+95
-7.2546933e+95
-7.2515079e+95
-7.2662727e+95
-7.2631544e+95
-7.2973686e+95
-7.3004376e+95
-7.3024164e+95
-7.3003729e+95
-7.30133e+95
-7.3032056e+95
-7.3047297e+95
-7.3039784e+95
-7.305207e+95
-7.3061779e+95
-7.3076122e+95
-7.3066725e+95
-7.3094495e+95
-7.3086796e+95
-7.310152e+95
-7.311317e+95
-7.3108776e+95
-7.3122843e+95
-7.2407993e+95
-7.2718264e+95
-7.2734783e+95
-7.2423346e+95
-7.2436801e+95
-7.2750168e+95
-7.2761251e+95
-7.2448581e+95
-7.2993412e+95
-7.2975435e+95
-7.2904413e+95
-7.2886599e+95
-7.302308e+95
-7.3008199e+95
-7.2933522e+95
-7.2918387e+95
-7.2460947e+95
-7.2774043e+95
-7.2790662e+95
-7.2477879e+95
-7.249329e+95
-7.2806367e+95
-7.2820376e+95
-7.2507825e+95
-7.3055005e+95
-7.3037284e+95
-7.2963915e+95
-7.2946285e+95
-7.3083623e+95
-7.3068744e+95
-7.2993369e+95
-7.2977118e+95
-7.2664567e+95
-7.2631442e+95
-7.2750786e+95
-7.2783012e+95
-7.3096553e+95
-7.3127913e+95
-7.2602632e+95
-7.2573403e+95
-7.272112e+95
-7.2690024e+95
-7.3033898e+95
-7.3066067e+95
-7.3148261e+95
-7.312772e+95
-7.3137257e+95
-7.3156379e+95
-7.3171886e+95
-7.3164044e+95
-7.3176696e+95
-7.3186951e+95
-7.320142e+95
-7.3191358e+95
-7.3220091e+95
-7.3211543e+95
-7.3226421e+95
-7.3238825e+95
-7.3234693e+95
-7.3249584e+95
-7.3117095e+95
-7.3098315e+95
-7.300836e+95
-7.3027935e+95
-7.2522396e+95
-7.2835878e+95
-7.2855377e+95
-7.254212e+95
-7.3148102e+95
-7.3132322e+95
-7.3043258e+95
-7.3059219e+95
-7.2886838e+95
-7.2872364e+95
-7.2559366e+95
-7.2575468e+95
-7.3181232e+95
-7.3163006e+95
-7.3074468e+95
-7.3092014e+95
-7.3211439e+95
-7.3195569e+95
-7.3107137e+95
-7.3123398e+95
-7.2920742e+95
-7.2901651e+95
-7.2591305e+95
-7.2611302e+95
-7.295175e+95
-7.293692e+95
-7.2628788e+95
-7.2644525e+95
-7.2071691e+95
-7.2055082e+95
-7.1824388e+95
-7.1839073e+95
-7.2096374e+95
-7.2087231e+95
-7.1851368e+95
-7.1863742e+95
-7.2123528e+95
-7.2107688e+95
-7.187595e+95
-7.1890784e+95
-7.2148539e+95
-7.2138545e+95
-7.1904309e+95
-7.1916811e+95
-7.1941567e+95
-7.1961942e+95
-7.1712713e+95
-7.1730341e+95
-7.1991118e+95
-7.197806e+95
-7.1744719e+95
-7.1758242e+95
-7.2016823e+95
-7.2000796e+95
-7.1770268e+95
-7.1785119e+95
-7.2043881e+95
-7.2032758e+95
-7.1798812e+95
-7.1811754e+95
-7.167275e+95
-7.166134e+95
-7.1698143e+95
-7.1684098e+95
-7.1728877e+95
-7.1713087e+95
-7.1760824e+95
-7.174347e+95
-7.1796627e+95
-7.1778447e+95
-7.1833353e+95
-7.1813774e+95
-7.1852018e+95
-7.187117e+95
-7.1907752e+95
-7.1888555e+95
-7.1942439e+95
-7.1924962e+95
-7.1974943e+95
-7.1958678e+95
-7.1993e+95
-7.2011053e+95
-7.2027724e+95
-7.2047011e+95
-7.208621e+95
-7.206576e+95
-7.2104306e+95
-7.2121417e+95
-7.2151613e+95
-7.2135488e+95
-7.2179432e+95
-7.2165641e+95
-7.1753832e+95
-7.1733017e+95
-7.1499907e+95
-7.1520978e+95
-7.1789622e+95
-7.1774965e+95
-7.1559441e+95
-7.1540418e+95
-7.1679494e+95
-7.165918e+95
-7.143001e+95
-7.1447465e+95
-7.1463895e+95
-7.1698677e+95
-7.1714683e+95
-7.1481695e+95
-7.182385e+95
-7.1806833e+95
-7.1593222e+95
-7.1576726e+95
-7.1858571e+95
-7.1846375e+95
-7.1610104e+95
-7.1626936e+95
-7.1892866e+95
-7.1874693e+95
-7.1642747e+95
-7.1661077e+95
-7.1926972e+95
-7.1912068e+95
-7.1678469e+95
-7.1696028e+95
-6.6358706e+95
-6.6384012e+95
-6.6650366e+95
-6.6675634e+95
-6.6316951e+95
-6.6607218e+95
-6.6335983e+95
-6.6626977e+95
-6.6947478e+95
-6.7270022e+95
-6.6974823e+95
-6.7298307e+95
-6.6904685e+95
-6.7226827e+95
-6.6924152e+95
-6.7245917e+95
-6.5799438e+95
-6.6079507e+95
-6.582302e+95
-6.6104257e+95
-6.5758321e+95
-6.6038541e+95
-6.5778668e+95
-6.6057497e+95
-6.5490224e+95
-6.5510199e+95
-6.521875e+95
-6.5236887e+95
-6.4721465e+95
-6.5530723e+95
-6.5552574e+95
-6.5277726e+95
-6.5256145e+95
-6.4768699e+95
-6.4172391e+95
-6.4222205e+95
-6.5691081e+95
-6.5968482e+95
-6.5706379e+95
-6.5981983e+95
-6.5455439e+95
-6.5474286e+95
-6.5204382e+95
-6.5185004e+95
-6.4685387e+95
-6.5422342e+95
-6.5439094e+95
-6.4643817e+95
-6.5166167e+95
-6.5148138e+95
-6.5719894e+95
-6.5998657e+95
-6.57397e+95
-6.6020102e+95
-6.414195e+95
-6.4101828e+95
-6.6277521e+95
-6.6570281e+95
-6.629932e+95
-6.659111e+95
-6.6243982e+95
-6.6534361e+95
-6.6258165e+95
-6.6550118e+95
-6.6833703e+95
-6.715649e+95
-6.6849716e+95
-6.7172521e+95
-6.6868937e+95
-6.71916e+95
-6.6889635e+95
-6.7211975e+95
-6.3053732e+95
-6.3100594e+95
-6.3627436e+95
-6.3585447e+95
-6.3173161e+95
-6.3133355e+95
-6.3656227e+95
-6.3701771e+95
-6.6099613e+95
-6.6118047e+95
-6.6382628e+95
-6.6403203e+95
-6.6671618e+95
-6.6695493e+95
-6.6984879e+95
-6.701221e+95
-6.5556918e+95
-6.5828362e+95
-6.5571372e+95
-6.5845093e+95
-6.5307838e+95
-6.5039532e+95
-6.5320359e+95
-6.5341843e+95
-6.4544746e+95
-6.5065863e+95
-6.5049691e+95
-6.5585686e+95
-6.5864026e+95
-6.5610266e+95
-6.5889902e+95
-6.4055598e+95
-6.4008297e+95
-6.4594764e+95
-6.5370316e+95
-6.5402275e+95
-6.512617e+95
-6.5092979e+95
-6.5639539e+95
-6.5920391e+95
-6.5671326e+95
-6.595106e+95
-6.3009478e+95
-6.3496579e+95
-6.3538414e+95
-6.6198841e+95
-6.6490358e+95
-6.6228136e+95
-6.6518366e+95
-6.6787443e+95
-6.7108373e+95
-6.6816508e+95
-6.7138431e+95
-6.614041e+95
-6.642856e+95
-6.6168236e+95
-6.6459345e+95
-6.6723827e+95
-6.7042734e+95
-6.6756223e+95
-6.7076231e+95
-6.9716663e+95
-7.0315211e+95
-6.9744109e+95
-7.0341328e+95
-6.8802161e+95
-6.8836992e+95
-6.9274752e+95
-6.9307791e+95
-6.9247805e+95
-6.9772389e+95
-7.0374845e+95
-6.9807972e+95
-7.0413761e+95
-6.8937292e+95
-6.8969928e+95
-6.9407954e+95
-6.9441038e+95
-6.886973e+95
-6.9339191e+95
-6.8903847e+95
-6.9374188e+95
-6.9906307e+95
-6.9943139e+95
-7.0513114e+95
-7.0551878e+95
-7.0446863e+95
-6.9838949e+95
-6.9872471e+95
-7.0478444e+95
-6.8061282e+95
-6.846259e+95
-6.8096861e+95
-6.8496993e+95
-6.736211e+95
-6.7396686e+95
-6.7705987e+95
-6.7742039e+95
-6.8129114e+95
-6.8159639e+95
-6.8529819e+95
-6.8561452e+95
-6.7429187e+95
-6.7459689e+95
-6.7774816e+95
-6.7804506e+95
-6.7301029e+95
-6.7330647e+95
-6.7642387e+95
-6.7673518e+95
-6.7994109e+95
-6.8027869e+95
-6.8393905e+95
-6.8429145e+95
-6.7478695e+95
-6.7824037e+95
-6.7495651e+95
-6.7842793e+95
-6.7514522e+95
-6.7862313e+95
-6.7534906e+95
-6.7882341e+95
-6.8218852e+95
-6.8623609e+95
-6.8240879e+95
-6.8647086e+95
-6.8179756e+95
-6.8582627e+95
-6.81988e+95
-6.860237e+95
-6.9035793e+95
-6.9515646e+95
-6.906001e+95
-6.9539262e+95
-6.8992325e+95
-6.9466585e+95
-6.9013676e+95
-6.9492075e+95
-6.9971334e+95
-7.058183e+95
-6.9997374e+95
-7.0608261e+95
-7.0021691e+95
-7.0633867e+95
-7.0048236e+95
-7.0662546e+95
-6.8258474e+95
-6.8665351e+95
-6.8279454e+95
-6.8685835e+95
-6.7550224e+95
-6.7898472e+95
-6.7569896e+95
-6.7919602e+95
-6.7594048e+95
-6.7943866e+95
-6.7622554e+95
-6.7970875e+95
-6.8302788e+95
-6.8710226e+95
-6.8330426e+95
-6.8737822e+95
-6.9125792e+95
-6.9153526e+95
-6.9610103e+95
-6.9635769e+95
-6.9100456e+95
-6.9078656e+95
-6.9558944e+95
-6.9583814e+95
-7.0069628e+95
-7.0094772e+95
-7.0711199e+95
-7.0685901e+95
-7.0120921e+95
-7.0738459e+95
-7.0148217e+95
-7.0766846e+95
-5.8511327e+95
-6.1321751e+95
-6.0480271e+95
-6.1348177e+95
-6.1983518e+95
-6.1945309e+95
-6.251467e+95
-6.2562431e+95
-6.2604607e+95
-6.2036327e+95
-6.2083649e+95
-6.2641577e+95
-6.1405922e+95
-6.0540645e+95
-6.1461321e+95
-6.0624132e+95
-6.9158941e+95
-6.9393801e+95
-6.9412922e+95
-6.9177501e+95
-6.9215874e+95
-6.9195187e+95
-6.9430217e+95
-6.9449974e+95
-6.9917254e+95
-6.9629422e+95
-6.9900553e+95
-6.9647193e+95
-6.968517e+95
-6.9955702e+95
-6.9664707e+95
-6.9935441e+95
-6.9351634e+95
-6.9104819e+95
-6.9340001e+95
-6.9115456e+95
-6.9576368e+95
-6.984832e+95
-6.9857391e+95
-6.9586568e+95
-6.9378717e+95
-6.9127294e+95
-6.9363128e+95
-6.9143573e+95
-6.9598542e+95
-6.9869807e+95
-6.9614488e+95
-6.9885607e+95
-7.0446405e+95
-7.0120416e+95
-7.0436552e+95
-7.0129344e+95
-7.1137403e+95
-7.0761222e+95
-7.0770054e+95
-7.1145446e+95
-7.0157043e+95
-7.0472294e+95
-7.0141285e+95
-7.0458076e+95
-7.115562e+95
-7.0780686e+95
-7.0795931e+95
-7.1171108e+95
-7.0171358e+95
-7.0486272e+95
-7.0503731e+95
-7.018799e+95
-7.1184912e+95
-7.1200325e+95
-7.0826211e+95
-7.0809758e+95
-7.0206003e+95
-7.0521651e+95
-7.0226313e+95
-7.0540491e+95
-7.0863168e+95
-7.1237243e+95
-7.0843149e+95
-7.1216898e+95
-6.9302306e+95
-6.9536857e+95
-6.9557127e+95
-6.9321422e+95
-6.9355968e+95
-6.933788e+95
-6.9573795e+95
-6.9591457e+95
-7.0062347e+95
-6.9772167e+95
-7.004317e+95
-6.9791706e+95
-6.9828285e+95
-7.0101216e+95
-6.9809183e+95
-7.0081232e+95
-6.9484166e+95
-6.9231789e+95
-6.9465802e+95
-6.9249272e+95
-6.9700592e+95
-6.9970548e+95
-6.9986779e+95
-6.9717695e+95
-6.9520035e+95
-6.9265875e+95
-6.9500491e+95
-6.9285383e+95
-6.9734675e+95
-7.0004642e+95
-6.9754973e+95
-7.0025417e+95
-7.0572467e+95
-7.0240904e+95
-7.0555049e+95
-7.0257224e+95
-7.1268134e+95
-7.0878007e+95
-7.1252326e+95
-7.0894592e+95
-7.0296217e+95
-7.0610665e+95
-7.0274968e+95
-7.0590379e+95
-7.0911559e+95
-7.1284677e+95
-7.0933187e+95
-7.1306675e+95
-7.0313624e+95
-7.0628149e+95
-7.0649235e+95
-7.0333257e+95
-7.0352694e+95
-7.0669273e+95
-7.0373669e+95
-7.0689626e+95
-7.132487e+95
-7.1344597e+95
-7.095105e+95
-7.0971511e+95
-7.1012811e+95
-7.0990979e+95
-7.1364104e+95
-7.1386643e+95
-6.8624971e+95
-6.8408107e+95
-6.860552e+95
-6.8427029e+95
-6.8802561e+95
-6.901903e+95
-6.9036329e+95
-6.8820765e+95
-6.8660096e+95
-6.8444168e+95
-6.864189e+95
-6.8463214e+95
-6.8837616e+95
-6.9053402e+95
-6.88562e+95
-6.9071999e+95
-6.7698482e+95
-6.7870688e+95
-6.7889147e+95
-6.7716217e+95
-6.7733041e+95
-6.7905996e+95
-6.7924426e+95
-6.7751694e+95
-6.8041473e+95
-6.8225282e+95
-6.824369e+95
-6.8059801e+95
-6.8076776e+95
-6.8260904e+95
-6.8280209e+95
-6.8095789e+95
-6.7766707e+95
-6.7939347e+95
-6.7956195e+95
-6.778323e+95
-6.7814246e+95
-6.7798496e+95
-6.7971007e+95
-6.7985926e+95
-6.8110638e+95
-6.8294744e+95
-6.8310682e+95
-6.8126918e+95
-6.8157151e+95
-6.8141233e+95
-6.8325339e+95
-6.8341615e+95
-6.8477088e+95
-6.867419e+95
-6.8691372e+95
-6.8493136e+95
-6.852518e+95
-6.8508279e+95
-6.8707433e+95
-6.8724249e+95
-6.9089069e+95
-6.9107655e+95
-6.8871678e+95
-6.88894e+95
-6.8923247e+95
-6.8905493e+95
-6.9124184e+95
-6.9141946e+95
-6.848983e+95
-6.8281321e+95
-6.847791e+95
-6.8292575e+95
-6.8674543e+95
-6.8891222e+95
-6.89015e+95
-6.8685407e+95
-6.8320075e+95
-6.851613e+95
-6.8304611e+95
-6.8501348e+95
-6.8697098e+95
-6.8913719e+95
-6.871278e+95
-6.8929725e+95
-6.7631346e+95
-6.7802229e+95
-6.7819294e+95
-6.7647456e+95
-6.7663507e+95
-6.7835677e+95
-6.7855053e+95
-6.7682817e+95
-6.8169708e+95
-6.7971335e+95
-6.815298e+95
-6.7988235e+95
-6.82091e+95
-6.8005656e+95
-6.8188146e+95
-6.8025619e+95
-6.7761888e+95
-6.7580243e+95
-6.7749949e+95
-6.7591385e+95
-6.791852e+95
-6.8099822e+95
-6.811057e+95
-6.792977e+95
-6.7788256e+95
-6.7602811e+95
-6.7773335e+95
-6.7617638e+95
-6.7941839e+95
-6.8123101e+95
-6.7957189e+95
-6.8138523e+95
-6.8334082e+95
-6.8530518e+95
-6.8548753e+95
-6.8351258e+95
-6.8369977e+95
-6.8567574e+95
-6.8391235e+95
-6.8588152e+95
-6.8945369e+95
-6.8963842e+95
-6.872792e+95
-6.8746213e+95
-6.8785738e+95
-6.8764591e+95
-6.8982147e+95
-6.9002901e+95
-6.7107708e+95
-6.6941436e+95
-6.709643e+95
-6.6952047e+95
-6.725242e+95
-6.7417235e+95
-6.7427689e+95
-6.7263073e+95
-6.6975455e+95
-6.7130667e+95
-6.6962623e+95
-6.7118049e+95
-6.727374e+95
-6.7439047e+95
-6.7287265e+95
-6.7453241e+95
-6.6406162e+95
-6.6547038e+95
-6.6559194e+95
-6.6417295e+95
-6.6443245e+95
-6.6429154e+95
-6.6571692e+95
-6.6586211e+95
-6.6850491e+95
-6.6688708e+95
-6.6837558e+95
-6.6701297e+95
-6.6729878e+95
-6.6880684e+95
-6.6714136e+95
-6.6864084e+95
-6.6515229e+95
-6.6364495e+95
-6.6504586e+95