/*--------------------------------*- C++ -*----------------------------------*\
  =========                 |
  \\      /  F ield         | OpenFOAM: The Open Source CFD Toolbox
   \\    /   O peration     | Website:  https://openfoam.org
    \\  /    A nd           | Version:  7
     \\/     M anipulation  |
\*---------------------------------------------------------------------------*/
FoamFile
{
    version     2.0;
    format      ascii;
    class       volScalarField;
    location    "1000";
    object      pMean;
}
// * * * * * * * * * * * * * * * * * * * * * * * * * * * * * * * * * * * * * //

dimensions      [0 2 -2 0 0 0 0];

internalField   nonuniform List<scalar> 
34377
(
-2.1446774e+92
-2.1607869e+92
-2.1237669e+92
-2.1244524e+92
-2.1096569e+92
-2.1536564e+92
-2.1112199e+92
-1.9743924e+92
-2.0926512e+92
-2.092945e+92
-2.1201042e+92
-2.1300564e+92
-2.1204346e+92
-2.1659799e+92
-2.1308725e+92
-2.1219901e+92
-2.1404473e+92
-2.1403649e+92
-2.1403193e+92
-2.1425868e+92
-2.1402197e+92
-2.1405792e+92
-2.1415826e+92
-2.1427194e+92
-2.1030765e+92
-2.1178118e+92
-2.0991118e+92
-1.9722838e+92
-2.0232227e+92
-1.9718949e+92
-1.9710217e+92
-1.8511845e+92
-1.941793e+92
-1.9407051e+92
-1.9762733e+92
-1.9764609e+92
-2.0226171e+92
-2.1279207e+92
-2.1285973e+92
-2.086954e+92
-2.0891379e+92
-2.1259392e+92
-2.1280912e+92
-2.123108e+92
-2.1154416e+92
-2.1152241e+92
-2.1232301e+92
-2.1236909e+92
-2.1376207e+92
-2.1234128e+92
-2.1379653e+92
-2.1208189e+92
-2.1241618e+92
-2.1155748e+92
-2.1150598e+92
-2.1239488e+92
-2.1177742e+92
-2.126636e+92
-2.1308526e+92
-2.1245357e+92
-2.1387073e+92
-2.1239679e+92
-2.1381261e+92
-2.1389312e+92
-2.1383603e+92
-2.138719e+92
-2.1384253e+92
-2.1449054e+92
-2.1454419e+92
-2.1452419e+92
-2.1470316e+92
-2.1471971e+92
-2.145804e+92
-2.1455729e+92
-2.1465905e+92
-2.1456712e+92
-2.147385e+92
-2.1464585e+92
-2.149023e+92
-2.1460372e+92
-2.1486249e+92
-2.1458597e+92
-2.1473505e+92
-2.1362194e+92
-2.135249e+92
-2.1365321e+92
-2.1389609e+92
-1.9710178e+92
-1.9683927e+92
-2.0180746e+92
-2.0210152e+92
-1.8507717e+92
-1.9394457e+92
-1.9414545e+92
-1.9748578e+92
-1.9722599e+92
-2.0770348e+92
-2.0790298e+92
-2.0414593e+92
-2.0402005e+92
-2.0034058e+92
-1.9704043e+92
-1.9695674e+92
-2.0039091e+92
-1.8995266e+92
-2.0037782e+92
-1.9702259e+92
-1.9685755e+92
-2.0031666e+92
-1.8994356e+92
-1.8311682e+92
-1.8305793e+92
-1.8382898e+92
-1.8741124e+92
-1.8734782e+92
-1.8371264e+92
-2.0793758e+92
-2.0409614e+92
-2.040045e+92
-2.0782917e+92
-2.146185e+92
-2.1467101e+92
-2.146074e+92
-2.1469282e+92
-2.1240778e+92
-2.1217857e+92
-2.1243975e+92
-2.1247151e+92
-2.144951e+92
-2.1436307e+92
-2.1454278e+92
-2.1451488e+92
-2.0783297e+92
-2.0781024e+92
-2.1167893e+92
-2.1021874e+92
-2.1020247e+92
-2.1164822e+92
-2.124413e+92
-2.1355875e+92
-2.1358084e+92
-2.1242802e+92
-2.1340373e+92
-2.1337593e+92
-2.140053e+92
-2.1403298e+92
-2.1248927e+92
-2.1245594e+92
-2.135969e+92
-2.1360287e+92
-2.1336454e+92
-2.1398741e+92
-2.1399156e+92
-2.1223104e+92
-2.1141311e+92
-2.1150473e+92
-2.1239412e+92
-2.1171553e+92
-2.1022744e+92
-2.1013639e+92
-2.1169783e+92
-2.1129859e+92
-2.1125961e+92
-2.1206538e+92
-2.1221269e+92
-2.1200596e+92
-2.1212893e+92
-2.1334837e+92
-2.1347239e+92
-2.1221037e+92
-2.1240707e+92
-2.1362542e+92
-2.1376287e+92
-2.1250335e+92
-2.1241577e+92
-2.1355678e+92
-2.1356395e+92
-2.1333219e+92
-2.1332753e+92
-2.1393839e+92
-2.1394935e+92
-2.1248021e+92
-2.1248078e+92
-2.1360202e+92
-2.1355447e+92
-2.1335785e+92
-2.1338803e+92
-2.1400411e+92
-2.1401324e+92
-2.1444092e+92
-2.1443754e+92
-2.144571e+92
-2.1457391e+92
-2.143355e+92
-2.1439701e+92
-2.1437e+92
-2.1454353e+92
-2.1490922e+92
-2.1502611e+92
-2.1512573e+92
-2.1497654e+92
-2.1506053e+92
-2.1500384e+92
-2.1501991e+92
-2.1513532e+92
-2.1501701e+92
-2.1507941e+92
-2.151367e+92
-2.150375e+92
-2.1506844e+92
-2.1500847e+92
-2.1516154e+92
-2.1506117e+92
-2.1513366e+92
-2.1505609e+92
-2.1513865e+92
-2.1526864e+92
-2.1513082e+92
-2.1508089e+92
-2.1514944e+92
-2.1524456e+92
-2.1508397e+92
-2.1511938e+92
-2.1515053e+92
-2.152693e+92
-2.1527273e+92
-2.1511105e+92
-2.1504975e+92
-2.1515978e+92
-2.1412855e+92
-2.143678e+92
-2.14136e+92
-2.1402017e+92
-2.1421094e+92
-2.1422917e+92
-2.1429119e+92
-2.1438378e+92
-2.0023928e+92
-1.9682763e+92
-1.9682645e+92
-2.0020029e+92
-1.90066e+92
-1.9998184e+92
-1.9680183e+92
-1.9669255e+92
-1.897699e+92
-2.0009505e+92
-2.0726608e+92
-2.0755271e+92
-2.0375658e+92
-2.0354828e+92
-2.0383471e+92
-2.0760869e+92
-2.0386711e+92
-2.0762078e+92
-1.8303874e+92
-1.837745e+92
-1.8727244e+92
-1.8739504e+92
-1.8371523e+92
-2.093835e+92
-2.0924886e+92
-2.11278e+92
-2.114545e+92
-2.0945985e+92
-2.094659e+92
-2.1151493e+92
-2.1148198e+92
-2.0671809e+92
-2.0459218e+92
-2.0461183e+92
-2.0671101e+92
-2.0656715e+92
-2.045299e+92
-2.0447851e+92
-2.0665561e+92
-2.0185434e+92
-2.0020621e+92
-2.0015371e+92
-2.0192159e+92
-1.9814382e+92
-1.9807481e+92
-1.9648723e+92
-1.9656892e+92
-1.9282687e+92
-1.9651878e+92
-1.9653581e+92
-1.9813425e+92
-1.929322e+92
-1.9812538e+92
-2.0020992e+92
-2.0020755e+92
-2.0196306e+92
-2.0196079e+92
-1.8960938e+92
-1.8945357e+92
-2.0192947e+92
-2.0022367e+92
-2.0019968e+92
-2.019586e+92
-1.9653731e+92
-1.9647325e+92
-1.9815932e+92
-1.9812194e+92
-1.9295399e+92
-1.965111e+92
-1.9814438e+92
-2.0196597e+92
-2.0021205e+92
-2.0193278e+92
-1.8967278e+92
-1.7689688e+92
-1.8324559e+92
-1.8685857e+92
-1.8694887e+92
-1.8326769e+92
-1.8339994e+92
-1.8710273e+92
-2.1152238e+92
-2.1164636e+92
-2.0945627e+92
-2.09543e+92
-2.0671763e+92
-2.0678055e+92
-2.0457961e+92
-2.0459792e+92
-2.045573e+92
-2.0457658e+92
-2.0676076e+92
-2.0670661e+92
-2.0944554e+92
-2.0950569e+92
-2.1163071e+92
-2.1153962e+92
-2.153304e+92
-2.1539112e+92
-2.1533728e+92
-2.1541068e+92
-2.152718e+92
-2.1535095e+92
-2.1535595e+92
-2.1532091e+92
-2.1421414e+92
-2.1420924e+92
-2.1398138e+92
-2.1413125e+92
-2.1426252e+92
-2.1435505e+92
-2.1434659e+92
-2.1438162e+92
-2.1522439e+92
-2.1517372e+92
-2.1511293e+92
-2.1519806e+92
-2.1523569e+92
-2.1527735e+92
-2.1519366e+92
-2.1524387e+92
-2.0778573e+92
-2.0767714e+92
-2.0358051e+92
-2.1050693e+92
-2.1300666e+92
-2.1298002e+92
-2.1294449e+92
-2.1299945e+92
-2.1426448e+92
-2.139112e+92
-2.1392617e+92
-2.1412286e+92
-2.1412074e+92
-2.139317e+92
-2.1392249e+92
-2.1412919e+92
-2.1415394e+92
-2.1452961e+92
-2.1454435e+92
-2.1504954e+92
-2.1494475e+92
-2.1507199e+92
-2.1500053e+92
-2.1456584e+92
-2.1455653e+92
-2.1428607e+92
-2.1427646e+92
-2.1390893e+92
-2.1392064e+92
-2.1413341e+92
-2.1412021e+92
-2.1450373e+92
-2.1497185e+92
-2.1454042e+92
-2.1499616e+92
-2.1453307e+92
-2.1501964e+92
-2.116136e+92
-2.1015657e+92
-2.1021267e+92
-2.1166932e+92
-2.1052279e+92
-2.1292549e+92
-2.130069e+92
-2.0762623e+92
-2.0762286e+92
-2.1048864e+92
-2.1300595e+92
-2.1297717e+92
-2.0994796e+92
-2.1000376e+92
-2.1142183e+92
-2.1150079e+92
-2.1310244e+92
-2.120267e+92
-2.1215638e+92
-2.1318061e+92
-2.1322235e+92
-2.1219618e+92
-2.1223872e+92
-2.1332216e+92
-2.1285734e+92
-2.1293246e+92
-2.1345144e+92
-2.135322e+92
-2.1298599e+92
-2.1306438e+92
-2.1361473e+92
-2.1367595e+92
-2.1338713e+92
-2.1229296e+92
-2.1236951e+92
-2.1344187e+92
-2.1344472e+92
-2.1237906e+92
-2.12416e+92
-2.1352969e+92
-2.1316489e+92
-2.1320646e+92
-2.1379589e+92
-2.1382266e+92
-2.1328069e+92
-2.1383298e+92
-2.1320975e+92
-2.138966e+92
-2.142095e+92
-2.1424029e+92
-2.1382204e+92
-2.1384817e+92
-2.1402423e+92
-2.1401946e+92
-2.1384829e+92
-2.1386347e+92
-2.1401811e+92
-2.1406617e+92
-2.1479609e+92
-2.1493055e+92
-2.1441314e+92
-2.1444347e+92
-2.1498218e+92
-2.149389e+92
-2.1446551e+92
-2.1447925e+92
-2.1426927e+92
-2.1424658e+92
-2.1387911e+92
-2.1390215e+92
-2.1408777e+92
-2.141059e+92
-2.1389373e+92
-2.1390225e+92
-2.1409508e+92
-2.1412999e+92
-2.1451093e+92
-2.1496643e+92
-2.1453355e+92
-2.1505445e+92
-2.1452512e+92
-2.1452394e+92
-2.1501783e+92
-2.14945e+92
-2.1488672e+92
-2.1493806e+92
-2.150764e+92
-2.149647e+92
-2.1494732e+92
-2.1506276e+92
-2.1486951e+92
-2.149257e+92
-2.1472774e+92
-2.1479004e+92
-2.1481056e+92
-2.1494333e+92
-2.1496532e+92
-2.1486102e+92
-2.1482613e+92
-2.1489531e+92
-2.1472845e+92
-2.1469686e+92
-2.1532206e+92
-2.1544933e+92
-2.1468995e+92
-2.1476098e+92
-2.1548595e+92
-2.1541375e+92
-2.1473987e+92
-2.1472506e+92
-2.1545663e+92
-2.1552942e+92
-2.147083e+92
-2.1475667e+92
-2.1548795e+92
-2.1539347e+92
-2.1472529e+92
-2.147234e+92
-2.1541983e+92
-2.1551553e+92
-2.1467114e+92
-2.1472135e+92
-2.154963e+92
-2.154246e+92
-2.154524e+92
-2.1471572e+92
-2.1474113e+92
-2.1552833e+92
-2.1475516e+92
-2.147658e+92
-2.1549592e+92
-2.1541873e+92
-2.1482104e+92
-2.1486178e+92
-2.1549138e+92
-2.1558391e+92
-2.1479134e+92
-2.1482356e+92
-2.1560174e+92
-2.1553694e+92
-2.1481102e+92
-2.155361e+92
-2.1484326e+92
-2.1560583e+92
-2.1558494e+92
-2.1487239e+92
-2.1483203e+92
-2.1549864e+92
-2.1486097e+92
-2.1485566e+92
-2.1552474e+92
-2.1561732e+92
-2.1563047e+92
-2.1490614e+92
-2.1479932e+92
-2.1554481e+92
-2.1485483e+92
-2.1493758e+92
-2.1555797e+92
-2.1559797e+92
-2.1479364e+92
-2.1487994e+92
-2.1558865e+92
-2.154822e+92
-2.1454431e+92
-2.1452242e+92
-2.1470431e+92
-2.1463199e+92
-2.1438486e+92
-2.1447552e+92
-2.1451334e+92
-2.1467295e+92
-2.1472641e+92
-2.1457722e+92
-2.1466271e+92
-2.1483259e+92
-2.146911e+92
-2.1464999e+92
-2.1483727e+92
-2.1473372e+92
-2.0013984e+92
-2.0012323e+92
-2.0184007e+92
-2.0184061e+92
-1.9806983e+92
-1.9805905e+92
-1.9646209e+92
-1.9648391e+92
-1.9281081e+92
-1.9798079e+92
-1.9643217e+92
-1.9639749e+92
-1.980252e+92
-1.9283487e+92
-2.0007145e+92
-2.0002316e+92
-2.0177383e+92
-2.0182616e+92
-1.8957944e+92
-1.8964758e+92
-1.9992055e+92
-2.0160857e+92
-1.9790697e+92
-1.9635108e+92
-1.962957e+92
-1.9791407e+92
-1.9269967e+92
-1.9634027e+92
-1.9794582e+92
-1.8939739e+92
-2.0002082e+92
-2.0174443e+92
-1.9996674e+92
-2.017005e+92
-2.1093234e+92
-2.090106e+92
-2.1111293e+92
-2.0915448e+92
-2.0912206e+92
-2.1119599e+92
-2.1121515e+92
-2.0639798e+92
-2.0426239e+92
-2.0642505e+92
-2.0432762e+92
-2.0415141e+92
-2.0629722e+92
-2.0435589e+92
-2.0439843e+92
-2.0652919e+92
-2.0646054e+92
-2.0925548e+92
-2.0917625e+92
-2.1124252e+92
-2.1136418e+92
-2.0654111e+92
-2.0439426e+92
-2.0442434e+92
-2.0653824e+92
-2.092409e+92
-2.0925924e+92
-2.1137343e+92
-2.1130225e+92
-1.8350971e+92
-1.8718092e+92
-1.8730428e+92
-1.8361673e+92
-2.0982524e+92
-2.0985304e+92
-2.1107614e+92
-2.1107451e+92
-2.0974886e+92
-2.1097236e+92
-2.097894e+92
-2.1103913e+92
-2.1250866e+92
-2.1326411e+92
-2.1258551e+92
-2.133714e+92
-2.1262168e+92
-2.1340132e+92
-2.1262061e+92
-2.1334906e+92
-2.0992839e+92
-2.0993632e+92
-2.1117167e+92
-2.1115821e+92
-2.0987946e+92
-2.1109475e+92
-2.0991789e+92
-2.1115615e+92
-2.126248e+92
-2.1335703e+92
-2.1268509e+92
-2.1343828e+92
-2.127121e+92
-2.1269632e+92
-2.1347299e+92
-2.13423e+92
-2.0682282e+92
-2.080497e+92
-2.0685985e+92
-2.0809673e+92
-2.0433186e+92
-2.0435855e+92
-2.0530308e+92
-2.0533765e+92
-2.0437133e+92
-2.0438207e+92
-2.0535071e+92
-2.0534894e+92
-2.0686263e+92
-2.0686185e+92
-2.0811004e+92
-2.0809765e+92
-2.0670422e+92
-2.0791547e+92
-2.0674544e+92
-2.0796853e+92
-2.0427684e+92
-2.0430775e+92
-2.0525425e+92
-2.0527907e+92
-2.0424113e+92
-2.0520145e+92
-2.0426159e+92
-2.0523477e+92
-2.0676872e+92
-2.0679659e+92
-2.0800417e+92
-2.0802166e+92
-2.0186958e+92
-2.027124e+92
-2.0188948e+92
-2.0273333e+92
-1.9989833e+92
-1.9991725e+92
-2.0064679e+92
-2.0066401e+92
-1.9988135e+92
-2.0062341e+92
-1.9988633e+92
-2.0063292e+92
-2.0189977e+92
-2.0192431e+92
-2.0275081e+92
-2.027752e+92
-1.9783551e+92
-1.9856281e+92
-1.9785405e+92
-1.985756e+92
-1.9782098e+92
-1.9854656e+92
-1.9783024e+92
-1.9855156e+92
-1.9666225e+92
-1.9665545e+92
-1.9600128e+92
-1.9422125e+92
-1.9600529e+92
-1.9667688e+92
-1.9669107e+92
-1.9427742e+92
-1.9604361e+92
-1.9602075e+92
-1.9275263e+92
-1.9276408e+92
-1.9668685e+92
-1.9669302e+92
-1.9420501e+92
-1.9603706e+92
-1.9602519e+92
-1.9668301e+92
-1.9667895e+92
-1.9423688e+92
-1.960293e+92
-1.960295e+92
-1.9784892e+92
-1.9858138e+92
-1.978587e+92
-1.9858624e+92
-1.9270355e+92
-1.9269895e+92
-1.9786086e+92
-1.9859833e+92
-1.9787014e+92
-1.9860158e+92
-1.9993799e+92
-2.0070231e+92
-1.9994417e+92
-2.0070481e+92
-1.999235e+92
-2.0067573e+92
-1.9992753e+92
-2.0068644e+92
-2.0194213e+92
-2.0280129e+92
-2.0196266e+92
-2.028279e+92
-2.0197369e+92
-2.0284531e+92
-2.0197385e+92
-2.0284613e+92
-1.8945211e+92
-1.8951444e+92
-1.909298e+92
-1.9087124e+92
-1.9085979e+92
-1.8945398e+92
-1.8951436e+92
-1.9091585e+92
-2.0196595e+92
-2.0282664e+92
-2.0196666e+92
-2.0282522e+92
-1.9993536e+92
-1.9995076e+92
-2.0069811e+92
-2.0070478e+92
-1.999428e+92
-2.0070121e+92
-1.9993084e+92
-2.0069053e+92
-2.0196736e+92
-2.0197806e+92
-2.0283345e+92
-2.0284245e+92
-1.9669727e+92
-1.9671622e+92
-1.942483e+92
-1.960639e+92
-1.9602978e+92
-1.9668704e+92
-1.9667665e+92
-1.9420271e+92
-1.9601911e+92
-1.9602068e+92
-1.9786889e+92
-1.9859887e+92
-1.9788955e+92
-1.9861438e+92
-1.9786449e+92
-1.986005e+92
-1.9786706e+92
-1.9859184e+92
-1.9263727e+92
-1.9269715e+92
-1.9669503e+92
-1.966886e+92
-1.9603486e+92
-1.9603301e+92
-1.9786908e+92
-1.9860347e+92
-1.9787244e+92
-1.9860357e+92
-2.0070521e+92
-2.0196963e+92
-2.0284034e+92
-2.0197655e+92
-2.028484e+92
-1.9993843e+92
-2.0069891e+92
-1.9993767e+92
-2.0070062e+92
-2.0196961e+92
-2.0284936e+92
-2.0195506e+92
-2.028274e+92
-1.9086717e+92
-1.8946152e+92
-1.894637e+92
-1.9092623e+92
-1.8029713e+92
-1.8028162e+92
-1.7722753e+92
-1.769687e+92
-1.6882316e+92
-1.8381629e+92
-1.8546285e+92
-1.8555001e+92
-1.8379702e+92
-1.8667954e+92
-1.8655522e+92
-1.8776746e+92
-1.8788277e+92
-1.8786454e+92
-1.8673931e+92
-1.8667552e+92
-1.8779466e+92
-1.8556906e+92
-1.8380301e+92
-1.8554878e+92
-1.838737e+92
-1.8578072e+92
-1.8406752e+92
-1.8597492e+92
-1.8784936e+92
-1.8668912e+92
-1.86799e+92
-1.87942e+92
-2.1270037e+92
-2.1343747e+92
-2.1276819e+92
-2.1354098e+92
-2.1277597e+92
-2.1276854e+92
-2.1354803e+92
-2.1350445e+92
-2.0993216e+92
-2.1115951e+92
-2.0996482e+92
-2.1121793e+92
-2.0997486e+92
-2.1122839e+92
-2.0998631e+92
-2.1121501e+92
-2.0684935e+92
-2.0687271e+92
-2.0808724e+92
-2.0812514e+92
-2.068818e+92
-2.0688745e+92
-2.0813741e+92
-2.0813446e+92
-2.0436071e+92
-2.0533817e+92
-2.043611e+92
-2.0534923e+92
-2.0436375e+92
-2.0437781e+92
-2.053553e+92
-2.0535802e+92
-2.0436957e+92
-2.0436276e+92
-2.0536152e+92
-2.0533897e+92
-2.0436536e+92
-2.0437412e+92
-2.0534434e+92
-2.0536228e+92
-2.068664e+92
-2.0688797e+92
-2.0812347e+92
-2.0815541e+92
-2.0687705e+92
-2.0685418e+92
-2.0814443e+92
-2.0810047e+92
-2.0996744e+92
-2.1123819e+92
-2.0994587e+92
-2.1118731e+92
-2.099616e+92
-2.1119663e+92
-2.099868e+92
-2.112525e+92
-2.1275212e+92
-2.135163e+92
-2.1280932e+92
-2.1361199e+92
-2.1279299e+92
-2.1359885e+92
-2.1274277e+92
-2.1351322e+92
-2.1563897e+92
-2.1556829e+92
-2.1563544e+92
-2.1566337e+92
-2.1559882e+92
-2.156734e+92
-2.156809e+92
-2.1564886e+92
-2.1553667e+92
-2.1560678e+92
-2.1561999e+92
-2.1559165e+92
-2.1559837e+92
-2.1565465e+92
-2.1563188e+92
-2.1559106e+92
-2.148795e+92
-2.1492353e+92
-2.1495629e+92
-2.1491974e+92
-2.1464265e+92
-2.1473086e+92
-2.1482268e+92
-2.1481673e+92
-2.1497744e+92
-2.1506019e+92
-2.1508355e+92
-2.1506677e+92
-2.1514816e+92
-2.1508341e+92
-2.1509751e+92
-2.1514413e+92
-2.1547579e+92
-2.1553513e+92
-2.1550274e+92
-2.1545479e+92
-2.1537546e+92
-2.1546571e+92
-2.1548209e+92
-2.1544954e+92
-2.1554704e+92
-2.1550738e+92
-2.1557459e+92
-2.1551245e+92
-2.154636e+92
-2.1554566e+92
-2.1550204e+92
-2.1553139e+92
-2.0360467e+92
-2.0355448e+92
-1.9742189e+92
-2.0524705e+92
-2.0527392e+92
-2.1249705e+92
-2.1248514e+92
-2.0809089e+92
-2.1239501e+92
-2.1242779e+92
-2.1253102e+92
-2.1440844e+92
-2.1429837e+92
-2.1512492e+92
-2.1515798e+92
-2.1480384e+92
-2.1481058e+92
-2.147926e+92
-2.148072e+92
-2.1479287e+92
-2.1460304e+92
-2.1481389e+92
-2.1464154e+92
-2.1464156e+92
-2.1462605e+92
-2.1481504e+92
-2.1482118e+92
-2.1481356e+92
-2.1480919e+92
-2.1481894e+92
-2.1462484e+92
-2.1483287e+92
-2.1466055e+92
-2.1464377e+92
-2.1462491e+92
-2.1481885e+92
-2.1482234e+92
-2.1449762e+92
-2.1463775e+92
-2.1465392e+92
-2.1453204e+92
-2.1467949e+92
-2.1466824e+92
-2.1455004e+92
-2.1455721e+92
-2.1438148e+92
-2.1387238e+92
-2.1385708e+92
-2.1436341e+92
-2.1385983e+92
-2.1432966e+92
-2.1434557e+92
-2.1383521e+92
-2.1433799e+92
-2.1436034e+92
-2.1388479e+92
-2.1385462e+92
-2.138933e+92
-2.1435805e+92
-2.1431869e+92
-2.1385764e+92
-2.1468182e+92
-2.1468011e+92
-2.145337e+92
-2.1454321e+92
-2.1466368e+92
-2.1465788e+92
-2.1450924e+92
-2.1451149e+92
-2.1432492e+92
-2.1439844e+92
-2.1514569e+92
-2.1515075e+92
-2.1441101e+92
-2.1427381e+92
-2.1510653e+92
-2.1514901e+92
-2.1465093e+92
-2.1461616e+92
-2.1481566e+92
-2.1483142e+92
-2.1482444e+92
-2.1464847e+92
-2.1462905e+92
-2.1482916e+92
-2.1456117e+92
-2.1466929e+92
-2.1466486e+92
-2.1457255e+92
-2.1396111e+92
-2.1443207e+92
-2.14402e+92
-2.1388993e+92
-2.1467755e+92
-2.1466803e+92
-2.1453499e+92
-2.1456339e+92
-2.1387431e+92
-2.1434742e+92
-2.1438929e+92
-2.1387897e+92
-2.1457033e+92
-2.1467463e+92
-2.146913e+92
-2.1458519e+92
-2.1439293e+92
-2.1442618e+92
-2.1393098e+92
-2.1386594e+92
-2.1047598e+92
-2.1287229e+92
-2.128288e+92
-2.0759701e+92
-2.0765588e+92
-2.1056053e+92
-2.1289632e+92
-2.1289974e+92
-2.1250103e+92
-2.124639e+92
-2.0812814e+92
-2.1240492e+92
-2.1242199e+92
-2.1246383e+92
-2.1252678e+92
-2.0811412e+92
-2.1243486e+92
-2.1241293e+92
-2.0752808e+92
-2.0752576e+92
-2.1034827e+92
-2.1270993e+92
-2.1260194e+92
-2.103449e+92
-2.1276614e+92
-2.1276645e+92
-2.1379953e+92
-2.1387678e+92
-2.139415e+92
-2.1399392e+92
-2.1354946e+92
-2.1360257e+92
-2.1342473e+92
-2.1336096e+92
-2.1344654e+92
-2.1348019e+92
-2.1360297e+92
-2.1367912e+92
-2.1391788e+92
-2.1422871e+92
-2.1398247e+92
-2.1434413e+92
-2.1400663e+92
-2.1403671e+92
-2.1440442e+92
-2.1438787e+92
-2.137224e+92
-2.1357347e+92
-2.135211e+92
-2.1376317e+92
-2.135745e+92
-2.1360264e+92
-2.1375936e+92
-2.1382783e+92
-2.1409853e+92
-2.1413615e+92
-2.1446001e+92
-2.1453256e+92
-2.141547e+92
-2.1457044e+92
-2.1416444e+92
-2.145165e+92
-2.1405346e+92
-2.1410409e+92
-2.1414184e+92
-2.1417456e+92
-2.1364564e+92
-2.1368991e+92
-2.1386208e+92
-2.1389037e+92
-2.1370704e+92
-2.1373581e+92
-2.1389345e+92
-2.1394656e+92
-2.1422445e+92
-2.1426402e+92
-2.1461093e+92
-2.1468573e+92
-2.1431977e+92
-2.1430143e+92
-2.1478224e+92
-2.1472796e+92
-2.1378136e+92
-2.1381403e+92
-2.1403411e+92
-2.1397049e+92
-2.1436094e+92
-2.1438541e+92
-2.1480809e+92
-2.1485934e+92
-2.1378967e+92
-2.1375647e+92
-2.139535e+92
-2.1398181e+92
-2.1438213e+92
-2.1439754e+92
-2.1484712e+92
-2.1478931e+92
-2.1433644e+92
-2.1419208e+92
-2.1506977e+92
-2.1503285e+92
-2.1469694e+92
-2.1472129e+92
-2.1429542e+92
-2.143513e+92
-2.1509133e+92
-2.1508033e+92
-2.1472961e+92
-2.147436e+92
-2.145325e+92
-2.1449089e+92
-2.1467433e+92
-2.1469754e+92
-2.1470188e+92
-2.145359e+92
-2.1453242e+92
-2.1471988e+92
-2.1472455e+92
-2.1453309e+92
-2.1474584e+92
-2.1457345e+92
-2.1456556e+92
-2.1455895e+92
-2.1473676e+92
-2.1474827e+92
-2.137438e+92
-2.1418749e+92
-2.1421172e+92
-2.1375308e+92
-2.1380509e+92
-2.1426273e+92
-2.1421631e+92
-2.1374988e+92
-2.1452344e+92
-2.1450606e+92
-2.1436192e+92
-2.1433823e+92
-2.1457131e+92
-2.1454435e+92
-2.1442192e+92
-2.1440382e+92
-2.1378224e+92
-2.1424623e+92
-2.1426984e+92
-2.1379273e+92
-2.1379531e+92
-2.1426849e+92
-2.1423316e+92
-2.1375828e+92
-2.1459898e+92
-2.1458792e+92
-2.1445165e+92
-2.1444222e+92
-2.1459018e+92
-2.145772e+92
-2.1443533e+92
-2.1443168e+92
-2.1430038e+92
-2.1438298e+92
-2.1511502e+92
-2.1512054e+92
-2.1477647e+92
-2.1478397e+92
-2.1440132e+92
-2.1427654e+92
-2.1512041e+92
-2.1507348e+92
-2.1475125e+92
-2.1477162e+92
-2.1460086e+92
-2.145602e+92
-2.1475138e+92
-2.1477189e+92
-2.1477465e+92
-2.1460537e+92
-2.1459602e+92
-2.1478588e+92
-2.1478151e+92
-2.1459013e+92
-2.1479842e+92
-2.1462919e+92
-2.1461657e+92
-2.1460326e+92
-2.1478611e+92
-2.1479347e+92
-2.1461267e+92
-2.1460335e+92
-2.1446503e+92
-2.1448762e+92
-2.1376211e+92
-2.1426543e+92
-2.1430142e+92
-2.1376302e+92
-2.1463711e+92
-2.1462057e+92
-2.145141e+92
-2.1451985e+92
-2.1429999e+92
-2.1433231e+92
-2.1378659e+92
-2.1375792e+92
-2.1464269e+92
-2.1463708e+92
-2.1451953e+92
-2.1451886e+92
-2.1463094e+92
-2.1461837e+92
-2.1449655e+92
-2.1449119e+92
-2.1432915e+92
-2.1430245e+92
-2.1377428e+92
-2.138035e+92
-2.1428883e+92
-2.1431928e+92
-2.1380886e+92
-2.1379339e+92
-2.1467394e+92
-2.146482e+92
-2.1528477e+92
-2.1539216e+92
-2.1465543e+92
-2.1469337e+92
-2.1537135e+92
-2.1530225e+92
-2.1468706e+92
-2.1466236e+92
-2.1532487e+92
-2.154025e+92
-2.1463449e+92
-2.1466144e+92
-2.153453e+92
-2.1525855e+92
-2.145339e+92
-2.1456766e+92
-2.1513712e+92
-2.1525329e+92
-2.1459049e+92
-2.1461191e+92
-2.152756e+92
-2.1521668e+92
-2.1460605e+92
-2.1459989e+92
-2.1525501e+92
-2.1533536e+92
-2.1466024e+92
-2.1466408e+92
-2.1533021e+92
-2.152489e+92
-2.1533464e+92
-2.1527514e+92
-2.1532422e+92
-2.153505e+92
-2.1538721e+92
-2.1535382e+92
-2.1533845e+92
-2.1537163e+92
-2.1539491e+92
-2.1535464e+92
-2.1535457e+92
-2.1538186e+92
-2.1538279e+92
-2.1541534e+92
-2.15398e+92
-2.1540738e+92
-2.1547464e+92
-2.1546286e+92
-2.1546393e+92
-2.1548584e+92
-2.1548764e+92
-2.1551194e+92
-2.1551027e+92
-2.1548357e+92
-2.1552953e+92
-2.1550086e+92
-2.1555072e+92
-2.1550649e+92
-2.1551708e+92
-2.1554712e+92
-2.1545002e+92
-2.1550612e+92
-2.1437358e+92
-2.1440681e+92
-2.1497284e+92
-2.1504832e+92
-2.143715e+92
-2.1446046e+92
-2.149598e+92
-2.1505092e+92
-2.1427876e+92
-2.1427158e+92
-2.1480206e+92
-2.1492338e+92
-2.1494216e+92
-2.1433646e+92
-2.1429635e+92
-2.1489596e+92
-2.144098e+92
-2.1442273e+92
-2.1511412e+92
-2.1502608e+92
-2.1446474e+92
-2.1453528e+92
-2.1512229e+92
-2.1505838e+92
-2.145152e+92
-2.1451568e+92
-2.1510355e+92
-2.1518325e+92
-2.1452982e+92
-2.145594e+92
-2.1515287e+92
-2.150696e+92
-1.9986031e+92
-1.9987721e+92
-2.0060684e+92
-2.0061829e+92
-1.9984371e+92
-2.0058046e+92
-1.9985242e+92
-2.005946e+92
-2.0185718e+92
-2.02706e+92
-2.0186693e+92
-2.0271353e+92
-2.0183213e+92
-2.0267515e+92
-2.0185088e+92
-2.0269526e+92
-1.9780402e+92
-1.9853175e+92
-1.9781658e+92
-1.9854146e+92
-1.9778914e+92
-1.9851084e+92
-1.977971e+92
-1.9851827e+92
-1.9663522e+92
-1.9664122e+92
-1.9598019e+92
-1.9598062e+92
-1.9415578e+92
-1.9665151e+92
-1.9666591e+92
-1.960045e+92
-1.9598829e+92
-1.9416833e+92
-1.9261203e+92
-1.9267468e+92
-1.9775793e+92
-1.9847583e+92
-1.9775548e+92
-1.9847291e+92
-1.9661682e+92
-1.9664425e+92
-1.9599046e+92
-1.9596786e+92
-1.9415115e+92
-1.9659537e+92
-1.9659646e+92
-1.9411182e+92
-1.9595666e+92
-1.9595887e+92
-1.9776176e+92
-1.9848799e+92
-1.9778772e+92
-1.9851307e+92
-1.9263435e+92
-1.9258623e+92
-1.9981317e+92
-2.0056476e+92
-1.9984125e+92
-2.0058619e+92
-1.9979466e+92
-2.0054041e+92
-1.9979697e+92
-2.0054909e+92
-2.0178937e+92
-2.0265382e+92
-2.0180554e+92
-2.0266857e+92
-2.0182108e+92
-2.0267784e+92
-2.0184088e+92
-2.0269059e+92
-1.8931238e+92
-1.8942414e+92
-1.9085502e+92
-1.9078071e+92
-1.8938018e+92
-1.894073e+92
-1.9086234e+92
-1.9085355e+92
-1.9965177e+92
-1.9967887e+92
-2.003841e+92
-2.0041307e+92
-2.0161413e+92
-2.01651e+92
-2.0244825e+92
-2.0248611e+92
-1.9762767e+92
-1.9834076e+92
-1.9765216e+92
-1.9835984e+92
-1.9650846e+92
-1.9586211e+92
-1.9650592e+92
-1.9651076e+92
-1.9406055e+92
-1.958587e+92
-1.9585549e+92
-1.9766194e+92
-1.9838583e+92
-1.9769508e+92
-1.9841826e+92
-1.9256389e+92
-1.9258829e+92
-1.9407054e+92
-1.9654168e+92
-1.9657092e+92
-1.9592609e+92
-1.9588769e+92
-1.9773555e+92
-1.9845924e+92
-1.977607e+92
-1.9848033e+92
-1.8930043e+92
-1.907172e+92
-1.9072634e+92
-1.9976084e+92
-2.0051055e+92
-1.9978969e+92
-2.0053125e+92
-2.0176091e+92
-2.026211e+92
-2.0178209e+92
-2.0264302e+92
-1.9970438e+92
-2.0044516e+92
-1.9973055e+92
-2.0047812e+92
-2.0169107e+92
-2.0253731e+92
-2.0173221e+92
-2.0258595e+92
-2.1209838e+92
-2.1284954e+92
-2.121953e+92
-2.1297639e+92
-2.0947314e+92
-2.095126e+92
-2.1071173e+92
-2.1073007e+92
-2.1067365e+92
-2.1224465e+92
-2.1304297e+92
-2.1226953e+92
-2.1302372e+92
-2.0964183e+92
-2.096621e+92
-2.1087626e+92
-2.1086892e+92
-2.0956239e+92
-2.107775e+92
-2.0961615e+92
-2.1085146e+92
-2.1239972e+92
-2.1239095e+92
-2.1318033e+92
-2.1313337e+92
-2.1307802e+92
-2.1231238e+92
-2.1237749e+92
-2.1315174e+92
-2.0650458e+92
-2.0774253e+92
-2.065604e+92
-2.0780653e+92
-2.0404025e+92
-2.0408727e+92
-2.0499898e+92
-2.0505436e+92
-2.0658859e+92
-2.066068e+92
-2.0783671e+92
-2.0784042e+92
-2.0412042e+92
-2.0415384e+92
-2.0508985e+92
-2.0511015e+92
-2.0395079e+92
-2.0399374e+92
-2.0492115e+92
-2.0495366e+92
-2.0642318e+92
-2.0646068e+92
-2.0766403e+92
-2.0769222e+92
-2.0416412e+92
-2.0512424e+92
-2.0417708e+92
-2.0514882e+92
-2.0418203e+92
-2.0515546e+92
-2.0420333e+92
-2.0516627e+92
-2.066609e+92
-2.0791154e+92
-2.0667499e+92
-2.0791466e+92
-2.0661728e+92
-2.078538e+92
-2.0665043e+92
-2.0789887e+92
-2.097193e+92
-2.1096811e+92
-2.0973895e+92
-2.1096162e+92
-2.0966817e+92
-2.1088858e+92
-2.097047e+92
-2.1095029e+92
-2.1241341e+92
-2.1317119e+92
-2.1248489e+92
-2.1327681e+92
-2.1250542e+92
-2.1329766e+92
-2.1250582e+92
-2.1326862e+92
-2.0666885e+92
-2.079042e+92
-2.0670029e+92
-2.0794242e+92
-2.0419004e+92
-2.0515524e+92
-2.0421022e+92
-2.0518383e+92
-2.0421604e+92
-2.0519291e+92
-2.042349e+92
-2.051979e+92
-2.066999e+92
-2.0794627e+92
-2.0670188e+92
-2.0792676e+92
-2.0975551e+92
-2.0975514e+92
-2.1101351e+92
-2.1098368e+92
-2.097607e+92
-2.0972742e+92
-2.1095456e+92
-2.1101471e+92
-2.1250396e+92
-2.1256219e+92
-2.1335892e+92
-2.1328191e+92
-2.1255895e+92
-2.1335834e+92
-2.1252519e+92
-2.1327734e+92
-1.8022049e+92
-1.8571337e+92
-1.8406287e+92
-1.858602e+92
-1.8672483e+92
-1.8660037e+92
-1.8775789e+92
-1.878979e+92
-1.8783155e+92
-1.8670308e+92
-1.8664888e+92
-1.8779963e+92
-1.8581269e+92
-1.8407678e+92
-1.8571773e+92
-1.8407951e+92
-2.0974699e+92
-2.1049766e+92
-2.1053252e+92
-2.0977914e+92
-2.0979834e+92
-2.097853e+92
-2.1054507e+92
-2.105483e+92
-2.1215421e+92
-2.1138263e+92
-2.1212088e+92
-2.1141252e+92
-2.1142649e+92
-2.1214941e+92
-2.1142416e+92
-2.121648e+92
-2.1046934e+92
-2.096902e+92
-2.1044069e+92
-2.0971099e+92
-2.1131876e+92
-2.1204938e+92
-2.1209099e+92
-2.1134862e+92
-2.1047993e+92
-2.0971809e+92
-2.1048065e+92
-2.0972873e+92
-2.1136396e+92
-2.1211041e+92
-2.1136711e+92
-2.1210031e+92
-2.136307e+92
-2.1300767e+92
-2.1357838e+92
-2.1303943e+92
-2.1437431e+92
-2.1422084e+92
-2.1427497e+92
-2.1446033e+92
-2.130557e+92
-2.1361851e+92
-2.130573e+92
-2.1364368e+92
-2.1445806e+92
-2.142796e+92
-2.1426571e+92
-2.1442598e+92
-2.1307588e+92
-2.1363355e+92
-2.1367528e+92
-2.1310212e+92
-2.1443176e+92
-2.144937e+92
-2.1431329e+92
-2.1427337e+92
-2.1310721e+92
-2.1367796e+92
-2.1310281e+92
-2.1365396e+92
-2.1428552e+92
-2.1443379e+92
-2.1430732e+92
-2.1447876e+92
-2.0985215e+92
-2.1059903e+92
-2.1062855e+92
-2.0987655e+92
-2.0987294e+92
-2.0987174e+92
-2.1063136e+92
-2.1062306e+92
-2.1224977e+92
-2.1148358e+92
-2.1221569e+92
-2.1150939e+92
-2.1150246e+92
-2.1222834e+92
-2.1151109e+92
-2.1225247e+92
-2.1058747e+92
-2.0980805e+92
-2.1055667e+92
-2.0983293e+92
-2.1143539e+92
-2.121565e+92
-2.1219836e+92
-2.1146714e+92
-2.1060088e+92
-2.0984011e+92
-2.1059866e+92
-2.0985017e+92
-2.1148136e+92
-2.1221471e+92
-2.1148759e+92
-2.122108e+92
-2.1370946e+92
-2.1310995e+92
-2.1366029e+92
-2.1314266e+92
-2.1451347e+92
-2.1429022e+92
-2.1443577e+92
-2.1434226e+92
-2.1316114e+92
-2.1370592e+92
-2.1315549e+92
-2.1371773e+92
-2.143431e+92
-2.1450275e+92
-2.1433836e+92
-2.1447692e+92
-2.1316533e+92
-2.1371107e+92
-2.1376199e+92
-2.1319355e+92
-2.1319185e+92
-2.1376426e+92
-2.1318209e+92
-2.1374108e+92
-2.1448312e+92
-2.14554e+92
-2.1434378e+92
-2.1439159e+92
-2.1437193e+92
-2.1439079e+92
-2.1454828e+92
-2.1451305e+92
-2.0723067e+92
-2.0652185e+92
-2.0721359e+92
-2.0654208e+92
-2.0808651e+92
-2.0880587e+92
-2.0883513e+92
-2.0810821e+92
-2.0724805e+92
-2.0654778e+92
-2.0724183e+92
-2.0656472e+92
-2.0812183e+92
-2.0884813e+92
-2.081264e+92
-2.088493e+92
-2.0395129e+92
-2.0442109e+92
-2.0443608e+92
-2.0396797e+92
-2.0397303e+92
-2.0444395e+92
-2.0445556e+92
-2.0398789e+92
-2.0514754e+92
-2.0564933e+92
-2.0567098e+92
-2.0516827e+92
-2.0517308e+92
-2.0567652e+92
-2.056899e+92
-2.0518978e+92
-2.0398424e+92
-2.0445415e+92
-2.0446429e+92
-2.039966e+92
-2.039989e+92
-2.0399568e+92
-2.0446706e+92
-2.0446785e+92
-2.051837e+92
-2.0568461e+92
-2.0569889e+92
-2.0519674e+92
-2.0519172e+92
-2.0519055e+92
-2.0569816e+92
-2.056971e+92
-2.0655702e+92
-2.0724809e+92
-2.0726612e+92
-2.0656928e+92
-2.0657219e+92
-2.0656682e+92
-2.0726623e+92
-2.0726644e+92
-2.0885223e+92
-2.088777e+92
-2.081262e+92
-2.081449e+92
-2.0813459e+92
-2.0813872e+92
-2.0887404e+92
-2.0886331e+92
-2.0711441e+92
-2.0641309e+92
-2.0709997e+92
-2.0642957e+92
-2.079592e+92
-2.0868197e+92
-2.0870928e+92
-2.0798095e+92
-2.0645155e+92
-2.0713588e+92
-2.0643673e+92
-2.0712551e+92
-2.0799468e+92
-2.0872287e+92
-2.0800825e+92
-2.0872647e+92
-2.0390068e+92
-2.0436894e+92
-2.0438321e+92
-2.0391934e+92
-2.0392647e+92
-2.0439666e+92
-2.0441334e+92
-2.0394501e+92
-2.056157e+92
-2.0509416e+92
-2.0559627e+92
-2.051104e+92
-2.0564277e+92
-2.0512293e+92
-2.0563061e+92
-2.0514169e+92
-2.0433968e+92
-2.0386348e+92
-2.0433061e+92
-2.0387636e+92
-2.0504736e+92
-2.055473e+92
-2.0556418e+92
-2.0506138e+92
-2.043576e+92
-2.0387866e+92
-2.0434623e+92
-2.0389205e+92
-2.0506928e+92
-2.0557318e+92
-2.050841e+92
-2.0558481e+92
-2.0646501e+92
-2.0715161e+92
-2.0717698e+92
-2.0648484e+92
-2.0649806e+92
-2.0719123e+92
-2.0651167e+92
-2.0720369e+92
-2.0874667e+92
-2.0878117e+92
-2.0802546e+92
-2.0805401e+92
-2.0807301e+92
-2.0806252e+92
-2.0879061e+92
-2.0879377e+92
-2.0200556e+92
-2.0160121e+92
-2.0200152e+92
-2.0161026e+92
-2.0266786e+92
-2.0308824e+92
-2.0310092e+92
-2.0267763e+92
-2.0162626e+92
-2.020219e+92
-2.0161249e+92
-2.0201078e+92
-2.0268134e+92
-2.0310391e+92
-2.026938e+92
-2.0311102e+92
-1.9963347e+92
-1.9996402e+92
-1.9996788e+92
-1.9964044e+92
-1.996589e+92
-1.9964375e+92
-1.9997647e+92
-1.9999182e+92
-2.0094615e+92
-2.0060101e+92
-2.0093771e+92
-2.0061127e+92
-2.0062816e+92
-2.0096791e+92
-2.0061344e+92
-2.0095308e+92
-1.99946e+92
-1.9961157e+92
-1.9994485e+92
-1.99617e+92
-2.00576e+92