/*--------------------------------*- C++ -*----------------------------------*\
  =========                 |
  \\      /  F ield         | OpenFOAM: The Open Source CFD Toolbox
   \\    /   O peration     | Website:  https://openfoam.org
    \\  /    A nd           | Version:  7
     \\/     M anipulation  |
\*---------------------------------------------------------------------------*/
FoamFile
{
    version     2.0;
    format      ascii;
    class       volVectorField;
    location    "1000";
    object      U;
}
// * * * * * * * * * * * * * * * * * * * * * * * * * * * * * * * * * * * * * //

dimensions      [0 1 -1 0 0 0 0];

internalField   nonuniform List<vector> 
34377
(
(-1.6971311e+47 -4.7906601e+44 1.6508795e+46)
(-1.5609848e+47 -3.8552683e+45 9.8759981e+44)
(-1.392317e+47 -7.7392853e+45 1.9966204e+46)
(-1.3151467e+47 7.6554173e+45 1.8677182e+46)
(-1.4011872e+47 6.4650438e+45 3.1386694e+46)
(-1.7144176e+47 -1.5100504e+46 2.0095871e+46)
(-1.3602089e+47 1.1535605e+46 2.9727335e+46)
(-1.8119907e+47 4.8245485e+45 9.5247836e+45)
(-1.4168962e+47 1.0266798e+46 8.0764479e+45)
(-1.4666209e+47 4.4283408e+45 9.9556608e+45)
(-1.3008861e+47 9.1211792e+45 -1.7661024e+46)
(-1.1209419e+47 8.5470362e+45 6.1736979e+45)
(-1.349841e+47 -5.3583362e+45 -1.8651254e+46)
(-1.5541956e+47 -1.6410022e+46 3.8770558e+45)
(-1.1921212e+47 -1.1683673e+46 8.8308811e+45)
(-1.3320557e+47 -8.6715298e+44 2.128619e+46)
(-1.2478654e+47 4.7267084e+45 2.9110096e+46)
(-1.0954477e+47 -4.4732076e+45 1.8583451e+46)
(-1.0650002e+47 2.7823495e+45 1.777972e+46)
(-1.2366934e+47 4.477822e+45 2.8385042e+46)
(-1.088801e+47 -2.5022349e+45 1.7398765e+46)
(-1.0529249e+47 5.162341e+45 1.6947922e+46)
(-1.2006153e+47 7.4731486e+45 2.6103456e+46)
(-1.2176253e+47 7.0715508e+45 2.6934105e+46)
(-1.3530623e+47 2.5015137e+45 3.1992801e+46)
(-1.4059672e+47 -1.5544509e+46 2.1695899e+46)
(-1.3737385e+47 -1.5833125e+45 3.1893983e+46)
(-1.8192213e+47 -1.6008633e+45 1.0001875e+46)
(-1.4618515e+47 1.0586678e+46 1.6573918e+46)
(-1.4015248e+47 5.1353928e+45 -1.2486718e+46)
(-1.3748594e+47 9.8346706e+45 -1.2313847e+46)
(-1.7536093e+47 4.1923192e+45 5.1196902e+45)
(-1.2134045e+47 1.3146758e+46 1.2200378e+46)
(-1.2172646e+47 4.1975079e+45 1.2851978e+46)
(-1.2002452e+47 1.0505138e+46 -1.0653424e+46)
(-1.2517401e+47 8.5908912e+45 -1.0544009e+46)
(-1.4746428e+47 4.5848637e+45 1.7055222e+46)
(-1.2295187e+47 6.5572422e+45 1.232032e+46)
(-1.255078e+47 5.6805568e+45 1.321442e+46)
(-1.4438015e+47 -1.9349702e+45 8.9706684e+45)
(-1.4322652e+47 3.2839392e+45 9.6898789e+45)
(-1.2772459e+47 3.3091488e+45 1.5069942e+46)
(-1.256423e+47 3.4447062e+45 1.4032082e+46)
(-1.0807039e+47 1.7109402e+45 -1.1872737e+46)
(-1.0723412e+47 8.3394971e+45 -2.2917011e+46)
(-1.0645218e+47 9.357874e+45 -2.2620812e+46)
(-1.0568245e+47 8.4519246e+45 -1.1292956e+46)
(-9.8306725e+46 5.8806691e+45 -1.7654144e+46)
(-8.519665e+46 -5.5978679e+45 8.572461e+45)
(-1.0043099e+47 -1.2155483e+45 -1.8363116e+46)
(-8.0845638e+46 7.3539186e+45 6.707081e+45)
(-1.2992785e+47 1.9416823e+45 -1.7281769e+46)
(-1.0827617e+47 -4.5773686e+44 -1.2300639e+46)
(-1.0828264e+47 6.181217e+45 -2.3036062e+46)
(-1.074429e+47 6.8971704e+45 -2.3128601e+46)
(-1.0591028e+47 6.1506843e+45 -1.1856053e+46)
(-1.3381802e+47 -1.0939605e+46 -1.748377e+46)
(-1.201945e+47 -2.0362057e+46 1.0814111e+46)
(-1.129221e+47 -6.3103523e+44 7.6627018e+45)
(-1.0020113e+47 -3.0871701e+45 -1.8436666e+46)
(-8.5713775e+46 -8.0763757e+45 8.9952614e+45)
(-9.7778775e+46 3.8112777e+45 -1.7680628e+46)
(-8.1415694e+46 4.6318979e+45 7.534168e+45)
(-1.0570154e+47 1.2260411e+45 1.7909662e+46)
(-1.0665126e+47 -5.6679217e+45 1.6756399e+46)
(-1.2085194e+47 2.6127395e+45 2.6376363e+46)
(-1.2042851e+47 2.2069462e+45 2.7381138e+46)
(-8.8510537e+46 -2.9782553e+45 1.8050849e+46)
(-8.6905979e+46 1.7395894e+45 1.7461444e+46)
(-1.0549497e+47 2.8992653e+45 2.4551418e+46)
(-1.0487482e+47 2.3284009e+45 2.4247842e+46)
(-1.0542947e+47 3.291524e+45 2.3194627e+46)
(-8.7893892e+46 -2.1817785e+45 1.675235e+46)
(-8.6635278e+46 2.3668953e+45 1.689793e+46)
(-1.0465137e+47 3.0245118e+45 2.3227711e+46)
(-8.866644e+46 -2.0612847e+45 1.7382066e+46)
(-1.0557535e+47 4.3316852e+45 2.3808726e+46)
(-8.6383232e+46 2.8237084e+45 1.6550426e+46)
(-1.0452217e+47 3.9277844e+45 2.317698e+46)
(-8.7340674e+46 -9.9131936e+44 1.6226487e+46)
(-1.028628e+47 5.2275648e+45 2.1883329e+46)
(-8.6277283e+46 3.7529349e+45 1.6475132e+46)
(-1.024582e+47 5.0327835e+45 2.2046133e+46)
(-1.2243295e+47 -4.3730072e+44 2.8458978e+46)
(-1.0885791e+47 -8.6159065e+45 1.836382e+46)
(-1.0541627e+47 -1.2739995e+45 1.79067e+46)
(-1.2054532e+47 -3.7274477e+44 2.840172e+46)
(-1.3714834e+47 5.9462299e+45 -1.24958e+46)
(-1.3962541e+47 9.7730323e+44 -1.2865632e+46)
(-1.4609579e+47 5.2696948e+45 1.636873e+46)
(-1.4754874e+47 -7.0567043e+44 1.7056835e+46)
(-1.7554038e+47 4.168217e+44 5.804319e+45)
(-1.2153203e+47 -3.5582895e+44 1.3142439e+46)
(-1.2157096e+47 8.7019079e+45 1.1823408e+46)
(-1.24647e+47 2.9892957e+45 -1.1287862e+46)
(-1.2104515e+47 4.7911622e+45 -1.0848539e+46)
(-1.2922653e+47 6.7414026e+45 1.5886795e+46)
(-1.2912726e+47 1.4930039e+45 1.5557748e+46)
(-1.2324133e+47 5.0535207e+45 -5.0707459e+45)
(-1.2523704e+47 2.0675425e+45 -3.8418825e+45)
(-1.2380027e+47 6.5495949e+45 4.620996e+45)
(-1.1743858e+47 3.4617297e+45 -1.0289193e+46)
(-1.1781214e+47 5.2604892e+45 -1.0322472e+46)
(-1.2463464e+47 1.9212058e+45 4.7191558e+45)
(-1.3882172e+47 1.0875065e+46 9.3279953e+45)
(-1.2291454e+47 7.6094281e+45 4.1024937e+45)
(-1.1683117e+47 4.4203047e+45 -1.0823891e+46)
(-1.1665888e+47 6.4778948e+45 -1.0571469e+46)
(-1.2383621e+47 3.0875801e+45 4.7472426e+45)
(-1.399205e+47 4.3529258e+45 1.0192381e+46)
(-1.2740075e+47 5.0428595e+45 -7.7829158e+45)
(-1.2320012e+47 1.0818156e+46 -7.1020893e+45)
(-1.1763978e+47 3.1912234e+45 1.173692e+46)
(-1.1646735e+47 6.5622021e+45 -1.3839603e+46)
(-1.1392889e+47 1.0110517e+46 -1.3888126e+46)
(-1.162004e+47 1.1612029e+46 1.1658206e+46)
(-1.2649556e+47 9.3699303e+45 1.4122747e+46)
(-1.2440914e+47 3.7230452e+45 -4.0965376e+45)
(-1.2244738e+47 6.4927461e+45 -5.0132736e+45)
(-1.2677701e+47 4.0468248e+45 1.4271876e+46)
(-1.030237e+47 4.4652128e+45 1.2696274e+46)
(-1.0405336e+47 4.8280402e+45 1.2811205e+46)
(-1.058052e+47 3.8334444e+45 1.4014091e+46)
(-1.0475107e+47 3.1750199e+45 1.3242906e+46)
(-1.2450344e+47 -3.353941e+44 1.4133407e+46)
(-1.2533906e+47 -8.8632103e+44 1.4308106e+46)
(-1.2502216e+47 1.5946056e+45 1.2941923e+46)
(-1.2440523e+47 1.871677e+45 1.3832143e+46)
(-1.0511496e+47 1.8860754e+45 1.4024957e+46)
(-1.0585628e+47 2.7488598e+45 1.4778013e+46)
(-1.043337e+47 2.6512786e+45 1.3221089e+46)
(-1.0580186e+47 3.0653911e+45 1.3435013e+46)
(-1.4338456e+47 6.5245693e+45 -1.5115812e+46)
(-1.4141402e+47 9.332801e+45 -1.4925037e+46)
(-1.1942962e+47 4.2602701e+45 -1.9948164e+46)
(-1.1334093e+47 6.863897e+45 -6.9004219e+45)
(-1.1092884e+47 9.138578e+45 -6.313263e+45)
(-1.1831889e+47 4.8032382e+45 -1.9002411e+46)
(-8.8336505e+46 4.7424868e+45 -2.1747788e+46)
(-7.7933883e+46 1.4871557e+45 -1.5221594e+46)
(-7.6645684e+46 5.3236172e+45 -1.5264532e+46)
(-8.7311004e+46 5.0481658e+45 -2.1310863e+46)
(-6.3471522e+46 -7.1851289e+44 -1.426116e+46)
(-6.2044399e+46 3.3983703e+45 -1.391655e+46)
(-5.9986785e+46 -4.3117024e+45 1.1851191e+46)
(-5.7442195e+46 5.0389754e+45 1.0844001e+46)
(-8.7863072e+46 4.2574477e+45 -2.2001914e+46)
(-8.8232447e+46 4.37129e+45 -2.2063776e+46)
(-7.6948573e+46 4.5336817e+45 -1.5363793e+46)
(-7.7965283e+46 9.2887174e+44 -1.5541947e+46)
(-6.3326761e+46 3.1917203e+43 -1.4033894e+46)
(-5.7100585e+46 6.1842015e+45 1.0199932e+46)
(-5.9465318e+46 -3.09868e+45 1.1572488e+46)
(-1.0765719e+47 -2.1935178e+45 -1.1873455e+46)
(-1.0837206e+47 4.0780776e+45 -2.2090147e+46)
(-1.0718392e+47 4.7511445e+45 -2.2434133e+46)
(-1.0536177e+47 4.128541e+45 -1.1748039e+46)
(-1.1945497e+47 2.5025729e+45 -2.0090888e+46)
(-1.141356e+47 5.2770328e+45 -6.8098704e+45)
(-1.1426796e+47 7.0827246e+45 -6.8381441e+45)
(-1.1922561e+47 2.8894174e+45 -1.9581328e+46)
(-1.0676676e+47 2.8578606e+45 -2.2371261e+46)
(-1.079327e+47 2.4273897e+45 -2.1635564e+46)
(-1.0730763e+47 -4.1366778e+45 -1.1285689e+46)
(-1.0535069e+47 2.0490841e+45 -1.1651916e+46)
(-9.8906226e+46 -6.7489399e+45 -1.772189e+46)
(-9.6694482e+46 -1.4363557e+44 -1.7401294e+46)
(-8.6510475e+46 -1.3889536e+46 1.0045183e+46)
(-8.2844555e+46 -1.2067548e+45 8.793544e+45)
(-9.9496656e+46 -4.5924598e+45 -1.833437e+46)
(-9.7052381e+46 1.97963e+45 -1.7664451e+46)
(-8.5359938e+46 -1.0119236e+46 8.8103868e+45)
(-8.1414565e+46 2.4974519e+45 7.7032437e+45)
(-8.731499e+46 2.9689678e+45 -2.2343714e+46)
(-8.7844155e+46 3.0776492e+45 -2.2192224e+46)
(-7.7746489e+46 -1.2488451e+44 -1.5692165e+46)
(-7.6736492e+46 3.4007684e+45 -1.5521362e+46)
(-6.3213497e+46 -1.66284e+45 -1.4207028e+46)
(-6.1875049e+46 2.1656374e+45 -1.3801585e+46)
(-6.024504e+46 -5.659785e+45 1.2463025e+46)
(-5.810507e+46 3.3570455e+45 1.1601687e+46)
(-8.6997169e+46 3.6722107e+45 -2.1824345e+46)
(-8.7586619e+46 3.6023217e+45 -2.1771841e+46)
(-7.6619325e+46 4.0838331e+45 -1.5463164e+46)
(-7.7650871e+46 3.3150028e+44 -1.5263579e+46)
(-6.3372126e+46 -1.3207014e+45 -1.4074722e+46)
(-6.1849877e+46 2.9001162e+45 -1.3998855e+46)
(-6.0335101e+46 -4.7850011e+45 1.2038565e+46)
(-5.7420121e+46 4.6817904e+45 1.0531784e+46)
(-8.7017563e+46 -2.6754394e+45 1.6500129e+46)
(-8.6048943e+46 1.6697588e+45 1.7120183e+46)
(-1.0286317e+47 1.7571401e+45 2.3021089e+46)
(-1.0354164e+47 2.1758534e+45 2.2516496e+46)
(-8.6563727e+46 -3.525295e+45 1.6676782e+46)
(-8.5470975e+46 1.0214757e+45 1.6716965e+46)
(-1.0354515e+47 1.6511786e+45 2.2579636e+46)
(-1.0294955e+47 1.235787e+45 2.2764563e+46)
(-7.491308e+46 -2.1383427e+45 1.7253864e+46)
(-7.3982938e+46 1.3161754e+45 1.675463e+46)
(-8.7232946e+46 1.7385824e+45 2.0902578e+46)
(-8.7377789e+46 1.9481359e+45 2.0914611e+46)
(-7.4373558e+46 -1.4457273e+45 1.6075486e+46)
(-7.3178558e+46 1.883613e+45 1.6301236e+46)
(-8.7039153e+46 1.940074e+45 2.0334075e+46)
(-8.7695089e+46 1.9921511e+45 2.0277205e+46)
(-7.4516647e+46 -1.3930011e+45 1.6265016e+46)
(-7.2881542e+46 1.868351e+45 1.5667631e+46)
(-8.7384835e+46 2.2993865e+45 1.9972098e+46)
(-8.7925223e+46 2.3951889e+45 2.0277855e+46)
(-7.4007375e+46 -1.2495035e+45 1.5552005e+46)
(-7.3050745e+46 1.7677745e+45 1.5878724e+46)
(-8.7518788e+46 2.5207091e+45 1.9685439e+46)
(-8.6860211e+46 2.4032517e+45 1.9719771e+46)
(-8.7990697e+46 2.7875255e+45 2.0467936e+46)
(-7.4470711e+46 -1.5002743e+45 1.6299618e+46)
(-7.3369315e+46 1.9006181e+45 1.5804769e+46)
(-8.7727077e+46 2.6317979e+45 2.0284086e+46)
(-7.3688469e+46 -8.9130343e+44 1.5576194e+46)
(-7.2732503e+46 2.461675e+45 1.5683041e+46)
(-8.7155874e+46 2.9025209e+45 1.9746882e+46)
(-8.7862851e+46 2.9153595e+45 1.9801146e+46)
(-7.4033458e+46 -7.3591559e+44 1.58256e+46)
(-7.3084297e+46 2.4424237e+45 1.5365214e+46)
(-8.7093786e+46 3.5200163e+45 1.9692588e+46)
(-8.6750185e+46 3.4134735e+45 1.9360505e+46)
(-8.6560713e+46 3.6581068e+45 1.9227584e+46)
(-7.3450956e+46 -2.1587605e+44 1.5391164e+46)
(-7.3033506e+46 2.857236e+45 1.5537224e+46)
(-8.6135351e+46 3.6194265e+45 1.9248696e+46)
(-8.5115962e+46 -5.6349649e+44 1.6901761e+46)
(-1.0320122e+47 -4.3300683e+44 2.3606987e+46)
(-1.0548616e+47 2.7347018e+43 2.4202962e+46)
(-8.7595259e+46 -5.0145183e+45 1.7656315e+46)
(-8.6869514e+46 -4.0282948e+45 1.636529e+46)
(-8.5614603e+46 5.1812286e+44 1.7206663e+46)
(-1.035187e+47 3.0408748e+44 2.3400678e+46)
(-1.0437708e+47 5.5379544e+44 2.2654278e+46)
(-1.2442835e+47 4.8028362e+44 4.5331038e+45)
(-1.1741146e+47 4.4223631e+45 -1.0384583e+46)
(-1.1684912e+47 1.9111399e+45 -1.1109414e+46)
(-1.2315415e+47 4.5372973e+45 3.6233651e+45)
(-1.3824705e+47 1.5565254e+45 1.0373396e+46)
(-1.2398032e+47 3.5032609e+45 4.9377119e+45)
(-1.1716701e+47 9.8978451e+44 -1.0104894e+46)
(-1.1725552e+47 3.131959e+45 -1.0180023e+46)
(-1.3902787e+47 7.4957394e+45 9.4136582e+45)
(-1.2396208e+47 -7.0877847e+44 4.7873485e+45)
(-1.2706467e+47 3.0024565e+45 1.4993035e+46)
(-1.2714998e+47 -2.1460252e+45 1.4907513e+46)
(-1.2263698e+47 1.7727782e+45 -4.74384e+45)
(-1.2467069e+47 -8.4551255e+44 -3.8523091e+45)
(-1.2339199e+47 6.4111678e+44 -5.5612845e+45)
(-1.2658175e+47 5.4395417e+45 1.3742703e+46)
(-1.2394191e+47 2.9754707e+45 -3.797191e+45)
(-1.277775e+47 5.2429561e+43 1.4948622e+46)
(-1.2124947e+47 8.4962479e+45 -6.404852e+45)
(-1.1744462e+47 1.5371573e+44 1.2358463e+46)
(-1.1431014e+47 6.2693085e+45 -1.3704761e+46)
(-1.1596063e+47 2.971506e+45 -1.4068859e+46)
(-1.1730457e+47 8.3939763e+45 1.1675342e+46)
(-1.0457966e+47 2.5514502e+45 9.2394495e+44)
(-1.0625338e+47 1.5297138e+45 1.6403044e+45)
(-1.094174e+47 4.9339991e+45 1.5817773e+46)
(-1.0910228e+47 2.5920182e+44 1.551592e+46)
(-1.0414647e+47 3.2941328e+45 4.4192091e+44)
(-1.0518165e+47 1.6077769e+45 8.4113527e+44)
(-1.0935405e+47 5.1526425e+45 1.4768654e+46)
(-1.0867867e+47 9.3595573e+44 1.5000327e+46)
(-1.0421244e+47 4.0401854e+45 5.1440341e+45)
(-9.9822775e+46 1.6119254e+45 -5.1768197e+45)
(-9.9006168e+46 3.4873048e+45 -5.2335959e+45)
(-1.0439087e+47 1.3682305e+45 5.3145445e+45)
(-1.0538261e+47 3.9126817e+45 6.3459975e+45)
(-9.9481157e+46 2.3881758e+45 -4.6607602e+45)
(-1.0049252e+47 1.1863378e+45 -4.0338978e+45)
(-1.0498181e+47 4.8770987e+44 6.0489289e+45)
(-1.0095047e+47 3.0804845e+45 1.3279101e+45)
(-9.812078e+46 2.3758731e+45 -6.6333779e+45)
(-9.8644525e+46 6.4756365e+44 -6.1714269e+45)
(-1.0124843e+47 6.2978573e+44 1.1820709e+45)
(-1.0122244e+47 4.851837e+44 2.3197081e+44)
(-1.0094321e+47 2.7241789e+45 5.0588887e+44)
(-9.7949405e+46 5.2592481e+44 -7.107437e+45)
(-9.7199067e+46 1.8905987e+45 -7.5977501e+45)
(-1.1836522e+47 7.7714242e+45 -1.1097933e+45)
(-9.7439741e+46 2.2634914e+45 -7.7121483e+45)
(-9.817045e+46 6.6134099e+44 -7.4568412e+45)
(-1.0116295e+47 2.8470187e+45 -3.0479081e+43)
(-1.2121395e+47 2.921219e+45 2.3451379e+44)
(-1.0122437e+47 7.5111491e+44 -1.1681797e+43)
(-9.7886687e+46 2.8981283e+45 -7.1473839e+45)
(-9.8498217e+46 8.2216662e+44 -7.0409227e+45)
(-1.0017898e+47 3.6259126e+45 5.790166e+43)
(-1.002598e+47 1.7530064e+45 2.3586918e+44)
(-1.1470411e+47 6.8705023e+45 -1.4576842e+46)
(-1.1441702e+47 5.7029991e+45 -1.4987108e+46)
(-1.0040601e+47 4.0999022e+45 1.0071862e+45)
(-9.7507878e+46 3.5541875e+45 -7.4338256e+45)
(-9.8437473e+46 1.4639306e+45 -6.7354933e+45)
(-1.005742e+47 1.8536529e+45 7.3963202e+44)
(-9.7014635e+46 2.6442559e+45 -8.0584446e+45)
(-9.8220858e+46 9.1044617e+44 -7.3426062e+45)
(-1.0102898e+47 1.264005e+45 -1.5687095e+44)
(-1.0092999e+47 3.2857481e+45 2.1122945e+44)
(-1.1713551e+47 8.5590097e+45 -1.8165735e+45)
(-9.8037043e+46 1.4302122e+45 -7.3058639e+45)
(-1.0085598e+47 3.7174862e+45 1.0093507e+44)
(-9.981936e+46 4.9196392e+45 2.1295084e+44)
(-9.8415923e+46 1.9690493e+45 -6.7744672e+45)
(-9.9939283e+46 2.8902547e+45 2.9039692e+44)
(-1.1121892e+47 5.7495506e+45 -1.5729969e+46)
(-1.3918448e+47 8.9509951e+45 1.2005812e+46)
(-1.0923483e+47 7.3800167e+45 -7.6571346e+45)
(-1.2152059e+47 1.0592553e+46 1.6312739e+45)
(-1.2319508e+47 4.034774e+45 2.1527568e+45)
(-1.0844457e+47 8.9840106e+45 -7.8014894e+45)
(-1.0204464e+47 8.4072297e+45 -6.8875558e+45)
(-1.1692298e+47 1.0046234e+46 1.025213e+45)
(-1.0832976e+47 6.0337027e+45 1.4996291e+46)
(-1.0855637e+47 1.6755926e+45 1.4955007e+46)
(-1.053199e+47 2.6072719e+45 1.0300003e+45)
(-1.0406011e+47 3.9034196e+45 4.6531614e+44)
(-1.0413375e+47 5.1796602e+45 5.7087286e+45)
(-1.0423153e+47 2.0144369e+45 5.3494733e+45)
(-1.0000833e+47 2.2507283e+45 -4.1633882e+45)
(-9.8924002e+46 3.6334873e+45 -5.0341142e+45)
(-9.8818837e+46 4.439497e+45 -4.9858597e+45)
(-9.9733521e+46 2.7692169e+45 -4.7509318e+45)
(-1.0339915e+47 5.607895e+45 5.0593422e+45)
(-1.0372218e+47 2.7521545e+45 5.2030668e+45)
(-1.0378741e+47 4.7601606e+45 4.8638163e+44)
(-1.0447042e+47 3.3892441e+45 5.8734131e+44)
(-1.0684081e+47 7.2909929e+45 1.3951562e+46)
(-1.0714649e+47 3.0376837e+45 1.4304256e+46)
(-8.5399747e+46 3.1890728e+45 1.1753437e+46)
(-8.6185156e+46 3.6552797e+45 1.1843141e+46)
(-8.6325768e+46 3.4358585e+45 1.1998058e+46)
(-8.575325e+46 2.841792e+45 1.1475923e+46)
(-8.6749441e+46 2.9172025e+45 1.2533834e+46)
(-8.6320365e+46 2.1679385e+45 1.1963778e+46)
(-8.6604361e+46 2.9812804e+45 1.1830185e+46)
(-8.5757027e+46 2.560096e+45 1.1666199e+46)
(-1.0442265e+47 6.0467686e+44 1.3221085e+46)
(-1.0366989e+47 1.3312346e+44 1.3802229e+46)
(-1.0559134e+47 1.4065155e+44 1.4829511e+46)
(-1.0398417e+47 -6.9840642e+44 1.4209701e+46)
(-1.0383433e+47 1.4112978e+45 1.3228786e+46)
(-1.0361076e+47 8.3586617e+44 1.3257668e+46)
(-1.0385781e+47 1.5734289e+45 1.3840524e+46)
(-1.0458582e+47 2.1932869e+45 1.34288e+46)
(-8.6896266e+46 2.1389267e+45 1.2322024e+46)
(-8.6161703e+46 1.6274589e+45 1.22375e+46)
(-8.6772298e+46 2.1963345e+45 1.3227455e+46)
(-8.6541583e+46 1.3407123e+45 1.2788263e+46)
(-8.5892486e+46 2.1215955e+45 1.1906721e+46)
(-8.6698754e+46 2.594024e+45 1.1970752e+46)
(-8.6838153e+46 2.3841553e+45 1.2196391e+46)
(-8.6302622e+46 1.8112444e+45 1.1714212e+46)
(-1.433567e+47 3.4809347e+45 -1.4190597e+46)
(-1.4351757e+47 1.3738875e+45 -1.3957373e+46)
(-1.4380453e+47 7.5303224e+45 -8.9093052e+45)
(-1.209584e+47 4.1353408e+45 -1.5722323e+46)
(-9.3248585e+46 3.6424574e+45 -1.4127953e+46)
(-9.3898867e+46 3.4159068e+45 -1.4266999e+46)
(-9.2411419e+46 4.4275481e+45 -1.3548636e+46)
(-9.4193075e+46 3.7627595e+45 -1.4130649e+46)
(-8.9112558e+46 1.9327762e+45 -2.2682225e+46)
(-5.3516265e+46 3.0297895e+45 -1.9223756e+46)
(-5.3073244e+46 2.9446628e+45 -1.9158692e+46)
(-4.7854419e+46 -2.1673786e+44 -1.2545406e+46)
(-4.6719872e+46 2.4746204e+45 -1.2339053e+46)
(-5.3445221e+46 3.1300928e+45 -1.8936764e+46)
(-5.3042273e+46 3.1686418e+45 -1.9160014e+46)
(-4.7804161e+46 -9.1521679e+43 -1.2122326e+46)
(-4.6821849e+46 2.7737744e+45 -1.2556688e+46)
(-3.8621996e+46 -3.7677602e+44 -1.1630646e+45)
(-3.7306995e+46 1.8549263e+45 -1.1308575e+45)
(-4.9397355e+46 3.0353002e+45 1.4934511e+46)
(-5.036121e+46 -2.7543913e+45 1.5617673e+46)
(-5.0214532e+46 -2.0109769e+45 1.5533317e+46)
(-4.8461534e+46 3.8005593e+45 1.4542098e+46)
(-3.8698331e+46 6.3860835e+43 -1.0331172e+45)
(-3.7087704e+46 2.3143512e+45 -1.8576599e+45)
(-8.9044421e+46 1.3922452e+45 -2.2607135e+46)
(-8.9219776e+46 1.5257469e+45 -2.2931871e+46)
(-5.3517568e+46 3.4031327e+45 -1.906298e+46)
(-5.298051e+46 3.4093384e+45 -1.8966599e+46)
(-4.7534643e+46 2.1281176e+44 -1.2375005e+46)
(-4.6507307e+46 3.0615678e+45 -1.2221527e+46)
(-3.8771888e+46 6.3086215e+44 -7.3321068e+44)
(-4.9482479e+46 -1.1287799e+45 1.4998965e+46)
(-3.8147871e+46 1.763727e+44 -1.5582934e+45)
(-4.9989144e+46 -1.992515e+45 1.5136831e+46)
(-3.6880734e+46 2.6079047e+45 -1.5243791e+45)
(-4.8426059e+46 3.8740461e+45 1.4203286e+46)
(-1.1952009e+47 7.2887474e+44 -1.9626255e+46)
(-1.1442572e+47 3.199536e+45 -5.9771941e+45)
(-1.1279726e+47 5.2766606e+45 -6.2637268e+45)
(-1.188071e+47 1.1958231e+45 -1.9125812e+46)
(-1.2110741e+47 2.9530941e+45 -1.5783269e+46)
(-9.3843905e+46 2.3029934e+45 -1.4358488e+46)
(-9.288742e+46 2.5289811e+45 -1.4494088e+46)
(-1.1254079e+47 9.698874e+45 -1.4976983e+46)
(-1.1511904e+47 4.6927259e+45 -1.6026418e+46)
(-1.2124128e+47 3.2722867e+45 -1.549733e+46)
(-9.3522687e+46 2.7794911e+45 -1.3998469e+46)
(-9.2661168e+46 3.1516235e+45 -1.4038353e+46)
(-1.1505196e+47 3.7014858e+45 -6.2257228e+45)
(-1.1378261e+47 2.1402424e+45 -5.4097885e+45)
(-1.1870397e+47 -8.9657367e+44 -1.9138126e+46)
(-1.1903324e+47 -6.0929356e+44 -1.9267578e+46)
(-7.6911089e+46 -2.3339675e+45 -1.5145946e+46)
(-8.6993029e+46 6.9743506e+44 -2.1178772e+46)
(-8.6143772e+46 6.9213497e+44 -2.1713046e+46)
(-7.567626e+46 1.1759687e+45 -1.5268746e+46)
(-7.6845462e+46 -1.5654359e+45 -1.5163266e+46)
(-8.6793516e+46 1.3243976e+45 -2.1292218e+46)
(-8.6002256e+46 1.2236552e+45 -2.1745612e+46)
(-7.5830765e+46 1.9090253e+45 -1.5521821e+46)
(-6.2638163e+46 -4.3157748e+45 -1.381463e+46)
(-6.0849658e+46 -5.081674e+44 -1.3526431e+46)
(-6.0959027e+46 -9.0496684e+45 1.3167917e+46)
(-5.8622328e+46 -2.4178642e+44 1.2546217e+46)
(-6.2858101e+46 -3.3130035e+45 -1.4107214e+46)
(-6.1311946e+46 5.1875429e+44 -1.3951627e+46)
(-6.0880631e+46 -7.742068e+45 1.2898099e+46)
(-5.8589548e+46 1.3551163e+45 1.2208835e+46)
(-7.7637275e+46 -1.1083769e+45 -1.550788e+46)
(-8.7739204e+46 1.8957301e+45 -2.1793787e+46)
(-8.6886696e+46 1.8172216e+45 -2.2055658e+46)
(-7.6313502e+46 2.4224466e+45 -1.5529905e+46)
(-7.6911344e+46 -5.247013e+44 -1.5246657e+46)
(-8.6886831e+46 2.4532402e+45 -2.1443609e+46)
(-8.6349673e+46 2.4724605e+45 -2.1741371e+46)
(-7.6029617e+46 3.1120168e+45 -1.5524032e+46)
(-6.3224229e+46 -2.7161625e+45 -1.4334205e+46)
(-6.1492553e+46 1.2631808e+45 -1.3945065e+46)
(-6.0658078e+46 -6.9566884e+45 1.2486809e+46)
(-5.8273144e+46 2.2540731e+45 1.1715007e+46)
(-6.1602689e+46 1.9714651e+45 -1.397496e+46)
(-6.0460159e+46 -5.6438246e+45 1.2248534e+46)
(-6.3016211e+46 -2.0276566e+45 -1.4116816e+46)
(-5.7791202e+46 3.595459e+45 1.114214e+46)
(-8.8757143e+46 9.2548052e+44 -2.2937441e+46)
(-8.8943907e+46 7.1431305e+44 -2.2743826e+46)
(-5.3228087e+46 2.3188374e+45 -1.9220632e+46)
(-5.2662373e+46 2.2155433e+45 -1.9268561e+46)
(-4.7497268e+46 -6.2767692e+44 -1.2437011e+46)
(-4.6358102e+46 1.9138808e+45 -1.2342945e+46)
(-5.3171517e+46 2.3428166e+45 -1.9011088e+46)
(-5.2706066e+46 2.265057e+45 -1.9373235e+46)
(-4.7592592e+46 -7.0210103e+44 -1.2178669e+46)
(-4.6695731e+46 1.9472387e+45 -1.2586509e+46)
(-5.0830549e+46 -3.9219428e+45 1.6679774e+46)
(-5.0404323e+46 1.8696929e+45 1.6216819e+46)
(-3.9236578e+46 -1.2635816e+45 -9.3165404e+43)
(-3.8140247e+46 7.7846036e+44 1.4080423e+43)
(-5.121485e+46 -2.9941983e+45 1.6100377e+46)
(-4.9296747e+46 2.9842542e+45 1.5252201e+46)
(-3.9511501e+46 -9.2536107e+44 -2.8498945e+44)
(-3.7910781e+46 1.2115144e+45 -7.3140168e+44)
(-8.8857385e+46 1.0930109e+45 -2.2697869e+46)
(-8.9151159e+46 1.1777505e+45 -2.2766143e+46)
(-5.3233758e+46 2.5545074e+45 -1.9134604e+46)
(-5.2729418e+46 2.5654582e+45 -1.9157357e+46)
(-4.7662722e+46 -6.9372464e+44 -1.2443452e+46)
(-4.6540236e+46 2.2010625e+45 -1.2370663e+46)
(-5.3266991e+46 2.7903012e+45 -1.9050424e+46)
(-5.2783757e+46 2.7431434e+45 -1.9325722e+46)
(-4.7685281e+46 -2.4503185e+44 -1.2273869e+46)
(-4.6619909e+46 2.4882495e+45 -1.2700025e+46)
(-3.8690306e+46 -8.1658323e+44 -1.1939252e+45)
(-5.0709828e+46 -2.7688919e+45 1.5481931e+46)
(-3.7024349e+46 1.5563598e+45 -1.4385854e+45)
(-4.9089073e+46 3.1435602e+45 1.4522547e+46)
(-3.8656767e+46 -1.5055931e+44 -1.1263542e+45)
(-3.6865437e+46 1.9713703e+45 -1.8137739e+45)
(-5.0097749e+46 -2.2190554e+45 1.4891193e+46)
(-4.836962e+46 3.3319219e+45 1.4150176e+46)
(-7.4225116e+46 -1.5085189e+45 1.6556581e+46)
(-7.2704681e+46 1.7167021e+45 1.6259787e+46)
(-8.6632261e+46 1.7764479e+45 1.9809742e+46)
(-8.7250651e+46 1.8667361e+45 1.9923752e+46)
(-7.3564135e+46 -1.3032622e+45 1.6121589e+46)
(-8.6724775e+46 1.9145503e+45 1.9809442e+46)
(-7.3276013e+46 1.4395364e+45 1.6798266e+46)
(-8.6215735e+46 1.5751947e+45 2.0098197e+46)
(-7.3253184e+46 -2.3158912e+45 1.6510306e+46)
(-7.2417662e+46 9.928325e+44 1.6385281e+46)
(-8.6568052e+46 1.2141053e+45 1.9691288e+46)
(-8.6182247e+46 1.1131053e+45 1.9691193e+46)
(-8.6578327e+46 1.4327285e+45 1.926952e+46)
(-7.2755602e+46 -1.7016319e+45 1.5817956e+46)
(-7.2483764e+46 1.6558686e+45 1.6435599e+46)
(-8.6154357e+46 1.405947e+45 1.9698126e+46)
(-6.005447e+46 1.7279839e+45 1.7607437e+46)
(-6.0072249e+46 -1.6003539e+45 1.8065617e+46)
(-7.4210366e+46 1.215493e+45 1.7639024e+46)
(-7.4104122e+46 1.2630494e+45 1.7276599e+46)
(-5.9387915e+46 2.2751191e+45 1.7486997e+46)
(-5.960228e+46 -1.2061698e+45 1.7192142e+46)
(-7.4401309e+46 1.1948154e+45 1.7117128e+46)
(-7.3993145e+46 1.4141248e+45 1.6611039e+46)
(-5.9906287e+46 2.0289333e+45 1.7339363e+46)
(-5.9947746e+46 -1.6568321e+45 1.773508e+46)
(-7.4681514e+46 1.3213217e+45 1.7005812e+46)
(-7.4563554e+46 1.5549012e+45 1.6946753e+46)
(-5.889908e+46 2.5248358e+45 1.7129835e+46)
(-5.9211244e+46 -1.0784058e+45 1.6966667e+46)
(-7.3938553e+46 1.6630492e+45 1.6440333e+46)
(-7.3632137e+46 1.6067316e+45 1.6420505e+46)
(-5.9572249e+46 2.2947602e+45 1.7048779e+46)
(-5.963716e+46 -1.2410772e+45 1.7459974e+46)
(-7.4477707e+46 1.5786135e+45 1.6463849e+46)
(-7.4583865e+46 1.5666761e+45 1.6838037e+46)
(-5.8898262e+46 2.556166e+45 1.7128348e+46)
(-5.9046208e+46 -9.7207418e+44 1.6764247e+46)
(-7.4296801e+46 1.6740349e+45 1.598072e+46)
(-7.3958453e+46 1.8186124e+45 1.5931415e+46)
(-7.4673664e+46 1.6734913e+45 1.667339e+46)
(-5.9757717e+46 -1.4226844e+45 1.7393581e+46)
(-5.9554411e+46 2.2286899e+45 1.6973641e+46)
(-7.4544421e+46 1.8054145e+45 1.6617124e+46)
(-5.9109541e+46 2.2719039e+45 1.7180716e+46)
(-5.9141835e+46 -9.1664719e+44 1.670929e+46)
(-7.4028988e+46 1.8407856e+45 1.6199262e+46)
(-7.3826323e+46 1.7869962e+45 1.6172563e+46)
(-5.9091127e+46 2.4055081e+45 1.6975637e+46)
(-5.9743726e+46 -1.2988446e+45 1.7436809e+46)
(-7.4677242e+46 1.6764881e+45 1.7069995e+46)
(-7.4277232e+46 1.7899174e+45 1.6522897e+46)
(-5.9626481e+46 2.6544434e+45 1.6992271e+46)
(-5.9479543e+46 -9.8690516e+44 1.6757741e+46)
(-7.4480874e+46 1.7239069e+45 1.6053831e+46)
(-7.4394294e+46 1.8533133e+45 1.6407266e+46)
(-5.9771289e+46 -1.1028973e+45 1.7299567e+46)
(-7.4410448e+46 2.036323e+45 1.6189206e+46)
(-5.9288499e+46 2.6184997e+45 1.6876523e+46)
(-7.4458538e+46 2.0844919e+45 1.6544568e+46)
(-7.391995e+46 2.2415641e+45 1.6033055e+46)
(-5.9116322e+46 -4.3503297e+44 1.6536344e+46)
(-5.8861278e+46 3.1093096e+45 1.6762579e+46)
(-7.3604959e+46 2.3074285e+45 1.5959884e+46)
(-5.8969837e+46 2.7552797e+45 1.67285e+46)
(-5.9528444e+46 -5.7976061e+44 1.7035879e+46)
(-7.4476454e+46 2.3376894e+45 1.627238e+46)
(-7.4295983e+46 2.318525e+45 1.6144368e+46)
(-7.4362832e+46 2.2647148e+45 1.5741501e+46)
(-5.9092298e+46 -4.2311168e+44 1.6496536e+46)
(-5.961635e+46 2.9843986e+45 1.6869969e+46)
(-7.4340442e+46 2.4235513e+45 1.6061762e+46)
(-5.8805556e+46 3.2926016e+45 1.6489399e+46)
(-5.928645e+46 -3.7266801e+44 1.6811133e+46)
(-7.4381692e+46 2.5629232e+45 1.6210144e+46)
(-7.416412e+46 2.6549819e+45 1.5956154e+46)
(-5.9065209e+46 3.1762074e+45 1.6836247e+46)
(-5.8928446e+46 -1.275924e+43 1.636862e+46)
(-7.3950726e+46 2.4684115e+45 1.6038855e+46)
(-7.377541e+46 2.5253697e+45 1.5945401e+46)
(-7.3199359e+46 -2.7064491e+45 1.62822e+46)
(-7.2615331e+46 6.532241e+44 1.69008e+46)
(-8.713691e+46 4.4744894e+44 1.9641849e+46)
(-8.6578491e+46 3.0432028e+44 2.0163447e+46)
(-7.4254316e+46 -2.960692e+45 1.731003e+46)
(-7.2682691e+46 5.2605556e+43 1.7157748e+46)
(-8.7744408e+46 4.9581899e+44 2.0596583e+46)
(-8.7238873e+46 3.08352e+44 2.0785608e+46)
(-8.7915682e+46 5.930492e+44 2.0102863e+46)
(-7.3865974e+46 -2.7519614e+45 1.6701951e+46)
(-7.2212051e+46 7.3517026e+44 1.641806e+46)
(-8.6812968e+46 7.9038377e+44 1.9725449e+46)
(-7.3079219e+46 -2.1111894e+45 1.6068241e+46)
(-7.2269427e+46 9.8416928e+44 1.671465e+46)
(-8.692932e+46 1.0321547e+45 1.9569311e+46)
(-8.6263154e+46 8.0960852e+44 2.0045601e+46)
(-9.8215335e+46 2.0966336e+45 -6.5857154e+45)
(-9.8906734e+46 2.6740186e+44 -6.5205206e+45)
(-1.009462e+47 7.0359406e+44 1.0131729e+45)
(-1.0111738e+47 2.9905113e+45 8.2103963e+44)
(-1.0123138e+47 2.3279419e+44 7.4344719e+43)
(-1.0131263e+47 2.3515998e+45 -2.8266412e+42)
(-9.8243518e+46 3.1634883e+44 -7.3718497e+45)
(-9.7516111e+46 1.8080548e+45 -7.594119e+45)
(-1.2063733e+47 2.5590965e+45 -9.6034121e+43)
(-1.0092825e+47 1.743458e+45 8.0820015e+43)
(-9.6917261e+46 1.451323e+45 -7.8990326e+45)
(-9.7289493e+46 -4.4069401e+44 -7.5815166e+45)
(-1.0098063e+47 -9.3257932e+43 -1.133494e+44)
(-1.1807023e+47 6.4712121e+45 -1.7931289e+45)
(-9.7422307e+46 1.8884979e+45 -7.3120877e+45)
(-9.8308604e+46 -2.77786e+44 -6.6766462e+45)
(-9.9985584e+46 2.1309656e+45 2.1055019e+44)
(-1.000761e+47 2.8163732e+44 1.4774396e+44)
(-1.1144375e+47 4.2461257e+45 -1.5934925e+46)
(-1.1446773e+47 6.9471986e+45 -1.464583e+46)
(-9.7701928e+46 8.4205435e+44 -6.1908647e+45)
(-1.0099096e+47 -1.1110839e+45 1.4393488e+45)
(-1.010768e+47 -9.3837661e+44 5.2728348e+44)
(-9.6796144e+46 6.534757e+44 -7.3351706e+45)
(-9.7921602e+46 -6.8133332e+44 -7.4200277e+45)
(-1.0084886e+47 1.3104668e+45 6.0180809e+43)
(-1.2102308e+47 1.1087923e+45 4.5315711e+44)
(-9.6422797e+46 1.0977146e+45 -8.5199448e+45)
(-9.9994403e+46 -6.4287717e+44 -1.2251645e+44)
(-1.1427299e+47 5.5199718e+45 -1.4154479e+46)
(-9.7040676e+46 1.3554863e+45 -7.1421033e+45)
(-9.9691858e+46 -1.470721e+44 2.0854918e+44)
(-9.7783885e+46 -7.7676774e+44 -7.0666156e+45)
(-9.9765229e+46 1.6985225e+45 -3.8025977e+43)
(-1.0820264e+47 2.2978376e+45 1.5713136e+46)
(-1.0391546e+47 3.6156209e+44 1.3969797e+45)
(-1.0780786e+47 -2.2012808e+45 1.5400966e+46)
(-1.0372102e+47 1.0251446e+45 8.4912479e+44)
(-1.0419424e+47 -3.0434986e+44 4.2683208e+44)
(-1.0787941e+47 -1.429655e+45 1.5247116e+46)
(-1.0790835e+47 2.8544956e+45 1.461243e+46)
(-1.0359646e+47 1.9696324e+45 4.8678475e+45)
(-9.9120084e+46 -3.1581824e+44 -5.1918578e+45)
(-1.0364038e+47 -8.3064614e+44 5.3094114e+45)
(-9.8477883e+46 1.3009454e+45 -4.9797696e+45)
(-9.9100817e+46 4.8462429e+44 -4.2106717e+45)
(-1.0398244e+47 -1.5205605e+45 5.9426888e+45)
(-9.8992065e+46 3.3178206e+44 -5.1492732e+45)
(-9.8821758e+46 1.9321479e+45 -5.1418941e+45)
(-1.0395996e+47 -2.6101376e+42 5.21858e+45)
(-1.0356372e+47 2.9079715e+45 5.0512374e+45)
(-1.0380165e+47 1.7688261e+45 5.6581261e+44)
(-1.0407525e+47 4.9605563e+44 4.0306287e+44)
(-1.0725258e+47 3.61994e+45 1.4283909e+46)
(-1.0774503e+47 -6.0768619e+44 1.4584714e+46)
(-1.042068e+47 3.5004376e+45 5.2769943e+45)
(-1.0017459e+47 1.1016704e+45 -4.7173267e+45)
(-9.9364746e+46 2.3768489e+45 -4.5888344e+45)
(-1.0422809e+47 4.4523748e+44 5.5621797e+45)
(-1.044522e+47 2.3699403e+45 9.6910632e+44)
(-1.0505426e+47 1.1051038e+45 8.5905491e+44)
(-1.0774119e+47 4.6261528e+45 1.4464047e+46)
(-1.0772738e+47 3.5099119e+44 1.4891188e+46)
(-1.0243003e+47 7.5274384e+45 -7.1127032e+45)
(-1.1749495e+47 8.9237966e+45 8.5003913e+44)
(-1.1984526e+47 4.2276718e+45 2.142866e+45)
(-1.0299294e+47 9.2292478e+45 -7.2001694e+45)
(-8.4455479e+46 1.5483505e+45 -1.029462e+45)
(-8.3793159e+46 2.2590032e+45 -1.0276816e+45)
(-8.7659609e+46 3.0930562e+45 7.3020793e+45)
(-8.7618603e+46 6.2903803e+44 7.4613352e+45)