/*--------------------------------*- C++ -*----------------------------------*\
  =========                 |
  \\      /  F ield         | OpenFOAM: The Open Source CFD Toolbox
   \\    /   O peration     | Website:  https://openfoam.org
    \\  /    A nd           | Version:  7
     \\/     M anipulation  |
\*---------------------------------------------------------------------------*/
FoamFile
{
    version     2.0;
    format      ascii;
    class       volScalarField;
    location    "7000";
    object      k;
}
// * * * * * * * * * * * * * * * * * * * * * * * * * * * * * * * * * * * * * //

dimensions      [0 2 -2 0 0 0 0];

internalField   nonuniform List<scalar> 
33733
(
1.5216104
1.5266418
1.5260382
1.5239903
1.5237208
1.5213997
1.5245055
1.5243037
1.5244615
1.5247252
1.5266645
1.5263168
1.5262184
1.5266557
1.5266884
1.5268567
1.5260123
1.5268877
1.5266926
1.5266542
1.526623
1.524909
1.5246747
1.5250733
1.5248637
1.52514
1.524425
1.5242737
1.5251097
1.5250814
1.5250321
1.5249606
1.5248639
1.523616
1.5233758
1.5233953
1.5236311
1.5247012
1.5247945
1.5249113
1.5247405
1.5248388
1.5250677
1.5253531
1.5263406
1.526479
1.5267851
1.5267191
1.5256457
1.5255447
1.5258908
1.5265095
1.5266793
1.5268689
1.5268356
1.5268868
1.52712
1.5271266
1.526896
1.5268609
1.5269206
1.5268327
1.5268934
1.5267969
1.5267129
1.526684
1.5267667
1.5261801
1.5261729
1.526039
1.5260768
1.5260317
1.5260981
1.5262775
1.5252401
1.5249402
1.5251697
1.5248923
1.5252473
1.525276
1.5249772
1.5249535
1.5251363
1.5251114
1.5251529
1.5250365
1.5249527
1.5251125
1.5251907
1.5250619
1.5252199
1.5250356
1.5252554
1.5252564
1.5250233
1.5249904
1.5207339
1.5204304
1.5203385
1.5205113
1.5208858
1.5200874
1.520245
1.5235604
1.5236249
1.5235625
1.5236304
1.5231562
1.5233988
1.5231756
1.5234235
1.5234739
1.5232459
1.5232989
1.5234821
1.5234449
1.5235808
1.5235971
1.5236611
1.5236367
1.5236426
1.5235343
1.5236383
1.5246338
1.5246117
1.5246738
1.5247053
1.5248641
1.5249186
1.5249567
1.5250549
1.5248038
1.5247547
1.5254651
1.5254191
1.5226143
1.5257183
1.5258855
1.5261167
1.5259804
1.5234175
1.523304
1.5241515
1.5252193
1.5252609
1.5259934
1.5262278
1.5267016
1.5269414
1.5269441
1.5269163
1.5262881
1.526468
1.526937
1.5271292
1.5269763
1.526953
1.5269889
1.5269779
1.5269338
1.5264851
1.5265711
1.5265189
1.526437
1.5266438
1.5267071
1.5266338
1.526716
1.5265234
1.5265173
1.5264173
1.5264736
1.5267142
1.5266445
1.5266676
1.5266074
1.5264005
1.5263328
1.5262625
1.5263207
1.5262244
1.5262583
1.526153
1.5261341
1.5261089
1.5261051
1.5263294
1.5263198
1.5262179
1.5263825
1.526281
1.526394
1.5252707
1.5253167
1.5251418
1.525009
1.525091
1.5253677
1.5252802
1.5252295
1.5250472
1.5252196
1.5254689
1.5255857
1.5255896
1.5251978
1.5253794
1.5257067
1.5259285
1.5258735
1.5257398
1.5257438
1.5259452
1.5252126
1.5251812
1.5249014
1.5249164
1.5248698
1.525114
1.5251444
1.5248868
1.5252897
1.5252485
1.5249484
1.5249336
1.5253449
1.5249731
1.5249632
1.5253155
1.5236165
1.5236409
1.5250931
1.5251392
1.5251515
1.5250998
1.5250684
1.5252022
1.52526
1.5250405
1.5250534
1.5253088
1.5253248
1.5250166
1.5250269
1.5253435
1.5253388
1.5249952
1.5250028
1.5253445
1.5253516
1.5249859
1.5249836
1.5202819
1.5201121
1.5201744
1.5203524
1.521289
1.5212646
1.521319
1.5213472
1.5209366
1.5211814
1.5209781
1.5212219
1.5213318
1.5213189
1.5213684
1.5204382
1.5214822
1.521381
1.5205568
1.520372
1.5202509
1.5200515
1.5199508
1.5199879
1.5200892
1.5200967
1.5202147
1.5201785
1.5200604
1.520174
1.5202851
1.5193837
1.5192995
1.5235944
1.5235811
1.5235969
1.5235821
1.5236754
1.5236388
1.5236371
1.5236758
1.5235939
1.5235794
1.5235791
1.5235926
1.5236665
1.5236301
1.5236334
1.5236676
1.5233197
1.5231131
1.523447
1.5231096
1.5233446
1.5234709
1.5234835
1.5234928
1.5234789
1.523131
1.5233612
1.5231204
1.5233361
1.5234903
1.5234776
1.5234731
1.5234853
1.5234497
1.523381
1.5235034
1.5235341
1.5233875
1.5231851
1.5231602
1.523361
1.5232746
1.5234265
1.5232329
1.5233982
1.5235108
1.5234958
1.5235174
1.5235029
1.5234769
1.5234877
1.5234871
1.5234972
1.5235924
1.5235803
1.5235912
1.5235788
1.5236068
1.5235991
1.5235877
1.5235969
1.5236194
1.5236792
1.52364
1.5236321
1.5236669
1.5236743
1.5236667
1.5236321
1.5236627
1.5236267
1.5236614
1.5236284
1.5235418
1.5244623
1.5244564
1.5244256
1.5244306
1.5245019
1.5245126
1.5245515
1.5245707
1.5247512
1.5247899
1.5249816
1.5248489
1.5248973
1.5250406
1.524698
1.524662
1.524622
1.524608
1.525447
1.5253142
1.5254956
1.5255468
1.5221097
1.5223733
1.5227872
1.5233237
1.5234755
1.5233568
1.523485
1.5254642
1.5240984
1.5255566
1.5241269
1.5253371
1.5253111
1.5241408
1.5241026
1.5241405
1.5241387
1.5241241
1.5240891
1.5245621
1.5245225
1.5245179
1.5246083
1.5234098
1.5236124
1.5263818
1.5267587
1.5267742
1.5266364
1.5240596
1.5258858
1.5257291
1.5240155
1.5260882
1.5262364
1.5238976
1.5238982
1.5239321
1.5267881
1.5267857
1.5267834
1.526754
1.5267828
1.526785
1.5267829
1.5267739
1.5267388
1.52677
1.5258374
1.525802
1.5257885
1.5258324
1.5256851
1.525727
1.5256806
1.525628
1.5258834
1.5261748
1.5258918
1.5257634
1.5257
1.5258373
1.5258347
1.5261248
1.5258887
1.5261416
1.525623
1.5255358
1.5255154
1.5255553
1.5257314
1.5257343
1.5260543
1.5260592
1.5263195
1.5264285
1.5263909
1.5262871
1.5260588
1.5262009
1.5261415
1.5260019
1.5262558
1.5261848
1.5263547
1.5263149
1.5260791
1.5259995
1.5262149
1.5262431
1.5255041
1.5252872
1.5254822
1.5253411
1.525567
1.5254653
1.5256096
1.5255052
1.5254088
1.5253931
1.5251739
1.5251835
1.5253224
1.525332
1.5250699
1.525081
1.5250169
1.5250871
1.5254783
1.5253529
1.5250608
1.5251089
1.5253955
1.5252988
1.525891
1.5257971
1.5258061
1.5257954
1.5258165
1.5257198
1.5258678
1.5258734
1.5252087
1.5253086
1.5251633
1.5253678
1.5256451
1.5259526
1.5259424
1.5257462
1.5253614
1.5253402
1.5253681
1.5254125
1.5256993
1.5256458
1.5260039
1.525993
1.524629
1.5244816
1.5243876
1.5245147
1.5244205
1.5243083
1.5241824
1.5247935
1.524625
1.5244712
1.524541
1.5247051
1.5245403
1.524646
1.5248111
1.5247061
1.5245294
1.5242524
1.5245811
1.5247252
1.5249056
1.5247178
1.5247693
1.5245492
1.5250915
1.5252001
1.5254135
1.5253592
1.5255001
1.5253286
1.5254428
1.5252229
1.5253476
1.5254209
1.5255651
1.5255258
1.5249421
1.5247312
1.5248454
1.5250293
1.5250641
1.5248614
1.5249992
1.525167
1.5255196
1.5254384
1.5255918
1.5256424
1.5257966
1.5258309
1.5257854
1.5257525
1.5256925
1.5257378
1.5257057
1.5256708
1.5254425
1.5254654
1.5246958
1.5246835
1.5251102
1.5254891
1.5246409
1.5254218
1.5257554
1.525793
1.5256978
1.5257404
1.524576
1.5245174
1.5244238
1.524469
1.5241486
1.5241778
1.5246549
1.5247028
1.5246502
1.5248022
1.524755
1.5192497
1.523645
1.5236764
1.5250876
1.5251247
1.5251453
1.525068
1.5250841
1.525048
1.5250482
1.5250375
1.5250224
1.5249783
1.5249095
1.5248553
1.5248739
1.5200574
1.5210309
1.5208306
1.5208288
1.5210334
1.5207395
1.5207543
1.5209018
1.5209035
1.5209694
1.5209565
1.5209648
1.5209802
1.521111
1.5210977
1.5211158
1.5211307
1.5227761
1.5228499
1.5225953
1.5225176
1.5227725
1.5227712
1.5225191
1.5225223
1.5230945
1.5230507
1.5230965
1.5230502
1.5231009
1.5230619
1.5231755
1.5231314
1.5219442
1.5223045
1.5217353
1.5220691
1.5226098
1.522689
1.5223663
1.5224441
1.5221895
1.5221696
1.5226086
1.5225601
1.52292
1.522872
1.5230088
1.5229574
1.5228163
1.5228587
1.5211756
1.5226122
1.5225682
1.5227823
1.5227629
1.5211715
1.5225106
1.5225297
1.523105
1.5230593
1.5230851
1.5211641
1.52116
1.5228928
1.5229276
1.5213179
1.5226957
1.5226488
1.5228407
1.5227905
1.5212326
1.5225427
1.5225936
1.5212103
1.521295
1.5210803
1.5210578
1.5211348
1.5211538
1.5210349
1.5210296
1.5210108
1.5210244
1.5206646
1.5206571
1.5207549
1.5207806
1.5198737
1.520522
1.5204789
1.5205452
1.5206144
1.5206591
1.5205725
1.5205801
1.5206663
1.5198962
1.5197649
1.5197775
1.5208306
1.5208027
1.5208104
1.5208418
1.5199744
1.5200674
1.5198478
1.5199078
1.5209032
1.5208713
1.5208494
1.5208829
1.520632
1.520726
1.520623
1.5207082
1.5206592
1.5207384
1.5208275
1.5207536
1.5208912
1.5209694
1.5210054
1.5209349
1.5198381
1.5197857
1.5236473
1.5236556
1.5236544
1.5236462
1.5236366
1.5236449
1.5236462
1.5236375
1.5236597
1.5236614
1.5236531
1.5236515
1.5236522
1.5236503
1.523642
1.5236429
1.523721
1.5237261
1.5237522
1.5237431
1.5236781
1.5236838
1.5236904
1.5236841
1.5236819
1.5236886
1.523694
1.5236869
1.5237552
1.5237281
1.5237223
1.5237457
1.5236653
1.5236678
1.5236614
1.5236589
1.5236591
1.5236545
1.5236485
1.5236514
1.5236544
1.5236466
1.5236482
1.5236576
1.5236646
1.5236666
1.5236582
1.5236561
1.5237521
1.5237271
1.5237234
1.5237463
1.5236959
1.5236918
1.5236874
1.5236905
1.523686
1.523692
1.5236966
1.5236899
1.5237241
1.5237294
1.5237563
1.5237484
1.5235111
1.5235355
1.523539
1.5235138
1.5251905
1.525152
1.523413
1.523399
1.5233871
1.5233837
1.5251351
1.5234223
1.5233793
1.5233623
1.5233883
1.5235212
1.5235418
1.5235463
1.5235245
1.5235831
1.5235966
1.5235906
1.5235765
1.5235971
1.5235964
1.5235832
1.5235833
1.5236028
1.5236018
1.5235897
1.5235901
1.5235961
1.5236005
1.5235881
1.5235827
1.5233347
1.5233527
1.523446
1.5234114
1.5235517
1.5235483
1.5235362
1.5235324
1.5234346
1.5233629
1.5233482
1.5234001
1.5235491
1.5235274
1.5235313
1.5235536
1.5236056
1.5236064
1.5235967
1.5235969
1.5235987
1.5236015
1.5235891
1.5235921
1.5236037
1.5235914
1.5235873
1.5236007
1.5236069
1.5235943
1.5235947
1.5236076
1.5234734
1.5233923
1.523438
1.5233321
1.5234678
1.5235288
1.5235242
1.5235438
1.5235471
1.5235606
1.5235418
1.52354
1.5235309
1.5235321
1.5234762
1.523368
1.5233447
1.5234436
1.5234615
1.5233558
1.5233363
1.5234273
1.5235323
1.5235475
1.5235493
1.5235347
1.52339
1.5233877
1.5234836
1.5234795
1.5235293
1.5235278
1.523532
1.5235288
1.5233951
1.5234969
1.5233695
1.523466
1.5235297
1.5235441
1.5235426
1.5235306
1.523577
1.5235781
1.5235725
1.5235762
1.5235791
1.5235868
1.5235811
1.5235744
1.5235801
1.5235812
1.5235772
1.5235797
1.5235862
1.5235899
1.5235841
1.5235802
1.5235894
1.5235973
1.5235941
1.5235864
1.523584
1.5235892
1.5235851
1.5235808
1.523595
1.5236027
1.5236007
1.5235936
1.52359
1.5235942
1.523591
1.5235874
1.5236544
1.5236564
1.5236562
1.5236533
1.5236514
1.5236449
1.5236432
1.5236486
1.5236627
1.5236655
1.5236612
1.5236582
1.5236579
1.5236519
1.5236477
1.523652
1.5236213
1.5236384
1.5236388
1.5236404
1.5236391
1.5236162
1.5236374
1.523634
1.5236342
1.5236377
1.5236451
1.5236398
1.5236377
1.5236429
1.5236473
1.5236476
1.5236462
1.5236456
1.5236335
1.5236372
1.523693
1.5237114
1.5236923
1.523692
1.52371
1.5236579
1.5236668
1.5236635
1.5236636
1.5236657
1.5236716
1.5236691
1.5236701
1.523672
1.5236994
1.5236968
1.5237167
1.5237183
1.5236714
1.5236918
1.523729
1.5237082
1.5237102
1.5237288
1.5236808
1.5236781
1.5236789
1.5236809
1.5237418
1.5237199
1.5237195
1.5237408
1.5236907
1.5236874
1.5236856
1.5236883
1.5240951
1.5250253
1.5249656
1.5214367
1.5215027
1.5218444
1.5215947
1.5234612
1.522227
1.5236187
1.5225373
1.5234222
1.523541
1.5264357
1.5244153
1.5236977
1.5235564
1.524196
1.5263176
1.524401
1.5254046
1.5248696
1.5248142
1.5241656
1.5241403
1.5240887
1.5241428
1.5241601
1.5250257
1.5249666
1.5241231
1.5241391
1.5241678
1.5241544
1.5241241
1.5247173
1.5247001
1.5246126
1.5246171
1.5241079
1.5240588
1.5239511
1.5240957
1.523944
1.5239616
1.5239711
1.5243937
1.5241486
1.5241285
1.5240818
1.5240351
1.5239976
1.52399
1.5240235
1.5239677
1.5239626
1.5239967
1.5239996
1.5239164
1.5239343
1.5239394
1.5239238
1.5240363
1.5241005
1.5240365
1.5240599
1.5240896
1.5241487
1.5241477
1.5242289
1.523562
1.5239347
1.5239356
1.5264407
1.523974
1.5265935
1.5241238
1.5241402
1.5241247
1.5240361
1.5241043
1.5254495
1.5256466
1.5252698
1.5251557
1.5240811
1.5240525
1.5239767
1.5240968
1.5240764
1.5240557
1.5239155
1.5239151
1.5297928
1.5239613
1.5239936
1.5239622
1.5239932
1.5266016
1.5265517
1.5265344
1.5264208
1.5265338
1.5264943
1.5265079
1.5265331
1.5263493
1.5262992
1.5264152
1.5263899
1.5253155
1.5255764
1.5251113
1.5249417
1.5254552
1.5241303
1.5252405
1.5241001
1.5259298
1.5256979
1.5250377
1.5249635
1.5250016
1.5249675
1.5248687
1.5247271
1.5247755
1.5246659
1.5247039
1.5249123
1.5250107
1.5248456
1.524899
1.5253246
1.5248426
1.5248716
1.5253504
1.5255273
1.5257386
1.5257587
1.5254703
1.524969
1.5254074
1.5254084
1.5249391
1.5255681
1.5257453
1.5257783
1.5255418
1.5248279
1.5249206
1.5248941
1.5247786
1.524833
1.5247546
1.524573
1.5246786
1.5244985
1.5244591
1.5246668
1.5246252
1.524665
1.5246304
1.5247167
1.5245764
1.5252888
1.5248028
1.524874
1.5253248
1.5252785
1.5248078
1.5248862
1.5253277
1.5257008
1.5257074
1.5253389
1.5253184
1.5254406
1.5257256
1.5257468
1.5254049
1.5257151
1.525608
1.5256527
1.5255876
1.5255233
1.525236
1.5253612
1.5254938
1.5253893
1.5250824
1.5252113
1.5251025
1.525018
1.525765
1.5256312
1.5256611
1.5259068
1.5258425
1.5255023
1.5258548
1.5254131
1.5259806
1.5260944
1.525874
1.5258454
1.5260142
1.526006
1.5258228
1.5258336
1.5251528
1.5252844
1.5257327
1.5256329
1.5255093
1.5250419
1.5250567
1.5254887
1.5257864
1.525832
1.5257205
1.5256112
1.5257543
1.5258969
1.5259412
1.5258048
1.5245059
1.524535
1.5243888
1.5245362
1.5245592
1.5246642
1.5247819
1.5244983
1.5245188
1.5244108
1.5243496
1.5243577
1.5244805
1.5245022
1.5243775
1.5243894
1.5243607
1.5242015
1.5242578
1.5243134
1.5244486
1.5243112
1.5244394
1.5242789
1.524426
1.5244996
1.5243073
1.5242725
1.5242457
1.5245529
1.5244838
1.5249279
1.5250675
1.5253271
1.5252489
1.5251521
1.5248032
1.5252188
1.5249157
1.5241801
1.524235
1.5243076
1.5243747
1.524347
1.5242626
1.5243189
1.5244491
1.5248074
1.5246677
1.5250254
1.5251255
1.5246717
1.5245206
1.5248927
1.524998
1.5256834
1.5256888
1.5256215
1.5256375
1.5256157
1.5255543
1.525619
1.5256495
1.525457
1.5254808
1.5247204
1.5247229
1.5247875
1.5254956
1.5247626
1.5255053
1.5255455
1.5254537
1.5255807
1.5256273
1.525441
1.525344
1.5255493
1.5255853
1.5255411
1.5255181
1.5248515
1.5248294
1.5255659
1.5255348
1.524926
1.5249025
1.5243679
1.5244149
1.5242731
1.5242888
1.5244532
1.5243951
1.5246693
1.5247512
1.5242303
1.5242989
1.5242554
1.5242185
1.5247389
1.5244028
1.5248703
1.524536
1.5254228
1.5250322
1.5251651
1.5254851
1.5251836
1.5257213
1.5257087
1.5250911
1.5249828
1.5255679
1.5255678
1.5249502
1.5254948
1.5251858
1.5255505
1.525326
1.5246249
1.5245797
1.5245399
1.5244677
1.5244737
1.5245085
1.5243079
1.5243411
1.5245834
1.5243913
1.5244566
1.5246556
1.5246041
1.5243909
1.524464
1.5247126
1.5250363
1.5249
1.5253283
1.5254052
1.5252922
1.5248299
1.5249321
1.5253405
1.5257512
1.5257108
1.5252912
1.5252318
1.5253212
1.5256812
1.5257185
1.525326
1.5242946
1.5242524
1.52453
1.5243585
1.5238804
1.5241781
1.5244703
1.5243371
1.5243871
1.5245136
1.5244449
1.5243024
1.5241214
1.5244066
1.5245055
1.5246801
1.5244511
1.5245911
1.5243738
1.5246713
1.5247646
1.5249652
1.5249003
1.5250755
1.524929
1.5250175
1.5248449
1.5250001
1.5250692
1.5251885
1.5251314
1.5247571
1.5245197
1.5245905
1.5248337
1.5249044
1.5246623
1.5247405
1.52498
1.5251948
1.5251287
1.5252364
1.525288
1.5251504
1.5252133
1.5250637
1.5249906
1.5248161
1.5249462
1.5249907
1.5247357
1.524704
1.5243869
1.5244261
1.5246354
1.5247409
1.5248558
1.5241081
1.5245708
1.5248896
1.5250886
1.5247825
1.5250279
1.5239362
1.5242552
1.5243013
1.523921
1.5242381
1.5242161
1.5238922
1.5242076
1.5241986
1.5239064
1.5242259
1.52421
1.5238738
1.5238476
1.5238373
1.5238651
1.5237913
1.5237953
1.5246274
1.5239641
1.5244433
1.5244379
1.5239513
1.5244665
1.5244054
1.5239792
1.5245
1.5245412
1.5239737
1.5244939
1.5244929
1.5236586
1.5236596
1.523693
1.5237183
1.5250649
1.5250611
1.5238267
1.5254449
1.5253239
1.5238727
1.525262
1.5251718
1.5239021
1.5251293
1.5250655
1.5249904
1.5250175
1.5239286
1.52493
1.5249585
1.5239508
1.5239613
1.5246261
1.5246437
1.5239793
1.5245817
1.5246135
1.5239694
1.524593
1.5245858
1.5207493
1.5209995
1.520612
1.5208296
1.520697
1.5204909
1.5222412
1.522204
1.5221252
1.5221711
1.5219636
1.5216493
1.521576
1.5218658
1.5216054
1.5216609
1.5219852
1.5219006
1.5223171
1.5222581
1.522185
1.5222482
1.5215713
1.521661
1.5219582
1.5218483
1.5215808
1.5216646
1.5219343
1.5218387
1.5221061
1.5221057
1.5220311
1.5220415
1.5220765
1.5221625
1.5221805
1.5221022
1.5222186
1.5221792
1.52211
1.5221533
1.5221919
1.5221989
1.5221258
1.5221206
1.522181
1.5222653
1.5222655
1.5221774
1.5221704
1.5222493
1.5222972
1.5222212
1.5223255
1.5223909
1.522387
1.5223204
1.5222454
1.5223166
1.5223163
1.5222398
1.5223644
1.5223043
1.5222349
1.5222969
1.5223207
1.5223768
1.5224479
1.5223902
1.5266201
1.5266197
1.5260347
1.5260256
1.526071
1.5260812
1.5266395
1.5266397
1.5265674
1.5265485
1.5265748
1.5265768
1.5259947
1.5259872
1.5260341
1.526043
1.526627
1.5266279
1.5265564
1.5265077
1.5260416
1.5260363
1.5255384
1.5255509
1.5256092
1.5251863
1.5251685
1.5255964
1.5255942
1.5260835
1.5255783
1.5260936
1.5256387
1.5252034
1.5256532
1.5252178
1.5260829
1.526075
1.5255857
1.5255719
1.5256298
1.5252202
1.5251975
1.5256454
1.5261194
1.5261302
1.5256472
1.5256305
1.5256897
1.5257042
1.5252667
1.525284
1.5250151
1.5250528
1.5245037
1.5245594
1.5254471
1.5254771
1.5260557
1.5260678
1.5249881
1.5260005
1.5263637
1.5263676
1.5257825
1.5257815
1.5258728
1.5258867
1.52645
1.5264522
1.5262975
1.5263787
1.5241873
1.5245225
1.5240992
1.5246032
1.5241299
1.5242426
1.5237794
1.5238911
1.5250242
1.5254857
1.5249739
1.5255249
1.5245914
1.5250244
1.5250819
1.5246499
1.5253354
1.5258275
1.525335
1.5258303
1.5249674
1.5253908
1.5253924
1.5249622
1.5254521
1.5259216
1.5254286
1.5259373
1.5250623
1.5254879
1.5255102
1.5250842
1.5266549
1.5266542
1.5260646
1.5260503
1.5260625
1.5260668
1.5266373
1.5266369
1.5223769
1.5224492
1.5224805
1.5224104
1.5265677
1.5265859
1.5266526
1.5266527
1.5260472
1.5260354
1.5260577
1.5260623
1.5266733
1.5266738
1.522342
1.5224212
1.5224018
1.5223221
1.5266053
1.5265854
1.5255655
1.526093
1.5255814
1.5260823
1.5256376
1.5251991
1.5251752
1.5256197
1.5255905
1.5261044
1.5255806
1.5261104
1.5222847
1.5223687
1.5223429
1.5222605
1.5223898
1.5223738
1.5223022
1.5223255
1.5265487
1.526548
1.5259898
1.525973
1.5259231
1.5259075
1.5264589
1.5264477
1.5224654
1.5225325
1.5225718
1.5225032
1.5263956
1.5264832
1.5265755
1.526574
1.5260038
1.5259851
1.5259572
1.5259569
1.5265381
1.5265377
1.522405
1.5224769
1.5224261
1.5223551
1.5264701
1.5265076
1.5223342
1.5224045
1.5223542
1.5222829
1.5224875
1.5224573
1.52239
1.5224218
1.5222654
1.5223452
1.5222989
1.5222164
1.522202
1.52226
1.5222267
1.5221592
1.5223441
1.522322
1.5222578
1.5222786
1.5223214
1.5223947
1.5224221
1.522346
1.5222379
1.5223364
1.5223038
1.5222074
1.5222006
1.5222803
1.5222426
1.522164
1.5222379
1.522237
1.5221696
1.5221717
1.5222342
1.5223132
1.5223185
1.5222434
1.521588
1.5216845
1.5219216
1.5218204
1.5215922
1.5216647
1.5218671
1.5217989
1.5219632
1.521963
1.5219248
1.5219195
1.5219821
1.5220621
1.5220537
1.5219788
1.5203319
1.52031
1.5203233
1.5203547
1.5214766
1.5214781
1.5216244
1.5216227
1.5214324
1.5213687
1.5214596
1.5215659
1.5217712
1.52162
1.5215677
1.5217308
1.5218175
1.5218357
1.5218304
1.5218172
1.5218932
1.5219245
1.5219155
1.5218879
1.5204004
1.5217012
1.5215615
1.5215479
1.5216963
1.5204055
1.5215811
1.5215639
1.5216896
1.5217299
1.521873
1.5219005
1.5219434
1.5219144
1.5203608
1.5203644
1.5203044
1.5203372
1.5220653
1.5221458
1.522134
1.5220557
1.5220031
1.5220519
1.5220409
1.5219914
1.5220652
1.5220228
1.5219744
1.522015
1.5220456
1.5221149
1.5221564
1.5220849
1.5204621
1.5204566
1.5204196
1.5204182
1.5204992
1.5205613
1.5204514
1.5204885
1.5203888
1.5204029
1.5221477
1.522237
1.5222004
1.5221099
1.5220885
1.5221397
1.5221059
1.5220557
1.5220595
1.5220211
1.5220259
1.5220775
1.5220986
1.5221676
1.5221776
1.5221008
1.5217727
1.5216244
1.5216009
1.521752
1.5220028
1.5219837
1.5219519
1.5219771
1.5215916
1.5217098
1.5215861
1.5217376
1.5219507
1.5219247
1.5219232
1.5219035
1.5215985
1.5216084
1.5217543
1.5217361
1.5218544
1.5216616
1.5218119
1.5217188
1.5220252
1.5220076
1.5220398
1.5220748
1.5219487
1.5219254
1.5219658
1.5219457
1.5220966
1.5220548
1.5220308
1.5220779
1.5221598
1.5221188
1.5221356
1.5221911
1.522281
1.52226
1.5221915
1.5222083
1.522171
1.5221935
1.5221284
1.5220966
1.5296637
1.5295513
1.5237759
1.5237929
1.5237877
1.5237717
1.5238124
1.5238291
1.5238063
1.5237907
1.5238257
1.5238306
1.523812
1.5238069
1.5238431
1.5238653
1.5238475
1.523825
1.5238374
1.5238524
1.5238103
1.5237961
1.5237862
1.5238015
1.5237852
1.5238025
1.5238268
1.523811
1.5237762
1.5237642
1.5237545
1.5237667
1.5237466
1.5237375
1.5237292
1.5237381
1.5238219
1.5238424
1.5238632
1.5238453
1.5238846
1.5238688
1.5238884
1.523892
1.5238814
1.5238776
1.5239026
1.523921
1.523912
1.5238929
1.5238993
1.5238838
1.5238622
1.5238795
1.5238629
1.5238672
1.5238503
1.5238458
1.5239347
1.5239268
1.5239195
1.5239075
1.5238964
1.5239105
1.5238628
1.5238816
1.5238976
1.5238819
1.523901
1.5239157
1.5240808
1.5240875
1.5240086
1.523997
1.5253681
1.525164
1.5243375
1.5250393
1.5250842
1.5243479
1.5244441
1.5244843
1.5256027
1.5254593
1.5251323
1.5250769
1.5243142
1.5249421
1.524991
1.5243265
1.5240945
1.5241009
1.5240338
1.5240219
1.5239156
1.5239294
1.5238784
1.5238642
1.5238509
1.5238584
1.5238431
1.5238351
1.5238877
1.523894
1.5238766
1.5238698
1.5239112
1.5239582
1.5239444
1.5238954
1.5247855
1.5247331
1.5242528
1.5242706
1.5240625
1.5241041
1.5240602
1.5241076
1.5242868
1.5248391
1.5248909
1.5243012
1.5241081
1.5241059
1.5240455
1.5240548
1.5239448
1.5239477
1.5239358
1.5239391
1.5239592
1.5239952
1.5239524
1.5239908
1.5239829
1.5239722
1.5239277
1.5239421
1.523927
1.5239121
1.5239065
1.5239232
1.5243252
1.5234865
1.5235337
1.5235259
1.523515
1.5235273
1.5235159
1.5234639
1.5234355
1.5233933
1.5234859
1.5235856
1.5235757
1.5235749
1.5235859
1.5235722
1.5235824
1.523572
1.5235842
1.5235912
1.5235929
1.5240998
1.5240343
1.5240597
1.5240775
1.5240484
1.5241707
1.5244972
1.5245679
1.5241959
1.5242166
1.5246279
1.5246819
1.5242355
1.5240987
1.5240903
1.5240573
1.5240621
1.5239004
1.5241433
1.5238475
1.5240035
1.5239212
1.5238135
1.5239341
1.5238065
1.5242944
1.5240853
1.5244102
1.5241378
1.5240351
1.523996
1.5239779
1.5240133
1.5237863
1.5238735
1.5238552
1.5237763
1.5239504
1.5239194
1.5238957
1.5239236
1.5237758
1.5238536
1.5238528
1.5237761
1.5238916
1.5238937
1.5239205
1.5239178
1.5239965
1.5239933
1.5239607
1.5239625
1.5239854
1.5239718
1.5239424
1.5239546
1.523953
1.5239534
1.5239503
1.5239503
1.5239487
1.5239383
1.5239352
1.5239458
1.5238822
1.5238852
1.5238955
1.5238923
1.5238933
1.523909
1.5239204
1.523904
1.5238965
1.5238999
1.5238988
1.5238954
1.5239089
1.5239259
1.5239262
1.5239086
1.5236511
1.5236511
1.5236399
1.5236395
1.5237582
1.5237597
1.5238128
1.523811
1.5236482
1.5236356
1.5236378
1.5236508
1.5237645
1.5237709
1.5238307
1.5238196
1.5238518
1.5238653
1.523891
1.5238762
1.5238684
1.5238443
1.523842
1.5238656
1.5236989
1.5237128
1.5237215
1.5237149
1.5238032
1.5238486
1.5236676
1.5236821
1.5236842
1.5236707
1.5237806
1.5237799
1.5238304
1.5238308
1.5238619
1.5238607
1.5238842
1.5238868
1.5239022
1.5238776
1.5239204
1.5239318
1.5239054
1.523901
1.5239113
1.5239174
1.5239376
1.5239387
1.5239236
1.5239157
1.5239145
1.5239244
1.5243232
1.524099
1.5216418
1.5214708
1.5215689
1.5219126
1.5235695
1.5235965
1.5241306
1.5261429
1.5237518
1.524236
1.5263423
1.5243465
1.524243
1.5236147
1.5237092
1.5282706
1.5278809
1.5277369
1.528129
1.5253292
1.5224072
1.5262497
1.5273378
1.5270056
1.5276577
1.5280614
1.5291721
1.529343
1.5242597
1.5243598
1.5243582
1.524249
1.5259836
1.5259219
1.5250052
1.5249082
1.5291422
1.5281151
1.5241943
1.5241771
1.5244086
1.5244696
1.5241508
1.5241714
1.5241504
1.5241304
1.5241431
1.5241528
1.5241586
1.5243061
1.5241806
1.5241845
1.5241341
1.5241318
1.5241099
1.5241438
1.5241237
1.5241985
1.5241837
1.5241787
1.524196
1.5243599
1.5241174
1.5241675
1.5241847
1.5241314
1.5240816
1.5240555
1.5240717
1.5240972
1.5240985
1.524125
1.5241558
1.5241319
1.5240397
1.5240665
1.5241017
1.5240753
1.523995
1.5240225
1.5240138
1.5240398
1.524324
1.5243413
1.5242696
1.5242642
1.5241306
1.5241172
1.524192
1.524205
1.5239791
1.5239481
1.5239602
1.5239866
1.5239059
1.5238966
1.5237883
1.5239483
1.5237976
1.5238077
1.5237998
1.5239591
1.5239506
1.5239414
1.5238013
1.5237945
1.5237848
1.523811
1.5238127
1.5238014
1.523819
1.5238285
1.5238062
1.5238158
1.5238275
1.5238198
1.5242782
1.5242742
1.5243751
1.5243874
1.5240368
1.5240261
1.5239936
1.5240007
1.5239659
1.5240004
1.5239727
1.5240018
1.5239236
1.5239136
1.5239206
1.5239295
1.5238636
1.5238917
1.5238721
1.5238834
1.5238277
1.5238583
1.5238378
1.5238504
1.5238435
1.5238242
1.5238421
1.5238588
1.5238572
1.5238738
1.5238883
1.5238755
1.5238489
1.5238434
1.5238318
1.5238587
1.5238429
1.5238304
1.5238552
1.523846
1.5238911
1.5238728
1.5238609
1.5238779
1.5238633
1.5238826
1.5239204
1.5238945
1.5237905
1.52381
1.5238035
1.5237994
1.5238168
1.5238077
1.5238205
1.5238276
1.5238176
1.5238105
1.5238269
1.5238319
1.5237938
1.5238105
1.5238146
1.5237999
1.5239092
1.5239674
1.5238574
1.5238863
1.5240301
1.5241011
1.524179
1.5242621
1.5240532
1.5239315
1.524014
1.5240253
1.5240346
1.5241684
1.524164
1.5241487
1.5241512
1.5241836
1.5241809
1.5241753
1.5241903
1.5241119
1.5241487
1.5241514
1.5241569
1.5241518
1.5242297
1.5240884
1.5241303
1.5241572
1.5241377
1.5241206
1.5241214
1.5241382
1.5240636
1.524025
1.5241448
1.5240514
1.5240878
1.5240537
1.5240972
1.529602
1.5242489
1.5240505
1.5240514
1.5242262
1.5294935
1.5239754
1.5239852
1.5239751
1.5239839
1.5240366
1.5240136
1.5239873
1.5239762
1.5239868
1.5239759
1.524013
1.5240353
1.5240127
1.5240346
1.5263295
1.5263122
1.5258438
1.5260431
1.5240702
1.5261606
1.526053
1.5259817
1.5258404
1.525795
1.5257322
1.5259653
1.5260142
1.5258708
1.5259841
1.52418
1.5247372
1.5248631
1.5241575
1.5241925
1.5245731
1.5246308
1.5241949
1.5244909
1.5244028
1.5241645
1.525015
1.5248479
1.5241541
1.5241747
1.5241558
1.5241846
1.5246212
1.5246801
1.5241161
1.5241389
1.5241333
1.5241087
1.5252062
1.5254164
1.5241998
1.5245333
1.5244734
1.5247705
1.524608
1.5241816
1.5244011
1.5243427
1.5241181
1.5243379
1.5242606
1.524468
1.5242324
1.524198
1.5244639
1.5249707
1.5248842
1.524294
1.5245209
1.5244912
1.5242684
1.524964
1.5249756
1.525025
1.5250254
1.5245669
1.5243309
1.5241854
1.5242604
1.5239677
1.5239159
1.523991
1.5240169
1.5240851
1.5241082
1.5240501
1.5240337
1.5244751
1.5241671
1.5241429
1.5244912
1.5244925
1.524128
1.5241186
1.5244813
1.5244687
1.5245887
1.5245588
1.5247962
1.5247067
1.5251182
1.5241213
1.5250869
1.5252235
1.5249922
1.524679
1.5248231
1.5245684
1.5244199
1.525105
1.5258094
1.5251841
1.525045
1.5252616
1.5250202
1.5246163
1.5251239
1.5245099
1.5254814
1.5255164
1.5254043
1.5253387
1.524371
1.5244379
1.5248956
1.5247211
1.5246053
1.5243174
1.5243082
1.5245493
1.5250062
1.5250621
1.5251301
1.5252302
1.5243963
1.5242229
1.5241341
1.5241267
1.5240885
1.5241578
1.5242039
1.5241971
1.5241791
1.5242763
1.5242627
1.5241161
1.524171
1.5241967
1.5240668
1.5240248
1.5238852
1.5239142
1.5239995
1.5239646
1.5239146
1.5241385
1.5241974
1.5239402
1.5239985
1.524039
1.524331
1.5242593
1.5245208
1.5245954
1.5248407
1.5247729
1.5246438
1.5243885
1.5247161
1.5244551
1.5241408
1.5241815
1.5242011
1.5239097
1.5238856
1.5239672
1.524026
1.5238897
1.5238993
1.5240815
1.524325
1.5242577
1.5245034
1.5245778
1.524189
1.5241171
1.5243437
1.5244302
1.5246912
1.5249132
1.5248745
1.5246692
1.5248467
1.5247976
1.5246532
1.5246722
1.5243421
1.5243653
1.5243363
1.524345
1.5247527
1.5246966
1.524618
1.5246444
1.5246413
1.5245674
1.5245441
1.5246013
1.5243487
1.5243615
1.5244078
1.5243761
1.524355
1.5238358
1.5238233
1.5239436
1.5239067
1.5240874
1.5241487
1.523828
1.5240223
1.5238574
1.5239564
1.5242115
1.5239936
1.5242766
1.5240517
1.5246128
1.5243614
1.5244269
1.5245814
1.5244318
1.5243371
1.5242135
1.5241903
1.5244021
1.5245087
1.5244603
1.5244861
1.5245112
1.5244613
1.5244023
1.5244268
1.5244496
1.5241089
1.5238922
1.52386
1.5239805
1.5238788
1.5238649
1.5239854
1.5240048
1.5238692
1.523883
1.5240386
1.5242881
1.5242108
1.5245995
1.524618
1.5244945
1.5241256
1.5241566
1.5245639
1.5245109
1.5246099
1.5245568
1.5244815
1.5246934
1.5242554
1.5241913
1.5242133
1.524295
1.5238742
1.5238852
1.5238658
1.524292
1.524296
1.5243409
1.5244481
1.5243896
1.524177
1.524204
1.52411
1.5239084
1.524276
1.5243271
1.5244309
1.5243325
1.5243769
1.5242705
1.5243526
1.5243983
1.5244312
1.5243895
1.5245226
1.5245032
1.5244721
1.5244467
1.5245594
1.5246158
1.5246268
1.5245711
1.524481
1.5243858
1.5244398
1.5245345
1.5245877
1.5244928
1.5245523
1.524651
1.52473
1.5246685
1.5246752
1.5247282
1.5244755
1.5245394
1.5244045
1.5243218
1.5243125
1.5243409
1.5241215
1.5240971
1.5239055
1.5239424
1.5246421
1.5242007
1.5242541
1.5240453
1.5237869
1.523857
1.5240421
1.5242339
1.5244225
1.5241558
1.5243698
1.523921
1.5238972
1.5238924
1.5239158
1.5238244
1.5242598
1.5243643
1.5241223
1.5238772
1.5238805
1.5239062
1.5239016
1.5237974
1.5238058
1.5238564
1.5238578
1.523884
1.5238806
1.5237995
1.5237962
1.5238941
1.5238676
1.5238662
1.5238903
1.5237947
1.5237918
1.5237528
1.5237215
1.5237224
1.5238276
1.5237518
1.5237313
1.5237214
1.5239716
1.5239397
1.5239323
1.5239583
1.5239891
1.5240065
1.5239115
1.5239193
1.5239472
1.5239345
1.5243715
1.5242575
1.5243963
1.5240518
1.5239825
1.5239728
1.5240131
1.5240406
1.5245446
1.5244521
1.5243415
1.5240067
1.5239527
1.5239621
1.5240021
1.523985
1.5239848
1.5239872
1.5236756
1.5236762
1.5236754
1.5236742
1.5237063
1.5237044
1.5237356
1.5237461
1.5237848
1.5256151
1.5258394
1.524085
1.5240932
1.524095
1.5240842
1.5241246
1.524125
1.5241001
1.5240994
1.525235
1.5240918
1.5241114
1.5241149
1.5240869
1.5251739
1.5251079
1.5249715
1.5249789
1.5240917
1.5250359
1.5241047
1.5240947
1.5240727
1.5248076
1.5244678
1.5249255
1.5249387
1.5249314
1.5240747
1.5240503
1.5240746
1.5241128
1.524073
1.5240466
1.5240259
1.5240449
1.52437
1.5244411
1.523991
1.5240017
1.5240492
1.5240658
1.5242407
1.5245696
1.5245565
1.5245431
1.524007
1.5240212
1.5240431
1.5240261
1.5242598
1.5243127
1.5220082
1.5220256
1.5217956
1.5218135
1.5224189
1.5225213
1.5222875
1.5221748
1.5222352
1.5222424
1.5219852
1.5219976
1.5224002
1.5224769
1.5226956
1.5227376