/*--------------------------------*- C++ -*----------------------------------*\
  =========                 |
  \\      /  F ield         | OpenFOAM: The Open Source CFD Toolbox
   \\    /   O peration     | Website:  https://openfoam.org
    \\  /    A nd           | Version:  7
     \\/     M anipulation  |
\*---------------------------------------------------------------------------*/
FoamFile
{
    version     2.0;
    format      ascii;
    class       volScalarField;
    location    "7000";
    object      omega;
}
// * * * * * * * * * * * * * * * * * * * * * * * * * * * * * * * * * * * * * //

dimensions      [0 0 -1 0 0 0 0];

internalField   nonuniform List<scalar> 
33733
(
344.98628
489.85195
349.98032
510.34223
401.71097
326.02167
473.3106
397.5082
503.75141
470.78983
456.11549
540.04688
537.59457
656.77728
666.35086
431.89758
326.94225
484.85396
558.09665
1089.2301
2040.7196
952.98383
620.48003
869.83961
618.31042
362.08008
418.15622
371.70025
355.28009
666.54957
750.70872
565.76082
576.41206
553.24231
545.81192
479.60909
490.40226
887.11881
818.60716
651.23141
418.21052
717.69729
361.98085
470.61458
516.67529
509.39534
595.6821
617.96939
597.97361
592.2688
1118.6031
485.20104
479.48166
397.07802
546.32174
517.56197
358.97782
364.55513
420.55453
711.23672
640.30847
936.59078
729.02623
816.62265
928.69455
1600.7737
1283.4602
1417.3191
1396.8104
3026.5608
3174.1043
6269.5559
6191.3454
5756.8391
2340.6796
1156.9151
2396.3892
1165.5186
2042.5014
1891.378
1028.5711
1060.6641
337.15969
426.43811
479.98101
585.28985
512.90476
466.24017
940.39628
774.91483
1112.2948
802.91075
1351.1198
1583.0708
893.04192
934.64058
554.89773
1356.5558
1345.8402
1339.1693
558.35397
484.4156
487.87028
1063.1627
1071.5917
927.47054
946.02374
1092.8543
1067.2282
953.8554
934.25256
419.80473
797.53426
674.36884
671.93752
784.0405
784.08141
672.60958
689.04787
426.1354
799.50087
362.54496
366.50663
1889.3131
1939.7409
1669.1434
1555.587
1012.5776
888.8481
572.46805
475.96015
1189.587
1346.4342
414.16662
442.29746
486.5127
569.08158
553.43138
808.13331
953.29672
651.77583
636.23264
1536.7782
2677.4354
2902.7017
516.09665
489.99772
452.0909
427.27226
428.93606
476.13437
690.51285
591.50926
402.05713
338.02531
431.69296
576.63072
482.61361
495.7261
613.59423
888.73312
823.72537
1163.6199
1354.489
747.29207
725.21771
966.73589
825.73674
1752.9837
2416.4496
2402.0037
3096.3681
1008.0233
1280.6628
1230.791
1702.0156
993.99197
1057.5116
1848.5895
1604.5592
1245.5708
1189.087
2245.39
2511.2779
5331.3558
4896.8226
5137.4406
5095.2439
3936.2123
4360.7275
3240.5914
3944.6578
4057.0867
4095.5007
8931.898
8971.5114
10050.381
4359.5163
4471.1605
9952.3585
16034.703
15183.18
14488.965
13302.648
13756.688
16228.67
14896.657
12538.729
11610.841
11902.185
10974.153
10992.714
11117.131
5344.1817
5277.0233
2534.0196
2516.8598
2653.1373
5665.6874
5783.8521
2665.6406
4875.5464
4876.6063
2357.7139
2381.7667
4292.5226
2105.2801
2188.8099
4360.4542
337.33975
433.36965
533.00683
625.36199
816.91107
601.08613
703.05445
1262.001
1524.6719
1108.8864
1028.23
1904.6156
2229.7213
1360.6314
1258.7888
2691.6302
2968.5891
1631.2176
1514.1725
3762.0012
3508.5206
1814.9566
1927.1456
1113.6429
976.28278
967.13875
1112.6126
3062.2949
3035.3903
3395.0887
3431.1388
2939.385
3025.4141
3243.3639
3363.8805
3016.9858
2984.0406
3312.3447
1103.5544
3149.7066
3009.2421
1131.0147
987.49587
961.96879
816.72991
696.22901
687.72644
423.17609
807.75632
424.42017
806.31474
689.24366
702.77159
824.5511
365.59254
364.19048
2395.4293
2467.3213
2229.3736
2290.4065
2367.3918
2370.7641
2212.013
2271.246
1723.2644
1772.8694
1957.8494
1900.2967
1830.9483
1727.8421
1903.5027
1978.2326
2495.6153
2537.0767
5875.0054
2370.0214
2321.4109
2469.8427
2463.9906
2296.1217
2292.828
1852.6971
1793.8208
2033.572
1980.071
1782.7705
1774.9067
1957.2069
1957.9909
486.27483
592.82267
590.9333
485.32051
1321.2037
1378.0656
1582.6784
1521.6241
990.46451
959.62684
1168.2837
1120.9801
964.1888
1120.0962
970.75648
1120.5588
1507.5051
1318.212
1510.6584
1322.3776
1272.2725
1311.3273
1463.6759
1512.3332
935.83084
955.56091
1115.312
1083.3217
594.12791
991.2017
962.63231
1110.4271
1159.9035
601.31537
492.87415
492.28624
1372.267
1290.5315
1564.1395
1479.5502
423.0606
3764.0759
3650.8688
3885.4277
3787.2507
3540.883
3580.4158
3268.1799
3216.9879
1873.3959
1620.5856
785.70719
1329.4296
1130.3986
619.71619
2181.7016
2362.5808
2712.2171
2901.1347
343.11731
357.3198
385.55573
350.35175
416.82626
453.6485
494.18995
649.54408
669.66724
609.18877
579.20327
1623.8585
937.50287
1411.9047
1202.2889
1953.5083
2219.9578
1945.3525
3806.5379
1608.0137
3546.2764
3892.3553
4110.4163
7480.6929
7127.7389
8519.8101
8739.0658
528.068
493.76999
452.70948
425.66869
446.593
532.88892
751.27878
1031.7646
1199.3056
616.68866
870.88905
780.20998
405.5513
336.29157
434.925
530.48692
549.36304
590.62916
665.09003
725.90634
595.14276
660.1219
872.23865
979.75316
676.00428
1473.1164
1556.8813
1921.5791
1630.2429
1791.0509
1693.1628
2263.7225
2628.305
1401.0327
1024.7266
2537.9655
3255.9262
6747.3368
5163.6664
8805.3207
6179.1119
7672.9276
5446.934
3998.5901
4868.4849
9337.0486
8288.3188
10224.412
10640.277
7705.8907
7238.102
1284.1667
1124.6956
1555.8393
2129.3628
1945.1049
1575.499
2832.5363
3887.2528
2344.3956
3331.565
1968.5849
2547.2657
4563.3913
6154.3971
4251.8726
3342.639
2331.9843
5173.4668
2504.3166
4346.4656
2112.1031
3611.604
1973.5918
3179.0027
2841.9435
3008.2708
5934.6513
6287.2893
3408.9807
3607.4937
8039.8201
7113.8446
13458.373
14712.475
13839.373
14873.356
10881.31
11735.807
13889.537
14513.475
11357.787
12274.653
10297.415
10644.933
11689.44
12514.495
10019.237
10245.333
8376.826
12921.606
9634.3068
13125.539
12520.421
9549.6031
9570.0046
11828.828
6295.6698
7063.9301
11137.256
11382.735
11613.387
11861.403
8813.4213
8714.2178
23443.172
12094.078
12282.836
24358.205
11647.758
12228.114
22227.347
12953.392
25335.511
12720.39
12686.103
24544.213
13359.94
13111.187
24865.547
26380.301
29038.63
34536.576
33271.308
29247.374
26077.815
27506.685
29158.028
29992.049
23708.561
21756.784
18748.021
19602.06
18045.098
20119.625
18989.331
21923.962
20343.522
19062.658
17595.566
18305.556
26031.507
28415.269
26443.972
23973.096
23945.101
26994.525
24446.929
22003.895
18015.12
19342.804
17859.311
16979.479
16464.776
15751.101
16001.322
16716.312
17144.238
16392.895
16597.621
17230.466
17225.767
16672.698
16865.175
16441.88
15615.506
16568.56
18282.448
17389.449
16245.95
16002.684
17120.473
16881.797
12159.777
12905.855
14318.394
13632.246
25624.883
22801.583
17684.539
10800.655
11640.157
9216.5878
10049.063
336.42797
544.20913
565.30771
665.70821
792.59113
1032.4497
935.42542
756.12357
1723.609
2674.1539
3660.833
4746.4654
5735.5074
6526.9477
8602.6227
7510.943
3178.1197
2400.0911
2382.5411
2526.6323
2575.421
2055.7163
1895.4764
1867.5936
2052.509
1870.3944
1857.9353
2043.3924
2058.2296
2577.6417
2390.7933
2407.2861
2596.4267
7195.8147
7434.7239
6264.9219
6040.3892
7305.9415
7278.2959
6113.4958
6158.1493
8518.7312
8675.2548
8506.12
8664.5606
8399.2313
8571.1399
8660.801
8829.5027
6666.7763
6815.2197
5619.1097
5718.4376
7114.3443
7325.0746
5990.0523
6172.0435
7777.9781
7908.0092
7964.3277
8088.6431
8294.0906
8430.7428
8548.9936
8692.069
7149.505
7269.278
2564.984
6140.3313
6026.525
7007.7943
7012.0453
2552.366
5892.5535
5906.5614
8175.6497
8311.1815
8194.6344
2385.078
2382.9883
7299.9988
7621.6546
2685.8989
6457.4462
6160.2351
7107.8964
7046.3757
2571.1361
5939.7474
6001.5576
2397.4045
2506.0085
2054.8171
1867.5787
1951.1432
2142.9095
2043.2166
1862.6871
1843.1006
2030.8518
1624.8931
1438.2561
1385.8751
1588.873
607.28318
1007.2883
1046.466
1221.1001
1179.7961
1162.7191
1002.286
1011.1499
1176.2318
604.20236
492.45439
490.53471
1576.5772
1377.9388
1388.1629
1588.8319
606.8187
611.3501
493.87627
495.60266
1587.8993
1392.259
1368.7947
1565.9943
1015.3801
1183.5079
1001.1982
1162.254
1029.8454
1054.9768
1227.8776
1194.1822
1400.6779
1452.1313
1657.7393
1595.6144
428.6813
425.26507
4989.1037
4921.6752
4891.6497
4948.7608
5187.8762
5097.9073
4898.8576
4959.4614
4329.5175
4365.7384
4453.6529
4407.1826
4349.2253
4504.6108
4608.2445
4423.1562
4502.2587
4501.3587
4498.0265
4421.7007
4938.6175
4871.7858
4522.3352
4559.9079
4415.658
4329.3745
4060.9199
4107.4753
4265.9112
4134.1557
4143.6003
4171.3903
3201.5107
3245.3346
3405.0536
3352.3758
3233.2468
3327.8421
3499.7467
3384.3497
3926.5128
4058.2514
3913.2383
3805.2265
3779.0309
3820.9083
3935.934
3885.0091
3589.6913
3291.2702
3390.2632
3608.8251
3094.7126
3206.7647
3374.5122
3217.7435
3907.6189
3777.0004
3594.3775
3676.3322
3803.2602
3734.6279
3972.2483
3968.8768
5154.5641
5084.1227
5206.9964
5282.9104
19179.827
19109.762
5019.611
5151.1057
5220.6438
5085.8863
18285.081
4465.306
4600.3458
4675.0683
4541.6682
4602.0813
4510.0031
4602.5126
4689.1728
5207.2887
5108.1375
5035.8166
5105.1865
5115.7337
4994.5452
5077.6095
5181.2744
4537.0723
4425.1693
4514.2169
4608.7786
4461.3148
4503.0368
4606.0008
4536.3042
3636.2215
3481.4201
3367.0425
3514.339
3396.6119
3367.6327
3561.5134
3526.1966
3930.8569
4063.319
4164.152
4030.8879
3952.9305
4067.7138
4131.2212
4007.9082
3362.6615
3302.5848
3521.2739
3457.672
3297.4111
3325.4445
3459.0514
3491.3599
3925.3457
4050.7341
4007.3282
3898.4273
3879.5607
3988.9888
4074.7462
3968.4738
550.63687
671.93979
860.52492
881.08647
659.21247
866.83334
863.66656
662.64033
663.654
544.10188
2200.8911
2181.8683
2416.2992
2422.6261
2242.2758
2334.4407
2549.0744
2454.1222
2811.811
2913.6399
3094.2963
2986.7673
2977.4112
2785.8864
2797.1038
2992.3481
1255.5287
1485.9139
1223.144
1425.4036
1363.2086
1159.7734
1359.3651
1161.8013
1779.7599
1702.6637
2014.9659
1932.7649
1868.6909
1628.9918
1646.7933
1883.4827
1163.4276
1366.7281
1357.6539
1172.3867
1855.5071
1629.9577
1618.271
1828.1659
1172.8371
1367.9683
1392.1127
1196.4875
1662.5965
1622.916
1843.8854
1871.4032
2930.1702
2740.5182
2711.6443
2900.8474
2371.3572
2156.7935
2130.0662
2343.2502
2910.1442
2721.3948
2767.8571
2957.8868
2359.4828
2141.3957
2179.7443
2392.1473
2059.4459
2077.3794
2311.0485
2272.0784
2102.4444
2161.3183
2383.5863
2314.9876
2630.6132
2671.3607
2863.6583
2814.7291
2670.2993
2742.4449
2941.0246
2850.8533
844.9699
1100.6131
1107.5284
1293.2473
1279.6034
859.43365
1140.3133
1154.8998
1365.0811
1322.5439
1578.37
1626.3665
1858.0834
1801.3045
1775.4486
1541.8418
1532.265
1758.5271
663.99368
655.72812
878.83051
1326.0637
1251.5753
1490.3635
1605.9725
873.53126
1145.5913
1145.161
1320.3887
1322.9989
1569.8879
1564.0812
1789.4498
1777.4874
2012.1168
1778.8648
1960.4415
2233.9079
685.9369
684.43881
2589.9193
2305.9083
2486.2124
2744.0209
2057.11
2075.3273
2294.7735
2248.0732
3118.3669
2810.3253
2971.2186
3255.2178
2578.9359
2637.4209
2839.0833
2745.1158
418.27653
783.61802
967.99708
341.39777
354.51044
385.04523
349.86953
531.99067
417.38543
491.86797
456.70421
624.74598
587.2436
501.54016
685.82956
688.52923
667.93377
665.55434
497.73734
1994.9718
2010.4858
3195.4852
3745.8835
1974.7004
1761.8003
957.75375
2136.6506
1665.5875
2546.9721
2795.9646
1251.5373
2653.615
2459.5447
2864.1235
3103.9746
4418.5751
4785.5535
5990.3977
5510.1047
4778.6333
4771.8627
8633.6438
3885.8163
8809.7781
8604.3471
8413.4111
1656.8219
3952.3028
4203.632
4162.9394
8043.6122
8213.8117
8408.1933
8315.9274
9148.9769
9256.25
9348.9545
9519.5021
9615.3047
9454.2939
9315.7951
9419.3671
18671.614
19167.686
16519.084
16602.762
21476.621
21896.796
24465.079
24410.364
453.782
429.92565
455.35157
685.69096
550.63454
599.39834
1138.1202
1367.1803
1440.8756
754.1693
1166.5513
1736.682
1545.2993
1977.3032
2205.7934
826.18796
819.77917
618.46927
939.72307
962.03543
406.0888
457.87313
429.64669
335.68507
542.34716
554.20264
530.78556
568.24463
633.7946
713.24214
735.18413
835.48856
812.58459
1001.9709
1180.3259
847.27331
1396.1567
2047.4933
1223.1392
1743.6602
2604.3056
1975.3827
3266.1992
3998.5312
2354.6214
1651.9683
3349.5805
1124.5208
1290.7451
1794.2496
4448.8818
5587.9047
4710.4293
5074.4373
7123.357
19812.16
10610.035
13190.715
21371.236
15317.326
7357.7196
17368.615
8567.16
18865.438
22269.323
22470.101
18373.947
9463.9918
16672.464
16312.948
9438.6754
19807.203
17387.245
17285.215
20598.144
8915.517
16199.649
15338.434
8721.1696
7963.281
5426.19
5529.6901
9086.2708
6020.9677
6796.926
12764.577
10653.639
18652.703
20118.399
23720.459
23797.279
22509.499
14589.297
21993.671
16931.747
19636.912
23757.556
22933.792
18880.088
19945.354
24179.766
23342.929
19062.527
18890.91
18565.494
10826.7
11189.219
9991.8958
17524.686
17020.628
10045.171
2798.5475
3811.6959
3097.6756
3337.435
4920.2738
7902.7006
4265.023
3729.3039
6060.4653
10146.426
5583.0966
6286.4259
12878.076
7263.0576
4808.789
5473.7789
5942.5733
7819.9565
7739.7567
8083.0866
10193.488
3979.1599
3727.1125
2746.6696
2725.9309
5504.7773
6359.5669
4390.7905
3824.1162
15249.998
12487.915
10396.026
12429.609
14931.679
17742.733
18380.803
15695.547
14531.285
12174.623
6744.8511
7897.6047
5831.2485
10049.633
8298.9219
5144.455
8483.8761
7657.8963
11107.338
7642.1274
7460.5175
6305.1359
5265.9727
7999.6967
7741.9071
11837.504
11750.293
12693.411
8075.8944
7982.0092
13131.109
9968.5109
10444.776
19852.179
17269.62
14355.279
8715.1911
15231.422
9116.2773
24245.457
28868.451
28847.629
25618.525
28542.975
32083.002
32041.388
31751.48
26074.967
23599.182
19392.569
20557.418
21458.759
27467.951
20349.89
25533.385
16706.436
25737.211
19995.272
24903.399
27076.869
21888.077
22571.36
26715.443
26691.562
28918.031
22891.188
21274.424
27946.601
30091.793
24533.934
22743.266
16723.991
16672.243
17652.528
17557.363
17197.25
18073.71
17711.458
17044.755
17413.573
16588.217
15799.503
15912.148
15340.826
17577.679
15306.914
16790.684
17667.135
18879.822
18086.257
17215.164
18502.55
19742.654
18328.492
17578.662
16995.018
18035.978
14832.277
14744.756
17464.897
18659.229
14620.413
14137.829
12300.465
11456.484
21008.082
21626.036
26729.55
26162.775
26545.99
25350.654
23541.594
13824.843
24434.661
16108.039
26359.179
29060.638
24308.837
28500.787
18724.887
22461.905
20790.238
17934.44
12754.27
18146.255
17505.221
12922.525
14006.123
19685.76
18164.76
14098.032
18591.133
21071.047
17771.837
19402.166
9015.2752
9334.6694
14725.594
14980.971
10534.259
10272.995
19063.524
19527.098
25858.641
21457.55
21555.083
25153.854
26676.66
23880.775
24160.665
25192.149
22022.306
23816.105
19479.346
18319.169
19887.774
24500.111
23102.246
18911.84
17526.978
18868.24
12286.265
12197.854
12005.09
19659.389
18303.807
11773.972
55930.748
51671.268
20101.103
20145.72
37438.906
22438.826
25853.538
59806.035
63219.953
67462.529
65828.029
53295.498
57118.243
67638.43
65156.578
61479.596
59556.775
63758.636
57121.174
59950.461
56837.691
48783.787
50273.258
46717.707
51757.497
47863.076
54386.59
49688.5
47819.73
44397.979
45578.275
59665.164
61269.98
61992.871
57396.767
55399.831
61970.794
60768.352
52724.234
44787.929
46457.779
43617.09
42584.004
46587.349
45051.508
47313.223
49673.043
17775.499
50050.996
49421.466
56340.989
56610.778
62998.161
62928.417
18443.866
18492.419
47180.878
29532.126
58317.361
52634.922
47913.586
55550.655
49078.522
13449.425
20364.912
20154.002
14001.712
20580.991
21406.457
15205.965
21197.246
21642.548
14589.552
20778.043
21451.323
21048.693
20957.273
25030.221
24551.146
85478.778
78023.444
20215.437
12092.099
18916.888
18151.074
12881.267
17087.843
18878.781
10768.112
19754.858
18628.36
11418.167
19300.155
18191.872
711.52985
684.67946
715.45253
736.24921
920.82436
1311.8312
2387.8592
3372.0868
4065.4565
4192.4742
8281.3046
9523.973
5445.4166
11534.23
12327.872
14547.577
13875.207
6650.9547
11684.092
15470.373
7842.067
8542.4658
16684.698
17850.769
10168.074
17849.508
16675.138
9272.5221
17096.264
17685.802
8554.7214
8801.0475
7346.2371
7587.2265
6444.1386
6198.7214
4710.2821
4653.2799
4728.1703
4809.3713
4509.2818
4469.9145
4499.4447
4551.9957
4996.1993
4932.7503
5010.7525
5071.6096
5331.897
5217.143
5305.4728
5439.4218
4070.2381
4016.7725
4015.2792
4084.4451
3617.2177
3510.1226
3474.1311
3596.1528
3497.5877
3515.0096
3665.1815
3666.0142
4204.4104
4096.6229
4111.4251
4236.6097
3507.0078
3447.6637
3606.6005
3681.5121
3465.5921
3549.6544
3700.7497
3628.9535
4257.5513
4145.566
4078.64
4190.992
4156.1655
4036.809
4129.7418
4262.5288
5433.7676
5327.674
5265.6694
5381.3036
4812.3811
4718.8834
4655.71
4746.9176
4738.3366
4602.7873
4699.9971
4847.9776
5327.2772
5196.3167
5375.4119
5512.5565
20073.336
20058.538
18507.783
18459.047
18824.143
18855.124
20366.827
20366.921
19442.211
19151.168
20290.35
20285.49
18693.317
18649.298
18817.488
18853.299
20452.281
20462.138
19537.385
19402.579
19055.865
19010.867
17430.07
17504.806
17949.632
16655.223
16544.692
17865.07
17649.556
19194.027
17595.405
19232.605
18054.357
16715.412
18103.362
16766.938
18876.211
18824.262
17335.12
17260.2
17695.382
16501.187
16392.386
17783.248
19198.967
19229.228
17712.032
17661.656
18116.603
18159.142
16824.821
16879.846
18559.49
18546.808
17014.214
16986.266
17750.399
17824.653
19429.774
19456.958
17733.782
18602.992
19910.529
19916.984
18309.899
18295.529
18725.519
18778.114
20333.806
20346.933
19027.088
19417.103
15794.742
17339.554
15844.005
17301.494
16228.194
16158.376
14990.069
14905.588
16574.012
18073.226
16466.728
18158.558
15535.65
16864.651
16973.088
15648.605
17078.138
18662.346
17103.736
18654.123
16221.446
17529.764
17500.857
16172.757
17599.367
19099.253
17517.404
19157.377
16631.303
17966.049
18045.472
16719.036
20003.275
19991.506
18405.891
18345.389
18443.2
18475.23
19991.166
20003.574
5333.3009
5243.7811
5308.5808
5410.4698
19085.227
19112.096
19573.287
19557.846
17975.808
17915.747
18262.016
18296.72
19934.49
19951.839
5237.1269
5171.2952
5140.9475
5211.1132
19074.975
18716.594
16684.829
18318.846
16775.778
18253.403
17193.418
15910.066
15776.29
17086.109
17043.413
18605.944
16992.912
18647.878
4691.6984
4631.8931
4576.5687
4644.9993
4662.6413
4639.0082
4733.5934
4776.6999
20252.066
20264.457
18631.614
18596.519
19399.451
19403.817
21089.721
21091.594
5470.6078
5389.974
5638.43
5711.2155
20207.771
19380.178
19613.408
19601.29
18063.936
17991.396
18102.805
18125.364
19714.567
19731.111
5319.1522
5243.2253
5184.1092
5256.3179
18856.075
18750.621
4744.967
4660.2226
4602.7601
4680.7933
5008.8095
4790.9454
4879.7716
5092.5855
4200.6417
4088.9466
4040.4753
4142.8548
3642.3605
3463.0541
3441.6609
3598.8293
3783.094
3592.9512
3756.351
3936.3015
4323.7221
4199.7081
4408.3094
4514.8884
4191.8272
4106.6359
4032.4365
4124.9704
3671.3626
3527.8168
3444.5346
3590.468
3434.887
3450.733
3611.8695
3601.3527
4176.6539
4053.4896
4050.6507
4184.0682
3136.3432
2995.6004
2937.0861
3093.8051
2621.6007
2433.8282
2381.6612
2575.8953
2318.0124
2329.0618
2558.4638
2534.5726
3118.1912
2934.707
2905.0733
3094.5792
922.46984
700.5296
690.44039
902.99254
1254.4665
1253.9183
1478.3783
1472.0168
1323.2346
1373.3905
1606.151
1555.8148
1851.7352
1907.8913
2121.5451
2069.9796
2006.2079
1767.5679
1757.1264
1997.6742
2010.2585
1776.8185
1730.7137
1961.3554
897.71332
1476.5962
1247.0688
1230.4407
1448.1286
902.82859
1258.3361
1276.1345
1476.5908
1480.5508
1972.4854
1752.4116
1759.4899
1990.8281
683.8848
686.99065
570.88105
561.05673
3138.3201
2950.7319
2864.1936
3057.1231
2561.2619
2346.3687
2272.0843
2484.9051
2305.3949
2280.2669
2485.8499
2519.802
3047.9442
2851.1073
2895.1027
3096.5464
904.12904
895.9963
688.76511
684.74722
922.17786
934.83134
706.3176
711.9049
561.24927
576.51839
3125.9122
2952.1534
2877.1071
3047.9159
2563.4479
2349.1839
2287.0897
2501.8914
2262.7574
2477.8087
2463.5278
2252.3881
3045.2292
2849.5373
2845.7584
3029.6629
1499.8734
1259.5128
1246.9965
1469.175
1799.6388
2028.9508
1974.5871
1748.4297
1227.3912
1448.4429
1245.2499
1437.6684
1716.2803
1942.4879
1727.4006
1949.1097
1267.7837
1273.9368
1486.4066
1475.6122
1627.2557
1336.642
1559.4895
1369.3184
1854.1916
2082.606
2182.3481
1955.8646
1752.7987
1977.9144
1763.56
1990.3817
2297.8764
2506.2303
2497.1574
2289.1354
2403.7061
2615.6283
2747.3964
2534.7981
3162.1718
2993.9591
3184.2805
3346.7675
2863.6434
2869.0093
3062.8683
3043.3681
425.66165
420.58758
16773.692
15727.836
15711.988
16775.836
16995.221
15915.502
15734.534
16774.042
13677.137
13723.93
14720.756
14688.993
13744.136
13868.895
14882.598
14734.777
14570.958
13763.035
21157.249
22268.304
27363.014
25577.042
16387.268
15350.886
14479.094
15437.685
23414.296
25135.951
30845.304
28654.204
26073.984
26734.084
32505.473
31658.521
14356.271
13365.728
12653.597
13559.74
12242.003
12992.964
9755.0274
9829.5207
10800.147
10729.142
9877.8723
9976.3908
10935.84
10840.354
11893.885
12876.675
12769.925
11795.654
11696.89
11762.556
12743.037
12685.362
9356.5429
10053.539
9140.0823
9539.0044
10485.509
10008.533
12395.68
11429.664
10874.417
11761.088
11501.378
10757.873
17078.542
16033.655
16400.002
17497.454
25720.398
25419.266
15869.133
15879.311
16866.518
16892.459
27157.426
33037.824
32686.533
26867.737
31917.878
26187.074
13917.878
14000.392
14932.168
14886.452
15028.939
14031.734
14306.761
15347.176
17307.775
16208.753
16144.786
17240.944
16218.99
16014.156
17087.651
17311.512
14139.021
13973.637
14985.2
15172.728
14048.604
14127.566
15158.406
15091.649
11251.772
10333.716
10141.493
11081.761
10275.175
10163.968
11271.623
11127.501
12015.201
12159.427
13080.361
12964.896
12081.456
13054.466
13284.036
12267.324
10135.229
10058.486
11125.957
11031.7
9983.8065
10159.893
10990.143
11139.852
12116.545
13117.854
13020.507
11994.577
11996.402
12982.71
13123.955
12113.257
531.28598
755.48283
714.33158
837.72423
1048.3091
837.36531
1049.7381
1101.8045
893.05911
1113.6939
878.71766
850.63842
1063.5386
1061.4596
844.6669
1048.5649
840.33158
1048.8972
836.08381
711.82232
717.3331
523.52515
6116.6358
6087.571
7165.4776
7198.0935
6153.4608
6388.4613
7434.9603
7200.0957
8205.728
8432.3553
9400.6488
9189.2278
9193.8235
8187.5771
8242.6435
9271.966
1750.8903
3199.0617
1653.1467
3008.897
2896.8902
1576.0726
2907.4436
1565.2176
4261.2075
4039.462
5331.4324
5099.7514
5011.7236
3936.9958
3950.4197
5031.8574
1564.6739
2901.7442
2822.483
1550.6674
4987.5986
3919.1955
3804.8562
4825.3162
1573.7081
2873.7136
2949.7138
1588.6094
3964.5248
3866.0095
4910.7537
5001.7647
9180.0769
8161.592
7953.0661
8976.969
7123.6726
6051.289
5860.8423
6914.5875
9081.159
8062.715
8130.6916
9143.1358
7025.8906
5961.08
6045.1924
7099.0069
5708.9853
5762.3078
6827.0684
6756.3246
5832.91
5972.1112
7016.8833
6886.8833
7771.476
7844.6563
8850.9859
8775.4043
7905.3643
8023.0941
9012.2758
8905.5037
797.3619
804.57303
1006.6686
997.23606
1446.5828
1456.2359
2687.4966
2663.3402
829.98281
1039.2881
1033.7819
823.94979
1494.9058
1556.2997
2870.1559
2740.4128
3732.4533
3877.7972
4922.717
4777.103
4707.6495
3665.6046
3635.5431
4664.9272
1092.1575
881.32541
891.50759
1124.5646
2167.2684
3810.0473
1041.6194
843.47928
837.28814
1032.2004
1633.4271
1511.6805
2724.2505
2906.9737
3797.4417
3655.8496
4635.3681
4687.9259
5672.2949
4794.8102
6482.352
7226.5798
5581.8954
5624.0393
6628.8631
6487.8031
7931.5612
8654.4299
7377.1671
7611.8135
8585.7016
8265.5737
548.2212
538.50625
348.02522
340.10405
353.22353
382.47793
455.3826
537.7689
537.66685
421.56213
493.57542
494.80513
462.18579
597.0002
638.18725
638.12949
598.66477
700.5365
678.96841
689.4922
713.01377
1677.5391
498.38811
459.37336
693.50245
670.43649
686.9634
710.32457
2085.7196
2036.6872
4734.0885
4889.0303
4768.251
4830.0045
4934.7311
4795.0863
4728.5579
4858.4487
2059.917
2033.3875
3694.6845
4297.8882
8399.8928
7946.2112
4656.5037
3966.2025
3374.9253
1804.7858
3765.414
3584.5528
3254.6981
981.88271
1858.5041
2265.5648
2185.4253
4278.1106
4999.872
4110.4927
4775.5538
2974.3628
3146.7482
3489.22
3243.1118
1289.5267
3168.3343
3255.7264
2799.2113
2724.5212
5768.5685
6202.3336
5956.947
5572.8369
5826.3808
5405.8212
5064.9516
5439.0963
6935.2816
6504.6205
6209.0149
6699.6159
7327.913
6879.7775
7077.1207
6662.922
8899.8505
8961.3326
9449.8358
9657.2425
12914.284
13599.561
11602.859
11050.878
10021.314
9952.2086
9550.0759
9577.1197
10058.156
10168.974
15919.961
8616.9799
15330.727
15080.674
15681.272
8694.3483
8837.6291
8790.7955
15246.421
15695.793
15908.596
15034.531
15867.365
15859.566
15194.291
15228.32
15843.274
15245.024
15197.826
15791.869
3983.7439
4245.5516
4320.4101
4064.6303
8755.7823
8877.1472
8722.4145
8595.1197
9504.5705
9631.491
9252.9898
9360.1844
9610.8155
9615.3795
9418.308
9362.3074
15664.828
15567.464
15067.754
16432.922
15721.946
14715.807
15116.272
15378.792
15402.063
15743.665
15120.502
14826.824
15751.559
15275.931
16449.975
16641.314
15707.716
16318.239
16278.524
15868.957
15447.557
15866.379
15361.171
15669.511
18155.574
16098.632
16237.772
17970.655
17319.135
17055.362
20013.943
20076.034
15876.851
15260.656
15373.252
15712.285
15988.119
15882.093
15427.197
15588.153
16433.155
16205.495
15611.054
15901.517
16068.88
15436.311
15434.93
16010.968
44912.706
48156.136
33341.757
42558.274
51350.213
54840.709
58264.171
61632.162
723.17737
551.33271
634.15917
724.34943
634.41899
2004.7361
2074.1898
1810.9968
1786.4097
2291.0551
2706.2373
2369.2504
2551.6564
1460.7894
2517.3888
2895.7543
2770.9036
2433.4123
767.19054
1182.4739
1207.6461
1515.6839
2189.4814
1858.1822
1833.7086
2111.8569
1129.1152
807.49346
626.00853
816.56159
984.6317
962.66202
1689.7995
410.73761
431.80336
428.419
460.57857
464.23174
408.47549
611.46108
619.1192
666.2859
675.81469
682.2395
687.8401
743.70576
705.2208
714.44567
686.0053
752.40303
775.77772
733.41015
776.87271
853.31851
1036.624
2282.4249
1734.1011
915.17422
1051.7603
1724.1034
3964.0737
3512.8431
2820.3974
3670.1171
3025.1293
2149.5667
2555.8073
3667.0084
3068.5467
5985.748
5063.9909
2338.6266
3863.0194
6735.4026
6568.9018
4691.5586
7603.2414
9243.1536
2840.2107
4652.137
5772.3723
2460.382
4310.0263
2926.7067
4084.4162
8958.512
8270.4275
1521.2951
2151.2318
2236.6429
1501.8411
3955.8511
3420.0281
5219.4848
10850.185
12895.97
7334.5148
9576.9553
35568.599
15404.924
18933.234
39908.571
29120.791
32122.428
45188.227
41949.162
45100.503
47384.074
48879.358
52301.822
37578.568
41520.682
43220.039
39293.356
16259.177
46179.696
45639.176
15707.508
11146.294
14151.328
19212.251
16344.211
33362.79
34030.059
49924.13
47179.578
43060.318
31445.937
44898.013
32735.236
49809.662
47696.251
49689.463
52219.977
54759.574
51719.664
53535.892
57209.764
65150.555
61349.603
19079.902
55380.886
58125.199
7642.6525
3680.3233
9176.7525
5922.0516
7436.9732
12287.123
9367.0453
16103.864
25857.987
26079.669
5304.9866
7933.5376
10921.784
24808.031
33227.14
15376.945
28742.338
24367.711
11355.49
13318.624
20218.044
26692.846
31189.922
27695.552
31336.285
33850.652
36824.944
35861.375
36826.378
39473.158
42997.047
37868.234
34223.291
30600.553
10198.714
14205.624
15994.641
8181.8656
17785.235
7060.2902
13815.35
14326.641
6045.6529
12800.835
12655.051
16008.578
14781.323
16491.894
17381.388
18879.318
32087.729
26741.666
20370.571
22161.264
42346.58
62726.497
64764.247
44186.25
47479.853
52135.665
67431.798
66445.458
63057.452
61613.928
51391.336
52824.087
55194.31
64373.714
53595.346
63660.26
18884.555
17381.448
16340.826
48462.035
38227.221
53303.486
57217.693
39473.111
40824.789
60259.544
64632.061
64987.288
57910.317
56376.726
65033.403
64802.262
61411.391
59384.458
56318.21
50224.707
50504.166
56354.124
50391.794
51022.533
55328.629
55470.251
63495.607
63030.317
62912.04
63041.736
51538.893
52414.814
54833.084
54781.9
53455.338
55192.604
55983.236
54625.482
61815.469
60466.967
57520.498
56928.138
20635.862
32835.632
34562.646
56730.064
52459.924
62437.257
62659.213
37458.141
20508.47
42385.77
24299.096
62639.013
60491.519
62218.421
63249.732
55709.711
57221.535
56936.834
56613.17
61369.294
62494.179
62843.368
61224.608
19448.609
58206.953
57291.179
57946.391
56422.787
14353.148
16865.171
16336.005
15283.193
22710.02
31056.952
31800.342
53709.454
35750.466
39767.113
57493.226
60146.202
44311.644
48284.015
61554.756
57492.689
57594.402
55729.814
55496.407
58098.512
55393.445
56747.263
56366.83
60575.165
58881.264
20874.344
64919.134
57436.303
71829.695
43706.061
67238.14
25356.803
32472.396
49545.626
40013.668
24451.051
75815.317
79883.683
87583.139
83315.64
43569.107
67638.31
58513.256
54757.255
77352.615
82614.874
88047.611
79601.999
85981.152
74620.058
91060.824
91099.832
88709.879
88733.63
88221.149
90035.577
88720.118
90834.676
89167.727
88294.477
86999.648
87862.709
89118.143
82935.974
85784.613
89903.155
90326.553
87811.711
89375.535
89558.877
86345.923
87681.582
86426.23
85308.942
91476.791
89879.169
92696.885
96759.189
91041.233
91800.512
101999.62
100971.62
114794.08
114949.53
19163.361
40249.552
97192.257
40707.945
94556.409
29656.393
109787.17
99963.65
92071.773
102372.66
92619.072
20845.118
17042.191
16959.845
19043.349
72434.48
21814.451
19530.309
20900.065
17535.735
17589.941
19524.742
18736.87
73354.456
73275.713
19072.779
18924.688
19562.018
19300.604
74208.712
73629.882
19366.695
18198.908
18203.024
18873.194
73379.773
73692.309
72361.367
73672.45
81752.201
30740.802
80790.227
138216
137048.94
19163.267
15901.935
15776.409
18894.204
63734.068
60947.102
16391.509
16385.576
19665.125
19976.546
19335.574
19995.685
19082.204
55120.913
15601.363
15145.274
16518.882
16825.014
19522.369
21495.885
19053.549
67670.349
15362.763
15641.37
17931.566
17751.117
67546.541
65639.026
866.2893
884.01403
850.55357
841.53537
898.97061
893.45967
1022.683
1099.2495
1637.7914
2977.1274
2554.7639
4804.8613
6417.0973
8968.2535
6879.8585
11983.176
13655.483
13053.957
11717.252
31376.1
13169.367
14075.122
13075.46
13738.39
34969.687
38495.412
43942.734
14907.08
14459.653
41712.47
14581.65
14655.605
14336.723
15743.28
16650.513
16934.867
16765.303
16112.811
15167.119
14333.352
15413.126
16385.715
15982.762
14740.351
14021.254
14735.033
58231.305
57124.179
15056.917
15245.87
16062.543
16088.097
60873.994
18112.193
19300.895
19230.688
14290.603
14519.858
15273.433
14706.663
60987.171
59571.537
19132.472
19139.829
17523.981
17524.608
19486.889
19464.987
17860.956
17855.822
20414.731
20417.979
18768.105
18777.614
19127.302
19133.682
20790.264
20756.766