/*--------------------------------*- C++ -*----------------------------------*\
  =========                 |
  \\      /  F ield         | OpenFOAM: The Open Source CFD Toolbox
   \\    /   O peration     | Website:  https://openfoam.org
    \\  /    A nd           | Version:  7
     \\/     M anipulation  |
\*---------------------------------------------------------------------------*/
FoamFile
{
    version     2.0;
    format      ascii;
    class       volScalarField;
    location    "7000";
    object      p;
}
// * * * * * * * * * * * * * * * * * * * * * * * * * * * * * * * * * * * * * //

dimensions      [0 2 -2 0 0 0 0];

internalField   nonuniform List<scalar> 
33733
(
-7.2108265e+84
-7.5907897e+84
-7.2166126e+84
-7.3573593e+84
-7.3322058e+84
-6.7934551e+84
-7.1189964e+84
-7.1033473e+84
-7.3537541e+84
-7.1115463e+84
-7.3667577e+84
-7.5767981e+84
-7.6994976e+84
-7.7128375e+84
-7.5935382e+84
-7.125713e+84
-6.7902339e+84
-7.1246069e+84
-7.3677108e+84
-7.602368e+84
-7.6003342e+84
-7.4763906e+84
-7.4434611e+84
-7.3577534e+84
-7.3220331e+84
-6.6281619e+84
-6.8951368e+84
-6.8918941e+84
-6.6482215e+84
-7.1080862e+84
-7.2416974e+84
-7.0808162e+84
-7.2087513e+84
-7.369312e+84
-7.3826443e+84
-7.1142426e+84
-7.1139244e+84
-7.4784949e+84
-7.3608956e+84
-7.1080263e+84
-6.8815145e+84
-7.2439154e+84
-6.6109622e+84
-7.6287306e+84
-7.4625901e+84
-7.3351781e+84
-7.3573336e+84
-7.4814485e+84
-7.6148898e+84
-7.7380369e+84
-7.6475451e+84
-7.217251e+84
-7.0875623e+84
-6.8965577e+84
-7.237911e+84
-7.0989487e+84
-6.6283054e+84
-6.6233499e+84
-6.8939825e+84
-7.2512356e+84
-7.1098149e+84
-7.2558049e+84
-7.1168101e+84
-7.3699734e+84
-7.4915744e+84
-7.4930514e+84
-7.3738986e+84
-7.6774699e+84
-7.6223724e+84
-7.6286745e+84
-7.6801237e+84
-7.6257186e+84
-7.6747741e+84
-7.6164278e+84
-7.5023595e+84
-7.476127e+84
-7.5535337e+84
-7.5313455e+84
-7.4521783e+84
-7.3988545e+84
-7.3647559e+84
-7.4226435e+84
-6.3058536e+84
-6.5626947e+84
-6.8038864e+84
-6.9750093e+84
-6.9597866e+84
-6.8062164e+84
-7.1401642e+84
-7.1068139e+84
-7.2183887e+84
-7.1820454e+84
-7.2823872e+84
-7.3434149e+84
-7.2440732e+84
-7.3081291e+84
-7.396031e+84
-7.6636488e+84
-7.6690495e+84
-7.6584413e+84
-7.3889839e+84
-7.115974e+84
-7.1147771e+84
-7.5221262e+84
-7.5036076e+84
-7.4062468e+84
-7.3879731e+84
-7.541468e+84
-7.5332834e+84
-7.421613e+84
-7.4144916e+84
-6.8571018e+84
-7.2937562e+84
-7.1332843e+84
-7.1305502e+84
-7.2878673e+84
-7.2827915e+84
-7.1273026e+84
-7.1218865e+84
-6.8679763e+84
-7.2668946e+84
-6.5668857e+84
-6.586929e+84
-7.5055207e+84
-7.5555154e+84
-7.4562213e+84
-7.4031753e+84
-7.2242059e+84
-7.1442484e+84
-6.9690948e+84
-6.794514e+84
-7.2873346e+84
-7.3479656e+84
-7.1418831e+84
-7.3863607e+84
-7.6712368e+84
-7.4966286e+84
-7.3673799e+84
-7.4092804e+84
-7.531353e+84
-7.6472754e+84
-7.7732767e+84
-7.6990574e+84
-7.6622338e+84
-7.7150641e+84
-7.2422747e+84
-7.1033178e+84
-6.9661074e+84
-6.8137724e+84
-6.7988782e+84
-6.9659594e+84
-7.2761885e+84
-7.1285579e+84
-6.5670954e+84
-6.2900886e+84
-6.5505299e+84
-6.9697333e+84
-6.7931867e+84
-6.8004529e+84
-6.9770241e+84
-7.328582e+84
-7.2562683e+84
-7.2833831e+84
-7.3518085e+84
-7.1855584e+84
-7.1056274e+84
-7.2107785e+84
-7.1257254e+84
-7.2993819e+84
-7.3014468e+84
-7.3643048e+84
-7.3625522e+84
-7.1428992e+84
-7.2284774e+84
-7.1516153e+84
-7.2340665e+84
-7.390066e+84
-7.4531488e+84
-7.4703503e+84
-7.4121783e+84
-7.5684252e+84
-7.5098825e+84
-7.5235502e+84
-7.5772114e+84
-7.5772722e+84
-7.5265962e+84
-7.56857e+84
-7.5186941e+84
-7.4760256e+84
-7.469496e+84
-7.4219065e+84
-7.4172768e+84
-7.6481563e+84
-7.6730099e+84
-7.6709999e+84
-7.6476489e+84
-7.6943774e+84
-7.7226726e+84
-7.6972979e+84
-7.718776e+84
-7.6416218e+84
-7.6642327e+84
-7.6341168e+84
-7.6560551e+84
-7.6787069e+84
-7.6874018e+84
-7.7116713e+84
-7.7028445e+84
-7.6732427e+84
-7.6287317e+84
-7.6225101e+84
-7.6451949e+84
-7.6505581e+84
-7.5249252e+84
-7.5463688e+84
-7.5333442e+84
-7.5104666e+84
-7.5805244e+84
-7.5913464e+84
-7.5684431e+84
-7.5560063e+84
-7.4812753e+84
-7.5032243e+84
-7.463647e+84
-7.4876536e+84
-7.4362911e+84
-7.4147795e+84
-7.4401329e+84
-7.4591929e+84
-6.2481118e+84
-6.5268598e+84
-6.7808055e+84
-6.9437649e+84
-7.0540544e+84
-6.9341891e+84
-7.0321262e+84
-7.1870495e+84
-7.2346235e+84
-7.2007548e+84
-7.1547788e+84
-7.271342e+84
-7.3045585e+84
-7.2726353e+84
-7.2368259e+84
-7.3339748e+84
-7.3606598e+84
-7.33317e+84
-7.3036287e+84
-7.4115827e+84
-7.3857965e+84
-7.3600222e+84
-7.388434e+84
-7.5565234e+84
-7.4325366e+84
-7.4271466e+84
-7.550744e+84
-7.6824292e+84
-7.6851866e+84
-7.7346843e+84
-7.7318625e+84
-7.6890725e+84
-7.6864252e+84
-7.7386368e+84
-7.736314e+84
-7.6763153e+84
-7.6790969e+84
-7.7279427e+84
-7.5476129e+84
-7.6752983e+84
-7.6753641e+84
-7.5457843e+84
-7.4230021e+84
-7.4250015e+84
-7.3010749e+84
-7.1366051e+84
-7.1326651e+84
-6.8461517e+84
-7.2967066e+84
-6.8505293e+84
-7.295489e+84
-7.1323378e+84
-7.1345295e+84
-7.2941388e+84
-6.554013e+84
-6.5453439e+84
-7.5990083e+84
-7.6072891e+84
-7.5546632e+84
-7.5624379e+84
-7.5736236e+84
-7.5892577e+84
-7.5446349e+84
-7.5264126e+84
-7.4614389e+84
-7.4688613e+84
-7.5167344e+84
-7.5093547e+84
-7.4298678e+84
-7.4507957e+84
-7.4990787e+84
-7.4795953e+84
-7.6217018e+84
-7.6274753e+84
-7.6806846e+84
-7.5816406e+84
-7.5755498e+84
-7.6167918e+84
-7.6122676e+84
-7.5668002e+84
-7.5707652e+84
-7.4851442e+84
-7.4798223e+84
-7.5347852e+84
-7.5287311e+84
-7.4730121e+84
-7.4762316e+84
-7.5242411e+84
-7.520613e+84
-6.7594797e+84
-6.9643304e+84
-6.9636554e+84
-6.7588595e+84
-7.3605962e+84
-7.3651856e+84
-7.4291662e+84
-7.4244405e+84
-7.1904993e+84
-7.1843202e+84
-7.29106e+84
-7.2860352e+84
-7.1824187e+84
-7.2822097e+84
-7.1828252e+84
-7.2801543e+84
-7.4204441e+84
-7.3552338e+84
-7.4172887e+84
-7.3524282e+84
-7.3450219e+84
-7.3511039e+84
-7.4074463e+84
-7.4142812e+84
-7.1755594e+84
-7.1807668e+84
-7.2784375e+84
-7.2725974e+84
-6.9648938e+84
-7.1641793e+84
-7.1719777e+84
-7.2654652e+84
-7.2493561e+84
-6.9700355e+84
-6.7833119e+84
-6.7662102e+84
-7.3152596e+84
-7.3350222e+84
-7.375914e+84
-7.3969563e+84
-6.5005148e+84
-7.5273278e+84
-7.5487317e+84
-7.5702287e+84
-7.593192e+84
-7.5062561e+84
-7.4847453e+84
-7.4635179e+84
-7.440613e+84
-7.3073938e+84
-7.2737759e+84
-7.05381e+84
-7.2361941e+84
-7.1877646e+84
-6.9398857e+84
-7.336833e+84
-7.3646521e+84
-7.3903276e+84
-7.4163531e+84
-6.6286709e+84
-6.8870096e+84
-6.888116e+84
-6.6041911e+84
-7.1496276e+84
-7.4129891e+84
-7.7077134e+84
-7.8103212e+84
-7.6801935e+84
-7.524699e+84
-7.3908043e+84
-7.4989223e+84
-7.4537846e+84
-7.4380574e+84
-7.5806048e+84
-7.5538266e+84
-7.6092858e+84
-7.8596677e+84
-7.7302352e+84
-7.7430481e+84
-7.6956655e+84
-7.7479299e+84
-7.7824957e+84
-7.6954529e+84
-7.6714856e+84
-7.7193371e+84
-7.7441642e+84
-7.2587512e+84
-7.1106775e+84
-6.9683403e+84
-6.802696e+84
-6.7861617e+84
-6.9709731e+84
-7.3093744e+84
-7.2942558e+84
-7.3727178e+84
-7.145091e+84
-7.2154193e+84
-7.1293681e+84
-6.5317054e+84
-6.2245918e+84
-6.507872e+84
-6.7704965e+84
-6.7729245e+84
-6.9313887e+84
-7.0286745e+84
-7.0392254e+84
-6.9287445e+84
-6.9332635e+84
-7.050276e+84
-7.0596652e+84
-6.944222e+84
-7.2993631e+84
-7.3385419e+84
-7.3640523e+84
-7.3261374e+84
-7.4073463e+84
-7.3731072e+84
-7.396772e+84
-7.4276457e+84
-7.2551381e+84
-7.164071e+84
-7.3433896e+84
-7.3782388e+84
-7.3862813e+84
-7.3570783e+84
-7.3860989e+84
-7.3781082e+84
-7.3604406e+84
-7.3531685e+84
-7.4095255e+84
-7.4380382e+84
-7.438147e+84
-7.4127697e+84
-7.4100286e+84
-7.4339155e+84
-7.4262885e+84
-7.4017443e+84
-7.2110032e+84
-7.1568749e+84
-7.1830168e+84
-7.2388019e+84
-7.3011208e+84
-7.2550545e+84
-7.2823336e+84
-7.3216645e+84
-7.1959707e+84
-7.250354e+84
-7.2005837e+84
-7.250577e+84
-7.2923571e+84
-7.328359e+84
-7.3232761e+84
-7.28927e+84
-7.492585e+84
-7.5287425e+84
-7.5194126e+84
-7.5052394e+84
-7.4667136e+84
-7.4816209e+84
-7.4381168e+84
-7.4568084e+84
-7.5451711e+84
-7.5704034e+84
-7.5527522e+84
-7.5752537e+84
-7.5957235e+84
-7.6223472e+84
-7.6243744e+84
-7.5988469e+84
-7.5965549e+84
-7.6200694e+84
-7.6121982e+84
-7.590733e+84
-7.5541584e+84
-7.5745578e+84
-7.5698418e+84
-7.5496632e+84
-7.6069242e+84
-7.5854883e+84
-7.6003802e+84
-7.5784341e+84
-7.5647264e+84
-7.544232e+84
-7.5571744e+84
-7.5365013e+84
-7.5103053e+84
-7.5071469e+84
-7.5320524e+84
-7.5280818e+84
-7.5017273e+84
-7.4937773e+84
-7.5150481e+84
-7.5226926e+84
-7.46578e+84
-7.4884417e+84
-7.4641852e+84
-7.4854433e+84
-7.4800961e+84
-7.4583525e+84
-7.4721954e+84
-7.4504336e+84
-7.6905735e+84
-7.6958392e+84
-7.6848572e+84
-7.681649e+84
-7.6739781e+84
-7.6613897e+84
-7.6568364e+84
-7.6691157e+84
-7.7009094e+84
-7.7069573e+84
-7.7180893e+84
-7.7117434e+84
-7.7302346e+84
-7.7426486e+84
-7.7358873e+84
-7.723605e+84
-7.6617801e+84
-7.6519346e+84
-7.6443952e+84
-7.6545929e+84
-7.6769606e+84
-7.6844069e+84
-7.6658444e+84
-7.6738806e+84
-7.6394012e+84
-7.6497139e+84
-7.645667e+84
-7.6352907e+84
-7.6674908e+84
-7.6716361e+84
-7.6563101e+84
-7.6604443e+84
-7.6828521e+84
-7.694467e+84
-7.6903094e+84
-7.6787211e+84
-7.6881284e+84
-7.6951526e+84
-7.7061188e+84
-7.6995001e+84
-7.7112613e+84
-7.7178604e+84
-7.7301325e+84
-7.7235218e+84
-7.7186762e+84
-7.7063448e+84
-7.7022233e+84
-7.7144842e+84
-7.6761726e+84
-7.6877642e+84
-7.6854503e+84
-7.6737825e+84
-7.6326111e+84
-7.6430034e+84
-7.640075e+84
-7.6296831e+84
-7.6272694e+84
-7.6377354e+84
-7.6330001e+84
-7.6229428e+84
-7.6579554e+84
-7.660862e+84
-7.6443535e+84
-7.6488437e+84
-7.6622846e+84
-7.6649013e+84
-7.6508971e+84
-7.6536844e+84
-7.5421658e+84
-7.5618394e+84
-7.6032594e+84
-7.5824515e+84
-7.6361661e+84
-7.6265492e+84
-7.6605735e+84
-7.502772e+84
-7.5224726e+84
-7.4642861e+84
-7.4834796e+84
-6.2129891e+84
-6.7438072e+84
-6.7642037e+84
-6.9479781e+84
-7.0581862e+84
-7.1291963e+84
-7.1050988e+84
-7.0415795e+84
-7.2346155e+84
-7.2838003e+84
-7.3198329e+84
-7.349139e+84
-7.3748834e+84
-7.3980918e+84
-7.4433238e+84
-7.4206296e+84
-7.6907008e+84
-7.5878715e+84
-7.5913892e+84
-7.6399852e+84
-7.6369032e+84
-7.54355e+84
-7.4940998e+84
-7.4897966e+84
-7.5393303e+84
-7.4853589e+84
-7.4869527e+84
-7.5366298e+84
-7.5355286e+84
-7.6353979e+84
-7.5851961e+84
-7.5836505e+84
-7.6330076e+84
-7.7128744e+84
-7.71062e+84
-7.6868959e+84
-7.6890206e+84
-7.7153034e+84
-7.7141666e+84
-7.6904831e+84
-7.6917007e+84
-7.738953e+84
-7.7635879e+84
-7.7377328e+84
-7.7620257e+84
-7.7364258e+84
-7.7606713e+84
-7.7342585e+84
-7.7585935e+84
-7.7179301e+84
-7.7169521e+84
-7.6941443e+84
-7.6926702e+84
-7.7160453e+84
-7.7155691e+84
-7.6917819e+84
-7.6916012e+84
-7.741738e+84
-7.7663761e+84
-7.7410409e+84
-7.7657385e+84
-7.7401797e+84
-7.7649454e+84
-7.7395689e+84
-7.7642717e+84
-7.7037235e+84
-7.7031391e+84
-7.6291103e+84
-7.6810051e+84
-7.6811169e+84
-7.7080356e+84
-7.705264e+84
-7.630768e+84
-7.6821847e+84
-7.6846068e+84
-7.7316626e+84
-7.7560619e+84
-7.7286501e+84
-7.5823103e+84
-7.5822017e+84
-7.7025928e+84
-7.7026059e+84
-7.6300493e+84
-7.6818468e+84
-7.6816051e+84
-7.7029488e+84
-7.7026176e+84
-7.6294187e+84
-7.6811777e+84
-7.6811599e+84
-7.5834711e+84
-7.5844393e+84
-7.5364885e+84
-7.4854307e+84
-7.4865999e+84
-7.5368548e+84
-7.5347361e+84
-7.4849814e+84
-7.4845171e+84
-7.53463e+84
-7.4379392e+84
-7.3717952e+84
-7.3682615e+84
-7.4332113e+84
-6.9598714e+84
-7.1850895e+84
-7.1933563e+84
-7.2960185e+84
-7.2915323e+84
-7.2884191e+84
-7.1824624e+84
-7.1837662e+84
-7.2865457e+84
-6.9566147e+84
-6.7458433e+84
-6.7419196e+84
-7.4298181e+84
-7.3636089e+84
-7.3618813e+84
-7.4282541e+84
-6.9579434e+84
-6.9634098e+84
-6.7449229e+84
-6.7549697e+84
-7.4286812e+84
-7.3623822e+84
-7.3611099e+84
-7.4272302e+84
-7.184693e+84
-7.2870519e+84
-7.1839202e+84
-7.2864249e+84
-7.1860368e+84
-7.1911361e+84
-7.2911428e+84
-7.2880695e+84
-7.3620108e+84
-7.3646122e+84
-7.4296827e+84
-7.4279663e+84
-6.4849421e+84
-6.4747432e+84
-7.6339901e+84
-7.616155e+84
-7.6121788e+84
-7.6299683e+84
-7.6410005e+84
-7.6227313e+84
-7.6195861e+84
-7.6375832e+84
-7.5771305e+84
-7.5805766e+84
-7.5983236e+84
-7.5945703e+84
-7.5836688e+84
-7.5864976e+84
-7.6045534e+84
-7.6016352e+84
-7.6107742e+84
-7.5913668e+84
-7.5810279e+84
-7.6022903e+84
-7.6254868e+84
-7.6077496e+84
-7.5999609e+84
-7.6183758e+84
-7.5901167e+84
-7.5725188e+84
-7.563407e+84
-7.5815866e+84
-7.540133e+84
-7.5531312e+84
-7.5721319e+84
-7.5605986e+84
-7.502123e+84
-7.5051688e+84
-7.52475e+84
-7.5217155e+84
-7.5082013e+84
-7.5114463e+84
-7.5307229e+84
-7.5277654e+84
-7.5489228e+84
-7.5675002e+84
-7.5646582e+84
-7.5461444e+84
-7.5400867e+84
-7.5432095e+84
-7.5616505e+84
-7.5585672e+84
-7.4586946e+84
-7.4750338e+84
-7.4951293e+84
-7.4800347e+84
-7.4870992e+84
-7.4972735e+84
-7.5169121e+84
-7.5068943e+84
-7.5538878e+84
-7.5353496e+84
-7.5256135e+84
-7.544411e+84
-7.5335439e+84
-7.5143278e+84
-7.4996528e+84
-7.5199129e+84
-7.6554954e+84
-7.6367316e+84
-7.6338233e+84
-7.6527134e+84
-7.7036309e+84
-7.7024692e+84
-7.6398467e+84
-7.6433987e+84
-7.6618061e+84
-7.6584812e+84
-7.6873579e+84
-7.6026986e+84
-7.6066556e+84
-7.6250475e+84
-7.6213133e+84
-7.6178275e+84
-7.5990545e+84
-7.5958947e+84
-7.6148697e+84
-7.6501617e+84
-7.6310869e+84
-7.627727e+84
-7.6467675e+84
-7.62431e+84
-7.6255629e+84
-7.6444014e+84
-7.6427751e+84
-7.5874864e+84
-7.5879065e+84
-7.6067507e+84
-7.6058803e+84
-7.5896866e+84
-7.5930209e+84
-7.612105e+84
-7.6087544e+84
-7.5492487e+84
-7.5291844e+84
-7.5249787e+84
-7.5449425e+84
-7.5185005e+84
-7.5214132e+84
-7.5382131e+84
-7.5413281e+84
-7.5640158e+84
-7.5682429e+84
-7.5873375e+84
-7.5831226e+84
-7.5602349e+84
-7.5793758e+84
-7.5762114e+84
-7.5569443e+84
-7.5126132e+84
-7.5126048e+84
-7.5316355e+84
-7.5314759e+84
-7.5136723e+84
-7.5164565e+84
-7.5327579e+84
-7.5356868e+84
-7.5539672e+84
-7.5732377e+84
-7.5698619e+84
-7.5509232e+84
-7.5494439e+84
-7.5682331e+84
-7.5682425e+84
-7.54959e+84
-6.7327252e+84
-6.9269201e+84
-7.0664322e+84
-7.0720431e+84
-6.9203918e+84
-7.0668573e+84
-7.0650388e+84
-6.9200122e+84
-6.9248542e+84
-6.7336204e+84
-7.4206228e+84
-7.4237645e+84
-7.4516857e+84
-7.4488972e+84
-7.4270061e+84
-7.4307998e+84
-7.45854e+84
-7.4547617e+84
-7.4790452e+84
-7.4829018e+84
-7.5066216e+84
-7.5024513e+84
-7.499008e+84
-7.4757998e+84
-7.4731669e+84
-7.4964236e+84
-7.2495881e+84
-7.31273e+84
-7.2434213e+84
-7.307787e+84
-7.3010351e+84
-7.2380264e+84
-7.3033767e+84
-7.2364104e+84
-7.3583472e+84
-7.3536006e+84
-7.3976102e+84
-7.3934831e+84
-7.3899299e+84
-7.3496573e+84
-7.34717e+84
-7.3869382e+84
-7.2351453e+84
-7.2989932e+84
-7.2973998e+84
-7.2338507e+84
-7.384505e+84
-7.3448312e+84
-7.3419862e+84
-7.3810018e+84
-7.2342486e+84
-7.2979331e+84
-7.2990532e+84
-7.2376499e+84
-7.3427437e+84
-7.3425182e+84
-7.3808123e+84
-7.3811237e+84
-7.4947205e+84
-7.4712642e+84
-7.4681241e+84
-7.4917122e+84
-7.4462493e+84
-7.4179129e+84
-7.4143218e+84
-7.4428146e+84
-7.4907137e+84
-7.4670089e+84
-7.4670677e+84
-7.4907557e+84
-7.4417148e+84
-7.4135696e+84
-7.4139229e+84
-7.4420088e+84
-7.4050878e+84
-7.4084285e+84
-7.4361311e+84
-7.4329861e+84
-7.411013e+84
-7.4139171e+84
-7.441666e+84
-7.4386929e+84
-7.457053e+84
-7.4601018e+84
-7.4830504e+84
-7.4801938e+84
-7.4628909e+84
-7.4660798e+84
-7.4894632e+84
-7.486039e+84
-7.0639682e+84
-7.2263602e+84
-7.2273522e+84
-7.2902222e+84
-7.287675e+84
-7.0664375e+84
-7.2309986e+84
-7.2363156e+84
-7.2979653e+84
-7.293544e+84
-7.3384224e+84
-7.3424398e+84
-7.3810792e+84
-7.3777957e+84
-7.3749955e+84
-7.3353884e+84
-7.3325179e+84
-7.3718624e+84
-6.9270161e+84
-6.9258115e+84
-7.0642405e+84
-7.207025e+84
-7.2171156e+84
-7.2725737e+84
-7.257979e+84
-7.0643427e+84
-7.2210291e+84
-7.225148e+84
-7.2851776e+84
-7.279603e+84
-7.3218772e+84
-7.3289807e+84
-7.3675152e+84
-7.3588584e+84
-7.3482091e+84
-7.3126858e+84
-7.29626e+84
-7.3302902e+84
-6.9308676e+84
-6.9402122e+84
-7.3598963e+84
-7.3788821e+84
-7.4054238e+84
-7.3867435e+84
-7.3906012e+84
-7.4002103e+84
-7.4279871e+84
-7.4178036e+84
-7.4114377e+84
-7.4295463e+84
-7.4528092e+84
-7.4359343e+84
-7.4419284e+84
-7.4521996e+84
-7.4753808e+84
-7.4650761e+84
-6.4793324e+84
-7.0566237e+84
-7.1300832e+84
-6.6069724e+84
-6.875452e+84
-6.87388e+84
-6.5773191e+84
-7.272119e+84
-7.1517266e+84
-7.1117849e+84
-7.4343439e+84
-7.552762e+84
-7.411198e+84
-7.736765e+84
-7.7220186e+84
-7.7030068e+84
-7.836477e+84
-7.8607633e+84
-7.7608855e+84
-7.8961663e+84
-7.9259216e+84
-7.5225043e+84
-7.5470272e+84
-7.535319e+84
-7.5079541e+84
-7.4851297e+84
-7.5680599e+84
-7.4756308e+84
-7.4724846e+84
-7.4986968e+84
-7.6195695e+84
-7.6223401e+84
-7.5887578e+84
-7.6432166e+84
-7.6776264e+84
-7.5718216e+84
-7.5957939e+84
-7.6459402e+84
-7.6203715e+84
-7.8856097e+84
-7.8600957e+84
-7.7481448e+84
-7.756546e+84
-7.7704904e+84
-7.7517523e+84
-7.7288409e+84
-7.7756311e+84
-7.7809858e+84
-7.8337101e+84
-7.8087143e+84
-7.6896816e+84
-7.7103171e+84
-7.7335762e+84
-7.7133309e+84
-7.7817478e+84
-7.7572879e+84
-7.7370136e+84
-7.7616874e+84
-7.7937638e+84
-7.7752619e+84
-7.7998523e+84
-7.8187734e+84
-7.6973444e+84
-7.7077377e+84
-7.6715663e+84
-7.6854834e+84
-7.7185571e+84
-7.7294549e+84
-7.7415053e+84
-7.7536626e+84
-6.9659787e+84
-6.7920959e+84
-6.772521e+84
-7.0429624e+84
-6.9711581e+84
-6.936089e+84
-7.320824e+84
-7.4073527e+84
-7.43698e+84
-7.3294785e+84
-7.3431434e+84
-7.3706782e+84
-7.3254528e+84
-7.4090618e+84
-7.4425114e+84
-7.142857e+84
-7.1490381e+84
-7.150665e+84
-7.2348709e+84
-7.2498479e+84
-6.5038448e+84
-6.7533594e+84
-6.7748857e+84
-6.1871233e+84
-6.7318179e+84
-6.7534907e+84
-6.731123e+84
-6.7529541e+84
-6.9352422e+84
-6.9363713e+84
-6.9444055e+84
-7.0590318e+84
-7.0390908e+84
-7.1038772e+84
-7.1208046e+84
-7.0450822e+84
-7.0551335e+84
-7.1360492e+84
-7.0654875e+84
-7.1429785e+84
-7.4043522e+84
-7.3589175e+84
-7.4413094e+84
-7.4703359e+84
-7.3007897e+84
-7.2927272e+84
-7.3478661e+84
-7.1889181e+84
-7.18549e+84
-7.2488878e+84
-7.3885085e+84
-7.4164577e+84
-7.4033433e+84
-7.4244115e+84
-7.4352031e+84
-7.4240588e+84
-7.4239958e+84
-7.4374051e+84
-7.434688e+84
-7.3981932e+84
-7.3906833e+84
-7.4110491e+84
-7.4069466e+84
-7.4149818e+84
-7.4200547e+84
-7.4297849e+84
-7.4244868e+84
-7.4036152e+84
-7.4106186e+84
-7.4202102e+84
-7.4134959e+84
-7.3980204e+84
-7.3951479e+84
-7.4053618e+84
-7.4090491e+84
-7.3821354e+84
-7.39175e+84
-7.401331e+84
-7.3933851e+84
-7.4494664e+84
-7.4414034e+84
-7.4554142e+84
-7.4624444e+84
-7.4678107e+84
-7.4800052e+84
-7.483277e+84
-7.4734747e+84
-7.4710864e+84
-7.481133e+84
-7.4745897e+84
-7.4644908e+84
-7.4453746e+84
-7.4497449e+84
-7.4540766e+84
-7.4599146e+84
-7.4342526e+84
-7.4402503e+84
-7.4493671e+84
-7.4436995e+84
-7.4538859e+84
-7.4594808e+84
-7.469907e+84
-7.4649184e+84
-7.4619631e+84
-7.4504686e+84
-7.4450192e+84
-7.4563518e+84
-7.4237545e+84
-7.43009e+84
-7.439828e+84
-7.4337354e+84
-7.2255793e+84
-7.2854249e+84
-7.2576648e+84
-7.2867719e+84
-7.3126158e+84
-7.3516553e+84
-7.3331341e+84
-7.3113974e+84
-7.3349949e+84
-7.3680238e+84
-7.354116e+84
-7.3733758e+84
-7.3829274e+84
-7.2772905e+84
-7.2403235e+84
-7.26508e+84
-7.2812063e+84
-7.2985254e+84
-7.2948584e+84
-7.3189271e+84
-7.3184753e+84
-7.2705148e+84
-7.2800557e+84
-7.2638065e+84
-7.2371072e+84
-7.2977344e+84
-7.3185306e+84
-7.3091261e+84
-7.2874019e+84
-7.3563166e+84
-7.3400584e+84
-7.3372625e+84
-7.3539418e+84
-7.3686903e+84
-7.3716915e+84
-7.3843665e+84
-7.381941e+84
-7.3784944e+84
-7.3646641e+84
-7.3542244e+84
-7.3687261e+84
-7.3407266e+84
-7.3505915e+84
-7.3350576e+84
-7.3255974e+84
-7.5478371e+84
-7.5435869e+84
-7.5600115e+84
-7.5550928e+84
-7.5368892e+84
-7.518082e+84
-7.4974181e+84
-7.567349e+84
-7.5782583e+84
-7.5812653e+84
-7.5720792e+84
-7.5912744e+84
-7.5893758e+84
-7.6004288e+84
-7.6009255e+84
-7.6366046e+84
-7.6484192e+84
-7.6455465e+84
-7.6342086e+84
-7.6118688e+84
-7.6126265e+84
-7.6223024e+84
-7.624184e+84
-7.6087289e+84
-7.6033459e+84
-7.6127534e+84
-7.6186136e+84
-7.6299747e+84
-7.6409394e+84
-7.633696e+84
-7.6233176e+84
-7.6187101e+84
-7.6289697e+84
-7.6249488e+84
-7.6146905e+84
-7.5955023e+84
-7.5991872e+84
-7.6048379e+84
-7.6086164e+84
-7.5683033e+84
-7.5674247e+84
-7.5809706e+84
-7.5759204e+84
-7.5847505e+84
-7.5895039e+84
-7.5984044e+84
-7.5935412e+84
-7.5897571e+84
-7.5807499e+84
-7.5772237e+84
-7.5863006e+84
-7.5717926e+84
-7.5629799e+84
-7.5593106e+84
-7.5683193e+84
-7.6192323e+84
-7.6222633e+84
-7.6119608e+84
-7.6089487e+84
-7.6020522e+84
-7.5926633e+84
-7.5894799e+84
-7.5989194e+84
-7.6065097e+84
-7.6168849e+84
-7.6126842e+84
-7.6024284e+84
-7.5823508e+84
-7.5868073e+84
-7.5920722e+84
-7.5964578e+84
-7.5834782e+84
-7.5743569e+84
-7.5711229e+84
-7.5801502e+84
-7.565377e+84
-7.5561944e+84
-7.5529154e+84
-7.56209e+84
-7.5773985e+84
-7.5682806e+84
-7.5630392e+84
-7.5724195e+84
-7.5592163e+84
-7.5499155e+84
-7.5438808e+84
-7.553551e+84
-7.5407441e+84
-7.5324435e+84
-7.5313243e+84
-7.5394956e+84
-7.5353021e+84
-7.5269772e+84
-7.5223163e+84
-7.5312102e+84
-7.5487416e+84
-7.5502336e+84
-7.5576992e+84
-7.5596312e+84
-7.5404848e+84
-7.5445516e+84
-7.5498932e+84
-7.5534252e+84
-7.5142064e+84
-7.5184377e+84
-7.5275038e+84
-7.523542e+84
-7.5039236e+84
-7.5104744e+84
-7.5197448e+84
-7.5132041e+84
-7.5237083e+84
-7.5299902e+84
-7.5406645e+84
-7.5345911e+84
-7.5331334e+84
-7.5368025e+84
-7.5431278e+84
-7.546556e+84
-7.4949528e+84
-7.5062218e+84
-7.4981961e+84
-7.4952853e+84
-7.523357e+84
-7.5149721e+84
-7.5147531e+84
-7.5218973e+84
-7.4853085e+84
-7.4927306e+84
-7.5012986e+84
-7.4942677e+84
-7.5034287e+84
-7.5093791e+84
-7.517395e+84
-7.5128262e+84
-7.5088963e+84
-7.4991534e+84
-7.4945961e+84
-7.5045881e+84
-7.4753526e+84
-7.4804483e+84
-7.4897826e+84
-7.4850255e+84
-7.5009208e+84
-7.4912024e+84
-7.4852888e+84
-7.494424e+84
-7.466724e+84
-7.4725435e+84
-7.4815342e+84
-7.476191e+84
-7.6953328e+84
-7.686721e+84
-7.6766465e+84
-7.6760114e+84
-7.6636169e+84
-7.6703897e+84
-7.67085e+84
-7.7051586e+84
-7.7157097e+84
-7.7393682e+84
-7.7274333e+84
-7.6646995e+84
-7.6551047e+84
-7.6469075e+84
-7.6567883e+84
-7.679077e+84
-7.6868207e+84
-7.6680785e+84
-7.6763633e+84
-7.6412538e+84
-7.6514585e+84
-7.6475007e+84
-7.6372503e+84
-7.669251e+84
-7.6733208e+84
-7.6582067e+84
-7.6622674e+84
-7.6847008e+84
-7.6961721e+84
-7.6921584e+84
-7.6806541e+84
-7.6903231e+84
-7.6974829e+84
-7.7083071e+84
-7.7015881e+84
-7.7134318e+84
-7.7200405e+84
-7.7320518e+84
-7.725482e+84
-7.7202286e+84
-7.7081314e+84
-7.7041448e+84
-7.7161915e+84
-7.6782653e+84
-7.6896951e+84
-7.6881372e+84
-7.6766379e+84
-7.6644659e+84
-7.6346044e+84
-7.6448935e+84
-7.6427393e+84
-7.6325127e+84
-7.6317024e+84
-7.6418889e+84
-7.6581138e+84
-7.6615652e+84
-7.6651557e+84
-7.6466994e+84
-7.6531679e+84
-7.6650599e+84
-7.666846e+84
-7.6537027e+84
-7.6557255e+84
-7.5552965e+84
-7.5609385e+84
-7.5482084e+84
-7.573996e+84
-7.5792285e+84
-7.5699385e+84
-7.6119668e+84
-7.6172158e+84
-7.607646e+84
-7.593e+84
-7.5981325e+84
-7.5885961e+84
-7.6287668e+84
-7.6318774e+84
-7.640717e+84
-7.6380397e+84
-7.6373623e+84
-7.6280632e+84
-7.6650343e+84
-7.5189481e+84
-7.5136257e+84
-7.5222302e+84
-7.5368659e+84
-7.5411043e+84
-7.5307712e+84
-7.4842005e+84
-7.475754e+84
-7.4883985e+84
-7.5013326e+84
-7.4965179e+84
-7.5050691e+84
-6.9326834e+84
-6.9328905e+84
-6.9390913e+84
-6.9491695e+84
-7.0757491e+84
-7.1637407e+84
-7.265171e+84
-7.265141e+84
-7.2941492e+84
-7.3185177e+84
-7.3187574e+84
-7.3410643e+84
-7.3529747e+84
-7.3558268e+84
-7.3689553e+84
-7.3898559e+84
-7.3800212e+84
-7.3800715e+84
-7.414273e+84
-7.3997984e+84
-7.4043699e+84
-7.4251966e+84
-7.4335932e+84
-7.4246566e+84
-7.4659984e+84
-7.461783e+84
-7.4687309e+84
-7.4459945e+84
-7.4525253e+84
-7.4432025e+84
-7.7409867e+84
-7.7413819e+84
-7.7175026e+84
-7.7176489e+84
-7.6944005e+84
-7.6945238e+84
-7.6069609e+84
-7.6076965e+84
-7.6279613e+84
-7.6276407e+84
-7.6089434e+84
-7.6115285e+84
-7.6312411e+84
-7.6288697e+84
-7.6726653e+84
-7.6515442e+84
-7.6493694e+84
-7.6707229e+84
-7.6483627e+84
-7.6484706e+84
-7.6698214e+84
-7.6698243e+84
-7.5915693e+84
-7.5721052e+84
-7.5690774e+84
-7.5886713e+84
-7.5531986e+84
-7.5340594e+84
-7.5309263e+84
-7.5500346e+84
-7.5268565e+84
-7.5287095e+84
-7.5483316e+84
-7.5468644e+84
-7.5871016e+84
-7.5673079e+84
-7.565998e+84
-7.5861552e+84
-7.5235884e+84
-7.5235193e+84
-7.5438037e+84
-7.5436966e+84
-7.5238096e+84
-7.525516e+84
-7.5454117e+84
-7.5438627e+84
-7.5848843e+84
-7.5645158e+84
-7.5631111e+84
-7.5832791e+84
-7.5830937e+84
-7.5631202e+84
-7.5629429e+84
-7.5828227e+84
-7.6700705e+84
-7.6483275e+84
-7.6468818e+84
-7.6687076e+84
-7.6270098e+84
-7.6059629e+84
-7.6043781e+84
-7.625438e+84
-7.6030911e+84
-7.603769e+84
-7.6244783e+84
-7.6233579e+84
-7.6672533e+84
-7.6455888e+84
-7.6440814e+84
-7.6654362e+84
-7.7142766e+84
-7.7132004e+84
-7.7271844e+84
-7.725938e+84
-7.7247459e+84
-7.7232043e+84
-7.711863e+84
-7.7101491e+84
-7.6929567e+84
-7.6957366e+84
-7.7159394e+84
-7.7156561e+84
-7.7290434e+84
-7.7284851e+84
-7.7282031e+84
-7.7278195e+84
-7.7153574e+84
-7.7149273e+84
-7.6972258e+84
-7.6977097e+84
-7.7410458e+84
-7.7403203e+84
-7.7517947e+84
-7.752573e+84
-7.764686e+84
-7.7766285e+84
-7.7757563e+84
-7.7638452e+84
-7.7508793e+84
-7.7399708e+84
-7.7512885e+84
-7.7396049e+84
-7.7632519e+84
-7.7750871e+84
-7.7627826e+84
-7.7745149e+84
-7.7389656e+84
-7.7375923e+84
-7.750294e+84
-7.7489374e+84
-7.7608303e+84
-7.7739246e+84
-7.7725969e+84
-7.7621845e+84
-7.7364619e+84
-7.7350358e+84
-7.7463271e+84
-7.7477154e+84
-7.7596044e+84
-7.7582393e+84
-7.7713737e+84
-7.7700356e+84
-7.7178364e+84
-7.7179927e+84
-7.730918e+84
-7.7309445e+84
-7.7309328e+84
-7.7307743e+84
-7.7177672e+84
-7.7174219e+84
-7.6996378e+84
-7.6989953e+84
-7.7171735e+84
-7.7167406e+84
-7.7305338e+84
-7.7299678e+84
-7.7296939e+84
-7.7294026e+84
-7.7164495e+84
-7.7161804e+84
-7.6985181e+84
-7.6980636e+84
-7.7543668e+84
-7.7429011e+84
-7.7544372e+84
-7.7428341e+84
-7.7665019e+84
-7.7664788e+84
-7.7783415e+84
-7.7783579e+84
-7.7543091e+84
-7.7428884e+84
-7.7543119e+84
-7.7428526e+84
-7.7783186e+84
-7.7664272e+84
-7.7664229e+84
-7.7782904e+84
-7.7535776e+84
-7.7426615e+84
-7.7541952e+84
-7.7420137e+84
-7.7782078e+84
-7.7663051e+84
-7.765689e+84
-7.7776008e+84
-7.7528944e+84
-7.7417185e+84
-7.7531898e+84
-7.7414241e+84
-7.7772207e+84
-7.7652926e+84
-7.7649935e+84
-7.7769149e+84
-7.7043827e+84
-7.7038465e+84
-7.7168124e+84
-7.7160374e+84
-7.7157728e+84
-7.7156596e+84
-7.7036197e+84
-7.7035253e+84
-7.6606325e+84
-7.6406579e+84
-7.6416041e+84
-7.6610267e+84
-7.6868589e+84
-7.6869905e+84
-7.7085998e+84
-7.7071492e+84
-7.7216095e+84
-7.7198616e+84
-7.718644e+84
-7.7176302e+84
-7.7060003e+84
-7.705055e+84
-7.6634072e+84
-7.6423821e+84
-7.6407167e+84
-7.6612532e+84
-7.6879537e+84
-7.6898863e+84
-7.7430285e+84
-7.7335456e+84
-7.7449426e+84
-7.7316308e+84
-7.7569137e+84
-7.7687058e+84
-7.7667434e+84
-7.754995e+84
-7.740395e+84
-7.730344e+84
-7.7415712e+84
-7.7293031e+84
-7.621871e+84
-7.6018718e+84
-7.6007794e+84
-7.6205129e+84
-7.6038161e+84
-7.6016493e+84
-7.6210679e+84
-7.6225833e+84
-7.7040512e+84
-7.7041552e+84
-7.7155384e+84
-7.7154317e+84
-7.7155162e+84
-7.7154606e+84
-7.704248e+84
-7.7041529e+84
-7.662427e+84
-7.6440307e+84
-7.6446545e+84
-7.662934e+84
-7.688595e+84
-7.6883751e+84
-7.7034891e+84
-7.703512e+84
-7.7155221e+84
-7.7153216e+84
-7.7153836e+84
-7.7155406e+84
-7.7036718e+84
-7.7039069e+84
-7.661434e+84
-7.6422961e+84
-7.6429166e+84
-7.6616874e+84
-7.687751e+84
-7.6870331e+84
-7.6235699e+84
-7.6054116e+84
-7.606512e+84
-7.6244194e+84
-7.6082365e+84
-7.607776e+84
-7.6258225e+84
-7.626455e+84
-7.5867067e+84
-7.5677794e+84
-7.5689097e+84
-7.587749e+84
-7.5482526e+84
-7.5275813e+84
-7.5287571e+84
-7.5494328e+84
-7.5305292e+84
-7.529802e+84
-7.5502543e+84
-7.5507848e+84
-7.5885587e+84
-7.5695511e+84
-7.5697676e+84
-7.5889698e+84
-7.5816897e+84
-7.5619022e+84
-7.5608889e+84
-7.5805819e+84
-7.5425743e+84
-7.5228148e+84
-7.5216382e+84
-7.5414896e+84
-7.5253326e+84
-7.5226083e+84
-7.5428334e+84
-7.545887e+84
-7.5815796e+84
-7.5620344e+84
-7.5650144e+84
-7.5843135e+84
-7.5129416e+84
-7.4904878e+84
-7.4869725e+84
-7.5095444e+84
-7.465839e+84
-7.4380204e+84
-7.4348339e+84
-7.4624759e+84
-7.4283361e+84
-7.4317337e+84
-7.4597223e+84
-7.4567831e+84
-7.5067067e+84
-7.4837738e+84
-7.4811633e+84
-7.5045899e+84
-7.0698446e+84
-6.9178808e+84
-6.9095742e+84
-7.0620329e+84
-7.2345497e+84
-7.2377896e+84
-7.3063013e+84
-7.3028007e+84
-7.2441344e+84
-7.2513847e+84
-7.3161021e+84
-7.3114752e+84
-7.3593754e+84
-7.3628214e+84
-7.4038813e+84
-7.4006011e+84
-7.397249e+84
-7.3549922e+84
-7.351929e+84
-7.3939545e+84
-7.3915736e+84
-7.3505847e+84
-7.3476302e+84
-7.3889321e+84
-7.0593124e+84
-7.3013581e+84
-7.2328637e+84
-7.230325e+84
-7.2986752e+84
-7.0613873e+84
-7.2357355e+84
-7.2323263e+84
-7.2986762e+84
-7.301138e+84
-7.3880207e+84
-7.3461007e+84
-7.3483132e+84
-7.3892414e+84
-6.9074445e+84
-6.9115857e+84
-6.7143271e+84
-6.711066e+84
-7.5031036e+84
-7.4791604e+84
-7.4769766e+84
-7.5010842e+84
-7.4539299e+84
-7.4254483e+84
-7.4229253e+84
-7.4514906e+84
-7.4235823e+84
-7.4225563e+84
-7.4513132e+84
-7.4523509e+84
-7.5007556e+84
-7.4767118e+84
-7.4775018e+84
-7.5012949e+84
-7.0623951e+84
-7.0622513e+84
-6.9131002e+84
-6.91174e+84
-7.0656349e+84
-7.0721244e+84
-6.916237e+84
-6.9260992e+84
-6.7151018e+84
-6.726642e+84
-7.5010842e+84
-7.4777911e+84
-7.4761475e+84
-7.4995579e+84
-7.4524673e+84
-7.4237533e+84
-7.4224295e+84
-7.4509865e+84
-7.4215661e+84
-7.4504514e+84
-7.4524699e+84
-7.4234622e+84
-7.499741e+84
-7.4758106e+84
-7.4780547e+84
-7.5023383e+84
-7.3025186e+84
-7.2367967e+84
-7.233623e+84
-7.3004495e+84
-7.3493189e+84
-7.3894665e+84
-7.3881782e+84
-7.3476032e+84
-7.2347902e+84
-7.2996319e+84
-7.2333657e+84
-7.3007677e+84
-7.3481938e+84
-7.3890903e+84
-7.3462272e+84
-7.3870613e+84
-7.238243e+84
-7.2364669e+84
-7.3024302e+84
-7.304531e+84
-7.3128998e+84
-7.243057e+84
-7.3086915e+84
-7.2491071e+84
-7.3553125e+84
-7.3951445e+84
-7.3975472e+84
-7.3586421e+84
-7.3517454e+84
-7.3923732e+84
-7.3498723e+84
-7.3908499e+84
-7.4252283e+84
-7.4543279e+84
-7.4554979e+84
-7.4265962e+84
-7.4288236e+84
-7.4571999e+84
-7.4587394e+84
-7.430829e+84
-7.4837909e+84
-7.4825317e+84
-7.506734e+84
-7.5078113e+84
-7.4811119e+84
-7.4799083e+84
-7.5044764e+84
-7.5055388e+84
-6.4626268e+84
-6.4513744e+84
-7.6434191e+84
-7.6280098e+84
-7.6239147e+84
-7.6392485e+84
-7.6490192e+84
-7.6330685e+84
-7.6307037e+84
-7.6464588e+84
-7.5936527e+84
-7.5972808e+84
-7.6124347e+84