/*--------------------------------*- C++ -*----------------------------------*\
  =========                 |
  \\      /  F ield         | OpenFOAM: The Open Source CFD Toolbox
   \\    /   O peration     | Website:  https://openfoam.org
    \\  /    A nd           | Version:  7
     \\/     M anipulation  |
\*---------------------------------------------------------------------------*/
FoamFile
{
    version     2.0;
    format      ascii;
    class       surfaceScalarField;
    location    "7000";
    object      phi;
}
// * * * * * * * * * * * * * * * * * * * * * * * * * * * * * * * * * * * * * //

dimensions      [0 3 -1 0 0 0 0];

internalField   nonuniform List<scalar> 
100464
(
6.5874828e+37
2.6981184e+38
2.1566924e+38
-6.3553551e+39
-2.9792927e+38
-2.1677661e+38
-1.3849975e+39
-4.3994778e+37
4.934543e+37
6.8353131e+37
-6.6657894e+37
2.8382414e+38
-3.0730645e+38
-6.1859088e+39
-3.2312291e+38
2.532088e+38
-2.8876412e+37
-1.0363211e+39
1.1920945e+37
5.3581204e+37
4.2134481e+37
-7.2827117e+37
-5.2457317e+37
-8.7957211e+38
1.1835733e+37
1.2121493e+37
-2.9582011e+38
2.4078449e+38
1.7682061e+38
-2.2760008e+38
3.5568655e+36
6.0602622e+36
-1.3176344e+39
-6.5093835e+37
4.6797497e+37
-4.8215676e+37
4.0279209e+37
-3.4030623e+37
-1.2419477e+39
-1.0716207e+39
5.2461542e+37
-4.0297103e+37
-1.6421349e+37
5.7851298e+37
-6.9914797e+37
-3.7105751e+37
5.1373552e+37
-4.8958701e+37
-6.4546965e+37
-1.3544795e+39
5.0064723e+37
-1.0685036e+39
-9.5133314e+36
3.9925177e+37
-5.1789248e+37
-7.5233459e+37
5.3951542e+37
2.1515261e+38
-3.4228818e+35
4.4676513e+37
-3.0102849e+38
-2.4529248e+36
2.2721145e+36
-4.862295e+37
3.546676e+36
-2.273342e+38
-6.8225817e+36
-2.8496018e+38
-2.551577e+36
-1.5510981e+37
3.5433982e+37
-5.3583948e+37
-1.3543261e+39
4.4235921e+37
-7.3368014e+37
2.4122933e+38
-3.1439376e+38
-3.2477112e+38
2.3341587e+38
1.0000484e+39
-1.2807652e+39
5.0746637e+37
-7.0562891e+37
4.1729109e+37
-7.3769421e+37
-7.6906892e+37
5.4135435e+37
4.9822741e+37
-8.0234046e+37
-2.3651538e+36
-3.0548808e+38
8.9841703e+36
-1.1967438e+37
-1.6655707e+37
1.2272141e+37
-2.83733e+38
-1.4739002e+37
1.3376245e+37
-1.4369929e+37
-5.326494e+36
-2.2852024e+38
3.2743563e+36
-1.5266341e+37
-1.2440109e+37
1.1616281e+37
8.1891548e+36
-2.0142044e+38
-1.946613e+36
-7.2431486e+35
-2.8877777e+38
3.8839753e+35
1.0305339e+37
-1.7280495e+37
-1.2991493e+37
7.7331257e+36
-2.8693759e+38
-7.9615269e+36
1.0491139e+39
2.8187897e+37
-9.1790794e+36
-1.23887e+39
-1.2507248e+38
-1.1988614e+37
-2.5147546e+36
-5.4506299e+37
5.1976413e+37
3.7559727e+37
-4.8262179e+37
-8.5363906e+38
-9.8325823e+36
-3.8957473e+37
-1.2147176e+39
2.2443019e+38
4.8129727e+35
1.020838e+35
-2.8037218e+38
-1.6213076e+37
-1.1692457e+37
9.2676823e+36
8.9027799e+36
-3.5451618e+36
8.2693414e+35
-1.8460496e+37
9.1589509e+36
-1.3161428e+37
7.6312074e+36
1.9543598e+38
-9.1637923e+36
-2.7111224e+38
-3.3939959e+36
-1.4116808e+37
-1.0260314e+39
5.6488478e+37
5.8494821e+37
-7.8631186e+37
-7.1675323e+37
-1.0380197e+39
-2.8803102e+37
5.5454296e+37
5.9861673e+37
-7.7600701e+37
-7.376158e+37
3.702778e+37
-4.4740412e+37
-1.3203503e+39
4.6996527e+37
-7.1950321e+37
-6.7601302e+37
5.55925e+37
4.6941291e+37
-7.3892776e+37
-6.4876765e+37
-1.2987831e+39
5.0902114e+37
-2.2748828e+38
-9.7589411e+36
1.0500301e+37
-6.2558345e+36
-1.4557506e+37
1.1985872e+37
-2.8908149e+38
-1.0507018e+37
1.0187605e+37
-1.0075254e+37
1.0707086e+37
-1.6595477e+37
2.2423192e+38
-9.1392719e+36
1.1153364e+37
-1.3039183e+37
1.0561947e+37
-1.5597613e+37
-2.8188183e+38
-1.0577201e+39
4.6867728e+37
-4.3102271e+37
-5.1127521e+37
5.48578e+37
-5.4869872e+37
-1.0567291e+37
9.8806841e+36
-9.8938205e+36
-1.7470766e+37
9.8723843e+36
-1.22006e+39
-1.1276623e+38
-5.1501888e+37
-6.612803e+37
6.155314e+37
-1.2961366e+39
2.9719944e+37
-2.1150714e+38
4.0977674e+35
-4.5304665e+37
-4.70119e+36
-2.01806e+36
-3.0069878e+38
4.9362225e+37
-9.9416029e+36
2.1966855e+38
-2.7675592e+38
-8.1728063e+36
-1.1991233e+37
-3.5327979e+36
-7.3974597e+36
2.3484599e+38
-3.7896624e+36
-2.938712e+38
-5.7660633e+36
8.2790912e+35
8.9920863e+36
-1.0727796e+37
-2.6306945e+38
-3.3417047e+36
-1.6318109e+37
1.0573158e+37
-2.1263486e+38
-1.1130126e+36
-4.2074847e+37
-9.4419676e+36
-5.0822036e+36
4.8330232e+37
-1.5790188e+37
-2.936765e+38
-1.0651016e+39
-1.9689741e+37
3.0628996e+37
-5.2506594e+37
-6.8771698e+37
4.4939809e+37
-2.163739e+38
-2.7573298e+36
-1.4501676e+37
-5.4519712e+36
-2.7445194e+38
-1.4920115e+37
-2.67637e+37
-1.3237527e+38
-1.2705007e+39
1.0391999e+39
-1.2571453e+39
-1.4276817e+38
4.9761559e+37
-6.5828162e+37
-6.1586351e+37
4.7299124e+37
-2.3481185e+38
-4.1564396e+35
3.0481553e+38
5.8019251e+36
-1.5223012e+37
-2.0817903e+37
8.6403905e+36
-3.3031289e+35
-2.9087104e+38
5.5221697e+36
-1.3986595e+37
7.4795853e+36
-1.8640439e+37
-2.1772596e+38
2.8227493e+38
-2.0915007e+37
-1.9572664e+37
8.6460303e+36
9.4331466e+36
-2.7177185e+38
-1.8189864e+37
8.7523502e+36
-1.8582921e+37
8.0687173e+36
2.387484e+38
6.4359341e+35
-1.4294104e+37
6.0174427e+36
9.0139322e+36
-2.0393357e+37
-1.2987494e+36
6.8168184e+36
-1.3449874e+37
-1.8550014e+37
1.034483e+37
-2.2136704e+38
1.1776594e+37
-1.7546197e+37
1.1340477e+37
-1.6138437e+37
9.250396e+36
1.0026345e+37
-1.9926221e+37
-1.7644658e+37
-4.4929688e+37
-8.3725993e+35
-4.7458349e+35
-1.6278857e+36
-2.3463423e+36
-6.3650669e+37
5.1736408e+37
-1.0578299e+36
-6.6138407e+37
-2.9846472e+36
1.5970795e+36
2.2996328e+36
-3.7358019e+36
-1.4453504e+36
-3.1623465e+36
1.8324146e+36
-2.5964602e+36
2.505969e+36
4.7870982e+37
-7.9719337e+35
-6.2082576e+37
-3.1452915e+36
2.5878453e+36
-2.9324938e+36
2.7019193e+36
-2.7495756e+36
-2.7054811e+36
2.7040207e+36
2.695198e+36
-6.0352683e+37
-2.7927522e+36
-3.2024403e+36
2.2934232e+36
2.8365231e+36
1.1828824e+35
4.992553e+37
-6.384302e+37
8.2344163e+35
-3.4726532e+36
2.2727047e+36
1.6576571e+36
-2.748245e+36
4.519152e+37
-6.5158432e+37
-2.1138213e+36
-6.2268356e+35
1.1210767e+36
1.5793378e+36
2.1834997e+36
-3.3933687e+36
-2.6719275e+36
-1.392857e+36
-5.0729251e+37
-2.969853e+35
1.1351054e+35
-3.6680749e+36
2.2252266e+36
-2.8197529e+36
1.6376768e+36
8.7384563e+35
-6.497528e+37
-9.0089929e+35
-3.8763175e+36
-2.9116847e+36
1.5696859e+36
2.2109272e+36
4.6035058e+37
-6.6167541e+37
-2.4921609e+36
-1.4996235e+36
1.1243079e+39
-1.5219542e+38
-5.8893756e+38
2.6197297e+38
2.7036258e+38
2.6228391e+38
-3.7826904e+37
-1.0366558e+38
2.3334242e+38
2.2278803e+38
4.4676053e+36
-3.7214727e+36
-1.6067441e+37
-5.0168564e+36
-3.2036236e+35
-1.1411977e+37
1.1851264e+37
-1.0159813e+37
9.4500744e+36
-1.9080086e+38
-9.0074484e+35
-7.335111e+36
6.9844565e+35
5.1431134e+37
-1.2358451e+36
-6.4601211e+37
-3.8283517e+36
2.1442527e+36
2.0186014e+36
-2.8400746e+36
4.6393654e+37
-2.2340431e+36
-6.4292885e+37
-2.2545889e+35
6.575183e+37
-1.2216351e+36
-4.2305282e+36
2.0214591e+36
1.6877555e+36
-3.0845807e+36
6.6898059e+37
-6.7370212e+35
5.1355967e+37
1.053664e+36
-1.2335129e+36
-4.2142952e+36
1.9131231e+36
1.5454182e+36
-3.1290075e+36
3.6517821e+35
-1.1710706e+36
1.9331233e+36
-4.1005063e+36
-3.0146141e+36
1.5275473e+36
4.6585205e+37
-2.3621901e+36
-1.7052615e+36
2.3861681e+37
-1.059856e+39
5.5138739e+37
-7.9900641e+37
-7.9217626e+37
5.7102579e+37
-3.804901e+36
4.4022902e+36
-2.9051502e+38
-1.5834158e+37
-1.668936e+37
1.1319522e+37
1.1224429e+37
-2.9032614e+38
-1.5794883e+37
-1.5827267e+37
1.1348891e+37
1.2325191e+37
-1.5484094e+37
-1.5628932e+37
1.1491081e+37
-2.9437026e+38
-1.0502494e+39
5.6977391e+37
5.6112546e+37
-7.7415173e+37
-8.1387277e+37
3.4765368e+37
4.8826058e+37
-7.5411599e+37
-7.2346841e+37
-1.3438521e+39
5.307858e+37
-1.3318758e+39
5.0138568e+37
-7.6740631e+37
-6.9431057e+37
5.1849262e+37
5.0434971e+36
-2.2105817e+38
-6.3541699e+36
1.2389288e+37
1.0850848e+37
-1.5570066e+37
-1.6363353e+37
-2.1657554e+38
1.2413556e+37
1.1328761e+37
-1.6666373e+37
-1.4580813e+37
7.7889171e+36
-9.9303891e+36
-2.8594579e+38
-1.6627944e+37
-1.7497534e+37
1.0441232e+37
1.2082209e+37
-2.7828727e+38
-1.5885535e+37
-1.8114632e+37
1.0131595e+37
1.1618659e+37
4.7521799e+36
-2.2168994e+38
-4.7839685e+36
1.2139108e+37
1.0956148e+37
-1.6458507e+37
-1.6094025e+37
-2.1981325e+38
1.1241525e+37
1.1790049e+37
-1.5247066e+37
-1.6563967e+37
5.5559625e+36
-2.8464794e+38
-7.6402802e+36
-1.7643829e+37
-1.7218943e+37
1.0597933e+37
1.1706536e+37
-2.8800268e+38
-1.6001876e+37
-1.7392262e+37
1.1396901e+37
1.2050686e+37
3.5693918e+37
-1.0508937e+39
-4.6034647e+37
-6.3911557e+37
5.3384264e+37
6.0478108e+37
-6.3466878e+37
-2.1968705e+38
6.4560491e+36
-9.6468412e+36
-1.791085e+37
-1.8822892e+37
1.0220657e+37
1.1739576e+37
9.8015629e+36
-1.011898e+37
-2.7933725e+38
-1.7123245e+37
-1.6065709e+37
9.7542698e+36
1.1452024e+37
2.2454406e+38
1.3378223e+37
-2.8619916e+38
-1.7222258e+37
1.1218511e+37
-1.5582952e+37
1.2063872e+37
1.1804623e+37
1.0771828e+37
-1.8378972e+37
1.1303832e+37
-1.6911362e+37
-2.2118276e+38
7.4896255e+36
-1.7355885e+37
-1.8545662e+37
1.2065134e+37
1.0329694e+37
1.1003386e+37
-1.6007278e+37
-1.7396059e+37
9.9124241e+36
1.1707042e+37
-2.809168e+38
2.1431756e+38
-1.5404987e+37
-1.7351145e+37
9.8446152e+36
1.1148015e+37
-2.6946658e+38
-1.0333644e+39
5.3204424e+37
5.7148501e+37
-5.5313275e+37
-6.4054698e+37
-1.7139577e+37
-1.905683e+37
1.098974e+37
9.7348752e+36
2.2486824e+37
-1.2096649e+39
-3.8882082e+37
-1.4744431e+38
-1.2329961e+39
-1.3133361e+38
4.8987362e+37
-6.2609312e+37
2.2126041e+36
-2.1575654e+36
-2.3595171e+36
-3.1696694e+36
2.4247857e+36
2.1812984e+36
-2.0564785e+36
-2.0509573e+36
-3.1537988e+36
2.378644e+36
-4.9881397e+37
-2.2884312e+36
2.1269777e+36
-2.3946605e+36
2.3551715e+36
-3.3194958e+36
-6.4382712e+37
-2.5082132e+36
2.0233936e+36
-2.5515895e+36
2.1290992e+36
-3.6790012e+36
-5.1917749e+37
6.6364819e+37
2.0689046e+36
-2.6754205e+36
-2.1785171e+36
2.2691448e+36
-4.042919e+36
2.3341616e+36
-2.4792598e+36
-3.0289307e+36
-6.4888324e+37
2.1513664e+36
-3.8384001e+36
-2.2432121e+38
-8.2620324e+36
1.1607056e+37
-8.9134799e+36
1.2467623e+37
-1.0502684e+37
-1.3327398e+37
-1.091489e+37
5.1543858e+37
1.9870358e+36
-2.688937e+36
-2.4737282e+36
-3.9273066e+36
2.090951e+36
-2.6282249e+36
1.9011468e+36
-2.1140775e+36
-3.8883377e+36
2.0577678e+36
1.2880924e+39
4.378292e+37
-7.2415124e+37
-1.2723832e+39
-3.1973562e+37
5.2340681e+37
-7.4311328e+37
1.8307287e+35
-6.292483e+37
6.8374732e+37
-1.2421158e+39
1.2703292e+37
6.5382108e+37
-6.9205379e+37
-2.3065924e+38
-6.4005015e+36
-9.171871e+36
-9.7008384e+36
-2.8979691e+38
-1.5414387e+37
2.5807694e+38
-2.5440158e+38
-1.0875101e+37
8.9215348e+36
8.2247388e+36
-1.2690565e+37
-1.8947973e+37
8.8325575e+36
-1.089872e+37
-8.667133e+36
-1.7309135e+37
9.2519951e+36
2.38283e+38
-5.9681533e+36
-4.2314908e+36
-2.9677421e+38
1.719341e+35
-2.5037404e+38
-1.7177281e+37
-2.3243568e+36
-1.5525799e+37
1.1473901e+37
1.0336836e+37
4.9336867e+37
-2.4962318e+36
1.822259e+36
-6.2862521e+37
-2.8461417e+36
2.0107476e+36
-3.6294089e+36
1.8443299e+36
-2.3928219e+36
-1.4974466e+36
-3.2494293e+36
2.1568432e+36
-2.2641832e+38
-1.2205583e+37
-1.6831936e+37
-1.1383427e+37
-2.2879916e+37
-2.8036021e+38
-2.000325e+38
-5.8276823e+36
-4.1352861e+37
-1.5834401e+37
-7.5512993e+36
-2.6991226e+38
4.1096199e+37
-1.6171689e+37
2.2727871e+38
-2.8203307e+38
-7.3664179e+36
-1.4202166e+37
2.8613825e+36
-1.0922428e+37
-2.5204783e+38
9.4454366e+36
-1.0740647e+37
-1.6086828e+37
-1.9139218e+37
7.4603218e+36
1.0635256e+37
-8.5794022e+36
-2.55762e+38
-1.7334185e+37
8.4584937e+36
-1.5769481e+37
-1.1582179e+39
-6.1630192e+37
1.4223569e+38
2.6215221e+38
2.5742074e+38
-1.2628064e+38
1.1169958e+39
-6.5208286e+38
2.7813337e+38
2.6419186e+38
-1.3577938e+38
2.4066183e+38
2.2756306e+38
-2.2920705e+38
6.3878268e+35
-1.1814888e+37
6.6184233e+36
9.9804399e+36
-1.446375e+37
-2.7112068e+36
-2.1557021e+37
2.1801298e+38
-2.184012e+37
-1.4206159e+37
1.110143e+37
1.0174848e+37
-1.3211428e+37
-4.6307303e+37
-2.1200913e+35
6.5219984e+37
-3.4532791e+36
-1.1195601e+35
-6.7592467e+37
-4.5665122e+36
5.3544912e+37
-6.6263191e+37
-1.1213694e+36
-4.1187006e+36
6.8492886e+35
1.2091073e+36
-4.8655105e+36
5.7115066e+35
6.8013196e+37
8.3701989e+35
-3.9049945e+36
-4.8533043e+36
1.3102507e+36
-4.8952361e+37
8.6869702e+35
-3.3513575e+36
1.5320102e+34
-4.9877141e+36
-6.6545941e+37
-4.9566954e+37
-1.2762226e+36
-7.0717078e+36
-5.1997743e+35
-6.1897596e+37
-5.7744785e+36
1.4374232e+36
5.066656e+37
-6.7236198e+37
-4.6735621e+36
1.4422792e+36
1.469443e+36
-5.142297e+36
4.9166049e+37
-6.3465179e+37
1.5651575e+36
2.2691023e+36
-4.870013e+36
-4.0338527e+36
1.3839219e+36
6.4762688e+37
-4.9801738e+36
1.3154931e+36
1.816948e+36
-4.4151167e+36
6.2561362e+37
-4.184513e+36
1.8630791e+36
2.2348451e+36
-3.6627137e+36
5.4116278e+37
1.0071232e+36
-6.7957402e+37
8.0647073e+35
-3.765702e+36
-4.7132828e+36
1.7966946e+36
1.0459563e+36
1.0655292e+36
-4.0722895e+36
-5.173287e+36
1.4903102e+36
4.9880462e+37
-6.3283263e+37
-4.8922857e+36
1.4750101e+36
-4.1355336e+36
2.1439796e+36
-5.1880221e+36
1.4754152e+36
2.1903324e+36
-4.169399e+36
4.5539286e+37
-1.2841609e+36
-4.2043318e+36
-5.781826e+35
6.3945137e+37
-2.8886722e+36
-5.2562463e+37
6.6966982e+37
-1.9621453e+35
-3.622103e+36
1.5528804e+36
1.0186421e+36
-4.7219429e+36
2.9047148e+35
8.2367166e+35
1.2826691e+36
-3.749405e+36
-4.8741808e+36
-4.4640224e+37
-9.1496649e+35
-2.446086e+36
-1.5683008e+36
-3.4753675e+36
5.1773635e+37
4.6052036e+34
-3.4630565e+36
1.0268996e+36
-4.2589329e+36
1.7240921e+36
-5.2352086e+35
-3.3236915e+36
1.1793588e+36
1.8549167e+36
-4.1219603e+36
-4.8288967e+37
-6.4609398e+35
-3.5941004e+36
2.239018e+36
2.5538796e+36
-3.0932228e+36
-1.1048141e+35
-6.2650458e+37
-3.9194475e+36
1.8967143e+36
2.3511919e+36
-3.3566098e+36
-4.734271e+37
2.737005e+36
-2.9253557e+36
2.2552781e+36
-3.261429e+36
-6.0877661e+37
2.5698208e+36
-3.1722024e+36
2.1692254e+36
-3.4573552e+36
1.4731393e+35
-4.9432731e+37
-4.390595e+36
-3.6495747e+36
1.596033e+36
2.1332958e+36
-4.8180603e+37
-3.4390564e+36
-3.5493475e+36
2.1672662e+36
2.4112598e+36
1.0237226e+36
-4.7958681e+36
1.4636909e+36
-4.0122491e+36
2.0149217e+36
2.0908803e+36
-3.8586061e+36
2.1858269e+36
-3.5591731e+36
9.8134361e+36
-5.1244066e+35
-7.8919181e+35
-1.3992676e+37
-3.6592079e+35
1.401635e+37
-4.1764758e+35
-1.1131928e+37
1.3671207e+37
-8.3056161e+35
5.1671272e+35
3.9516481e+35
-4.4472319e+35
-2.4215189e+35
-5.185812e+35
-1.4956293e+37
5.0478085e+35
-4.8462111e+35
-5.0809566e+35
5.8264393e+35
4.0819034e+35
1.0780782e+37
-3.3232521e+35
-6.4470036e+35
-5.7401874e+35
3.8567173e+35
4.8526802e+35
-9.8119084e+36
-3.4826363e+35
-2.2242928e+35
-3.766488e+35
-4.1720768e+35
-5.5311694e+35
4.3989379e+35
5.0927053e+35
-6.4856756e+35
9.7786558e+36
-2.5104799e+35
-1.3625852e+37
8.2693012e+35
-4.5667566e+35
-4.8643957e+35
5.5056135e+35
-3.9742191e+35
1.1831319e+37
4.9131904e+35
5.190197e+35
-5.6424329e+35
-3.4404884e+35
9.4981034e+36
-3.9339463e+35
-1.2335444e+37
-5.4384734e+35
6.0617222e+35
5.4853646e+35
-5.6366355e+35
1.2118274e+37
-4.2970583e+35
5.4591777e+35
6.0750564e+35
-5.462118e+35
-4.9317505e+35
3.4214983e+35
9.3448073e+36
-4.6213215e+35
-4.7450832e+35
6.0314203e+35
5.346455e+35
-5.1939925e+35
9.2365504e+36
-5.5096572e+35
-5.3836726e+35
5.0118695e+35
4.8726034e+35
-3.4837749e+35
-5.5174139e+35
-5.4259091e+35
5.4353973e+35
5.1929425e+35
6.1690563e+35
-4.7567771e+35
-5.2725877e+35
5.3718061e+35
-1.2212151e+37
-4.5613933e+35
6.2173965e+35
5.7424604e+35
-5.19942e+35
-3.9841094e+35
9.6687827e+36
-1.2582312e+37
-4.87507e+35
6.3499738e+35
5.8095786e+35
-6.0265017e+35
1.0031835e+37
-1.3249463e+37
-5.827166e+35
5.8484206e+35
2.0654619e+35
-6.6065289e+35
3.2325845e+35
2.759044e+35
6.3330801e+35
-9.300196e+35
-6.6412014e+35
6.1098904e+35
6.2583843e+35
-5.7262119e+35
-4.774985e+35
1.0254679e+37
-5.4668445e+34
-1.31685e+37
2.896908e+35
-7.9384387e+35
-1.2467122e+35
1.2857112e+37
4.7267489e+35
-6.7772348e+35
-1.0409016e+37
1.4606218e+37
-4.51607e+35
-1.4832543e+37
-5.3694913e+35
5.3784393e+34
-1.022501e+37
-5.3921201e+35
-1.004141e+37
4.241093e+35
-7.6671826e+35
-1.3711729e+35
3.2722449e+35
-7.6776873e+35
-4.8431412e+35
1.0493136e+37
1.2139356e+35
-1.3423232e+37
-4.9828973e+34
-8.0953449e+35
3.7068138e+34
2.7931348e+35
-7.6651384e+35
1.0530785e+37
-1.4966107e+37
-5.5146367e+35
-5.0003342e+35
2.5950417e+35
1.0731055e+37
-1.3745183e+37
-4.8379546e+35
-6.3789051e+35
1.0705361e+37
-1.5309302e+37
-5.5644863e+35
-1.2581998e+35
-5.4184412e+35
-8.3874349e+34
-5.2319222e+35
1.0986152e+39
1.0645169e+39
-2.0915465e+38
-4.0890146e+38
2.5874951e+38
2.6665276e+38
-5.3463569e+37
-5.5441693e+37
2.2406179e+38
2.230573e+38
5.8882843e+37
6.1090099e+37
5.824468e+37
-7.8984983e+36
-1.7731346e+37
5.1359853e+37
5.0486395e+37
4.8624596e+35
-8.7577402e+35
-2.6259845e+36
-1.3586169e+36
-5.2164949e+35
-2.7417483e+36
2.6333133e+36
2.1179264e+36
-2.3927658e+36
4.4747057e+37
-1.5925517e+36
1.5269166e+35
1.1120288e+37
4.0735944e+35
-7.7655403e+35
-1.4082219e+37
-4.9722249e+35
2.3757114e+35
1.4344377e+37
-8.3709103e+35
-4.8031092e+35
-1.1464761e+37
1.6382356e+37
-3.2725572e+35
-6.0025611e+35
-1.5776478e+37
1.1358659e+37
3.9292578e+35
-9.8964734e+35
-6.4808135e+35
3.6347445e+35
1.4424494e+37
-7.1790733e+35
-6.8993679e+35
-1.1567351e+37
1.617086e+37
-4.8336912e+35
-5.5207037e+35
1.1258686e+37
3.4737893e+35
-6.8115397e+35
-7.147047e+35
3.0802203e+35
1.4005288e+37
-5.2421525e+35
-6.1727918e+35
-1.1286261e+37
1.5659325e+37
-5.3258352e+35
-5.8596539e+35
-1.0962228e+37
4.0032661e+35
-6.0185049e+35
-6.4830194e+35
3.5990528e+35
-7.449685e+35
-6.7237781e+35
1.0922572e+37
-5.4617887e+35
-5.5770838e+35
-2.2500419e+38
3.8452878e+36
-1.6503557e+37
-1.5728413e+37
1.1260443e+37
1.1907748e+37
3.454819e+36
-2.9208346e+38
1.1581712e+37
-1.6305252e+37
-1.7580382e+37
1.1572664e+37
2.2314593e+38
6.6352127e+36
-2.9255502e+38
-1.7137463e+37
-1.782814e+37
1.1291203e+37
1.0685444e+37
5.7056946e+36
1.0497668e+37
-1.7044801e+37
-1.6214611e+37
1.0634845e+37
-8.2009687e+35
4.7510409e+37
8.3628995e+35
-6.0045066e+37
2.0479555e+36
1.9987142e+36
-3.5812085e+36
-3.7811629e+36
4.834526e+37
-1.370804e+36
-6.1389024e+37
2.0040273e+36
2.1993624e+36
-3.6613244e+36
-3.6369566e+36
7.8046579e+35
-1.2640502e+36
-3.3451145e+36
2.2537649e+36
-3.2892918e+36
2.4781834e+36
8.5384335e+35
-3.4220215e+36
2.3019649e+36
-3.2193246e+36
2.3099248e+36
8.796308e+35
4.8072141e+37
-1.0871085e+36
-6.0773271e+37
2.081945e+36
2.2548582e+36
-3.6232083e+36
-3.599856e+36
4.8669019e+37
-6.1779017e+37
2.058219e+36
2.1263057e+36
-3.80542e+36
-3.5875462e+36
9.4739757e+35
-3.2754954e+36
2.3161543e+36
-3.2344936e+36
2.5511568e+36
-3.4104037e+36
2.3911536e+36
-3.2143285e+36
2.440607e+36
-7.0861283e+35
1.0096602e+36
2.1384525e+36
2.1532603e+36
-6.1539531e+37
-3.5373578e+36
-3.6667863e+36
4.8235794e+37
2.0885413e+36
2.269051e+36
-6.0970597e+37
-3.5861754e+36
-3.5378655e+36
-3.2791312e+36
2.3061892e+36
-3.2688484e+36
4.0754984e+36
-2.2645598e+38
1.189328e+37
1.1275611e+37
-1.5976763e+37
-1.6498795e+37
-8.8125915e+35
2.124985e+36
2.1340308e+36
-5.9826686e+37
-3.4583814e+36
-3.6283585e+36
2.0693231e+36
2.250091e+36
-6.1499184e+37
-3.5963631e+36
-3.5710404e+36
-2.208887e+38
1.1382318e+37
1.1659622e+37
-1.6010097e+37
-1.5963904e+37
-4.781013e+36
-2.8732438e+38
1.057568e+37
-1.8120605e+37
-1.6962037e+37
1.0668231e+37
-2.9493572e+38
1.1396517e+37
-1.6619021e+37
-1.7385769e+37
1.155494e+37
-2.2606748e+38
4.1839312e+36
1.0985653e+37
-1.833747e+37
-1.8420347e+37
1.1595814e+37
6.4992751e+36
-2.8645134e+38
-1.6773886e+37
-1.7205667e+37
1.0649219e+37
1.0892486e+37
2.276549e+38
9.7459827e+36
1.12807e+37
-1.7839347e+37
-1.6623393e+37
1.1327129e+37
-2.9139352e+38
3.7188549e+37
-1.0624364e+39
5.2620254e+37
5.9164401e+37
-6.9055616e+37
-6.8334039e+37
7.6768292e+36
1.079646e+37
-1.8664704e+37
-1.8013047e+37
1.0566856e+37
-1.0555383e+39
5.4695678e+37
5.7995151e+37
-6.9899668e+37
-6.1497521e+37
-2.2869002e+38
5.8053587e+36
1.0826321e+37
-1.8489146e+37
-1.8200245e+37
1.1627428e+37
8.2237509e+36
-2.9163764e+38
-1.7572129e+37
1.0558673e+37
-1.687483e+37
1.1617517e+37
2.2384374e+38
-2.8346112e+38
-1.7627667e+37
-1.6282999e+37
1.1343189e+37
1.0858598e+37
-1.8891989e+37
-1.7570332e+37
1.0665833e+37
1.0323628e+37
-3.0166496e+37
-1.2281718e+39
-1.5327512e+38
-1.2135427e+39
-1.5966226e+38
-1.5616474e+36
-4.7361663e+37
2.1647694e+36
2.311147e+36
-3.5140749e+36
-3.1481844e+36
2.5234512e+36
-4.6629643e+37
-1.7510682e+36
2.1338832e+36
-3.4379847e+36
-3.2238983e+36
2.5078023e+36
-1.6522106e+36
2.5517403e+36
-6.1732749e+37
-3.2441425e+36
-3.6220947e+36
2.2609947e+36
2.5067365e+36
-6.0526584e+37
-1.9062816e+36
-3.3231046e+36
-3.5478145e+36
2.0907708e+36
2.5678114e+36
-1.5705923e+36
-4.6445743e+37
2.3794576e+36
-3.3476815e+36
-2.8169165e+36
2.7391741e+36
-4.6805809e+37
2.228166e+36
-3.3206766e+36
-3.0732853e+36
2.6580329e+36
1.9674055e+36
-6.0972394e+37
2.2207408e+36
-3.5323773e+36
-3.228567e+36
2.6247523e+36
-6.0081887e+37
-2.9375691e+36
-3.4845771e+36
2.3890703e+36
2.6962986e+36
-1.7401149e+36
4.8414973e+37
2.6118805e+36
-6.3541694e+37
-3.462343e+36
-3.8318944e+36
2.3389244e+36
2.5823307e+36
4.7629813e+37
-1.8181457e+36
-6.2394497e+37
-3.5896233e+36
-3.7626218e+36
2.1488269e+36
2.5486031e+36
1.6900784e+36
-1.8923514e+36
-3.5604469e+36
2.1338927e+36
2.5385721e+36
-3.3652814e+36
2.4259409e+36
-3.2413712e+36
-3.6241091e+36
2.3266347e+36
2.5674166e+36
-1.9665746e+36
4.7490805e+37
-6.1804663e+37
-3.2400654e+36
-3.8266795e+36
2.2571405e+36
2.6529166e+36
4.787907e+37
-6.26842e+37
-3.5188048e+36
-3.8494423e+36
2.0939722e+36
2.6100801e+36
1.6419638e+36
2.1128e+36
-3.6420709e+36
-3.2781477e+36
2.6296699e+36
2.2713914e+36
-3.6125349e+36
-3.0292951e+36
2.6453222e+36
-9.503047e+35
-4.7773099e+37
1.3832527e+36
2.3548198e+36
-3.4283467e+36
-3.2484263e+36
2.401926e+36
-4.7089161e+37
-1.0124812e+36
-3.3470038e+36
-3.4307608e+36
2.2082926e+36
2.4805114e+36
-2.7965555e+35
-1.3114492e+37
-6.9231398e+35
8.6792373e+35
-6.1087749e+37
-1.002747e+36
-3.4520592e+36
-3.5108196e+36
2.1834376e+36
2.4543614e+36
1.4881779e+36
-6.2206313e+37
2.2644709e+36
-3.6507e+36
-3.3444431e+36
2.4496165e+36
1.1385169e+36
-4.7379021e+37
2.193721e+36
-3.4584736e+36
-3.2787331e+36
2.4706078e+36
-4.6767922e+37
-3.1471223e+36
-3.485968e+36
2.2941453e+36
2.3972778e+36
-1.3420276e+36
-6.0503378e+37
-3.2259583e+36
-3.5700102e+36
2.2572487e+36
2.4628576e+36
-6.1561005e+37
-3.3703023e+36
-3.541285e+36
2.1508104e+36
2.5249485e+36
8.0717026e+35
4.8175498e+37
-6.2785692e+37
-1.063461e+36
2.215904e+36
-3.7710677e+36
-3.7059399e+36
2.4837747e+36
4.872355e+37
1.4852551e+36
-6.4018029e+37
-3.6447155e+36
-3.8167759e+36
2.3956546e+36
2.4632971e+36
7.9064498e+35
-1.0202764e+36
-3.4629241e+36
-3.3865149e+36
2.2699984e+36
2.4947596e+36
1.3232513e+36
-3.6189529e+36
2.3299e+36
2.3955634e+36
-3.4153407e+36
-1.2995159e+36
4.7229245e+37
-6.1604078e+37
-3.4879883e+36
-3.5903422e+36
2.4749186e+36
2.4577431e+36
4.7884332e+37
-6.2715645e+37
-3.6485951e+36
-3.5782414e+36
2.5292983e+36
2.3223325e+36
1.1812267e+36
-3.494348e+36
2.2283451e+36
2.5071796e+36
-3.3789226e+36
-3.5058286e+36
2.3531865e+36
2.4450362e+36
-3.2269653e+36
2.2631796e+38
5.7438082e+36
-2.6253791e+38
-9.4626056e+36
-2.3972766e+37
8.9998122e+36
-9.6398297e+36
-1.24127e+37
1.3793073e+37
1.1894328e+37
-1.2269669e+37
-2.2927693e+38
1.1682995e+37
1.3384793e+37
1.2443144e+37
-1.3416239e+37
-1.1538981e+37
9.1792605e+36
-2.7411634e+38
-2.2062898e+37
-1.0843924e+36
4.9884814e+37
-6.4827723e+37
1.1990526e+36
-3.9839341e+36
-4.1208571e+36
2.5688388e+36
2.4533571e+36
4.9298282e+37
-6.3899513e+37
-1.8536175e+36
-4.0637154e+36
-4.128564e+36
2.2373579e+36
2.502492e+36
9.0517896e+35
-1.264154e+36
-3.7950343e+36
-3.8574665e+36
2.2387688e+36
2.5059567e+36
1.3303672e+36
2.3836924e+36
-3.8967599e+36
-3.7246249e+36
2.4188669e+36
1.6502356e+36
4.9702478e+37
-2.3931466e+36
-6.2582604e+37
-4.1838179e+36
2.1280615e+36
-3.9786369e+36
2.5341961e+36
5.0355327e+37
2.6267294e+36
-6.3938813e+37
2.4561373e+36
-4.2560537e+36
2.2425949e+36
-3.9013945e+36
1.124523e+36
-2.1139141e+36
-4.2465248e+36
-4.1136056e+36
2.3052725e+36
2.6014848e+36
1.4742517e+36
2.423967e+36
-4.3072644e+36
-4.0035933e+36
2.5167897e+36
5.0880395e+37
2.3115429e+36
-6.4860701e+37
-4.1142884e+36
2.2256418e+36
2.819644e+36
-3.8577579e+36
1.7019394e+36
6.4710794e+37
2.3975647e+36
-4.0612191e+36
-3.8773548e+36
2.7014359e+36
5.006365e+37
3.1310171e+36
-6.3572487e+37
-4.1705019e+36
2.2996964e+36
2.7193932e+36
-3.7421721e+36
6.3666748e+37
2.8821178e+36
-3.7019542e+36
-4.1208277e+36
2.4727331e+36
2.6306469e+36
-4.918588e+37
1.2055774e+36
2.4217449e+36
-3.7513595e+36
-3.7703146e+36
2.4667844e+36
1.4867089e+36
2.2557069e+36
-3.9266828e+36
-3.9195992e+36
2.4488624e+36
-4.8606281e+37
2.0305304e+36
2.5449721e+36
-3.8442697e+36
-3.6172603e+36
2.3976395e+36
2.7021994e+36
2.3130345e+36
-4.0359356e+36
-3.7380413e+36
2.3945588e+36
-2.143239e+36
4.9668706e+37
-6.4857596e+37
2.7620494e+36
-3.8083401e+36
-4.110648e+36
2.5464077e+36
2.586776e+36
4.9177812e+37
-6.3977405e+37
-3.91225e+36
-4.0861087e+36
2.2090275e+36
2.6022255e+36
-1.8635863e+36
2.4974105e+36
-3.5477772e+36
-3.8738305e+36
2.3893581e+36
2.5905703e+36
-3.6636051e+36
-3.8370741e+36
2.1930395e+36
2.5875927e+36
-2.6849385e+36
5.0687064e+37
3.7237189e+36
-6.4437791e+37
-3.7887395e+36
-4.2744348e+36
2.2418981e+36
2.5259547e+36
5.0163079e+37
-6.3744553e+37
-3.8920462e+36
-4.2049475e+36
2.099158e+36
2.6293346e+36
2.2051064e+36
-3.9629776e+36
-4.2154983e+36
2.2693826e+36
2.6842028e+36
2.9333887e+36
2.4011584e+36
-4.3007159e+36
-3.8947045e+36
2.6024897e+36
8.9917804e+36
-2.2627462e+38
1.3714336e+37
1.1883425e+37
-1.249494e+37
-1.1849335e+37
-2.943555e+36
4.9297849e+37
-6.1887802e+37
-3.6295091e+36
-4.0851962e+36
2.2992481e+36
2.5150543e+36
5.0370599e+37
-6.3983142e+37
-3.7433758e+36
-4.1172058e+36
2.2394626e+36
2.6626846e+36
1.9517554e+36
6.4280737e+37
-3.8959809e+36
-4.1877223e+36
2.2803917e+36
2.7194226e+36
6.3256036e+37
2.3455183e+36
-4.1994214e+36
-3.7502377e+36
2.5672085e+36
-2.1547941e+38
1.2979245e+37
1.2291071e+37
-1.1982052e+37
-1.0048626e+37
-5.6879326e+36
-1.7270119e+37
-2.0185232e+37
-2.1239711e+36
4.874283e+37
-3.6518144e+36
-4.1061733e+36
2.2381074e+36
2.5437518e+36
4.9166003e+37
-3.8684894e+36
-4.1403083e+36
2.1196878e+36
2.5850911e+36
-1.6088848e+36
-3.4213716e+36
-3.961935e+36
2.2376094e+36
2.5684116e+36
-3.6512546e+36
-3.9679638e+36
2.1215725e+36
2.6028501e+36
-6.3469161e+37
2.2281961e+38
2.3116566e+38
-6.3561054e+37
1.076562e+37
-1.3612354e+37
2.4605501e+34
-8.84484e+35
1.3407165e+37
1.0818863e+35
-7.7655222e+35
1.0580211e+37
2.998737e+34
-8.4114589e+35
-1.1518424e+34
-8.0090079e+35
-1.0896036e+37
-7.151725e+34
-7.8965799e+35
-1.3740241e+37
-1.7727216e+35
-8.4947826e+35
-1.1135288e+37
-2.0772713e+35
-8.0996903e+35
-1.4168918e+37
-3.8028456e+35
-8.2153253e+35
-1.2126637e+37
1.5115504e+37
-6.1718206e+35
-5.8590553e+35
-1.5129072e+37
-8.0033122e+35
-7.922195e+35
-5.0486693e+37
2.4248479e+36
-2.1168495e+36
-2.0334482e+36
-2.6190751e+36
2.5632164e+36
-1.1885602e+37
-7.9281803e+35
-6.2653912e+35
-7.9108457e+35
-8.5196522e+35
-1.4681206e+37
-1.5761635e+36
-2.7610788e+36
1.1886556e+37
-5.4559123e+35
-7.3873036e+35
1.4583137e+37
-4.2980714e+35
-7.0840341e+35
1.1454734e+37
-5.3561377e+35
-7.7049789e+35
-5.1625516e+35
-6.9786814e+35
1.1866942e+39
-7.5563231e+37
-5.4848975e+37
-4.1754194e+37
-6.0051205e+37
-1.2621911e+39
4.5173349e+37
-5.5255259e+37
-5.3469413e+37
-6.4685098e+37
1.2240767e+39
4.8911108e+37
-6.5562768e+37
-1.2064651e+39
3.6318151e+37
-4.3423228e+37
-7.5425274e+37
5.6709033e+37
-7.1176808e+37
-1.2464218e+37
4.6144689e+37
-8.1074192e+37
-1.237111e+39
-5.8200405e+36
-7.1410127e+37
-6.5785233e+37
7.1229563e+37
6.368664e+37
-2.3790798e+38
2.2491553e+36
-4.0428965e+36
-8.5119608e+36
-2.9482986e+38
-8.003038e+36
-2.3081727e+38
-1.1833967e+37
-6.5858197e+36
-1.8291187e+37
-2.8810162e+38
-1.101561e+37
-4.9954352e+37
6.3217748e+37
-2.6194918e+36
1.7522837e+36
-4.3222088e+36
1.5013996e+36
-4.2392936e+36
2.4542006e+38
-2.429309e+38
9.5128188e+36
-2.0687807e+37
-1.1412442e+37
7.0446857e+36
-1.7928157e+37
-6.4453342e+37
1.8149727e+36
-2.6735814e+36
-4.9566548e+36
-4.3802062e+36
1.5421706e+36
-7.1977496e+36
-1.9668204e+37
-1.6630336e+37
1.0214392e+37
7.8268258e+36
4.9489523e+37
-2.5382609e+36
1.7658313e+36
-3.9136236e+36
-4.0255271e+36
1.6553184e+36
-2.5419515e+36
1.6799238e+36
-3.4628552e+36
1.6419491e+36
-3.8841443e+36
-2.5558631e+38
1.1142838e+35
-1.3862252e+37
-1.3295075e+37
1.7018344e+36
4.6873623e+37
-6.0364939e+37
-3.9706584e+36
-2.0530404e+36
2.0357794e+36
2.3099153e+36
-3.709785e+36
-2.5217376e+38
-1.5994776e+37
-4.3820796e+36
-1.722048e+37
1.1243643e+37
1.2104815e+37
4.6232618e+37
-5.9953666e+37
-3.3489254e+36
-3.8390261e+36
2.0199507e+36
2.2189557e+36
-7.5951436e+35
2.2101833e+36
-3.2703274e+36
-3.0374484e+36
2.2842065e+36
-1.2899854e+36
-3.3020912e+36
-3.1228029e+36
2.4757288e+36
2.2465911e+36
-1.0544474e+37
1.3235482e+37
4.0081817e+35
-5.6193533e+35
-6.4295198e+35
-7.0073804e+35
4.0690608e+35
3.8224307e+35
-6.0936456e+35
-1.3182538e+37
-1.0210923e+36
-8.7142316e+35
3.3910357e+35
1.0372494e+37
-5.6548032e+35
3.7611145e+35
-3.020006e+35
-6.7136618e+35
3.9964803e+35
-5.742328e+35
3.6124108e+35
-2.562924e+35
-6.5322048e+35
4.1387726e+35
-2.2178161e+38
-2.128046e+37
-1.2960374e+37
-1.8955758e+37
-1.9023004e+37
-2.7224552e+38
-2.225872e+38
-8.8939795e+36
-1.9540037e+37
-1.1037953e+37
-2.0823963e+37
2.682841e+38
-1.5872089e+37
-2.0231348e+37
-5.6150747e+36
1.1780848e+37
1.1468281e+37
-1.592773e+37
-9.000604e+36
-2.3932813e+38
-1.8369021e+37
8.7240205e+36
5.7894006e+36
-1.5454052e+37
-2.1660406e+37
5.1863606e+37
-6.5701426e+37
-3.0006453e+36
1.9369391e+36
-6.2629503e+36
1.4087308e+36
-3.9499562e+36
1.8033542e+36
-2.721145e+36
-4.7755038e+36
-4.3981198e+36
1.5087265e+36
-2.3968992e+38
-1.4221639e+37
-1.7365059e+37
-1.8721352e+37
9.1863611e+36
5.1935522e+36
-5.1476116e+37
-3.1322692e+36
-5.9858844e+36
-2.4195512e+36
-6.2911235e+37
-6.9025071e+36
-1.1595086e+39
-7.5665533e+37
1.5628498e+38
2.5839208e+38
2.5445644e+38
-7.4134875e+37
2.5417137e+38
2.597239e+38
1.0784003e+39
1.0288216e+39
1.1088496e+39
-4.4757903e+38
-7.249085e+37
2.3047179e+38
2.3152212e+38
2.1025173e+38
2.1175908e+38
-3.7891254e+36
5.8927603e+37
6.1574447e+37
5.616354e+37
-2.4446726e+37
5.4803029e+37
6.1358492e+37
5.8199093e+37
-2.5129002e+37
5.1552249e+37