/*--------------------------------*- C++ -*----------------------------------*\
  =========                 |
  \\      /  F ield         | OpenFOAM: The Open Source CFD Toolbox
   \\    /   O peration     | Website:  https://openfoam.org
    \\  /    A nd           | Version:  7
     \\/     M anipulation  |
\*---------------------------------------------------------------------------*/
FoamFile
{
    version     2.0;
    format      ascii;
    class       volScalarField;
    location    "7000";
    object      pMean;
}
// * * * * * * * * * * * * * * * * * * * * * * * * * * * * * * * * * * * * * //

dimensions      [0 2 -2 0 0 0 0];

internalField   nonuniform List<scalar> 
33733
(
-2.8321814e+81
-2.9571395e+81
-2.834562e+81
-2.8865735e+81
-2.8728954e+81
-2.7357858e+81
-2.8312363e+81
-2.8281822e+81
-2.8836112e+81
-2.8297479e+81
-2.8836893e+81
-2.9588079e+81
-2.9993085e+81
-3.0144148e+81
-2.9714882e+81
-2.8364185e+81
-2.7347426e+81
-2.8314803e+81
-2.8888124e+81
-2.9735721e+81
-2.9740282e+81
-2.9177904e+81
-2.9084822e+81
-2.8818429e+81
-2.8713617e+81
-2.7158153e+81
-2.7970685e+81
-2.7807013e+81
-2.7117656e+81
-2.8335725e+81
-2.8607009e+81
-2.8275581e+81
-2.8567292e+81
-2.8914805e+81
-2.8922143e+81
-2.8177076e+81
-2.8280237e+81
-2.9145584e+81
-2.8783014e+81
-2.8303425e+81
-2.7897929e+81
-2.8549291e+81
-2.7129738e+81
-2.9728297e+81
-2.9136317e+81
-2.8709686e+81
-2.8814186e+81
-2.9251273e+81
-2.9722215e+81
-3.01372e+81
-2.9941988e+81
-2.8464968e+81
-2.8271166e+81
-2.7960357e+81
-2.8566099e+81
-2.827585e+81
-2.7200271e+81
-2.7208108e+81
-2.7979317e+81
-2.8584488e+81
-2.8347289e+81
-2.8598485e+81
-2.8334169e+81
-2.8816421e+81
-2.9267686e+81
-2.9258813e+81
-2.8850756e+81
-3.0054477e+81
-2.9844292e+81
-2.9881285e+81
-3.0070329e+81
-2.9868497e+81
-3.0041513e+81
-2.9775081e+81
-2.9241324e+81
-2.9138536e+81
-2.9423471e+81
-2.9354446e+81
-2.9010388e+81
-2.883094e+81
-2.8745767e+81
-2.8934853e+81
-2.5853543e+81
-2.6774279e+81
-2.8079674e+81
-2.8349478e+81
-2.8146744e+81
-2.7885103e+81
-2.8310993e+81
-2.82862e+81
-2.8380454e+81
-2.8412554e+81
-2.8482813e+81
-2.863078e+81
-2.8444143e+81
-2.8598435e+81
-2.8941566e+81
-2.9854035e+81
-2.984393e+81
-2.9835407e+81
-2.8956603e+81
-2.8123019e+81
-2.8180329e+81
-2.9259496e+81
-2.922113e+81
-2.8858261e+81
-2.8842049e+81
-2.9281138e+81
-2.9291334e+81
-2.8873458e+81
-2.8871245e+81
-2.7652814e+81
-2.8590435e+81
-2.8207505e+81
-2.8254328e+81
-2.8580534e+81
-2.8585529e+81
-2.8270052e+81
-2.8320031e+81
-2.7815098e+81
-2.8579092e+81
-2.7122678e+81
-2.7207986e+81
-2.9206242e+81
-2.9387363e+81
-2.8975432e+81
-2.880207e+81
-2.8376455e+81
-2.8313541e+81
-2.8241672e+81
-2.7980175e+81
-2.8458922e+81
-2.8615002e+81
-2.8433974e+81
-2.8972431e+81
-2.9837862e+81
-2.9223675e+81
-2.8787237e+81
-2.8948189e+81
-2.9412069e+81
-2.9861471e+81
-3.0293325e+81
-3.0139767e+81
-2.9976859e+81
-3.0201711e+81
-2.8465412e+81
-2.8267516e+81
-2.8216397e+81
-2.796281e+81
-2.7926117e+81
-2.8214392e+81
-2.8559174e+81
-2.8263684e+81
-2.6864932e+81
-2.5880105e+81
-2.6734455e+81
-2.8297393e+81
-2.7966345e+81
-2.8111306e+81
-2.8371567e+81
-2.857798e+81
-2.8348473e+81
-2.8374736e+81
-2.859523e+81
-2.8266503e+81
-2.818023e+81
-2.8243604e+81
-2.8180984e+81
-2.8445837e+81
-2.8507031e+81
-2.8656384e+81
-2.8684902e+81
-2.8245689e+81
-2.8295924e+81
-2.8279845e+81
-2.8351006e+81
-2.8807597e+81
-2.9069844e+81
-2.9114594e+81
-2.8882483e+81
-2.9565505e+81
-2.9314211e+81
-2.9383352e+81
-2.9588672e+81
-2.9588793e+81
-2.9404452e+81
-2.950514e+81
-2.9333458e+81
-2.9143497e+81
-2.9096885e+81
-2.8928014e+81
-2.891555e+81
-2.9958144e+81
-3.0035825e+81
-3.0024631e+81
-2.9974705e+81
-3.0181668e+81
-3.0270348e+81
-3.0183877e+81
-3.0244492e+81
-2.9924739e+81
-2.9992886e+81
-2.987401e+81
-2.9936801e+81
-3.0074327e+81
-3.01462e+81
-3.0210793e+81
-3.0139881e+81
-3.0023227e+81
-2.9824516e+81
-2.9765708e+81
-2.9846877e+81
-2.9889202e+81
-2.9291636e+81
-2.9352466e+81
-2.931255e+81
-2.9242454e+81
-2.9511192e+81
-2.9545498e+81
-2.9485799e+81
-2.9434013e+81
-2.9096655e+81
-2.9157022e+81
-2.9035558e+81
-2.9110187e+81
-2.8903308e+81
-2.8840518e+81
-2.8910676e+81
-2.8965496e+81
-2.5861904e+81
-2.6732903e+81
-2.8110881e+81
-2.8668277e+81
-2.840986e+81
-2.8493677e+81
-2.8332674e+81
-2.8273288e+81
-2.8264339e+81
-2.8230441e+81
-2.8217126e+81
-2.8317956e+81
-2.8370953e+81
-2.8322926e+81
-2.8248841e+81
-2.8496418e+81
-2.8575216e+81
-2.852362e+81
-2.843323e+81
-2.8771246e+81
-2.8702397e+81
-2.8637254e+81
-2.8713297e+81
-2.9303712e+81
-2.8868737e+81
-2.8866064e+81
-2.931225e+81
-2.9809908e+81
-2.9817298e+81
-3.0028487e+81
-3.0020534e+81
-2.9811011e+81
-2.9812944e+81
-3.0025727e+81
-3.0026676e+81
-2.9800091e+81
-2.9801899e+81
-3.001408e+81
-2.9310277e+81
-2.9797117e+81
-2.9794071e+81
-2.9301276e+81
-2.8867002e+81
-2.8878884e+81
-2.8567669e+81
-2.8160952e+81
-2.8173528e+81
-2.7497803e+81
-2.8568248e+81
-2.758743e+81
-2.8574592e+81
-2.818302e+81
-2.8211457e+81
-2.8574117e+81
-2.7077285e+81
-2.7030024e+81
-2.9448846e+81
-2.9457257e+81
-2.9270761e+81
-2.9276417e+81
-2.9414313e+81
-2.9434457e+81
-2.9253288e+81
-2.9234705e+81
-2.8865175e+81
-2.8872433e+81
-2.9052252e+81
-2.9046256e+81
-2.8822221e+81
-2.8844895e+81
-2.9029544e+81
-2.9005124e+81
-2.9483524e+81
-2.9484853e+81
-2.9734671e+81
-2.9296656e+81
-2.9297154e+81
-2.9478312e+81
-2.9471041e+81
-2.9286204e+81
-2.9289759e+81
-2.8873005e+81
-2.8878683e+81
-2.906386e+81
-2.9065393e+81
-2.8892228e+81
-2.8894462e+81
-2.9066492e+81
-2.9061493e+81
-2.7745155e+81
-2.7991068e+81
-2.8100998e+81
-2.7781833e+81
-2.853469e+81
-2.8512617e+81
-2.8659114e+81
-2.8674233e+81
-2.8245572e+81
-2.8261907e+81
-2.8423074e+81
-2.8441675e+81
-2.8236527e+81
-2.840527e+81
-2.8246111e+81
-2.8392219e+81
-2.8674333e+81
-2.8521186e+81
-2.8661823e+81
-2.8508461e+81
-2.8514229e+81
-2.8506907e+81
-2.8660374e+81
-2.8654899e+81
-2.8306672e+81
-2.828066e+81
-2.8429637e+81
-2.8437062e+81
-2.8139213e+81
-2.8332886e+81
-2.8310212e+81
-2.8437192e+81
-2.8415477e+81
-2.8240951e+81
-2.7985793e+81
-2.7837927e+81
-2.8489464e+81
-2.8507308e+81
-2.8637387e+81
-2.8660127e+81
-2.6590665e+81
-2.9265327e+81
-2.9337649e+81
-2.9460938e+81
-2.9532492e+81
-2.9145001e+81
-2.9079159e+81
-2.895286e+81
-2.8883567e+81
-2.8326169e+81
-2.8256011e+81
-2.8330933e+81
-2.8197074e+81
-2.8192355e+81
-2.8575818e+81
-2.8476279e+81
-2.8570401e+81
-2.869199e+81
-2.876532e+81
-2.6966518e+81
-2.7873457e+81
-2.8028556e+81
-2.7194191e+81
-2.839814e+81
-2.9038318e+81
-2.9936762e+81
-3.0403265e+81
-2.9949043e+81
-2.9328446e+81
-2.8868469e+81
-2.9143106e+81
-2.9020719e+81
-2.8886866e+81
-2.9558828e+81
-2.9433834e+81
-2.9687305e+81
-3.0784821e+81
-3.0249641e+81
-3.0277428e+81
-3.0126319e+81
-3.036417e+81
-3.0512137e+81
-3.0116751e+81
-3.0033445e+81
-3.0284722e+81
-3.0373703e+81
-2.8535227e+81
-2.8325536e+81
-2.8208388e+81
-2.798392e+81
-2.7990954e+81
-2.8257154e+81
-2.8583446e+81
-2.8268126e+81
-2.8605251e+81
-2.8239902e+81
-2.8087939e+81
-2.8043383e+81
-2.6791567e+81
-2.571926e+81
-2.6570205e+81
-2.8010838e+81
-2.8085058e+81
-2.8459738e+81
-2.8253052e+81
-2.826038e+81
-2.8469909e+81
-2.8575102e+81
-2.8336673e+81
-2.8397172e+81
-2.8703985e+81
-2.828191e+81
-2.8320504e+81
-2.8410888e+81
-2.8382865e+81
-2.8685191e+81
-2.8544384e+81
-2.8617992e+81
-2.8742788e+81
-2.8113893e+81
-2.8039456e+81
-2.8393026e+81
-2.8482664e+81
-2.8575286e+81
-2.8470614e+81
-2.8653433e+81
-2.8614218e+81
-2.8587702e+81
-2.8541574e+81
-2.8665269e+81
-2.8767729e+81
-2.8848894e+81
-2.876983e+81
-2.8808743e+81
-2.8858721e+81
-2.8819435e+81
-2.8753037e+81
-2.8063246e+81
-2.8000891e+81
-2.8088013e+81
-2.8098443e+81
-2.8224678e+81
-2.8116815e+81
-2.8173903e+81
-2.8264522e+81
-2.8099882e+81
-2.8184105e+81
-2.82425e+81
-2.8258764e+81
-2.8319165e+81
-2.8404779e+81
-2.8393309e+81
-2.8335966e+81
-2.9143013e+81
-2.9268765e+81
-2.9243693e+81
-2.9190527e+81
-2.8980502e+81
-2.9031769e+81
-2.887087e+81
-2.8937807e+81
-2.9421401e+81
-2.951843e+81
-2.9447671e+81
-2.9534494e+81
-2.9672131e+81
-2.9776345e+81
-2.9810238e+81
-2.9694875e+81
-2.9695525e+81
-2.9788654e+81
-2.9721422e+81
-2.9656293e+81
-2.947348e+81
-2.9541112e+81
-2.9512589e+81
-2.9457985e+81
-2.9672504e+81
-2.9607556e+81
-2.9606401e+81
-2.9546606e+81
-2.9471637e+81
-2.94113e+81
-2.9410344e+81
-2.9352104e+81
-2.9224976e+81
-2.9251723e+81
-2.9305816e+81
-2.9303071e+81
-2.9210085e+81
-2.9154703e+81
-2.9210366e+81
-2.9265961e+81
-2.8981027e+81
-2.9058728e+81
-2.9053047e+81
-2.9099221e+81
-2.9068982e+81
-2.9018551e+81
-2.902656e+81
-2.8964709e+81
-3.0132419e+81
-3.0154055e+81
-3.0119718e+81
-3.0098151e+81
-3.0033536e+81
-3.0035861e+81
-2.999686e+81
-2.9874088e+81
-3.0211445e+81
-3.0252048e+81
-3.0276853e+81
-3.0233589e+81
-3.0357763e+81
-3.0386776e+81
-3.0339529e+81
-3.0314775e+81
-2.9967699e+81
-2.9988507e+81
-2.9953123e+81
-2.9964881e+81
-3.0074029e+81
-3.0114616e+81
-3.0047942e+81
-3.008234e+81
-2.9911364e+81
-2.9930705e+81
-2.9885764e+81
-2.9857043e+81
-2.9983444e+81
-3.0030607e+81
-2.9955967e+81
-3.000134e+81
-3.0104686e+81
-3.013868e+81
-3.0091508e+81
-3.0057346e+81
-3.0149768e+81
-3.0193756e+81
-3.02198e+81
-3.0179199e+81
-3.0246788e+81
-3.0294142e+81
-3.0321822e+81
-3.0273215e+81
-3.0235873e+81
-3.020761e+81
-3.0162634e+81
-3.0191685e+81
-3.0027099e+81
-3.0062443e+81
-3.0027267e+81
-2.9984353e+81
-2.9823039e+81
-2.9855801e+81
-2.9813561e+81
-2.9779636e+81
-2.9772582e+81
-2.9815878e+81
-2.974672e+81
-2.9715046e+81
-2.9779599e+81
-2.9890672e+81
-2.9833484e+81
-2.9888907e+81
-2.990549e+81
-2.9953485e+81
-2.9885624e+81
-2.9927633e+81
-2.9284474e+81
-2.9376435e+81
-2.9570561e+81
-2.9484485e+81
-2.97358e+81
-2.9688334e+81
-2.9837892e+81
-2.9117946e+81
-2.9200545e+81
-2.8916055e+81
-2.9015644e+81
-2.5808994e+81
-2.7895107e+81
-2.8092131e+81
-2.8755095e+81
-2.8664367e+81
-2.828553e+81
-2.8228565e+81
-2.8539623e+81
-2.8301714e+81
-2.8283707e+81
-2.8329014e+81
-2.8411116e+81
-2.8523237e+81
-2.8618352e+81
-2.882164e+81
-2.8727484e+81
-2.9823042e+81
-2.930819e+81
-2.9306072e+81
-2.9507182e+81
-2.9508217e+81
-2.9067451e+81
-2.888816e+81
-2.8882406e+81
-2.9066796e+81
-2.8881715e+81
-2.8887489e+81
-2.9069674e+81
-2.9063883e+81
-2.9513741e+81
-2.9303436e+81
-2.930416e+81
-2.9506596e+81
-2.9844216e+81
-2.9841761e+81
-2.9757719e+81
-2.9759859e+81
-2.9848008e+81
-2.9844933e+81
-2.9761501e+81
-2.9764046e+81
-3.0008247e+81
-3.0100193e+81
-3.0005847e+81
-3.0097159e+81
-3.000381e+81
-3.0097127e+81
-3.0002602e+81
-3.0094029e+81
-2.984219e+81
-2.9840898e+81
-2.9758415e+81
-2.975534e+81
-2.9842648e+81
-2.9844593e+81
-2.9757338e+81
-2.9760555e+81
-3.000391e+81
-3.0097049e+81
-3.0005928e+81
-3.0098035e+81
-3.0006657e+81
-3.0098567e+81
-3.0007818e+81
-3.0098294e+81
-2.982632e+81
-2.9824615e+81
-2.9498232e+81
-2.9743474e+81
-2.9743285e+81
-2.9834958e+81
-2.982783e+81
-2.9500197e+81
-2.9744864e+81
-2.9751341e+81
-2.9995575e+81
-3.008736e+81
-2.9989187e+81
-2.9304695e+81
-2.9312063e+81
-2.9819268e+81
-2.981858e+81
-2.9499393e+81
-2.9739953e+81
-2.9738587e+81
-2.9823055e+81
-2.9818574e+81
-2.9502953e+81
-2.9737595e+81
-2.9740958e+81
-2.9320486e+81
-2.9313792e+81
-2.9073196e+81
-2.8889994e+81
-2.8882073e+81
-2.907047e+81
-2.9068996e+81
-2.8894223e+81
-2.8893148e+81
-2.9072979e+81
-2.8642685e+81
-2.8484994e+81
-2.8513821e+81
-2.8658414e+81
-2.7883723e+81
-2.8174912e+81
-2.8171329e+81
-2.8362117e+81
-2.8392237e+81
-2.8370802e+81
-2.8178822e+81
-2.8177385e+81
-2.8363348e+81
-2.7927227e+81
-2.7574097e+81
-2.7587386e+81
-2.8660848e+81
-2.8496116e+81
-2.8490328e+81
-2.8652272e+81
-2.7959041e+81
-2.7998239e+81
-2.7632839e+81
-2.7709189e+81
-2.8651283e+81
-2.8495226e+81
-2.8500854e+81
-2.8662016e+81
-2.8181092e+81
-2.8366673e+81
-2.8187864e+81
-2.8374047e+81
-2.8186239e+81
-2.8215459e+81
-2.8376582e+81
-2.8376941e+81
-2.8501841e+81
-2.8496257e+81
-2.8657701e+81
-2.8667618e+81
-2.6508124e+81
-2.6429783e+81
-2.9554439e+81
-2.9492914e+81
-2.9490808e+81
-2.9552886e+81
-2.9565554e+81
-2.9501154e+81
-2.949567e+81
-2.956111e+81
-2.9303023e+81
-2.9303118e+81
-2.9370488e+81
-2.9369114e+81
-2.9304136e+81
-2.9308708e+81
-2.9377596e+81
-2.9372891e+81
-2.9534197e+81
-2.9472247e+81
-2.9468221e+81
-2.953673e+81
-2.9548328e+81
-2.9486073e+81
-2.947948e+81
-2.9542786e+81
-2.9363893e+81
-2.9298627e+81
-2.928828e+81
-2.9358318e+81
-2.9271364e+81
-2.9282235e+81
-2.935126e+81
-2.9345913e+81
-2.8922717e+81
-2.8921254e+81
-2.8993094e+81
-2.8996297e+81
-2.8925758e+81
-2.8932e+81
-2.9001514e+81
-2.8996611e+81
-2.9122265e+81
-2.9182612e+81
-2.917904e+81
-2.9119501e+81
-2.911896e+81
-2.9117264e+81
-2.917736e+81
-2.9179873e+81
-2.8892349e+81
-2.8902307e+81
-2.8975218e+81
-2.8964933e+81
-2.8906662e+81
-2.8917456e+81
-2.8993157e+81
-2.8982145e+81
-2.9176589e+81
-2.9114526e+81
-2.9104382e+81
-2.9167327e+81
-2.9159214e+81
-2.9096832e+81
-2.9086398e+81
-2.9149713e+81
-2.9588234e+81
-2.9518304e+81
-2.9516487e+81
-2.9586361e+81
-2.9874581e+81
-2.9876728e+81
-2.9523476e+81
-2.9529377e+81
-2.9600311e+81
-2.9593457e+81
-2.9730805e+81
-2.932321e+81
-2.9329936e+81
-2.9402646e+81
-2.9395188e+81
-2.9388478e+81
-2.9318364e+81
-2.9318113e+81
-2.9389387e+81
-2.9580663e+81
-2.9512162e+81
-2.9506721e+81
-2.9575482e+81
-2.9503474e+81
-2.9503816e+81
-2.9571933e+81
-2.9570145e+81
-2.9308079e+81
-2.9304948e+81
-2.9376654e+81
-2.9378231e+81
-2.9306648e+81
-2.9311665e+81
-2.9384702e+81
-2.9378482e+81
-2.9008493e+81
-2.8932804e+81
-2.8927721e+81
-2.9004226e+81
-2.8927099e+81
-2.8923414e+81
-2.900159e+81
-2.8998484e+81
-2.9132411e+81
-2.9139008e+81
-2.9206444e+81
-2.9197195e+81
-2.912639e+81
-2.9190706e+81
-2.9189563e+81
-2.9127116e+81
-2.8937336e+81
-2.8931008e+81
-2.9003389e+81
-2.899923e+81
-2.8932004e+81
-2.8928738e+81
-2.8998554e+81
-2.9001827e+81
-2.9120831e+81
-2.9183793e+81
-2.9177404e+81
-2.9118281e+81
-2.9115346e+81
-2.9176208e+81
-2.9179889e+81
-2.9120818e+81
-2.7719089e+81
-2.833133e+81
-2.8187105e+81
-2.8142902e+81
-2.8334611e+81
-2.8221402e+81
-2.8209016e+81
-2.8391515e+81
-2.8452743e+81
-2.778223e+81
-2.8524978e+81
-2.8527343e+81
-2.8607587e+81
-2.861083e+81
-2.8524528e+81
-2.8518045e+81
-2.8611213e+81
-2.8610898e+81
-2.8726916e+81
-2.8728071e+81
-2.8803755e+81
-2.8798731e+81
-2.8791444e+81
-2.8721735e+81
-2.872574e+81
-2.8796416e+81
-2.8261085e+81
-2.8286572e+81
-2.8301778e+81
-2.833281e+81
-2.8326597e+81
-2.8289381e+81
-2.8333603e+81
-2.8282249e+81
-2.832014e+81
-2.8344613e+81
-2.8381814e+81
-2.8400113e+81
-2.8399957e+81
-2.8345895e+81
-2.8347848e+81
-2.8399597e+81
-2.8248977e+81
-2.8291372e+81
-2.8270954e+81
-2.8244192e+81
-2.840328e+81
-2.8344063e+81
-2.833656e+81
-2.8413656e+81
-2.8228955e+81
-2.8285876e+81
-2.8259312e+81
-2.8238797e+81
-2.8324718e+81
-2.8343362e+81
-2.8411067e+81
-2.8401828e+81
-2.8798336e+81
-2.8732365e+81
-2.8733616e+81
-2.8800693e+81
-2.8619356e+81
-2.8536517e+81
-2.8543049e+81
-2.862155e+81
-2.8799007e+81
-2.8735787e+81
-2.8735475e+81
-2.8805604e+81
-2.8619731e+81
-2.8541318e+81
-2.8535003e+81
-2.8618374e+81
-2.8519507e+81
-2.8526283e+81
-2.8606366e+81
-2.8606999e+81
-2.8520981e+81
-2.8526777e+81
-2.8612362e+81
-2.860586e+81
-2.8725306e+81
-2.8724444e+81
-2.8793183e+81
-2.879685e+81
-2.8727874e+81
-2.8732073e+81
-2.8803457e+81
-2.8797861e+81
-2.8295332e+81
-2.8275559e+81
-2.8280665e+81
-2.832381e+81
-2.8309821e+81
-2.8238633e+81
-2.8286082e+81
-2.8260113e+81
-2.8297675e+81
-2.832022e+81
-2.8342779e+81
-2.833771e+81
-2.8399763e+81
-2.8399204e+81
-2.8400582e+81
-2.8346557e+81
-2.8336333e+81
-2.8391708e+81
-2.8482349e+81
-2.8500903e+81
-2.8357475e+81
-2.8238388e+81
-2.8283711e+81
-2.8283318e+81
-2.8233993e+81
-2.8326821e+81
-2.8290327e+81
-2.8284935e+81
-2.8309058e+81
-2.8300793e+81
-2.8317596e+81
-2.8330512e+81
-2.8388688e+81
-2.8378446e+81
-2.8361144e+81
-2.8292547e+81
-2.8274049e+81
-2.8352107e+81
-2.8570726e+81
-2.8645889e+81
-2.8489966e+81
-2.8494363e+81
-2.8595783e+81
-2.8585719e+81
-2.8507495e+81
-2.8517466e+81
-2.8609723e+81
-2.8601679e+81
-2.8702106e+81
-2.8710869e+81
-2.8783679e+81
-2.8777498e+81
-2.8716624e+81
-2.8724448e+81
-2.8797191e+81
-2.8788441e+81
-2.6401193e+81
-2.854717e+81
-2.8191263e+81
-2.690508e+81
-2.7771686e+81
-2.7971343e+81
-2.719965e+81
-2.8618548e+81
-2.8332369e+81
-2.8283644e+81
-2.9100331e+81
-2.9411787e+81
-2.8936357e+81
-2.9988621e+81
-3.0042306e+81
-3.0020658e+81
-3.0493027e+81
-3.0537847e+81
-3.0010095e+81
-3.0917605e+81
-3.0985834e+81
-2.9175306e+81
-2.9283951e+81
-2.9238943e+81
-2.8981503e+81
-2.9094526e+81
-2.9314223e+81
-2.8947632e+81
-2.8892463e+81
-2.9015089e+81
-2.9674447e+81
-2.9624088e+81
-2.9549612e+81
-2.9817817e+81
-2.9926504e+81
-2.9464219e+81
-2.9566549e+81
-2.9845137e+81
-2.9737358e+81
-3.101453e+81
-3.0927887e+81
-3.035446e+81
-3.0357418e+81
-3.0451661e+81
-3.0372956e+81
-3.0286322e+81
-3.0380801e+81
-3.0429348e+81
-3.0709104e+81
-3.0624639e+81
-3.0127671e+81
-3.0211432e+81
-3.0298258e+81
-3.0212937e+81
-3.0571982e+81
-3.0467324e+81
-3.0383309e+81
-3.0477687e+81
-3.0623825e+81
-3.0546814e+81
-3.065436e+81
-3.0741094e+81
-3.0165109e+81
-3.0186512e+81
-3.0060709e+81
-3.0053092e+81
-3.0281362e+81
-3.0311965e+81
-3.0404186e+81
-3.0436945e+81
-2.8219281e+81
-2.7978245e+81
-2.8000771e+81
-2.8181218e+81
-2.8295464e+81
-2.8509558e+81
-2.8260351e+81
-2.8648488e+81
-2.865444e+81
-2.8623222e+81
-2.8276553e+81
-2.8292525e+81
-2.82206e+81
-2.8560171e+81
-2.8715952e+81
-2.8024588e+81
-2.7974189e+81
-2.8187927e+81
-2.8064528e+81
-2.8051535e+81
-2.6592901e+81
-2.7841198e+81
-2.7824663e+81
-2.5633811e+81
-2.7784188e+81
-2.7998117e+81
-2.7790976e+81
-2.8008388e+81
-2.8500654e+81
-2.8620846e+81
-2.8656989e+81
-2.8201195e+81
-2.8445459e+81
-2.8052929e+81
-2.811157e+81
-2.8460206e+81
-2.8390003e+81
-2.8080781e+81
-2.8590462e+81
-2.8236645e+81
-2.8389456e+81
-2.8255272e+81
-2.8627184e+81
-2.8773931e+81
-2.8028638e+81
-2.8046369e+81
-2.8160874e+81
-2.7946395e+81
-2.7794874e+81
-2.7907506e+81
-2.8293652e+81
-2.8535441e+81
-2.843081e+81
-2.8529488e+81
-2.8620819e+81
-2.8772114e+81
-2.8661392e+81
-2.8739887e+81
-2.8811061e+81
-2.8574716e+81
-2.8453846e+81
-2.8641551e+81
-2.852151e+81
-2.8761731e+81
-2.8806871e+81
-2.8824483e+81
-2.8786846e+81
-2.8634771e+81
-2.8684283e+81
-2.8719632e+81
-2.8679275e+81
-2.867469e+81
-2.8672378e+81
-2.8691011e+81
-2.8702955e+81
-2.8569069e+81
-2.8618073e+81
-2.8623156e+81
-2.8587948e+81
-2.8759417e+81
-2.8693237e+81
-2.8746809e+81
-2.8821361e+81
-2.8838612e+81
-2.8888948e+81
-2.8980422e+81
-2.8930377e+81
-2.9025585e+81
-2.9069142e+81
-2.9053196e+81
-2.904032e+81
-2.8903409e+81
-2.8847029e+81
-2.8959571e+81
-2.8912063e+81
-2.8864226e+81
-2.8920759e+81
-2.8947569e+81
-2.8885678e+81
-2.8948088e+81
-2.9023039e+81
-2.9046445e+81
-2.8983496e+81
-2.8933697e+81
-2.8884163e+81
-2.8849149e+81
-2.8880552e+81
-2.8758394e+81
-2.8797211e+81
-2.8818211e+81
-2.877765e+81
-2.7847051e+81
-2.8032163e+81
-2.7934627e+81
-2.7897063e+81
-2.7976641e+81
-2.8230495e+81
-2.812233e+81
-2.8037087e+81
-2.8135989e+81
-2.8374053e+81
-2.825629e+81
-2.8319666e+81
-2.8403863e+81
-2.7860415e+81
-2.7958178e+81
-2.7848603e+81
-2.7954634e+81
-2.8118271e+81
-2.7976284e+81
-2.8218539e+81
-2.8007436e+81
-2.8051031e+81
-2.8117998e+81
-2.8203769e+81
-2.8190707e+81
-2.8238412e+81
-2.8290581e+81
-2.8264526e+81
-2.8235865e+81
-2.8328583e+81
-2.8220234e+81
-2.832934e+81
-2.8407863e+81
-2.8518521e+81
-2.8489024e+81
-2.8514108e+81
-2.8556771e+81
-2.8520237e+81
-2.847806e+81
-2.8415558e+81
-2.84616e+81
-2.8357647e+81
-2.8390838e+81
-2.8326153e+81
-2.8320368e+81
-2.9309215e+81
-2.9293603e+81
-2.9390475e+81
-2.9346947e+81
-2.9201588e+81
-2.9072038e+81
-2.8944751e+81
-2.9473349e+81
-2.9508405e+81
-2.9534598e+81
-2.9505881e+81
-2.9617028e+81
-2.9592789e+81
-2.9624634e+81
-2.9641846e+81
-2.9868469e+81
-2.990325e+81
-2.9899861e+81
-2.9871725e+81
-2.9739661e+81
-2.9735602e+81
-2.9772891e+81
-2.9772201e+81
-2.9749561e+81
-2.974024e+81
-2.9764076e+81
-2.9780288e+81
-2.9872685e+81
-2.9887925e+81
-2.9864713e+81
-2.9844485e+81
-2.981583e+81
-2.9836921e+81
-2.9782656e+81
-2.9759402e+81
-2.9665157e+81
-2.9714468e+81
-2.9693449e+81
-2.9742729e+81
-2.9468325e+81
-2.9551609e+81
-2.957027e+81
-2.9559767e+81
-2.9633832e+81
-2.9639997e+81
-2.9658998e+81
-2.9654181e+81
-2.9635957e+81
-2.9611485e+81
-2.9573695e+81
-2.959613e+81
-2.9537603e+81
-2.9523684e+81
-2.9494366e+81
-2.9510574e+81
-2.970147e+81
-2.9746575e+81
-2.9721336e+81
-2.967659e+81
-2.9652522e+81
-2.9622253e+81
-2.9579058e+81
-2.9608874e+81
-2.9660494e+81
-2.969216e+81
-2.9629902e+81
-2.960641e+81
-2.9514709e+81
-2.9560404e+81
-2.9537409e+81
-2.9593743e+81
-2.95522e+81
-2.9529858e+81
-2.9488552e+81
-2.9509913e+81
-2.9464337e+81
-2.9440759e+81
-2.939362e+81
-2.9422163e+81
-2.9490059e+81
-2.94673e+81
-2.9416734e+81
-2.943627e+81
-2.9400938e+81
-2.936463e+81
-2.9308817e+81
-2.9348056e+81
-2.9307953e+81
-2.9284099e+81
-2.9349617e+81
-2.9365139e+81
-2.9358174e+81
-2.9348774e+81
-2.9331587e+81
-2.9348317e+81
-2.9453946e+81
-2.9388475e+81
-2.9469803e+81
-2.942606e+81
-2.9415391e+81
-2.9440143e+81
-2.9428375e+81
-2.9445557e+81
-2.9223098e+81
-2.9286917e+81
-2.9303003e+81
-2.9250097e+81
-2.9121487e+81
-2.9169105e+81
-2.9192158e+81
-2.9142365e+81
-2.9221041e+81
-2.9274393e+81
-2.9302945e+81
-2.9243691e+81
-2.9312082e+81
-2.9362394e+81
-2.9327713e+81
-2.9375228e+81
-2.9053849e+81
-2.9076695e+81
-2.906764e+81
-2.9127486e+81
-2.9190991e+81
-2.9162516e+81
-2.9243753e+81
-2.9251795e+81
-2.9158265e+81
-2.920947e+81
-2.9189181e+81
-2.9164532e+81
-2.9233424e+81
-2.9249432e+81
-2.9256004e+81
-2.9251517e+81
-2.9217888e+81
-2.9203696e+81
-2.9132059e+81
-2.9158216e+81
-2.9054812e+81
-2.9135486e+81
-2.9144023e+81
-2.9071878e+81
-2.9103392e+81
-2.9077896e+81
-2.9029477e+81
-2.9050152e+81
-2.8951076e+81
-2.9007402e+81
-2.900588e+81
-2.8962876e+81
-3.0153063e+81
-3.012099e+81
-2.9982726e+81
-3.0025748e+81
-3.0045792e+81
-3.006052e+81
-2.9992524e+81
-3.0205619e+81
-3.0244619e+81
-3.0354224e+81
-3.0312166e+81
-2.9983652e+81
-2.9975292e+81
-2.9947794e+81
-2.9972015e+81
-3.0089453e+81
-3.0126576e+81
-3.0045245e+81
-3.0077259e+81
-2.9910787e+81
-2.994782e+81
-2.9908807e+81
-2.9868117e+81
-3.0006479e+81
-3.0050095e+81
-2.9963907e+81
-3.000561e+81
-3.010821e+81
-3.0153018e+81
-3.0109376e+81
-3.0064691e+81
-3.0150917e+81
-3.0189245e+81
-3.0231439e+81
-3.0194472e+81
-3.0252128e+81
-3.0294724e+81
-3.0340606e+81
-3.0295724e+81
-3.0252828e+81
-3.0209747e+81
-3.0167562e+81
-3.0211623e+81
-3.0034889e+81
-3.0079578e+81
-3.0050877e+81
-2.9996939e+81
-2.9844503e+81
-2.9831219e+81
-2.9875745e+81
-2.9841267e+81
-2.9797577e+81
-2.9825798e+81
-2.988124e+81
-2.986127e+81
-2.986399e+81
-2.9952697e+81
-2.9800882e+81
-2.9943428e+81
-2.9935702e+81
-2.9976241e+81
-2.9898551e+81
-2.9933542e+81
-2.9279869e+81
-2.9344921e+81
-2.9270345e+81
-2.938101e+81
-2.9427141e+81
-2.93949e+81
-2.9567273e+81
-2.9621393e+81
-2.9587248e+81
-2.9481066e+81
-2.9527903e+81
-2.9491807e+81
-2.9668383e+81
-2.9658482e+81
-2.9707433e+81
-2.9716955e+81
-2.9733129e+81
-2.9686178e+81
-2.9859969e+81
-2.9103183e+81
-2.9121316e+81
-2.9147888e+81
-2.9186235e+81
-2.9247764e+81
-2.919429e+81
-2.8903898e+81
-2.8910939e+81
-2.9005201e+81
-2.9008833e+81
-2.9050773e+81
-2.9069977e+81
-2.8634381e+81
-2.8687085e+81
-2.8764791e+81
-2.8855694e+81
-2.8688362e+81
-2.831103e+81
-2.8417881e+81
-2.816651e+81
-2.821209e+81
-2.838447e+81
-2.8311066e+81
-2.8319582e+81
-2.8349973e+81
-2.83784e+81
-2.841961e+81
-2.848667e+81
-2.8470034e+81
-2.8407149e+81
-2.8701187e+81
-2.8529395e+81
-2.8518987e+81
-2.861952e+81
-2.8722534e+81
-2.8699116e+81
-2.8812662e+81
-2.8860519e+81
-2.886715e+81
-2.8722566e+81
-2.8806217e+81
-2.8781788e+81
-3.0000648e+81
-3.0004182e+81
-2.9841496e+81
-2.9844411e+81
-2.9761752e+81
-2.975831e+81
-2.9329254e+81
-2.9326405e+81
-2.9404066e+81
-2.9406284e+81
-2.9326096e+81
-2.9329821e+81
-2.940666e+81
-2.9402224e+81
-2.9616822e+81
-2.9536793e+81
-2.9534457e+81
-2.9613872e+81
-2.953961e+81
-2.9536318e+81
-2.9615732e+81
-2.9618777e+81
-2.9193204e+81
-2.9125476e+81
-2.9122841e+81
-2.9189261e+81
-2.9002353e+81
-2.8930543e+81
-2.8928679e+81
-2.8999861e+81
-2.8924865e+81
-2.8921734e+81
-2.8998398e+81
-2.9001939e+81
-2.9191355e+81
-2.9123426e+81
-2.9126905e+81
-2.9195169e+81
-2.8928567e+81
-2.8928227e+81
-2.9000977e+81
-2.9002325e+81
-2.8928463e+81
-2.8926573e+81
-2.9002892e+81
-2.9000155e+81
-2.9192441e+81
-2.9124705e+81
-2.912361e+81
-2.919016e+81
-2.9191717e+81
-2.9123816e+81
-2.9125293e+81
-2.9193636e+81
-2.9621797e+81
-2.9541733e+81
-2.9537681e+81
-2.9619267e+81
-2.9406642e+81
-2.9327514e+81
-2.9324258e+81
-2.9402849e+81
-2.932671e+81
-2.9324685e+81
-2.9403607e+81
-2.9402599e+81
-2.9617959e+81
-2.9535612e+81
-2.9534401e+81
-2.9615685e+81
-2.9903741e+81
-2.9902003e+81
-2.9911929e+81
-2.9910317e+81
-2.9908121e+81
-2.9905575e+81
-2.9898875e+81
-2.9895879e+81
-2.974786e+81
-2.9752215e+81
-2.9905057e+81
-2.9906455e+81
-2.9913402e+81
-2.9913232e+81
-2.9912379e+81
-2.9911731e+81
-2.9906251e+81
-2.9905731e+81
-2.9754123e+81
-2.97539e+81
-3.0005134e+81
-3.0004222e+81
-3.003053e+81
-3.0032049e+81
-3.0118545e+81
-3.0152201e+81
-3.0150569e+81
-3.0117437e+81
-3.0030005e+81
-3.0003602e+81
-3.0030446e+81
-3.0003221e+81
-3.0116663e+81
-3.0149966e+81
-3.0116117e+81
-3.0149589e+81
-3.0001961e+81
-2.9999805e+81
-3.0029527e+81
-3.0027007e+81
-3.0113247e+81
-3.0149377e+81
-3.014721e+81
-3.0115554e+81
-2.9998382e+81
-2.9996675e+81
-3.0024931e+81
-3.0026236e+81
-3.0110993e+81
-3.0109595e+81
-3.0145493e+81
-3.0143895e+81
-2.9901501e+81
-2.9908253e+81
-2.9910264e+81
-2.9914188e+81
-2.9913551e+81
-2.9912213e+81
-2.9908169e+81
-2.9905318e+81
-2.9749424e+81
-2.974922e+81
-2.9905818e+81
-2.990505e+81
-2.9914153e+81
-2.9912906e+81
-2.9912621e+81
-2.9912319e+81
-2.9905231e+81
-2.9904597e+81
-2.9750672e+81
-2.975166e+81
-3.0028618e+81
-3.0001127e+81
-3.0027477e+81
-3.0003992e+81
-3.0115181e+81
-3.0116408e+81
-3.0148872e+81
-3.0149644e+81
-3.0029811e+81
-3.0004992e+81
-3.0029681e+81
-3.000501e+81
-3.014927e+81
-3.0116608e+81
-3.0116835e+81
-3.01497e+81
-3.0029838e+81
-3.0006372e+81
-3.0031426e+81
-3.00051e+81
-3.0150851e+81
-3.0118092e+81
-3.0116962e+81
-3.015007e+81
-3.0031598e+81
-3.0004989e+81
-3.0031232e+81
-3.0005094e+81
-3.0150686e+81
-3.0117463e+81
-3.0117727e+81
-3.0151356e+81
-2.988725e+81
-2.9884939e+81
-2.9892458e+81
-2.988981e+81
-2.9887649e+81
-2.988712e+81
-2.9882736e+81
-2.9881378e+81
-2.9600575e+81
-2.9528062e+81
-2.9529863e+81
-2.9602319e+81
-2.9735014e+81
-2.9736153e+81
-2.9893297e+81
-2.9894567e+81
-2.9902289e+81
-2.9900775e+81
-2.9897115e+81
-2.9893392e+81
-2.9892783e+81
-2.9888958e+81
-2.9608888e+81
-2.9530877e+81
-2.9526881e+81
-2.9602811e+81
-2.9738587e+81
-2.9741813e+81
-3.0016998e+81
-2.9993579e+81
-3.0020553e+81
-2.9991267e+81
-3.0106886e+81
-3.0140021e+81
-3.0136484e+81
-3.0104047e+81
-3.0011404e+81
-2.9988342e+81
-3.0014442e+81
-2.9985406e+81
-2.9399594e+81
-2.9325002e+81
-2.9322886e+81
-2.9396523e+81
-2.933027e+81
-2.9325856e+81
-2.9398991e+81
-2.9401741e+81
-2.9879016e+81
-2.9879098e+81
-2.988333e+81
-2.9882533e+81
-2.9881028e+81
-2.9880313e+81
-2.9878661e+81
-2.9877298e+81
-2.9599919e+81
-2.9531437e+81
-2.9533842e+81
-2.9603506e+81
-2.973387e+81
-2.9733645e+81
-2.9879737e+81
-2.9881014e+81
-2.9886697e+81
-2.988649e+81
-2.9884555e+81
-2.9883533e+81
-2.9881044e+81
-2.9879954e+81
-2.9601002e+81
-2.9528219e+81
-2.9526927e+81
-2.9598608e+81
-2.9733934e+81
-2.9733646e+81
-2.9403138e+81
-2.9334415e+81
-2.9334146e+81
-2.9402778e+81
-2.9335183e+81
-2.933566e+81
-2.9405446e+81
-2.940648e+81
-2.9203119e+81
-2.9139034e+81
-2.913782e+81
-2.9203205e+81
-2.9010138e+81
-2.8936144e+81
-2.8935764e+81
-2.9010268e+81
-2.8936966e+81
-2.8937515e+81
-2.9012139e+81
-2.9012972e+81
-2.9205555e+81
-2.9138674e+81
-2.9140231e+81
-2.9207179e+81
-2.9188115e+81
-2.9121216e+81
-2.9120245e+81
-2.9186689e+81
-2.8998107e+81
-2.8927293e+81
-2.8927905e+81
-2.8997133e+81
-2.8933006e+81
-2.8930209e+81
-2.9000731e+81
-2.9007464e+81
-2.9191361e+81
-2.9125278e+81
-2.9131991e+81
-2.9198174e+81
-2.879629e+81
-2.8726614e+81
-2.8724723e+81
-2.8793942e+81
-2.8600348e+81
-2.8511288e+81
-2.8514295e+81
-2.8602538e+81
-2.8510263e+81
-2.850989e+81
-2.8599716e+81
-2.8602389e+81
-2.8788356e+81
-2.871316e+81
-2.8714736e+81
-2.8792116e+81
-2.8065946e+81
-2.8201847e+81
-2.8165764e+81
-2.8082799e+81
-2.8227612e+81
-2.8232861e+81
-2.8275784e+81
-2.8270393e+81
-2.821775e+81
-2.8190941e+81
-2.8207958e+81
-2.8260185e+81
-2.8309012e+81
-2.8279133e+81
-2.8363751e+81
-2.8376882e+81
-2.8375238e+81
-2.8302656e+81
-2.8301626e+81
-2.8371233e+81
-2.8354295e+81
-2.8299192e+81
-2.8308316e+81
-2.8373486e+81
-2.8092864e+81
-2.8258616e+81
-2.8215445e+81
-2.820399e+81
-2.8259701e+81
-2.8089265e+81
-2.8193096e+81
-2.8207558e+81
-2.8239954e+81
-2.8239239e+81
-2.8378749e+81
-2.829811e+81
-2.8299872e+81
-2.8372846e+81
-2.8181014e+81
-2.8230746e+81
-2.747009e+81
-2.748358e+81
-2.8788903e+81
-2.8716649e+81
-2.8720003e+81
-2.8792633e+81
-2.8604116e+81
-2.8510017e+81
-2.8521457e+81
-2.8608344e+81
-2.8515699e+81
-2.8520528e+81
-2.8608874e+81
-2.8605649e+81
-2.8795517e+81
-2.8721491e+81
-2.8722126e+81
-2.8797413e+81
-2.8092477e+81
-2.8129281e+81
-2.824944e+81
-2.8251413e+81
-2.8143005e+81
-2.8149817e+81
-2.8288706e+81
-2.8347568e+81
-2.7540769e+81
-2.7647695e+81
-2.8793109e+81
-2.8722634e+81
-2.8721568e+81
-2.8793194e+81
-2.8596782e+81
-2.8508568e+81
-2.8519098e+81
-2.8600142e+81
-2.8521601e+81
-2.8603617e+81
-2.8606339e+81
-2.8522635e+81
-2.8796305e+81
-2.8723295e+81
-2.8729871e+81
-2.8806767e+81
-2.8243109e+81
-2.8199313e+81
-2.82085e+81
-2.8261069e+81
-2.8296009e+81
-2.836822e+81
-2.8383262e+81
-2.8315004e+81
-2.8202316e+81
-2.8244712e+81
-2.821474e+81
-2.8250643e+81
-2.8311505e+81
-2.8382862e+81
-2.830402e+81
-2.8387356e+81
-2.8213803e+81
-2.820187e+81
-2.8253771e+81
-2.8260346e+81
-2.8251728e+81
-2.822448e+81
-2.8266265e+81
-2.8231121e+81
-2.8315617e+81
-2.8384608e+81
-2.8369437e+81
-2.8302373e+81
-2.8314305e+81
-2.8384971e+81
-2.8311187e+81
-2.8381254e+81
-2.8524628e+81
-2.8613743e+81
-2.8614365e+81
-2.852675e+81
-2.8526617e+81
-2.8615814e+81
-2.8611493e+81
-2.8514457e+81
-2.8731264e+81
-2.8734321e+81
-2.8808221e+81
-2.8808494e+81
-2.873164e+81
-2.8731922e+81
-2.880788e+81
-2.8807097e+81
-2.6302651e+81
-2.6210957e+81
-2.9583792e+81
-2.9493549e+81
-2.9491033e+81
-2.9580659e+81
-2.958995e+81
-2.9498036e+81
-2.9495941e+81
-2.9587495e+81
-2.9303403e+81
-2.9304696e+81