/*--------------------------------*- C++ -*----------------------------------*\
  =========                 |
  \\      /  F ield         | OpenFOAM: The Open Source CFD Toolbox
   \\    /   O peration     | Website:  https://openfoam.org
    \\  /    A nd           | Version:  7
     \\/     M anipulation  |
\*---------------------------------------------------------------------------*/
FoamFile
{
    version     2.0;
    format      ascii;
    class       volScalarField;
    location    "5000";
    object      nut;
}
// * * * * * * * * * * * * * * * * * * * * * * * * * * * * * * * * * * * * * //

dimensions      [0 2 -1 0 0 0 0];

internalField   nonuniform List<scalar> 
34251
(
2.1775996e-29
1.0441131e-28
1.014518e-29
1.4083695e-30
1.0174284e-29
1.7543864e-30
3.6006084e-31
6.6794203e-31
7.7962331e-31
1.5549921e-30
4.5176765e-29
1.5571473e-30
4.3475547e-29
4.5761896e-30
5.1862321e-30
1.9243511e-30
1.6359662e-30
4.342961e-30
4.3720379e-30
1.8728845e-30
1.6916264e-30
6.7042123e-31
3.850377e-31
3.9042406e-31
5.3385441e-31
3.7187423e-31
4.5092464e-31
3.4749732e-31
4.5736176e-31
1.7480372e-31
1.6781955e-31
1.8782585e-31
1.8226203e-31
7.9017002e-31
8.8905745e-31
9.0690854e-31
8.1688638e-31
2.5349281e-30
1.6822369e-30
4.3878343e-30
8.9043487e-31
5.6774697e-31
2.9901378e-30
2.76182e-30
2.8243246e-30
2.1850136e-29
2.1755122e-29
7.9753042e-31
7.6289235e-31
4.2255254e-30
3.898897e-30
2.6882205e-30
2.6724019e-30
1.9578558e-29
2.0736922e-29
9.3548362e-31
1.8865289e-30
9.8399779e-31
1.9527325e-30
1.0816755e-30
1.8890319e-30
1.0445452e-30
9.5812509e-31
1.7694528e-30
1.0179378e-30
1.8290258e-30
1.7560092e-30
9.8995111e-31
9.6593928e-31
7.4090626e-31
6.9574514e-31
7.0411718e-31
7.2230482e-31
3.426262e-31
3.7448402e-31
4.2454561e-31
4.6183039e-31
1.7935142e-31
5.109423e-31
3.6710051e-31
3.40087e-31
4.3778056e-31
1.7511199e-31
7.0743128e-31
6.5896189e-31
6.8594272e-31
6.9290084e-31
1.9505837e-31
1.9510205e-31
2.7899224e-31
2.7425369e-31
2.7706884e-31
2.1446191e-31
2.8297322e-31
3.4770781e-31
3.4637767e-31
3.2116482e-31
2.669472e-31
2.6660214e-31
2.6983457e-31
2.740488e-31
1.9827317e-31
3.5539931e-31
3.3594681e-31
3.2509695e-31
3.353453e-31
2.1037242e-31
2.150093e-31
2.2865672e-31
2.0393293e-31
3.0487797e-31
3.4211365e-31
4.7196839e-31
1.1289089e-31
1.6005443e-31
1.0430602e-31
1.0207267e-31
1.6953952e-31
1.1089292e-31
1.6354121e-31
1.0781554e-31
4.0214679e-31
3.7391022e-31
6.9503716e-31
7.1644617e-31
6.8358393e-31
6.6143359e-31
6.7102086e-31
6.4891762e-31
5.3613965e-31
5.0900284e-31
8.6851419e-31
5.4432791e-31
4.4846698e-31
8.3773602e-31
1.2865038e-30
1.3584225e-30
1.8746564e-30
1.7831523e-30
1.3387079e-30
1.3007731e-30
1.792612e-30
1.8318677e-30
2.1114169e-30
9.080274e-30
8.7236161e-30
2.0864352e-30
2.2342419e-30
2.1856168e-30
9.3425621e-30
4.3403664e-31
5.6250079e-31
9.0870041e-31
8.4184441e-31
1.3743954e-30
1.3649673e-30
1.8069931e-30
1.8409584e-30
1.8953745e-30
1.3889804e-30
1.3181415e-30
1.8146071e-30
2.036712e-30
2.0679358e-30
8.557887e-30
2.1237795e-30
2.1839404e-30
8.9230447e-30
8.2466675e-30
7.5917428e-31
7.6290286e-31
5.1911392e-31
5.2508838e-31
7.8135118e-31
7.7652222e-31
5.9481406e-31
5.9591181e-31
5.5250625e-31
7.7390585e-31
7.4567644e-31
5.4367802e-31
7.5359216e-31
7.2710288e-31
5.4326398e-31
5.3943863e-31
7.4527347e-31
7.41767e-31
5.5177021e-31
5.284845e-31
7.3716033e-31
7.0163159e-31
5.3009466e-31
5.1849401e-31
3.0443864e-31
6.488037e-31
5.0835514e-31
6.3076788e-31
6.0150995e-31
4.9334641e-31
5.0512126e-31
4.7856818e-31
4.9006658e-31
4.6791333e-31
4.6293945e-31
4.5489031e-31
4.5642656e-31
2.6026645e-31
2.6085341e-31
2.7031451e-31
2.6872701e-31
2.0368912e-31
2.7996705e-31
2.8169439e-31
2.8681432e-31
2.2427932e-31
3.3893505e-31
3.3445995e-31
3.1974997e-31
3.2130115e-31
3.6153789e-31
3.4097633e-31
2.2094629e-31
2.1882705e-31
3.5639982e-31
3.5508809e-31
3.691435e-31
3.2372609e-31
2.806421e-31
2.8546219e-31
2.9284133e-31
2.7014772e-31
2.192734e-31
2.5219932e-31
2.6576716e-31
2.7678781e-31
2.0239778e-31
2.6788122e-31
3.3383421e-31
3.1803344e-31
3.4066483e-31
3.3354501e-31
2.1370042e-31
2.0829047e-31
6.6126458e-31
6.5804713e-31
5.3646198e-31
5.6109135e-31
5.6630378e-31
6.326515e-31
6.5702418e-31
4.9804058e-31
4.897983e-31
4.8197236e-31
4.6010719e-31
4.5175488e-31
4.7611178e-31
4.6672263e-31
4.9160952e-31
4.4951112e-31
1.1516164e-31
1.5558005e-31
1.0672405e-31
1.0574701e-31
1.7525143e-31
1.1358527e-31
1.6675059e-31
1.0700824e-31
1.054966e-31
1.5414391e-31
4.0910414e-31
3.9402489e-31
1.7272302e-31
1.7548788e-31
2.2203723e-31
1.9409159e-31
1.9687293e-31
1.5257232e-31
1.6175642e-31
2.1724286e-31
1.795351e-31
1.6978152e-31
2.133468e-31
2.1014219e-31
2.3221753e-31
2.2467089e-31
2.4999584e-31
2.2409609e-31
2.3868567e-31
2.3326587e-31
2.4785063e-31
2.363968e-31
3.2765977e-31
3.2165003e-31
3.0264581e-31
2.9550835e-31
3.2676722e-31
2.9928232e-31
3.279711e-31
2.9794328e-31
3.5714234e-31
2.9319717e-31
3.6143375e-31
2.9507037e-31
1.6816609e-31
1.6815366e-31
1.9251073e-31
1.8587613e-31
1.8976291e-31
1.6730901e-31
1.6856194e-31
1.9342681e-31
1.8544109e-31
1.8957493e-31
2.3227098e-31
2.2768633e-31
2.3472293e-31
2.2405739e-31
2.3316407e-31
2.2873378e-31
2.4001249e-31
2.3052498e-31
1.9597894e-31
2.1155544e-31
3.3209332e-31
3.0590126e-31
3.3610048e-31
3.0667203e-31
2.9922916e-31
2.776231e-31
3.1816915e-31
2.9044164e-31
3.4157588e-31
2.8646797e-31
3.6238463e-31
2.9857908e-31
3.7095931e-31
3.0642102e-31
3.761457e-31
3.0811895e-31
1.8529804e-31
2.0186848e-31
2.1603008e-31
2.1311757e-31
1.6653159e-31
1.8461434e-31
1.7008159e-31
1.8996086e-31
1.9784684e-31
2.0535093e-31
2.5677042e-31
2.4324905e-31
2.3837691e-31
2.4735003e-31
2.2685874e-31
2.3686646e-31
1.7288872e-31
1.9176475e-31
2.1384787e-31
1.9519796e-31
1.9221912e-31
2.1299048e-31
2.2189361e-31
2.6976241e-31
2.6422491e-31
2.7157522e-31
3.8006082e-31
3.5305193e-31
3.0655012e-31
3.6738801e-31
4.9095478e-32
4.8975675e-32
6.8426569e-32
6.7576853e-32
9.3035521e-32
8.877711e-32
5.6412756e-32
5.8738424e-32
9.844235e-32
9.6615527e-32
9.3757399e-32
8.8243835e-32
9.4649166e-32
9.4825806e-32
9.1711253e-32
8.0249976e-32
8.9473881e-32
8.7240351e-32
5.5367857e-32
5.4940892e-32
7.3724911e-32
5.0259247e-32
7.2815469e-32
9.5836082e-32
1.0125962e-31
5.846775e-32
6.0830649e-32
1.2916387e-31
1.2029517e-31
1.0858577e-31
1.029651e-31
9.945739e-32
8.2309153e-32
8.486568e-32
8.0094828e-32
4.2822332e-31
4.2209594e-31
4.5845638e-31
4.5238145e-31
4.4179059e-31
4.3062496e-31
4.265659e-31
4.1838952e-31
4.2561369e-31
4.0920262e-31
4.2911212e-31
4.1398148e-31
1.1767411e-30
1.1423442e-30
1.9975128e-30
1.4789381e-30
1.4039247e-30
5.9159701e-31
4.9694769e-31
1.8031771e-30
1.5253416e-30
1.4321868e-30
7.6000033e-31
7.4753016e-31
7.3356724e-31
7.4978444e-31
1.031649e-30
9.8223445e-31
7.6415075e-31
7.7132118e-31
7.5945337e-31
7.541873e-31
2.2753621e-30
2.1962792e-30
6.9812385e-31
7.5595451e-31
2.0746014e-30
2.2050085e-30
7.4546233e-31
1.0044518e-30
9.9139052e-31
7.6580141e-31
1.0156611e-30
1.0334173e-30
7.4233247e-31
7.7904979e-31
1.037048e-30
9.9555674e-31
7.7739324e-31
7.1973208e-31
7.6320029e-31
2.2612189e-30
2.1778157e-30
6.703266e-31
5.6234582e-31
2.4338052e-30
1.5427665e-30
1.4563335e-30
1.8932988e-30
1.4206152e-30
1.5632497e-30
7.6114819e-31
7.5228698e-31
7.7107049e-31
7.4652565e-31
1.012828e-30
1.0034042e-30
7.6842367e-31
7.718093e-31
7.7266778e-31
9.9602072e-31
1.0393224e-30
7.4586788e-31
7.3712536e-31
2.1551879e-30
2.087696e-30
7.798885e-31
7.7196061e-31
9.8684421e-31
1.0361023e-30
7.5163204e-31
7.7789492e-31
1.0357885e-30
1.0268258e-30
7.1032945e-31
7.6303011e-31
2.0419025e-30
2.1679666e-30
7.5999697e-31
7.4408205e-31
2.2334214e-30
2.1047309e-30
2.7885719e-31
8.5428361e-31
7.814352e-31
1.8858636e-31
2.0817235e-31
7.9891549e-31
8.6313654e-31
1.970609e-31
1.9373e-31
8.5840221e-31
7.9788671e-31
2.0046231e-31
2.1707514e-31
8.3965919e-31
8.9472296e-31
2.0455798e-31
2.0013452e-31
8.4430732e-31
8.3192115e-31
1.8946389e-31
2.0222441e-31
7.9761983e-31
8.4455139e-31
1.9413315e-31
1.8930019e-31
8.0947281e-31
7.5874779e-31
1.8758214e-31
2.0101322e-31
7.8136179e-31
8.290296e-31
1.9377535e-31
1.8847433e-31
7.7053773e-31
7.3389237e-31
1.8695322e-31
2.0420924e-31
7.931791e-31
8.0806585e-31
1.8475484e-31
1.8505443e-31
8.1005508e-31
7.7490421e-31
1.8363431e-31
1.9514952e-31
7.5414347e-31
8.0116994e-31
1.8676611e-31
1.8127889e-31
3.0970179e-31
3.7880241e-31
3.2658991e-31
3.8169344e-31
3.2286931e-31
3.7499166e-31
2.5567376e-31
3.7832975e-31
2.5385748e-31
3.8297966e-31
3.807542e-31
3.412175e-31
3.3088856e-31
3.7555525e-31
3.727538e-31
3.320262e-31
3.2165706e-31
3.8769305e-31
2.6357815e-31
3.9160025e-31
2.6086553e-31
3.7379106e-31
3.8188188e-31
2.601174e-31
2.5638979e-31
3.6375935e-31
3.7063314e-31
2.8306276e-31
2.8465851e-31
3.7778162e-31
3.7311561e-31
3.2217489e-31
3.2057478e-31
3.6179018e-31
3.6355581e-31
3.1681311e-31
3.1413099e-31
3.5549135e-31
3.5231705e-31
3.0654001e-31
3.0198421e-31
3.4435608e-31
3.4682302e-31
2.7668857e-31
2.7442547e-31
3.525561e-31
3.5652685e-31
2.8157743e-31
2.8060675e-31
1.7057594e-31
1.7272105e-31
1.9336526e-31
1.8940129e-31
1.8668646e-31
1.6934999e-31
1.6542995e-31
1.9054886e-31
1.8646802e-31
1.8790403e-31
2.3488994e-31
2.2689553e-31
2.3378563e-31
2.2596901e-31
2.3627595e-31
2.286272e-31
2.4093581e-31
2.2894444e-31
1.9214108e-31
2.0604481e-31
1.6094026e-31
2.2184461e-31
1.7381092e-31
1.7910944e-31
1.8614186e-31
1.8266995e-31
2.2222682e-31
2.0891244e-31
2.0635789e-31
2.56094e-31
2.5563024e-31
2.4692279e-31
2.4411171e-31
2.4263101e-31
2.2464782e-31
3.2140903e-31
3.2116879e-31
2.9648498e-31
2.9476196e-31
3.167677e-31
2.8966755e-31
3.1476198e-31
2.864824e-31
3.4967842e-31
2.8913321e-31
3.4966899e-31
2.8719196e-31
3.5707987e-31
2.9578435e-31
3.5723518e-31
2.9483321e-31
3.396686e-31
3.0873336e-31
3.7342051e-31
3.0884357e-31
3.0342385e-31
1.9182645e-31
1.5916884e-31
1.6000276e-31
1.6572493e-31
1.8558678e-31
1.8890862e-31
1.8323002e-31
2.1552881e-31
2.1220523e-31
1.0532191e-31
1.7083849e-31
3.9334993e-31
3.1789146e-31
3.9033301e-31
3.1484772e-31
3.1708442e-31
3.2767251e-31
2.9011818e-31
2.9759723e-31
3.5686374e-31
3.2573772e-31
3.5221577e-31
3.198315e-31
3.4751784e-31
3.5858753e-31
2.8842747e-31
2.9275967e-31
1.8905869e-31
1.8835655e-31
2.2341621e-31
2.0831159e-31
2.1543168e-31
2.3627884e-31
2.2452579e-31
2.5177983e-31
2.3316129e-31
2.6073641e-31
2.5329372e-31
2.6469561e-31
2.5204829e-31
1.6924285e-31
1.7796467e-31
2.1097163e-31
1.8539785e-31
1.9718132e-31
2.1262481e-31
2.3954167e-31
1.6277306e-31
1.5718863e-31
1.8500128e-31
1.7211791e-31
1.8221797e-31
1.7045674e-31
1.735547e-31
2.0070555e-31
1.9132087e-31
1.9324332e-31
2.3675379e-31
2.3240424e-31
2.4672875e-31
2.3737217e-31
2.0941962e-31
2.2055868e-31
2.265488e-31
2.2248994e-31
2.2182625e-31
2.1386427e-31
3.128525e-31
2.8990042e-31
2.994536e-31
2.7674346e-31
3.4980187e-31
2.9178514e-31
3.3705229e-31
2.7960618e-31
3.256392e-31
3.0179121e-31
3.3215689e-31
3.0420524e-31
3.6386828e-31
3.0424921e-31
3.7372852e-31
3.0806532e-31
1.8113984e-31
1.8789131e-31
2.1698553e-31
2.0493665e-31
1.6647895e-31
1.9098819e-31
2.1407808e-31
1.6951095e-31
3.859355e-31
3.914319e-31
3.472167e-31
3.3889774e-31
4.0491113e-31
3.5088725e-31
3.9827477e-31
3.3956513e-31
4.0172618e-31
2.7257989e-31
4.1052417e-31
2.7035426e-31
4.0252764e-31
2.8119396e-31
4.1319591e-31
2.7999938e-31
3.9438089e-31
2.6486635e-31
4.1255119e-31
2.6573738e-31
3.7771764e-31
3.5796342e-31
3.4035081e-31
3.1353939e-31
3.92716e-31
3.4127565e-31
3.9794502e-31
3.3723253e-31
3.9207946e-31
3.8009993e-31
3.6501982e-31
2.9307455e-31
3.7552944e-31
2.9544288e-31
3.6907982e-31
3.7621739e-31
3.2123919e-31
3.2229815e-31
3.5891956e-31
3.4435716e-31
3.1337964e-31
2.9825849e-31
3.5064039e-31
3.4033257e-31
2.8102137e-31
2.6917118e-31
3.8175538e-31
3.0061922e-31
3.8032905e-31
2.9471053e-31
3.6248188e-31
3.7003425e-31
3.1546694e-31
3.1734196e-31
3.8808382e-31
3.3275781e-31
3.8307755e-31
3.2636378e-31
3.5584485e-31
3.64867e-31
2.8616262e-31
2.8700102e-31
4.8851125e-32
4.8847486e-32
6.8066563e-32
6.670964e-32
6.7185079e-32
1.0248086e-31
8.5579489e-32
5.6793982e-32
1.0816355e-31
1.1590071e-31
9.3562177e-32
9.2118669e-32
8.9655167e-32
9.7109939e-32
9.5042326e-32
8.4061837e-32
6.0597835e-32
1.0298469e-31
9.2409102e-32
5.7416174e-32
4.8469949e-32
4.8636718e-32
7.0761946e-32
7.2850666e-32
1.0229576e-31
8.7171254e-32
5.7018829e-32
5.7049627e-32
9.4303719e-32
9.46023e-32
9.5659587e-32
9.3682183e-32
9.8508479e-32
9.7726241e-32
8.7176041e-32
8.7787146e-32
9.0905172e-32
8.8936625e-32
5.6523463e-32
5.9186233e-32
8.78819e-32
8.319906e-32
6.526922e-31
6.777007e-31
4.5525008e-31
4.6876003e-31
4.7957813e-31
4.8414687e-31
6.9157712e-31
6.970186e-31
1.3715471e-31
1.5076565e-31
1.5144702e-31
1.324573e-31
4.2500542e-31
4.2888604e-31
5.9539108e-31
5.8979359e-31
4.0898101e-31
4.0861977e-31
4.5500222e-31
4.6350815e-31
6.5762745e-31
6.7520804e-31
1.4215554e-31
1.3504954e-31
1.1846186e-31
1.2445814e-31
4.1060916e-31
3.6716783e-31
3.6817673e-31
3.6414582e-31
2.9370153e-31
2.9728881e-31
3.0582035e-31
3.0234732e-31
2.3352887e-31
2.3105676e-31
3.299109e-31
4.0289763e-31
3.2708899e-31
4.0593718e-31
2.5507984e-31
3.3428395e-31
3.3854026e-31
2.5529401e-31
1.3638637e-31
1.472738e-31
1.3466266e-31
1.305895e-31
1.3342197e-31
1.269853e-31
1.1898921e-31
1.2383979e-31
3.4220926e-31
4.2264778e-31
3.4113209e-31
4.2640469e-31
2.6777581e-31
3.5096177e-31
3.5049445e-31
2.6410811e-31
3.4506342e-31
4.251693e-31
3.4661608e-31
4.2297485e-31
2.7270632e-31
3.5621156e-31
3.5502006e-31
2.6912966e-31
2.897849e-31
2.4039883e-31
2.3882314e-31
2.8235957e-31
2.7612282e-31
2.8036565e-31
2.3568268e-31
2.3220565e-31
1.8557469e-31
2.3732036e-31
1.8886987e-31
2.3714507e-31
2.2978669e-31
1.8207756e-31
2.3267195e-31
1.8462493e-31
2.3949484e-31
2.8666355e-31
2.3958473e-31
2.8228309e-31
2.370343e-31
1.8781681e-31
1.8400877e-31
2.3749081e-31
2.4311661e-31
2.8703792e-31
2.399374e-31
2.8643772e-31
2.3706703e-31
1.8787407e-31
2.3988359e-31
1.8578026e-31
1.767847e-31
2.0839234e-31
1.8146335e-31
2.0503207e-31
1.5083849e-31
1.8455954e-31
1.8151291e-31
1.4707656e-31
2.0710518e-31
1.8029486e-31
2.0846087e-31
1.8195914e-31
1.5052031e-31
1.8416855e-31
1.8393865e-31
1.4972178e-31
6.6401137e-31
6.7476462e-31
4.5897243e-31
4.6215336e-31
4.5096945e-31
4.5652317e-31
6.4985889e-31
6.6791866e-31
1.3106797e-31
1.436517e-31
1.4513883e-31
1.2640025e-31
4.0940723e-31
4.2756704e-31
6.572883e-31
6.5258723e-31
4.5132513e-31
4.513923e-31
4.6987599e-31
4.7301826e-31
6.7369752e-31
6.8472786e-31
1.2947868e-31
1.4631789e-31
1.4467983e-31
1.2724292e-31
4.209429e-31
4.0477624e-31
4.214683e-31
4.1800632e-31
3.3896915e-31
3.33694e-31
3.4286495e-31
2.6487252e-31
2.5920735e-31
3.4781809e-31
4.0097091e-31
3.9808784e-31
3.2262855e-31
3.2648272e-31
3.3447503e-31
3.3011067e-31
2.5611398e-31
2.5211891e-31
3.2959054e-31
4.1270807e-31
3.3349385e-31
4.0867658e-31
3.4321831e-31
2.6262867e-31
2.5808193e-31
3.3830865e-31
3.3661086e-31
4.1485346e-31
3.3763019e-31
4.1224017e-31
3.4505727e-31
2.6285946e-31
3.4496081e-31
2.6094198e-31
1.3146334e-31
1.3975673e-31
1.3249672e-31
1.2461861e-31
1.3330644e-31
1.4153096e-31
1.2963799e-31
1.2736983e-31
2.3960974e-31
2.9092531e-31
2.4247569e-31
2.8775508e-31
2.4278207e-31
1.9202202e-31
1.9092607e-31
2.4114448e-31
2.9414179e-31
2.4608321e-31
2.9769304e-31
2.49016e-31
2.4771316e-31
1.9605575e-31
2.4627577e-31
1.9478025e-31
2.0972034e-31
2.5401266e-31
2.1215627e-31
2.5100733e-31
2.1171333e-31
2.110565e-31
1.6753648e-31
1.6683912e-31
2.3225398e-31
2.7766172e-31
2.3123343e-31
2.7873944e-31
1.816423e-31
2.2983972e-31
2.3229249e-31
1.8191781e-31
1.6060654e-31
1.850162e-31
1.6123e-31
1.8446077e-31
1.6461889e-31
1.656734e-31
1.3551231e-31
1.3567336e-31
2.0146872e-31
1.7459978e-31
2.0067641e-31
1.7437081e-31
1.4479245e-31
1.7683509e-31
1.7816584e-31
1.4472545e-31
1.8217738e-31
2.1206175e-31
1.8403027e-31
2.1096206e-31
1.5289755e-31
1.8692537e-31
1.8752521e-31
1.5184877e-31
2.1564148e-31
1.8807335e-31
2.1686573e-31
1.8949166e-31
1.575409e-31
1.9222968e-31
1.9205549e-31
1.5657946e-31
1.0120772e-31
1.188139e-31
1.0520008e-31
1.1200164e-31
1.1302166e-31
1.0729469e-31
1.0339507e-31
1.1052694e-31
1.1785845e-31
1.1145889e-31
9.9563333e-32
1.038196e-31
1.1334594e-31
1.2033683e-31
1.2033141e-31
1.0615877e-31
1.0371541e-31
1.1546074e-31
1.051886e-31
1.0859348e-31
1.0395031e-31
1.0655982e-31
1.0334403e-31
1.0258846e-31
1.0187174e-31
1.1147858e-31
1.1126829e-31
9.9160866e-32
1.0738202e-31
1.1592426e-31
1.1584266e-31
1.0216912e-31
1.1316885e-31
1.1012909e-31
1.1307533e-31
1.0948331e-31
1.1964217e-31
1.1464354e-31
1.1796651e-31
1.1331708e-31
1.233628e-31
1.3571062e-31
1.2374664e-31
1.149112e-31
1.1957698e-31
1.2913676e-31
1.1536416e-31
1.1173805e-31
1.5522017e-31
1.7119311e-31
1.5902623e-31
1.4424148e-31
1.4521942e-31
1.5114961e-31
1.4290935e-31
1.3716839e-31
1.4888702e-31
1.6628418e-31
1.5849577e-31
1.426007e-31
1.4122364e-31
1.4539775e-31
1.3967264e-31
1.3626264e-31
1.0143643e-31
9.8124149e-32
9.9757409e-32
1.0130092e-31
7.1124307e-31
7.2268197e-31
4.9550415e-31
5.0408068e-31
4.4382849e-31
7.1780922e-31
7.0435345e-31
4.9951549e-31
4.96522e-31
5.0310983e-31
5.0982215e-31
7.2294938e-31
7.3490962e-31
4.444393e-31
4.3420843e-31
3.703963e-31
4.5380969e-31
3.7211015e-31
4.5136782e-31
3.8257838e-31
3.815296e-31
2.9467841e-31
2.9166042e-31
3.6835296e-31
4.4492052e-31
3.6783042e-31
4.4473573e-31
1.440845e-31
1.6275111e-31
1.4466405e-31
1.6196552e-31
1.2885735e-31
1.4426432e-31
1.2881158e-31
1.447013e-31
1.3008199e-31
1.3169328e-31
1.0765096e-31
1.0832197e-31
1.3708742e-31
1.5458798e-31
1.3776614e-31
1.5466818e-31
1.9942423e-32
1.9925637e-32
2.7650416e-32
2.6778953e-32
2.0098103e-32
2.0343728e-32
2.7207178e-32
2.7494576e-32
5.5708925e-32
5.907287e-32
4.9247533e-32
6.8357753e-32
6.9877346e-32
6.8610177e-32
5.6916984e-32
6.5970894e-32
7.3489957e-32
7.5847982e-32
4.5102263e-32
5.2369439e-32
5.2584783e-32
4.6833648e-32
5.1165431e-32
5.8932424e-32
5.7780155e-32
5.228159e-32
9.9014325e-32
1.2065181e-31
9.9596059e-32
8.6385998e-32
1.0276091e-31
9.503845e-32
8.8846486e-32
9.4626339e-32
7.7871879e-32
8.8354312e-32
9.5081582e-32
8.6243959e-32
8.9393891e-32
9.6739845e-32
8.8302051e-32
8.179572e-32
8.461395e-32
1.0512024e-31
9.3212384e-32
7.9785164e-32
1.0843835e-31
8.8152831e-32
8.1452404e-32
8.8548896e-32
8.1513934e-32
8.838463e-32
9.4287304e-32
8.9341093e-32
8.505172e-32
9.0339527e-32
8.6758835e-32
7.9071811e-32
4.4411833e-32
6.6676831e-32
6.8257061e-32
6.8154533e-32
5.2416761e-32
6.7070411e-32
6.7303132e-32
6.8507327e-32
4.5476746e-32
4.9927711e-32
4.99754e-32
4.7022082e-32
4.4752505e-32
5.0770892e-32
5.0849073e-32
4.6615831e-32
5.3617089e-32
2.7623655e-32
2.0629195e-32
2.0714286e-32
2.8024328e-32
5.3128182e-32
6.0719737e-32
6.3888349e-32
6.1729666e-32
6.0960487e-32
6.1322682e-32
6.1932352e-32
6.3079285e-32
5.3391896e-32
5.599702e-32
5.5276426e-32
5.4391306e-32
5.7685969e-32
6.3588383e-32
6.2734561e-32
5.8205252e-32
8.6818423e-32
8.564063e-32
9.7421042e-32
9.8114783e-32
7.9198844e-32
8.3426688e-32
8.9858976e-32
9.479299e-32
1.0335403e-31
9.5846581e-32
9.3785762e-32
9.9987097e-32
9.6355249e-32
8.8888262e-32
8.8544088e-32
9.358382e-32
9.9532555e-32
8.282469e-32
8.1232537e-32
8.8418261e-32
8.3445868e-32
8.214709e-32
7.2723147e-32
7.7981981e-32
5.1876637e-32
4.9910595e-32
8.1360302e-32
7.6699267e-32
1.7391387e-31
1.9438946e-31
1.8731071e-31
1.7726705e-31
1.9253377e-31
1.9752171e-31
1.9801674e-31
1.8363235e-31
1.8444047e-31
1.8453437e-31
1.9048817e-31
1.7742472e-31
1.8003075e-31
1.8214519e-31
1.8512925e-31
1.7306804e-31
1.7557887e-31
1.8432145e-31
1.7467754e-31
1.6931205e-31
1.7650291e-31
1.7891399e-31
1.8296559e-31
1.7080977e-31
6.0570764e-31
5.4555633e-31
4.5663652e-31
7.3624091e-31
4.2538207e-31
3.6360121e-31
3.2869154e-31
5.9872381e-31
5.8830062e-31
1.1124445e-30
7.0755771e-31
6.7939847e-31
5.8568224e-31
6.1537178e-31
1.0502332e-30
7.1045435e-31
6.7457992e-31
1.6747323e-30
1.1058844e-30
1.0772145e-30
8.1218136e-31
8.2524713e-31
6.6148183e-31
6.7292196e-31
9.798178e-31
1.0583586e-30
8.0826799e-31
6.6361311e-31
7.664825e-31
1.0074982e-30
9.9244218e-31
7.8753086e-31
7.9054385e-31
6.5224469e-31
6.6418183e-31
9.7839532e-31
1.0483432e-30
8.0301416e-31
7.6531371e-31
6.6315891e-31
6.3798896e-31
3.8498962e-31
8.6384956e-31
3.9111409e-31
8.6685733e-31
8.7331629e-31
8.3666582e-31
3.8259079e-31
3.885331e-31
2.4603257e-31
2.3217282e-31
2.3577944e-31
2.6326461e-31
2.397507e-31
2.3583314e-31
2.8445205e-31
2.4853972e-31
2.1526804e-31
1.8707594e-31
2.0036049e-31
2.2298294e-31
2.2491683e-31
1.9651417e-31
1.8820156e-31
2.1418869e-31
2.2743776e-31
2.3524181e-31
2.3791433e-31
2.5828201e-31
2.4163188e-31
2.3996676e-31
2.3913596e-31
2.6493981e-31
2.1028427e-31
1.7978145e-31
1.9058528e-31
2.1846262e-31
1.8828645e-31
1.9315217e-31
2.2612994e-31
2.1491175e-31
8.55868e-31
8.5535773e-31
3.8829013e-31
3.7993536e-31
3.9539956e-31
8.7964712e-31
8.6866552e-31
3.8813935e-31
3.8433597e-31
8.757705e-31
3.9007102e-31
8.6848231e-31
8.9520185e-31
8.8982842e-31
3.9548375e-31
3.9367341e-31
3.8790141e-31
8.6026722e-31
8.7077986e-31
3.9184818e-31
2.5560934e-31
2.2625938e-31
2.3154009e-31
2.7728026e-31
2.3951276e-31
2.3817207e-31
2.8890754e-31
2.6209888e-31
2.0337358e-31
2.2751948e-31
2.1849069e-31
1.9663914e-31
2.1322315e-31
1.8663424e-31
1.9869578e-31
2.2113276e-31
6.1240602e-31
6.3243027e-31
1.3433097e-30
7.0680085e-31
7.4635321e-31
5.9218749e-31
6.3284081e-31
1.3441826e-30
7.1320879e-31
6.9145715e-31
1.1061583e-30
1.047844e-30
8.0860866e-31
7.9085704e-31
6.7916598e-31
9.6012149e-31
1.0082064e-30
7.9666369e-31
7.6760792e-31
6.6493642e-31
6.8278096e-31
1.1259955e-30
1.0884401e-30
8.2561361e-31
8.2046954e-31
6.7929158e-31
6.7354923e-31
9.5733119e-31
9.9826022e-31
8.0302744e-31
7.5985671e-31
6.4382643e-31
6.7293043e-31
8.9030198e-31
8.8045595e-31
3.9621099e-31
3.9735612e-31
8.7956032e-31
8.8778846e-31
3.987794e-31
3.8921002e-31
8.9044491e-31
8.5533748e-31
3.8650297e-31
3.9202388e-31
2.35271e-31
2.407803e-31
2.5864163e-31
2.6320751e-31
2.4053911e-31
2.3878529e-31
2.4136469e-31
2.612189e-31
2.0902694e-31
1.8215447e-31
1.9375067e-31
2.1823626e-31
1.7932843e-31
1.8820328e-31
2.1827441e-31
2.0655625e-31
8.7507345e-31
8.7816396e-31
3.9480914e-31
3.8823039e-31
8.8489879e-31
8.4813599e-31
3.8374792e-31
3.8994179e-31
8.7936887e-31
8.7393479e-31
3.9532504e-31
3.8657792e-31
8.9405008e-31
8.9019495e-31
3.9722651e-31
3.9888121e-31
2.3157752e-31
2.3881533e-31
2.5480887e-31
2.7023406e-31
2.4416287e-31
2.4403474e-31
2.4944921e-31
2.6844408e-31
2.0535841e-31
1.7836038e-31
1.9047059e-31
2.1365824e-31
1.8802352e-31
1.9302127e-31
2.2044653e-31
2.1345502e-31
2.3474692e-31
2.3827666e-31
2.4634703e-31
2.5913915e-31
2.3724647e-31
2.3585333e-31
2.4452139e-31
2.7720447e-31
2.1213708e-31
1.8447241e-31
1.9707112e-31
2.1900353e-31
1.8232626e-31
1.9284024e-31
2.198464e-31
2.0723028e-31
9.7833606e-32
2.8265494e-31
2.8089932e-31
2.6446357e-31
2.730931e-31
2.8897186e-31
2.8192286e-31
2.6356039e-31
2.7148305e-31
2.8379842e-31
2.8316244e-31
2.707665e-31
2.6526972e-31
2.782083e-31
2.7721225e-31
2.6215459e-31
2.5724435e-31
2.7009024e-31
2.6995707e-31
2.566119e-31
2.6434141e-31
2.703548e-31
2.7207338e-31
2.6172055e-31
2.5142734e-31
2.6084951e-31
9.7795343e-32
1.0599602e-31
9.7387227e-32
1.0498473e-31
9.9506418e-32
8.8288921e-32
8.7445883e-32
1.0101806e-31
1.0065641e-31
1.0981274e-31
1.0084825e-31
1.0954509e-31
1.0142972e-31
8.9379891e-32
1.0606323e-31
8.9563788e-32
1.0091218e-31
1.0929592e-31
1.0243513e-31
1.1113008e-31
8.9765668e-32
1.1631328e-31
1.1855574e-31
8.9508196e-32
1.1046816e-31
1.0186584e-31
1.1016695e-31
1.0339433e-31
9.0925648e-32
1.18611e-31
1.1824207e-31
8.967625e-32
1.0363582e-31
9.5075989e-32
9.7124321e-32
1.0338253e-31
1.0367642e-31
1.0482027e-31
9.7192968e-32
9.5911753e-32
9.849931e-32
8.7928126e-32
8.8830163e-32
1.0455141e-31
1.0030581e-31
9.9973412e-32
8.8868892e-32
8.8665614e-32
1.0617509e-31
9.7545674e-32
9.7698617e-32
1.0493689e-31
1.0235926e-31
9.3813781e-32
9.5698959e-32
1.0315833e-31
8.8740884e-32
1.0052094e-31
8.9160104e-32
1.0513916e-31
8.6926516e-32
9.712414e-32
8.602373e-32
1.0278277e-31
9.9846934e-32
1.0824374e-31
1.0166421e-31
1.101125e-31
8.9381233e-32
1.1484892e-31
1.1659558e-31
8.8869983e-32
1.0903082e-31
1.0195087e-31
1.0965036e-31
1.036098e-31
9.1152129e-32
1.1842257e-31
1.1853009e-31
9.0490471e-32
1.0941134e-31
1.0281784e-31
9.995419e-32
1.0988805e-31
1.0570539e-31
9.9080857e-32
1.0754896e-31
9.7551831e-32
9.0072399e-32
8.9403683e-32
1.1609317e-31
1.1713797e-31
1.1326383e-31
1.1354303e-31
8.7923167e-32
8.6658402e-32
1.2153433e-31
1.3549918e-31
1.2127145e-31
1.3459523e-31
1.3887988e-31
1.2480645e-31
1.251602e-31
1.3921797e-31
1.20994e-31
9.9374726e-32
1.2218489e-31
9.8628739e-32
1.0214614e-31
1.0197997e-31
1.2362331e-31
1.2816292e-31
1.4838215e-31
1.6557119e-31
1.4637551e-31
1.6346441e-31
1.6720308e-31
1.5033765e-31
1.5009516e-31
1.6600164e-31
1.46642e-31
1.2179618e-31
1.4897216e-31
1.2121885e-31
1.2472235e-31
1.2357602e-31
1.4964973e-31
1.510466e-31
1.604356e-31
1.5908013e-31
1.4232022e-31
1.4351226e-31
1.5958046e-31
1.4188705e-31
1.4142191e-31
1.5733569e-31
1.4352928e-31
1.4251066e-31
1.1822303e-31
1.1698288e-31
1.1923642e-31
1.4309488e-31
1.4353777e-31
1.1849897e-31
1.5979814e-31
1.4251511e-31
1.4066277e-31
1.5584982e-31
1.5531424e-31
1.3888589e-31
1.4048478e-31
1.5584752e-31
1.4352606e-31
1.1880809e-31
1.1657231e-31
1.4320534e-31
1.3931984e-31
1.1558854e-31
1.1593646e-31
1.4206545e-31
1.3110702e-31
1.1762701e-31
1.1591817e-31
1.3056684e-31
1.2734554e-31
1.1495196e-31
1.1547138e-31
1.3008934e-31
1.1956228e-31
9.9424382e-32
9.7713623e-32
1.1921215e-31
1.1641656e-31
9.6236933e-32
9.6136508e-32
1.178467e-31
1.2995719e-31
1.1621387e-31
1.1498398e-31
1.2880809e-31
1.2990127e-31
1.3227922e-31
1.1837102e-31
1.1612971e-31
1.1728191e-31
9.7242742e-32
9.6885844e-32
1.1751985e-31
1.1735361e-31
1.1853461e-31
9.8302776e-32
9.7205999e-32
6.8281856e-31
6.917846e-31
4.7012737e-31
4.7230902e-31
4.56527e-31
4.6436401e-31
6.5322637e-31
6.7603512e-31
1.4299118e-31
1.4995032e-31
1.2845515e-31
1.2929763e-31
4.1549452e-31
4.1291142e-31
6.603826e-31
6.5993541e-31
4.5571342e-31
4.5519772e-31
4.4239624e-31
4.5012311e-31
6.2580599e-31
6.4110884e-31
1.4634327e-31
1.2944146e-31
1.2990526e-31
1.4377829e-31
4.2019719e-31
4.1151355e-31
4.0542336e-31
4.0042344e-31
3.2429404e-31
3.2941595e-31
3.3620414e-31
2.5597664e-31
2.5197228e-31
3.309196e-31
3.2829449e-31
4.0351172e-31
3.2557778e-31
4.0643326e-31
3.3151424e-31
2.5278826e-31
3.3503591e-31
2.5316011e-31
4.1931504e-31
4.1613497e-31
3.3892926e-31
3.3496325e-31
3.4155551e-31
2.6201896e-31
2.5830844e-31
3.4488746e-31
4.0745236e-31
4.0644739e-31
3.3050063e-31
3.3233479e-31
3.3964355e-31
3.3786172e-31
2.5970245e-31
2.5766893e-31
1.3039271e-31
1.3203225e-31
1.2569167e-31
1.232381e-31
1.3553699e-31
1.3660385e-31
1.3726391e-31
1.2735518e-31
2.1308322e-31
4.3338142e-31
4.4398581e-31
6.2431501e-31
6.4690636e-31
1.4134127e-31
1.3683648e-31
1.2517394e-31
1.2159381e-31
4.0680772e-31
7.1318232e-31
7.4942775e-31
4.9524427e-31
5.095737e-31
4.8494423e-31
4.8505544e-31
6.8976685e-31
6.8379871e-31
1.6019679e-31
1.4333109e-31
1.4289274e-31
1.5888323e-31
4.4920846e-31
4.5360119e-31
4.4554691e-31
3.6220441e-31
3.6391566e-31
4.4859046e-31
4.4218867e-31
3.5601055e-31
3.5447175e-31
4.3875102e-31
3.6639883e-31
2.7939344e-31
2.7835985e-31
3.6769983e-31
3.6150268e-31
3.6398311e-31
2.7639375e-31
2.7310438e-31
1.4056621e-31
1.5341725e-31
1.3567327e-31
1.4102632e-31
1.3019577e-31
1.2557831e-31
1.1896888e-31
1.2221798e-31
2.824719e-31
2.3521454e-31
2.3200087e-31
2.7904488e-31
2.7970783e-31
2.8193006e-31
2.3678052e-31
2.3482354e-31
1.8491904e-31
2.3535543e-31
1.8629022e-31
2.3333118e-31
2.3386633e-31
1.8564916e-31
2.3476325e-31
1.8630265e-31
2.2759757e-31
2.7697569e-31
2.3147315e-31
2.7191652e-31
2.3125867e-31
1.8307106e-31
1.8010033e-31
2.2844893e-31
2.3000264e-31
2.7349476e-31
2.290464e-31
2.7494881e-31
2.273391e-31
1.8012157e-31
2.2978383e-31
1.8089009e-31
1.7325011e-31
2.0254604e-31
1.768866e-31
2.000504e-31
1.48355e-31
1.8062848e-31
1.7882133e-31
1.4525613e-31
2.0011872e-31
1.7459195e-31
1.9866683e-31
1.7375392e-31
1.4440526e-31
1.760267e-31
1.7805045e-31
1.4528146e-31
2.0532997e-31
1.7882678e-31
1.763772e-31
2.0361712e-31
1.4892132e-31
1.8176226e-31
1.816201e-31
1.4728253e-31
2.0559976e-31
2.0487285e-31
1.802753e-31
1.7935649e-31
1.4983021e-31
1.8224699e-31
1.4945049e-31
1.8227342e-31
2.9520524e-31
2.9835917e-31
2.4940034e-31
2.4688761e-31
2.4545041e-31
1.9594767e-31
1.9394562e-31
2.4680403e-31
2.1575874e-31
2.1365145e-31
1.8686116e-31
1.8882313e-31
1.9125951e-31
1.5568363e-31
1.9046232e-31
1.5454947e-31
1.5625715e-31
1.9058168e-31
1.9018471e-31
1.5534748e-31
1.5784963e-31
1.8114716e-31
2.0261556e-31
1.605233e-31
9.9648158e-32
1.1055505e-31
1.0180248e-31
1.0530379e-31
9.8248402e-32
9.9743805e-32
9.5607281e-32
9.6762081e-32
1.0843012e-31
1.0778346e-31
9.8279013e-32
9.7486667e-32
1.1446356e-31
1.0493782e-31
1.0376041e-31
1.1413029e-31
1.0253279e-31
1.0329025e-31
1.0247862e-31
9.8857623e-32
1.012345e-31
1.0975634e-31
1.1258231e-31
1.0478373e-31
1.117975e-31
1.1105054e-31
9.6641525e-32
1.0114809e-31
1.1860314e-31
1.3083022e-31
1.2306077e-31
1.0936466e-31
4.9009264e-32
7.2192685e-32
9.1125407e-32
8.9631276e-32
8.079687e-32
8.2537709e-32
8.5141775e-32
8.0109067e-32
5.7523609e-32
5.8496264e-32
2.0124434e-31
2.3070949e-31
2.0102117e-31
2.30891e-31
2.0170731e-31
1.6469547e-31
1.6351701e-31
2.0533549e-31
2.2307406e-31
1.9568146e-31
2.2628144e-31
1.9707722e-31
1.9756473e-31
1.6113271e-31
1.9678379e-31
1.5943148e-31
2.8270271e-31
2.3516016e-31
2.3325707e-31
2.7648495e-31
2.8989977e-31
2.9088746e-31
2.4407426e-31
2.4364368e-31
1.8174342e-31
2.3150067e-31
1.8391551e-31
2.3221369e-31
2.413073e-31
1.9091087e-31
2.4024071e-31
1.9063194e-31
2.675129e-31
3.1554039e-31
2.6451824e-31
3.1449896e-31
2.609304e-31
2.0681123e-31
2.0529493e-31
2.6490994e-31
2.6378897e-31
3.1184848e-31
2.6106029e-31
3.1036911e-31
2.5730609e-31
2.0369644e-31
2.5910745e-31
2.0069399e-31
2.0502585e-31
1.79005e-31
1.7746278e-31
2.0531443e-31
2.1276709e-31
1.8653043e-31
2.1348859e-31
1.8659073e-31
1.496819e-31
1.4836168e-31
1.823366e-31
1.8253452e-31
1.9060085e-31
1.8911167e-31
1.5520587e-31
1.5559709e-31
7.1681181e-31
7.0394532e-31
4.9930676e-31