/*--------------------------------*- C++ -*----------------------------------*\
  =========                 |
  \\      /  F ield         | OpenFOAM: The Open Source CFD Toolbox
   \\    /   O peration     | Website:  https://openfoam.org
    \\  /    A nd           | Version:  7
     \\/     M anipulation  |
\*---------------------------------------------------------------------------*/
FoamFile
{
    version     2.0;
    format      ascii;
    class       volScalarField;
    location    "5000";
    object      omega;
}
// * * * * * * * * * * * * * * * * * * * * * * * * * * * * * * * * * * * * * //

dimensions      [0 0 -1 0 0 0 0];

internalField   nonuniform List<scalar> 
34251
(
2379.7006
4426.9146
4377.2316
833.47451
4247.6744
811.57559
646.74122
839.24988
830.61556
1207.4234
9327.4287
1210.8451
9373.7765
8011.4088
8168.164
1974.7146
1959.5862
7721.1359
7974.1953
1914.7718
1923.0612
721.28353
652.09934
654.60619
729.72702
1354.061
1505.5235
1335.0721
1515.8836
537.90932
540.55812
462.70095
464.09773
2099.9008
2125.2286
2100.4906
2086.8457
512.21106
512.49083
1955.0062
627.78856
629.2166
1952.8626
4591.2318
4573.1271
18886.9
18819.142
627.59512
630.47309
1982.8328
1977.0832
4625.7165
4627.0679
18772.744
18914.251
4492.2817
13832.583
4569.8917
13886.13
4675.3561
13887.291
4617.7932
4380.2652
13536.124
4524.4269
13580.621
13609.803
4513.307
4563.0087
1884.3348
1871.3036
1872.1546
1840.7105
1346.8389
1377.6888
1520.3728
1544.9253
541.38809
1542.756
1365.9016
1364.8432
1536.3485
544.78984
1899.4624
1886.2966
1851.2073
1871.1428
465.63392
466.43208
2983.131
2958.2673
3268.5414
1121.8202
3319.9552
3944.5324
3921.4026
4104.8254
2983.8341
2964.4328
3313.4609
3287.7487
1105.9738
3951.97
3887.6356
4071.2503
4148.8652
989.88257
969.12723
988.08536
1135.4079
3131.4654
3490.235
4662.2933
391.69061
702.71251
828.98892
812.90336
691.33685
392.86841
687.08085
823.77845
327.89148
327.97374
5053.513
5171.9499
5070.8882
5048.23
4999.5941
5051.0378
508.57041
507.94785
2130.3061
646.61249
645.6944
2129.6883
3534.3163
3557.1461
6838.3807
6769.048
3542.3808
3532.8517
6737.8826
6792.6636
13185.019
33388.592
33220.321
13120.557
13268.618
13180.88
33427.81
646.59727
649.30397
2159.4377
2158.6935
3590.9587
3606.6741
6842.1576
6850.5219
6898.3271
3607.8386
3585.6721
6816.8838
13190.428
13243.457
33095.953
13178.715
13333.113
33229.45
33076.277
22312.061
22686.9
8441.1291
8390.201
22369.139
22582.303
8519.044
8487.0914
8403.2071
22511.57
22569.128
8486.0028
22154.575
22177.451
8292.9783
8351.7926
22049.924
22269.522
8279.254
8269.0274
22196.324
22073.079
8311.1112
8373.29
294.6238
5239.2372
4763.6204
5202.5268
5147.0478
4754.8752
4690.714
4769.8925
4845.8845
4781.2792
4731.1294
4661.4031
4725.9536
3023.9443
3012.4851
3333.2714
3359.9854
1113.0573
3047.9009
3072.1134
3423.3562
1136.3243
3993.2347
3962.3903
4135.9083
4186.381
4067.9677
4253.2017
974.15608
1001.6785
4316.9202
3992.5931
4128.3696
4190.1161
3109.0152
3361.1478
3461.6689
3014.9883
1125.4096
3015.6816
3032.1367
3356.8377
1133.3701
3328.6908
3936.6253
4119.8302
3992.1995
4173.137
985.78559
995.63169
5205.794
5345.0331
4773.4032
4864.2987
4744.2058
5089.6097
5199.7063
4666.3586
4708.077
4774.421
4690.2398
4634.1468
4849.544
4778.2989
4931.4341
4729.8916
393.35684
710.95514
838.88534
817.13537
695.3638
394.12298
694.8803
824.66787
833.87355
704.51141
329.1154
329.13417
7026.907
7067.4031
2552.2523
5924.5499
5924.7306
6655.8808
6899.6724
2546.2252
5793.4918
5602.9365
7791.8207
7945.2985
8078.081
8224.0207
2382.1474
2403.0963
8220.2052
8351.1684
8273.0309
8436.0543
9222.7124
9166.104
9055.6851
9028.2426
9178.8824
9022.4073
9199.4252
9044.6614
9757.468
9375.9559
9767.4316
9384.1295
7014.1118
6973.6682
2557.0651
5863.7875
5907.0566
6985.7925
7000.0637
2534.9412
5882.7511
5894.3768
8214.5712
8344.4999
8152.6235
8305.1471
8171.3626
8309.2612
8190.4277
8337.3306
2371.2883
2389.7546
9222.5257
9057.8083
9308.6543
9164.1076
8782.1294
8648.3745
9075.1811
8913.262
9355.8209
9009.8081
9619.0729
9235.2966
9791.7511
9402.8229
9895.6165
9522.7144
1889.3851
1943.2095
2085.1513
2053.2068
1893.3128
1873.9352
2038.6458
2058.8598
1906.9384
1957.8218
2139.2948
2093.2854
2672.9141
2485.9672
2628.8336
2435.9135
1814.6899
7348.6827
6214.4298
7390.1961
7339.2458
6197.9351
6270.2523
8605.2585
8769.454
8553.5046
10067.071
9650.047
9265.8615
9868.9163
589.09504
593.33913
468.0868
464.95769
1080.5966
1124.5919
1258.2316
1316.2278
1689.9119
1532.5855
1465.6389
1635.7286
1617.9708
1448.8971
1460.4227
1637.794
1064.7076
1056.8184
1248.6688
1240.9544
460.78557
582.94496
461.16418
1041.6056
1063.2626
1235.9648
1271.82
1493.3889
1449.345
1687.8342
1641.418
1395.5419
1567.9056
392.31411
390.45074
9201.2164
9236.449
9362.8632
9293.3956
9168.3174
9258.3296
9117.9664
9174.6559
9097.8292
9048.0953
9120.413
9175.2642
490.90753
490.8244
2221.5811
4072.4117
4053.6508
631.25667
629.89548
2222.5334
4101.2136
4046.3778
7517.9032
7429.4523
7401.3923
7467.8027
12650.44
12535.783
18723.508
18507.815
29271.074
28841.649
49416.747
49338.022
28781.432
29274.856
48895.99
49369.926
18434.105
12544.095
12469.292
18648.625
12611.463
12693.443
18571.447
18778.38
12624.616
12510.437
18728.559
29141.632
29391.882
49523.55
49250.112
630.43689
633.07589
2258.5573
4150.2864
4133.8102
2254.1022
4112.6197
4161.4632
7522.762
7538.6323
7585.4164
7489.9469
12669.785
12573.822
18781.332
18864.859
18637.042
12630.549
12752.282
29378.342
28861.275
49147.801
48871.739
18776.533
18494.39
12537.969
12675.609
18714.54
18881.994
12777.136
12736.517
29113.107
29449.365
48784.869
49197.889
29199.954
28718.202
49072.551
48812.703
288.31218
40324.629
39509.971
12145.693
12196.743
40183.407
41140.051
12386.284
12341.089
40378.62
39572.625
12260.228
12318.07
40142.661
40909.179
12378.943
12334.059
40638.329
40033.654
12194.308
12237.16
39829.927
40735.051
12345.228
12309.929
40312.029
39533.609
12026.468
12116.313
39388.095
40248.181
12178.321
12143.736
39880.504
39400.923
12039.74
12051.675
39857.659
40388.667
12129.611
12114.684
40016.594
39675.755
12101.179
12133.336
39030.258
39670.029
12149.417
12135.999
295.37287
10208.601
9411.5995
10255.024
9472.5012
9763.2547
8772.8882
9817.0667
8838.1557
10112.27
10177.247
9343.8129
9417.3929
10117.843
9996.8498
9342.0906
9258.139
9713.673
8753.8348
9778.3631
8823.8729
9707.1963
9616.3278
8741.2756
8689.5033
10391.687
10424.002
9721.4058
9779.9242
10218.985
10235.447
9774.3978
9819.3255
10108.882
10060.839
9638.0499
9709.6799
10041.703
9929.3844
9625.7153
9531.3133
10252.375
10132.761
9617.6604
9519.0211
10259.869
10322.499
9613.3244
9691.3725
7089.4171
7088.4322
2584.933
5967.8192
5983.7584
7122.5917
7043.0042
2571.2544
5945.4377
6052.0809
8293.4927
8397.8642
8207.794
8331.3677
8283.42
8397.767
8271.8387
8415.8453
2400.5944
2408.9218
7031.0539
2615.0637
5881.6548
5944.8504
7325.7782
7293.6577
2617.0989
6196.8916
6133.1908
8541.3422
8503.6997
8639.9535
8638.6526
2431.8612
2460.3224
9259.2823
9268.1487
9077.4793
9116.6815
9243.8265
9061.0054
9160.0706
8991.0979
9776.5294
9384.18
9681.9521
9301.4255
9800.8337
9400.4456
9831.4364
9459.3405
9485.6681
9307.0376
10002.48
9571.7891
9603.5339
982.41837
1901.4078
1889.0999
2059.0715
2070.7131
1973.1814
1914.1302
2125.8964
2087.9216
821.95571
697.12959
10201.932
9787.146
10113.034
9702.0755
9218.1669
9352.0393
9053.4664
9199.8215
9633.953
9458.6396
9581.5604
9405.4909
9773.0245
9909.7251
9385.7505
9535.4058
7379.6466
7361.7052
2647.1597
6199.2309
6243.6808
8229.1087
8359.3479
8361.8472
8505.6758
8608.4237
8745.3512
8580.8708
8720.4607
7044.9773
7177.3221
2580.3807
5946.563
6052.8631
2402.2815
2462.51
7011.1678
6842.3226
2601.3562
5762.1409
5929.9395
7068.9469
7187.6499
2594.0413
6076.0613
5984.171
8247.7591
8372.0105
8379.8004
8514.4383
2426.2123
2446.5247
8192.0344
8293.5303
7979.0276
8120.2757
9144.6949
8953.925
8937.0046
8791.7843
9668.7711
9263.9787
9473.279
9115.3664
9225.2226
9060.1859
9372.2582
9206.0838
9785.7569
9409.9187
9924.9413
9536.8979
1895.2713
1938.8298
2113.1073
2067.164
1920.483
2087.7305
2117.198
1956.4736
10124.583
10259.659
9367.0248
9494.5581
10481.972
9661.093
10340.919
9558.8652
9736.5171
8796.3386
9851.5759
8903.2386
10022.321
9013.1457
9910.6978
8943.0839
9800.754
8835.729
9837.2755
8874.8737
9928.8924
9758.4455
9164.6341
9044.0918
10191.96
9422.1846
10244.745
9472.5626
9529.0567
9386.1642
10313.412
9681.3146
10396.436
9753.7256
10077.186
10190.792
9673.4093
9775.1982
9911.9447
9728.3919
9481.4589
9339.5815
10091.253
9913.0432
9441.4383
9306.5771
10658.298
9978.9246
10518.411
9863.4892
10040.607
10182.777
9630.2318
9781.5839
10458.806
10018.857
10340.927
9912.0168
10253.719
10398.11
9625.1112
9774.2531
598.68239
593.52996
471.55539
468.71518
1336.176
1138.8839
1093.3105
1272.7294
1707.9053
1550.4007
1481.3948
1653.9266
1626.1236
1451.2813
1467.1056
1643.7148
1243.8955
1067.7281
1075.175
1259.566
594.97641
591.4728
465.85203
466.95702
1070.0319
1089.7276
1281.2703
1252.052
1497.2779
1676.0381
1635.1165
1461.6345
1529.443
1488.6902
1662.5622
1701.8528
1114.3657
1088.8115
1280.2981
1312.0819
393.94336
392.36763
20335.96
20332.856
18486.86
18463.899
18464.699
18466.961
20254.231
20234.966
5267.0206
5210.58
5148.535
5244.4053
19401.64
19578.1
18949.54
18962.658
17233.135
17229.811
18268.266
18338.023
20154.375
20176.196
5117.4678
4949.2815
4998.5931
5167.2798
19399.693
18214.39
17573.898
17528.836
15949.441
16013.843
16434.381
16334.906
15161.443
15065.831
16970.64
18608.416
16898.392
18653.243
15930.241
17326.445
17382.141
16005.17
4539.5368
4643.5733
4713.3036
4646.5149
4599.844
4461.64
4510.5392
4655.8888
17066.188
18825.469
17149.717
18760.352
16218.906
17590.562
17471.595
16101.094
17136.668
18825.224
17169.706
18776.633
16271.718
17627.763
17553.813
16222.781
16748.496
15764.351
15631.389
16589.248
16340.087
16448.783
15512.615
15441.717
15242.479
16287.648
15369.556
16145.366
15972.431
15125.726
16046.267
15162.816
15370.513
16492.63
15562.407
16287.963
16087.365
15212.77
15020.948
15877.767
15706.192
16656.649
15683.499
16652.947
16206.151
15291.682
16228.131
15337.245
14918.992
15733.799
15105.893
15525.667
14948.292
15681.6
15481.407
14766.343
15860.589
15224.001
15811.034
15160.937
14986.707
15740.814
15806.734
15055.84
20468.105
20456.235
18593.188
18551.179
18144.003
18132.725
19947.919
19931.068
5254.6136
5204.363
5129.6051
5207.762
19162.859
19691.419
19969.538
19952.347
18198.286
18140.746
18476.857
18513.341
20321.384
20330.59
5235.415
5177.4671
5155.8955
5227.5764
19517.743
19171.875
18933.402
18853.132
17233.347
17132.002
17539.562
16284.713
16148.714
17675.479
18486.291
18420.633
16785.754
16852.13
17305.453
17194.975
15971.895
15886.101
16788.662
18542.803
16919.722
18439.378
17358.434
16029.601
15855.077
17186.385
17151.241
18824.549
17135.598
18827.814
17578.313
16193.012
17568.759
16203.903
4688.8148
4619.6583
4583.2271
4666.7553
4550.5505
4646.409
4711.7234
4642.9795
15591.368
16674.269
15705.112
16538.89
16222.902
15317.197
15217.936
16104.546
16676.375
15759.18
16745.15
15791.299
16329.676
15431.013
16291.45
15427.85
14609.69
15590.919
14695.804
15480.146
15179.248
15094.587
14347.136
14284.078
15472.643
16369.581
15382.842
16437.19
14961.482
15879.619
15972.58
15070.892
14183.688
14825.135
14225.2
14762.734
14750.117
14713.065
14069.532
14042.094
15563.328
14908.261
15451.61
14791.027
14588.685
15334.972
15454.608
14704.372
15084.788
15828.257
15173.008
15722.787
14989.331
15739.733
15648.668
14911.784
15956.426
15334.584
15963.499
15319.183
15160.301
15909.003
15920.363
15185.107
3414.54
3522.4827
3556.5451
3654.4786
3559.4591
3521.1316
3612.3255
3683.0543
4096.4524
3997.5189
4063.8549
4177.8199
4187.6688
4082.7996
3964.7732
4090.5626
3452.6293
3536.7032
3588.3788
3669.055
3476.6241
3515.176
3612.118
3640.4468
4170.5685
4066.7541
4036.2077
4141.5967
4196.8053
4099.7897
3999.4995
4112.0659
3591.1875
3623.1007
3774.3813
3741.7482
3690.703
3689.9725
3835.5222
3833.9461
4395.0293
4271.0986
4271.8054
4382.547
4179.5034
4220.6793
4342.4681
4305.075
5569.2691
5473.884
5413.8456
5514.6957
4960.5819
4862.868
4835.1676
4920.1317
5514.4185
5429.9073
5368.396
5480.0828
4908.6314
4814.685
4764.7834
4865.5036
3366.7789
3373.3436
3510.9687
3509.7362
20952.983
20940.435
19135.56
19104.211
20128.646
20468.782
20486.083
18752.178
18745.654
18979.606
19003.759
20787.342
20787.376
19981.452
19668.016
17470.251
19098.476
17510.27
19077.936
17956.242
17905.679
16658.833
16601.125
17681.366
19341.165
17679.408
19330.729
14911.388
15540.012
14973.944
15461.932
14058.39
14582.853
14072.064
14556.805
14620.577
14614.976
13990.102
13988.862
14665.946
15119.928
14560.885
15232.419
914.98752
917.38878
678.76721
677.93873
956.76858
936.14391
694.32072
704.42634
546.74954
530.6575
1511.8766
1511.6822
1811.0233
1757.6764
1646.5768
1672.779
1990.6766
1921.3332
2040.9417
2110.2723
2285.9604
2217.8301
2221.3199
2300.7598
2446.8724
2379.2161
3184.3585
3095.6448
3085.171
3207.9979
2803.9839
2702.4949
2647.4298
2776.4558
2483.7387
2555.6805
2696.9653
2625.7747
3154.9379
3017.041
2931.9218
3070.5485
3150.1843
3023.2982
2965.0389
3112.6614
2689.5751
2540.0482
2479.5408
2639.8425
2513.0219
2549.7846
2700.9496
2657.996
3166.9972
3029.3588
2972.0978
3107.1691
1493.7322
1478.1516
1779.0554
1759.462
1465.8887
1471.6988
1763.895
1717.0852
2058.0826
2085.7519
2277.1408
2243.5814
2008.351
2067.5904
2264.739
2203.398
529.6692
674.10099
911.77086
900.26488
666.31852
1463.0123
1457.3391
1758.2807
1759.5547
1515.4752
1534.1369
1869.3909
1815.2337
2070.2262
2067.5427
2273.292
2270.2019
2129.1574
2190.2594
2388.6417
2334.4313
2677.3956
2630.9476
2806.5952
2838.1113
2555.0486
2565.0179
2724.715
2738.2766
3169.9045
3320.8432
3310.2271
3151.4811
3080.2365
3241.4994
3215.6899
3056.7825
2558.8332
2410.0814
2399.0877
2557.0076
2872.9516
2880.9759
3021.7327
3019.0117
1967.9284
2149.5444
378.49041
376.32362
12858.616
12956.425
13172.769
13098.278
12984.452
13094.11
13173.129
13091.248
12930.111
13006.678
13126.099
13042.546
12793.315
12922.586
12980.805
12896.85
12782.65
12834.262
12920.08
12880.506
12849.356
12906.244
12912.242
12853.936
469.76823
651.3301
652.39561
468.73695
651.20896
648.11374
431.35694
4050.1929
4025.2123
2215.1633
4709.6619
4734.8069
4022.9851
4077.2492
2218.9836
4782.9308
4697.4997
2035.4512
6296.5817
6316.911
10444.237
10517.265
15734.684
15935.947
6221.0747
6206.7299
10390.82
15855.24
10314.247
6196.8947
6212.5522
10278.697
10367.651
15572.267
15784.548
6261.6343
6246.6173
10441.886
10361.439
15875.695
15660.122
23426.241
19188.719
23551.91
19196.66
18959.666
18870.444
23104.975
23300.876
40491.143
27385.232
27578.676
40902.774
27325.049
27102.014
39945.341
40433.776
54728.747
64781.899
65290.161
55029.195
55089.039
64847.906
64576.138
54680.177
27000.294
27299.748
39572.113
40338.125
41037.069
27533.92
27377.334
40420.565
54405.12
63992.061
64677.916
54758.155
64758.362
65380.051
54978.518
54709.875
18841.021
18885.881
23250.499
23043.432
23510.769
19143.647
19079.827
23372.858
23168.727
18973.11
23370.055
19021.632
19259.832
19201.388
23606.643
23475.84
23445.981
19179.206
19193.461
23577.246
40190.471
27143.349
27424.103
40647.241
27484.191
27633.012
40359.312
41085.919
65585.424
55212.663
54765.386
64830.894
54571.385
64737.717
65207.619
54908.157
4107.22
4118.81
2258.4679
4839.3434
4809.5216
4087.3474
4133.6932
2246.3144
4843.8685
4775.1502
6326.3285
6343.1923
10531.202
10438.529
15929.264
6331.0067
6325.7952
10560.43
10469.248
15793.641
16014.49
6345.276
6391.4143
10576.209
10568.437
16036.996
15900.031
6295.8903
6279.9459
10466.396
10386.006
15660.25
15912.854
19315.642
19247.883
23538.414
23680.166
19373.741
19380.272
23749.951
23629.741
19141.489
19040.508
23269.131
23482.962
27569.713
27748.618
40787.284
41451.64
27459.604
27203.841
40869.443
40170.255
54786.879
64439.205
65386.981
55038.728
64170.808
64878.235
54784.942
54317.189
19265.059
19256.679
23624.512
23532.147
18972.099
18868
23086.927
23309.814
19167.086
19204.376
23530.488
23342.589
19398.664
19335.076
23608.267
23741.408
27245.414
27520.127
40053.21
41045.29
27716.44
27572.033
41437.355
40854.386
54464.097
63995.541
64936.124
54646.332
64809.625
65349.469
54911.719
54602.834
27491.028
27645.466
40277.407
40991.443
27323.174
27058.624
40610.819
39903.885
54707.114
64235.936
65064.917
54643.969
64193.341
64795.877
54425.394
54245.54
370.8105
289.0912
43135.97
42265.665
43022.222
43980.228
43195.74
42370.069
42956.224
43751.91
43398.55
42788.536
42631.947
43563.473
43124.585
42362.921
42191.775
43079.18
42657.955
42164.395
42655.282
43127.38
42802.134
42476.143
41782.811
42464.754
13866.745
14682.052
13882.634
14655.952
14106.807
13182.487
13172.849
14098.092
13936.17
14769.886
13963.32
14722.978
14197.118
13258.214
14164.846
13250.416
12631.439
13365.806
12635.325
13358.744
12126.751
12818.487
12833.11
12199.632
13440.966
12721.604
13449.589
12714.854
12256.409
12913.58
12918.757
12232.084
14567.456
13796.213
13725.099
14473.667
14567.799
14560.625
13800.965
13824.15
14045.589
13143.128
13087.734
13977.496
14083.063
14055.935
13155.18
13195.574
14642.886
13847.598
13694.317
14448.547
14459.723
13687.673
13680.822
14441.182
13038.226
14084.148
13158.826
13932.559
13048.192
13939.9
13040.5
13929.869
12593.984
13349.099
12634.212
13294.213
12168.828
12841.489
12815.89
12195.691
13409.751
12706.366
13367.019
12660.526
12221.475
12876.042
12922.959
12225
13352.552
12621.344
12529.214
13232.075
13251.719
12545.335
13259.942
12564.862
12114.782
12114.03
12814.542
12735.222
12792.034
12772.99
12171.133
12171.66
14921.095
15587.614
14937.396
15548.936
15623.661
14994.383
14990.684
15624.902
15380.024
14420.863
15374.411
14400.948
14501.089
14477.189
15465.862
15430.005
15077.213
15698.858
15128.593
15634.291
15671.516
15117.547
15157.514
15692.651
15726.343
15028.415
15674.186
14987.777
15045.186
15072.548
15728.535
15752.713
15451.023
15485.361
14949.591
14901.168
15518.184
14949.553
14860.402
15407.779
15447.839
15548.726
14853.944
14764.408
14817.808
15500.259
15542.044
14862.885
15503.248
14957.02
14781.388
15301.008
15285.035
14741.531
14819.151
15356.612
15571.525
14894.113
14713.896
15374.087
15345.646
14676.531
14737.949
15412.135
15468.521
14838.318
14664.43
15265.141
15244.724
14638.656
14672.709
15287.963
15296.726
14362.692
14185.12
15115.852
15111.276
14180.089
14183.197
15123.199
15405.674
14764.38
14685.769
15305.991
15399.962
15366.02
14743.1
14771.579
15211.276
14282.502
14200.142
15130.095
15198.816
15192.872
14271.921
14290.28
20506.1
20501.904
18615.601
18607.485
18274.551
18305.9
20096.852
20093.549
5210.8584
5261.226
5315.6733
5296.3447
19317.422
19751.941
20119.938
20100.071
18313.329
18268.743
18319.343
18387.527
20197.968
20216.93
5308.9224
5370.8913
5289.7758
5218.0412
19451.135
19381.177
18632.479
18528.052
16872.829
16994.357
17407.56
16060.856
15895.951
17237.429
16981.815
18634.423
16942.972
18657.107
17351.808
15967.479
17355.679
15996.684
18938.368
18887.256
17226.122
17167.36
17548.475
16237.666
16150.983
17643.856
18605.513
18577.685
16937.054
16950.77
17382.543
17322.464
16027.897
16000.097
4628.9358
4718.4955
4797.3629
4718.982
4757.2471
4675.1485
4604.8288
4706.2903
2395.278
18270.684
18359.482
20225.331
20250.95
5263.7381
5202.4631
5309.7531
5244.8969
19544.114
21054.424
21064.42
19102.211
19123.506
18868.899
18886.931
20773.326
20747.769
5421.0878
5490.5948
5426.5993
5319.4986
20338.399
19992.137
19397.149
17639.236
17614.87
19381.051
19181.007
17452.844
17428.008
19134.317
18028.809
16584.976
16533.556
17975.361
17778.922
17856.453
16438.384
16397.62
4669.3898
4799.5176
4790.6322
4886.7912
4731.7602
4684.17
4733.4218
4789.3879
16675.275
15691.549
15600.276
16566.315
16429.752
16480.013
15535.676
15523.566
15198.563
16198.914
15285.949
16095.429
16033.564
15183.814
16053.349
15167.759
15389.496
16498.611
15561.055
16304.645
16068.656
15191.677
15020.599
15877.012
15469.354
16397.52
15432.026
16407.769
15929.189
15032.413
15961.461
15092.597
14906.322
15706.485
15081.683
15511.742
14931.151
15657.034
15459.028
14755.096
15589.337
14969.866
15532.815
14896.822
14726.995
15458.357
15529.192
14808.456
15794.709
15139.627
15050.64
15691.739
14957.241
15708.781
15604.824
14865.636
15682.335
15693.647
15050.252
15085.306
14888.306
15652.364
14933.09
15621.474
16789.918
16862.467
15875.625
15844.058
16320.552
15445.115
15444.264
16367.172
15940.604
15931.103
15311.901
15291.676
15912.569
15146.478
15847.285
15092.3
15109.847
15855.505
15866.679
15144.24
1896.1945
2082.0572
2055.5937
1891.1555
3437.2268
3531.9597
3587.2508
3666.9043
3489.0542
3573.6821
3702.5715
3627.4325
4058.7578
4145.0166
4251.3203
4173.5313
4104.3945
4211.4526
4144.2197
4011.4389
3758.3362
3655.234
3655.4338
3776.5263
3466.9721
3582.5975
3732.4623
3624.344
4204.8549
4175.4209
4249.536
4290.7472
4308.305
4181.0389
4052.7571
4194.0356
594.13194
467.30772
1480.1901
1456.6315
1630.2037
1644.114
1093.741
1075.4665
1249.1631
1273.5844
15550.245
16259.441
15617.643
16188.567
16192.723
15439.154
15368.575
16116.558
16212.113
15556.97
16249.558
15575.591
16144.539
15362.568
16108.834
15342.859
16610.481
15641.764
15497.463
16429.743
16641.628
16663.158
15714.736
15731.8
15114.378
16149.437
15248.317
15990.453
16240.718
15388.902
16231.723
15344.171
16067.113
17071.66
16118.677
17018.11
16631.758
15740.334
15682.777
16571.844
16162.394
17202.455
16186.835
17149.307
16688.514
15743.375
16644.811
15727.081
15754.305
15110.291
14984.529
15605.112
15860.602
15231.134
15900.852
15295.242
14932.989
14818.04
15677.315
15539.659
15870.802
15811.349
15075.95
15152.219
20712.232
20742.888
18904.255
18935.586
19243.217
19266.961
21173.787
21158.646
5532.047
5441.0243
5418.8856
5505.6127
20387.04
19931.756
18776.845
18669.048
17112.284
16994.763
17375.462
16166.814
16015.966
17542.993
18839.177
18819.639
17177.671
17168.526
17586.958
17555.967
16217.208
16220.791
17565.157
19236.001
17574.073
19240.162
17992.853
16626.496
16590.906
17962.096
17796.227
19567.726
17802.407
19540.82
18216.103
16768.142
18167.736
16747.293
20242.569
20223.762
18429.881
18392.265
18511.444
18549.931
20333.684
20324.839
5288.6781
5210.8431
5280.4947
5374.4097
19461.268
19548.076
4689.2792
4635.493
4714.589
4786.0652
4798.7951
4799.8868
4907.8452
4897.3845
20546.103
20531.164
18569.883
18550.247
17796.959
17773.692
19652.535
19604.929
5297.0285
5271.2092
5099.7732
5151.5488
18890.939
19835.026
20016.688
20024.71
18223.253
18224.817
18738.734
18811.399
20621.286
20633.893
5321.6084
5260.978
5342.0308
5410.9077
19846.78
19260.537
18549.907
18502.972
16849.921
16913.573
17323.371
17218.935
15981.079
15881.543
17427.458
19076.352
17364.184
19109.142
16386.415
17793.524
17826.067
16448.498
4765.3436
4684.6736
4749.5363
4840.8037
4578.6284
4737.6633
4785.0276
4644.3687
17035.159
18882.874
17125.041
18805.951
16103.235
17537.206
17395.832
15970.578
16368.694
18117.273
16451.16
18021.307
15518.677
16869.674
16723.633
15402.358
15385.732
16534.792
15532.791
16366.404
16033.696
15109.05
14957.81
15861.672
15794.974
14889.884
15951.701
15004.843
15500.535
14621.399
15358.454
14522.632
14787.523
15609.948
14946.062
15430.688
14747.856
15505.944
15318.969
14581.992
14988.563
14390.402
15111.029
14480.69
14301.081
15023.06
14908.698
14216.084
15380.567
16415.292
15483.187
16292.236
15988.369
15876.932
15123.661
15034.414
15926.583
16837.349
15855.51
16880.729
15461.07
16376.168
16439.98
15550.628
14943.999
15636.601
15022.031
15537.504
14884.38
15595.282
15510.975
14814.485
16066.332
15429.638
15985.702
15335.913
15171.859
15923.144
16005.982
15259.14
3511.4551
3510.3448
3645.9907
3668.5069
3588.4915
3597.1922
3746.5134
3746.7322
4185.7676
4318.3121
4321.5174
4189.6833
4106.3194
4079.1003
4182.6121
4229.8491
3595.8264
3535.3517
3677.0704
3740.6643
4226.0335
4108.7629
4175.5827
4291.6553
4282.7705
4201.7941
4062.8147
4155.591
3758.3803
3623.1121
3527.8087
3657.5373
14596.781
13821.419
13754.231
14502.826
14796.121
14783.148
13991.678
14012.94
13121.698
14066.08
13169.26
14004.782
14252.92
13343.097
14237.506
13315.474
14125.114
15010.568
14198.103
14917.239
14423.16
13478.712
13425.431
14356.418
14027.888
14919.103
14105.119
14811.759
14344.773
13405.18
14264.456
13360.113
13375.865
12669.218
12637.532
13331.056
12239.199
12869.626
12882.475
12276.46
13523.606
13548.305
12804.199
12835.237
12400.771
13053.976
12386.651
13028.776
12887.591
13665.519
12922.36
13616.764
12364.475
13109.299
13082.509
12411.068
13562.535
12850.661
13607.283
12873.399
12444.454
13086.443
13063.458
12410.112
12694.078
13431.24
12718.578
13397.247
12930.623
12233.002
12272.636
12914.734
13560.072
12845.128
13587.099
12854.508
13086.102
12450.607
13070.607
12421.234
14298.196
13547.048
13402.056
14111.852
13804.323
13910.718
13203.104
13134.505
12801.36
13803.515
12919.683
13654.498
13394.531
12587.354
13464.997
12623.53
13820.735
14649.5
13877.481
14566.908
14126.758
13223.498
13186.805
14076.815
14012.208
14862.805
14055.397
14792.338
14309.662
13373.212
14259.177
13351.713
13135.162
12434.751
12339.81
13011.698
12845.675
12177.967
12807.756
12161.562
14758.085
15439.425
14816.833
15373.368
15273.399
14360.689
14289.302
15207.761
15063.185
15712.94
15074.393
15721.628
15555.293
14582.193
15503.984
14538.932
15450.01
14918.39
14857.726
15371.846
15749.833
15188.593
15257.273
15819.839
15530.891
14866.159
14813.312
15466.128
15817.118
15121.359
15168.618
15865.992
15291.068
14718.418
14549.29
15097.58
14715.527
14825.261
14284.426
14196.352
15306.211
14610.501
14438.575
15112.562
14735.727
14851.726
14186.27
14091.437
15146.758
14498.313
14324.891
14945.253
14572.341
14698.478
14082.309
13974.287
14013.553
13842.754
14921.207
14729.123
14352.234
14489.321
13626.294
13534.505
15191.864
15911.489
15251.506
15847.54
15691.763
14738.389
14659.331
15630.407
15751.092
15103.481
15825.582
15170.054
15630.789
14649.355
15538.757
14567.907
15488.461
14933.004
14828.824
15361.859
15645.598
15100.543
15175.85
15713.378
14766.407
15539.754
14862.116
15427.178
15112.104
15721.459
15041.013
15786.765
15375.506
16003.168
15438.611
15926.622
16046.34
15344.747
15290.054
15984.4
15311.25
15923.296
15344.026
15882.656
15958.594
15250.208
15903.711
15206.597
15422.221
14790.86
14708.614
15316.101
15614.788
14990.117
15669.383
15041.071
14321.372
14234.14
15245.092
15163.419
15494.396
15463.509
14507.678
14542.904
713.05158
967.43607
947.29989
702.92186
926.78061
928.72757
687.1912
686.42538
551.78942
535.21504
2493.2721
2361.6477
2417.3693
2271.4919
2053.8457
1736.593
1683.5793
1974.511
1822.3421
1540.5047
1517.6027
1778.6226
2062.314
2121.544
2299.5393
2241.1156
3296.1002
3190.8897
3284.3696
3159.3927
2877.2827
2766.006
2834.0852
2702.5079
2503.1143
2576.078
2728.2483
2649.9412
2959.8017
3057.2232
3206.6872
3109.2546
3190.74
3047.6024
2974.7275
3122.9902
2698.0429
2537.0564
2479.0708
2643.9843
2485.4449
2539.3616
2693.3551
2630.6706
3161.9769
3023.6273
2940.9132
3085.1662
2251.2258
2072.5563
2021.7833
2209.4202
1785.0906
1525.2118
1496.429
1742.6529
1506.7284
1500.161
1797.8461
1760.7024
2273.2162
2097.5192
2046.5764
2226.6945
935.68875
946.21746
692.6873
688.26146
936.33007
926.37524
684.6069
690.25099
535.1159
539.73815
1492.3865
1515.8567
1766.0098
1777.7014
1535.4925
1570.4183
1890.3457
1811.8001
2102.6573
2194.3056
2367.5686
2287.8458
2066.134
2251.27
2241.663
2059.1465
2564.9847
2634.6457
2771.5394
2722.47
3053.8144
3089.1851
3232.4299
3213.1124
3135.3197
2998.6399
2986.1339
3142.72
2676.653
2525.8301
2513.8943
2667.9315
2653.6469
2670.2132
2803.8096
2773.5824
2593.7804
2572.3184
2712.6593
2751.0635
3170.0046
3031.3864
3086.1863
3230.2715
3074.0952
3126.6663
3256.9837
3191.2995
1640.8649
1606.8596
1924.9351
1934.4054
1547.7628
1542.6173
1836.4863
1844.0377
2136.4472
2314.6028
2326.2911
2152.4902
2243.5732
2240.8824
2408.0489
2401.4387
380.83586
379.79988
26724.814
26835.15
27027.508
27088.544
27353.149
27062.205
27025.981
26776.817
18203.286
17211.41
16828.502
17903.882
27793.489
28673.039
34680.456
33821.365
28411.574
28015.355
33752.445
34221.702
24737.532
24913.392
25066.454
25238.452
26870.772
26862.623
26544.609
26597.163
17097.961
16152.413
16992.241
18047.555
27976.701
27752.618
33455.421
33763.936
30382.316
24927.597
25330.974
30860.002
25566.811
25775.512
26450.04
26201.286
26886.758
27185.899
27561.381
27909.549
28192.541
27447.109
28123.789
27448.685
29549.22
28843.516
28994.915
29771.608
14697.602
15200.581
16216.304
15759.092
15203.257
14500.934
15328.185
16161.069
28405.592
27581.292
28271.921
27670.108
29789.412
29032.479
29209.302
29996.071
28387.194
27967.675
28705.532
27635.862
30295.476
29504.689
29208.689
30020.205
30784.279
31545.459
31734.18
30950.576
30224.058
30512.323
31298.472
31027.741
33253.322
32332.603
33078.687
32516.959
31844.366
32612.615
32102.584
32861.758
30917.19
30077.159
30845.71
30147.896
31640.743
32393.919
32435.81
31693.416
31778.007
30794.491
31561.4
30970.361
32346.581
33090.826
32578.556
33336.526
33893.829
33148.07
33879.526
33173.156
35339.522
34633.829
34640.428
35352.955
34094.898
34830.137
33840.944
34572.152
36048.879
35329.089
35588.071
36300.385
26907.229
26960.881
27206.321
27212.218
26810.922
26529.664
26500.09
26277.252
18292.413
17283.277
16740.817
17752.451
27338.655
28088.862
33905.469
33200.979
28665.775
28186.342
34006.646
34455.363
26293.407
26257.904
26611.963
26545.818
27178.399
27115.025
26856.209
26834.946
17804.904
16828.488
17044.505
18075.516
28224.881
28295.786
34142.014
34128.654
27313.58
27115.398
32907.947
33057.172
27775.222
27813.807
28474.61
28548.073
29353.951
30003.612
30143.413
29240.615
27403.557
27064.81
27778.65
28131.809
28925.676
28584.797
29707.389
29389.79
27807.464
27138.895
27810.286
27099.11
28554.784
29297.595
29359.842
28582.193
28490.3
27779.423
28492.002
27722.091
29260.188
30013.877
29321.078
30134.356
15871.357
14899.926
14999.426
16024.974
14730.833
15264.844
16281.029
15736.516
31577.397
30550.244
31304.056
30792.699
32077.673
32807.244
33103.977
32365.664
30848.359
31663.755
31091.008
31879.116
32686.464
33449.061
32489.885
33262.657
29385.935
28251.897
28946.28
28643.754
29666.439
30138.923
30359.029