/*--------------------------------*- C++ -*----------------------------------*\
  =========                 |
  \\      /  F ield         | OpenFOAM: The Open Source CFD Toolbox
   \\    /   O peration     | Website:  https://openfoam.org
    \\  /    A nd           | Version:  7
     \\/     M anipulation  |
\*---------------------------------------------------------------------------*/
FoamFile
{
    version     2.0;
    format      ascii;
    class       surfaceScalarField;
    location    "5000";
    object      phi;
}
// * * * * * * * * * * * * * * * * * * * * * * * * * * * * * * * * * * * * * //

dimensions      [0 3 -1 0 0 0 0];

internalField   nonuniform List<scalar> 
101838
(
-5.782104e+26
-3.5915483e+27
-3.7135521e+27
-3.5557323e+27
-3.6555319e+27
-3.4018076e+27
-2.8803291e+27
-3.2991842e+27
-2.8644856e+27
-3.8910802e+26
2.4421027e+26
6.9763287e+25
-7.1598985e+26
-7.213978e+26
-8.7735994e+26
-8.595479e+26
2.7509302e+26
-3.0987801e+27
-5.0865572e+26
2.0379429e+26
-7.2583322e+26
-7.6075729e+26
-8.7858551e+26
-9.4081034e+26
-3.1952011e+27
2.0723661e+26
-1.9002115e+26
1.8071745e+26
-2.2016788e+26
1.950568e+26
-3.8312781e+27
2.6381685e+26
2.5176301e+26
2.1288177e+26
-3.9485868e+27
-1.3067778e+26
-1.0159593e+26
2.7567237e+26
2.5910119e+26
-4.0217009e+27
-8.076301e+25
-1.180275e+26
3.013844e+26
2.1734956e+26
-5.5434113e+26
-7.2913878e+26
-7.986892e+26
-7.9604058e+26
-7.2452825e+26
2.5927574e+26
-6.6925388e+26
-6.7507841e+26
-5.2965829e+26
-5.1687394e+26
2.7297334e+26
-5.7077354e+26
-8.2965039e+26
-7.80945e+26
-7.1547772e+26
-7.541151e+26
-6.6878387e+26
-7.0530236e+26
-5.37032e+26
-5.5971594e+26
4.5828664e+25
-8.6830463e+25
3.8698853e+25
-1.8426391e+26
-1.4737498e+26
-1.9290681e+26
-9.9133861e+25
4.7475868e+25
5.6743991e+25
-1.453513e+26
-1.861167e+26
-1.5181364e+26
-1.9737336e+26
-5.6068894e+25
6.8363503e+25
-7.3702531e+26
-7.1869358e+26
-2.7098624e+25
-1.1809541e+26
7.1785675e+25
-1.9024146e+26
-1.5475119e+26
-2.0241904e+26
-1.035803e+26
5.4559838e+25
-1.5133934e+26
-1.4974126e+26
-1.9757969e+26
-1.9269915e+26
-3.9531064e+25
-7.4430646e+26
-7.5645698e+26
-3.070687e+27
-2.2112359e+26
2.382634e+26
2.1869307e+26
-1.6707355e+26
-2.0028571e+26
-1.6223465e+26
-2.2658629e+26
-1.9558165e+26
1.7908251e+26
1.9631634e+26
-3.893406e+27
3.0466337e+27
1.9017911e+26
-2.1078987e+26
-2.2529572e+26
1.630432e+26
-3.8816756e+27
2.281978e+26
1.9412805e+26
-2.021628e+26
-1.7654494e+26
-2.1824333e+25
6.747803e+26
3.0795967e+25
-4.9951444e+25
-4.5134868e+25
3.7697154e+25
-8.5205472e+26
3.5670898e+25
-6.9382787e+26
2.718751e+25
-4.9632882e+25
-4.7448091e+25
3.9132538e+25
-4.9677267e+25
-4.8444587e+25
3.4637782e+25
3.7962741e+25
-8.8690598e+26
4.0297838e+25
-4.9952464e+25
-4.4491115e+25
3.7424788e+25
3.5075633e+25
-1.5183692e+26
-2.8756954e+27
2.0500937e+26
1.7241078e+26
1.696989e+26
-2.0962561e+26
-2.2838923e+26
-2.8836494e+27
-2.2098811e+26
1.6688593e+26
-1.5317236e+26
2.0646398e+26
-3.6865265e+27
-1.307723e+26
1.902667e+26
1.8279228e+26
-1.5289363e+26
-3.6910906e+27
-1.328372e+26
1.7596821e+26
4.7024473e+25
4.6067452e+25
5.4803703e+25
-8.8699131e+26
-2.0466592e+25
5.6932718e+25
5.4335322e+25
5.1610199e+25
-9.0881895e+26
-1.9493553e+25
-2.6162418e+25
-4.5963459e+25
5.8734767e+25
5.6477102e+25
-9.0836135e+26
-2.3918851e+25
5.7601251e+25
5.0762263e+25
-9.2646234e+26
-2.0428431e+25
-2.4987943e+25
-2.2947364e+26
-3.4504398e+27
-3.399151e+27
-1.1587526e+26
-4.453534e+25
1.3183078e+26
4.8264681e+25
-7.4882362e+26
-4.0732402e+25
4.8290864e+25
-2.7348103e+26
-6.4864181e+26
1.0996211e+26
-2.4858236e+26
-6.4942156e+26
1.2831555e+26
-7.3716461e+26
4.0693346e+25
6.0610747e+25
-1.6218105e+26
-1.64286e+26
-1.3573896e+26
-1.3486634e+26
5.4409008e+25
4.7243916e+25
-1.692526e+26
-1.6120834e+26
-1.3349947e+26
-1.4024674e+26
-4.9159842e+25
5.7314059e+25
-1.1969707e+26
-9.8576721e+25
-9.4962471e+25
-1.1342306e+26
-1.1432461e+26
-1.1342959e+26
-9.3563763e+25
2.8676438e+25
1.1361957e+26
-2.5939623e+26
-6.6425939e+26
1.1640144e+26
-2.7192397e+26
-6.47221e+26
-2.8913751e+25
1.3083747e+26
-7.4893987e+26
1.2978247e+26
-7.5092706e+26
-2.3501029e+25
4.9928601e+25
-1.7047062e+26
-1.6176317e+26
-1.3388472e+26
-1.4116753e+26
5.5011457e+25
-1.381089e+26
-1.6663824e+26
-1.6479963e+26
-1.3724164e+26
-3.3700403e+25
-1.1422705e+26
-1.2097222e+26
-1.0118935e+26
-1.1634051e+26
-1.1721804e+26
-9.7434924e+25
-9.5537488e+25
9.4951144e+24
-1.9859419e+25
7.1793044e+24
1.5589713e+25
-3.0276822e+25
-3.1273279e+25
-4.2147848e+25
-4.0030591e+25
1.1861647e+25
-1.6032905e+26
-2.1306157e+25
-3.7467627e+24
6.412739e+24
1.6609982e+25
-3.0277039e+25
-3.148973e+25
-3.951211e+25
-4.204219e+25
-6.7957869e+24
1.1065771e+25
-1.5735752e+26
-1.876902e+25
1.348397e+25
-4.1403278e+25
-3.1035389e+25
-3.0449438e+25
-4.0207925e+25
-1.5946631e+26
-5.606751e+24
-2.1426264e+25
-5.7050802e+24
1.5463111e+25
-3.1580034e+25
-3.0962094e+25
-4.217451e+25
-4.0964846e+25
-1.0096382e+25
-1.6287855e+26
-6.5660016e+24
-2.1225135e+25
1.6581258e+25
-3.0869422e+25
-3.1730454e+25
-4.0558041e+25
-4.2676599e+25
-1.95158e+25
1.3345933e+25
-3.1229547e+25
-3.0526403e+25
-4.1804927e+25
-4.0163761e+25
-8.7710987e+24
-1.6252885e+26
-1.5915801e+26
-4.1673739e+25
-7.1899594e+26
-3.6709672e+25
5.2448793e+25
-7.2917497e+26
-5.4068842e+25
-3.77213e+25
-3.3905934e+25
4.975384e+25
5.5674224e+25
-3.4614576e+25
-8.9759955e+26
4.2777009e+25
-4.6531144e+25
-9.1601705e+26
-4.4485206e+25
-4.6392279e+25
-4.3442025e+25
4.5751198e+25
4.0510125e+25
2.3641274e+25
7.0537519e+26
-2.6158294e+25
-5.1037939e+25
-4.9201773e+25
3.8233352e+25
3.4315703e+25
-9.0175388e+26
6.8804564e+26
-4.6082133e+25
-5.1074484e+25
3.5498236e+25
-8.6734337e+26
3.0131059e+25
-3.5230747e+25
-5.0843619e+25
-4.8189741e+25
3.8631027e+25
3.3942738e+25
-5.1147085e+25
3.5282756e+25
-1.6052062e+26
-2.9146361e+27
1.6986062e+26
1.7348701e+26
-2.3702131e+26
-2.1558103e+26
-6.9635284e+26
-3.2076003e+25
9.0892299e+26
3.7653263e+25
-5.1531521e+25
-4.7159414e+25
3.5491902e+25
-2.4920886e+25
-4.7498201e+25
3.4966041e+25
3.6808202e+25
-5.213136e+25
-8.8052481e+26
6.8989938e+26
-5.103616e+25
-4.9220858e+25
3.735349e+25
-8.7934724e+26
3.2930738e+25
8.9008782e+26
-5.0608895e+25
3.256628e+25
-4.8258194e+25
3.7377392e+25
-2.9073204e+27
1.7163424e+26
1.5893961e+26
-2.2766464e+26
-2.3687942e+26
-4.3145711e+25
-7.2160908e+26
-3.8911172e+25
-3.2714171e+25
4.8937075e+25
5.2753073e+25
-7.0717146e+26
5.4122868e+25
-3.7987205e+25
-3.3788004e+25
4.6571347e+25
3.2648576e+25
4.4168536e+25
-4.3398397e+25
-4.5901156e+25
3.875744e+25
4.5193907e+25
-4.6970221e+25
-4.080014e+25
4.1508804e+25
-1.5945496e+26
-3.7205434e+27
-1.3751442e+26
1.9138401e+26
1.831411e+26
-1.6040854e+26
-3.7107324e+27
-1.4367408e+26
1.8508907e+26
1.7043131e+26
-1.5586534e+26
4.5504211e+24
1.5361029e+26
-5.1878319e+24
7.5687835e+24
6.7019048e+24
-1.9406896e+26
-1.1794033e+25
-1.1332006e+25
1.5107838e+26
6.2928373e+24
7.467893e+24
7.0689902e+24
-1.8979518e+26
-1.1832936e+25
-1.0864406e+25
-4.9428002e+24
1.9160706e+26
7.0545689e+24
-9.7370051e+24
7.9136856e+24
-1.0685632e+25
7.565665e+24
-1.8794161e+25
-6.5678649e+26
2.8031276e+25
3.4311531e+25
3.5415518e+25
-5.3434518e+25
-4.8386985e+25
-5.561896e+24
1.9575954e+26
-1.0349192e+25
7.9879091e+24
-1.0696959e+25
7.1990078e+24
4.0875113e+24
-1.9398933e+26
-1.0082601e+25
-1.03237e+25
8.0177841e+24
7.2281359e+24
1.5227211e+26
-1.9650473e+26
5.6827559e+24
-9.7389952e+24
7.9383266e+24
-1.0589435e+25
7.5794093e+24
6.8353703e+24
-9.5405982e+24
7.9392826e+24
-1.0434201e+25
7.5646665e+24
3.4759565e+24
1.5268014e+26
-4.3423629e+24
7.5651198e+24
6.7246311e+24
-1.9271723e+26
-1.1720791e+25
-1.1342711e+25
1.5418625e+26
7.3584414e+24
6.9808065e+24
-1.9548336e+26
-1.2071095e+25
-1.1127491e+25
4.0355962e+24
-4.8309536e+24
-1.0390285e+25
7.9499836e+24
-1.0619948e+25
7.1842104e+24
-1.0151894e+25
7.7232082e+24
-1.0923795e+25
7.4704517e+24
-6.7967149e+26
-2.1885346e+25
3.3599467e+25
3.6748282e+25
-5.1753618e+25
-5.3038406e+25
5.3410881e+24
1.5126863e+26
-1.000045e+25
8.0135786e+24
-1.0341579e+25
7.2085788e+24
1.4896337e+26
7.5556307e+24
-9.374697e+24
8.0631183e+24
-1.0365691e+25
7.615316e+24
-5.733269e+24
1.8789985e+26
8.2208319e+24
-9.2372151e+24
7.9660061e+24
-1.0266957e+25
7.5389174e+24
-9.8257197e+24
8.0195047e+24
-1.0283146e+25
7.1614037e+24
-1.1900882e+25
-8.45074e+26
2.3420698e+25
-5.4753573e+25
-4.9997504e+25
3.7909072e+25
3.3984282e+25
-1.5160975e+25
-8.7094672e+26
-5.4494194e+25
-5.1337212e+25
3.8167489e+25
3.3810159e+25
6.5104018e+26
-8.2829223e+26
-5.6805838e+25
-5.3984182e+25
3.2471461e+25
3.2272797e+25
3.1548977e+25
-5.1654232e+25
3.0657568e+25
-5.5357759e+25
1.4976709e+26
-1.8941758e+26
6.9101148e+24
6.6710849e+24
-1.2235783e+25
-1.1206466e+25
-1.0159168e+25
7.3573222e+24
-1.090093e+25
8.4010483e+24
-8.5826715e+24
8.5894149e+24
-9.636785e+24
-2.1489273e+26
-2.9192939e+27
2.6428807e+26
2.2196652e+26
2.418104e+26
-1.0046179e+26
-1.3622379e+26
6.3164612e+26
-2.4063061e+25
3.1592259e+25
-7.8026877e+26
-3.8425777e+25
-3.5615158e+25
4.2219679e+25
4.2142585e+25
-1.4635496e+25
2.7173349e+25
3.5084057e+25
-5.1578082e+25
-5.4051034e+25
3.4846108e+25
-6.4803202e+26
-1.9052152e+25
3.7931228e+25
-5.4528366e+25
-5.4012241e+25
3.4903768e+25
-3.1854115e+25
-7.9938673e+26
-3.8901819e+25
-3.8128168e+25
4.0922376e+25
4.235996e+25
-2.9306802e+27
-1.1776353e+26
2.3845015e+26
-1.2648147e+26
6.1498906e+26
-7.6882227e+26
-3.8836401e+25
-3.6099394e+25
3.8942083e+25
3.8392159e+25
-5.4002905e+25
-5.5805563e+25
3.2263264e+25
3.2859034e+25
-2.4867737e+26
-3.2848887e+27
3.5314033e+26
-4.8262198e+26
-3.1841997e+27
-4.9778794e+26
9.8389538e+24
1.1832806e+25
1.221333e+25
-1.9786482e+26
-3.8590236e+24
-4.9671414e+24
-7.8847265e+24
9.6799136e+24
1.2150163e+25
1.20501e+25
-1.9445058e+26
-3.6451884e+24
-4.7507378e+24
1.2117974e+25
1.0825801e+25
-1.9724852e+26
-4.308897e+24
-5.0608596e+24
-9.1419115e+24
1.2776938e+25
1.1654854e+25
-2.01164e+26
-4.0404215e+24
-4.7023325e+24
-7.5490762e+24
1.2392948e+25
1.2088812e+25
-2.0022999e+26
-3.8427213e+24
-4.9591664e+24
1.2446787e+25
1.1077655e+25
-1.9657204e+26
-4.1693853e+24
-4.7981363e+24
-2.2975177e+26
-9.0018102e+25
-6.0298708e+25
-3.5371649e+27
-6.2692757e+25
-8.6130963e+25
-3.5069308e+27
-1.0706291e+26
-3.8546099e+25
6.0640059e+25
6.1996232e+25
3.796225e+25
-7.5564622e+26
-5.9104426e+24
-2.2564395e+24
-2.9848611e+25
3.6917575e+25
-8.2546643e+26
1.0007988e+26
-8.3122104e+26
5.8050548e+25
6.2653336e+25
-7.5223402e+26
-2.0470489e+24
-6.0169747e+24
7.4341049e+24
3.0451229e+25
-1.33876e+26
3.1228033e+25
8.6146765e+24
-1.3404125e+26
-6.7422495e+24
7.2370145e+24
3.1583336e+25
-1.3658895e+26
3.1542974e+25
-1.3605893e+26
4.381331e+24
3.1026921e+25
-1.3540612e+26
3.1628953e+25
8.3170702e+24
-1.347768e+26
-4.0107632e+24
3.1825509e+25
7.0931228e+24
-1.3677838e+26
3.1854071e+25
-1.3784763e+26
7.9372909e+24
5.1797136e+24
-9.1504506e+24
-2.6008267e+25
-2.5624674e+25
-2.0158191e+25
-2.0018365e+25
5.3455424e+24
-9.2053595e+24
-1.8641366e+25
-1.8490619e+25
-1.8319978e+25
-1.7843624e+25
-6.4552376e+24
8.2647578e+24
-1.8159943e+25
-1.9260342e+25
-1.8331176e+25
-1.9064989e+25
8.6095811e+24
-1.9349601e+25
-2.6389572e+25
-2.512195e+25
-2.0621526e+25
-7.6238796e+24
6.5488894e+24
-2.495365e+25
-2.6122896e+25
-1.9290399e+25
-2.0449721e+25
-2.5755279e+25
-2.5302034e+25
-1.9851767e+25
-1.7850618e+25
-1.8915374e+25
-1.8599574e+25
-1.7998049e+25
3.2638829e+25
1.0302919e+26
-8.5302802e+26
1.0815016e+26
-8.2417055e+26
-3.6961219e+25
6.116923e+25
6.2383573e+25
-7.5698686e+26
-1.8113038e+24
-6.1590278e+24
6.2776565e+25
5.8394536e+25
-7.5861472e+26
-6.7897093e+24
-2.6635194e+24
3.8255743e+24
3.1436524e+25
-7.1654719e+24
-1.3739797e+26
3.1789349e+25
-1.3532993e+26
-3.0534539e+24
3.1643932e+25
-1.3730235e+26
-5.9055532e+24
3.1827045e+25
-1.3870592e+26
-3.1282173e+25
-6.2785857e+24
3.1426443e+25
-1.3788013e+26
-6.8267015e+24
-1.3548262e+26
3.0673914e+25
-1.3558864e+26
3.1583929e+25
-1.3733712e+26
-3.8795622e+24
-2.6595175e+25
-2.541373e+25
-2.0632918e+25
7.2707655e+24
-7.5254175e+24
-2.03009e+25
-2.0207741e+25
-2.5953727e+25
-2.6307697e+25
-7.5139994e+24
-1.8953311e+25
-1.885274e+25
-1.8781227e+25
-1.8324512e+25
7.2490955e+24
8.265079e+24
-2.0088103e+25
-1.9912689e+25
-2.5581655e+25
-2.6078716e+25
6.0437125e+24
-1.9526848e+25
-2.0704727e+25
-2.6543596e+25
-2.5336452e+25
-7.3812764e+24
-1.8196541e+25
-1.9298477e+25
-1.8427949e+25
-1.9019703e+25
-1.8623494e+25
-1.852064e+25
-1.8155472e+25
-1.7743389e+25
-3.9627369e+23
-5.2185389e+24
7.936113e+23
5.935376e+24
-6.3750546e+24
-6.0907848e+24
-9.1649174e+24
-9.7602312e+24
-4.671577e+24
5.2422318e+24
-6.1309648e+24
-6.2479967e+24
-9.5808095e+24
-9.2776686e+24
9.9177546e+23
-3.4232274e+25
1.7885956e+24
-3.3832619e+25
-8.0628523e+22
-5.3662617e+24
5.3185833e+23
6.0214857e+24
-6.3787701e+24
-6.1093374e+24
-9.1912759e+24
-9.7041042e+24
-4.9950963e+24
-6.7588309e+23
5.5549536e+24
-6.1571196e+24
-6.2865923e+24
-9.6691844e+24
-9.3414344e+24
-7.902126e+23
1.5675731e+24
-3.3505566e+25
-1.5983107e+24
-3.417909e+25
4.8514463e+24
-1.4999401e+24
-3.423512e+25
-9.6783102e+23
5.6177165e+24
-6.3843012e+24
-6.1031204e+24
-9.290488e+24
-9.7318013e+24
-4.4561565e+24
4.8124268e+24
-6.0679915e+24
-6.2041848e+24
-9.5593021e+24
-9.1484472e+24
-3.3549625e+25
-8.2102649e+23
-5.2041617e+24
5.9299369e+24
-6.4838409e+24
-6.2296475e+24
-9.4247972e+24
-9.8577554e+24
-4.9663282e+24
-5.8706992e+23
5.2731792e+24
-6.1656508e+24
-6.3259207e+24
-9.7162904e+24
-9.2950376e+24
-1.3193913e+24
-3.4703928e+25
-1.5281154e+24
-3.4067597e+25
-3.224856e+23
-5.3832515e+24
6.1088262e+24
-6.4674218e+24
-6.1796514e+24
-9.3233768e+24
-9.8891308e+24
-4.8934418e+24
-9.4924002e+23
5.4106098e+24
-6.2008785e+24
-6.3066159e+24
-9.7114704e+24
-9.4019013e+24
-8.9561885e+23
-3.4180841e+25
-1.7379663e+24
-3.463888e+25
-1.0259703e+24
-4.9353204e+24
5.5199151e+24
-6.43028e+24
-6.1525679e+24
-9.3601447e+24
-9.7944172e+24
-4.6403776e+24
4.8436941e+24
-6.1161835e+24
-6.260107e+24
-9.6330008e+24
-9.2145398e+24
-1.5195753e+24
-3.451185e+25
-3.3678486e+25
2.8365357e+27
2.7152168e+27
-9.6607173e+26
1.0997806e+27
1.5756365e+26
-8.2353675e+24
-1.9779127e+26
-7.7523643e+24
1.0994236e+25
-8.2059845e+24
1.0057283e+25
-9.120727e+24
-6.2049264e+24
1.2240416e+25
-6.7957194e+24
1.1222255e+25
6.0943765e+24
1.5506771e+26
-1.9503638e+26
-8.3930656e+24
-7.847873e+24
-8.2324798e+24
1.0809788e+25
9.8166232e+24
1.5683676e+26
-1.9784219e+26
-7.5073293e+24
-8.4824291e+24
1.0713261e+25
1.0235006e+25
7.2287167e+24
-9.1616862e+24
-6.2151034e+24
1.2125749e+25
-6.7371321e+24
1.1008961e+25
-5.9563365e+24
-6.9572106e+24
1.1888058e+25
1.1414472e+25
-1.5291668e+26
-8.2791751e+24
-8.8639609e+24
-9.3960757e+24
9.4573794e+24
8.4862336e+24
-7.4110455e+24
-1.9520663e+26
-9.3309936e+24
-9.8186938e+24
8.678224e+24
7.6961365e+24
5.8300805e+24
1.5165761e+26
-1.927626e+26
-8.205553e+24
-9.7819358e+24
-9.3854962e+24
8.6161964e+24
7.6394699e+24
1.5351153e+26
-1.9607517e+26
-9.0515319e+24
-1.0015636e+25
8.5449564e+24
8.0628828e+24
-6.4666481e+24
-8.6078573e+24
-9.5687587e+24
9.0946365e+24
8.689995e+24
-8.7537734e+24
-8.8883315e+24
-9.3297113e+24
9.3191386e+24
8.3173817e+24
4.2321491e+24
1.5430415e+26
-5.5768781e+24
7.4869293e+24
6.6289948e+24
-1.9456497e+26
-1.1932092e+25
-1.1616225e+25
1.5594285e+26
5.7047309e+24
7.360658e+24
7.0834005e+24
-1.9774132e+26
-1.2027062e+25
-1.1292888e+25
-4.8496582e+24
6.235658e+24
1.9875142e+26
-1.0204835e+25
7.8242139e+24
-1.1084703e+25
7.5041432e+24
1.959768e+26
-6.1910694e+24
-1.0436315e+25
8.0543052e+24
-1.0799015e+25
7.1654871e+24
2.0183852e+25
-6.916624e+26
-2.4038489e+25
3.3500461e+25
3.6834976e+25
-5.2585913e+25
-5.4125768e+25
-4.7429876e+24
7.1150995e+24
-1.9279241e+26
-1.1039569e+25
-1.2015857e+25
1.5515819e+26
7.4674955e+24
6.7454792e+24
-1.9609755e+26
-1.1607545e+25
-1.1778817e+25
1.9778574e+26
-1.0432526e+25
-1.0895437e+25
8.0067334e+24
7.162977e+24
-6.6837794e+26
3.5597939e+25
3.4023065e+25
-5.4663587e+25
-4.9569909e+25
4.8447418e+24
1.5221002e+26
-6.5632234e+24
-1.0138943e+25
-1.0457227e+25
8.0660747e+24
7.1717889e+24
1.5391223e+26
6.5207156e+24
-9.8220039e+24
7.9626535e+24
-1.0711281e+25
7.5441151e+24
-6.0532437e+24
7.3420583e+24
-9.673205e+24
7.9519108e+24
-1.0621496e+25
7.5221087e+24
-7.5841979e+24
-9.9572022e+24
8.1168157e+24
-1.0387583e+25
7.1491004e+24
1.5311325e+26
-1.0514788e+25
7.1642133e+24
-1.0429126e+25
8.1092833e+24
7.2008669e+24
1.3996603e+25
-1.9282417e+25
-8.8537592e+26
-5.6121898e+25
-5.3006264e+25
3.784027e+25
3.3265782e+25
-8.5946929e+26
2.577525e+25
-5.1065071e+25
-5.6449443e+25
3.7839672e+25
3.3406606e+25
-1.5111267e+26
-5.8156575e+24
1.9160431e+26
-9.5262726e+24
7.9431168e+24
-1.0562435e+25
7.5386883e+24
5.3559484e+24
1.5405074e+26
-1.9863425e+26
-6.8950183e+24
-1.016691e+25
-1.0562233e+25
8.1078102e+24
7.2124083e+24
-1.941862e+26
-9.7362759e+24
7.7916832e+24
-1.0735463e+25
7.3869051e+24
-7.1110721e+24
1.9593344e+26
-9.9893982e+24
-1.0436134e+25
8.1091088e+24
7.2210573e+24
1.5262743e+26
-4.634904e+24
7.2115356e+24
6.8172404e+24
-1.9191316e+26
-1.2141464e+25
-1.1041736e+25
4.7862228e+24
-1.5561156e+26
-6.7953369e+24
-1.0460871e+25
8.1187886e+24
-1.0926843e+25
7.221413e+24
-1.0131273e+25
7.6190814e+24
-1.0995178e+25
7.3519584e+24
-6.0105371e+24
7.4505441e+24
6.582992e+24
-1.9669708e+26
-1.1663977e+25
-1.203976e+25
-2.2241122e+25
-6.7266713e+26
3.4794915e+25
3.3413068e+25
-5.4988823e+25
-5.1239979e+25
4.7810735e+24
1.5297403e+26
7.6219953e+24
6.6147938e+24
-1.9352806e+26
-1.1875751e+25
-1.1331413e+25
1.5452218e+26
7.3209275e+24
6.7790239e+24
-1.9567342e+26
-1.2219398e+25
-1.1179635e+25
-5.3770695e+24
1.9668374e+26
-1.0182749e+25
7.7050258e+24
-1.1061862e+25
7.31325e+24
-6.8036826e+26
3.3433938e+25
3.6349075e+25
-5.2483647e+25
-5.1548569e+25
1.9340976e+26
-1.0306613e+25
8.0404995e+24
-1.069222e+25
7.1308416e+24
1.5036776e+26
5.1505306e+24
-9.9916984e+24
8.0561907e+24
-1.0362428e+25
7.1361411e+24
6.1813859e+24
1.8995588e+26
-9.8359518e+24
8.0722085e+24
-1.0305846e+25
7.0872015e+24
1.5196925e+26
-9.7862129e+24
7.8334649e+24
-1.0697804e+25
7.3623691e+24
1.935163e+26
-9.649839e+24
7.8110327e+24
-1.0597801e+25
7.3372706e+24
-1.3171839e+25
-8.6628906e+26
-5.6009338e+25
-5.3649587e+25
3.3684424e+25
3.5821219e+25
-8.6575707e+26
-5.5071743e+25
3.5980339e+25
3.3408949e+25
-5.5559266e+25
6.5239569e+24
1.5539797e+26
-8.0710522e+24
-1.9675201e+26
-7.8918394e+24
-8.3878297e+24
1.0625672e+25
9.6439636e+24
1.5405035e+26
-1.9394418e+26
-7.2953569e+24
1.0722394e+25
-8.3636214e+24
1.0247128e+25
7.1819042e+24
-9.3057059e+24
-6.3563015e+24
1.1810131e+25
-6.9747372e+24
1.0731243e+25
-5.7758391e+24
1.1703773e+25
-6.8342283e+24
1.1279359e+25
-1.5520804e+26
-8.102332e+24
-5.914482e+24
1.1866872e+25
-6.979577e+24
1.1289915e+25
6.5935367e+24
1.5242642e+26
-1.9162499e+26
-7.721578e+24
-8.2018775e+24
1.0712287e+25
9.6340497e+24
-1.9541458e+26
-7.4262261e+24
1.0715574e+25
-8.4746893e+24
1.0126379e+25
-6.1474163e+24
-6.7653836e+24
-1.5167654e+26
-6.8434821e+24
7.8707214e+24
-8.5567603e+24
9.0232749e+24
-9.5686921e+24
8.5054351e+24
-5.81316e+24
6.8763935e+24
-8.9973123e+24
-9.9682225e+24
8.4477993e+24
7.8958729e+24
1.4939882e+26
-9.2378542e+24
-9.6722253e+24
8.5796648e+24
7.5742188e+24
-8.7689558e+24
-9.2992272e+24
9.2163443e+24
8.1566198e+24
-1.5083315e+26
-6.5325907e+24
-8.412389e+24
9.0759811e+24
-9.4615815e+24
8.6596865e+24
6.0025605e+24
1.5289747e+26
-9.4000213e+24
-9.8283758e+24
8.5425858e+24
7.625392e+24
-8.8335687e+24
8.4638327e+24
-9.8635824e+24
8.0013486e+24
-8.9364531e+24
-9.4677257e+24
9.1882531e+24
8.20832e+24
-2.1479149e+26
-2.9400862e+27
2.4139778e+26
2.2305483e+26
-1.0199449e+26
-1.3812809e+26
6.43425e+26
-2.1280012e+25
3.0100064e+25
-7.9365568e+26
4.0556252e+25
-3.7909356e+25
-4.0581051e+25
4.1830446e+25
-1.5025276e+25
2.6231277e+25
3.666156e+25
-5.1560773e+25
-5.5590564e+25
3.4623505e+25
-6.5900451e+26
-2.1005926e+25
3.9570973e+25
-5.4775551e+25
-5.6003602e+25
3.395849e+25
-2.5459681e+25
-8.1634479e+26
4.2908227e+25
-4.0325408e+25
-4.1164461e+25
3.9692927e+25
-2.9482332e+27
2.1490377e+26
2.4359926e+26
-1.1888543e+26
-1.3115432e+26
6.4673226e+26
-1.6282962e+25
-8.0228811e+26
-4.0728188e+25
-3.8583123e+25
4.0937514e+25
4.1078756e+25
-1.1745916e+25
-5.4542201e+25
3.3310395e+25
3.424932e+25
-5.6745227e+25
-6.4000207e+26
-5.5402412e+25
-5.4684518e+25
3.6668367e+25
3.3522293e+25
-7.8373636e+26
-3.9639206e+25
-3.8535847e+25
4.2083336e+25
3.9269922e+25
-2.5904897e+26
-3.3135501e+27
-4.7466983e+26
-3.2074308e+27
-4.9193537e+26
-8.5084851e+23
-3.41754e+25
1.1489848e+24
4.2636371e+25
-2.1269481e+24
-2.2629317e+24
1.6283529e+24
1.5712104e+24
-3.3646904e+25
4.1887706e+25
-1.0733958e+24
1.6492398e+24
1.4915975e+24
-2.2191216e+24
-2.2380651e+24
3.9742955e+24
-1.5132258e+26
-5.0980108e+24
7.8249311e+24
-1.0876973e+25
-1.129275e+25
7.0336778e+24
7.6511834e+23
-9.7273739e+23
-4.2822801e+25
-2.4105105e+24
1.0082537e+24
-4.3687635e+25
-2.062907e+24
-9.4374185e+23
-3.3568878e+25
4.1660145e+25
1.3564861e+24
-2.0560235e+24
-2.2197477e+24
1.6515825e+24
1.5880772e+24
-3.391275e+25
4.236648e+25
1.6719664e+24
1.5111325e+24
-2.1576462e+24
-2.2049484e+24
-1.4928664e+26
5.6921237e+24
-1.137321e+25
-1.0437617e+25
7.6536949e+24
7.3462866e+24
9.0946221e+23
-4.3388136e+25
-2.2587534e+24
1.233029e+24
-4.2650685e+25
-2.1061653e+24
3.2084325e+25
-8.7577129e+23
1.22126e+24
-1.898873e+24
-2.0792668e+24
1.7048161e+24
1.7666531e+24
-8.4825377e+23
4.0284268e+25
1.2667949e+24
-1.9519503e+24
-2.1290634e+24
1.7144306e+24
1.6617886e+24
3.2463221e+25
-1.0185535e+24
1.6288995e+24
-1.9954789e+24
1.776909e+24
-2.0499171e+24
-1.0616454e+24
4.1072455e+25
1.738214e+24
-2.0518889e+24
-2.1085404e+24
1.5920426e+24
3.5784917e+24
-4.6204363e+24
-1.9616652e+26
-1.1556262e+25
-1.1169325e+25
8.0942373e+24
7.0827397e+24
-1.927448e+26
5.3205436e+24
-1.1486543e+25
-1.059108e+25
7.8491964e+24
7.5575635e+24
3.261028e+25
-6.5871462e+23
1.6853456e+24
-1.9774635e+24
1.7366633e+24
-2.1274819e+24
-8.1166693e+23
4.1190443e+25
1.6923015e+24
-2.015698e+24
-2.163008e+24
1.6441766e+24
3.2235955e+25
-9.3183266e+23
1.6058696e+24
-2.0521463e+24
1.7518949e+24
-2.0777032e+24
-9.5329782e+23
4.0543181e+25
1.7089121e+24
-2.1006461e+24
-2.1338512e+24
1.559003e+24
-6.0199407e+23
3.1764129e+25
8.4006544e+23
-4.1256142e+25
-1.9972092e+24
1.6883241e+24
1.6220319e+24
-2.1417937e+24
3.1321265e+25
-4.0485658e+25
-2.0943976e+24
-2.0742765e+24
1.6900889e+24
1.5520802e+24
-7.2269753e+23
9.0524882e+23
1.63007e+24
-1.9875989e+24
1.66566e+24
-2.1117291e+24
-2.0849735e+24
1.5486856e+24
-2.0575158e+24
1.6927956e+24
3.1374643e+25
-6.9927809e+23
-4.0549245e+25
9.1199643e+23
1.6509924e+24
-1.9748215e+24
1.6678504e+24
-2.1211201e+24
-7.2922975e+23
3.9769079e+25
1.050159e+24
-1.960231e+24
1.6610714e+24
1.6312004e+24
-2.1090655e+24
3.1828013e+25
-4.1336044e+25
1.5617517e+24
-2.0790319e+24
1.6933799e+24
-2.1167086e+24
4.047611e+25
-2.0647156e+24
1.6957343e+24
-2.0868385e+24
1.5631593e+24
3.0738073e+25
-7.5557249e+23
1.0665592e+24
1.5922086e+24
-1.9445219e+24
1.6367559e+24
-2.1050116e+24
-7.9891149e+23
1.1727667e+24
1.6429435e+24
-1.9388462e+24
-2.0954485e+24
1.6080255e+24
3.1125272e+25
-2.0865487e+24
1.5255281e+24
-2.053366e+24
1.6596132e+24
1.6810853e+24
-2.0397738e+24
-2.0858785e+24
1.5414817e+24
-6.7297427e+23
-3.4192337e+25
9.4022578e+23
4.2681844e+25
-2.1246565e+24
-2.2533781e+24
1.6181114e+24
1.5682929e+24
-3.362182e+25
4.1815773e+25
-8.5928481e+23
1.6497623e+24
1.4996096e+24
-2.2087981e+24
-2.2235847e+24
3.52944e+24
-1.5115307e+26
-4.1628396e+24
7.8262945e+24
-1.0915446e+25
-1.127736e+25
7.0352474e+24
6.3023639e+23
-8.1181105e+23
-4.2761276e+25
-2.3997528e+24
8.6386838e+23
-4.3715168e+25
-2.0535121e+24
-6.9544613e+23
-3.3835411e+25
4.2008693e+25
-2.1112014e+24
-2.2536899e+24
1.605372e+24
1.5667355e+24
-3.4096003e+25
4.2632191e+25
1.6459876e+24
1.5012796e+24
-2.2143451e+24
-2.243522e+24
-1.5313519e+26
7.6602761e+24
-1.0517404e+25
-1.1601626e+25
7.2903044e+24
7.2126183e+23
-4.3629938e+25
-2.3945485e+24
-4.3077548e+25
-2.136827e+24
3.2639659e+25
-5.0326245e+23
8.44208e+23
-1.9782683e+24
-2.1170011e+24
1.7267364e+24
1.6794912e+24
-6.9726757e+23
9.0160016e+23
-2.1649114e+24
1.6819255e+24
1.6341379e+24
-2.0219804e+24
3.2211781e+25
-7.7969825e+23
-2.0456193e+24
-2.0614365e+24
1.6144191e+24
1.7531188e+24
-8.3315259e+23
-2.099387e+24
-2.1249241e+24
1.7067542e+24
1.5637796e+24
3.2270612e+25
-6.5972924e+23
1.6797268e+24
-1.9625732e+24
1.7152249e+24
-2.1182908e+24
-6.5406754e+23
-2.006486e+24
1.6686057e+24
1.6405546e+24
-2.1573266e+24
3.2658049e+25
1.6156158e+24
-2.0476895e+24
1.7500117e+24
-2.0831095e+24
-2.1008297e+24
1.7092178e+24
-2.1431764e+24
1.5747783e+24
-2.4324509e+24
-1.9983922e+26
7.985979e+24
-1.0925719e+25
-1.1767333e+25
7.4695164e+24
-1.9510744e+26
-3.9827766e+24
-1.1510774e+25
-1.1173735e+25
8.0811671e+24
7.0696554e+24
3.1729259e+25
-7.1762251e+23
1.0030066e+24
1.6241346e+24
-1.9896591e+24
1.6803953e+24
-2.1395123e+24
-8.5679811e+23
1.1192131e+24
4.0327661e+25
-1.9878786e+24
1.6634649e+24
1.6151218e+24
-2.1379364e+24
3.1348014e+25
-2.1024697e+24
1.5362082e+24
-2.0727285e+24
1.6869554e+24
3.9706923e+25
-2.0620138e+24
1.683019e+24
-2.1036725e+24
1.5257029e+24
3.1213392e+25
-8.7823403e+23
1.2410188e+24
1.6503268e+24
-1.9256724e+24
1.7114336e+24
-2.102689e+24
-9.2921495e+23
3.9517023e+25
1.3593768e+24
-1.9172882e+24
-2.0990807e+24
1.7009273e+24
1.6447718e+24
3.1651452e+25
1.5745538e+24
-2.0325998e+24
1.7227044e+24
-2.0845706e+24
4.026833e+25
1.7246985e+24
-2.0224862e+24
-2.0832523e+24
1.569479e+24
3.0563597e+25
-9.4892329e+23
1.3349685e+24
1.6232632e+24
-1.899115e+24
1.690207e+24
-2.0841859e+24
-9.6437632e+23
3.8724954e+25
1.4185552e+24
-1.8926803e+24
-2.0753593e+24
1.687636e+24
1.6308779e+24
3.0970626e+25
-1.0937188e+24
-2.0624697e+24
1.5483456e+24
-2.0084631e+24
1.6981354e+24
-1.2001921e+24
3.952741e+25
1.7121668e+24
-1.9966316e+24
-2.0586386e+24
1.5610559e+24
3.1027975e+25
-7.9058528e+23
1.5952232e+24
-1.9628705e+24
1.6495359e+24
-2.1110503e+24
-9.5083765e+23
3.9608635e+25
1.6516598e+24
-1.9557752e+24
-2.1077117e+24
1.6013199e+24
3.067544e+25
-2.0810233e+24
1.500451e+24
-2.0469454e+24
1.651829e+24
1.6681514e+24
-2.0338521e+24
-2.077041e+24
1.5119955e+24
2.3908862e+24
1.5299942e+26
-2.0924556e+24
-1.9891607e+26
-1.2259778e+25
-1.2096161e+25
7.0361483e+24
8.1844658e+24
1.5056728e+26
-1.9456931e+26
2.8504919e+24
-1.2081804e+25
-1.0738085e+25
8.3864505e+24
7.9783828e+24
-3.0288893e+24
4.9917786e+24
-1.1381866e+25
-1.0459268e+25
7.911325e+24
7.6984818e+24
-3.8552245e+24
7.7455604e+24
-1.1320637e+25
-1.1736134e+25
6.9547376e+24
1.051911e+24
1.5281945e+26
-1.3865514e+24
-1.9815769e+26
-1.2182915e+25
-1.1978315e+25
7.1629499e+24
8.1770177e+24
1.5597686e+26
-2.015655e+26
-1.2064854e+25
-1.1107619e+25
8.0596126e+24
8.3237716e+24
-1.966029e+24
7.7162234e+24
-1.1085206e+25
-1.1803746e+25
7.5886692e+24
-2.5623888e+24
7.8525646e+24
-1.1276665e+25
-1.1557897e+25
7.1005407e+24
1.6336144e+24
1.5466094e+26
-2.8134576e+24
-2.0025758e+26
-1.2508304e+25
-1.2472081e+25
7.5115466e+24
7.4395211e+24
1.5205521e+26
-1.9627835e+26
-1.2549801e+25
-1.200515e+25
7.2333905e+24
7.8076208e+24
-2.563814e+24
1.9329389e+26
7.1915353e+24
-1.1340018e+25
-1.1885951e+25
7.2686674e+24
1.9729084e+26
-1.1794478e+25
-1.1739309e+25
7.5403484e+24
6.9585235e+24
-1.4949582e+26
-3.7679729e+24
7.0851632e+24
-1.0825689e+25
-1.1770179e+25
6.7430847e+24
-3.5372794e+24
7.2842087e+24
-1.0904624e+25
-1.1810661e+25
7.1294244e+24
-1.5190351e+26
7.4918809e+24
-1.1308797e+25
-1.1699331e+25
6.4595329e+24
7.4694639e+24
-1.1511255e+25
-1.1729453e+25
6.7892521e+24
-1.9998682e+26
-1.2463691e+25
-1.1732599e+25
7.6994364e+24
7.5401614e+24
-3.4006391e+25
1.02212e+24
-2.1568854e+24
-2.2820699e+24
1.5768144e+24
1.5304094e+24
9.0568621e+23
-4.3493847e+25
-2.2496295e+24
-6.4227317e+23
-3.3278903e+25
4.1286962e+25
-2.1270012e+24
-2.2644942e+24
1.5525494e+24
1.5239949e+24
-3.3712836e+25
4.2112243e+25
1.6136307e+24
1.4775597e+24
-2.2070076e+24
-2.2326562e+24
7.1094167e+23
-4.3208046e+25
-2.545823e+24
-4.2314499e+25
-2.271737e+24
3.1776364e+25
-6.0884366e+23
1.632431e+24
-1.9810145e+24
1.6591631e+24
-2.13e+24
-2.0229783e+24
-2.1661038e+24
1.6113199e+24
1.5921035e+24
1.5881572e+24
-2.0487617e+24
1.7121841e+24
-2.0799273e+24
1.1097327e+24
1.6249517e+24
-1.8956336e+24
1.6759798e+24
-2.0449802e+24
3.0195363e+25
-9.6354111e+23
1.3682526e+24
1.6571083e+24
-1.827201e+24
1.7206885e+24
-2.0083872e+24
1.4854901e+24
-1.7988577e+24
-1.9752146e+24
1.7378808e+24
1.68838e+24
1.5834539e+24
-1.9398294e+24
1.7290012e+24
-1.9909931e+24
4.6823815e+25
-6.2416262e+26
-5.6415451e+25
5.3928967e+25
4.9064823e+25
-2.434729e+25
-2.2312103e+25
-6.0796406e+26
5.340663e+25
5.3559581e+25
5.1576619e+25
-2.4573609e+25
-1.7639559e+25
-5.4432884e+25
-6.7283943e+26
8.0902574e+25
-6.2055857e+25
-8.2204155e+25
-6.6857892e+26
-6.4035859e+25
2.2727058e+24
1.5096406e+26
-1.2967711e+24
-1.8672109e+26
-1.0437451e+25
-1.0965737e+25
8.4722935e+24
9.2862456e+24
1.4787572e+26
2.8042324e+24
-1.8098865e+26
-1.0477174e+25
-1.0439932e+25
8.3546947e+24
9.5286754e+24
5.0145091e+23
1.9988829e+26
3.6937625e+23
-1.196901e+25
-1.2478063e+25
8.4769991e+24
8.3947296e+24
1.9581615e+26
1.0947571e+24
-1.1847557e+25
-1.1761593e+25
8.3637852e+24
8.854224e+24
-1.5197616e+26
-1.1304927e+24
1.5782589e+24
8.3843237e+24
-1.1667455e+25
-1.2406098e+25
7.7323891e+24
1.8473512e+22
1.0909965e+24
7.6979785e+24
-1.2086776e+25
-1.2424494e+25
7.9657429e+24
1.5450454e+26
1.2566653e+24
-1.2451029e+25
-1.282818e+25
7.798118e+24
7.5756251e+24
-4.5556173e+23
7.5675155e+24
-1.2540648e+25
-1.2416677e+25
7.1494758e+24
-1.5609926e+26
-7.5291718e+23
8.4844685e+24
-1.1382709e+25
-1.2540018e+25
8.2006208e+24
1.2052696e+24
-2.0098791e+26
7.7969901e+24
-1.260068e+25
-1.2808e+25
8.0233885e+24
1.5451916e+26
-1.9928837e+26
1.6763231e+24
-1.246003e+25
-1.2927322e+25
7.9703556e+24
7.7029529e+24
2.1098602e+23
7.7207138e+24
-1.2437262e+25
-1.2244344e+25
7.2622426e+24
4.7680425e+23
1.5077273e+26
-2.6934204e+24
-1.8405112e+26
-1.0361096e+25
-1.0921954e+25
8.5685729e+24
9.3076957e+24
1.5178133e+26
-1.8713026e+26
-1.062101e+25
-1.0731496e+25
8.2097992e+24
9.5435311e+24
-1.2029078e+24
1.170477e+24
-1.1911166e+25
-1.2536988e+25
8.4714726e+24
8.415873e+24
-1.2228501e+25
-1.2272055e+25
8.1117406e+24
8.7086738e+24