/*--------------------------------*- C++ -*----------------------------------*\
  =========                 |
  \\      /  F ield         | OpenFOAM: The Open Source CFD Toolbox
   \\    /   O peration     | Website:  https://openfoam.org
    \\  /    A nd           | Version:  7
     \\/     M anipulation  |
\*---------------------------------------------------------------------------*/
FoamFile
{
    version     2.0;
    format      ascii;
    class       volScalarField;
    location    "5000";
    object      pMean;
}
// * * * * * * * * * * * * * * * * * * * * * * * * * * * * * * * * * * * * * //

dimensions      [0 2 -2 0 0 0 0];

internalField   nonuniform List<scalar> 
34251
(
-4.8205242e+58
-4.8221224e+58
-4.7757387e+58
-4.7500965e+58
-4.7733722e+58
-4.7504748e+58
-4.5198609e+58
-4.735382e+58
-4.7383159e+58
-4.7566441e+58
-4.7788964e+58
-4.7569968e+58
-4.7782041e+58
-4.8245346e+58
-4.8269854e+58
-4.8373289e+58
-4.8321586e+58
-4.830652e+58
-4.829326e+58
-4.839688e+58
-4.8391544e+58
-4.6112039e+58
-4.5261153e+58
-4.5243613e+58
-4.6083575e+58
-4.5258992e+58
-4.5859728e+58
-4.5232099e+58
-4.5860441e+58
-4.3787941e+58
-4.3782231e+58
-4.245225e+58
-4.2446875e+58
-4.8226887e+58
-4.825299e+58
-4.8305964e+58
-4.8289876e+58
-4.727177e+58
-4.7251582e+58
-4.7940069e+58
-4.7762742e+58
-4.7741197e+58
-4.7936938e+58
-4.7852655e+58
-4.7842382e+58
-4.8173657e+58
-4.8169063e+58
-4.7750321e+58
-4.77937e+58
-4.7980101e+58
-4.7943666e+58
-4.7887941e+58
-4.7868348e+58
-4.8217019e+58
-4.8198603e+58
-4.8519493e+58
-4.8444169e+58
-4.8563239e+58
-4.8471525e+58
-4.8550817e+58
-4.847221e+58
-4.8572612e+58
-4.863393e+58
-4.8546044e+58
-4.8654278e+58
-4.852913e+58
-4.8506548e+58
-4.8640689e+58
-4.8593286e+58
-4.7336026e+58
-4.7343304e+58
-4.6651438e+58
-4.6655911e+58
-4.5289986e+58
-4.5328631e+58
-4.5927961e+58
-4.5942964e+58
-4.3831621e+58
-4.5913606e+58
-4.5311142e+58
-4.5253655e+58
-4.5880111e+58
-4.3824978e+58
-4.7322334e+58
-4.7282341e+58
-4.6585169e+58
-4.6617646e+58
-4.2504383e+58
-4.2493165e+58
-4.5190011e+58
-4.5187666e+58
-4.5480918e+58
-4.4392331e+58
-4.5481481e+58
-4.5888604e+58
-4.5888101e+58
-4.6202411e+58
-4.5177659e+58
-4.5180447e+58
-4.5470333e+58
-4.5474718e+58
-4.4409674e+58
-4.5888901e+58
-4.5885396e+58
-4.6208293e+58
-4.6210176e+58
-4.3738104e+58
-4.3768407e+58
-4.3767464e+58
-4.4406086e+58
-4.517193e+58
-4.5463699e+58
-4.6751852e+58
-4.1364174e+58
-4.2703243e+58
-4.3337466e+58
-4.3346288e+58
-4.2695663e+58
-4.1361605e+58
-4.2624274e+58
-4.3347781e+58
-4.0811931e+58
-4.082768e+58
-4.8688634e+58
-4.8697754e+58
-4.8702046e+58
-4.8767624e+58
-4.8751439e+58
-4.8720974e+58
-4.6950695e+58
-4.6951692e+58
-4.7987126e+58
-4.7672184e+58
-4.7646926e+58
-4.7969648e+58
-4.8011415e+58
-4.8028163e+58
-4.8251143e+58
-4.8242362e+58
-4.8032062e+58
-4.8028193e+58
-4.8274924e+58
-4.8256723e+58
-4.8145369e+58
-4.8293873e+58
-4.8300608e+58
-4.8157599e+58
-4.8126965e+58
-4.8120866e+58
-4.8266335e+58
-4.7642781e+58
-4.7690864e+58
-4.8023476e+58
-4.7990117e+58
-4.8073624e+58
-4.8080822e+58
-4.832975e+58
-4.8308959e+58
-4.8305625e+58
-4.807428e+58
-4.8053003e+58
-4.8295314e+58
-4.8216784e+58
-4.8204649e+58
-4.8361542e+58
-4.8190047e+58
-4.8196624e+58
-4.8345021e+58
-4.8332222e+58
-4.8562803e+58
-4.8564838e+58
-4.8672361e+58
-4.8657285e+58
-4.8591811e+58
-4.8599251e+58
-4.868886e+58
-4.8706473e+58
-4.8707942e+58
-4.8593563e+58
-4.8581189e+58
-4.8676389e+58
-4.8676008e+58
-4.8666477e+58
-4.8802152e+58
-4.8768336e+58
-4.8649664e+58
-4.865341e+58
-4.8746236e+58
-4.8758701e+58
-4.8635291e+58
-4.8618321e+58
-4.8757282e+58
-4.8717567e+58
-3.8975031e+58
-4.7832327e+58
-4.8190867e+58
-4.7791763e+58
-4.7812873e+58
-4.8137371e+58
-4.8173146e+58
-4.725778e+58
-4.684378e+58
-4.6824761e+58
-4.6833762e+58
-4.7246465e+58
-4.7226694e+58
-4.5229719e+58
-4.5238435e+58
-4.5534477e+58
-4.5521738e+58
-4.4464203e+58
-4.5248628e+58
-4.5251875e+58
-4.5545712e+58
-4.445481e+58
-4.594116e+58
-4.595173e+58
-4.6280191e+58
-4.6267126e+58
-4.5961337e+58
-4.6290264e+58
-4.3815355e+58
-4.3795044e+58
-4.6247675e+58
-4.5931712e+58
-4.5931563e+58
-4.6248758e+58
-4.5227034e+58
-4.5516002e+58
-4.5516279e+58
-4.522212e+58
-4.4452853e+58
-4.5190224e+58
-4.5207978e+58
-4.5502008e+58
-4.4414359e+58
-4.5490886e+58
-4.5908088e+58
-4.6227678e+58
-4.5917195e+58
-4.6239629e+58
-4.3783644e+58
-4.3775273e+58
-4.7775316e+58
-4.7770055e+58
-4.813309e+58
-4.8121089e+58
-4.8122663e+58
-4.7740958e+58
-4.7770389e+58
-4.8086162e+58
-4.7200362e+58
-4.6783067e+58
-4.6773132e+58
-4.7179367e+58
-4.7211895e+58
-4.679165e+58
-4.6803436e+58
-4.7212246e+58
-4.1399584e+58
-4.2767053e+58
-4.3400307e+58
-4.340615e+58
-4.276847e+58
-4.1401334e+58
-4.2729957e+58
-4.3384773e+58
-4.3377879e+58
-4.2745446e+58
-4.0812485e+58
-4.0833781e+58
-4.5196595e+58
-4.5196796e+58
-4.4716249e+58
-4.5095866e+58
-4.5094109e+58
-4.5199567e+58
-4.5197658e+58
-4.4709821e+58
-4.509686e+58
-4.5098388e+58
-4.5443544e+58
-4.5568981e+58
-4.5443126e+58
-4.556696e+58
-4.4430608e+58
-4.4417265e+58
-4.543724e+58
-4.5560176e+58
-4.5439428e+58
-4.5560856e+58
-4.5845472e+58
-4.584667e+58
-4.5974136e+58
-4.5973744e+58
-4.5846634e+58
-4.597354e+58
-4.5845573e+58
-4.5974739e+58
-4.6246142e+58
-4.6394902e+58
-4.6247096e+58
-4.6396015e+58
-4.5192795e+58
-4.5195795e+58
-4.4696334e+58
-4.5096482e+58
-4.5091686e+58
-4.5192911e+58
-4.5192538e+58
-4.4700089e+58
-4.5092193e+58
-4.5092017e+58
-4.5434585e+58
-4.5554836e+58
-4.5437876e+58
-4.555733e+58
-4.5435494e+58
-4.5556186e+58
-4.5437239e+58
-4.5556729e+58
-4.44108e+58
-4.4413522e+58
-4.5848314e+58
-4.5979849e+58
-4.5849212e+58
-4.5978987e+58
-4.5855643e+58
-4.5987392e+58
-4.5852789e+58
-4.5985135e+58
-4.625808e+58
-4.6416298e+58
-4.6257287e+58
-4.6414643e+58
-4.6251224e+58
-4.6406526e+58
-4.625029e+58
-4.6403169e+58
-4.3803442e+58
-4.3820234e+58
-4.4063521e+58
-4.4062236e+58
-4.3796417e+58
-4.3824589e+58
-4.4066133e+58
-4.4053415e+58
-4.3781855e+58
-4.3774608e+58
-4.4048018e+58
-4.405198e+58
-4.4698796e+58
-4.4395858e+58
-4.4698274e+58
-4.4398654e+58
-4.3792578e+58
-4.5192186e+58
-4.5090283e+58
-4.5201608e+58
-4.5196579e+58
-4.5095333e+58
-4.510069e+58
-4.543836e+58
-4.5559092e+58
-4.5437785e+58
-4.6735462e+58
-4.6745786e+58
-4.6924449e+58
-4.67423e+58
-4.221267e+58
-4.2215466e+58
-4.1685649e+58
-4.1603678e+58
-4.2860167e+58
-4.2875054e+58
-4.3173155e+58
-4.3162408e+58
-4.3478726e+58
-4.3271384e+58
-4.327883e+58
-4.3483312e+58
-4.3478846e+58
-4.3283569e+58
-4.3248471e+58
-4.3451648e+58
-4.2836065e+58
-4.2845805e+58
-4.3133349e+58
-4.3166604e+58
-4.1567527e+58
-4.2134127e+58
-4.1690764e+58
-4.2832789e+58
-4.28445e+58
-4.3187889e+58
-4.3181355e+58
-4.3270523e+58
-4.3283515e+58
-4.346873e+58
-4.3485843e+58
-4.3284376e+58
-4.3465274e+58
-3.9763688e+58
-3.9790459e+58
-4.8845653e+58
-4.88501e+58
-4.8878835e+58
-4.8886266e+58
-4.8879998e+58
-4.8861771e+58
-4.8954822e+58
-4.8935441e+58
-4.8923837e+58
-4.8924774e+58
-4.8916163e+58
-4.8892708e+58
-4.6332311e+58
-4.6333857e+58
-4.7981029e+58
-4.8309239e+58
-4.8297953e+58
-4.7270979e+58
-4.724269e+58
-4.7956073e+58
-4.8297164e+58
-4.827877e+58
-4.8519755e+58
-4.8505918e+58
-4.8543853e+58
-4.853288e+58
-4.8356305e+58
-4.8349044e+58
-4.8383113e+58
-4.8382619e+58
-4.8425169e+58
-4.8420233e+58
-4.8471207e+58
-4.8459298e+58
-4.8433524e+58
-4.8427014e+58
-4.8469665e+58
-4.8476428e+58
-4.8396623e+58
-4.8359807e+58
-4.8364791e+58
-4.8384542e+58
-4.8335993e+58
-4.8332407e+58
-4.8364179e+58
-4.8357495e+58
-4.8322754e+58
-4.8315949e+58
-4.8352305e+58
-4.8402087e+58
-4.8396734e+58
-4.8442522e+58
-4.8439177e+58
-4.7278643e+58
-4.7288206e+58
-4.8016366e+58
-4.835573e+58
-4.835031e+58
-4.7976103e+58
-4.831532e+58
-4.8342342e+58
-4.8604311e+58
-4.8590337e+58
-4.8577327e+58
-4.8561989e+58
-4.8425031e+58
-4.8430753e+58
-4.8447907e+58
-4.845116e+58
-4.8450452e+58
-4.84149e+58
-4.8423575e+58
-4.8510613e+58
-4.8502902e+58
-4.8560853e+58
-4.8550114e+58
-4.8417329e+58
-4.8415726e+58
-4.8381396e+58
-4.8388842e+58
-4.8436394e+58
-4.8425399e+58
-4.8398002e+58
-4.8404309e+58
-4.8488402e+58
-4.8479476e+58
-4.8535777e+58
-4.853638e+58
-4.8465491e+58
-4.8456839e+58
-4.8506842e+58
-4.8491653e+58
-3.8642323e+58
-4.8690791e+58
-4.8696063e+58
-4.8790998e+58
-4.8806798e+58
-4.8684185e+58
-4.868827e+58
-4.8803615e+58
-4.8784075e+58
-4.8725685e+58
-4.8725989e+58
-4.8831023e+58
-4.8851067e+58
-4.8721231e+58
-4.8734427e+58
-4.8854087e+58
-4.8831662e+58
-4.8711416e+58
-4.8720506e+58
-4.8823456e+58
-4.8834423e+58
-4.8700072e+58
-4.8711799e+58
-4.8830446e+58
-4.8803678e+58
-4.8773416e+58
-4.8782841e+58
-4.8910788e+58
-4.8924587e+58
-4.8767356e+58
-4.8773954e+58
-4.8921451e+58
-4.8894903e+58
-4.8753344e+58
-4.8761277e+58
-4.8881188e+58
-4.8896067e+58
-4.8756679e+58
-4.8756538e+58
-4.8894199e+58
-4.887536e+58
-4.8746446e+58
-4.8757929e+58
-4.8866505e+58
-4.8877751e+58
-4.8734418e+58
-4.8743735e+58
-4.8871439e+58
-4.8842072e+58
-3.8959434e+58
-4.7980999e+58
-4.821351e+58
-4.7976485e+58
-4.8199797e+58
-4.8516655e+58
-4.8604979e+58
-4.8504782e+58
-4.8580784e+58
-4.7956487e+58
-4.7946796e+58
-4.8186694e+58
-4.8169624e+58
-4.796732e+58
-4.796564e+58
-4.8190295e+58
-4.8196013e+58
-4.8491363e+58
-4.8573677e+58
-4.8473939e+58
-4.8546313e+58
-4.8499031e+58
-4.8503624e+58
-4.8573727e+58
-4.8582961e+58
-4.7336507e+58
-4.7335789e+58
-4.7583537e+58
-4.7578084e+58
-4.6821322e+58
-4.6820813e+58
-4.7007021e+58
-4.7004273e+58
-4.6801789e+58
-4.6806211e+58
-4.6989034e+58
-4.6980665e+58
-4.6813724e+58
-4.6812077e+58
-4.6994892e+58
-4.6995994e+58
-4.7327265e+58
-4.732802e+58
-4.7569506e+58
-4.7572116e+58
-4.7318232e+58
-4.7309294e+58
-4.7562323e+58
-4.7549425e+58
-4.5241826e+58
-4.5242359e+58
-4.4746098e+58
-4.5141532e+58
-4.5140532e+58
-4.5249591e+58
-4.524768e+58
-4.4752997e+58
-4.5144085e+58
-4.515013e+58
-4.549497e+58
-4.5617744e+58
-4.5492787e+58
-4.5615713e+58
-4.5488429e+58
-4.5611293e+58
-4.5487407e+58
-4.5609475e+58
-4.4460862e+58
-4.4465462e+58
-4.5256266e+58
-4.4765147e+58
-4.5154013e+58
-4.5153452e+58
-4.5254492e+58
-4.5257883e+58
-4.477162e+58
-4.5152893e+58
-4.5153645e+58
-4.5499941e+58
-4.5500363e+58
-4.5625826e+58
-4.5625141e+58
-4.4481642e+58
-4.4465671e+58
-4.5903495e+58
-4.5901718e+58
-4.6036658e+58
-4.6033514e+58
-4.5911524e+58
-4.6042364e+58
-4.5908641e+58
-4.604157e+58
-4.6318899e+58
-4.6475513e+58
-4.6318561e+58
-4.6476109e+58
-4.6312736e+58
-4.647059e+58
-4.630827e+58
-4.6465072e+58
-4.5918139e+58
-4.6050373e+58
-4.6324838e+58
-4.6483525e+58
-4.6483057e+58
-4.3844516e+58
-4.3842747e+58
-4.3842102e+58
-4.4107962e+58
-4.40982e+58
-4.3855394e+58
-4.3840127e+58
-4.4108853e+58
-4.4106424e+58
-4.3429601e+58
-4.2797378e+58
-4.6300583e+58
-4.6453933e+58
-4.6296508e+58
-4.6450135e+58
-4.5885287e+58
-4.5885623e+58
-4.6015483e+58
-4.6014491e+58
-4.5896172e+58
-4.6027241e+58
-4.5890646e+58
-4.6022644e+58
-4.6287522e+58
-4.6286395e+58
-4.6441265e+58
-4.6438894e+58
-4.5242713e+58
-4.5235308e+58
-4.4744994e+58
-4.5133816e+58
-4.5140435e+58
-4.547318e+58
-4.5594237e+58
-4.5473043e+58
-4.5593971e+58
-4.548175e+58
-4.5605031e+58
-4.5479422e+58
-4.560222e+58
-4.5227429e+58
-4.522797e+58
-4.4746134e+58
-4.5127738e+58
-4.5127281e+58
-4.4452963e+58
-4.4461864e+58
-4.5207917e+58
-4.5204187e+58
-4.4716968e+58
-4.5101757e+58
-4.5104537e+58
-4.5219625e+58
-4.5214921e+58
-4.4729878e+58
-4.5113144e+58
-4.511764e+58
-4.5462974e+58
-4.5585586e+58
-4.5461742e+58
-4.5583472e+58
-4.4449749e+58
-4.4439959e+58
-4.545478e+58
-4.5578377e+58
-4.545303e+58
-4.5576712e+58
-4.5868536e+58
-4.5999604e+58
-4.5866303e+58
-4.5996539e+58
-4.6273243e+58
-4.642818e+58
-4.6269017e+58
-4.6424794e+58
-4.5876465e+58
-4.6005904e+58
-4.5873425e+58
-4.6004479e+58
-4.6278928e+58
-4.6432334e+58
-4.627899e+58
-4.6433554e+58
-4.3851712e+58
-4.3828874e+58
-4.4088381e+58
-4.4098086e+58
-4.3835682e+58
-4.4086346e+58
-4.4066785e+58
-4.3821569e+58
-4.7930271e+58
-4.7926091e+58
-4.8158724e+58
-4.8146932e+58
-4.7935461e+58
-4.8157176e+58
-4.7934314e+58
-4.8163292e+58
-4.8461162e+58
-4.8542919e+58
-4.8450359e+58
-4.8522351e+58
-4.8460761e+58
-4.8535439e+58
-4.8468053e+58
-4.8549577e+58
-4.8440338e+58
-4.8509101e+58
-4.8445433e+58
-4.8520261e+58
-4.7906996e+58
-4.7895992e+58
-4.813293e+58
-4.811484e+58
-4.7918418e+58
-4.8137048e+58
-4.7918161e+58
-4.8143774e+58
-4.8434926e+58
-4.8415649e+58
-4.7277959e+58
-4.752081e+58
-4.7280021e+58
-4.7525093e+58
-4.6766163e+58
-4.6765664e+58
-4.6945755e+58
-4.694806e+58
-4.6759979e+58
-4.6756851e+58
-4.6941751e+58
-4.6935429e+58
-4.7271015e+58
-4.7262863e+58
-4.7515848e+58
-4.7503217e+58
-4.7296424e+58
-4.7537687e+58
-4.7295791e+58
-4.7541018e+58
-4.6775098e+58
-4.6773586e+58
-4.6958445e+58
-4.6954664e+58
-4.6789009e+58
-4.6969773e+58
-4.6782826e+58
-4.6966943e+58
-4.7289317e+58
-4.7286694e+58
-4.7535175e+58
-4.7529497e+58
-4.2274173e+58
-4.2297084e+58
-4.1722402e+58
-4.1666703e+58
-4.3248203e+58
-4.294056e+58
-4.2930982e+58
-4.3223936e+58
-4.3537056e+58
-4.337186e+58
-4.3334043e+58
-4.3533965e+58
-4.3525344e+58
-4.334391e+58
-4.3310124e+58
-4.3506874e+58
-4.3217962e+58
-4.294487e+58
-4.290232e+58
-4.31928e+58
-4.2265176e+58
-4.227446e+58
-4.1656266e+58
-4.173178e+58
-4.2888914e+58
-4.2889024e+58
-4.3187648e+58
-4.320501e+58
-4.3297456e+58
-4.3503104e+58
-4.3524772e+58
-4.3320915e+58
-4.3282849e+58
-4.3314983e+58
-4.3510472e+58
-4.3480937e+58
-4.2893229e+58
-4.2888482e+58
-4.3205887e+58
-4.3170695e+58
-3.9740504e+58
-3.976037e+58
-4.5333749e+58
-4.5339248e+58
-4.5311451e+58
-4.5313779e+58
-4.531008e+58
-4.5309604e+58
-4.5334284e+58
-4.53302e+58
-4.4877963e+58
-4.4778729e+58
-4.4779351e+58
-4.488102e+58
-4.508451e+58
-4.5087458e+58
-4.5341191e+58
-4.5347435e+58
-4.5322525e+58
-4.532544e+58
-4.531955e+58
-4.5316842e+58
-4.5344369e+58
-4.5340445e+58
-4.4780801e+58
-4.4780181e+58
-4.4885764e+58
-4.4884007e+58
-4.509149e+58
-4.5094219e+58
-4.5463619e+58
-4.546398e+58
-4.5480345e+58
-4.5480651e+58
-4.5616227e+58
-4.5615733e+58
-4.5653021e+58
-4.5651743e+58
-4.5476326e+58
-4.5460199e+58
-4.5477147e+58
-4.5458965e+58
-4.564812e+58
-4.5612812e+58
-4.561206e+58
-4.5647734e+58
-4.4477857e+58
-4.4475929e+58
-4.4574858e+58
-4.4574073e+58
-4.4473129e+58
-4.4474346e+58
-4.4576651e+58
-4.4573812e+58
-4.547176e+58
-4.5453204e+58
-4.5472647e+58
-4.5453084e+58
-4.5644887e+58
-4.560919e+58
-4.5608549e+58
-4.564438e+58
-4.5471091e+58
-4.5450868e+58
-4.5470407e+58
-4.5451532e+58
-4.5642019e+58
-4.5605934e+58
-4.5606003e+58
-4.5643031e+58
-4.5794882e+58
-4.5844609e+58
-4.5845466e+58
-4.5796416e+58
-4.5797494e+58
-4.5797041e+58
-4.5846308e+58
-4.5847153e+58
-4.6037846e+58
-4.5986383e+58
-4.6036662e+58
-4.5987558e+58
-4.5986782e+58
-4.6037387e+58
-4.5986964e+58
-4.6037087e+58
-4.5845872e+58
-4.5797698e+58
-4.5847566e+58
-4.5796798e+58
-4.5987762e+58
-4.6040231e+58
-4.6039623e+58
-4.5987149e+58
-4.5845504e+58
-4.5795595e+58
-4.5845004e+58
-4.5796644e+58
-4.5986872e+58
-4.6037805e+58
-4.598784e+58
-4.6039168e+58
-4.6261266e+58
-4.6194515e+58
-4.6262453e+58
-4.6192573e+58
-4.6480058e+58
-4.6408513e+58
-4.6408035e+58
-4.6480127e+58
-4.6192061e+58
-4.6259099e+58
-4.6191809e+58
-4.6259295e+58
-4.6477154e+58
-4.640633e+58
-4.640599e+58
-4.6475994e+58
-4.5331002e+58
-4.5341101e+58
-4.5305285e+58
-4.5312258e+58
-4.5310915e+58
-4.5309353e+58
-4.5338588e+58
-4.533231e+58
-4.4872351e+58
-4.4773304e+58
-4.4777298e+58
-4.4880275e+58
-4.5085758e+58
-4.5083782e+58
-4.5326182e+58
-4.5333961e+58
-4.5306761e+58
-4.5310681e+58
-4.5307677e+58
-4.5309059e+58
-4.5333901e+58
-4.5334699e+58
-4.4877422e+58
-4.4776217e+58
-4.4774019e+58
-4.4875619e+58
-4.5082514e+58
-4.5080386e+58
-4.5446876e+58
-4.5450771e+58
-4.5464774e+58
-4.546811e+58
-4.5605354e+58
-4.563657e+58
-4.5639123e+58
-4.5602658e+58
-4.5450744e+58
-4.5450688e+58
-4.5469224e+58
-4.5468641e+58
-4.5604624e+58
-4.5604527e+58
-4.5639134e+58
-4.5640181e+58
-4.546792e+58
-4.5448828e+58
-4.5467752e+58
-4.5450444e+58
-4.5604302e+58
-4.5640192e+58
-4.5639836e+58
-4.5605022e+58
-4.5467854e+58
-4.5449176e+58
-4.5466289e+58
-4.5451069e+58
-4.5603184e+58
-4.563736e+58
-4.5604386e+58
-4.5638836e+58
-4.4567661e+58
-4.4472332e+58
-4.4466669e+58
-4.4565747e+58
-4.4475663e+58
-4.4469946e+58
-4.4568004e+58
-4.4573162e+58
-4.5851308e+58
-4.5802018e+58
-4.5852824e+58
-4.5800645e+58
-4.5992769e+58
-4.6046063e+58
-4.6044501e+58
-4.5991536e+58
-4.5799977e+58
-4.5850838e+58
-4.5799391e+58
-4.5850071e+58
-4.5989906e+58
-4.6042771e+58
-4.5990251e+58
-4.6043152e+58
-4.5858654e+58
-4.5809617e+58
-4.586079e+58
-4.5807376e+58
-4.5999784e+58
-4.5997966e+58
-4.6054163e+58
-4.6052431e+58
-4.5855009e+58
-4.5805185e+58
-4.5855936e+58
-4.5804469e+58
-4.6049393e+58
-4.5995968e+58
-4.5995142e+58
-4.6048572e+58
-4.6277041e+58
-4.6208536e+58
-4.6279057e+58
-4.6205856e+58
-4.6425828e+58
-4.6424179e+58
-4.6500886e+58
-4.6499703e+58
-4.6203203e+58
-4.6272697e+58
-4.6204345e+58
-4.627471e+58
-4.649611e+58
-4.6421954e+58
-4.6419923e+58
-4.6493261e+58
-4.6268429e+58
-4.6200934e+58
-4.6270052e+58
-4.6198823e+58
-4.6490257e+58
-4.6417149e+58
-4.6415465e+58
-4.6489268e+58
-4.6197192e+58
-4.6265693e+58
-4.6197498e+58
-4.6266683e+58
-4.6486406e+58
-4.6413379e+58
-4.6411744e+58
-4.6484052e+58
-4.3926684e+58
-4.3933727e+58
-4.4009283e+58
-4.4012278e+58
-4.3941044e+58
-4.3938327e+58
-4.4021066e+58
-4.4016681e+58
-4.4197456e+58
-4.4195217e+58
-4.427653e+58
-4.427477e+58
-4.4274446e+58
-4.4193905e+58
-4.4191909e+58
-4.4276224e+58
-4.3928094e+58
-4.3929539e+58
-4.4010151e+58
-4.4005246e+58
-4.392693e+58
-4.3923964e+58
-4.3999937e+58
-4.4003481e+58
-4.4263844e+58
-4.4181615e+58
-4.4180841e+58
-4.4259836e+58
-4.4264565e+58
-4.4188994e+58
-4.4195075e+58
-4.4274295e+58
-4.3913192e+58
-4.3910214e+58
-4.3994012e+58
-4.3997504e+58
-4.3913591e+58
-4.3920293e+58
-4.4006153e+58
-4.3995831e+58
-4.42753e+58
-4.4193513e+58
-4.4186787e+58
-4.4268523e+58
-4.4184513e+58
-4.4184319e+58
-4.4264629e+58
-4.4265703e+58
-4.4887262e+58
-4.4780385e+58
-4.4772622e+58
-4.4882264e+58
-4.457487e+58
-4.4475914e+58
-4.4465398e+58
-4.4566075e+58
-4.4874374e+58
-4.4771187e+58
-4.4765748e+58
-4.4875481e+58
-4.4562541e+58
-4.4464822e+58
-4.4464033e+58
-4.4562797e+58
-4.3912137e+58
-4.3908637e+58
-4.3993387e+58
-4.3993187e+58
-4.5329375e+58
-4.5333839e+58
-4.5304961e+58
-4.5307341e+58
-4.5084688e+58
-4.5329254e+58
-4.5333074e+58
-4.5309997e+58
-4.5311962e+58
-4.5309531e+58
-4.531054e+58
-4.5333225e+58
-4.5335276e+58
-4.5087247e+58
-4.5088575e+58
-4.5469256e+58
-4.5449839e+58
-4.5470105e+58
-4.5449967e+58
-4.560472e+58
-4.5604061e+58
-4.5642187e+58
-4.5641171e+58
-4.5468771e+58
-4.5449538e+58
-4.5468063e+58
-4.5451014e+58
-4.6743844e+58
-4.6661695e+58
-4.6745493e+58
-4.6659272e+58
-4.6754672e+58
-4.6672066e+58
-4.6756707e+58
-4.6669342e+58
-4.6911535e+58
-4.6909598e+58
-4.7005802e+58
-4.7004505e+58
-4.6748435e+58
-4.6667039e+58
-4.675175e+58
-4.666419e+58
-4.2659279e+58
-4.2643236e+58
-4.2780513e+58
-4.2728857e+58
-4.2668193e+58
-4.2669989e+58
-4.2762934e+58
-4.2882871e+58
-4.1493657e+58
-4.1390651e+58
-4.3071979e+58
-4.3081438e+58
-4.3195166e+58
-4.3155076e+58
-4.310845e+58
-4.3075657e+58
-4.3161443e+58
-4.3178346e+58
-4.3183022e+58
-4.3211789e+58
-4.3253341e+58
-4.3238587e+58
-4.319812e+58
-4.3194805e+58
-4.3237636e+58
-4.3251568e+58
-4.3750718e+58
-4.3686527e+58
-4.3683594e+58
-4.3755079e+58
-4.3524778e+58
-4.3427892e+58
-4.3435611e+58
-4.3528295e+58
-4.3426302e+58
-4.3433847e+58
-4.3523516e+58
-4.3517601e+58
-4.3748037e+58
-4.3673295e+58
-4.3669598e+58
-4.3744159e+58
-4.373675e+58
-4.3672843e+58
-4.3673927e+58
-4.3736304e+58
-4.3507701e+58
-4.342512e+58
-4.3426012e+58
-4.3512967e+58
-4.3408182e+58
-4.3425908e+58
-4.3509781e+58
-4.3504142e+58
-4.373894e+58
-4.3669532e+58
-4.3665584e+58
-4.3741748e+58
-4.3057905e+58
-4.3056175e+58
-4.3186123e+58
-4.3131277e+58
-4.3070238e+58
-4.3051991e+58
-4.3166e+58
-4.3162227e+58
-4.3163629e+58
-4.3212223e+58
-4.3247487e+58
-4.3218383e+58
-4.3191466e+58
-4.3200479e+58
-4.3241875e+58
-4.3245008e+58
-4.1379458e+58
-4.2726833e+58
-4.262322e+58
-4.2626687e+58
-4.2656189e+58
-4.30852e+58
-4.3096977e+58
-4.3232248e+58
-4.3199465e+58
-4.3112945e+58
-4.3075636e+58
-4.318594e+58
-4.3234501e+58
-4.3186071e+58
-4.320658e+58
-4.3240711e+58
-4.3226184e+58
-4.3203201e+58
-4.3182339e+58
-4.3225268e+58
-4.3239324e+58
-4.3399628e+58
-4.3402787e+58
-4.3501888e+58
-4.3504895e+58
-4.3399628e+58
-4.3408158e+58
-4.3496603e+58
-4.3502271e+58
-4.3657586e+58
-4.3738534e+58
-4.3728636e+58
-4.3653873e+58
-4.3651435e+58
-4.3725434e+58
-4.3728445e+58
-4.3648562e+58
-4.3484993e+58
-4.3398695e+58
-4.3412038e+58
-4.3500789e+58
-4.3647673e+58
-4.3639224e+58
-4.3730051e+58
-4.372734e+58
-4.3192378e+58
-4.322272e+58
-3.9304099e+58
-3.9373634e+58
-4.891741e+58
-4.8928265e+58
-4.8926178e+58
-4.8914176e+58
-4.8950954e+58
-4.8964616e+58
-4.8965963e+58
-4.8951428e+58
-4.8947799e+58
-4.8955599e+58
-4.8948841e+58
-4.8928474e+58
-4.9022496e+58
-4.9029394e+58
-4.9022682e+58
-4.9003102e+58
-4.8994965e+58
-4.9007718e+58
-4.9003794e+58
-4.8991344e+58
-4.8982889e+58
-4.8989587e+58
-4.898119e+58
-4.895885e+58
-4.5239746e+58
-4.6986323e+58
-4.6968924e+58
-4.5251326e+58
-4.6916156e+58
-4.6897729e+58
-4.3852213e+58
-4.8343369e+58
-4.833588e+58
-4.7666732e+58
-4.8512761e+58
-4.8511558e+58
-4.8306331e+58
-4.8326336e+58
-4.7650293e+58
-4.8499125e+58
-4.8482471e+58
-4.7042154e+58
-4.8689278e+58
-4.8671615e+58
-4.8861012e+58
-4.8857236e+58
-4.8645774e+58
-4.8640067e+58
-4.8648025e+58
-4.8680432e+58
-4.8851093e+58
-4.863129e+58
-4.884009e+58
-4.8705498e+58
-4.8684779e+58
-4.8887053e+58
-4.8881794e+58
-4.867637e+58
-4.8670244e+58
-4.8678627e+58
-4.8705026e+58
-4.8878171e+58
-4.8865644e+58
-4.8661982e+58
-4.8654367e+58
-4.859089e+58
-4.8556837e+58
-4.858759e+58
-4.8559495e+58
-4.8557938e+58
-4.8544486e+58
-4.8577647e+58
-4.8584824e+58
-4.8474363e+58
-4.8523788e+58
-4.8519177e+58
-4.8471937e+58
-4.8512942e+58
-4.8508426e+58
-4.8457163e+58
-4.8460917e+58
-4.8406015e+58
-4.8457848e+58
-4.8450709e+58
-4.8393495e+58
-4.8393321e+58
-4.8442351e+58
-4.8430736e+58
-4.8380982e+58
-4.8540187e+58
-4.8535251e+58
-4.8490898e+58
-4.8492143e+58
-4.849045e+58
-4.8533194e+58
-4.8531152e+58
-4.8488516e+58
-4.8412067e+58
-4.8468724e+58
-4.8471351e+58
-4.8408789e+58
-4.8462945e+58
-4.8478592e+58
-4.8420927e+58
-4.8405786e+58
-4.8571692e+58
-4.8572607e+58
-4.8602285e+58
-4.8607245e+58
-4.8601221e+58
-4.8573996e+58
-4.8560332e+58
-4.8594876e+58
-4.8570446e+58
-4.8538742e+58
-4.8566521e+58
-4.8540137e+58
-4.8541731e+58
-4.8528684e+58
-4.8566019e+58
-4.8559288e+58
-4.8552994e+58
-4.8523242e+58
-4.8524786e+58
-4.8549057e+58
-4.8445758e+58
-4.8500063e+58
-4.8496601e+58
-4.8445583e+58
-4.8491031e+58
-4.849452e+58
-4.8437381e+58
-4.8442165e+58
-4.842239e+58
-4.837633e+58
-4.836912e+58
-4.8413487e+58
-4.838093e+58
-4.8428121e+58
-4.8426207e+58
-4.8374528e+58
-4.8386949e+58
-4.8380886e+58
-4.7729112e+58
-4.8543677e+58
-4.8554587e+58
-4.8346264e+58
-4.8371344e+58
-4.7717507e+58
-4.8534194e+58
-4.8516553e+58
-4.8766224e+58
-4.8745923e+58
-4.89451e+58
-4.8947952e+58
-4.8739473e+58
-4.8729572e+58
-4.8755374e+58
-4.8939943e+58
-4.8929179e+58
-4.8724935e+58
-4.8732496e+58
-4.8741146e+58
-4.8727056e+58
-4.8915418e+58
-4.8922813e+58
-4.8706092e+58
-4.8713448e+58
-4.8696254e+58
-4.8729034e+58
-4.890878e+58
-4.8894449e+58
-4.8688306e+58
-4.8696131e+58
-4.8645532e+58
-4.8634021e+58
-4.8675171e+58
-4.867984e+58
-4.8630063e+58
-4.8633965e+58
-4.866857e+58
-4.8671396e+58
-4.8631856e+58
-4.8619395e+58
-4.8659671e+58
-4.8665612e+58
-4.8614569e+58
-4.8608494e+58
-4.8570976e+58
-4.8569574e+58
-4.860223e+58
-4.8598548e+58
-4.8561616e+58
-4.8556398e+58
-4.8464017e+58
-4.8540389e+58
-4.8537443e+58
-4.8454099e+58
-4.8523863e+58
-4.8532601e+58
-4.8453806e+58
-4.8446597e+58
-4.8594043e+58
-4.8596843e+58
-4.8628376e+58
-4.8632621e+58
-4.8593776e+58
-4.8581401e+58
-4.8617272e+58
-4.8623827e+58
-4.8612017e+58
-4.8614707e+58
-4.8648772e+58
-4.8652447e+58
-4.8614293e+58
-4.8601421e+58
-4.864001e+58
-4.8646966e+58
-4.859212e+58
-4.8586559e+58
-4.8545283e+58
-4.8545532e+58
-4.8584263e+58
-4.85801e+58
-4.8543952e+58
-4.8538838e+58
-4.8443932e+58
-4.8517524e+58
-4.8515464e+58
-4.8434672e+58
-4.8508771e+58
-4.8515771e+58
-4.8441188e+58
-4.8437558e+58
-4.8570791e+58
-4.8563762e+58
-4.8523619e+58
-4.8520969e+58
-4.855571e+58
-4.8551423e+58
-4.8509679e+58
-4.8503814e+58
-4.8438496e+58
-4.8500881e+58
-4.8495619e+58
-4.8427262e+58
-4.8473942e+58
-4.8485479e+58
-4.8422745e+58
-4.8412362e+58
-3.9534703e+58
-3.860276e+58
-4.8914698e+58
-4.891301e+58
-4.8908076e+58
-4.8912878e+58
-4.8951112e+58
-4.8942438e+58
-4.8945472e+58
-4.8951273e+58
-4.8943054e+58
-4.8939119e+58
-4.8922926e+58
-4.893348e+58
-4.9010524e+58
-4.9008603e+58
-4.899189e+58
-4.9000595e+58
-4.8988392e+58
-4.8981959e+58
-4.8983566e+58
-4.8984709e+58
-4.8975207e+58
-4.8973549e+58
-4.8953276e+58
-4.8963903e+58
-4.8141441e+58
-4.7987365e+58
-4.8139333e+58
-4.7987039e+58
-4.8327968e+58
-4.8466141e+58
-4.8468657e+58
-4.8329862e+58
-4.8131508e+58
-4.798551e+58
-4.8138277e+58
-4.7981962e+58
-4.8324408e+58
-4.8463879e+58
-4.8316866e+58
-4.8453062e+58
-4.8755617e+58
-4.8662407e+58
-4.875311e+58
-4.8661233e+58
-4.8840474e+58
-4.8862677e+58
-4.8862928e+58
-4.8845227e+58
-4.8649285e+58
-4.8736729e+58
-4.8658005e+58
-4.875073e+58
-4.8836028e+58
-4.8855381e+58
-4.884333e+58
-4.8818297e+58
-4.7965639e+58
-4.8114457e+58
-4.8117007e+58
-4.7966038e+58
-4.7953884e+58
-4.7960674e+58
-4.8112617e+58
-4.8102896e+58
-4.8302706e+58
-4.8440272e+58
-4.8442202e+58
-4.8302978e+58
-4.8288458e+58
-4.8298429e+58
-4.843659e+58
-4.8423423e+58
-4.7978338e+58
-4.8127297e+58
-4.8130798e+58
-4.7979435e+58
-4.7975922e+58
-4.8127877e+58
-4.8121036e+58
-4.7972484e+58
-4.8455819e+58
-4.8313565e+58
-4.8450279e+58
-4.8316165e+58
-4.8445791e+58
-4.8314837e+58
-4.845469e+58
-4.830787e+58
-4.8725326e+58
-4.8634202e+58
-4.8720264e+58
-4.8633167e+58
-4.8803352e+58
-4.8827322e+58
-4.8830613e+58
-4.8811813e+58
-4.8616939e+58
-4.8704015e+58
-4.8627851e+58
-4.8719806e+58
-4.8804059e+58
-4.8823678e+58
-4.8809956e+58
-4.8785012e+58
-4.8645924e+58
-4.8731855e+58
-4.873873e+58
-4.8647666e+58
-4.8647455e+58
-4.8737213e+58
-4.8639875e+58
-4.8726028e+58
-4.8811848e+58
-4.8824443e+58
-4.8837984e+58
-4.8844398e+58
-4.8831587e+58
-4.883998e+58
-4.8819811e+58
-4.8808589e+58
-4.742206e+58
-4.7279688e+58
-4.7421962e+58
-4.7278462e+58
-4.7277921e+58
-4.7421432e+58
-4.741862e+58
-4.7276995e+58
-4.7618176e+58
-4.7765132e+58
-4.7619349e+58
-4.7767609e+58
-4.7764593e+58
-4.775958e+58
-4.7617209e+58
-4.7613035e+58
-4.6829329e+58
-4.6743362e+58
-4.6830138e+58
-4.6742883e+58
-4.6741719e+58
-4.6829066e+58
-4.6827555e+58
-4.674093e+58
-4.6989938e+58
-4.7084322e+58
-4.6989226e+58
-4.7084034e+58
-4.7082268e+58
-4.7081194e+58
-4.6988454e+58
-4.6987486e+58
-4.6722819e+58
-4.6719463e+58
-4.6804794e+58
-4.6808517e+58
-4.6727051e+58
-4.6812631e+58
-4.6811108e+58
-4.6725415e+58
-4.6971166e+58
-4.6972865e+58
-4.7066232e+58
-4.7065385e+58
-4.7060342e+58
-4.696718e+58
-4.6962583e+58
-4.7055596e+58
-4.6737634e+58
-4.6823683e+58
-4.6822081e+58
-4.6735732e+58
-4.6733134e+58
-4.6819386e+58
-4.6816815e+58
-4.673119e+58
-4.6983324e+58
-4.7076723e+58
-4.7076797e+58
-4.6982672e+58
-4.6979806e+58
-4.7073621e+58
-4.7071156e+58
-4.6977881e+58
-4.7273475e+58
-4.7415893e+58
-4.7415596e+58
-4.7271535e+58
-4.7269768e+58
-4.7413113e+58
-4.7408847e+58
-4.7266558e+58
-4.7610338e+58
-4.7756031e+58
-4.7759209e+58
-4.7610875e+58
-4.7608236e+58
-4.7755234e+58
-4.7750999e+58
-4.7604346e+58
-4.7261808e+58
-4.7403507e+58
-4.7402489e+58
-4.7259053e+58
-4.7250734e+58
-4.725485e+58
-4.7398e+58
-4.739266e+58
-4.7598458e+58
-4.7744348e+58
-4.7746208e+58
-4.7597468e+58
-4.7585682e+58
-4.7591657e+58
-4.7739676e+58
-4.7732059e+58
-4.5378985e+58
-4.538427e+58
-4.5359052e+58
-4.536293e+58
-4.5359421e+58
-4.5355603e+58
-4.5380855e+58
-4.537344e+58
-4.4822817e+58
-4.4822165e+58
-4.4926624e+58
-4.4924462e+58
-4.5127392e+58
-4.5129093e+58
-4.5385355e+58
-4.5390275e+58
-4.5366597e+58
-4.5368264e+58
-4.5362847e+58
-4.5362432e+58
-4.5387839e+58
-4.5386203e+58
-4.4827705e+58
-4.4930608e+58
-4.4924231e+58
-4.4823729e+58
-4.513324e+58
-4.5136908e+58
-4.550892e+58
-4.5508992e+58
-4.5526371e+58
-4.5527627e+58
-4.5665226e+58
-4.5702643e+58
-4.5700557e+58
-4.5664493e+58
-4.552388e+58
-4.5504819e+58
-4.5523689e+58
-4.5505173e+58
-4.5662026e+58
-4.5697857e+58
-4.56619e+58
-4.5698137e+58
-4.5501801e+58
-4.5503363e+58
-4.5519943e+58
-4.5520873e+58
-4.5658264e+58
-4.5693765e+58
-4.569405e+58
-4.5657964e+58
-4.5499892e+58
-4.5497616e+58
-4.5518575e+58
-4.5519439e+58
-4.5655587e+58
-4.5654218e+58
-4.5692474e+58
-4.5692098e+58
-4.4512233e+58
-4.451908e+58
-4.4618399e+58
-4.4612074e+58
-4.4610366e+58
-4.4513509e+58
-4.4521955e+58
-4.4619671e+58
-4.4497335e+58
-4.5379017e+58
-4.5378009e+58
-4.5399127e+58
-4.5397687e+58
-4.4830733e+58
-4.4829655e+58
-4.4937987e+58
-4.4938445e+58
-4.5142135e+58
-4.5389858e+58
-4.539304e+58
-4.5373574e+58
-4.5374586e+58
-4.5369404e+58
-4.5368134e+58
-4.5389655e+58
-4.5386313e+58
-4.4830285e+58
-4.4935043e+58
-4.4933368e+58
-4.4831934e+58
-4.5140684e+58
-4.5138442e+58
-4.5515045e+58
-4.5534548e+58
-4.5533719e+58
-4.5514777e+58
-4.5510089e+58
-4.5531959e+58
-4.553209e+58
-4.5510033e+58
-4.5671999e+58
-4.5709509e+58
-4.5708395e+58
-4.5671072e+58
-4.5668336e+58
-4.5668648e+58
-4.5706806e+58
-4.570748e+58
-4.4526233e+58
-4.4526202e+58
-4.4624692e+58
-4.4624304e+58
-4.4521149e+58
-4.4522749e+58
-4.4624155e+58
-4.4622152e+58
-4.5853263e+58
-4.5904953e+58
-4.5904389e+58
-4.585264e+58
-4.5850456e+58
-4.5851272e+58
-4.5903209e+58
-4.5902786e+58
-4.6100455e+58
-4.6047226e+58
-4.6101283e+58
-4.6046572e+58
-4.6043424e+58
-4.6097674e+58
-4.6044605e+58
-4.6098586e+58
-4.5911183e+58
-4.5862199e+58
-4.591381e+58
-4.5859877e+58
-4.6055079e+58
-4.6109425e+58
-4.6107702e+58
-4.605361e+58
-4.5908708e+58
-4.5857681e+58
-4.5908584e+58
-4.5857486e+58
-4.6051166e+58
-4.6104979e+58
-4.6050984e+58
-4.6105102e+58
-4.6335906e+58
-4.6266801e+58
-4.6337472e+58
-4.62646e+58
-4.656219e+58
-4.6486796e+58
-4.6485719e+58
-4.6561693e+58
-4.6262363e+58
-4.6332842e+58
-4.6262732e+58
-4.6333534e+58
-4.6558412e+58
-4.6483525e+58
-4.6482396e+58
-4.6556713e+58
-4.6258558e+58
-4.6328872e+58
-4.632815e+58
-4.625704e+58
-4.6552698e+58
-4.6478512e+58
-4.6477523e+58
-4.6552753e+58
-4.6254733e+58