/*--------------------------------*- C++ -*----------------------------------*\
  =========                 |
  \\      /  F ield         | OpenFOAM: The Open Source CFD Toolbox
   \\    /   O peration     | Website:  https://openfoam.org
    \\  /    A nd           | Version:  7
     \\/     M anipulation  |
\*---------------------------------------------------------------------------*/
FoamFile
{
    version     2.0;
    format      ascii;
    class       volScalarField;
    location    "1000";
    object      omega;
}
// * * * * * * * * * * * * * * * * * * * * * * * * * * * * * * * * * * * * * //

dimensions      [0 0 -1 0 0 0 0];

internalField   nonuniform List<scalar> 
34356
(
2202.2214
4855.0778
4035.1165
4083.4836
746.19142
723.63762
278.83235
752.38484
765.90373
1130.3447
10282.566
1132.5699
10307.061
7616.1521
7497.7836
1839.765
1884.2221
7648.7223
1878.7214
7606.7448
1934.9896
662.46304
578.60645
570.93793
643.87478
228.1386
241.18296
241.33536
261.56782
261.62193
360.58814
448.676
1524.9406
1316.389
2043.4546
2082.1922
2080.1385
2118.8372
1884.723
560.69549
557.20531
1902.1483
4427.3757
21245.804
4383.9717
21322.1
568.76331
555.13164
1867.3215
1912.5874
4424.2807
4360.2396
21366.91
21287.295
4524.0937
12717.366
13032.253
4501.0979
12770.181
4451.9759
12551.631
4372.6159
12981.513
12885.126
4576.2336
4487.9487
4517.1137
12507.284
13018.325
4554.6744
1940.9223
1880.6561
1878.8955
1926.1992
1587.4333
1379.5863
1332.6785
1525.7922
458.06895
1541.0652
1336.9084
1331.9561
1507.7448
449.81742
1844.3731
1896.1373
1880.9569
1849.0664
367.91323
366.68741
228.07226
227.83502
213.08371
214.14259
5013.6608
217.39228
285.22426
565.53991
706.89725
681.63168
550.88854
862.69293
887.88374
1061.6053
1032.4815
4415.4489
4229.0569
4197.479
3509.7023
3515.7544
3119.1327
3116.0198
3157.1373
5008.6977
4928.8487
5077.9968
5068.9181
5132.4252
5051.4687
5037.9416
5136.6562
431.17308
431.99472
2065.4168
583.71468
580.8787
2084.8725
6627.1338
3545.748
3508.5029
6599.5912
13563.509
38954.865
39572.993
13599.62
6555.8497
3515.3939
3455.1686
6527.7832
13486.523
13526.472
39164.111
39424.975
591.48205
578.43492
2044.8314
2096.3184
3572.1496
3477.8583
6540.7865
6624.2525
6558.4041
3495.5065
3422.8181
6468.8734
13591.297
13596.463
39056.38
39566.9
13573.517
39628.545
13447.973
39120.449
20009.132
20600.462
8022.7166
8039.9573
8171.3596
20912.69
20969.323
8161.6507
8014.7049
20300.162
20634.698
7981.3135
20254.602
19891.49
7918.9367
7843.9709
20911.395
20672.124
8233.1094
8119.2943
8105.8592
20680.974
20442.024
8026.8461
19531.239
20028.234
7915.2586
7879.0801
20694.459
20984.705
8208.4405
8255.0092
2065.7417
1862.2829
4855.621
5519.644
5390.1105
4912.4752
5407.08
5486.1141
4822.7504
4933.5886
5067.4524
5182.2549
5116.6612
4960.7931
5008.0105
5246.5042
5127.3588
5080.2216
4545.1012
4423.7951
4346.2165
4598.5971
3690.8486
3666.4396
3289.5632
3316.6813
1116.0629
3222.9095
3232.8242
3623.0269
1068.2445
3576.9582
4298.6619
4337.9766
4556.6799
4473.3777
900.58723
936.19513
4529.2119
4333.4609
4319.7949
4502.6297
3230.6016
3220.5354
3606.58
3614.6913
1077.8015
3170.7213
3189.4468
3561.3482
1074.1625
3491.069
4180.9902
4448.4922
4260.1139
4333.2783
915.95889
905.80429
4795.1615
5242.9018
5338.4239
4684.2517
4881.4579
5418.0197
5424.4008
4833.5773
5017.6312
5138.8764
5142.0613
4979.2
4959.6033
5058.989
4925.4864
4802.0315
218.1749
290.05505
216.6798
287.00348
586.03304
741.45477
711.78018
575.03149
577.49964
721.83434
728.79892
592.57651
10560.902
9810.4905
10605.006
10097.698
10768.961
10172
279.9573
473.90868
464.63663
358.28635
353.35256
1103.2193
907.28773
863.69002
1048.5922
1602.7542
1359.8027
1296.2916
1540.3432
1555.385
1304.357
1295.6105
1539.1394
861.0987
1055.2832
1047.8794
1855.0505
1873.6917
2091.0514
2061.9259
1917.9887
1856.0967
2123.4563
2068.4195
2474.9732
2435.4434
2659.783
2627.8061
2461.4899
2436.4241
2665.6388
2632.5789
10480.445
10037.084
10653.359
10120.914
10248.36
10376.053
10092.027
9913.1864
9775.1607
10096.718
9871.4922
10848.185
9063.8056
9279.5723
9195.2893
9359.5008
8750.991
8988.261
8951.093
9107.0364
7435.361
7571.4778
6155.2594
6285.2455
7698.1464
7794.8508
6505.539
6390.3696
7896.3462
7886.4059
6547.0768
6562.9441
9291.3225
8802.0777
8809.3441
8665.0302
8723.0934
8825.4404
8875.249
8982.2542
8994.8475
8948.5483
9043.825
8848.8586
8921.4305
8658.8422
8697.6203
9029.7843
9141.8687
410.97286
412.55565
2181.1011
4022.7006
4075.8109
568.35944
562.66695
2208.0489
4126.8332
4085.8706
7380.8273
7342.7054
12885.945
12561.937
20001.906
20484.083
35634.927
57945.94
36186.728
58799.829
35741.714
59090.683
36565.588
59405.181
12737.238
12803.845
20240.102
20405.977
7296.5314
7262.8751
12606.843
12665.319
20007.399
20234.794
12516.357
12799.239
20397.357
20025.885
35041.533
35980.064
59089.221
58334.235
59732.339
59205.817
35967.114
35434.636
575.55876
559.78276
2161.9833
3980.6691
4066.452
2213.2401
4046.6259
4139.9293
7273.4652
7366.2503
7305.7176
7197.7701
13621.245
20137.814
12661.667
12742.627
20363.917
12516.336
12822.717
20466.079
20063.302
34930.139
57738.777
36104.58
58618.266
36034.089
59389.001
59119.108
35673.835
12738.398
12650.31
20207.234
20359.508
35369.193
58982.193
36242.099
59488.794
12399.938
12733.041
20346.48
19859.818
35957.307
35131.901
59282.801
58298.077
35408.457
34790.314
11334.759
11286.607
36407.212
36963.738
11604.911
11483.634
36938.134
11702.112
37254.206
11660.26
11787.395
37581.815
36583.722
11657.054
35910.819
35688.77
11426.748
11305.461
36391.453
36981.413
11573.881
11503.509
35765.492
35894.039
11400.909
11327.729
35519.306
34685.227
11307.943
11225.146
37032.714
37483.169
11733.223
11630.396
36358.071
36496.812
11726.582
11533.85
36779.461
36754.494
11642.209
11521.943
35587.391
36696.73
11561.189
11419.319
33937.778
33961.368
11149.788
11010.747
11339.771
35587.319
35690.609
11302.306
36999.361
36498.502
11703.757
11671.729
37028.535
37710.789
11921.547
11823.389
175.77875
4217.4332
4145.6299
4310.2032
4371.9005
3725.3766
3590.7505
3845.7017
3196.1939
1070.2119
3527.3625
4239.8762
915.19582
286.21529
216.28564
216.08376
726.7827
588.21022
9412.8567
8480.0218
9487.7039
8467.9703
10591.467
10794.419
9689.433
9791.7487
10049.024
9239.6852
10166.16
9260.8595
9876.9639
8844.6609
10033.253
8906.8606
10436.162
10344.293
9545.7873
9419.2612
10595.758
9706.1095
10448.074
9524.8562
9743.1256
9659.506
8722.0908
8609.7904
8860.4087
9897.6459
9766.3724
8710.8581
11123.721
10299.366
10965.618
10089.35
11225.507
11065.327
10660.017
10438.095
11058.268
10933.988
10480.934
10319.675
10960.64
10853.143
10133.016
9990.8294
10545.638
9779.6916
10708.935
9827.686
11291.328
11503.203
10695.249
10830.414
10673.693
10134.583
10870.789
10215.125
11157.185
11381.589
10306.01
10437.793
10644.428
10154.134
10862.976
10256.438
10682.311
10821.402
10491.09
10570.154
10158.138
9975.0614
10386.725
10093.957
11238.479
11410.876
10713.352
10822.965
9489.2804
9697.661
9631.1908
9766.2418
9035.2022
9244.8582
9266.0301
9379.9558
7694.0226
7836.0787
6402.5369
2835.2891
6556.8208
8081.6257
8186.1242
2820.2237
6908.2629
6746.8965
2664.401
2635.2507
7889.6699
7841.8245
2732.7403
6609.2895
6555.5756
7950.3909
7864.7414
2752.0097
6569.3751
6625.6214
9343.6782
9561.644
9294.7715
9428.875
2556.812
2557.4258
9287.0673
9476.8595
9219.5183
9329.4088
10454.651
10247.908
10323.464
10064.456
10548.638
10377.123
10451.872
10190.634
11129.199
10636.132
10985.21
10416.202
10988.927
10470.721
10846.172
10291.667
1951.0557
1944.2554
2173.0906
2167.1004
2293.6548
2066.3781
2003.7542
2238.3508
10811.404
10310.46
10994.104
10396.397
10529.571
10585.556
10324.077
10310.239
10285.736
10105.889
10473.67
10198.679
11069.714
11097.768
10538.974
10512.872
7943.2308
8060.1902
2732.0727
6793.3249
6602.3655
7744.3156
7866.8079
2747.5595
6554.0647
6427.0067
9346.742
9547.0866
9466.5855
9581.8595
9111.8216
9332.7588
9308.2873
9443.5934
2556.1446
2539.0749
7609.7394
7501.5977
2707.6097
6298.733
6317.7555
7729.008
7833.481
2714.0394
6536.5902
6414.5842
9101.8862
9289.9503
9254.3335
9356.3146
2527.3134
2559.1578
8970.3398
9134.5899
8833.0013
8936.5351
10093.171
9877.9585
9902.6625
9652.3469
10736.523
10226.157
10841.736
10248.603
10238.745
10028.163
10358.612
10064.264
10614.473
10103.583
10422.533
9891.8037
1930.9736
1989.6786
2150.8942
2185.6666
2182.2812
1949.2184
1925.1172
2150.8836
9561.6135
8591.9884
9586.8423
8553.2482
10124.647
10021.526
9258.744
9135.7267
10212.304
9364.468
10261.404
9344.2364
9480.6852
8496.0941
9403.7786
8398.7434
9611.9615
8638.1353
9696.5994
8638.1342
10486.951
9590.995
10519.702
9567.4541
10269.443
9426.302
10392.741
9460.5594
9797.1523
9814.8101
8774.204
8743.805
10765.496
10922.219
9975.5068
10031.223
10873.414
10318.69
11044.703
10395.28
11133.58
11162.085
10541.112
10519.1
11020.438
11054.743
10179.464
10162.073
10703.027
10538.617
10131.221
9946.9934
10798.428
10890.824
10234.961
10249.195
10700.888
9903.9905
10775.916
9896.8923
10615.264
10481.119
9801.1907
9644.6484
287.93044
367.94151
490.46409
482.73346
363.93448
285.37413
487.9222
492.10702
367.08981
368.57956
1167.8328
956.84685
919.25929
1114.4628
1717.6905
1444.651
1382.7053
1650.8549
1610.2209
1350.6629
1360.512
1612.6502
901.75927
913.90379
1096.8797
1104.0965
903.05815
915.15166
1111.3868
1090.4394
1363.5495
1341.6861
1622.5167
1593.196
1368.1269
1426.5722
1611.3267
1661.1171
980.05311
937.23528
1127.4828
1175.1761
15263.464
15251.736
14516.341
14576.025
14794.413
13863.022
13802.986
14796.157
15898.691
15937.484
15303.047
15208.142
15678.488
15706.231
14949.343
14865.3
15819.85
16590.48
15876.208
16598.942
15473.238
16333.116
16314.859
15403.892
433.0688
423.10274
783.82368
754.29095
567.1816
554.51409
753.39743
551.63051
2172.0337
1876.5611
1815.9559
2128.8431
1526.2633
1260.391
1218.1631
1472.1919
1136.3903
1144.4844
1389.9728
1372.6873
2031.0248
1718.2417
1689.9388
1990.0819
3402.5369
3229.0542
3203.8808
3394.9145
2811.7437
2567.69
2522.8724
2778.7195
2366.924
2419.9352
2691.8207
2637.7985
3327.8282
3114.8264
3058.7352
3277.9371
3405.9196
3203.2409
3208.4446
3426.5792
2757.0752
2467.4877
2464.779
2758.7461
2393.7215
2405.9084
2674.6711
2653.4153
3305.2304
3105.8469
3074.1087
3268.3989
1404.9038
1150.4027
1141.0155
1395.3954
1733.4795
1746.217
2070.5214
2059.3521
2011.1657
1724.9224
3016.8755
3200.2393
3690.9035
3732.5545
3883.124
3847.088
3875.268
3838.679
3978.686
4016.0316
4533.09
4433.2345
4487.4292
4569.5253
4444.933
4343.1077
4316.3252
4428.379
3920.6416
3810.7503
3822.1589
3952.6633
3712.9281
3757.6894
3912.5835
3880.7505
4402.1761
4337.1098
4400.8322
4469.5115
4462.6302
4366.0369
4350.2071
4460.364
4872.7181
4820.8973
4924.4848
4962.0973
4951.0794
4928.0168
4999.5084
5031.7964
5459.2535
5340.0514
5441.1872
5532.1396
5621.248
5509.8242
5576.5795
5690.7661
5095.8213
5010.1214
5058.1551
5119.3344
4923.9063
4926.1947
5013.5308
5013.4559
5659.8
5624.9677
5752.2847
5755.3674
5674.0747
5545.3587
5559.1126
5681.1352
15847.668
16696.255
15971.002
16632.863
16396.628
15562.079
15446.633
16346.764
17398.509
16547.477
17399.718
16600.845
17088.941
16160.146
17095.433
16110.306
18796.511
17719.396
17458.994
18567.001
18868.286
18960.924
17908.73
17791.472
16962.659
18222.863
17192.927
18036.821
16644.165
17854.004
16833.876
17720.203
17278.665
16301.636
16145.783
17175.868
17408.581
18616.076
17504.084
18560.563
18009.729
16941.459
17983.211
16868.48
17660.535
16893.294
16687.943
17498.063
21103.28
20920.42
19345.207
19035.428
19575.265
18328.976
18015.361
19825.61
21193.377
21087.089
19266.948
19452.336
19948.768
19817.755
18463.627
18297.868
18182.643
20072.605
18410.116
19966.78
18857.008
17433.314
17207.519
18705.013
19093.519
21073.163
19233.22
21026.331
19705.836
18149.751
19628.666
18014.62
21365.888
21372.462
19669.393
19479.559
20674.214
20551.798
22543.573
22563.289
20305.776
21447.099
22470.693
22443.388
20686.32
20447.36
20762.222
20599.595
22487.323
22454.444
21354.168
21355.349
22746.29
22743.235
20999.916
20800.895
21432.801
21320.049
23348.028
23356.807
21607.707
22241.126
19435.379
21419.241
19679.533
21285.087
12077.444
11976.381
12281.647
12185.126
11989.524
11873.885
11994.94
12049.952
11995.724
11974.023
12328.454
12181.753
12383.241
12370.648
12503.707
12340.594
12484.599
12345.647
12255.175
12428.254
12275.547
12099.901
12238.541
12336.719
11677.842
11795.281
12005.116
12061.634
12408.411
12413.082
12559.406
12693.108
408.88017
383.54632
589.40177
586.69514
385.53249
581.61804
596.92647
4001.5233
4081.0816
2191.7384
4825.9571
4753.1801
4064.8262
4130.9237
2221.6087
4887.5138
4841.4827
6243.7555
6284.7342
10344.521
10428.711
16332.599
16339.103
6198.4603
6253.8218
10428.789
10274.051
16549.648
16022.634
20351.655
20057.713
26369.955
26828.651
27098.464
20766.275
20704.775
27329.338
59419.345
33775.146
33176.789
57674.832
59286.183
93479.596
91897.467
59476.561
33956.605
34370.688
60067.79
59305.598
93663.05
94055.121
60481.773
60461.883
34013.983
33446.689
57596.626
58799.508
60156.145
92559.715
93631.16
60027.038
34005.242
34411.35
59971.835
59404.716
93843.245
94750.621
60744.149
60636.144
20421.097
20457.181
26670.283
26975.357
27327.707
20756.101
20529.804
27010.046
6170.5322
6211.9745
10320.493
10219.915
16151.657
16197.938
6119.578
6159.9433
10296.976
10203.846
16451.032
16004.32
26307.789
20222.683
26630.69
20176.502
20606.015
20360.904
27115.508
26793.72
26977.942
20672.729
27214.776
20602.921
20379.713
20073.878
26878.908
26416.872
55614.326
32846.316
33453.668
57041.673
33635.939
34009.594
57719.217
58231.735
93279.208
60768.244
60473.335
92272.646
58811.26
90315.497
91710.038
59335.187
93409.952
94211.585
61078.221
61147.987
61071.091
93439.28
92483.016
60552.731
34201.599
33745.746
58915.219
57835.301
33210.384
33782.41
57124.586
58155.408
567.47208
565.4628
2205.4595
3956.5546
4070.2727
2172.7174
4817.909
4703.6814
4029.9835
4149.7637
2223.4293
4910.0331
4782.6915
7330.7681
6122.0369
6184.6683
10303.311
16464.993
10187.936
16004.956
6233.3285
6300.9954
10296.96
10370.17
16228.21
16257.31
6149.9282
6230.531
10269.627
10310.175
16263.038
16250.302
6044.1295
6115.8683
10246.22
10088.411
16379.305
15852.826
12531.555
12872.595
20471.239
20024.985
35489.257
57950.869
20363.228
20271.306
26805.083
26542.389
20725.35
20459.564
26999.798
27303.867
20755.341
20606.31
27229.631
27109.734
26963.339
20438.611
20063.367
26397.512
33143.294
33678.349
55044.033
56073.352
58962.598
90069.073
90941.8
58501.414
34207.025
57129.855
33908.967
57243.51
92195.424
92515.728
59965.564
60508.456
33854.514
34190.756
57941.288
56789.677
61315.924
92290.775
93002.131
61289.285
61223.437
92986.519
91523.23
60846.126
33834.064
33125.449
55936.398
57095.873
20354.661
20429.867
26644.182
26915.089
20461.486
20719.293
27283.327
26957.43
33811.321
33258.653
55482.55
56894.693
60749.362
91008.915
91918.964
60213.631
33822.494
34188.226
58009.864
57890.008
92586.895
93138.449
60975.666
60989.661
26982.167
20654.654
20505.439
27074.577
26710.766
20243.033
19870.06
26111.479
33993.982
33725.52
57623.552
58295.976
32751.195
33538.89
57398.201
55639.418
92962.671
92663.13
61122.142
60682.784
90263.678
92254.664
60600.422
59824.699
169.22524
37220.094
36526.168
38244.257
38852.368
38654.373
39069.95
39419.179
38328.909
37711.465
37312.699
38098.806
38842.649
37315.194
37434.615
37330.743
36268.768
38799.512
39406.722
38209.524
38150.78
38461.792
38567.127
37284.265
38469.531
35612.115
35449.683
37379.862
37334.038
38747.453
38165.435
38789.924
39650.701
176.12698
14514.803
13573.706
14123.854
15183.148
12629.156
11643.498
13052.495
7738.5804
7673.6937
2718.9741
6422.787
6397.3122
2705.6419
2527.1854
2570.3419
9140.783
9329.3805
9075.1785
9180.6359
10303.097
10185.319
9905.3788
1995.773
1943.7467
2156.5175
2190.6546
364.10075
481.06443
366.41222
485.21642
281.64742
890.57604
1619.7674
1372.5408
1425.0274
1662.3852
967.24585
924.82362
1124.6693
1167.0301
11661.867
12478.929
11840.405
12314.374
11939.7
11342.315
11178.766
11785.868
12707.774
11996.099
12704.195
12023.461
12130.696
11535.995
12132.616
11467.497
14628.363
13843.481
13763.909
14597.931
15008.179
15116.468
14241.088
14122.974
12962.927
13937.028
13054.274
13902.225
14253.983
13269.417
14327.436
13361.099
12856.235
13753.838
13072.548
13555.76
13198.76
12404.164
12202.126
13021.776
13308.76
14121.403
13370.634
14097.797
13496.592
12628.495
13485.015
12586.731
13116.094
12417.552
12336.463
13067.358
11885.057
12497.492
12459.613
11833.922
13423.387
13375.248
12676.531
12612.936
12122.238
12727.204
12010.795
12767.707
14556.512
13748.734
13548.835
14373.395
14327.257
14454.38
13633.008
13495.441
12757.401
13841.516
12947.129
13678.104
13625.2
12714.673
13729.108
12825.804
13645.286
14724.112
13922.505
14448.88
14018.957
13119.532
12866.521
13779.485
13711.43
14683.986
13855.834
14554.573
13966.847
13042.255
13865.142
12933.433
13015.206
12311.744
12148.515
12860.329
12903.987
12203.034
12829.446
12121.661
11789.311
11653.016
12403.887
12273.365
12247.673
12309.304
11708.634
11574.555
12536.014
11908.993
11714.29
12349.658
12252.748
13183.45
12472.385
12965.119
13050.056
13119.52
12397.016
12318.971
12448.37
12508.134
11908.927
11782.827
15145.913
16274.294
15517.491
15941.832
15731.316
14677.355
14333.002
15405.268
15240.064
16213.222
15439.179
16092.325
15700.304
14611.116
15518.278
14423.838
17103.676
16388.452
15998.224
16747.211
17009.62
16268.679
16147.653
16952.871
16802.061
15962.72
15575.53
16457.584
16717.034
15856.42
15700.755
16635.14
16909.369
16183.638
15880.892
16642.367
16598.011
16731.011
16020.529
15849.405
16605.434
15768.724
15459.748
16345.932
16326.409
16461.802
15626.838
15448.931
16120.587
15354.424
15063.261
15855.448
15851.91
15997.972
15236.348
15052.618
14501.592
14259.119
15580.248
15337.584
15316.169
15481.794
14400.962
14235.728
14089.337
15096.937
14403.348
14814.706
14579.075
13665.284
13402.796
14320.031
15555.59
14722.333
15582.075
14818.546
15030.879
14022.409
14965.434
13939.419
17147.1
16400.939
16226.695
17033.439
17735.984
16969.154
16845.261
17689.03
15759.827
16785.453
15922.446
16685.786
16329.331
17413.931
16494.643
17333.041
14898.525
15917.813
15256.483
15604.491
15611.836
14838.637
14492.598
15303.9
15704.443
16492.675
15750.686
16533.959
16143.621
15282.757
16146.638
15207.955
16229.175
15449.917
15330.058
16150.161
16853.03
16022.666
16724.816
15847.01
14575.263
14482.462
15637.471
15595.942
16104.741
16247.626
15084.458
14922.763
15703.634
16881.068
16103.611
16528.09
16479.612
15599.92
15218.517
16141.286
17593.498
16657.369
17550.845
16688.453
17109.226
16130.656
17158.775
16099.826
19556.557
18392.948
18026.655
19227.172
19661.533
19831.209
18714.064
18505.219
17435.502
18862.453
17745.816
18597.713
19139.226
17988.792
19255.23
18147.442
16736.978
18295.196
17191.78
17907.287
17590.912
16540.262
16107.636
17207.934
17790.853
19094.06
17875.777
19074.106
18320.655
17158.509
18336.605
17103.847
18167.485
17330.616
17076.121
17954.059
18636.664
17803.277
18561.758
17680.048
16786.724
16581.605
17764.038
17601.075
18249.293
18301.978
17311.008
17198.385
22082.92
21806.824
20233.745
19787.451
20347.026
19111.024
18668.782
20708.255
22175.135
21999.463
20076.803
20371.34
20884.046
20671.147
19322.03
19053.641
18590.528
20815.829
19028.769
20552.357
19446.336
17915.505
17446.803
19077.63
19769.953
21903.638
19923.708
21883.711
20365.198
18674.691
20319.608
18537.897
22319.233
22283.815
20447.431
20099.965
21525.036
21377.764
23577.794
23643.615
21306.957
5711.2209
5674.9494
5817.6338
5815.1021
22509.414
23553.159
23504.801
21665.473
21312.019
21739.073
21483.917
23543.532
23502.579
5997.0626
5942.4052
6022.6302
6084.0211
22403.157
22432.119
5214.1516
5202.898
5328.4631
5314.3282
5379.6769
5380.4113
5424.7289
5449.6601
23282.815
23227.609
21351.101
21017.655
20817.894
20545.27
22659.734
22586.171
5802.9883
5746.2223
5781.0205
5822.3771
21621
22187.199
22977.782
22906.579
21165.611
20790.015
21513.424
21325.102
23473.912
23483.73
5866.5943
5800.8276
5743.7474
5787.9225
22369.976
21863.519
21578.341
21255.677
19311.595
19804.277
20292.37
19855.032
18770.987
18242.116
19775.962
21913.732
20000.14
21806.875
18852.409
20483.288
20331.395
18621.575
5280.7556
5220.6548
5150.9948
5201.3582
5177.2436
5170.8
5223.5993
5232.4946
19452.155
21749.202
19878.573
21470.547
18753.316
20348.312
19978.013
18300.819
19087.417
21204.208
19415.32
20979.421
18358.35
19887.648
19610.193
18035.578
17628.126
19201.291
18046.659
18821.324
18520.21
17412.653
17022.764
18170.963
18568.821
17447.497
18822.813
17723.679
18216.938
17142.576
18008.349
16909.533
17628.137
19238.873
18144.241
18772.758
18635.416
18181.303
17567.716
17073.719
17936.192
19314.223
18133.418
19163.827
17486.673
18628.005
18506.612
17323.295
16742.621
18007.965
17208.535
17575.701
16719.435
17663.416
17254.392
16298.616
17844.652
16951.813
17935.857
17090.924
16593.166
17566.746
17490.668
16474.039
16652.355
17845.288
17018.476
17517.015
16517.149
17470.437
17157.138
16185.966
17420.753
16583.541
17592.482
16787.542
16316.871
17254.084
17098.535
16135.857
3940.2498
3986.0175
4134.5102
4096.1202
3952.4069
4036.7724
4182.2573
4099.3158
4741.7252
4654.7025
4585.0243
4660.014
4692.0003
4610.8197
4587.8544
4676.6563
4781.1563
4749.8196
4842.128
4865.1699
4308.1388
4194.9588
4215.2729
4351.9954
4058.6557
4175.5536
4333.732
4241.2796
4901.3691
4818.4055
4748.3989
4860.7204
16184.817
17218.863
16436.618
17026.493
16843.737
15945.381
15701.23
16655.078
17867.19
16947.873
17900.108
17037.107
17505.614
16509.988
17473.919
16420.988
19288.253
18127.908
17762.879
18954.667
19105.944
19270.288
18144.044
17951.873
17154.089
18599.082
17487.395
18304.472
18508.083
17381.035
18637.1
17538.991
17175.297
18560.816
17467.765
18341.644
17900.254
16845.176
16568.586
17682.092
18004.055
19330.127
18126.315
19259.708
18616.471
17459.506
18565.098
17354.277
17918.73
17090.866
16787.308
17649.779
17995.343
17177.62
17894.223
17041.604
16572.661
16303.958
17539.556
17296.045
17563.524
17654.902
16699.436
16568.185
23320.591
23265.599
21413.295
21100.503
21357.691
21147.612
23212.493
23167.487
5840.9032
5769.2014
5908.2193
5974.7806
22125.082
22200.748
22426.895
22432.278
20595.128
20355.145
21629.394
21485.604
23644.635
23677.613
5696.4933
5627.2621
5747.6243
5779.9589
22528.016
21356.804
21819.217
21556.983
19959.801
19555.352
20085.505
18842.614
18426.861
20432.128
21744.871
21588.354
19670.661
19916.106
20381.057
20189.149
18816.018
18582.448
18912.07
20979.942
19207.452
20824.32
19655.983
18144.877
17839.123
19440.977
19900.408
22021.123
20058.482
21967.068
20534.286
18869.415
20453.013
18714.201
5129.3991
5068.6809
5185.6762
5217.2438
5246.8211
5169.1765
5237.0972
5329.5661
22704.465
22635.247
20696.423
20383.986
20039.903
19787.931
21949.824
21865.355
5610.3013
5595.8024
5563.0532
5570.4602
20965.468
21682.427
22533.312
22512.774
20665.732
20413.175
21492.385
21341.194
23558.906
23565.709
5674.1117
5612.1529
5738.7799
5762.3798
22476.648
21446.328
21058.542
20864.367
18911.459
19245.053
19687.696
19414.381
18131.626
17781.659
19708.191
21868.733
19879.544
21785.848
18652.446
20336.007
20223.696
18480.753
5094.5594
5017.1216
5151.5583
5195.8612
5043.454
5094.8472
5107.0793
5061.9555
18796.884
21080.915
19196.323
20803.449
18071.829
19659.581
19300.982
17649.639
18309.226
20413.601
18613.95
20193.599
17568.006
19080.268
18806.123
17253.05
16988.821
18516.633
17369.341
18155.405
17836.756
16742.664
16396.759
17517.13
17763.761
16661.444
18029.239
16942.362
17432.192
16381.355
17202.352
16135.822
16111.7
17152.742
16363.4
16945.421
15869.084
16782.134
16584.447
15643.903
17585.187
16680.078
17619.592
16753.497
16230.734
17212.273
17194.237
16177.417
17095.447
18541.761
17415.69
18261.83
17847.626
17598.581
16772.393
16485.505
17740.871
19091.458
17875.372
18989.447
17189.674
18351.062
18282.209
17088.007
16035.995
17168.406
16352.488
16876.97
15866.799
16795.775
16525.305
15580.889
16632.897
15823.692
16829.296
16043.352
15603.043
16506.558
16326.088
15404.09
3987.729
3832.0288
3935.9947
4088.8389
3946.3625
4007.9599
4131.066
4070.9085
4578.3134
4454.0845
4545.1839
4652.5476
4639.6625
4592.4816
4530.4829
4582.0568
4612.1482
4529.6101
4623.8524
4696.9517
4063.389
3890.6923
3969.0307
4132.8361
3924.5263
3939.9938
4107.4711
4104.3664
4682.9935
4585.8269
4607.73
4724.7122
11941.607
12763.799
12094.212
12628.241
12204.055
11588.213
11445.49
12072.413
12872.724
12155.182
12896.873
12196.653
12323.063
11719.092
12297.525
11633.374
14065.03
13327.236
13166.21
13925.443
13840.935
13941.959
13203.169
13099.816
12454.078
13461.441
12608.597
13333.251
13290.201
12424.737
13352.009
12496.93
13227.908
14127.823
13399.216
13980.168
13530.709
12683.182
12515.391
13390.175
13496.887
14359.769
13577.025
14306.202
13710.342
12810.92
13665.383
12751.752
12711.399
12033.84
11901.95
12589.154
11525.235
12044.598
12146.814
11426.996
12617.248
12583.431
11944.357
11897.882
11449.373
12052.903
11365.077
12071.676
12762.887
12667.836
12095.353
11986.71
11546.195
12109.836
11470.065
12191.005
13017.519
12304.88
12246.891
12991.852
11664.657
12415.72
11790.643
12372.857
14596.306
13805.862
14473.496
13671.677
13820.932
13914.172
13017.044
12902.018
14621.615
13779.967
14741.198
13903.025
13067.404
14010.594
13920.93
12980.433
14138.112
13997.973
13412.685
13259.233
13420.15
12557.43
13533.477
12692.443
14537.862
13736.977
13657.645
14480.609
12879.779
13859.8
12944.134
13824.787
13092.31
12385.233
12288.707
13015.938
13096.435
13151.698
12431.859
12366.462
11781.241
12478.521
11860.264
12418.7
12493.46
11804.572
12544.668
11927.042
15520.526
14808.736
14582.759
15349.964
15977
16059
15265.487
15132.911
13843.936
15011.568
14050.722
14828.201
15393.448
14323.911
15506.182
14437.425
15405.153
16311.883
15630.496
16130.482
16018.528
15225.092
14999.356
15848.56
16065.386
16927.362
16166.328
16888.538
16603.528
15717.148
16539.393
15597.84
16972.106
16238.471
15995.363
16762.904
17133.473
16399.257
16255.679
17043.842
15557.912
16648.424
15793.279
16459.103
15797.697
16846.088
15970.003
16731.786
16128.339
15354.722
15148.509
15948.895
16340.167
15547.561
16193.627
15369.997
14339.058
15569.289
14524.196
15418.095
15631.99
15790.956
14680.536
14520.936
16268.368
15561.622
15303.304
16033.831
15869.049
16028.971
15342.836
15155.159
15968.77
15141.507
14889.932
15754.431
15616.605
15774.055
14954.411
14764.692
16252.533
15572.492
15356.788
16080.007
16649.135
15908.056
15849.41
16646.675
15972.618
15171.495
14949.607
15802.36
16342.702
15472.981
15387.148
16318.571
14556.407
15499.872
14776.135
15319.122
14991.939
14024.966
13820.45
14809.786
14936.523
15829.224
15049.797
15772.978
15294.425
14248.893
15197.489
14151.047
15475.186
14728.596
14495.021
15265.436
15148.793
15309.892
14567.465
14381.154
13952.074
13763.567
14946.895
14750.819
14633.687
14801.227
13820.526
13668.614
277.81563
447.30792
436.11687
826.3577
801.488
596.31489
587.57223
791.24146
793.81806
581.92129
582.94202
274.90075
439.96729
451.01707
798.75064
789.28346
584.25167
581.04196
821.68417
843.93178
603.19242
612.66112
2353.1315
2021.6928
1944.911
2284.4696
1640.1963
1350.987
1309.4176
1575.1319
1239.3792
1246.6546
1508.5741
1486.9381
2208.8951
1863.6263
1827.1694
2150.2299
3752.9793
3556.042
3514.4097
3732.56
3085.0926
2798.0422
2727.2407
3023.4967
2565.6083
2645.8259
2957.5265
2864.6476
3690.2975
3440.7766
3334.2376
3578.4597
3583.0133
3369.9089
3261.3759
3485.2581
2891.0931
2584.0589
2507.6442
2800.658
2558.2695
2552.1088
2850.0961
2831.8629
3526.8219
3311.4415
3278.2183
3483.2247
1466.3812
1210.6531
1195.4929
1438.1732
1246.6275
1238.5227
1489.2899
1507.5316
1773.2146
1819.8279
2159.0194
2097.4258
2142.8923
1824.2002
1847.6981
2156.0535
1209.2578
1204.0249
1454.544
1457.0681
1217.5842
1235.5735
1494.457
1470.2722
1810.7106
1829.3392
2139.4365
2131.2667
2102.1367
1783.4379
1787.999
2101.4785
2808.2626
2530.7896
2541.3247
2828.1772
2497.2782
2504.9306
2792.9383
2779.4824
3283.0269
3238.2193
3455.5359
3506.803
3477.5112
3241.2507
3225.2075
3458.2225
2782.88
2511.2363
2559.8332
2835.2499
2699.0055
2657.421
2932.8062
2936.8486
3278.011
3215.3703
3406.5685
3480.7833
3563.0885
3377.3402
3352.8564
3519.8162
1416.866
1363.0279
1621.282
1692.5776
1258.3755
1255.0578
1500.059
1509.4501
2126.4456
1823.2132
1844.2196
2159.3965
2259.7304
1958.0232
2036.5211
2321.15
38196.022
39118.232
39296.561
38380.076
38466.469
38383.424
39237.188
39377.876
37700.794
36768.829
37157.242
38076.731
38436.153
37523.94
37895.793
38812.152
40105.167
39702.717
40073.892
39780.534
40737.414
40426.737
40439.853
40771.625
452.05835
449.26522
675.75532
638.88246
646.68682
822.56703
834.42304
1071.6611
1051.9273
991.02038
780.46497
778.35613
986.23223
780.48872
782.43218
993.72734
990.46884
6190.0145
4876.383
4770.0524
6139.0953
3663.5769
2107.2968
2001.1321
3545.3358
1831.9384
1843.0303
3338.88
3291.4507
5849.469
4527.1308
4455.4413
5721.4493
11046.26
9948.7231
10028.39
11200.432
8783.7505
7498.1397
7495.5711
8790.8855
7030.032
7197.7272
8510.7463
8324.237
10911.267
9735.4833
9543.1429
10704.467
11079.224
9903.3446
10043.031
11300.244
8649.5757
7297.0683
7289.0975
8694.7285
7206.6205
7197.156
8522.6611
8500.4025
10948.414
9759.343
9719.1256
10878.571
3366.0856
1881.8585
1866.2378
3355.0862
4557.5046
4592.2836
5920.9169
5880.1674
5863.4885
4593.1713
9502.243
10608.669
11974.048
12061.257
13154.368
13035.835
12468.227
12164.016
13219.287
13601.599
15305.427
14251.477
14704.088
15806.12
15324.243
14229.625
14067.555
15099.445
12997.742
12042.305
12301.902
13359.086
11807.139
12005.359
13065.697
12879.28
14376.326
13896.605
14796.094
15391.166
15145.524
14099.409
13930.15
14990.958
16645.332
15698.835
16403.1
17445.79
16058.951
16184.981
17260.77
17163.921
18519.511
17620.808
18680.351
19676.451
19562.919
18367.175
18299.594
19515.783
17465.07
16357.636
16902.102
18026.96
16129.8
16410.792
17536.455
19175.755
18588.413
19793.107
20398.252
19944.353
18695.979
36435.942
34963.984
35455.126
35969.432
35947.508
36370.32
37308.474
36916.707
37917.114
38440.285
37827.25
38348.712
38867.094
39295.854
38957.345
39386.584
35204.358
35887.279
36190.429