/*--------------------------------*- C++ -*----------------------------------*\
  =========                 |
  \\      /  F ield         | OpenFOAM: The Open Source CFD Toolbox
   \\    /   O peration     | Website:  https://openfoam.org
    \\  /    A nd           | Version:  7
     \\/     M anipulation  |
\*---------------------------------------------------------------------------*/
FoamFile
{
    version     2.0;
    format      ascii;
    class       volScalarField;
    location    "1000";
    object      p;
}
// * * * * * * * * * * * * * * * * * * * * * * * * * * * * * * * * * * * * * //

dimensions      [0 2 -2 0 0 0 0];

internalField   nonuniform List<scalar> 
34356
(
-6.4448373e+18
-6.520639e+18
-6.2994615e+18
-6.2620326e+18
-6.1434371e+18
-6.1770525e+18
-5.5400295e+18
-5.9452439e+18
-5.9155972e+18
-6.3519376e+18
-6.3527999e+18
-6.3163128e+18
-6.315288e+18
-6.19724e+18
-6.2152808e+18
-6.125793e+18
-6.108952e+18
-6.1791449e+18
-6.0912595e+18
-6.1616129e+18
-6.0748557e+18
-5.6977461e+18
-5.4784411e+18
-5.4985506e+18
-5.7228219e+18
-5.1391572e+18
-5.4360099e+18
-5.4165628e+18
-5.6079581e+18
-5.6306763e+18
-5.084486e+18
-5.3078355e+18
-5.621052e+18
-5.5129369e+18
-5.981191e+18
-5.9642696e+18
-5.9487164e+18
-5.9336391e+18
-6.2274055e+18
-6.193967e+18
-6.2093694e+18
-6.2436563e+18
-6.2641172e+18
-6.2559584e+18
-6.2471496e+18
-6.238049e+18
-6.1610102e+18
-6.1768801e+18
-6.2102043e+18
-6.1936325e+18
-6.212279e+18
-6.2291378e+18
-6.2024876e+18
-6.220037e+18
-6.0758184e+18
-6.1373461e+18
-6.1471977e+18
-6.085178e+18
-6.1560142e+18
-6.0942083e+18
-6.1647231e+18
-6.1023493e+18
-6.1201048e+18
-6.128877e+18
-6.0587181e+18
-6.0673222e+18
-6.0431046e+18
-6.1037605e+18
-6.1119705e+18
-6.0505085e+18
-5.8039611e+18
-5.8180294e+18
-5.6882276e+18
-5.6755527e+18
-5.5721374e+18
-5.4714682e+18
-5.4814329e+18
-5.5838912e+18
-5.2763353e+18
-5.5957407e+18
-5.4922165e+18
-5.5027411e+18
-5.6081673e+18
-5.2923696e+18
-5.8478237e+18
-5.8320061e+18
-5.7008372e+18
-5.7150568e+18
-5.0587218e+18
-5.070913e+18
-5.248012e+18
-5.2307518e+18
-5.0400481e+18
-5.055291e+18
-5.7223408e+18
-4.6428903e+18
-4.8731287e+18
-5.0853113e+18
-5.2038709e+18
-5.2105997e+18
-5.0900104e+18
-5.3120942e+18
-5.3054259e+18
-5.4117669e+18
-5.4187615e+18
-5.6686319e+18
-5.6211973e+18
-5.6150878e+18
-5.5725013e+18
-5.5667374e+18
-5.5174998e+18
-5.5220123e+18
-5.5257973e+18
-6.0039209e+18
-6.0122753e+18
-5.9863959e+18
-5.9951169e+18
-5.9690214e+18
-5.9781277e+18
-5.9550307e+18
-5.9615027e+18
-6.101901e+18
-6.0713424e+18
-6.1137374e+18
-6.0785068e+18
-6.0931988e+18
-6.1286715e+18
-6.1984176e+18
-6.181409e+18
-6.1888044e+18
-6.2062269e+18
-6.2109314e+18
-6.1963046e+18
-6.1877637e+18
-6.2028744e+18
-6.1813351e+18
-6.1648162e+18
-6.1732201e+18
-6.1900333e+18
-6.1851529e+18
-6.1940575e+18
-6.1694589e+18
-6.1789252e+18
-6.0491676e+18
-6.0635316e+18
-6.0985118e+18
-6.0836677e+18
-6.1332983e+18
-6.1412071e+18
-6.1570513e+18
-6.1489789e+18
-6.1652138e+18
-6.1492393e+18
-6.1567933e+18
-6.1731144e+18
-6.1520456e+18
-6.1601102e+18
-6.1359081e+18
-6.1441486e+18
-6.1686148e+18
-6.1524771e+18
-6.1767121e+18
-6.1610198e+18
-6.0999333e+18
-6.104809e+18
-6.064297e+18
-6.0598553e+18
-6.068986e+18
-6.1094395e+18
-6.114165e+18
-6.0737501e+18
-6.0780823e+18
-6.1183646e+18
-6.1232257e+18
-6.0826404e+18
-6.127572e+18
-6.1316034e+18
-6.0870173e+18
-6.0909326e+18
-6.0871872e+18
-6.0823825e+18
-6.0424046e+18
-6.0468618e+18
-6.0513775e+18
-6.0915124e+18
-6.0959137e+18
-6.055815e+18
-6.0673784e+18
-6.071034e+18
-6.0278284e+18
-6.0309161e+18
-6.0746864e+18
-6.0787378e+18
-6.0345686e+18
-6.0385524e+18
-5.3893985e+18
-5.341699e+18
-5.873296e+18
-5.7987121e+18
-5.7923181e+18
-5.8795016e+18
-5.8142611e+18
-5.8062984e+18
-5.8956933e+18
-5.8869381e+18
-5.7407162e+18
-5.6789087e+18
-5.6863196e+18
-5.7482444e+18
-5.7268872e+18
-5.6718054e+18
-5.6657165e+18
-5.7334357e+18
-5.6132379e+18
-5.5673129e+18
-5.561558e+18
-5.6190073e+18
-5.5219255e+18
-5.516118e+18
-5.4708801e+18
-5.4763709e+18
-5.3771661e+18
-5.4877534e+18
-5.4817577e+18
-5.5273793e+18
-5.3858284e+18
-5.5335368e+18
-5.5798766e+18
-5.5732914e+18
-5.6256309e+18
-5.6329123e+18
-5.2841039e+18
-5.2763347e+18
-5.6392455e+18
-5.592376e+18
-5.5862215e+18
-5.6455867e+18
-5.4990334e+18
-5.4932957e+18
-5.5455553e+18
-5.5394044e+18
-5.3954627e+18
-5.5113823e+18
-5.5047437e+18
-5.5517536e+18
-5.4039735e+18
-5.5593437e+18
-5.6070804e+18
-5.652823e+18
-5.5990442e+18
-5.6611773e+18
-5.2990444e+18
-5.2913117e+18
-5.9205276e+18
-5.8453671e+18
-5.8375301e+18
-5.9286303e+18
-5.9035841e+18
-5.8292685e+18
-5.8215608e+18
-5.9118917e+18
-5.7548946e+18
-5.6925816e+18
-5.6993412e+18
-5.7623978e+18
-5.7153386e+18
-5.7070366e+18
-5.7702064e+18
-5.77818e+18
-4.6246479e+18
-4.8518136e+18
-4.6331184e+18
-4.8621739e+18
-5.0616427e+18
-5.1773222e+18
-5.1840991e+18
-5.0650929e+18
-5.0700119e+18
-5.1896659e+18
-5.1975443e+18
-5.0784288e+18
-5.7761633e+18
-5.8105217e+18
-5.7169395e+18
-5.7460296e+18
-5.719645e+18
-5.7486051e+18
-4.5909045e+18
-4.9576534e+18
-4.9611619e+18
-4.7978847e+18
-4.7982347e+18
-5.1847621e+18
-5.1206332e+18
-5.1194554e+18
-5.1848896e+18
-5.2824153e+18
-5.2344646e+18
-5.2355709e+18
-5.284295e+18
-5.2873936e+18
-5.2382403e+18
-5.2411102e+18
-5.2901191e+18
-5.1204748e+18
-5.1867155e+18
-5.1902206e+18
-5.3365683e+18
-5.3329129e+18
-5.3802813e+18
-5.3842625e+18
-5.3282821e+18
-5.3303712e+18
-5.3750093e+18
-5.3776859e+18
-5.4208615e+18
-5.4237709e+18
-5.4697695e+18
-5.4733662e+18
-5.4267997e+18
-5.4305994e+18
-5.4768247e+18
-5.4802922e+18
-5.6624941e+18
-5.6897839e+18
-5.665575e+18
-5.6926303e+18
-5.6190756e+18
-5.6221008e+18
-5.6435456e+18
-5.6124793e+18
-5.6371508e+18
-5.6159521e+18
-5.640526e+18
-5.6685547e+18
-5.5713028e+18
-5.5954334e+18
-5.5739839e+18
-5.5984454e+18
-5.5647332e+18
-5.5888453e+18
-5.5683873e+18
-5.5924172e+18
-5.541206e+18
-5.544596e+18
-5.5167803e+18
-5.5196468e+18
-5.5473366e+18
-5.5497168e+18
-5.5243224e+18
-5.5221533e+18
-5.5514319e+18
-5.5526643e+18
-5.5259504e+18
-5.5269785e+18
-5.5758099e+18
-6.0219118e+18
-6.0262156e+18
-6.0345591e+18
-6.0304345e+18
-6.0039526e+18
-6.0080667e+18
-6.0125431e+18
-6.0175851e+18
-5.9905886e+18
-5.9865053e+18
-5.9998693e+18
-5.9950599e+18
-5.9726141e+18
-5.9751589e+18
-5.9784816e+18
-5.9826601e+18
-5.8769206e+18
-5.8507453e+18
-5.9986056e+18
-6.1181198e+18
-6.1103296e+18
-5.9692566e+18
-5.9832535e+18
-6.0124545e+18
-6.125659e+18
-6.1329765e+18
-6.1479934e+18
-6.1555105e+18
-6.1747772e+18
-6.1784756e+18
-6.1826507e+18
-6.1788501e+18
-6.1756754e+18
-6.1566349e+18
-6.1718e+18
-6.1526981e+18
-6.1630653e+18
-6.1435682e+18
-6.1676607e+18
-6.1483862e+18
-6.1708464e+18
-6.1665663e+18
-6.170432e+18
-6.1748007e+18
-6.1320594e+18
-6.1400398e+18
-6.1540783e+18
-6.1497773e+18
-6.1531216e+18
-6.1575088e+18
-6.1624853e+18
-6.1583799e+18
-6.161926e+18
-6.1661685e+18
-6.145338e+18
-6.1499767e+18
-6.1301763e+18
-6.1253067e+18
-6.1348417e+18
-6.1393642e+18
-6.15447e+18
-6.1588248e+18
-5.9424744e+18
-5.9558214e+18
-5.9850842e+18
-6.1029241e+18
-6.0956143e+18
-5.9721431e+18
-6.0883591e+18
-6.0809121e+18
-6.1092309e+18
-6.1017149e+18
-6.1168033e+18
-6.1243511e+18
-6.1447495e+18
-6.1211628e+18
-6.1223665e+18
-6.1184471e+18
-6.1250461e+18
-6.1300748e+18
-6.1262995e+18
-6.1290181e+18
-6.1328387e+18
-6.1130787e+18
-6.0928183e+18
-6.1170741e+18
-6.0967272e+18
-6.1210236e+18
-6.1006082e+18
-6.1045287e+18
-6.124871e+18
-6.1339287e+18
-6.1380687e+18
-6.1368246e+18
-6.1409937e+18
-6.1287579e+18
-6.1082553e+18
-6.1331406e+18
-6.1128686e+18
-6.1458619e+18
-6.1420546e+18
-6.1450974e+18
-6.1490501e+18
-6.1372957e+18
-6.1413239e+18
-6.1171632e+18
-6.1213529e+18
-6.0727377e+18
-6.0703498e+18
-6.0489333e+18
-6.0510694e+18
-6.077121e+18
-6.0749914e+18
-6.0533094e+18
-6.0555345e+18
-6.079404e+18
-6.0578359e+18
-6.0819977e+18
-6.0603182e+18
-6.0627899e+18
-6.0844025e+18
-6.0866133e+18
-6.065128e+18
-6.0910008e+18
-6.0886793e+18
-6.067182e+18
-6.0693296e+18
-6.0955807e+18
-6.0933453e+18
-6.0716414e+18
-6.0739623e+18
-6.097688e+18
-6.0999728e+18
-6.0760756e+18
-6.0782563e+18
-6.101982e+18
-6.1036773e+18
-6.0803135e+18
-6.0820739e+18
-6.0594848e+18
-6.0572466e+18
-6.035723e+18
-6.0379937e+18
-6.0549014e+18
-6.0528257e+18
-6.0314976e+18
-6.0334472e+18
-6.061574e+18
-6.0639827e+18
-6.0401578e+18
-6.0424781e+18
-6.0683434e+18
-6.0662448e+18
-6.0447883e+18
-6.0469705e+18
-6.0399595e+18
-6.0384837e+18
-6.0173388e+18
-6.0185719e+18
-6.0201366e+18
-6.0416009e+18
-6.0432138e+18
-6.0217478e+18
-6.0469998e+18
-6.0448963e+18
-6.023478e+18
-6.0254918e+18
-6.051009e+18
-6.0490323e+18
-6.0276147e+18
-6.0296754e+18
-4.3599585e+18
-5.4212634e+18
-5.3998759e+18
-5.4019239e+18
-5.4228145e+18
-5.3791098e+18
-5.3578769e+18
-5.3812471e+18
-5.4650563e+18
-5.3671508e+18
-5.5099393e+18
-5.5551216e+18
-5.2676926e+18
-4.8429992e+18
-4.6086964e+18
-4.6162645e+18
-5.1699236e+18
-5.0548856e+18
-5.8685718e+18
-5.9203826e+18
-5.8710467e+18
-5.9227993e+18
-5.7915061e+18
-5.7954617e+18
-5.8316924e+18
-5.8354847e+18
-5.7855131e+18
-5.8257257e+18
-5.7881558e+18
-5.8284903e+18
-5.8742211e+18
-5.926008e+18
-5.8780443e+18
-5.9300756e+18
-5.8073254e+18
-5.8115043e+18
-5.8475311e+18
-5.851859e+18
-5.7992984e+18
-5.8391941e+18
-5.8032624e+18
-5.8433836e+18
-5.8901954e+18
-5.8948219e+18
-5.9422836e+18
-5.9471503e+18
-5.933768e+18
-5.881717e+18
-5.8857508e+18
-5.9378084e+18
-5.7311283e+18
-5.764898e+18
-5.7350436e+18
-5.7688334e+18
-5.6722917e+18
-5.67613e+18
-5.7013009e+18
-5.7053185e+18
-5.6798129e+18
-5.6834565e+18
-5.7089566e+18
-5.7125749e+18
-5.738772e+18
-5.7425479e+18
-5.7727209e+18
-5.7767938e+18
-5.7172428e+18
-5.7510362e+18
-5.7199565e+18
-5.7537032e+18
-5.6647207e+18
-5.6685231e+18
-5.6936015e+18
-5.6974846e+18
-5.6588596e+18
-5.687547e+18
-5.6615353e+18
-5.6904021e+18
-5.7232256e+18
-5.7272054e+18
-5.7570143e+18
-5.7610851e+18
-5.6054942e+18
-5.6322083e+18
-5.6080756e+18
-5.6348054e+18
-5.5624069e+18
-5.5657064e+18
-5.586339e+18
-5.5897249e+18
-5.5567777e+18
-5.5807433e+18
-5.5594902e+18
-5.5834947e+18
-5.6109636e+18
-5.6144892e+18
-5.6378044e+18
-5.6415464e+18
-5.517003e+18
-5.5397049e+18
-5.5201657e+18
-5.5429637e+18
-5.5112129e+18
-5.5340453e+18
-5.5141621e+18
-5.5368395e+18
-5.4894484e+18
-5.4923831e+18
-5.4672614e+18
-5.4277387e+18
-5.4699634e+18
-5.4952191e+18
-5.4983535e+18
-5.4328435e+18
-5.4760685e+18
-5.4729496e+18
-5.3834523e+18
-5.388167e+18
-5.5069541e+18
-5.5101701e+18
-5.4437556e+18
-5.4878042e+18
-5.4846881e+18
-5.5010196e+18
-5.504034e+18
-5.4378796e+18
-5.4816518e+18
-5.4787974e+18
-5.5228011e+18
-5.5458692e+18
-5.5257462e+18
-5.5489134e+18
-5.392535e+18
-5.3982454e+18
-5.5287256e+18
-5.5520122e+18
-5.5320901e+18
-5.5555537e+18
-5.5753717e+18
-5.6000462e+18
-5.5789622e+18
-5.6036506e+18
-5.5688958e+18
-5.5931173e+18
-5.5721096e+18
-5.5966869e+18
-5.6181028e+18
-5.6452379e+18
-5.6217609e+18
-5.6490484e+18
-5.6253498e+18
-5.652699e+18
-5.6290054e+18
-5.6564097e+18
-5.3101361e+18
-5.3055116e+18
-5.34955e+18
-5.3549303e+18
-5.3413149e+18
-5.2978053e+18
-5.301462e+18
-5.3456251e+18
-5.6322157e+18
-5.6594323e+18
-5.6352252e+18
-5.66241e+18
-5.5884002e+18
-5.5920821e+18
-5.6131858e+18
-5.6168895e+18
-5.5822578e+18
-5.6069327e+18
-5.5852656e+18
-5.6100781e+18
-5.6384091e+18
-5.6422493e+18
-5.6657177e+18
-5.6697874e+18
-5.5190443e+18
-5.5224716e+18
-5.4543347e+18
-5.4998047e+18
-5.4965275e+18
-5.5130258e+18
-5.5160382e+18
-5.4492656e+18
-5.4934095e+18
-5.4906034e+18
-5.5410878e+18
-5.5647002e+18
-5.5446608e+18
-5.5683981e+18
-5.5350687e+18
-5.5586722e+18
-5.5380607e+18
-5.5616342e+18
-5.4039214e+18
-5.4081788e+18
-5.532652e+18
-5.5371197e+18
-5.4648574e+18
-5.5131666e+18
-5.5092327e+18
-5.5254988e+18
-5.5290396e+18
-5.459302e+18
-5.5057873e+18
-5.5027117e+18
-5.5478661e+18
-5.5717633e+18
-5.55153e+18
-5.5754899e+18
-5.4122019e+18
-5.4166142e+18
-5.5553835e+18
-5.5795084e+18
-5.560222e+18
-5.5844531e+18
-5.6035248e+18
-5.628732e+18
-5.608313e+18
-5.6332828e+18
-5.6461346e+18
-5.6737438e+18
-5.6502701e+18
-5.6779543e+18
-5.595568e+18
-5.6205333e+18
-5.5993944e+18
-5.6246229e+18
-5.6544721e+18
-5.6821683e+18
-5.6588785e+18
-5.6864981e+18
-5.3211873e+18
-5.3250234e+18
-5.3673846e+18
-5.3711907e+18
-5.3603439e+18
-5.3145032e+18
-5.3176756e+18
-5.3639316e+18
-5.9162844e+18
-5.9688726e+18
-5.9205146e+18
-5.973149e+18
-5.8396338e+18
-5.8431018e+18
-5.8808324e+18
-5.8841933e+18
-5.8315954e+18
-5.8726619e+18
-5.8357391e+18
-5.8770436e+18
-5.9244603e+18
-5.9773016e+18
-5.9280367e+18
-5.9812614e+18
-5.8989111e+18
-5.9511617e+18
-5.9029186e+18
-5.9552299e+18
-5.8228123e+18
-5.8638007e+18
-5.8273687e+18
-5.8684028e+18
-5.8152117e+18
-5.8557383e+18
-5.8188524e+18
-5.8597861e+18
-5.9071166e+18
-5.9118924e+18
-5.9595897e+18
-5.9646236e+18
-5.7459394e+18
-5.7492515e+18
-5.7802982e+18
-5.7837899e+18
-5.6864524e+18
-5.715697e+18
-5.6894793e+18
-5.7189889e+18
-5.692989e+18
-5.6971408e+18
-5.7225463e+18
-5.7267381e+18
-5.7529611e+18
-5.7572682e+18
-5.7876108e+18
-5.7921317e+18
-5.7095676e+18
-5.7137206e+18
-5.7391383e+18
-5.7430413e+18
-5.7011369e+18
-5.7053574e+18
-5.7307219e+18
-5.735063e+18
-5.7613121e+18
-5.7962131e+18
-5.7654957e+18
-5.8003754e+18
-5.7695446e+18
-5.7733076e+18
-5.8043098e+18
-5.8079617e+18
-4.5735973e+18
-4.7795834e+18
-4.9372929e+18
-4.9392105e+18
-4.7782764e+18
-4.5818982e+18
-4.9437059e+18
-4.9525124e+18
-4.7830534e+18
-4.7928726e+18
-5.1596941e+18
-5.0977131e+18
-5.09682e+18
-5.1603851e+18
-5.2537032e+18
-5.207499e+18
-5.2095327e+18
-5.2569179e+18
-5.261135e+18
-5.2127606e+18
-5.2158891e+18
-5.2648476e+18
-5.0972242e+18
-5.0998034e+18
-5.1620548e+18
-5.1643696e+18
-5.1043107e+18
-5.1024387e+18
-5.1672846e+18
-5.1700412e+18
-5.218653e+18
-5.221455e+18
-5.268253e+18
-5.2711322e+18
-5.2263051e+18
-5.231114e+18
-5.2753684e+18
-5.2794332e+18
-5.1162438e+18
-5.1088216e+18
-5.1745658e+18
-5.1801763e+18
-5.771339e+18
-5.7724122e+18
-5.7889688e+18
-5.7878886e+18
-5.8045681e+18
-5.8230639e+18
-5.8239649e+18
-5.8055197e+18
-5.7139702e+18
-5.7126712e+18
-5.7267931e+18
-5.7280693e+18
-5.7420367e+18
-5.7408777e+18
-5.7561404e+18
-5.7572427e+18
-5.7308691e+18
-5.7153706e+18
-5.7294123e+18
-5.7169089e+18
-5.7584786e+18
-5.7433688e+18
-5.7447346e+18
-5.7597702e+18
-4.7836482e+18
-4.7830537e+18
-5.0414153e+18
-5.0392982e+18
-4.9347406e+18
-4.9297464e+18
-5.0399314e+18
-4.93042e+18
-5.2430545e+18
-5.2212324e+18
-5.2208214e+18
-5.2433414e+18
-5.196065e+18
-5.1609287e+18
-5.1587488e+18
-5.1950815e+18
-5.157142e+18
-5.1572916e+18
-5.1940504e+18
-5.1938671e+18
-5.2434884e+18
-5.22004e+18
-5.2199473e+18
-5.2436398e+18
-5.3243764e+18
-5.303515e+18
-5.3042838e+18
-5.3252072e+18
-5.2836638e+18
-5.2637173e+18
-5.2643062e+18
-5.2843817e+18
-5.2655996e+18
-5.2649824e+18
-5.2853655e+18
-5.2864389e+18
-5.3264708e+18
-5.3054109e+18
-5.306573e+18
-5.3276667e+18
-5.3287097e+18
-5.3078901e+18
-5.3083704e+18
-5.3292489e+18
-5.2875926e+18
-5.2665667e+18
-5.2673273e+18
-5.2882188e+18
-5.271596e+18
-5.2691518e+18
-5.2896389e+18
-5.2920946e+18
-5.3307653e+18
-5.3096364e+18
-5.3122749e+18
-5.3335801e+18
-5.1946187e+18
-5.157405e+18
-5.1575508e+18
-5.1950745e+18
-5.2213962e+18
-5.2208218e+18
-5.2443399e+18
-5.2451516e+18
-5.2471533e+18
-5.223428e+18
-5.315103e+18
-5.3366352e+18
-5.3548338e+18
-5.3518893e+18
-5.3731436e+18
-5.376142e+18
-5.3499388e+18
-5.3491244e+18
-5.3700891e+18
-5.3710306e+18
-5.4136049e+18
-5.3911809e+18
-5.3921108e+18
-5.4144578e+18
-5.416418e+18
-5.3942513e+18
-5.397089e+18
-5.4189629e+18
-5.3655968e+18
-5.3449095e+18
-5.3459415e+18
-5.36687e+18
-5.3483892e+18
-5.3473027e+18
-5.3683322e+18
-5.3694647e+18
-5.3875682e+18
-5.3861262e+18
-5.4078961e+18
-5.4094827e+18
-5.4111572e+18
-5.389166e+18
-5.3903957e+18
-5.4126482e+18
-5.4512438e+18
-5.4293299e+18
-5.4310891e+18
-5.453246e+18
-5.4343991e+18
-5.4328347e+18
-5.45504e+18
-5.4567373e+18
-5.4750384e+18
-5.4728676e+18
-5.4951626e+18
-5.4976605e+18
-5.4998748e+18
-5.4770535e+18
-5.478864e+18
-5.5019401e+18
-5.4580513e+18
-5.4355828e+18
-5.4364801e+18
-5.4590425e+18
-5.4403101e+18
-5.4382358e+18
-5.4605541e+18
-5.462172e+18
-5.4813069e+18
-5.4803386e+18
-5.5034607e+18
-5.5044448e+18
-5.5057371e+18
-5.4827249e+18
-5.484046e+18
-5.5068284e+18
-5.6736546e+18
-5.6590653e+18
-5.6720806e+18
-5.6606312e+18
-5.6852108e+18
-5.6990833e+18
-5.700407e+18
-5.6866344e+18
-5.663856e+18
-5.6766992e+18
-5.662205e+18
-5.6751196e+18
-5.6881159e+18
-5.7018446e+18
-5.689676e+18
-5.7034252e+18
-5.6176157e+18
-5.6291399e+18
-5.6306634e+18
-5.6190607e+18
-5.6219342e+18
-5.6204766e+18
-5.6320713e+18
-5.6334857e+18
-5.6544669e+18
-5.6407769e+18
-5.6530165e+18
-5.6422686e+18
-5.6241214e+18
-5.6105376e+18
-5.6222485e+18
-5.6124588e+18
-5.6340902e+18
-5.6465517e+18
-5.6481472e+18
-5.635806e+18
-5.6275627e+18
-5.6142025e+18
-5.6257959e+18
-5.6159931e+18
-5.6375052e+18
-5.6497868e+18
-5.6392371e+18
-5.6515135e+18
-5.6653383e+18
-5.678161e+18
-5.6795545e+18
-5.6667251e+18
-5.571973e+18
-5.5732572e+18
-5.5832782e+18
-5.5846324e+18
-5.5959658e+18
-5.6060747e+18
-5.6075013e+18
-5.5945867e+18
-5.5746698e+18
-5.5759367e+18
-5.5872631e+18
-5.5859409e+18
-5.5973007e+18
-5.5986963e+18
-5.6088793e+18
-5.6103581e+18
-5.5781398e+18
-5.5646122e+18
-5.5758777e+18
-5.5668643e+18
-5.5872886e+18
-5.5989079e+18
-5.6008858e+18
-5.5894096e+18
-5.581895e+18
-5.5688825e+18
-5.5799938e+18
-5.5707577e+18
-5.5912121e+18
-5.6026548e+18
-5.5930777e+18
-5.6044785e+18
-5.5393413e+18
-5.541381e+18
-5.5530036e+18
-5.5551618e+18
-5.5570858e+18
-5.5589776e+18
-5.5431022e+18
-5.5448701e+18
-5.5212438e+18
-5.5245746e+18
-5.546198e+18
-5.5474554e+18
-5.5601846e+18
-5.5614666e+18
-5.5627098e+18
-5.5639335e+18
-5.5484623e+18
-5.5495037e+18
-5.5292061e+18
-5.5272891e+18
-5.550242e+18
-5.5508536e+18
-5.5646112e+18
-5.5652224e+18
-5.5658928e+18
-5.5665362e+18
-5.5513829e+18
-5.5519824e+18
-5.5306445e+18
-5.5316797e+18
-5.5889449e+18
-5.5766763e+18
-5.5882357e+18
-5.5772826e+18
-6.032496e+18
-6.0345086e+18
-6.0366877e+18
-6.0391368e+18
-6.0452144e+18
-6.0471018e+18
-6.0432411e+18
-6.0412091e+18
-6.0143474e+18
-6.0162879e+18
-6.0183571e+18
-6.0207296e+18
-6.022987e+18
-6.0254122e+18
-6.0278337e+18
-6.0303905e+18
-6.0008821e+18
-6.003207e+18
-5.9989317e+18
-5.9970147e+18
-6.0098841e+18
-6.0123092e+18
-6.0075916e+18
-6.0053388e+18
-5.9841234e+18
-5.9830896e+18
-5.9871511e+18
-5.9854603e+18
-5.9888393e+18
-5.990693e+18
-5.995025e+18
-5.9927261e+18
-5.8252378e+18
-5.6456075e+18
-5.8523908e+18
-5.8654232e+18
-5.623784e+18
-5.8401445e+18
-5.8277963e+18
-6.0611735e+18
-6.053861e+18
-5.8863282e+18
-5.9928312e+18
-5.9995277e+18
-6.0751764e+18
-6.0682537e+18
-5.8990178e+18
-6.0063781e+18
-6.0126575e+18
-6.1037678e+18
-6.1004187e+18
-6.1115432e+18
-6.1151716e+18
-6.141749e+18
-6.1457649e+18
-6.1110459e+18
-6.1073798e+18
-6.118844e+18
-6.1223804e+18
-6.1495568e+18
-6.1532321e+18
-6.1631482e+18
-6.1647177e+18
-6.1665322e+18
-6.1648057e+18
-6.1608292e+18
-6.159024e+18
-6.1612331e+18
-6.1628623e+18
-6.1565853e+18
-6.1624285e+18
-6.1641948e+18
-6.1584307e+18
-6.122489e+18
-6.1448643e+18
-6.1465914e+18
-6.1241276e+18
-6.1584478e+18
-6.1604506e+18
-6.1547148e+18
-6.1525647e+18
-6.1406746e+18
-6.1429884e+18
-6.1204255e+18
-6.1181922e+18
-6.1522319e+18
-6.1499594e+18
-6.1438593e+18
-6.146243e+18
-6.109111e+18
-6.1317182e+18
-6.1342151e+18
-6.1114533e+18
-6.1564928e+18
-6.1545223e+18
-6.1484782e+18
-6.1506055e+18
-6.1386318e+18
-6.1364495e+18
-6.1138469e+18
-6.1160316e+18
-6.1532305e+18
-6.1508384e+18
-6.152494e+18
-6.1547894e+18
-6.1569784e+18
-6.1553685e+18
-6.1571504e+18
-6.1589096e+18
-6.088722e+18
-6.0854267e+18
-6.0998389e+18
-6.0962917e+18
-6.1256722e+18
-6.1296573e+18
-6.0966063e+18
-6.0925259e+18
-6.1036712e+18
-6.1076568e+18
-6.1336879e+18
-6.1377752e+18
-6.1355456e+18
-6.1342042e+18
-6.1377423e+18
-6.1365175e+18
-6.1386455e+18
-6.1404981e+18
-6.1399179e+18
-6.1419273e+18
-6.1440235e+18
-6.1425301e+18
-6.1463e+18
-6.1449535e+18
-6.1470659e+18
-6.1488751e+18
-6.1484472e+18
-6.1504362e+18
-6.1262952e+18
-6.1327342e+18
-6.134911e+18
-6.1286037e+18
-6.1392416e+18
-6.1371848e+18
-6.1330569e+18
-6.1308439e+18
-6.1184832e+18
-6.0955633e+18
-6.0977221e+18
-6.1207376e+18
-6.0908085e+18
-6.1137837e+18
-6.1162338e+18
-6.0931791e+18
-6.1228904e+18
-6.1254226e+18
-6.1025428e+18
-6.1000013e+18
-6.1049356e+18
-6.1275962e+18
-6.1297051e+18
-6.1070599e+18
-6.1436095e+18
-6.1413814e+18
-6.137513e+18
-6.1351656e+18
-6.1478517e+18
-6.1458154e+18
-6.1418007e+18
-6.1396669e+18
-5.9144431e+18
-5.9290629e+18
-5.9581145e+18
-6.0469875e+18
-6.040165e+18
-5.8740598e+18
-5.980304e+18
-5.9862935e+18
-6.0335477e+18
-6.0264845e+18
-5.862839e+18
-5.9675038e+18
-5.9740697e+18
-6.0943791e+18
-6.0676343e+18
-6.0638631e+18
-6.0744289e+18
-6.1027706e+18
-6.0780843e+18
-6.1065247e+18
-6.0602162e+18
-6.0570471e+18
-6.0673968e+18
-6.0707858e+18
-6.0953677e+18
-6.0990828e+18
-6.0743306e+18
-6.0711008e+18
-6.0817266e+18
-6.0852193e+18
-6.1102898e+18
-6.1141959e+18
-6.0817826e+18
-6.07799e+18
-6.0889494e+18
-6.0926558e+18
-6.1180274e+18
-6.1218676e+18
-6.1149364e+18
-6.111387e+18
-6.1140844e+18
-6.1175986e+18
-6.1097288e+18
-6.0898223e+18
-6.1032786e+18
-6.1053682e+18
-6.1062289e+18
-6.1043015e+18
-6.1073484e+18
-6.1089789e+18
-6.1099656e+18
-6.1082189e+18
-6.1107827e+18
-6.112969e+18
-6.1138441e+18
-6.111816e+18
-6.115818e+18
-6.1149133e+18
-6.1165406e+18
-6.117586e+18
-6.1012542e+18
-6.103124e+18
-6.0944537e+18
-6.0963912e+18
-6.0587734e+18
-6.0817555e+18
-6.0837126e+18
-6.0603931e+18
-6.1051581e+18
-6.0983187e+18
-6.1069246e+18
-6.1001744e+18
-6.0873038e+18
-6.0855063e+18
-6.0621902e+18
-6.0638566e+18
-6.1087886e+18
-6.1107523e+18
-6.104036e+18
-6.1019809e+18
-6.0655741e+18
-6.0890677e+18
-6.0912401e+18
-6.0676063e+18
-6.0697086e+18
-6.0931412e+18
-6.0949822e+18
-6.0715536e+18
-6.1127631e+18
-6.1145542e+18
-6.1078295e+18
-6.1059534e+18
-6.1206273e+18
-6.1183768e+18
-6.1194779e+18
-6.1215905e+18
-6.1244772e+18
-6.122708e+18
-6.1237132e+18
-6.125636e+18
-6.1185417e+18
-6.1164519e+18
-6.1096818e+18
-6.1119173e+18
-6.0732928e+18
-6.0967682e+18
-6.0991447e+18
-6.0754966e+18
-6.1227115e+18
-6.1207485e+18
-6.1140903e+18
-6.1161765e+18
-6.103478e+18
-6.1013374e+18
-6.077909e+18
-6.0801044e+18
-6.1275978e+18
-6.1263739e+18
-6.1286606e+18
-6.1297325e+18
-6.1317564e+18
-6.1306449e+18
-6.1323263e+18
-6.1336028e+18
-6.1268004e+18
-6.1247148e+18
-6.1181585e+18
-6.1203544e+18
-6.1307617e+18
-6.1288773e+18
-6.1223652e+18
-6.124372e+18
-6.1078762e+18
-6.1055027e+18
-6.0822258e+18
-6.0845985e+18
-6.111866e+18
-6.1098915e+18
-6.0868472e+18
-6.0888288e+18
-4.333721e+18
-6.0306587e+18
-6.0284739e+18
-6.0349537e+18
-6.0328013e+18
-6.0372732e+18
-6.0397949e+18
-6.0421884e+18
-6.0445051e+18
-6.0488623e+18
-6.0466869e+18
-6.0534691e+18
-6.0511765e+18
-6.05555e+18
-6.0576717e+18
-6.0595745e+18
-6.0612935e+18
-6.01745e+18
-6.0152748e+18
-6.0132202e+18
-6.0112447e+18
-6.0195554e+18
-6.0218441e+18
-6.0263466e+18
-6.0240999e+18
-5.9982761e+18
-5.9970344e+18
-5.999735e+18
-6.0013282e+18
-6.005027e+18
-6.0030334e+18
-6.0091287e+18
-6.0069935e+18
-4.3471186e+18
-5.4307842e+18
-5.4112673e+18
-5.4134382e+18
-5.4323873e+18
-5.3917976e+18
-5.3723702e+18
-5.3943907e+18
-5.4831966e+18
-5.4865369e+18
-5.4221138e+18
-5.4644516e+18
-5.4612309e+18
-5.4156302e+18
-5.3709995e+18
-5.3775558e+18
-5.5046319e+18
-5.5275298e+18
-5.5081031e+18
-5.5310145e+18
-5.5503985e+18
-5.5537597e+18
-5.5778572e+18
-5.292512e+18
-5.2861561e+18
-5.3289362e+18
-5.3354386e+18
-4.7673767e+18
-4.9247663e+18
-4.7759171e+18
-4.9326833e+18
-4.567198e+18
-5.0813538e+18
-5.243398e+18
-5.1973222e+18
-5.2031019e+18
-5.249257e+18
-5.0930062e+18
-5.0855491e+18
-5.1484599e+18
-5.1544129e+18
-5.8937706e+18
-5.8658596e+18
-5.8925461e+18
-5.8669334e+18
-5.9196963e+18
-5.9514751e+18
-5.9524048e+18
-5.9207008e+18
-5.869787e+18
-5.8963983e+18
-5.868252e+18
-5.8949574e+18
-5.9219982e+18
-5.9537146e+18
-5.9235238e+18
-5.9553933e+18
-5.7862881e+18
-5.8059633e+18
-5.8078658e+18
-5.7881147e+18
-5.7920877e+18
-5.7900376e+18
-5.8096965e+18
-5.8116639e+18
-5.8502306e+18
-5.8256921e+18
-5.8485895e+18
-5.8274226e+18
-5.8313536e+18
-5.8542393e+18
-5.8293314e+18
-5.8521579e+18
-5.8013922e+18
-5.780434e+18
-5.8001146e+18
-5.7815822e+18
-5.8199262e+18
-5.8429587e+18
-5.8440133e+18
-5.8210546e+18
-5.8042728e+18
-5.7829702e+18
-5.8027132e+18
-5.7845706e+18
-5.8224749e+18
-5.8454054e+18
-5.8240432e+18
-5.8469954e+18
-5.8713542e+18
-5.8979557e+18
-5.8997148e+18
-5.8729764e+18
-5.9569625e+18
-5.9251025e+18
-5.9268201e+18
-5.9587423e+18
-5.8748996e+18
-5.8769818e+18
-5.9016241e+18
-5.9036882e+18
-5.9607965e+18
-5.9310483e+18
-5.9631372e+18
-5.9288466e+18
-5.8021106e+18
-5.8217628e+18
-5.8240318e+18
-5.8042348e+18
-5.8082888e+18
-5.8062606e+18
-5.8260268e+18
-5.8280369e+18
-5.8665084e+18
-5.8414729e+18
-5.8643704e+18
-5.8436287e+18
-5.8479237e+18
-5.8710316e+18
-5.8457835e+18
-5.8687482e+18
-5.8155998e+18
-5.7940196e+18
-5.8135849e+18
-5.7959233e+18
-5.8332389e+18
-5.8560802e+18
-5.85789e+18
-5.8351129e+18
-5.8196745e+18
-5.7979047e+18
-5.8175308e+18
-5.8000224e+18
-5.8371594e+18
-5.8599514e+18
-5.8393617e+18
-5.8622435e+18
-5.8871831e+18
-5.913903e+18
-5.9162229e+18
-5.889351e+18
-5.8916385e+18
-5.9185158e+18
-5.893974e+18
-5.9208344e+18
-5.9733e+18
-5.9755518e+18
-5.9412283e+18
-5.9434721e+18
-5.9483098e+18
-5.9458688e+18
-5.9779279e+18
-5.9804609e+18
-5.9329331e+18
-5.9650249e+18
-5.9670289e+18
-5.934843e+18
-5.9075296e+18
-5.8788644e+18
-5.9055811e+18
-5.8806708e+18
-5.8850073e+18
-5.8827153e+18
-5.909508e+18
-5.9117537e+18
-5.9391112e+18
-5.9368304e+18
-5.9689119e+18
-5.9712411e+18
-5.744099e+18
-5.725749e+18
-5.7419882e+18
-5.7277628e+18
-5.7582986e+18
-5.7763603e+18
-5.7782603e+18
-5.7602634e+18
-5.7480798e+18
-5.7297297e+18
-5.7460246e+18
-5.7318017e+18
-5.7622646e+18
-5.7802482e+18
-5.7643153e+18
-5.7823216e+18
-5.6674891e+18
-5.681609e+18
-5.6836077e+18
-5.6694071e+18
-5.6713318e+18
-5.6854939e+18
-5.6874838e+18
-5.6733147e+18
-5.6956249e+18
-5.7107517e+18
-5.7127435e+18
-5.6975761e+18
-5.6995323e+18
-5.7146924e+18
-5.7167985e+18
-5.7015554e+18
-5.6751046e+18
-5.6892649e+18
-5.6911185e+18
-5.6768851e+18
-5.6803834e+18
-5.6786626e+18
-5.6928375e+18
-5.694531e+18
-5.7033478e+18
-5.7185623e+18
-5.7203504e+18
-5.7051313e+18
-5.7086404e+18
-5.7068918e+18
-5.7220975e+18
-5.7239169e+18
-5.733594e+18
-5.749896e+18
-5.7518031e+18
-5.735378e+18
-5.7390437e+18
-5.7371922e+18
-5.7536675e+18
-5.7555465e+18
-5.7843779e+18
-5.7864536e+18
-5.766267e+18
-5.76821e+18
-5.7721474e+18
-5.7701932e+18
-5.7884689e+18
-5.7904878e+18
-5.7295376e+18
-5.7119258e+18
-5.7282231e+18
-5.7131448e+18
-5.7445919e+18
-5.7627302e+18
-5.7638502e+18
-5.7457648e+18
-5.7161441e+18
-5.7323993e+18
-5.7145583e+18
-5.7308703e+18
-5.7471761e+18
-5.7652543e+18
-5.7487186e+18
-5.7668564e+18
-5.6598726e+18
-5.6739258e+18
-5.6757859e+18
-5.6616344e+18
-5.6635017e+18
-5.6776168e+18
-5.6796643e+18
-5.6655484e+18
-5.7046058e+18
-5.6878485e+18
-5.702855e+18
-5.6896235e+18
-5.7087906e+18
-5.6915703e+18
-5.706591e+18
-5.6936624e+18
-5.6693366e+18
-5.6540543e+18
-5.668007e+18
-5.6552746e+18
-5.6819033e+18
-5.6969522e+18
-5.6981496e+18
-5.6831395e+18
-5.6722769e+18
-5.656664e+18
-5.6706906e+18
-5.6582338e+18
-5.6845907e+18
-5.6995861e+18
-5.6861924e+18
-5.7012202e+18
-5.7177734e+18
-5.7340334e+18
-5.735877e+18
-5.7195276e+18
-5.7215382e+18
-5.7378507e+18
-5.7237155e+18
-5.7399453e+18
-5.7685565e+18
-5.7703997e+18
-5.750414e+18
-5.7522269e+18
-5.7563351e+18
-5.754235e+18
-5.7723678e+18
-5.7744647e+18
-5.6154277e+18
-5.6013959e+18
-5.6141464e+18
-5.6025888e+18
-5.627032e+18
-5.6406691e+18
-5.6418465e+18
-5.6282239e+18
-5.6053809e+18
-5.6181413e+18
-5.6039209e+18
-5.6167e+18
-5.6295823e+18
-5.6432149e+18
-5.6310552e+18
-5.6447722e+18
-5.559657e+18
-5.570973e+18
-5.572558e+18
-5.5611551e+18
-5.5644819e+18
-5.5627378e+18
-5.5741517e+18
-5.5759345e+18
-5.5962024e+18
-5.5824831e+18
-5.5946175e+18
-5.5840451e+18
-5.5875662e+18
-5.599823e+18
-5.585722e+18
-5.5978903e+18
-5.5667386e+18
-5.5539988e+18
-5.5653859e+18
-5.5553361e+18
-5.5769629e+18
-5.58915e+18
-5.5903308e+18
-5.5782007e+18
-5.5695152e+18
-5.556691e+18
-5.5680475e+18
-5.558163e+18
-5.5795786e+18
-5.5916797e+18
-5.581038e+18
-5.593175e+18
-5.6068386e+18
-5.6196193e+18
-5.6212805e+18
-5.6084234e+18
-5.6101779e+18
-5.6230634e+18
-5.6121297e+18
-5.6250353e+18
-5.6463536e+18
-5.6480827e+18
-5.6326006e+18
-5.634265e+18
-5.6381414e+18
-5.6361235e+18
-5.6499427e+18
-5.6520032e+18
-5.5158774e+18
-5.5173449e+18
-5.5265294e+18
-5.5280136e+18
-5.5388431e+18
-5.5484389e+18
-5.5499347e+18
-5.5373759e+18
-5.5189258e+18
-5.5205139e+18
-5.5310691e+18
-5.5294888e+18
-5.5403353e+18
-5.5419675e+18
-5.5514633e+18
-5.5531863e+18
-5.5221397e+18
-5.5098921e+18
-5.5205926e+18
-5.5113948e+18
-5.5315761e+18
-5.5427467e+18
-5.5441083e+18
-5.5330191e+18
-5.5251962e+18
-5.5130066e+18
-5.5235809e+18
-5.5146536e+18
-5.5344134e+18
-5.5454623e+18
-5.5359637e+18
-5.5469642e+18
-5.4866327e+18
-5.4880416e+18
-5.4990107e+18
-5.5004775e+18
-5.5020317e+18
-5.5037599e+18
-5.4894993e+18
-5.4911858e+18
-5.4697143e+18
-5.4478834e+18
-5.4280301e+18
-5.4306075e+18
-5.4504706e+18
-5.4726334e+18
-5.4925247e+18
-5.494047e+18
-5.5049339e+18
-5.5064472e+18
-5.5079959e+18
-5.5096506e+18
-5.4955088e+18
-5.4970938e+18
-5.4534272e+18
-5.4335812e+18
-5.4366902e+18
-5.4565819e+18
-5.4787291e+18
-5.4757092e+18
-5.4087359e+18
-5.3892925e+18
-5.3918783e+18
-5.4113657e+18
-5.397601e+18
-5.3947844e+18
-5.4142909e+18
-5.4173025e+18
-5.504434e+18
-5.505999e+18
-5.5167877e+18
-5.5183699e+18
-5.5199992e+18
-5.5217125e+18
-5.5074893e+18
-5.5090879e+18
-5.4650022e+18
-5.444809e+18
-5.4480222e+18
-5.4681763e+18
-5.4906593e+18
-5.4876728e+18
-5.4983492e+18
-5.4998337e+18
-5.5107866e+18
-5.5122554e+18
-5.5138141e+18
-5.5155635e+18
-5.5013554e+18
-5.5030684e+18
-5.4592908e+18
-5.4393899e+18
-5.4418562e+18
-5.4619942e+18
-5.4846202e+18
-5.4815467e+18
-5.5216873e+18
-5.5231159e+18
-5.5339268e+18
-5.5324271e+18
-5.5435046e+18
-5.5450269e+18
-5.554785e+18
-5.5563604e+18
-5.5370564e+18
-5.524662e+18
-5.5353705e+18
-5.5263402e+18
-5.5579152e+18
-5.5465521e+18
-5.5482425e+18
-5.559627e+18
-5.4198143e+18
-5.3997886e+18
-5.4019676e+18
-5.4221619e+18
-5.4085778e+18
-5.4050189e+18
-5.4250779e+18
-5.428402e+18
-5.5401562e+18
-5.5276532e+18