/*--------------------------------*- C++ -*----------------------------------*\
  =========                 |
  \\      /  F ield         | OpenFOAM: The Open Source CFD Toolbox
   \\    /   O peration     | Website:  https://openfoam.org
    \\  /    A nd           | Version:  7
     \\/     M anipulation  |
\*---------------------------------------------------------------------------*/
FoamFile
{
    version     2.0;
    format      ascii;
    class       volVectorField;
    location    "1000";
    object      U;
}
// * * * * * * * * * * * * * * * * * * * * * * * * * * * * * * * * * * * * * //

dimensions      [0 1 -1 0 0 0 0];

internalField   nonuniform List<vector> 
34356
(
(-4.3253265e+08 -1.4158487e+08 55470700)
(-3.885007e+08 -1.7006009e+08 17841694)
(-3.4568412e+08 -78316475 54366363)
(-3.3928639e+08 -99131657 42544748)
(-3.4450984e+08 -85762286 66689033)
(-3.2885467e+08 -83891999 77958528)
(-4.5696791e+08 -98530355 25855608)
(-3.7215341e+08 -72945142 24401890)
(-3.677179e+08 -79198890 12546835)
(-3.5618417e+08 -82336435 -31546838)
(-2.9196474e+08 -91089216 35148420)
(-3.5203763e+08 -1.0687898e+08 -30956402)
(-2.8597229e+08 -1.2581136e+08 32844416)
(-2.8567325e+08 -62017876 42450434)
(-2.8721369e+08 -47701986 50348583)
(-3.2669096e+08 -55404907 72915249)
(-3.3260146e+08 -53093619 64053575)
(-2.7641293e+08 -49544183 46536434)
(-3.2577833e+08 -56730284 67767777)
(-2.757237e+08 -61844219 40292970)
(-3.2757236e+08 -55364428 60844861)
(-3.8162642e+08 -58866323 37702079)
(-3.6049862e+08 -68128360 -44054961)
(-3.6626715e+08 -56857211 -33815982)
(-3.7476196e+08 -80049074 45529235)
(-4.5380645e+08 -84140993 19106093)
(-3.2042394e+08 -63254016 18733508)
(-3.0831849e+08 -82389713 29046010)
(-2.9901758e+08 -71572260 -34720777)
(-2.9526426e+08 -82173486 -46889779)
(-3.3156146e+08 -61846122 -15854738)
(-3.7269874e+08 -45591673 23540358)
(-3.4756271e+08 -31072457 3749303.1)
(-3.3197214e+08 -36221129 -41281578)
(-3.3960366e+08 -48861071 36979321)
(-3.3626802e+08 -48130619 26496692)
(-3.3670805e+08 -51241627 34473307)
(-3.3058617e+08 -50617883 26443721)
(-2.8245802e+08 -64253190 -12410022)
(-2.9780616e+08 -60381100 -45563723)
(-2.9041362e+08 -59290452 -50720988)
(-2.7869061e+08 -49638536 -15858738)
(-2.6985104e+08 -51378043 -34022565)
(-2.1432317e+08 -59006780 36970908)
(-2.746614e+08 -67534903 -34172620)
(-2.1503153e+08 -89395666 34058566)
(-2.8784488e+08 -61399286 -43329324)
(-2.8158594e+08 -60522509 -48782383)
(-2.7360235e+08 -50247894 -14691306)
(-2.7334113e+08 -63950701 -10457928)
(-2.6612732e+08 -65530270 -31906591)
(-2.6432399e+08 -51856771 -32289249)
(-2.0376372e+08 -86411409 31248579)
(-2.0669198e+08 -59207971 34851451)
(-2.8931078e+08 -36661033 53160147)
(-2.3266669e+08 -41721861 38971579)
(-2.3013126e+08 -31439627 41700612)
(-2.8401391e+08 -36409730 55966940)
(-2.3700229e+08 -39389276 40049206)
(-2.9395813e+08 -34704284 56832691)
(-2.3599922e+08 -29574701 45481907)
(-2.874928e+08 -36558288 60600053)
(-2.3015059e+08 -41094400 38797438)
(-2.289874e+08 -31679829 43748710)
(-2.8573779e+08 -37012821 52819844)
(-2.8282272e+08 -38448880 57614346)
(-2.8291875e+08 -37734683 52833082)
(-2.2606574e+08 -40314480 38096616)
(-2.2503218e+08 -32245891 41287255)
(-2.7933107e+08 -38779484 54646678)
(-3.4868024e+08 -40057525 34662096)
(-3.4506905e+08 -55924745 37575487)
(-3.3732443e+08 -38168083 -15522337)
(-3.3623912e+08 -45570691 -19756474)
(-3.4239429e+08 -35318419 4917718.1)
(-3.2384646e+08 -40378807 -37173019)
(-3.2850021e+08 -34275844 -31184883)
(-3.3983814e+08 -46578116 9535272.9)
(-3.6183656e+08 -52796263 25445795)
(-3.4563812e+08 -32360789 6234448.2)
(-3.2773825e+08 -37015673 -36943808)
(-3.3429792e+08 -33529459 -28410413)
(-3.4469485e+08 -47181569 13086002)
(-3.5429503e+08 -70047513 32006488)
(-3.443178e+08 -52830550 37885906)
(-3.4881564e+08 -36475301 34087852)
(-3.4116922e+08 -42112276 -18416170)
(-3.4331353e+08 -38471358 -12513714)
(-3.2089702e+08 -66866491 -14822935)
(-3.257172e+08 -52436562 -6930945)
(-2.8281054e+08 -74131350 -49746971)
(-2.8327369e+08 -62180434 -40371437)
(-2.9667143e+08 -75476403 33244929)
(-3.099615e+08 -54162224 22555930)
(-2.854543e+08 -27295197 -16613257)
(-2.7661639e+08 -47138520 -53691484)
(-3.7235538e+08 -52414999 45851586)
(-3.0036569e+08 -43692385 -16554885)
(-3.4493093e+08 -28701384 1705312)
(-3.4156915e+08 -42691540 4509380)
(-3.0358935e+08 -38777627 -12910265)
(-3.3547748e+08 -29347903 -40982754)
(-3.2820212e+08 -35122042 -46551101)
(-3.4066264e+08 -27546118 -9988663.4)
(-3.4096548e+08 -39549447 -6751928.5)
(-2.9109536e+08 -22277712 -1139435.6)
(-2.8285171e+08 -19039247 -19610172)
(-2.8195235e+08 -25567841 -22715392)
(-2.9238563e+08 -24496652 -3413502.9)
(-2.9202597e+08 -20278865 -5386817.2)
(-2.8526415e+08 -22290465 -28228109)
(-2.8656745e+08 -16884577 -25514380)
(-2.8742386e+08 -19184747 -27979022)
(-2.9009559e+08 -31794124 32435966)
(-2.9191189e+08 -34602088 37768727)
(-2.8746376e+08 -34018833 30334501)
(-2.8832463e+08 -34471492 33259447)
(-2.8406787e+08 -34092178 29076720)
(-2.8632537e+08 -36433064 35331255)
(-2.8185852e+08 -35232108 30380654)
(-2.8369582e+08 -36362258 32928138)
(-3.8335427e+08 -82622801 -24546970)
(-3.7188081e+08 -82053531 -24120020)
(-3.1892734e+08 -51400663 -40141216)
(-3.0922165e+08 -57565772 325384.89)
(-3.1530261e+08 -53540953 -7095740.1)
(-3.2041396e+08 -52420085 -41995651)
(-2.070367e+08 -41604579 -26369741)
(-2.4199506e+08 -37385515 -44580186)
(-2.3808285e+08 -37284314 -48389979)
(-2.0426061e+08 -31815556 -29177144)
(-1.6758829e+08 -37141870 -25240700)
(-1.5537694e+08 -37072671 44869214)
(-1.5661066e+08 -63256506 41091416)
(-1.7191238e+08 -48093362 -25887255)
(-2.0583472e+08 -43178279 -25956518)
(-2.4154353e+08 -39092788 -43371158)
(-2.3800777e+08 -37221145 -46717659)
(-2.0370644e+08 -32010687 -27442801)
(-1.6992689e+08 -49028214 -25099461)
(-1.6679027e+08 -38250323 -23707782)
(-1.5150963e+08 -64220812 38660927)
(-1.522434e+08 -39519156 43522962)
(-2.9935543e+08 -58417358 532810.17)
(-3.0728839e+08 -54917053 -7182904.7)
(-3.141903e+08 -53401647 -40716726)
(-3.0961513e+08 -51245177 -38114331)
(-2.3599512e+08 -38457825 -41375490)
(-2.3271059e+08 -37384388 -44469191)
(-1.9937343e+08 -31740497 -26096742)
(-2.009353e+08 -41612020 -24698457)
(-2.0334441e+08 -41688332 -25077582)
(-2.3878276e+08 -38307474 -43465860)
(-2.3494583e+08 -38767270 -47144548)
(-2.0157297e+08 -32967634 -28062076)
(-1.6415617e+08 -46962668 -23594081)
(-1.624134e+08 -37844940 -21789712)
(-1.4534092e+08 -61189494 37489615)
(-1.4738624e+08 -38489163 43160908)
(-1.6747948e+08 -47946416 -23757581)
(-1.5003748e+08 -62882905 39409822)
(-1.645018e+08 -38196528 -23380382)
(-1.5026044e+08 -38293465 43202235)
(-1.9926563e+08 -29893547 40825854)
(-1.9972504e+08 -22150353 43865354)
(-2.4288747e+08 -25973110 50154228)
(-2.4268187e+08 -26238405 47800339)
(-2.4416772e+08 -25318602 47542539)
(-2.0069826e+08 -29617194 40544749)
(-1.9952564e+08 -20288371 44207650)
(-2.4204806e+08 -24944796 50514103)
(-2.4672858e+08 -24674664 48855790)
(-2.0172071e+08 -28504675 40845858)
(-2.0076853e+08 -20087168 43206460)
(-2.4645334e+08 -24075488 51121198)
(-2.0323116e+08 -27623417 41505750)
(-2.0408933e+08 -18858035 46048252)
(-2.4710951e+08 -24286709 49988240)
(-2.4539716e+08 -25158605 53329475)
(-1.9655244e+08 -22266014 43351074)
(-1.9612875e+08 -30356326 39743990)
(-2.4030408e+08 -26818453 47585072)
(-2.3960393e+08 -26290889 49378824)
(-2.4164042e+08 -25857596 48598134)
(-1.9905765e+08 -29481217 41154833)
(-1.9716979e+08 -20857617 44783668)
(-2.3946624e+08 -26473150 51488985)
(-1.9370136e+08 -28210763 39963666)
(-1.9440494e+08 -21731888 42994504)
(-2.3804931e+08 -26913879 48043422)
(-2.3836128e+08 -27464044 49460085)
(-1.9435634e+08 -30297697 39162102)
(-1.9653629e+08 -21401393 44154411)
(-2.3917315e+08 -27305447 46922885)
(-2.3781508e+08 -27311629 49919435)
(-3.0558885e+08 -13401149 -9488989)
(-2.9671698e+08 -17906378 -34572647)
(-2.987851e+08 -28878104 36617543)
(-2.890342e+08 -29971420 96352.875)
(-2.8873768e+08 -34330803 -1362459.7)
(-2.9661078e+08 -41003345 37102815)
(-2.9148604e+08 -29999163 2167718.8)
(-2.8950184e+08 -32450962 -1525293.7)
(-2.9835471e+08 -40395782 38951835)
(-3.0164598e+08 -27417463 36338189)
(-2.9177817e+08 -25680004 11630944)
(-2.7911759e+08 -28710661 -16909243)
(-2.801616e+08 -25897068 -12471220)
(-2.9107738e+08 -34790845 15309836)
(-2.9290845e+08 -27852986 12065949)
(-2.7982891e+08 -26787598 -14216641)
(-2.7920884e+08 -31611971 -15395515)
(-2.9126333e+08 -35186644 13505989)
(-2.8436269e+08 -26152009 -1276107.9)
(-2.7962048e+08 -22250905 -19416240)
(-2.7869312e+08 -28854534 -21489155)
(-2.8468429e+08 -31183716 192553.97)
(-2.8841433e+08 -27082423 -2416811.8)
(-2.8842326e+08 -23178401 -3788802.9)
(-2.81785e+08 -24960675 -24121803)
(-2.8116752e+08 -19750132 -22414342)
(-3.3159662e+08 -33391888 -8820429.3)
(-2.8244362e+08 -19982374 -19623439)
(-2.8207056e+08 -22155114 -23742246)
(-2.8946429e+08 -20159442 -3082850)
(-3.3409053e+08 -44666980 -3409374.4)
(-2.8959841e+08 -27497773 425872.44)
(-2.8066591e+08 -22664307 -17959680)
(-2.7932901e+08 -26143178 -22419042)
(-2.833316e+08 -23308330 -2641940.4)
(-2.8267332e+08 -29819129 441889.78)
(-3.2270297e+08 -34916631 -38784404)
(-3.1377058e+08 -42252735 -45542381)
(-2.8577518e+08 -23397555 -1561363)
(-2.8127823e+08 -19889331 -20330219)
(-2.7997296e+08 -26442792 -23347293)
(-2.8678293e+08 -28680455 913619.51)
(-2.8345525e+08 -18178386 -22195751)
(-2.8342725e+08 -22937155 -24935159)
(-2.9176009e+08 -25268194 -1457242.9)
(-2.9089635e+08 -20594888 -3966792.6)
(-3.365204e+08 -29742518 -7916565.9)
(-2.8711136e+08 -19307544 -17716237)
(-2.854449e+08 -21179714 -22833082)
(-2.9377122e+08 -19028192 -1380158.7)
(-3.3906651e+08 -41939780 -1128938)
(-2.9495513e+08 -27254723 3130214.6)
(-2.8490051e+08 -21673821 -16276786)
(-2.8747255e+08 -21115367 -977331.92)
(-2.8333993e+08 -24426784 -21275709)
(-2.8730171e+08 -28718667 2506751.1)
(-3.298342e+08 -32465230 -37860755)
(-3.1784264e+08 -37804654 -45835180)
(-3.0323109e+08 -24599610 37273173)
(-2.9699336e+08 -27852634 4496535.3)
(-2.9456281e+08 -29522527 -1057020.9)
(-3.0165423e+08 -37716169 40233538)
(-3.0205479e+08 -27259513 36468921)
(-2.9336474e+08 -27346772 719541.9)
(-2.9187023e+08 -31990243 -2348445.9)
(-3.0083003e+08 -38743860 37497736)
(-2.9410186e+08 -24795813 11570902)
(-2.8136284e+08 -28391690 -15259436)
(-2.828653e+08 -24167456 -13524178)
(-2.9416991e+08 -32308686 13809347)
(-2.8516463e+08 -24694178 -10538333)
(-2.843512e+08 -26352454 -14845957)
(-2.9576264e+08 -22879096 12971244)
(-2.9476764e+08 -33015422 16615761)
(-2.6746639e+08 -51430473 -51623842)
(-3.6273937e+08 -55328361 45542834)
(-2.7056411e+08 -66106396 -49016671)
(-3.5464813e+08 -65858455 51029019)
(-2.8322939e+08 -50252435 -13762395)
(-3.294013e+08 -36804285 4195280.8)
(-3.2710439e+08 -48963797 6302013)
(-2.8818273e+08 -44708696 -10466071)
(-2.893884e+08 -45268339 -14334260)
(-3.3370602e+08 -32017121 2957321.8)
(-3.314312e+08 -47186843 7314496.1)
(-2.9206854e+08 -40640780 -9867049.3)
(-2.3598887e+08 -21897182 -12379290)
(-2.4473697e+08 -18836902 4915458.5)
(-2.3104178e+08 -20595219 -14125859)
(-2.398448e+08 -18192452 -59289.845)
(-2.3302574e+08 -17293553 -12183920)
(-2.4091612e+08 -21313013 1534758.2)
(-3.007064e+08 -42359008 -9143555.1)
(-3.2469665e+08 -44121931 31671727)
(-3.2402743e+08 -53404451 32654039)
(-2.457559e+08 -48006379 -34204124)
(-2.4654258e+08 -60854810 -34433586)
(-3.1994275e+08 -20080311 -6890495.9)
(-2.8476542e+08 -33738991 -24678389)
(-2.8689221e+08 -30108240 -22299014)
(-3.1740407e+08 -29024470 -7690519.8)
(-3.1285414e+08 -14934119 -15204978)
(-3.0532253e+08 -20887360 -37361025)
(-3.0027013e+08 -19181501 -36980602)
(-3.1037851e+08 -22637840 -15942317)
(-3.161675e+08 -13211939 -15600036)
(-3.0096957e+08 -20093718 -40979774)
(-3.0736707e+08 -17095033 -33556584)
(-3.1647071e+08 -21328374 -10576669)
(-2.8664604e+08 -30481158 -25420885)
(-3.1957507e+08 -18256389 -9508200.4)
(-3.2623577e+08 -28437248 -4768268.4)
(-2.9930898e+08 -15233725 -29757034)
(-3.0042426e+08 -15834475 -31009866)
(-3.0790169e+08 -12447421 -10329989)
(-3.0514519e+08 -21111626 -7886503.4)
(-2.9781633e+08 -17513303 -32395849)
(-2.9720095e+08 -14318602 -32943267)
(-3.047565e+08 -13972967 -10405261)
(-3.0441585e+08 -20191874 -10233442)
(-2.9083554e+08 -19098715 -29977313)
(-2.9191094e+08 -13970453 -28068033)
(-2.9536261e+08 -16878452 -10893780)
(-2.9603277e+08 -22048147 -9660060.8)
(-2.934291e+08 -17575333 -30162626)
(-2.9171528e+08 -14234532 -26478607)
(-2.976331e+08 -13969198 -10990549)
(-2.9509239e+08 -20607651 -8770556.2)
(-2.3025461e+08 -19826524 -16031717)
(-2.3585077e+08 -17515258 -3100121.6)
(-2.3179481e+08 -15690081 -14115849)
(-2.3717461e+08 -20389327 -1633226.9)
(-2.3209093e+08 -16774366 -15813021)
(-2.3198853e+08 -14445043 -14166777)
(-2.3862634e+08 -14714229 -3770078)
(-2.3142145e+08 -18649433 -15618526)
(-2.3775208e+08 -16681020 -3869118)
(-2.3274801e+08 -15223385 -13896703)
(-2.3891352e+08 -18919228 -2342614)
(-2.3109841e+08 -17925142 -16251964)
(-2.359344e+08 -16149475 -13708965)
(-2.3992096e+08 -13725300 -4385418.1)
(-2.3486662e+08 -13298006 -11821891)
(-2.401111e+08 -17000305 -3211237.7)
(-2.3480099e+08 -18275216 -13352762)
(-2.3931849e+08 -16197834 -4451635.2)
(-2.3512048e+08 -14190803 -11417558)
(-2.4037401e+08 -18311216 -3155659.7)
(-2.4690006e+08 -15411574 -3731835.6)
(-2.4753109e+08 -17477172 -2686546.1)
(-2.4489312e+08 -15905311 -21453679)
(-2.4547468e+08 -12573448 -19963179)
(-2.4792427e+08 -12644776 -2357120.8)
(-2.4742529e+08 -16108972 -2588567)
(-2.449447e+08 -11612973 -20261910)
(-2.4492696e+08 -14020441 -21638398)
(-2.4780977e+08 -12432844 -4183225.5)
(-2.4831894e+08 -15099591 -3002888.1)
(-2.4528411e+08 -14091840 -22255202)
(-2.4602892e+08 -10758059 -20630904)
(-2.3500444e+08 -15519006 -14206549)
(-2.4223363e+08 -22563693 30056181)
(-2.4541009e+08 -23657272 33114668)
(-2.4554798e+08 -25172633 35834334)
(-2.4428406e+08 -22152913 31451337)
(-2.3905617e+08 -24185980 29889887)
(-2.4295491e+08 -25351576 32967260)
(-2.4099382e+08 -23153229 29163085)
(-2.4216032e+08 -24468517 33015388)
(-2.399011e+08 -25734246 32080314)
(-2.3666623e+08 -24685455 29236490)
(-2.3984513e+08 -26164765 34180770)
(-2.3860982e+08 -23682261 30076989)
(-2.3476552e+08 -25338675 29870100)
(-2.3872667e+08 -26801308 32389517)
(-2.3614676e+08 -25053929 28867511)
(-2.3798327e+08 -26873839 32856798)
(-3.9329872e+08 -73782839 -8650317.8)
(-3.8404763e+08 -73069575 -10001942)
(-3.3008751e+08 -45551288 -33616781)
(-2.5528464e+08 -34899710 -26301160)
(-2.5320805e+08 -37542504 -21348238)
(-3.1683319e+08 -45387367 -26531758)
(-3.1740347e+08 -59604807 -32141751)
(-3.3183252e+08 -46237988 -34442777)
(-2.5432438e+08 -36076269 -22207542)
(-2.563457e+08 -34752914 -27878661)
(-2.4813038e+08 -34777527 -53650535)
(-2.4811707e+08 -34902664 -55367414)
(-1.3972274e+08 -25080695 -40198806)
(-1.3844737e+08 -25718934 -42840150)
(-1.2873362e+08 -25505457 -22537852)
(-1.3069278e+08 -32775309 -21001221)
(-96234044 -30559119 7043829.5)
(-1.2620577e+08 -19632652 53507845)
(-97927536 -37271447 3327852.9)
(-1.264809e+08 -39707299 50096673)
(-97475484 -38790261 2258024)
(-1.2466959e+08 -40634267 48471569)
(-96756219 -32020654 7921272.9)
(-1.2487997e+08 -22335359 51532822)
(-1.3846977e+08 -25184440 -41291492)
(-1.3978238e+08 -25796940 -39712483)
(-1.3068776e+08 -34084162 -21360806)
(-1.290287e+08 -25492978 -21191529)
(-2.4593798e+08 -35884916 -52565663)
(-2.4714334e+08 -35684719 -53685356)
(-1.3799446e+08 -26212229 -40683232)
(-1.3912815e+08 -26612079 -39239567)
(-1.2952072e+08 -34531433 -21216549)
(-1.2800563e+08 -26615367 -20513552)
(-1.3821835e+08 -26057649 -41834501)
(-1.3910739e+08 -25802007 -39092931)
(-1.2986614e+08 -34041721 -20030097)
(-1.2838879e+08 -26410181 -21611341)
(-95704425 -38854381 2532739.1)
(-95083288 -33392298 9427025.1)
(-1.2305793e+08 -24347870 51796053)
(-1.2205169e+08 -41348522 47202799)
(-1.2501414e+08 -41677027 49521527)
(-1.2419916e+08 -21815660 52673028)
(-97131881 -38928335 4397692)
(-95133044 -32125037 7717847.1)
(-3.0611409e+08 -46283762 -26567840)
(-3.0925902e+08 -60430215 -31999936)
(-3.2586226e+08 -47065486 -34428505)
(-2.5283429e+08 -36157473 -27304077)
(-2.5120878e+08 -36946170 -21570862)
(-3.2218777e+08 -45632167 -32900811)
(-2.4983261e+08 -35014993 -24948451)
(-2.4773702e+08 -37021165 -20157999)
(-2.4165978e+08 -35198224 -51345846)
(-2.4068411e+08 -34797625 -50435822)
(-2.4318158e+08 -34998665 -51351674)
(-2.4396113e+08 -35906410 -53339745)
(-1.6118461e+08 -35883099 -22048241)
(-1.2477475e+08 -33549204 -20098771)
(-1.3440767e+08 -25707449 -39002531)
(-1.3520421e+08 -25843959 -37793238)
(-1.243382e+08 -26005042 -19215020)
(-1.3485722e+08 -26165984 -40161184)
(-1.3587492e+08 -25677597 -37936233)
(-1.2568734e+08 -33546005 -18772656)
(-1.2444154e+08 -26457509 -19835432)
(-91335037 -37015193 3389175.2)
(-1.1807328e+08 -38593444 46355721)
(-92205239 -32122900 10832131)
(-1.1979944e+08 -22857792 50601126)
(-92812903 -37581280 5561656.9)
(-1.194293e+08 -41137320 46639703)
(-1.2177581e+08 -21787813 51651091)
(-92335147 -31688102 10197377)
(-1.368398e+08 -26069732 -37974239)
(-1.3630466e+08 -25591976 -39663962)
(-1.269792e+08 -34120139 -19892704)
(-1.2648417e+08 -25901688 -19457563)
(-93428943 -38122340 3608084.7)
(-1.201579e+08 -41168784 46316226)
(-94277355 -32251876 10700036)
(-1.2238249e+08 -23488957 51378519)
(-1.3738896e+08 -26565159 -41714787)
(-1.3801951e+08 -25804349 -38913176)
(-1.2807345e+08 -33569539 -19533515)
(-1.2700821e+08 -26570417 -21410877)
(-95643774 -37819922 5417232)
(-93687561 -31765082 7918335.1)
(-1.2359396e+08 -40781719 49105353)
(-1.2292758e+08 -21394282 51955731)
(-1.6114255e+08 -16392761 50582105)
(-1.6036037e+08 -24480866 48863919)
(-2.1083765e+08 -19352282 46509805)
(-2.1033984e+08 -19073599 46561785)
(-1.6363218e+08 -15312654 52038182)
(-1.6121109e+08 -24256115 48591926)
(-2.1303187e+08 -19136416 45729033)
(-2.1303973e+08 -18896841 48436678)
(-1.6069573e+08 -24639685 48734656)
(-2.1252178e+08 -19192330 44822352)
(-1.6177264e+08 -15413852 50846493)
(-2.1257545e+08 -18195352 47525685)
(-2.1300224e+08 -17882984 46139290)
(-1.614693e+08 -22999628 49470393)
(-1.6152335e+08 -13818011 52242919)
(-2.1114556e+08 -17577909 47300193)
(-1.6374206e+08 -14653766 51101651)
(-1.6217793e+08 -22921590 49161380)
(-2.1315218e+08 -17992904 45775033)
(-2.1376473e+08 -17631815 48002081)
(-1.6450384e+08 -13607939 52477787)
(-1.6351242e+08 -22751700 49367062)
(-2.1573925e+08 -17728346 46069669)
(-2.1453856e+08 -17128561 47241107)
(-1.6288489e+08 -22700795 49577252)
(-1.6414094e+08 -14101625 51178886)
(-2.1486785e+08 -17684579 46833140)
(-2.142124e+08 -17112771 47188046)
(-1.6337145e+08 -21786274 49925969)
(-1.6389886e+08 -13476952 52569339)
(-2.1533128e+08 -17569252 48829764)
(-2.1363981e+08 -18027709 48403575)
(-1.6013273e+08 -15622175 51928407)
(-1.5893541e+08 -25600289 48606565)
(-2.1090528e+08 -19865220 45445708)
(-2.0946155e+08 -19157057 46493018)
(-1.6112756e+08 -17018098 50425881)
(-1.6062048e+08 -25072074 48524627)
(-2.0821368e+08 -20117845 45104527)
(-2.1040986e+08 -19848091 47333635)
(-1.5883249e+08 -24687097 48855970)
(-1.597447e+08 -15432847 50851412)
(-2.1031656e+08 -19363101 46326912)
(-2.1030626e+08 -18572459 47827363)
(-1.6015156e+08 -14854332 52497748)
(-1.5905409e+08 -23305058 49488856)
(-2.1048051e+08 -18561411 46747041)
(-2.0829871e+08 -18930419 47429836)
(-1.5873325e+08 -15768235 50578740)
(-1.5816041e+08 -23489490 49190372)
(-2.0700792e+08 -20094201 45671535)
(-2.0774365e+08 -19934795 47363349)
(-2.0943247e+08 -20510717 45601010)
(-1.5731274e+08 -24640735 48336138)
(-1.5838801e+08 -15754701 51241601)
(-2.0871932e+08 -20300091 46688776)
(-1.5831496e+08 -16813030 50567332)
(-1.559815e+08 -25872376 48111014)
(-2.0852559e+08 -20946855 45437814)
(-2.0770354e+08 -20191383 45492196)
(-1.5844177e+08 -15390997 51659190)
(-1.5665917e+08 -25063336 48380079)
(-2.0902364e+08 -20136550 46587273)
(-2.0768122e+08 -19801092 46700201)
(-3.9380361e+08 -65043441 -41637042)
(-2.6324339e+08 -8265390.7 -9978958.4)
(-2.5781343e+08 -10315354 -20709748)
(-2.5505953e+08 -7151515 -20099917)
(-2.6204702e+08 -11108183 -9723821.8)
(-2.6862878e+08 -8098466.3 -12323553)
(-2.6242986e+08 -10071023 -24927804)
(-2.6664948e+08 -10520320 -14157723)
(-2.7928374e+08 -22677654 -17375475)
(-3.2678374e+08 -46865348 -1020019)
(-2.8520892e+08 -30073993 2400366.8)
(-2.7804084e+08 -25142155 -14728924)
(-3.1731179e+08 -38825588 -36094990)
(-3.4507958e+08 -69631788 51801798)
(-2.5771209e+08 -55706477 -48882841)
(-2.6052263e+08 -69734482 -46815342)
(-3.2076065e+08 -53393470 9047418.5)
(-2.8266504e+08 -46619854 -7897851.4)
(-2.4268227e+08 -25811151 10354221)
(-2.4934334e+08 -21177395 38071918)
(-2.4595657e+08 -23824815 12541813)
(-2.5002686e+08 -31189360 38396582)
(-2.3740892e+08 -23742094 -4582695.3)
(-2.3799797e+08 -22351790 -2153576.2)
(-2.4711354e+08 -20561807 18038880)
(-2.4609693e+08 -27867249 20059336)
(-2.3679976e+08 -25526248 -4049788.4)
(-2.4724368e+08 -21770737 18676837)
(-2.4019904e+08 -23238025 -1908334.6)
(-2.4798118e+08 -28209804 20000548)
(-2.4343645e+08 -24693434 9698699.7)
(-2.4967882e+08 -20316271 36626510)
(-2.4498362e+08 -23704658 12786706)
(-2.4860807e+08 -30360663 37953982)
(-2.3930795e+08 -22343313 -4125896)
(-2.4004066e+08 -22010014 -1110880.5)
(-2.4879732e+08 -19431606 18705641)
(-2.4801724e+08 -27606959 21251767)
(-2.3750243e+08 -23446740 -4848485.6)
(-2.4863943e+08 -19972052 17918282)
(-2.4067736e+08 -21419084 -2348959.7)
(-2.4987603e+08 -26460480 19803792)
(-2.4564139e+08 -23656217 10130953)
(-2.470201e+08 -23538004 13855068)
(-2.5153892e+08 -19026607 37337597)
(-2.502079e+08 -29660600 39155048)
(-2.5043983e+08 -20020354 36897345)
(-2.4417235e+08 -24180160 9457372.2)
(-2.4720234e+08 -22417840 12148672)
(-2.5107394e+08 -29620542 37749741)
(-2.30662e+08 -23190802 -12757659)
(-2.3856126e+08 -20281845 4537548.3)
(-2.3337663e+08 -19645975 -10123972)
(-2.4020977e+08 -24974610 6452382.1)
(-2.2633534e+08 -21955006 -14245226)
(-2.291659e+08 -19164804 -11835855)
(-2.3394514e+08 -19700111 -471551.01)
(-2.3579862e+08 -23177407 1562895.7)
(-2.2798391e+08 -20539634 -13099148)
(-2.2839448e+08 -19406794 -10686310)
(-2.3520339e+08 -18439090 628240.14)
(-2.3515283e+08 -23733928 2817610.7)
(-2.3227932e+08 -21981389 -11615049)
(-2.3331027e+08 -20474255 -8834558.6)
(-2.395893e+08 -18927715 4854880.8)
(-2.3920373e+08 -24944682 6951164)
(-2.3034506e+08 -25285913 -11784789)
(-2.3817277e+08 -22279326 5042740.3)
(-2.3336992e+08 -21613284 -9580688.3)
(-2.3968437e+08 -26899198 6464254.1)
(-2.2649921e+08 -22375812 -13637341)
(-2.2665041e+08 -20248560 -11745897)
(-2.3401718e+08 -20211268 16418.082)
(-2.3369643e+08 -24659898 1902625)
(-2.2612996e+08 -24176595 -13067937)
(-2.3420752e+08 -21818052 427012)
(-2.2917689e+08 -21232516 -11082948)
(-2.3589449e+08 -25320278 2107369)
(-2.3077913e+08 -23667438 -12286289)
(-2.3135514e+08 -21046127 -10023368)
(-2.3800323e+08 -20372276 4113202)
(-2.3735084e+08 -25368353 5729689.4)
(-2.2566799e+08 -23295292 -14581359)
(-2.3060393e+08 -21168183 -2257067.3)
(-2.2830496e+08 -19489070 -12694816)
(-2.325747e+08 -24225529 -936881.77)
(-2.2732723e+08 -20363248 -14482118)
(-2.2725618e+08 -18048735 -13120972)
(-2.328163e+08 -18521294 -3217407.8)
(-2.3273229e+08 -21876434 -1846874.3)
(-2.2722898e+08 -22134420 -13795018)
(-2.3246782e+08 -20198496 -2959938)
(-2.2974432e+08 -18996580 -12266149)
(-2.3430201e+08 -22521195 -1634515.9)
(-2.2601187e+08 -21681106 -14929664)
(-2.2619284e+08 -18888168 -13252584)
(-2.3058148e+08 -19251674 -3136766.7)
(-2.3034748e+08 -22910226 -1795302.5)
(-2.3109673e+08 -19725461 -12897415)
(-2.3449359e+08 -17526010 -4378039.8)
(-2.3062634e+08 -16824121 -11609534)
(-2.3449704e+08 -20264634 -3504630.2)
(-2.3158595e+08 -21447246 -11758878)
(-2.3440837e+08 -19592512 -3609597)
(-2.3302487e+08 -17961801 -10246910)
(-2.363422e+08 -21813457 -2707202.4)
(-2.432606e+08 -18420794 -2148384.1)
(-2.439076e+08 -20673542 -1640169)
(-2.4225734e+08 -18790957 -17383052)
(-2.9096321e+08 -20123588 -7584368.7)
(-2.4279449e+08 -16084506 -17467067)
(-2.4320728e+08 -16567594 -3095530)
(-2.41849e+08 -19377742 -2499918.5)
(-2.8835528e+08 -24699390 -7920063.6)
(-2.3948607e+08 -14780796 -18783808)
(-2.4092216e+08 -17089199 -18599402)
(-2.8535986e+08 -22308589 -26307014)
(-2.8300095e+08 -16801787 -28558470)
(-2.4464202e+08 -15351222 -1764661.5)
(-2.4347527e+08 -19646415 -836353.7)
(-2.8982014e+08 -24237881 -5664904.7)
(-2.4127624e+08 -15108107 -17199672)
(-2.4228376e+08 -15948524 -17284699)
(-2.4327898e+08 -15923961 -3247033.8)
(-2.4416753e+08 -18787899 -1900998.4)
(-2.9108653e+08 -17644942 -8300705.5)
(-2.4218466e+08 -14429157 -18054752)
(-2.4165423e+08 -16681595 -18815475)
(-2.3134296e+08 -18822950 -13043947)
(-2.3357722e+08 -17339532 -5019887.4)
(-2.3317525e+08 -15993848 -10892743)
(-2.3573987e+08 -19932156 -3512314.7)
(-2.8588588e+08 -20475308 -28588436)
(-2.8500378e+08 -17390326 -25375079)
(-2.3303416e+08 -18384260 -11865863)
(-2.3515835e+08 -16143014 -3824304.5)
(-2.326049e+08 -17055510 -9952325.4)
(-2.3505374e+08 -20156163 -2495129.8)
(-2.2885525e+08 -18940057 -13821203)
(-2.3348315e+08 -17086549 -2814366.9)
(-2.2888517e+08 -17883769 -11864292)
(-2.3339948e+08 -21422390 -1025869.3)
(-2.2717775e+08 -20059778 -14964595)
(-2.3208445e+08 -18230001 -4119341.8)
(-2.2981101e+08 -17253130 -12832056)
(-2.3426858e+08 -20809220 -2258136.7)
(-2.2593057e+08 -21379253 -15691643)
(-2.3042084e+08 -19102709 -3654250.2)
(-2.2847226e+08 -17818197 -13267058)
(-2.3250059e+08 -22229653 -1864837.5)
(-2.2746449e+08 -20268162 -14537672)
(-2.3173922e+08 -17547763 -2574467.1)
(-2.2778905e+08 -18310195 -12280746)
(-2.3145045e+08 -21954872 -880870.66)
(-2.9016383e+08 -17886752 -29862469)
(-2.9097935e+08 -19104550 -29982647)
(-3.0186264e+08 -15503056 -6949277.5)
(-2.9873908e+08 -24006223 -5496882.6)
(-2.9781165e+08 -17859161 -7375108.7)
(-2.8885121e+08 -21886848 -33051245)
(-2.875764e+08 -17524306 -32892637)
(-2.9524966e+08 -23019182 -10299872)
(-2.2738669e+08 -20827857 -15320091)
(-2.3253553e+08 -18361564 -2563850.9)
(-2.2971845e+08 -17002202 -13131004)
(-2.3459955e+08 -21654662 -810125.07)
(-2.2970105e+08 -17873467 -14754883)
(-2.2926821e+08 -15471008 -13358004)
(-2.3509097e+08 -15900132 -3089618.3)
(-2.3500107e+08 -19368162 -1662504)
(-2.2867338e+08 -19933042 -14796561)
(-2.3394829e+08 -17812410 -3558364.4)
(-2.3086248e+08 -16600479 -12949916)
(-2.3570662e+08 -20197733 -1876175.7)
(-2.2856789e+08 -19196931 -15065573)
(-2.2863956e+08 -16385761 -13335107)
(-2.3355565e+08 -16570110 -3046005.5)
(-2.3339789e+08 -20359703 -1576258.1)
(-2.457292e+08 -14452506 -2677135.4)
(-2.4410554e+08 -17446170 -2074289.9)
(-2.9113725e+08 -23244836 -7258042.9)
(-2.407934e+08 -12877475 -19016061)
(-2.4271415e+08 -15263229 -18586685)
(-2.445572e+08 -16170005 -3002548)
(-2.4508124e+08 -18504735 -1966157.6)
(-2.9352087e+08 -18235058 -7789999)
(-2.4301636e+08 -14001784 -18319815)
(-2.4273755e+08 -16913972 -18541589)
(-2.3389032e+08 -17479753 -12946726)
(-2.3634786e+08 -14980812 -4797928.4)
(-2.3281889e+08 -14658665 -11537832)
(-2.3590196e+08 -17839037 -3827817.4)
(-2.3291166e+08 -19037925 -12750824)
(-2.3524167e+08 -17298694 -4808197)
(-2.3421565e+08 -15491647 -10877911)
(-2.3691442e+08 -19474688 -3562672.5)
(-2.8505508e+08 -20773420 -26784194)
(-2.8535287e+08 -15430260 -28567682)
(-2.4930928e+08 -13687830 36377.002)
(-2.4828813e+08 -18889599 1354931.3)
(-2.952293e+08 -23340059 -3289704.6)
(-2.452201e+08 -13761933 -16232591)
(-2.4639079e+08 -14090916 -16389940)
(-2.4696247e+08 -14007022 -2267967.1)
(-2.472658e+08 -17131821 -853497.94)
(-2.94477e+08 -16446537 -6571510.9)
(-2.441928e+08 -12597077 -17957081)
(-2.446688e+08 -14856479 -18349410)
(-2.3505453e+08 -16833554 -12440135)
(-2.3755195e+08 -15011488 -4287735.2)
(-2.3593331e+08 -14006271 -10219469)
(-2.3919024e+08 -17989516 -2643719.8)
(-2.8778541e+08 -19428211 -28597871)
(-2.8985894e+08 -15948090 -24014241)
(-2.3726619e+08 -16709873 -10685733)
(-2.394676e+08 -14256461 -2680992.2)
(-2.3639585e+08 -16040790 -8437067.8)
(-2.3927456e+08 -18868608 -1089504)
(-2.331575e+08 -17038602 -12884265)
(-2.3790263e+08 -15171497 -1751942.9)
(-2.3289243e+08 -16378570 -10749101)
(-2.3787166e+08 -20009799 170683.47)
(-2.3000745e+08 -19057015 -15075227)
(-2.3482065e+08 -16681936 -2618511.4)
(-2.3202386e+08 -15740684 -12636225)
(-2.3673204e+08 -20246551 -744674.18)
(-2.3100839e+08 -17619727 -14391401)
(-2.3614631e+08 -15717702 -3234649.3)
(-2.329902e+08 -15125444 -12268240)
(-2.3801001e+08 -18772897 -1305683.1)
(-2.3198163e+08 -18461882 -13566134)
(-2.3627128e+08 -15832021 -1653315.1)
(-2.3233238e+08 -17144715 -11126100)
(-2.3615259e+08 -20808830 199686.45)
(-2.9278216e+08 -17830713 -33644997)
(-2.9376764e+08 -16072961 -29898191)
(-3.0256537e+08 -14024450 -7393130.7)
(-3.0314799e+08 -22183041 -4453707.2)
(-2.992931e+08 -16486987 -10464291)
(-2.8979969e+08 -20197692 -35241188)
(-2.9060067e+08 -15515009 -32734401)
(-2.9905919e+08 -21384252 -9246724.6)
(-2.4929175e+08 -22211470 10189364)
(-2.5586534e+08 -17924677 38457733)
(-2.5175762e+08 -20354573 12862379)
(-2.5655657e+08 -27699685 39711621)
(-2.4466165e+08 -20579097 -2722252.3)
(-2.4549649e+08 -20989701 403427.21)
(-2.5388322e+08 -17581293 20134788)
(-2.530508e+08 -26357114 22607563)
(-2.4264056e+08 -21229765 -4255777.8)
(-2.5256509e+08 -17678115 18682295)
(-2.4530571e+08 -19357688 -1712520.2)
(-2.5345165e+08 -24223633 20545208)
(-2.5127989e+08 -21882574 11761101)
(-2.5649748e+08 -17518446 38749467)
(-2.5287507e+08 -22488215 15509738)
(-2.5534921e+08 -28620456 40639751)
(-2.4638722e+08 -24155949 9953768.3)
(-2.5325556e+08 -19709020 37918980)
(-2.4943657e+08 -22023375 12784278)
(-2.5451792e+08 -29413527 38987119)
(-2.4150248e+08 -21396355 -4693418.6)
(-2.5129813e+08 -18226839 18162650)
(-2.420249e+08 -19957875 -2107130.5)
(-2.5068664e+08 -25516098 20350859)
(-2.3989807e+08 -23286221 -4695976.5)
(-2.5017435e+08 -19764439 18375225)
(-2.4311725e+08 -20958793 -2127178.5)
(-2.514458e+08 -26105224 20336871)
(-2.4799184e+08 -22701447 9782289.2)
(-2.4920737e+08 -21537281 12926731)
(-2.5393296e+08 -18174523 36678266)
(-2.5298525e+08 -27844827 38327997)