/*--------------------------------*- C++ -*----------------------------------*\
  =========                 |
  \\      /  F ield         | OpenFOAM: The Open Source CFD Toolbox
   \\    /   O peration     | Website:  https://openfoam.org
    \\  /    A nd           | Version:  7
     \\/     M anipulation  |
\*---------------------------------------------------------------------------*/
FoamFile
{
    version     2.0;
    format      ascii;
    class       volScalarField;
    location    "6000";
    object      p;
}
// * * * * * * * * * * * * * * * * * * * * * * * * * * * * * * * * * * * * * //

dimensions      [0 2 -2 0 0 0 0];

internalField   nonuniform List<scalar> 
34222
(
-2.4712891e+73
-2.3359896e+73
-2.4949188e+73
-2.4289605e+73
-2.417514e+73
-2.4827823e+73
-2.496494e+73
-2.1881691e+73
-2.3561473e+73
-2.2837671e+73
-2.2932056e+73
-2.3632928e+73
-2.3532146e+73
-2.520299e+73
-2.5242087e+73
-2.4406637e+73
-2.4536747e+73
-2.5093151e+73
-2.4275944e+73
-2.4160155e+73
-2.4795403e+73
-2.492916e+73
-2.5500135e+73
-2.2052892e+73
-2.0356083e+73
-2.2224404e+73
-2.1484173e+73
-2.1408532e+73
-2.2137729e+73
-2.3773616e+73
-2.3859498e+73
-2.3136178e+73
-2.3019094e+73
-2.373875e+73
-2.2830775e+73
-2.292265e+73
-2.3607559e+73
-2.3507049e+73
-2.5448641e+73
-2.5502887e+73
-2.4761063e+73
-2.4642284e+73
-2.5361559e+73
-2.5210989e+73
-2.4403724e+73
-2.4533274e+73
-2.5069842e+73
-2.4281564e+73
-2.4168253e+73
-2.4807299e+73
-2.4935123e+73
-2.561612e+73
-2.4809419e+73
-2.4932134e+73
-2.5755159e+73
-2.4447254e+73
-2.4566276e+73
-2.2234438e+73
-2.0500581e+73
-2.2411064e+73
-2.1652056e+73
-2.1555553e+73
-2.2301956e+73
-2.003732e+73
-2.0763959e+73
-2.0692667e+73
-1.9969467e+73
-2.2203084e+73
-2.1479271e+73
-2.1401328e+73
-2.2118118e+73
-2.3651584e+73
-2.3757699e+73
-2.3992243e+73
-2.3225392e+73
-2.3323997e+73
-2.4059386e+73
-2.3956355e+73
-2.3840993e+73
-2.3133692e+73
-2.300981e+73
-2.3716346e+73
-2.283535e+73
-2.2919891e+73
-2.3608131e+73
-2.3513478e+73
-2.5008747e+73
-2.487875e+73
-2.5627784e+73
-2.5758319e+73
-2.5465753e+73
-2.4741766e+73
-2.4635601e+73
-2.533263e+73
-2.5224346e+73
-2.4410357e+73
-2.4546036e+73
-2.5080236e+73
-2.4282342e+73
-2.4169264e+73
-2.4808867e+73
-2.493619e+73
-2.4915728e+73
-2.4960022e+73
-2.502892e+73
-2.5862314e+73
-2.5077884e+73
-2.4452782e+73
-2.422946e+73
-2.4180516e+73
-2.4512627e+73
-2.4237774e+73
-2.4568915e+73
-2.462699e+73
-2.4351313e+73
-2.5038835e+73
-2.4295235e+73
-2.5156838e+73
-2.4675394e+73
-2.4793679e+73
-2.6021985e+73
-2.2853213e+73
-2.2033823e+73
-2.2425947e+73
-2.212843e+73
-2.0658512e+73
-2.2594667e+73
-2.1833708e+73
-2.1734644e+73
-2.2495427e+73
-2.2950281e+73
-2.0103514e+73
-2.0177399e+73
-2.0916551e+73
-2.0832615e+73
-2.2392754e+73
-2.1645841e+73
-2.1546541e+73
-2.2276025e+73
-2.0049388e+73
-2.0752308e+73
-2.0680494e+73
-1.9983532e+73
-2.2201648e+73
-2.1476854e+73
-2.1395078e+73
-2.2113586e+73
-2.3700982e+73
-2.3744082e+73
-2.3749245e+73
-2.3802215e+73
-2.3862077e+73
-2.3856234e+73
-2.3969066e+73
-2.4229781e+73
-2.3532168e+73
-2.3420867e+73
-2.416606e+73
-2.4281914e+73
-2.3224823e+73
-2.3321559e+73
-2.4032776e+73
-2.3937727e+73
-2.3847099e+73
-2.3139117e+73
-2.3006682e+73
-2.3719067e+73
-2.2835673e+73
-2.2919873e+73
-2.3608375e+73
-2.3513967e+73
-2.4995323e+73
-2.4860813e+73
-2.5597356e+73
-2.5731558e+73
-2.5468499e+73
-2.4737647e+73
-2.4646955e+73
-2.5344385e+73
-2.5225904e+73
-2.4411175e+73
-2.4547106e+73
-2.5081508e+73
-2.4846317e+73
-2.4732439e+73
-2.4574917e+73
-2.4432499e+73
-2.4375409e+73
-2.451798e+73
-2.4602655e+73
-2.4332116e+73
-2.4581973e+73
-2.4659802e+73
-2.4641719e+73
-2.5136607e+73
-2.4677709e+73
-2.453548e+73
-2.4482713e+73
-2.4624904e+73
-2.5253362e+73
-2.6119418e+73
-2.5301758e+73
-2.5185815e+73
-2.47662e+73
-2.4712784e+73
-2.4752587e+73
-2.4696851e+73
-2.4252116e+73
-2.4279122e+73
-2.4082535e+73
-2.4057081e+73
-2.4114595e+73
-2.410218e+73
-2.3975622e+73
-2.3987879e+73
-2.413598e+73
-2.4333326e+73
-2.4305166e+73
-2.4108334e+73
-2.4391769e+73
-2.4360414e+73
-2.4195405e+73
-2.4163797e+73
-2.4448428e+73
-2.442014e+73
-2.4252856e+73
-2.4224777e+73
-2.46767e+73
-2.4399809e+73
-2.4736371e+73
-2.4459457e+73
-2.5261817e+73
-2.4569613e+73
-2.4843301e+73
-2.4514769e+73
-2.4788602e+73
-2.4905365e+73
-2.5039629e+73
-2.5390418e+73
-2.3206104e+73
-2.3473808e+73
-2.325304e+73
-2.2774365e+73
-2.2806163e+73
-2.2984187e+73
-2.3297716e+73
-2.2853522e+73
-2.2065921e+73
-2.2246181e+73
-2.2430836e+73
-2.2404679e+73
-2.2587628e+73
-2.2482464e+73
-2.2116232e+73
-2.1247787e+73
-2.2308403e+73
-2.3145863e+73
-2.2215218e+73
-2.2638718e+73
-2.2800652e+73
-2.2041091e+73
-2.0830387e+73
-2.1930446e+73
-2.269088e+73
-2.3043385e+73
-2.2579478e+73
-2.2213598e+73
-2.2529356e+73
-2.2161191e+73
-2.133313e+73
-2.0248244e+73
-2.0336453e+73
-2.1089356e+73
-2.0994549e+73
-2.2580655e+73
-2.1831877e+73
-2.1729394e+73
-2.2478479e+73
-2.3403045e+73
-2.3345617e+73
-2.289679e+73
-2.2949325e+73
-2.011554e+73
-2.0188451e+73
-2.09015e+73
-2.0819483e+73
-2.239643e+73
-2.1644373e+73
-2.1542503e+73
-2.2270662e+73
-2.0049422e+73
-2.0751002e+73
-2.0680687e+73
-1.9987638e+73
-2.2201497e+73
-2.1476714e+73
-2.1394682e+73
-2.2113163e+73
-2.3763681e+73
-2.3785444e+73
-2.380714e+73
-2.3792884e+73
-2.3806848e+73
-2.3834761e+73
-2.3862447e+73
-2.3893394e+73
-2.39215e+73
-2.3953868e+73
-2.3909827e+73
-2.3964428e+73
-2.40798e+73
-2.4077775e+73
-2.4019155e+73
-2.420676e+73
-2.4406555e+73
-2.4541577e+73
-2.3774995e+73
-2.3644182e+73
-2.3513586e+73
-2.3406141e+73
-2.4129513e+73
-2.4244796e+73
-2.3230524e+73
-2.3318756e+73
-2.4022742e+73
-2.3947556e+73
-2.3847819e+73
-2.3139861e+73
-2.3006595e+73
-2.3719447e+73
-2.4994916e+73
-2.4860292e+73
-2.5605463e+73
-2.5749761e+73
-2.5469169e+73
-2.4737633e+73
-2.4648202e+73
-2.5345965e+73
-2.4130209e+73
-2.4024209e+73
-2.4192516e+73
-2.4045828e+73
-2.3992411e+73
-2.4140982e+73
-2.4355542e+73
-2.4421841e+73
-2.4393075e+73
-2.4326907e+73
-2.440745e+73
-2.4292463e+73
-2.4265605e+73
-2.4253661e+73
-2.4196703e+73
-2.4355838e+73
-2.4184598e+73
-2.4436126e+73
-2.4383948e+73
-2.4381162e+73
-2.4405201e+73
-2.4472948e+73
-2.4447488e+73
-2.4489577e+73
-2.4463011e+73
-2.4438429e+73
-2.4410743e+73
-2.4790121e+73
-2.4649011e+73
-2.4587869e+73
-2.4729269e+73
-2.4291435e+73
-2.4146554e+73
-2.4094001e+73
-2.4240334e+73
-2.5362765e+73
-2.4702345e+73
-2.4758647e+73
-2.4898031e+73
-2.4843751e+73
-2.5485758e+73
-2.5533064e+73
-2.540879e+73
-2.4984295e+73
-2.4931646e+73
-2.4969964e+73
-2.4916893e+73
-2.4877729e+73
-2.4818162e+73
-2.4803901e+73
-2.4863498e+73
-2.4481907e+73
-2.4507179e+73
-2.4576811e+73
-2.4550722e+73
-2.4428199e+73
-2.4455996e+73
-2.4525324e+73
-2.449706e+73
-2.4596502e+73
-2.4570369e+73
-2.4549787e+73
-2.4522681e+73
-2.4515145e+73
-2.4544127e+73
-2.4495239e+73
-2.4464923e+73
-2.4138455e+73
-2.4125817e+73
-2.400936e+73
-2.3997679e+73
-2.4162003e+73
-2.4150304e+73
-2.4021167e+73
-2.4032889e+73
-2.401323e+73
-2.4019119e+73
-2.3951835e+73
-2.394597e+73
-2.3999775e+73
-2.4007298e+73
-2.3939437e+73
-2.3932267e+73
-2.421477e+73
-2.4200744e+73
-2.4071234e+73
-2.4085659e+73
-2.418735e+73
-2.4173948e+73
-2.4044294e+73
-2.4057333e+73
-2.4273034e+73
-2.4258434e+73
-2.4129563e+73
-2.4144522e+73
-2.4244015e+73
-2.4228398e+73
-2.409889e+73
-2.4114675e+73
-2.4331914e+73
-2.431813e+73
-2.4189724e+73
-2.4203696e+73
-2.4472861e+73
-2.4303735e+73
-2.4287524e+73
-2.4158774e+73
-2.4174812e+73
-2.4276878e+73
-2.4305181e+73
-2.4501473e+73
-2.4528974e+73
-2.4557388e+73
-2.4361907e+73
-2.4332845e+73
-2.4890289e+73
-2.4948132e+73
-2.4678187e+73
-2.4617845e+73
-2.4663966e+73
-2.4471802e+73
-2.4637605e+73
-2.4444934e+73
-2.461085e+73
-2.4581926e+73
-2.4416651e+73
-2.4387317e+73
-2.5062875e+73
-2.5002073e+73
-2.4796718e+73
-2.4735494e+73
-2.322416e+73
-2.3198889e+73
-2.318627e+73
-2.3329877e+73
-2.3317317e+73
-2.3469577e+73
-2.3637432e+73
-2.3456035e+73
-2.3623235e+73
-2.349264e+73
-2.3244508e+73
-2.351273e+73
-2.2771007e+73
-2.2868645e+73
-2.27591e+73
-2.2857071e+73
-2.2792751e+73
-2.3001685e+73
-2.2813363e+73
-2.3022636e+73
-2.2969509e+73
-2.3083365e+73
-2.2957703e+73
-2.3071054e+73
-2.3262028e+73
-2.3531893e+73
-2.3286168e+73
-2.3557638e+73
-2.3064568e+73
-2.285795e+73
-2.2833492e+73
-2.3041303e+73
-2.212888e+73
-2.2106e+73
-2.2284369e+73
-2.2262475e+73
-2.1705618e+73
-2.2180218e+73
-2.225433e+73
-2.2244243e+73
-2.2332314e+73
-2.2321284e+73
-2.2444527e+73
-2.2627515e+73
-2.2606473e+73
-2.2422603e+73
-2.2391316e+73
-2.2474473e+73
-2.2561541e+73
-2.2400037e+73
-2.2411405e+73
-2.2494761e+73
-2.2483334e+73
-2.2582844e+73
-2.2677377e+73
-2.2570954e+73
-2.2665236e+73
-2.2676411e+73
-2.2649815e+73
-2.2496302e+73
-2.2467626e+73
-2.2178921e+73
-2.2151071e+73
-2.2335862e+73
-2.2307431e+73
-2.175531e+73
-2.1355125e+73
-2.23962e+73
-2.2344115e+73
-2.2715525e+73
-2.2767873e+73
-2.1507816e+73
-2.2404069e+73
-2.3555406e+73
-2.3616293e+73
-2.3150833e+73
-2.3093016e+73
-2.3253099e+73
-2.2672434e+73
-2.2302217e+73
-2.2252322e+73
-2.2620079e+73
-2.1416765e+73
-2.338076e+73
-2.1018325e+73
-2.2517142e+73
-2.2260291e+73
-2.3027144e+73
-2.2906097e+73
-2.2141918e+73
-2.2780188e+73
-2.204275e+73
-2.1284329e+73
-2.0414056e+73
-2.0509208e+73
-2.1179024e+73
-2.1936307e+73
-2.2675676e+73
-2.304495e+73
-2.299406e+73
-2.3502034e+73
-2.345092e+73
-2.2774024e+73
-2.2568089e+73
-2.2595245e+73
-2.27444e+73
-2.2412019e+73
-2.2437578e+73
-2.2280754e+73
-2.2256827e+73
-2.1848412e+73
-2.2721322e+73
-2.2519498e+73
-2.2545427e+73
-2.2697197e+73
-2.2360843e+73
-2.2388605e+73
-2.2233173e+73
-2.2204148e+73
-2.1796429e+73
-2.1443905e+73
-2.1395783e+73
-2.0259293e+73
-2.0346943e+73
-2.1079081e+73
-2.098192e+73
-2.2582487e+73
-2.183363e+73
-2.1727001e+73
-2.2476638e+73
-2.3365487e+73
-2.3398105e+73
-2.3675356e+73
-2.3642788e+73
-2.3615338e+73
-2.3310163e+73
-2.333885e+73
-2.3584929e+73
-2.3111965e+73
-2.2900702e+73
-2.2876987e+73
-2.3085454e+73
-2.3169465e+73
-2.2925332e+73
-2.2956142e+73
-2.313819e+73
-2.0115624e+73
-2.0190563e+73
-2.0899787e+73
-2.0817952e+73
-2.2397016e+73
-2.1644407e+73
-2.1542254e+73
-2.227029e+73
-2.0049394e+73
-2.0750953e+73
-2.0680748e+73
-1.9987962e+73
-2.3826528e+73
-2.3816444e+73
-2.3848935e+73
-2.3836825e+73
-2.3841231e+73
-2.3834493e+73
-2.3820867e+73
-2.3827718e+73
-2.3870036e+73
-2.3858761e+73
-2.3898988e+73
-2.3882893e+73
-2.3927704e+73
-2.3912361e+73
-2.3958122e+73
-2.3941756e+73
-2.3987785e+73
-2.3972011e+73
-2.3979029e+73
-2.4019222e+73
-2.4002681e+73
-2.4006401e+73
-2.4031083e+73
-2.4062377e+73
-2.4128754e+73
-2.4176161e+73
-2.4144988e+73
-2.4187031e+73
-2.4117868e+73
-2.4088499e+73
-2.4306736e+73
-2.4241992e+73
-2.4370339e+73
-2.4510913e+73
-2.3757366e+73
-2.3625601e+73
-2.3509654e+73
-2.3399192e+73
-2.4122587e+73
-2.4241087e+73
-2.3231182e+73
-2.3318603e+73
-2.4022242e+73
-2.394839e+73
-2.4995166e+73
-2.4860328e+73
-2.5606434e+73
-2.5751744e+73
-2.4241262e+73
-2.435404e+73
-2.3805327e+73
-2.4224522e+73
-2.4200573e+73
-2.366817e+73
-2.3617576e+73
-2.3759224e+73
-2.4149677e+73
-2.4176336e+73
-2.4256093e+73
-2.4229822e+73
-2.4198355e+73
-2.4304428e+73
-2.429062e+73
-2.4318159e+73
-2.4304424e+73
-2.423283e+73
-2.4228075e+73
-2.4232434e+73
-2.423795e+73
-2.4227668e+73
-2.4222011e+73
-2.4206567e+73
-2.4277339e+73
-2.4200676e+73
-2.4216353e+73
-2.4209568e+73
-2.4195e+73
-2.4188179e+73
-2.4161937e+73
-2.4208406e+73
-2.4082598e+73
-2.4076673e+73
-2.4156251e+73
-2.4291187e+73
-2.422186e+73
-2.4143097e+73
-2.4150428e+73
-2.4070859e+73
-2.4063296e+73
-2.4330143e+73
-2.4317715e+73
-2.4343881e+73
-2.4330909e+73
-2.4303694e+73
-2.4233857e+73
-2.4316258e+73
-2.4245638e+73
-2.4304913e+73
-2.4280733e+73
-2.4395502e+73
-2.4382883e+73
-2.4368739e+73
-2.4380277e+73
-2.4356392e+73
-2.4342677e+73
-2.4356366e+73
-2.4370496e+73
-2.4368552e+73
-2.4355853e+73
-2.4298255e+73
-2.4285007e+73
-2.434308e+73
-2.4271964e+73
-2.4328631e+73
-2.4257828e+73
-2.44031e+73
-2.4257897e+73
-2.4197879e+73
-2.4343959e+73
-2.3898837e+73
-2.4322395e+73
-2.4296589e+73
-2.3765602e+73
-2.3715948e+73
-2.3852841e+73
-2.427136e+73
-2.4246056e+73
-2.5004382e+73
-2.4870609e+73
-2.4811407e+73
-2.4947457e+73
-2.4309167e+73
-2.4367608e+73
-2.4513146e+73
-2.4458144e+73
-2.5114426e+73
-2.4983748e+73
-2.4924702e+73
-2.5056398e+73
-2.5198592e+73
-2.5140794e+73
-2.5187751e+73
-2.512849e+73
-2.5032705e+73
-2.5074584e+73
-2.5018261e+73
-2.5088175e+73
-2.4701323e+73
-2.4725564e+73
-2.4793766e+73
-2.4769151e+73
-2.4744555e+73
-2.4676395e+73
-2.4646996e+73
-2.4715268e+73
-2.4812081e+73
-2.4787624e+73
-2.4765039e+73
-2.4739773e+73
-2.4733525e+73
-2.4713797e+73
-2.4762587e+73
-2.4684911e+73
-2.4689064e+73
-2.4620355e+73
-2.4592246e+73
-2.4660574e+73
-2.4632895e+73
-2.4563605e+73
-2.4532788e+73
-2.4602288e+73
-2.462172e+73
-2.4603761e+73
-2.4651543e+73
-2.4574462e+73
-2.4707474e+73
-2.4679383e+73
-2.465935e+73
-2.4631371e+73
-2.4404952e+73
-2.4378487e+73
-2.4353106e+73
-2.432786e+73
-2.4484299e+73
-2.4471864e+73
-2.450192e+73
-2.448884e+73
-2.4458658e+73
-2.4444486e+73
-2.4476038e+73
-2.4461361e+73
-2.4478116e+73
-2.446523e+73
-2.4412707e+73
-2.4399541e+73
-2.4451901e+73
-2.4436758e+73
-2.4385373e+73
-2.4369405e+73
-2.4405983e+73
-2.4392269e+73
-2.4407645e+73
-2.4422017e+73
-2.4419216e+73
-2.4431797e+73
-2.444861e+73
-2.4435124e+73
-2.4423551e+73
-2.4409906e+73
-2.435549e+73
-2.4341467e+73
-2.4396256e+73
-2.4327194e+73
-2.4381255e+73
-2.4311645e+73
-2.4035916e+73
-2.4041644e+73
-2.3972984e+73
-2.3967192e+73
-2.4024185e+73
-2.4030404e+73
-2.3961588e+73
-2.3956175e+73
-2.3996472e+73
-2.4064697e+73
-2.405938e+73
-2.3990664e+73
-2.4047072e+73
-2.4053699e+73
-2.3984757e+73
-2.3978594e+73
-2.3877309e+73
-2.3883254e+73
-2.3863788e+73
-2.3870832e+73
-2.4047911e+73
-2.4116523e+73
-2.4109336e+73
-2.4040564e+73
-2.4033261e+73
-2.4102652e+73
-2.4094442e+73
-2.4025746e+73
-2.4019598e+73
-2.4088207e+73
-2.4082075e+73
-2.4013032e+73
-2.4007162e+73
-2.4076536e+73
-2.4069795e+73
-2.4001425e+73
-2.4167456e+73
-2.4175203e+73
-2.4107067e+73
-2.4099294e+73
-2.4152594e+73
-2.4160832e+73
-2.409188e+73
-2.4084123e+73
-2.4138344e+73
-2.4145737e+73
-2.4077284e+73
-2.4069466e+73
-2.4061865e+73
-2.4131494e+73
-2.4122967e+73
-2.4054005e+73
-2.4228207e+73
-2.4234832e+73
-2.4344344e+73
-2.4166446e+73
-2.4159793e+73
-2.4213144e+73
-2.4221543e+73
-2.4152498e+73
-2.414471e+73
-2.4215321e+73
-2.4358537e+73
-2.4229687e+73
-2.4198442e+73
-2.4206084e+73
-2.4137727e+73
-2.4129764e+73
-2.4182374e+73
-2.419105e+73
-2.4121948e+73
-2.4113932e+73
-2.4384904e+73
-2.4371697e+73
-2.4243702e+73
-2.4257031e+73
-2.4413128e+73
-2.4398255e+73
-2.4269737e+73
-2.4284785e+73
-2.4439829e+73
-2.4426911e+73
-2.429973e+73
-2.4313828e+73
-2.4713313e+73
-2.4521517e+73
-2.4686193e+73
-2.4493671e+73
-2.473847e+73
-2.4548514e+73
-2.4764794e+73
-2.4575556e+73
-2.4422976e+73
-2.4548189e+73
-2.4535363e+73
-2.4409805e+73
-2.4522105e+73
-2.4506986e+73
-2.439588e+73
-2.4380531e+73
-2.4493492e+73
-2.4479865e+73
-2.436703e+73
-2.4353036e+73
-2.4339361e+73
-2.4466638e+73
-2.4452372e+73
-2.4325138e+73
-2.4692052e+73
-2.4877616e+73
-2.4847502e+73
-2.466116e+73
-2.4818897e+73
-2.4789241e+73
-2.463094e+73
-2.4600423e+73
-2.3216705e+73
-2.3348773e+73
-2.3207443e+73
-2.3338736e+73
-2.3188084e+73
-2.3252281e+73
-2.3246601e+73
-2.3182068e+73
-2.3176039e+73
-2.3240369e+73
-2.3169763e+73
-2.3233469e+73
-2.3384057e+73
-2.3316837e+73
-2.3390837e+73
-2.3310546e+73
-2.3297834e+73
-2.3371587e+73
-2.3304674e+73
-2.3378173e+73
-2.3478833e+73
-2.3464714e+73
-2.3550318e+73
-2.3543699e+73
-2.3457854e+73
-2.3646722e+73
-2.3638584e+73
-2.3740165e+73
-2.3732947e+73
-2.3631572e+73
-2.3451774e+73
-2.3445179e+73
-2.3537402e+73
-2.3530331e+73
-2.3625114e+73
-2.3618228e+73
-2.3726212e+73
-2.3719424e+73
-2.3488543e+73
-2.3656309e+73
-2.3236087e+73
-2.3367632e+73
-2.3225972e+73
-2.3358074e+73
-2.3508041e+73
-2.367707e+73
-2.3497653e+73
-2.366582e+73
-2.2779962e+73
-2.2761584e+73
-2.2755467e+73
-2.2809071e+73
-2.2803105e+73
-2.2850612e+73
-2.2877036e+73
-2.2901152e+73
-2.2856644e+73
-2.2907258e+73
-2.2792566e+73
-2.2750066e+73
-2.2797729e+73
-2.2745011e+73
-2.2845235e+73
-2.2895653e+73
-2.2890193e+73
-2.2839928e+73
-2.2789371e+73
-2.2886505e+73
-2.2986866e+73
-2.2977709e+73
-2.3100418e+73
-2.3091466e+73
-2.2809583e+73
-2.2799004e+73
-2.2906443e+73
-2.2896319e+73
-2.3006882e+73
-2.3120446e+73
-2.299654e+73
-2.3110063e+73
-2.295814e+73
-2.3012896e+73
-2.3007043e+73
-2.2952093e+73
-2.3122826e+73
-2.3068398e+73
-2.3128923e+73
-2.3062374e+73
-2.2995436e+73
-2.294651e+73
-2.3001378e+73
-2.2940975e+73
-2.3056686e+73
-2.3116952e+73
-2.3110805e+73
-2.3050686e+73
-2.3252545e+73
-2.3385466e+73
-2.3243706e+73
-2.3375673e+73
-2.3526534e+73
-2.3516593e+73
-2.3696589e+73
-2.3686234e+73
-2.3276732e+73
-2.3409857e+73
-2.3262935e+73
-2.3396076e+73
-2.3552536e+73
-2.3724518e+73
-2.3537435e+73
-2.3708523e+73
-2.3047127e+73
-2.3160359e+73
-2.3034187e+73
-2.314698e+73
-2.2851324e+73
-2.2946877e+73
-2.2838607e+73
-2.2934532e+73
-2.282741e+73
-2.2923686e+73
-2.2817436e+73
-2.2914021e+73
-2.3023534e+73
-2.3136547e+73
-2.3014351e+73
-2.3127856e+73
-2.2217918e+73
-2.2205337e+73
-2.1975816e+73
-2.2145176e+73
-2.2132132e+73
-2.219554e+73
-2.2187042e+73
-2.1952751e+73
-2.2112684e+73
-2.2121392e+73
-2.2291488e+73
-2.2279036e+73
-2.237092e+73
-2.2358098e+73
-2.2269811e+73
-2.2261642e+73
-2.2348586e+73
-2.2340324e+73
-2.1818144e+73
-2.2181367e+73
-2.2177405e+73
-2.2222519e+73
-2.2218212e+73
-2.2121719e+73
-2.2259563e+73
-2.2295602e+73
-2.229089e+73
-2.2255087e+73
-2.2251307e+73
-2.2286697e+73
-2.2282561e+73
-2.2247047e+73
-2.23337e+73
-2.237188e+73
-2.2366258e+73
-2.2328543e+73
-2.2323779e+73
-2.2361257e+73
-2.2356979e+73
-2.2319616e+73
-2.2451838e+73
-2.2536148e+73
-2.2439112e+73
-2.2523753e+73
-2.2623701e+73
-2.2611569e+73
-2.2716857e+73
-2.270546e+73
-2.2601868e+73
-2.2592299e+73
-2.2695785e+73
-2.2686518e+73
-2.2429279e+73
-2.2513708e+73
-2.2420373e+73
-2.2504151e+73
-2.2392143e+73
-2.2426341e+73
-2.2430831e+73
-2.2387234e+73
-2.2471084e+73
-2.2512952e+73
-2.2466446e+73
-2.2507948e+73
-2.259543e+73
-2.2555984e+73
-2.260037e+73
-2.255096e+73
-2.2395871e+73
-2.2400252e+73
-2.2434565e+73
-2.2439227e+73
-2.2405376e+73
-2.2411092e+73
-2.2450216e+73
-2.2444383e+73
-2.2484973e+73
-2.2527213e+73
-2.2490945e+73
-2.2533336e+73
-2.2479787e+73
-2.2521941e+73
-2.2517156e+73
-2.2475067e+73
-2.2576768e+73
-2.2570678e+73
-2.2621492e+73
-2.2615485e+73
-2.2661236e+73
-2.2708672e+73
-2.266735e+73
-2.2714864e+73
-2.2604837e+73
-2.2565301e+73
-2.2610063e+73
-2.2560344e+73
-2.2655807e+73
-2.2703213e+73
-2.2698056e+73
-2.26506e+73
-2.2670008e+73
-2.2656541e+73
-2.2760369e+73
-2.2747197e+73
-2.2644597e+73
-2.2735521e+73
-2.2633725e+73
-2.2725408e+73
-2.2503198e+73
-2.2585038e+73
-2.2488282e+73
-2.2571173e+73
-2.2475306e+73
-2.2558643e+73
-2.2547179e+73
-2.2463266e+73
-2.2270654e+73
-2.2254585e+73
-2.2025372e+73
-2.219655e+73
-2.2180202e+73
-2.2241507e+73
-2.2229335e+73
-2.1997954e+73
-2.2167844e+73
-2.2156157e+73
-2.2344817e+73
-2.2423502e+73
-2.2328857e+73
-2.2407588e+73
-2.2315409e+73
-2.2394272e+73
-2.2303219e+73
-2.2382326e+73
-2.1868626e+73
-2.184028e+73
-2.1712442e+73
-2.1546011e+73
-2.151514e+73
-2.1681923e+73
-2.2439748e+73
-2.2437789e+73
-2.2462302e+73
-2.2623386e+73
-2.2027496e+73
-2.2596917e+73
-2.2416224e+73
-2.2575236e+73
-2.2553321e+73
-2.239532e+73
-2.1977359e+73
-2.2921947e+73
-2.2711758e+73
-2.2736278e+73
-2.2894817e+73
-2.2758792e+73
-2.2946582e+73
-2.2817273e+73
-2.2977274e+73
-2.2787586e+73
-2.1572602e+73
-2.1616863e+73
-2.1596136e+73
-2.2887983e+73
-2.2498796e+73
-2.3840209e+73
-2.3528479e+73
-2.3560564e+73
-2.3809576e+73
-2.3588032e+73
-2.3867394e+73
-2.3620586e+73
-2.3668729e+73
-2.3899371e+73
-2.3137481e+73
-2.335726e+73
-2.3202968e+73
-2.3388616e+73
-2.3168966e+73
-2.332929e+73
-2.3110816e+73
-2.3081444e+73
-2.3297683e+73
-2.3730783e+73
-2.3272574e+73
-2.2872269e+73
-2.266446e+73
-2.269203e+73
-2.2844383e+73
-2.2506486e+73
-2.2533924e+73
-2.237712e+73
-2.2349242e+73
-2.1934496e+73
-2.2300245e+73
-2.2324914e+73
-2.248166e+73
-2.1886396e+73
-2.2456872e+73
-2.2615451e+73
-2.2822333e+73
-2.2640652e+73
-2.2797124e+73
-2.1526631e+73
-2.1484144e+73
-2.3337256e+73
-2.3399674e+73
-2.3852657e+73
-2.3789779e+73
-2.1383627e+73
-2.149377e+73
-2.0706188e+73
-2.0604674e+73
-2.295269e+73
-2.2555421e+73
-2.2265484e+73
-2.3008953e+73
-2.2884658e+73
-2.2144141e+73
-2.2776737e+73
-2.2041558e+73
-2.1278361e+73
-2.0427117e+73
-2.0523357e+73
-2.1174326e+73
-2.1940573e+73
-2.2675592e+73
-2.3271056e+73
-2.3056007e+73
-2.3028465e+73
-2.3243708e+73
-2.2981876e+73
-2.3007397e+73
-2.3221817e+73
-2.3195361e+73
-2.3472168e+73
-2.3500979e+73
-2.3781938e+73
-2.375179e+73
-2.3728457e+73
-2.345018e+73
-2.3423578e+73
-2.3701752e+73
-2.2769815e+73
-2.2861442e+73
-2.2753768e+73
-2.2844721e+73
-2.2576155e+73
-2.2563879e+73
-2.2656175e+73
-2.2643246e+73
-2.2603447e+73
-2.2684457e+73
-2.2588763e+73
-2.2669351e+73
-2.274004e+73
-2.2830611e+73
-2.2726742e+73
-2.281685e+73
-2.2423995e+73
-2.249912e+73
-2.2412605e+73
-2.2487432e+73
-2.2449161e+73
-2.2525757e+73
-2.2435944e+73
-2.2511497e+73
-2.2375096e+73
-2.2362318e+73
-2.2126745e+73
-2.2300972e+73
-2.2288915e+73
-2.2351353e+73
-2.2340188e+73
-2.2103724e+73
-2.2268696e+73
-2.227941e+73
-2.1969165e+73
-2.1946583e+73
-2.2715528e+73
-2.2701975e+73
-2.2804944e+73
-2.2791654e+73
-2.2525977e+73
-2.2513845e+73
-2.2606383e+73
-2.2594824e+73
-2.2552797e+73
-2.2632011e+73
-2.2538362e+73
-2.2618317e+73
-2.2690467e+73
-2.2679428e+73
-2.2780597e+73
-2.2769847e+73
-2.2372218e+73
-2.2448103e+73
-2.2358316e+73
-2.243545e+73
-2.2400899e+73
-2.2476137e+73
-2.2386082e+73
-2.2461238e+73
-2.2328552e+73
-2.2313233e+73
-2.2079429e+73
-2.2257172e+73
-2.2240914e+73
-2.2298946e+73
-2.2284157e+73
-2.2049688e+73
-2.2226288e+73
-2.2210473e+73
-2.1921089e+73
-2.1891321e+73
-2.1811455e+73
-2.1642388e+73
-2.1613646e+73
-2.1786249e+73
-2.1564552e+73
-2.1588942e+73
-2.1760196e+73
-2.1732504e+73
-2.1451091e+73
-2.0260009e+73
-2.0348012e+73
-2.1082732e+73
-2.0981816e+73
-2.2582468e+73
-2.1833716e+73
-2.1727005e+73
-2.2476715e+73
-2.3360278e+73
-2.3344903e+73
-2.3496724e+73
-2.3480443e+73
-2.3392158e+73
-2.3527692e+73
-2.3375399e+73
-2.3511611e+73
-2.3672253e+73
-2.3845588e+73
-2.3655368e+73
-2.3828378e+73
-2.3640894e+73
-2.3813472e+73
-2.3624976e+73
-2.3797682e+73
-2.3611499e+73
-2.3595903e+73
-2.3783654e+73
-2.3767778e+73
-2.3303414e+73
-2.3289278e+73
-2.3438562e+73
-2.3423148e+73
-2.3331658e+73
-2.3466737e+73
-2.3316453e+73
-2.345201e+73
-2.358211e+73
-2.3566641e+73
-2.3753992e+73
-2.3738702e+73
-2.3096599e+73
-2.3213005e+73
-2.3082503e+73
-2.3198171e+73
-2.2895814e+73
-2.2993474e+73
-2.2882518e+73
-2.2980107e+73
-2.2871768e+73
-2.2968919e+73
-2.2860913e+73
-2.2957076e+73
-2.3070576e+73
-2.305807e+73
-2.3185596e+73
-2.317223e+73
-2.315682e+73
-2.3273302e+73
-2.3139449e+73
-2.3256496e+73
-2.2922556e+73
-2.3021301e+73
-2.2908328e+73
-2.3006388e+73
-2.3053091e+73
-2.2953802e+73
-2.2936722e+73
-2.303593e+73
-2.3124594e+73
-2.3241384e+73
-2.3109536e+73
-2.3226282e+73
-2.0115691e+73
-2.0190928e+73
-2.0899875e+73
-2.0817959e+73
-2.3861385e+73
-2.3855359e+73
-2.3845645e+73
-2.3850438e+73
-2.3883831e+73
-2.3877599e+73
-2.3871896e+73
-2.3866281e+73
-2.3905296e+73
-2.3898611e+73
-2.3893197e+73
-2.3888209e+73
-2.3934123e+73
-2.3925486e+73
-2.3918054e+73
-2.3910973e+73
-2.3963494e+73
-2.3955365e+73
-2.3947912e+73
-2.394047e+73
-2.3993228e+73
-2.3984716e+73
-2.3977374e+73
-2.396999e+73
-2.4024032e+73
-2.4015339e+73
-2.4007643e+73
-2.3999911e+73
-2.4045913e+73
-2.4031657e+73
-2.4054184e+73
-2.4045919e+73
-2.4038414e+73
-2.4030767e+73
-2.4073944e+73
-2.4059358e+73
-2.4085267e+73
-2.4099184e+73
-2.4113319e+73
-2.4130329e+73
-2.4226363e+73
-2.4199578e+73
-2.4241958e+73
-2.4226183e+73
-2.421208e+73
-2.4196793e+73
-2.4251901e+73
-2.4281163e+73
-2.4183442e+73
-2.4167863e+73
-2.4155124e+73
-2.4141728e+73
-2.4363784e+73
-2.4399583e+73
-2.4305265e+73
-2.4334786e+73
-2.4368274e+73
-2.4507432e+73
-2.375457e+73
-2.3625203e+73
-2.3509331e+73
-2.3398499e+73
-2.4121706e+73
-2.4240881e+73
-2.4469286e+73
-2.4586825e+73
-2.4015655e+73
-2.4038881e+73
-2.3416848e+73
-2.3815648e+73
-2.3838702e+73
-2.3967392e+73
-2.399259e+73
-2.3376204e+73
-2.3794456e+73
-2.3770599e+73
-2.3779423e+73
-2.4100292e+73
-2.4113538e+73
-2.4152048e+73
-2.4139051e+73
-2.4248513e+73
-2.4235879e+73
-2.4075945e+73
-2.4087642e+73
-2.41268e+73
-2.411511e+73
-2.4223249e+73
-2.4210468e+73
-2.4003716e+73
-2.4124921e+73
-2.4192638e+73
-2.4187215e+73
-2.4253214e+73
-2.4258341e+73
-2.4263411e+73
-2.4257537e+73
-2.4246797e+73
-2.4238837e+73
-2.4251184e+73
-2.4243873e+73
-2.4192527e+73
-2.4198276e+73
-2.4233546e+73
-2.4202482e+73
-2.4196645e+73
-2.4190296e+73
-2.4212403e+73
-2.4240628e+73
-2.4219224e+73
-2.4184512e+73
-2.4190886e+73
-2.4184441e+73
-2.4178489e+73
-2.4171943e+73
-2.4131662e+73
-2.4167791e+73
-2.4174812e+73
-2.4095042e+73
-2.4088295e+73
-2.4014358e+73
-2.4007828e+73
-2.4125788e+73
-2.4231421e+73
-2.4253033e+73
-2.4247035e+73
-2.4225394e+73
-2.4106087e+73
-2.4186292e+73
-2.4180625e+73
-2.4100422e+73
-2.4112913e+73
-2.4119835e+73
-2.400244e+73
-2.3995151e+73
-2.4288338e+73
-2.4283317e+73
-2.4282552e+73
-2.427832e+73
-2.4272163e+73
-2.4264268e+73
-2.4269201e+73
-2.4276463e+73
-2.4265808e+73
-2.4258809e+73
-2.4243797e+73
-2.423711e+73
-2.4191712e+73
-2.4198615e+73
-2.4118305e+73
-2.4111432e+73
-2.425558e+73
-2.4277707e+73
-2.4249606e+73
-2.4271804e+73
-2.4128939e+73
-2.4209779e+73
-2.412356e+73
-2.4204232e+73
-2.4147574e+73
-2.4159551e+73
-2.4198508e+73
-2.4186076e+73
-2.428505e+73
-2.4297048e+73
-2.4124759e+73
-2.41362e+73
-2.4174836e+73
-2.4163509e+73
-2.4260694e+73
-2.4273141e+73
-2.4338713e+73
-2.4333029e+73
-2.4328173e+73
-2.4332968e+73
-2.4326924e+73
-2.4322204e+73
-2.4319744e+73
-2.4314549e+73
-2.429722e+73
-2.4301502e+73
-2.4294261e+73
-2.4289326e+73
-2.4303667e+73
-2.4308749e+73
-2.431388e+73
-2.430793e+73
-2.4307074e+73
-2.4328597e+73
-2.4322555e+73
-2.4300682e+73
-2.4294499e+73
-2.4316496e+73
-2.4309407e+73
-2.4287314e+73
-2.4181336e+73
-2.4261874e+73
-2.4255344e+73
-2.4174313e+73
-2.4167805e+73
-2.4248981e+73
-2.4241171e+73
-2.4159655e+73
-2.4303329e+73
-2.4297069e+73
-2.4274663e+73
-2.4281136e+73
-2.4153364e+73
-2.4235035e+73
-2.4228808e+73
-2.4147183e+73
-2.4268391e+73
-2.429066e+73
-2.4283621e+73
-2.4261467e+73
-2.4141705e+73
-2.4222802e+73
-2.4215483e+73
-2.4134488e+73
-2.4010462e+73
-2.4406976e+73
-2.4436749e+73
-2.3876027e+73
-2.381639e+73
-2.3950067e+73
-2.4378568e+73
-2.4348482e+73
-2.4107703e+73
-2.4131546e+73
-2.3927271e+73
-2.3905935e+73
-2.4060356e+73
-2.4084233e+73
-2.3884906e+73
-2.3860964e+73
-2.461246e+73
-2.4472387e+73
-2.4418224e+73
-2.4562578e+73
-2.3928119e+73
-2.3984137e+73
-2.4124232e+73
-2.4542982e+73
-2.451789e+73
-2.406684e+73
-2.4464526e+73
-2.4493487e+73
-2.4716854e+73
-2.4581862e+73
-2.4522229e+73
-2.4660338e+73
-2.4901917e+73
-2.4930109e+73
-2.4997957e+73
-2.4969072e+73
-2.4846833e+73
-2.48752e+73
-2.4914331e+73
-2.4942766e+73
-2.5019282e+73
-2.4990243e+73
-2.4975776e+73
-2.4946283e+73
-2.4963318e+73
-2.4934473e+73
-2.4918385e+73
-2.4889093e+73
-2.4777115e+73
-2.4749505e+73
-2.4816881e+73
-2.4844213e+73
-2.4911103e+73
-2.4886622e+73
-2.4864871e+73
-2.4839466e+73
-2.4862099e+73
-2.4834951e+73
-2.4814449e+73
-2.4787573e+73
-2.4800961e+73
-2.4824045e+73
-2.4867879e+73
-2.4891628e+73
-2.4623434e+73
-2.4598366e+73
-2.4573807e+73
-2.4546084e+73
-2.4700706e+73
-2.4689059e+73
-2.4717396e+73
-2.470534e+73
-2.4676663e+73
-2.4663181e+73
-2.4693342e+73
-2.4679428e+73
-2.4693023e+73
-2.4627767e+73
-2.468123e+73
-2.4615865e+73
-2.4654748e+73
-2.4668908e+73
-2.4602706e+73
-2.4588003e+73
-2.4609734e+73
-2.4624738e+73
-2.4640877e+73
-2.4625726e+73
-2.4642409e+73
-2.4629466e+73
-2.4575141e+73
-2.4562091e+73
-2.4638478e+73
-2.4651004e+73
-2.4667341e+73
-2.4654157e+73
-2.4616018e+73
-2.4600764e+73
-2.4548457e+73
-2.4533563e+73
-2.4518304e+73
-2.4489472e+73
-2.4461064e+73
-2.4431775e+73
-2.4512464e+73
-2.4497362e+73
-2.4514701e+73
-2.4529783e+73
-2.4533243e+73
-2.4466443e+73
-2.4453425e+73
-2.4519775e+73
-2.4526918e+73
-2.4540519e+73
-2.4557631e+73
-2.4543578e+73
-2.450617e+73
-2.4440219e+73
-2.4490949e+73
-2.4425389e+73
-2.458316e+73
-2.4596543e+73
-2.4612852e+73
-2.459916e+73
-2.4554224e+73
-2.4569234e+73
-2.4585836e+73
-2.4570781e+73
-2.4587899e+73
-2.4574715e+73
-2.4508237e+73
-2.4520953e+73
-2.4494696e+73
-2.4479603e+73
-2.4561426e+73
-2.4546314e+73
-2.4241838e+73
-2.4255608e+73
-2.4281669e+73
-2.4295616e+73
-2.4398516e+73
-2.4385155e+73
-2.4217172e+73
-2.4229442e+73
-2.4256584e+73
-2.4269054e+73
-2.4372032e+73
-2.4358837e+73
-2.4191773e+73
-2.4205067e+73
-2.4231465e+73
-2.4244333e+73
-2.4346083e+73
-2.4333326e+73
-2.4169321e+73
-2.418001e+73
-2.4219849e+73
-2.4320928e+73
-2.420904e+73
-2.4308761e+73
-2.4431751e+73
-2.4437219e+73
-2.4444248e+73
-2.4437989e+73
-2.4431605e+73
-2.4425342e+73
-2.4417113e+73
-2.442391e+73
-2.4417618e+73
-2.4410728e+73
-2.4411252e+73
-2.4405161e+73
-2.4398437e+73
-2.4390267e+73
-2.4396748e+73
-2.4404464e+73
-2.4417309e+73
-2.4435878e+73
-2.4429499e+73
-2.4410671e+73
-2.4404168e+73
-2.4423099e+73
-2.4415587e+73
-2.4396581e+73
-2.4298685e+73
-2.4375373e+73
-2.4368868e+73
-2.4291983e+73
-2.4354169e+73
-2.436234e+73
-2.4285474e+73
-2.4276925e+73
-2.4389904e+73
-2.4409099e+73
-2.4402444e+73
-2.4382775e+73
-2.4395525e+73
-2.4387842e+73
-2.4367992e+73
-2.4375779e+73
-2.4269864e+73
-2.4347406e+73
-2.4340148e+73
-2.4262264e+73
-2.4255082e+73
-2.4332908e+73
-2.4324562e+73
-2.4246331e+73
-2.4346708e+73
-2.4338995e+73
-2.4344686e+73
-2.4351878e+73
-2.4353103e+73
-2.4358256e+73
-2.4364446e+73
-2.4358374e+73
-2.439064e+73
-2.4384156e+73
-2.4378839e+73
-2.4384509e+73
-2.437816e+73
-2.4372496e+73
-2.4364453e+73
-2.4370639e+73
-2.4361427e+73
-2.438155e+73
-2.4375166e+73
-2.4354652e+73
-2.4348177e+73
-2.4368795e+73
-2.4361364e+73
-2.4340718e+73
-2.4239121e+73
-2.4317874e+73
-2.4311008e+73
-2.4231766e+73
-2.4296312e+73
-2.4304417e+73
-2.4225207e+73
-2.4216822e+73
-2.4348527e+73
-2.435497e+73
-2.4334191e+73
-2.4327386e+73
-2.4210025e+73
-2.4289696e+73
-2.4282985e+73
-2.4202957e+73
-2.4320767e+73
-2.4341939e+73
-2.4334733e+73
-2.431343e+73
-2.4268352e+73
-2.4276359e+73
-2.4196472e+73
-2.4188003e+73
-2.3899395e+73
-2.3904758e+73
-2.3888333e+73
-2.3893907e+73
-2.3926739e+73
-2.3921451e+73