/*--------------------------------*- C++ -*----------------------------------*\
  =========                 |
  \\      /  F ield         | OpenFOAM: The Open Source CFD Toolbox
   \\    /   O peration     | Website:  https://openfoam.org
    \\  /    A nd           | Version:  7
     \\/     M anipulation  |
\*---------------------------------------------------------------------------*/
FoamFile
{
    version     2.0;
    format      ascii;
    class       volVectorField;
    location    "6000";
    object      U;
}
// * * * * * * * * * * * * * * * * * * * * * * * * * * * * * * * * * * * * * //

dimensions      [0 1 -1 0 0 0 0];

internalField   nonuniform List<vector> 
34222
(
(-1.0285313e+36 1.7876764e+34 -1.5542334e+34)
(-1.0781317e+36 3.7940801e+34 5.0227029e+34)
(-9.7523617e+35 -3.5180472e+34 -1.1461449e+34)
(-8.0931494e+35 -3.0773307e+34 3.9188623e+34)
(-8.2123997e+35 2.5156487e+34 5.0676572e+34)
(-8.5301684e+35 2.2351926e+34 -6.0764905e+34)
(-8.4676731e+35 1.4692226e+33 -7.1416954e+34)
(-1.0812973e+36 3.8665586e+34 1.6205956e+34)
(-1.050283e+36 5.1308162e+33 4.6185023e+34)
(-8.2665579e+35 1.9516249e+34 4.5514151e+34)
(-8.3196161e+35 -2.6361053e+34 3.9067735e+34)
(-8.2462748e+35 -5.0769196e+33 -6.2659196e+34)
(-8.1560168e+35 -8.2635288e+33 -5.1997891e+34)
(-9.3537814e+35 -6.0728178e+34 1.4139925e+34)
(-7.9693096e+35 -8.0772841e+34 -6.9633154e+34)
(-8.1928297e+35 -2.6740382e+34 3.0806132e+34)
(-7.8231873e+35 -9.6779104e+34 2.9448169e+34)
(-8.1837791e+35 -7.022871e+34 -7.731701e+34)
(-7.8144322e+35 9.1826483e+33 -3.4900654e+34)
(-7.956503e+35 4.6880696e+34 -3.1648093e+34)
(-8.2536626e+35 7.8033613e+34 -9.7721421e+33)
(-8.1854274e+35 2.4541923e+34 -1.1357946e+34)
(-9.2011116e+35 1.7502544e+34 4.783972e+34)
(-1.073807e+36 1.3869084e+34 1.5237831e+34)
(-1.0452698e+36 3.1942265e+34 1.5283042e+33)
(-8.1216047e+35 1.5744783e+33 -7.6065418e+34)
(-7.9849848e+35 -2.2515272e+34 3.5965028e+34)
(-8.1515175e+35 2.7782153e+34 3.8117729e+34)
(-8.2879115e+35 1.8087251e+33 -7.1006576e+34)
(-1.0232187e+36 -1.729948e+34 6.2138757e+34)
(-7.7720746e+35 -6.2214611e+34 -7.2606133e+34)
(-7.8876624e+35 -7.2140525e+34 1.582657e+34)
(-8.1706695e+35 -2.3309274e+33 3.1234445e+34)
(-8.0318549e+35 -3.2998416e+34 -6.5211998e+34)
(-8.0162444e+35 3.247735e+34 -4.2453493e+34)
(-7.9813699e+35 1.0548094e+34 -2.770909e+34)
(-8.0982873e+35 1.470867e+34 -2.812701e+34)
(-8.0676844e+35 3.6936616e+34 -3.9363084e+34)
(-9.1386511e+35 -7.2816864e+34 4.1150239e+34)
(-7.2128032e+35 -1.241682e+35 -5.1456614e+34)
(-7.1812315e+35 -1.2032527e+35 3.5740213e+34)
(-7.3617721e+35 -9.6777147e+34 3.0963657e+34)
(-7.2170186e+35 -1.4491593e+35 -6.8964745e+34)
(-8.0748715e+35 -3.3155457e+34 -2.6409484e+34)
(-7.74384e+35 -9.9233831e+33 -5.7599959e+34)
(-7.912474e+35 -3.535806e+34 -7.1576716e+34)
(-8.0072086e+35 -2.0204269e+34 -3.7761833e+34)
(-6.5081349e+35 3.4633904e+34 -3.7835235e+34)
(-8.035845e+35 1.1857388e+35 -3.6630095e+34)
(-8.3402477e+35 1.6358974e+35 -2.0548068e+34)
(-7.2905952e+35 5.5120639e+34 -2.4400407e+34)
(-8.6788089e+35 9.2068424e+34 -2.7201293e+34)
(-7.9412952e+35 6.9522133e+34 8.0252356e+34)
(-7.5942747e+35 1.892261e+34 8.4781674e+34)
(-9.1470695e+35 3.7833751e+33 8.2959399e+34)
(-7.935352e+35 -3.5188859e+34 1.3431825e+35)
(-7.6322892e+35 -4.3379894e+34 1.3316703e+35)
(-1.0586911e+36 -2.7395578e+33 2.2257908e+34)
(-1.0435312e+36 1.6429705e+34 1.9867141e+33)
(-7.7929733e+35 -3.6154145e+34 -9.0803256e+34)
(-7.7919889e+35 -5.1245506e+34 2.1087142e+34)
(-8.0384036e+35 4.579774e+32 3.5699925e+34)
(-8.0167212e+35 -2.7084928e+34 -7.5756712e+34)
(-7.4544621e+35 -1.6086702e+34 3.279798e+34)
(-7.5564127e+35 5.7717764e+33 -8.6807336e+34)
(-7.6031584e+35 -3.6684896e+33 -8.4137205e+34)
(-7.5675145e+35 2.2076027e+34 3.8768716e+34)
(-7.8999485e+35 3.7013822e+33 -1.5575665e+34)
(-7.7783852e+35 4.1503105e+33 -9.7575784e+33)
(-7.7901207e+35 1.9552548e+34 -3.4914708e+33)
(-8.1352539e+35 2.6049628e+34 -1.5301571e+34)
(-8.3160755e+35 -1.968015e+34 3.7242154e+34)
(-8.1088795e+35 -3.8230342e+34 3.1469436e+34)
(-9.9876179e+35 -2.7803847e+34 7.4843146e+34)
(-7.6515683e+35 -6.4432109e+34 3.231322e+34)
(-7.5982957e+35 -8.2338585e+34 4.8826529e+34)
(-7.4290069e+35 -7.4374001e+34 -5.906898e+34)
(-7.29703e+35 -1.034476e+35 -6.3128059e+34)
(-7.9056825e+35 -3.5235806e+34 -8.600751e+34)
(-7.6371856e+35 -3.7957143e+34 -9.8903924e+34)
(-7.7986781e+35 1.6092255e+34 -3.7487273e+34)
(-7.9434961e+35 1.5275316e+34 -4.6919414e+34)
(-6.4350574e+35 1.2835569e+34 -4.9323788e+34)
(-6.3289425e+35 -6.1580285e+33 -3.0530543e+34)
(-5.3215237e+35 2.7338653e+32 -4.1418037e+34)
(-7.1554128e+35 4.7915997e+34 -5.0473016e+34)
(-7.3264043e+35 -1.4101866e+35 5.8739106e+34)
(-7.2020037e+35 -1.0356638e+35 4.0074889e+34)
(-6.9222717e+35 -1.7096059e+35 -3.6512444e+34)
(-7.120354e+35 -1.5151544e+35 -8.8924878e+33)
(-7.682132e+35 -8.2668278e+34 1.4122925e+33)
(-7.3924651e+35 -6.506798e+34 -2.0089607e+34)
(-7.3642644e+35 -6.9650676e+34 -2.0753857e+34)
(-7.4452826e+35 -8.3266457e+34 -1.1995949e+32)
(-9.1258424e+35 2.0349474e+34 -3.5500654e+34)
(-7.2930991e+35 -2.1119157e+34 -5.5678589e+34)
(-7.7817122e+35 -1.5240619e+34 -6.5252492e+34)
(-8.4706613e+35 -6.1783672e+33 -4.1893268e+34)
(-6.9161333e+35 5.2595615e+34 -3.2967117e+34)
(-8.2843803e+35 9.9251349e+34 -3.5288086e+34)
(-8.9635361e+35 9.731163e+34 -2.1310751e+34)
(-7.942797e+35 5.2698251e+34 -1.8770148e+34)
(-7.8918777e+35 6.2740407e+34 -1.0540865e+35)
(-6.3356289e+35 9.6502462e+34 6.6832062e+33)
(-7.5786785e+35 8.3299368e+33 -9.749514e+34)
(-8.3009109e+35 6.4193138e+34 -1.3732261e+34)
(-6.0582699e+35 3.3066882e+34 2.3623905e+33)
(-6.4511881e+35 4.7927754e+34 7.852269e+34)
(-5.1994593e+35 1.5508133e+34 6.8740869e+34)
(-7.2718746e+35 -1.3616908e+34 1.3107052e+35)
(-6.2929725e+35 2.320322e+34 7.8370715e+34)
(-7.1384972e+35 -8.6903874e+33 1.2822224e+35)
(-6.4676599e+35 4.4366808e+34 7.8868011e+34)
(-6.2607323e+35 1.9661398e+34 7.9434689e+34)
(-6.9457511e+35 -1.5553236e+34 1.2273312e+35)
(-7.8801791e+35 6.1059231e+34 8.7593386e+34)
(-7.0726515e+35 -2.0108716e+34 1.2169618e+35)
(-7.6151012e+35 6.7752711e+33 9.54695e+34)
(-7.6406356e+35 -5.3303681e+34 1.3749656e+35)
(-7.4590731e+35 -6.2624239e+34 1.4495525e+35)
(-8.5974995e+35 -1.9009515e+34 1.081414e+35)
(-8.5286548e+35 -4.709258e+34 7.3275064e+34)
(-8.3553016e+35 -2.0475032e+34 -6.9634252e+34)
(-1.0427152e+36 -9.9171013e+33 2.252336e+34)
(-8.1567915e+35 -3.4838951e+34 -6.6449359e+34)
(-1.0372241e+36 6.5820235e+33 2.4713021e+33)
(-7.6133394e+35 -4.5736386e+34 -6.7299676e+34)
(-7.6144413e+35 -5.8634848e+34 3.6447258e+34)
(-7.746755e+35 -3.1616956e+34 2.9134312e+34)
(-7.6046525e+35 -7.2287952e+34 -7.7981933e+34)
(-8.4918662e+35 -1.2020133e+34 7.6721873e+34)
(-7.5558615e+35 4.1481822e+33 3.1851101e+34)
(-7.3465533e+35 -3.8115846e+34 3.195266e+34)
(-7.4056749e+35 -1.9224097e+34 -8.9064278e+34)
(-7.6235605e+35 -2.6602269e+34 -8.5056397e+34)
(-7.5277027e+35 -3.2664125e+34 -7.3346744e+34)
(-7.4072491e+35 -2.3522993e+34 -4.1938596e+34)
(-7.7800846e+35 1.1308438e+34 -8.7533021e+33)
(-7.8697247e+35 1.6631804e+34 -1.5049351e+34)
(-7.300371e+35 7.950373e+33 -1.67172e+34)
(-7.6065942e+35 6.691192e+33 -4.8946463e+33)
(-7.5393634e+35 1.8533979e+34 -1.7033697e+33)
(-7.3211134e+35 1.4821743e+34 -1.6815841e+34)
(-6.3157825e+35 -1.0470749e+34 -2.6217332e+34)
(-6.1871522e+35 -4.2812823e+33 -1.1024155e+34)
(-6.6411519e+35 1.3032591e+34 1.468835e+33)
(-6.2316783e+35 6.4614436e+33 -2.7422663e+34)
(-7.3093372e+35 -5.0751367e+33 6.5722911e+34)
(-6.2252016e+35 6.5837785e+33 5.8697013e+34)
(-7.2829296e+35 -4.1537227e+33 6.0947146e+34)
(-7.2535929e+35 -1.0219105e+34 5.7687605e+34)
(-7.1498966e+35 -1.3687404e+34 5.619451e+34)
(-8.1182899e+35 -3.5915912e+34 3.4686231e+34)
(-7.9959577e+35 -5.2931851e+34 4.3673293e+34)
(-9.8300043e+35 -3.1699333e+34 9.298151e+34)
(-7.5720073e+35 -9.5069051e+34 6.6072503e+34)
(-7.4012813e+35 -5.4970538e+34 5.2918811e+34)
(-7.1644212e+35 -9.8708878e+34 -5.187126e+34)
(-7.4760502e+35 -8.8604949e+34 -4.525187e+34)
(-7.4316092e+35 -8.1926015e+34 -3.6430887e+34)
(-7.3891485e+35 -6.3990973e+34 -8.8657385e+32)
(-7.4579938e+35 -6.2303834e+34 -6.3957592e+33)
(-7.46204e+35 -7.2797905e+34 -2.9471128e+34)
(-7.2979065e+35 -2.8238135e+34 -9.2855227e+34)
(-6.4956494e+35 -4.9316707e+34 -1.0789982e+35)
(-6.1183491e+35 4.1329261e+33 -4.0664694e+34)
(-6.4829812e+35 -1.2553118e+34 -5.8339812e+34)
(-6.8018895e+35 2.1737118e+34 -4.8546703e+34)
(-5.9367005e+35 -3.9525253e+33 -3.4084913e+34)
(-5.8066372e+35 1.7892947e+34 -4.0212765e+34)
(-7.6048013e+35 5.7504648e+34 -4.7561214e+34)
(-8.5831054e+35 -8.6479859e+34 -2.7439414e+34)
(-7.0772044e+35 -1.0287862e+35 -2.6130696e+34)
(-7.0278327e+35 -1.478111e+35 -2.710546e+34)
(-8.1680239e+35 -1.4679197e+35 -3.4602721e+34)
(-6.9243708e+35 -9.7973881e+34 -4.3556178e+33)
(-6.6315811e+35 -7.2909755e+34 -1.8237581e+34)
(-7.2662663e+35 -4.7642745e+34 -2.8538222e+34)
(-7.2806508e+35 -7.2936262e+34 -1.1441917e+34)
(-1.0125846e+36 5.476505e+34 -3.6241386e+34)
(-7.530811e+35 2.5697663e+33 -4.6299075e+34)
(-9.8417316e+35 4.1530823e+34 -6.2224844e+34)
(-8.5372515e+35 1.497049e+34 -3.1080963e+34)
(-7.3518779e+35 -2.4495059e+34 -5.4257242e+34)
(-7.5860849e+35 3.1996362e+34 -5.0823044e+34)
(-6.3576382e+35 4.4874272e+33 -6.4298786e+34)
(-6.6462133e+35 -3.3259407e+33 -1.1776294e+35)
(-6.8039377e+35 -2.7050985e+33 -1.1708501e+35)
(-6.4951357e+35 2.4671819e+34 -6.6079434e+34)
(-5.9273878e+35 3.912507e+34 -1.0814127e+35)
(-3.1572018e+35 7.7985136e+33 3.2846525e+34)
(-4.512287e+35 6.559983e+34 1.2444815e+34)
(-5.7489029e+35 1.3231888e+34 -1.0277512e+35)
(-4.3734203e+35 2.1501424e+34 1.2073687e+34)
(-7.8031968e+35 4.8158146e+34 -1.0439435e+35)
(-6.3576703e+35 -5.2970169e+32 -6.397544e+34)
(-6.6227898e+35 -1.0954725e+34 -1.1813604e+35)
(-6.7650755e+35 -1.2001384e+34 -1.1672333e+35)
(-6.4606509e+35 1.7665191e+34 -6.3575753e+34)
(-7.5427429e+35 -4.0156011e+33 -9.7123373e+34)
(-7.9596364e+35 3.5343869e+34 -4.7446881e+33)
(-6.145661e+35 2.5985704e+34 1.1897332e+34)
(-6.4054683e+35 8.9383345e+34 1.493384e+34)
(-5.7300132e+35 9.540045e+33 -1.0343475e+35)
(-5.8329364e+35 3.2987128e+34 -1.0652995e+35)
(-4.3895534e+35 1.9327506e+34 1.5083808e+34)
(-4.5409771e+35 6.3128957e+34 1.8990057e+34)
(-5.3045841e+35 3.2260675e+34 7.1625953e+34)
(-5.2228383e+35 1.7371227e+34 6.9506195e+34)
(-6.2640907e+35 5.6659341e+33 1.0101736e+35)
(-6.3036088e+35 -4.0289071e+32 1.0191916e+35)
(-4.4053462e+35 9.0981216e+33 6.3977482e+34)
(-4.4115978e+35 2.0776274e+34 6.125616e+34)
(-5.3210879e+35 7.0973849e+33 7.9597152e+34)
(-5.2956758e+35 6.993355e+33 8.0345311e+34)
(-6.2234547e+35 2.3533882e+33 9.8432598e+34)
(-5.2283588e+35 1.4025968e+34 7.0052044e+34)
(-5.2995818e+35 3.1260217e+34 6.7315523e+34)
(-6.27842e+35 4.7992603e+32 9.6787205e+34)
(-5.2450999e+35 1.4731967e+34 7.0380277e+34)
(-5.3411392e+35 3.0545148e+34 7.1508769e+34)
(-6.2725017e+35 1.8114163e+32 1.0329704e+35)
(-6.2798784e+35 -5.7870514e+33 1.0271922e+35)
(-5.2060992e+35 1.5096497e+34 7.1587718e+34)
(-5.2776632e+35 2.9968234e+34 6.7983746e+34)
(-6.1523873e+35 -1.9912607e+33 9.8604727e+34)
(-6.1974322e+35 -5.7255537e+33 9.60544e+34)
(-6.4779117e+35 4.360259e+34 8.4136693e+34)
(-7.0851442e+35 -2.8857315e+34 1.2636055e+35)
(-6.295057e+35 1.7021116e+34 8.3106128e+34)
(-6.9717344e+35 -2.4458875e+34 1.2432925e+35)
(-7.9275096e+35 5.0051736e+34 1.0143444e+35)
(-6.9195401e+35 -2.897305e+34 1.2972994e+35)
(-6.3353031e+35 1.2611664e+34 8.8318339e+34)
(-7.025682e+35 -3.380715e+34 1.2788381e+35)
(-6.4992124e+35 3.7859711e+34 8.6076645e+34)
(-7.3578024e+35 -7.1891134e+34 1.500229e+35)
(-7.2680292e+35 -7.1772696e+34 1.6042791e+35)
(-7.4981997e+35 -3.3777258e+33 1.0350346e+35)
(-6.2122845e+35 4.0226354e+33 4.0360903e+33)
(-6.3856809e+35 1.1914061e+34 6.7591728e+34)
(-7.4187631e+35 -2.3390844e+34 7.4598285e+34)
(-5.9905014e+35 2.9219544e+33 -2.9130482e+34)
(-7.2023218e+35 1.2680379e+32 -2.0829514e+34)
(-6.2162332e+35 1.1148724e+34 2.1757069e+34)
(-7.4922545e+35 4.8317397e+33 7.3385273e+34)
(-7.1954263e+35 -9.4794182e+33 -2.2899444e+34)
(-6.8689308e+35 -3.0476756e+33 -5.1710249e+34)
(-6.0994807e+35 1.4653794e+34 -7.3472109e+33)
(-7.2298497e+35 -1.9369276e+34 2.5372075e+34)
(-5.9680518e+35 7.0862813e+33 -3.6262536e+34)
(-6.0663744e+35 9.89191e+33 -6.6801003e+33)
(-7.2695535e+35 4.6999426e+33 1.7897079e+34)
(-6.7846947e+35 -9.8826352e+33 -6.6010482e+34)
(-8.580569e+35 -4.8232164e+34 2.6783604e+34)
(-8.0944641e+35 -4.5621965e+34 -5.66882e+34)
(-8.3124771e+35 -2.3500448e+34 8.6294739e+34)
(-8.1140757e+35 -3.2416131e+34 -6.846918e+34)
(-1.0406995e+36 -8.2842361e+33 3.1527136e+34)
(-7.5514459e+35 -5.3439707e+34 -5.7316799e+34)
(-7.461055e+35 -6.8732257e+34 4.0764244e+34)
(-1.0324784e+36 1.015969e+33 -1.62468e+33)
(-7.4565078e+35 -2.9915635e+34 3.5276151e+34)
(-7.3127361e+35 -6.7632452e+34 -6.2987911e+34)
(-8.2961678e+35 -6.0364921e+34 7.340496e+34)
(-7.1719569e+35 -1.0463466e+33 1.7656515e+34)
(-6.6903632e+35 -1.7844193e+34 -6.3118612e+34)
(-7.1949975e+35 -2.1313431e+34 1.751487e+34)
(-6.8344914e+35 -5.7234392e+33 -6.1247826e+34)
(-8.4491018e+35 -9.8107239e+33 3.9098496e+34)
(-7.4475786e+35 -9.9476759e+33 3.5930694e+34)
(-7.3672709e+35 -3.8204697e+34 2.4666114e+34)
(-7.4099007e+35 -2.1476857e+34 -9.0813379e+34)
(-7.3180302e+35 -4.7483182e+34 -8.7474909e+34)
(-7.3303353e+35 -5.6209656e+34 3.6784155e+32)
(-7.3217123e+35 -3.4400422e+34 -1.3900691e+34)
(-7.3503238e+35 -4.5012812e+34 -7.1579348e+33)
(-7.4513273e+35 -6.9573384e+34 -1.6912368e+34)
(-7.3153453e+35 -4.7373945e+33 6.4886587e+34)
(-7.343565e+35 -2.9053389e+34 6.4294802e+34)
(-7.2194165e+35 -1.7665799e+33 -1.950775e+34)
(-7.1393114e+35 -1.3090786e+34 -2.2348359e+34)
(-7.3631378e+35 2.9115881e+33 -1.4686869e+34)
(-7.1125187e+35 -1.2184693e+34 -2.3595021e+34)
(-7.2450069e+35 -1.682535e+34 -1.5292439e+34)
(-7.7316779e+35 5.8639045e+33 -2.3425814e+33)
(-5.9954982e+35 -5.3969299e+34 -1.0040666e+35)
(-5.8865756e+35 -4.5632774e+34 -5.6756184e+34)
(-6.2136559e+35 7.7581768e+33 -9.6075775e+33)
(-6.2087142e+35 1.2082585e+34 -2.3865602e+34)
(-6.7160021e+35 1.4427481e+34 -1.3854422e+33)
(-6.688243e+35 9.6714905e+33 -4.0290489e+33)
(-7.7002986e+35 3.06591e+34 -1.4105273e+33)
(-6.9000905e+35 1.8365389e+34 -8.7971319e+33)
(-5.8327868e+35 -1.2021404e+34 -2.5741047e+34)
(-5.8465055e+35 -4.1498948e+33 -1.3648258e+34)
(-6.9716199e+35 1.1255921e+34 -4.6098733e+33)
(-6.3458081e+35 7.3794782e+33 -2.8301598e+34)
(-6.2914519e+35 1.4455097e+33 6.467291e+34)
(-6.2832866e+35 7.2992826e+33 6.2375461e+34)
(-5.2461644e+35 7.3624231e+33 5.436994e+34)
(-5.2566073e+35 6.060809e+33 5.3058368e+34)
(-6.2743981e+35 2.1876236e+33 5.7496319e+34)
(-6.2431282e+35 3.1936224e+33 5.8452204e+34)
(-6.2824846e+35 -2.6599734e+33 6.2114961e+34)
(-6.306181e+35 4.1268386e+33 6.3547527e+34)
(-6.2213841e+35 -3.0761319e+33 5.6890481e+34)
(-6.1910642e+35 -1.3090983e+33 5.8992455e+34)
(-7.249809e+35 -1.8130535e+34 6.0226663e+34)
(-7.1629696e+35 -1.9139138e+34 5.5545081e+34)
(-7.1014988e+35 -2.6185615e+34 6.0321786e+34)
(-7.9674901e+35 -4.8138173e+34 4.8562207e+34)
(-7.2173355e+35 -2.3382816e+34 6.206023e+34)
(-7.8396856e+35 -5.7557968e+34 5.6443152e+34)
(-7.0655821e+35 -1.321289e+35 -3.9423169e+34)
(-6.6481512e+35 -1.2531537e+35 -1.675716e+34)
(-6.7830526e+35 -1.2794169e+35 8.5894717e+34)
(-7.4651162e+35 -7.9400684e+34 6.2154169e+34)
(-8.2885486e+35 -5.2060546e+34 -1.178224e+34)
(-7.1906328e+35 -6.8150004e+34 -7.4267417e+33)
(-7.1252818e+35 -8.2763781e+34 -1.0024003e+34)
(-8.3614865e+35 -6.1499178e+34 -8.7026787e+33)
(-5.5947984e+35 -1.1512607e+35 -3.9298586e+34)
(-6.5539831e+35 -1.0754651e+35 -6.5398251e+33)
(-5.3838501e+35 -1.1807319e+35 -2.6050055e+34)
(-6.4244069e+35 -8.0037982e+34 -3.9300278e+34)
(-9.2584193e+35 2.0381285e+34 -8.8844387e+34)
(-8.2345411e+35 -5.9951867e+33 -1.0683641e+35)
(-6.0462316e+35 2.2811153e+34 -3.7822089e+34)
(-6.6544563e+35 7.3064837e+33 -5.0932844e+34)
(-5.7399626e+35 -1.6133896e+35 -3.190905e+34)
(-5.4812301e+35 -1.3194557e+35 -2.8870642e+34)
(-5.8544927e+35 -1.5681385e+35 -4.3757794e+34)
(-6.1523679e+35 -1.9066477e+35 -5.6137017e+34)
(-8.3389929e+35 2.328475e+33 1.8524949e+33)
(-7.5789046e+35 -1.256769e+34 -5.7939874e+33)
(-8.6992748e+35 -3.940432e+33 -2.9048808e+34)
(-9.5671165e+35 2.4039733e+34 -1.6056102e+34)
(-8.1699611e+35 2.6216529e+33 -8.5527387e+34)
(-8.1977753e+35 9.6734859e+33 -8.621547e+34)
(-7.055012e+35 1.9212653e+34 -1.0119962e+35)
(-6.8236942e+35 -4.0013775e+33 -4.9733703e+34)
(-6.9490199e+35 3.0911156e+33 -4.8654139e+34)
(-7.0852752e+35 1.8772293e+34 -1.0334936e+35)
(-5.4999203e+35 6.7027756e+33 -1.1463023e+35)
(-4.5822775e+35 5.3277461e+33 -9.4629045e+34)
(-4.6612869e+35 1.5992687e+34 -9.7127198e+34)
(-5.5620931e+35 3.1928063e+33 -1.1489895e+35)
(-3.6892102e+35 2.3651707e+34 -9.0447804e+34)
(-2.7381874e+35 5.3845342e+33 -8.2695041e+34)
(-1.9415888e+35 8.1627115e+33 -3.9246436e+34)
(-2.0035291e+35 1.1169119e+34 -3.7665175e+34)
(-2.5204362e+35 -1.6353013e+33 5.0419987e+34)
(-3.27474e+35 4.3274842e+34 3.4474814e+34)
(-2.5552359e+35 1.9429394e+34 5.0439909e+34)
(-3.5805449e+35 1.0527221e+34 -8.4769e+34)
(-3.1480244e+35 7.5484673e+33 3.3587008e+34)
(-5.5436288e+35 8.9255096e+32 -1.1414531e+35)
(-5.4807199e+35 4.0911489e+33 -1.1476234e+35)
(-4.5779364e+35 3.1284296e+33 -9.4425364e+34)
(-4.6523959e+35 1.3480265e+34 -9.4558166e+34)
(-3.5637778e+35 7.6167798e+33 -8.5874604e+34)
(-3.657447e+35 2.1004363e+34 -8.8292234e+34)
(-3.125036e+35 3.9238771e+33 3.3148063e+34)
(-3.2391402e+35 4.0425426e+34 3.4714825e+34)
(-6.3297259e+35 -7.525886e+33 -6.1116221e+34)
(-6.5564739e+35 -2.0275542e+34 -1.1742595e+35)
(-6.7168465e+35 -1.8591597e+34 -1.1799419e+35)
(-6.4691436e+35 1.372129e+34 -6.5945838e+34)
(-7.0402999e+35 1.4794056e+34 -1.0042226e+35)
(-6.7970785e+35 -1.1546384e+34 -4.9319722e+34)
(-6.9157013e+35 -5.0016827e+33 -4.8463136e+34)
(-7.0557216e+35 1.1572254e+34 -1.0078934e+35)
(-7.7302098e+35 3.7961249e+34 -1.0672615e+35)
(-6.6579899e+35 -2.4192753e+34 -1.1693761e+35)
(-6.50973e+35 -2.4269398e+34 -1.1729693e+35)
(-6.3270583e+35 -1.1205884e+34 -6.1282929e+34)
(-6.4465274e+35 8.0429893e+33 -6.2849713e+34)
(-7.480368e+35 -1.7406835e+34 -9.9776214e+34)
(-6.160043e+35 9.7333114e+33 2.3264653e+34)
(-6.4578968e+35 8.1131615e+34 2.6634354e+34)
(-5.7196001e+35 2.6018078e+33 -1.0101842e+35)
(-5.8215981e+35 2.5853705e+34 -1.0572177e+35)
(-4.3949852e+35 1.3412363e+34 2.0484224e+34)
(-4.5508238e+35 5.613651e+34 2.3166922e+34)
(-5.7006345e+35 5.5872246e+33 -1.0067084e+35)
(-5.8652415e+35 3.122064e+34 -1.0786202e+35)
(-4.5297894e+35 6.1771184e+34 1.6898203e+34)
(-4.3732621e+35 1.721345e+34 1.7902225e+34)
(-5.5341838e+35 -2.6843343e+33 -1.1409558e+35)
(-5.4533741e+35 3.66542e+32 -1.1465281e+35)
(-4.560559e+35 1.2104009e+33 -9.3790111e+34)
(-4.6451485e+35 1.1514769e+34 -9.4218168e+34)
(-5.5222915e+35 -2.1284481e+33 -1.1437039e+35)
(-5.4398556e+35 1.5518582e+33 -1.1363422e+35)
(-4.5326296e+35 2.0716926e+33 -9.2801304e+34)
(-4.6351645e+35 1.2771369e+34 -9.5354632e+34)
(-3.5628305e+35 6.1478793e+33 -8.568005e+34)
(-3.6514255e+35 1.8843648e+34 -8.844962e+34)
(-3.1249576e+35 5.2527987e+33 3.7697946e+34)
(-3.1908335e+35 4.0001614e+34 3.7032441e+34)
(-3.6468171e+35 2.0553716e+34 -8.848272e+34)
(-3.5333781e+35 6.8849983e+33 -8.3525429e+34)
(-3.0726654e+35 3.8675138e+33 3.4468048e+34)
(-3.2273142e+35 4.1195855e+34 3.5073497e+34)
(-4.4168254e+35 1.100014e+34 6.3231358e+34)
(-4.4547878e+35 2.2830039e+34 6.4564263e+34)
(-5.3492495e+35 7.9217078e+33 8.3538667e+34)
(-5.3512976e+35 5.1055842e+33 8.3770117e+34)
(-4.4186441e+35 9.298807e+33 6.4680536e+34)
(-4.4475878e+35 2.2298639e+34 6.158033e+34)
(-5.369292e+35 8.3022296e+33 8.0479373e+34)
(-5.3407307e+35 8.2717679e+33 8.1248367e+34)
(-3.5416578e+35 1.1135049e+34 7.1694911e+34)
(-3.5105829e+35 -3.4894762e+32 7.4269965e+34)
(-4.5823166e+35 6.774987e+33 7.1748514e+34)
(-4.6136782e+35 8.16767e+33 7.4403806e+34)
(-3.4994744e+35 1.2882863e+34 7.2298845e+34)
(-3.4741485e+35 -2.0649639e+32 7.1377351e+34)
(-4.5807485e+35 7.1428166e+33 7.0678037e+34)
(-4.5870732e+35 8.0198939e+33 7.103019e+34)
(-4.4071569e+35 7.3541347e+33 6.3660204e+34)
(-4.4484357e+35 1.9789104e+34 6.1360237e+34)
(-5.3447751e+35 3.4198331e+33 8.0365247e+34)
(-5.3067878e+35 3.4553677e+33 8.0880006e+34)
(-4.3917951e+35 7.7133277e+33 6.1220736e+34)
(-4.4528063e+35 2.2278091e+34 6.2884403e+34)
(-5.3431131e+35 5.630385e+33 8.0873765e+34)
(-5.3281674e+35 5.4005191e+33 8.0021167e+34)
(-4.4244806e+35 7.796993e+33 6.4166883e+34)
(-4.4473401e+35 2.0502517e+34 6.0956765e+34)
(-5.4044906e+35 3.6022134e+33 8.2520948e+34)
(-5.3715751e+35 4.3160241e+33 8.354086e+34)
(-4.4270414e+35 8.1680473e+33 6.2372119e+34)
(-4.4743857e+35 2.1351703e+34 6.4776498e+34)
(-5.3655571e+35 8.611096e+32 8.4272058e+34)
(-5.3538472e+35 2.7183178e+33 8.3087632e+34)
(-4.4461642e+35 9.7206143e+33 6.6952408e+34)
(-4.4687036e+35 2.0771194e+34 6.391781e+34)
(-5.3524584e+35 2.0430729e+33 8.2301944e+34)
(-5.3086092e+35 2.1063803e+33 8.2868937e+34)
(-5.3359802e+35 3.1246129e+34 7.4665712e+34)
(-4.4101955e+35 8.632511e+33 6.2682103e+34)
(-4.4724584e+35 2.2023407e+34 6.4382457e+34)
(-5.3463912e+35 2.031126e+33 8.2628089e+34)
(-5.3213905e+35 2.8653285e+33 8.1681046e+34)
(-6.2859435e+35 -9.8472317e+33 1.027096e+35)
(-6.2641533e+35 -1.7202275e+33 1.046729e+35)
(-5.2785449e+35 1.5599771e+34 7.3363025e+34)
(-5.334152e+35 2.8374107e+34 7.0820672e+34)
(-5.273184e+35 1.0353898e+34 7.3298172e+34)
(-6.1953404e+35 -7.4316268e+33 9.6386619e+34)
(-6.2613606e+35 -8.9270526e+33 9.5818853e+34)
(-6.5469901e+35 3.5480013e+34 9.424207e+34)
(-6.3256732e+35 1.0763484e+34 9.1770832e+34)
(-6.9344532e+35 -3.3884374e+34 1.3625088e+35)
(-7.0450383e+35 -4.101697e+34 1.3938711e+35)
(-5.2739736e+35 9.3536095e+33 7.7031816e+34)
(-6.1918263e+35 -1.0344916e+34 1.0147693e+35)
(-5.3520609e+35 2.5537061e+34 7.4771994e+34)
(-6.2409018e+35 -1.2908127e+34 1.0036941e+35)
(-5.3105352e+35 1.1362168e+34 7.6543874e+34)
(-5.3834587e+35 2.6138102e+34 7.6802778e+34)
(-6.320461e+35 -6.7032534e+33 1.0774632e+35)
(-6.3129049e+35 -1.431625e+34 1.0725698e+35)
(-6.2947868e+35 7.1859042e+33 9.2784841e+34)
(-6.4647661e+35 3.2132477e+34 9.2283621e+34)
(-6.8972618e+35 -3.5462857e+34 1.3279474e+35)
(-6.9904573e+35 -4.1269113e+34 1.3073903e+35)
(-6.2913771e+35 6.0461102e+33 1.0553179e+34)
(-5.2020446e+35 3.6977477e+33 -4.4734054e+33)
(-5.207999e+35 7.4227628e+33 -4.2440639e+33)
(-5.380609e+35 1.0791544e+34 3.4228201e+34)
(-5.3784102e+35 1.1121247e+33 3.3921223e+34)
(-5.3429947e+35 5.6630974e+33 2.4936508e+34)
(-5.4214824e+35 1.1476227e+34 6.6131975e+34)
(-5.3410019e+35 7.781024e+33 2.4516621e+34)
(-5.4258797e+35 -2.503839e+33 6.5423418e+34)
(-6.4514928e+35 -9.323701e+33 7.4702794e+34)
(-6.2543947e+35 4.2286811e+33 6.8617421e+33)
(-6.441296e+35 1.3176546e+34 7.2875247e+34)
(-4.9390932e+35 3.3386346e+33 -2.5907112e+34)
(-5.0946256e+35 8.3650983e+33 -2.5806387e+33)
(-4.9458626e+35 9.0551832e+33 -2.4981949e+34)
(-5.0947675e+35 3.5172958e+33 -2.257088e+33)
(-6.0699648e+35 9.0794082e+33 -2.0556521e+34)
(-6.2860717e+35 -4.4298813e+33 3.0766131e+34)
(-6.0234918e+35 4.930042e+33 -2.5224172e+34)
(-6.2478727e+35 1.1281635e+34 2.5965938e+34)
(-5.0462281e+35 2.9878212e+33 -2.1177508e+34)
(-5.2017044e+35 7.5278653e+33 6.8713628e+33)
(-5.0463228e+35 9.1715434e+33 -2.0608393e+34)
(-5.2014716e+35 1.0995685e+33 7.1941231e+33)
(-6.2708089e+35 7.8472821e+33 2.8807525e+33)
(-6.4414298e+35 -9.3506732e+33 6.7132063e+34)
(-6.2921966e+35 2.9089022e+33 4.731438e+33)
(-6.4622677e+35 1.0089206e+34 6.8635171e+34)
(-6.3201065e+35 1.0039581e+34 2.2792477e+34)
(-6.0339442e+35 9.5270127e+32 -2.74987e+34)
(-6.0602094e+35 1.0973293e+34 -2.5720158e+34)
(-6.3139893e+35 -1.5052786e+33 2.2774908e+34)
(-5.8533255e+35 1.2838898e+34 -3.921755e+34)
(-5.9421729e+35 1.7846255e+34 -3.4709839e+34)
(-6.0899395e+35 1.8113042e+34 -2.5321178e+33)
(-6.1232171e+35 6.0363411e+33 1.6333645e+32)
(-7.1191933e+35 -2.5780507e+34 1.9031265e+33)
(-5.1993278e+35 1.3203069e+34 -1.2307983e+34)
(-5.0020884e+35 7.8913575e+33 -2.8025564e+34)
(-5.0056138e+35 1.3990039e+34 -2.811654e+34)
(-5.0780887e+35 1.0338808e+34 -1.5138042e+34)
(-5.0963117e+35 7.296134e+33 -1.3625952e+34)
(-5.9422159e+35 8.5862223e+33 -3.6190738e+34)
(-6.0776433e+35 1.2832452e+34 -2.2330181e+33)
(-6.1115315e+35 1.331671e+33 2.3684501e+32)
(-6.0005224e+35 1.5702218e+34 -3.3046511e+34)
(-4.9382924e+35 8.0000652e+33 -3.0409532e+34)
(-5.0547266e+35 1.3003591e+34 -1.0628618e+34)
(-4.9234722e+35 7.8087699e+33 -2.8286343e+34)
(-4.9515635e+35 1.1425114e+34 -2.9868315e+34)
(-4.9433056e+35 6.0443154e+33 -3.0920384e+34)
(-5.0583631e+35 1.0117693e+34 -1.1910876e+34)
(-5.0530706e+35 6.2939455e+33 -1.1432906e+34)
(-4.9293178e+35 4.6915559e+33 -2.97402e+34)
(-5.0228236e+35 7.8277319e+33 -9.3696082e+33)
(-4.9272822e+35 1.145455e+34 -2.9018203e+34)
(-5.0224901e+35 3.4937011e+33 -8.7112749e+33)
(-6.0991529e+35 6.5320016e+33 -6.3046156e+33)
(-6.117776e+35 2.0360454e+33 -4.9187057e+33)
(-5.944221e+35 2.0156004e+33 -4.5362407e+34)
(-5.9693174e+35 1.8268788e+34 -4.3232532e+34)
(-5.9350212e+35 6.6276644e+33 -4.7184883e+34)
(-5.9273417e+35 2.2220082e+34 -4.5688919e+34)
(-6.1353458e+35 1.3030655e+34 -1.0999702e+34)
(-6.1350452e+35 1.0383919e+34 -1.0375687e+34)
(-7.0567686e+35 -6.3706593e+32 -1.6547339e+34)
(-6.6901509e+35 -2.2259559e+34 -9.0093713e+34)
(-6.6082547e+35 -2.6485733e+34 -5.4928262e+34)
(-6.7740427e+35 -1.8472285e+34 -5.4985208e+34)
(-7.1078293e+35 -3.416382e+34 2.1509889e+34)
(-7.0911143e+35 -9.8278544e+33 2.4442527e+34)
(-8.4489214e+35 -1.8076575e+34 4.3027559e+34)
(-8.0737273e+35 -3.6614702e+34 -5.3001435e+34)
(-7.2654177e+35 -4.2407374e+34 6.7063897e+34)
(-7.2317902e+35 -1.7070331e+34 6.8541516e+34)
(-7.0558219e+35 -2.4125008e+34 -2.2930809e+34)
(-7.1513872e+35 -1.3061608e+34 -2.1789509e+34)
(-8.0640056e+35 -6.8321128e+34 8.7623743e+34)
(-7.1795986e+35 -8.3910695e+33 1.6925554e+34)
(-6.6751437e+35 -2.3858293e+34 -6.5140741e+34)
(-6.8154594e+35 -1.2828264e+34 -5.7988182e+34)
(-7.1858038e+35 -2.9795673e+34 2.0541982e+34)
(-8.2686306e+35 -5.8612011e+34 3.419218e+34)
(-8.0151058e+35 -2.947347e+34 9.129848e+34)
(-1.0354224e+36 5.6633597e+32 -3.3437465e+33)
(-7.779486e+35 -4.9684393e+34 -5.2175241e+34)
(-7.0992928e+35 -8.68668e+34 5.5646347e+34)
(-7.1216137e+35 -7.6664051e+34 -4.3200016e+34)
(-7.2226335e+35 -9.2384101e+34 -5.205514e+34)
(-7.4307657e+35 -5.2126311e+34 4.5531177e+34)
(-8.0262e+35 -4.9249698e+34 -1.478241e+34)
(-7.68644e+35 -4.2857533e+34 -3.1654939e+34)
(-7.2083999e+35 -3.4378258e+34 -9.243862e+34)
(-7.2870047e+35 -1.4280813e+34 2.6173141e+34)
(-7.25701e+35 -4.9053398e+34 2.0894643e+34)
(-7.1165316e+35 -5.1677584e+34 -9.3958737e+34)
(-7.2009414e+35 -3.750744e+34 -2.5290804e+34)
(-7.2994082e+35 -4.9567903e+34 -9.9727531e+33)
(-7.1440419e+35 -1.9711381e+34 -2.2188631e+34)
(-7.2049639e+35 -9.2832245e+33 -2.2907794e+34)
(-7.3420555e+35 -8.8360357e+33 6.7280421e+34)
(-7.3341028e+35 -3.5068868e+34 6.719619e+34)
(-6.1160541e+35 6.0310528e+33 -2.9401969e+33)
(-5.9912691e+35 1.4462052e+34 -3.843202e+34)
(-5.9633724e+35 9.1595102e+32 -3.9458055e+34)
(-6.1235515e+35 -9.9891999e+32 -3.1556295e+33)
(-6.1275497e+35 4.6173421e+33 -8.0500696e+33)
(-6.1152746e+35 8.7690735e+33 -8.2751747e+33)
(-5.9112712e+35 2.5216901e+33 -4.5330289e+34)
(-5.9265474e+35 1.6420742e+34 -4.3478008e+34)
(-6.9410062e+35 -8.1353145e+33 -9.9086644e+33)
(-6.1642459e+35 1.066258e+34 4.3357579e+32)
(-6.0395752e+35 1.2184709e+34 -3.3460562e+34)
(-6.0032117e+35 4.6369255e+33 -3.6634924e+34)
(-6.1641307e+35 -1.3149412e+33 1.81681e+33)
(-6.1758083e+35 3.9563776e+33 -3.8435675e+33)
(-6.1573301e+35 1.3507555e+34 -5.959722e+33)
(-5.9266145e+35 7.395852e+33 -4.3782819e+34)
(-5.9771338e+35 1.6043617e+34 -3.9994602e+34)
(-7.0488512e+35 -2.9723716e+34 -9.0672852e+33)
(-6.6005672e+35 -2.9538714e+34 -8.0416503e+34)
(-6.8199427e+35 -1.9294364e+34 -7.7731304e+34)
(-7.2422364e+35 -8.8756655e+33 -8.8990932e+33)
(-7.1195079e+35 -6.2853617e+33 -2.1977987e+34)
(-7.32054e+35 -1.5151925e+34 -1.6063271e+34)
(-7.2993904e+35 -1.9748584e+34 9.1638729e+32)
(-6.935538e+35 -6.2615242e+34 -3.9750012e+32)
(-7.6503859e+35 -2.8606301e+34 -9.0919883e+33)
(-6.0865069e+35 -7.5840636e+34 -9.7734619e+33)
(-5.7719837e+35 -1.1227687e+35 -2.7017076e+34)
(-6.2742001e+35 4.102648e+33 3.1932436e+33)
(-6.2677914e+35 -2.2566447e+33 4.7276474e+33)
(-6.3876017e+35 4.5486345e+33 6.8824704e+34)
(-6.3835917e+35 -1.5347088e+34 6.5553041e+34)
(-6.4657176e+35 1.0082724e+34 7.191902e+34)
(-6.3191982e+35 4.1290409e+33 8.082003e+33)
(-6.3204281e+35 2.5600888e+33 7.7041938e+33)
(-6.4340604e+35 -1.2571684e+34 7.017844e+34)
(-6.3172729e+35 9.5489222e+33 2.5869487e+34)
(-6.1104668e+35 4.0848889e+33 -2.1442488e+34)
(-6.098014e+35 5.8140475e+33 -2.2101226e+34)
(-6.2982308e+35 -7.0576091e+33 2.5724609e+34)
(-6.2641872e+35 5.5827975e+33 2.2254934e+34)
(-6.0700702e+35 7.94068e+33 -2.7193299e+34)
(-6.0537809e+35 -3.5293808e+32 -2.4846936e+34)
(-6.2632737e+35 -5.9824606e+33 2.0629401e+34)
(-6.9315923e+35 1.2214056e+34 -2.9276202e+33)
(-6.044115e+35 -1.8230753e+34 -1.8744309e+34)
(-5.8576966e+35 -3.3140847e+34 -2.3432396e+34)
(-6.6782851e+35 5.8177834e+33 -4.2830706e+33)
(-7.1214998e+35 -2.7420379e+34 -1.0221601e+35)
(-6.4034486e+35 -3.4678426e+34 -5.9384146e+34)
(-6.20456e+35 1.5700402e+34 -1.1076955e+34)
(-6.0926139e+35 2.8211609e+34 -2.1664312e+34)
(-6.4530353e+35 1.1807137e+34 -2.7348078e+33)
(-6.0723725e+35 4.5169749e+33 -7.3180243e+33)
(-7.558785e+35 2.1957519e+34 -3.626618e+33)
(-7.0700809e+35 1.5122382e+34 -5.529859e+33)
(-5.3132553e+35 9.6426096e+33 5.8174809e+34)
(-5.294876e+35 4.0134854e+33 5.9566396e+34)
(-5.2850133e+35 8.8248806e+33 5.5317034e+34)
(-5.2960891e+35 7.1066561e+33 5.4327124e+34)
(-4.5335518e+35 7.5026759e+33 4.4262441e+34)
(-4.5303589e+35 6.1440662e+33 4.4330869e+34)
(-4.5140168e+35 5.8982903e+33 4.3011226e+34)
(-4.5214721e+35 8.0337489e+33 4.227006e+34)
(-5.2871944e+35 7.1763417e+33 5.3679195e+34)
(-5.2704034e+35 4.9609354e+33 5.4932976e+34)
(-5.2660365e+35 4.1719661e+33 5.4592346e+34)
(-5.2838096e+35 3.0835715e+33 5.3846954e+34)
(-5.3188217e+35 5.0901972e+33 5.6834872e+34)
(-5.3150618e+35 3.7089469e+32 5.9114497e+34)
(-5.3065595e+35 5.4398485e+33 5.5963627e+34)