/*--------------------------------*- C++ -*----------------------------------*\
  =========                 |
  \\      /  F ield         | OpenFOAM: The Open Source CFD Toolbox
   \\    /   O peration     | Website:  https://openfoam.org
    \\  /    A nd           | Version:  7
     \\/     M anipulation  |
\*---------------------------------------------------------------------------*/
FoamFile
{
    version     2.0;
    format      ascii;
    class       volScalarField;
    location    "1000";
    object      pMean;
}
// * * * * * * * * * * * * * * * * * * * * * * * * * * * * * * * * * * * * * //

dimensions      [0 2 -2 0 0 0 0];

internalField   nonuniform List<scalar> 
34387
(
-1.2003415e+16
-1.1683472e+16
-1.176469e+16
-1.1658504e+16
-1.204651e+16
-1.1693515e+16
-1.1951942e+16
-1.2076631e+16
-1.2058719e+16
-1.1944208e+16
-1.140486e+16
-1.1621139e+16
-1.163437e+16
-1.1729561e+16
-1.1738382e+16
-1.1737992e+16
-1.1644693e+16
-1.1617159e+16
-1.1731116e+16
-1.1764558e+16
-1.1764627e+16
-1.1602106e+16
-1.1656289e+16
-1.1635429e+16
-1.1392021e+16
-1.1618189e+16
-1.1620687e+16
-1.1725071e+16
-1.1721477e+16
-1.2089952e+16
-1.1739433e+16
-1.2127098e+16
-1.1976513e+16
-1.1961163e+16
-1.2086298e+16
-1.1426236e+16
-1.1645156e+16
-1.1736979e+16
-1.1742319e+16
-1.1641487e+16
-1.1942125e+16
-1.2105673e+16
-1.2084137e+16
-1.1932931e+16
-1.1119973e+16
-1.1449811e+16
-1.134925e+16
-1.1328723e+16
-1.1440832e+16
-1.1455147e+16
-1.1358836e+16
-1.1350764e+16
-1.1446673e+16
-1.1614407e+16
-1.1605763e+16
-1.162103e+16
-1.1747323e+16
-1.1760196e+16
-1.1753663e+16
-1.1760512e+16
-1.1633624e+16
-1.1609007e+16
-1.1751542e+16
-1.1764935e+16
-1.1764473e+16
-1.1601929e+16
-1.1764931e+16
-1.160203e+16
-1.1456524e+16
-1.1670289e+16
-1.1631561e+16
-1.1387689e+16
-1.1614369e+16
-1.1612932e+16
-1.1720314e+16
-1.1724503e+16
-1.1711462e+16
-1.1413858e+16
-1.1116062e+16
-1.1341023e+16
-1.1333942e+16
-1.1428281e+16
-1.143171e+16
-1.1601543e+16
-1.1608669e+16
-1.1751306e+16
-1.1745045e+16
-1.2083999e+16
-1.1744545e+16
-1.1963679e+16
-1.1975537e+16
-1.2165287e+16
-1.2131754e+16
-1.1467904e+16
-1.1656498e+16
-1.1758013e+16
-1.1753115e+16
-1.1653465e+16
-1.2165296e+16
-1.1971491e+16
-1.1951486e+16
-1.2115527e+16
-1.1139922e+16
-1.1364328e+16
-1.1452342e+16
-1.1452824e+16
-1.13644e+16
-1.1631865e+16
-1.1764142e+16
-1.1769203e+16
-1.1630424e+16
-1.1940018e+16
-1.2105594e+16
-1.2083288e+16
-1.1929965e+16
-1.0830749e+16
-1.1073542e+16
-1.1167745e+16
-1.1173502e+16
-1.1054801e+16
-1.1059656e+16
-1.1058202e+16
-1.1156791e+16
-1.1158517e+16
-1.147273e+16
-1.1332495e+16
-1.1315812e+16
-1.1319203e+16
-1.1455441e+16
-1.1454366e+16
-1.1480627e+16
-1.1344516e+16
-1.1346034e+16
-1.1467204e+16
-1.1605672e+16
-1.1613586e+16
-1.1605604e+16
-1.1618391e+16
-1.1746844e+16
-1.1763557e+16
-1.1760843e+16
-1.1762611e+16
-1.1759258e+16
-1.1630666e+16
-1.1607118e+16
-1.1751925e+16
-1.1764967e+16
-1.1762475e+16
-1.1602579e+16
-1.1764968e+16
-1.160183e+16
-1.145637e+16
-1.1761509e+16
-1.1602735e+16
-1.1456466e+16
-1.1316386e+16
-1.1660737e+16
-1.1739474e+16
-1.138914e+16
-1.1627106e+16
-1.1615085e+16
-1.1735026e+16
-1.1619038e+16
-1.1610993e+16
-1.1724064e+16
-1.1735842e+16
-1.1737171e+16
-1.1415481e+16
-1.1425827e+16
-1.1330947e+16
-1.1116823e+16
-1.1321477e+16
-1.1420044e+16
-1.1600604e+16
-1.1599299e+16
-1.1739697e+16
-1.1748732e+16
-1.1459882e+16
-1.1129607e+16
-1.0831621e+16
-1.1044132e+16
-1.1141552e+16
-1.1058967e+16
-1.1153778e+16
-1.1324762e+16
-1.1317136e+16
-1.1451773e+16
-1.1453361e+16
-1.1599077e+16
-1.1606528e+16
-1.1751297e+16
-1.1743423e+16
-1.2060886e+16
-1.1808252e+16
-1.2172602e+16
-1.2190046e+16
-1.1962832e+16
-1.1966786e+16
-1.1500787e+16
-1.1638962e+16
-1.1649836e+16
-1.1751831e+16
-1.1739733e+16
-1.1967247e+16
-1.1982452e+16
-1.2210855e+16
-1.217703e+16
-1.1158446e+16
-1.1397006e+16
-1.1477189e+16
-1.1476441e+16
-1.1396594e+16
-1.1643864e+16
-1.1780552e+16
-1.1775492e+16
-1.1643319e+16
-1.216494e+16
-1.197045e+16
-1.1949135e+16
-1.2115048e+16
-1.1080589e+16
-1.084732e+16
-1.1177877e+16
-1.1170222e+16
-1.1085705e+16
-1.1343705e+16
-1.1476852e+16
-1.1474543e+16
-1.1351254e+16
-1.1630958e+16
-1.176373e+16
-1.1769364e+16
-1.1627871e+16
-1.1939864e+16
-1.2105372e+16
-1.2083124e+16
-1.1929705e+16
-1.0545215e+16
-1.0784619e+16
-1.0768418e+16
-1.0870988e+16
-1.0882931e+16
-1.0768164e+16
-1.0782656e+16
-1.0876426e+16
-1.0879857e+16
-1.1058755e+16
-1.1190288e+16
-1.1191346e+16
-1.117632e+16
-1.104409e+16
-1.1039642e+16
-1.1049589e+16
-1.1038192e+16
-1.1171248e+16
-1.1172085e+16
-1.1473882e+16
-1.1332351e+16
-1.1315239e+16
-1.1314157e+16
-1.1321076e+16
-1.1454919e+16
-1.1455624e+16
-1.1456631e+16
-1.1480399e+16
-1.1344312e+16
-1.1344594e+16
-1.1466847e+16
-1.1604835e+16
-1.1602548e+16
-1.161348e+16
-1.1604522e+16
-1.1618289e+16
-1.1746866e+16
-1.176575e+16
-1.1762578e+16
-1.1760867e+16
-1.1761578e+16
-1.1759114e+16
-1.1630419e+16
-1.1606881e+16
-1.1751855e+16
-1.1602704e+16
-1.1602551e+16
-1.145695e+16
-1.1602804e+16
-1.1456265e+16
-1.1316365e+16
-1.1604439e+16
-1.1457278e+16
-1.1316354e+16
-1.1175072e+16
-1.1742787e+16
-1.1722977e+16
-1.1641994e+16
-1.1421665e+16
-1.1626093e+16
-1.1723608e+16
-1.1764344e+16
-1.133689e+16
-1.1117113e+16
-1.1340177e+16
-1.144503e+16
-1.1433124e+16
-1.144512e+16
-1.134076e+16
-1.1331245e+16
-1.1429708e+16
-1.1612504e+16
-1.1611102e+16
-1.1598781e+16
-1.1754439e+16
-1.1747703e+16
-1.160626e+16
-1.1602945e+16
-1.1740991e+16
-1.1759083e+16
-1.1473323e+16
-1.1127697e+16
-1.1441436e+16
-1.1314372e+16
-1.1155435e+16
-1.0834279e+16
-1.1071431e+16
-1.1048977e+16
-1.113586e+16
-1.1302503e+16
-1.1440194e+16
-1.1598687e+16
-1.1597858e+16
-1.1739819e+16
-1.1747852e+16
-1.1310695e+16
-1.1128626e+16
-1.08392e+16
-1.0773555e+16
-1.0544213e+16
-1.0774305e+16
-1.0873896e+16
-1.0861976e+16
-1.1026195e+16
-1.1160028e+16
-1.1042352e+16
-1.1173075e+16
-1.1324743e+16
-1.1316504e+16
-1.1452146e+16
-1.1454431e+16
-1.1598923e+16
-1.1606409e+16
-1.1751287e+16
-1.1743342e+16
-1.2048725e+16
-1.1823687e+16
-1.194811e+16
-1.1944998e+16
-1.2181022e+16
-1.2194109e+16
-1.1545725e+16
-1.1656184e+16
-1.1746749e+16
-1.1750664e+16
-1.1652496e+16
-1.2230199e+16
-1.2255009e+16
-1.1989777e+16
-1.1988975e+16
-1.1162554e+16
-1.141285e+16
-1.1487917e+16
-1.1486292e+16
-1.1413263e+16
-1.163791e+16
-1.1645475e+16
-1.1770757e+16
-1.1759817e+16
-1.1967929e+16
-1.1984028e+16
-1.2212317e+16
-1.2177469e+16
-1.0850143e+16
-1.1104801e+16
-1.1199333e+16
-1.1199709e+16
-1.1099025e+16
-1.137708e+16
-1.1497479e+16
-1.1500985e+16
-1.1384963e+16
-1.1642946e+16
-1.1781014e+16
-1.1775541e+16
-1.1641731e+16
-1.2164871e+16
-1.1970453e+16
-1.1949042e+16
-1.211501e+16
-1.1062868e+16
-1.0893656e+16
-1.0551718e+16
-1.0885581e+16
-1.0802735e+16
-1.0781067e+16
-1.1203071e+16
-1.118818e+16
-1.1074277e+16
-1.1342495e+16
-1.147697e+16
-1.1475202e+16
-1.1350276e+16
-1.1630916e+16
-1.1763635e+16
-1.1769368e+16
-1.1627734e+16
-1.0257751e+16
-1.0497492e+16
-1.0494572e+16
-1.0596121e+16
-1.0602316e+16
-1.0493304e+16
-1.0498058e+16
-1.0589177e+16
-1.0585855e+16
-1.0766082e+16
-1.07511e+16
-1.088611e+16
-1.0892016e+16
-1.0896368e+16
-1.0754064e+16
-1.0772497e+16
-1.0767876e+16
-1.0889346e+16
-1.0899976e+16
-1.1057409e+16
-1.1190901e+16
-1.1191782e+16
-1.1180443e+16
-1.1173284e+16
-1.1039666e+16
-1.1043419e+16
-1.1034188e+16
-1.1047511e+16
-1.103779e+16
-1.1171766e+16
-1.1171726e+16
-1.147386e+16
-1.1332256e+16
-1.1319112e+16
-1.1314962e+16
-1.1314031e+16
-1.1320229e+16
-1.1458114e+16
-1.1454539e+16
-1.1455597e+16
-1.1456154e+16
-1.1480344e+16
-1.1344227e+16
-1.1344397e+16
-1.1466739e+16
-1.1457194e+16
-1.1454422e+16
-1.1317528e+16
-1.1457369e+16
-1.1316323e+16
-1.1175034e+16
-1.1456127e+16
-1.1317159e+16
-1.1175037e+16
-1.1036304e+16
-1.1529779e+16
-1.1478103e+16
-1.1655261e+16
-1.1692898e+16
-1.1732676e+16
-1.1731785e+16
-1.175217e+16
-1.1628995e+16
-1.1457386e+16
-1.1368072e+16
-1.1130416e+16
-1.1358899e+16
-1.1446677e+16
-1.1613942e+16
-1.175113e+16
-1.1765482e+16
-1.131816e+16
-1.1158276e+16
-1.0837769e+16
-1.1081455e+16
-1.1166898e+16
-1.1070676e+16
-1.1168263e+16
-1.106946e+16
-1.1064008e+16
-1.1150142e+16
-1.1331685e+16
-1.132576e+16
-1.1460679e+16
-1.1456452e+16
-1.1448413e+16
-1.1455239e+16
-1.1332917e+16
-1.1314149e+16
-1.1443703e+16
-1.1611994e+16
-1.1601687e+16
-1.1610563e+16
-1.1601271e+16
-1.1755299e+16
-1.1751763e+16
-1.1756182e+16
-1.1605314e+16
-1.1601089e+16
-1.1741117e+16
-1.1761373e+16
-1.1294417e+16
-1.1122898e+16
-1.0836763e+16
-1.1441732e+16
-1.1313644e+16
-1.1175858e+16
-1.0546759e+16
-1.0879233e+16
-1.077076e+16
-1.0863758e+16
-1.0767152e+16
-1.1060356e+16
-1.1034701e+16
-1.1152722e+16
-1.1301409e+16
-1.1440381e+16
-1.1598636e+16
-1.1597791e+16
-1.1739833e+16
-1.174793e+16
-1.1280787e+16
-1.1096105e+16
-1.0833367e+16
-1.054582e+16
-1.0759794e+16
-1.0591034e+16
-1.0254979e+16
-1.0495523e+16
-1.0488781e+16
-1.0584203e+16
-1.0759248e+16
-1.0893032e+16
-1.087868e+16
-1.1025826e+16
-1.1160638e+16
-1.1042274e+16
-1.1174094e+16
-1.1324685e+16
-1.1316477e+16
-1.1452187e+16
-1.1454397e+16
-1.2037005e+16
-1.1825457e+16
-1.1939708e+16
-1.219112e+16
-1.2197726e+16
-1.1941315e+16
-1.1572058e+16
-1.1663876e+16
-1.165417e+16
-1.1738505e+16
-1.1742849e+16
-1.1982845e+16
-1.1976384e+16
-1.2246101e+16
-1.2263461e+16
-1.1178675e+16
-1.1433855e+16
-1.1502085e+16
-1.1501545e+16
-1.1432586e+16
-1.1649379e+16
-1.1766113e+16
-1.1768358e+16
-1.1649298e+16
-1.2230984e+16
-1.2256953e+16
-1.1992025e+16
-1.198935e+16
-1.0847047e+16
-1.1106464e+16
-1.1208817e+16
-1.1213738e+16
-1.1110995e+16
-1.1394077e+16
-1.1510183e+16
-1.1512209e+16
-1.1401756e+16
-1.1635299e+16
-1.1643198e+16
-1.1772391e+16
-1.1761055e+16
-1.196805e+16
-1.198426e+16
-1.2212355e+16
-1.217754e+16
-1.054581e+16
-1.0789393e+16
-1.0790529e+16
-1.0894766e+16
-1.0901432e+16
-1.1088731e+16
-1.1222835e+16
-1.1230878e+16
-1.1087355e+16
-1.1375282e+16
-1.1497969e+16
-1.1500762e+16
-1.138203e+16
-1.1642903e+16
-1.1781081e+16
-1.1775599e+16
-1.1641679e+16
-1.1061432e+16
-1.0914584e+16
-1.0258733e+16
-1.0608746e+16
-1.0498686e+16
-1.048859e+16
-1.0585538e+16
-1.0907528e+16
-1.079124e+16
-1.0760908e+16
-1.1203368e+16
-1.1188945e+16
-1.1072469e+16
-1.1342396e+16
-1.147701e+16
-1.1475273e+16
-1.1350227e+16
-9.9638359e+15
-1.0203635e+16
-1.0204388e+16
-1.0309443e+16
-1.030692e+16
-1.0315838e+16
-1.0317022e+16
-1.0209453e+16
-1.019446e+16
-1.0483608e+16
-1.0482184e+16
-1.0616806e+16
-1.0620619e+16
-1.0618451e+16
-1.0484378e+16
-1.0492187e+16
-1.0488836e+16
-1.0608968e+16
-1.0599942e+16
-1.0765089e+16
-1.0750781e+16
-1.0886905e+16
-1.0894285e+16
-1.0893143e+16
-1.0896986e+16
-1.0768525e+16
-1.0753967e+16
-1.0767382e+16
-1.0765308e+16
-1.0889085e+16
-1.0899942e+16
-1.1057261e+16
-1.1190859e+16
-1.1191765e+16
-1.1178865e+16
-1.117805e+16
-1.1172049e+16
-1.1039238e+16
-1.1037589e+16
-1.1043336e+16
-1.1033217e+16
-1.1047299e+16
-1.1037766e+16
-1.1171773e+16
-1.1171656e+16
-1.1317601e+16
-1.1317191e+16
-1.1314773e+16
-1.1320126e+16
-1.1175928e+16
-1.117496e+16
-1.1036285e+16
-1.1175883e+16
-1.1036266e+16
-1.089737e+16
-1.1615341e+16
-1.1811539e+16
-1.1717875e+16
-1.1352307e+16
-1.1673507e+16
-1.1753171e+16
-1.113183e+16
-1.1483545e+16
-1.1385448e+16
-1.1379669e+16
-1.146961e+16
-1.1643323e+16
-1.1662666e+16
-1.1749025e+16
-1.1757816e+16
-1.1752839e+16
-1.1480725e+16
-1.1626933e+16
-1.1349492e+16
-1.1169471e+16
-1.1076584e+16
-1.0839881e+16
-1.1164364e+16
-1.1075869e+16
-1.1344313e+16
-1.1469066e+16
-1.161188e+16
-1.1751905e+16
-1.1765439e+16
-1.1316724e+16
-1.1176871e+16
-1.0541954e+16
-1.0892586e+16
-1.0791512e+16
-1.0783021e+16
-1.0884979e+16
-1.0772411e+16
-1.0777309e+16
-1.0882953e+16
-1.0875014e+16
-1.1067671e+16
-1.1183837e+16
-1.1181274e+16
-1.1056857e+16
-1.1059062e+16
-1.1187677e+16
-1.1058275e+16
-1.1046786e+16
-1.1168776e+16
-1.1325745e+16
-1.1329677e+16
-1.1323159e+16
-1.1458568e+16
-1.146151e+16
-1.1454311e+16
-1.1448938e+16
-1.1454758e+16
-1.1330937e+16
-1.13136e+16
-1.1443676e+16
-1.1611918e+16
-1.1605971e+16
-1.1598196e+16
-1.1610374e+16
-1.1605264e+16
-1.1753704e+16
-1.1759091e+16
-1.1751788e+16
-1.1756254e+16
-1.1605318e+16
-1.1600882e+16
-1.1741093e+16
-1.1761594e+16
-1.12502e+16
-1.1071336e+16
-1.0825364e+16
-1.054403e+16
-1.144175e+16
-1.1313602e+16
-1.1176134e+16
-1.0251661e+16
-1.0482225e+16
-1.0579487e+16
-1.0589588e+16
-1.0498012e+16
-1.0900556e+16
-1.0752585e+16
-1.0880981e+16
-1.0750611e+16
-1.1058796e+16
-1.1033541e+16
-1.1153452e+16
-1.1301338e+16
-1.1440385e+16
-1.1282819e+16
-1.1077147e+16
-1.0819745e+16
-1.0537771e+16
-1.0253649e+16
-1.0613092e+16
-1.075713e+16
-9.9624294e+15
-1.0201509e+16
-1.0195982e+16
-1.029915e+16
-1.0303701e+16
-1.048023e+16
-1.0468027e+16
-1.0600673e+16
-1.0758581e+16
-1.089372e+16
-1.087871e+16
-1.1025845e+16
-1.1160682e+16
-1.1042289e+16
-1.1174131e+16
-1.2024944e+16
-1.1819203e+16
-1.1937052e+16
-1.1935878e+16
-1.2191748e+16
-1.2181737e+16
-1.1585846e+16
-1.1651731e+16
-1.1660939e+16
-1.1736268e+16
-1.1731196e+16
-1.1979591e+16
-1.2265947e+16
-1.2272756e+16
-1.197871e+16
-1.1190946e+16
-1.1443688e+16
-1.1504248e+16
-1.1511977e+16
-1.1440758e+16
-1.166324e+16
-1.1648447e+16
-1.1758753e+16
-1.1762997e+16
-1.1986389e+16
-1.1978901e+16
-1.2248517e+16
-1.2266252e+16
-1.0844311e+16
-1.1119206e+16
-1.1227884e+16
-1.1229773e+16
-1.1122348e+16
-1.1416178e+16
-1.1524355e+16
-1.1523238e+16
-1.1419133e+16
-1.1645559e+16
-1.176694e+16
-1.1769203e+16
-1.1645454e+16
-1.2231031e+16
-1.2257001e+16
-1.1992396e+16
-1.1989584e+16
-1.0540075e+16
-1.07899e+16
-1.0788173e+16
-1.0906655e+16
-1.0902626e+16
-1.1090378e+16
-1.1232071e+16
-1.1244233e+16
-1.1101077e+16
-1.1391978e+16
-1.1510674e+16
-1.1511564e+16
-1.1398528e+16
-1.1635259e+16
-1.1643148e+16
-1.1772737e+16
-1.1761348e+16
-1.0250292e+16
-1.0485509e+16
-1.0498964e+16
-1.0598327e+16
-1.0594115e+16
-1.0772878e+16
-1.0774399e+16
-1.0917384e+16
-1.0921125e+16
-1.108821e+16
-1.122341e+16
-1.1230757e+16
-1.1086656e+16
-1.1375161e+16
-1.1498007e+16
-1.1500785e+16
-1.1381876e+16
-1.106136e+16
-1.0914067e+16
-9.9644736e+15
-1.0199936e+16
-1.0303813e+16
-1.0308553e+16
-1.0210839e+16
-1.0633322e+16
-1.0484649e+16
-1.0473176e+16
-1.0602245e+16
-1.0908464e+16
-1.078898e+16
-1.0760377e+16
-1.1203399e+16
-1.1188967e+16
-1.1072351e+16
-9.6714333e+15
-9.9104434e+15
-9.9099217e+15
-9.9043413e+15
-1.0018413e+16
-1.0025539e+16
-9.8991189e+15
-1.001816e+16
-1.001477e+16
-1.0187313e+16
-1.0197328e+16
-1.0182602e+16
-1.0329644e+16
-1.0326575e+16
-1.0322593e+16
-1.033285e+16
-1.0338106e+16
-1.0197719e+16
-1.0185499e+16
-1.0481534e+16
-1.0481934e+16
-1.061765e+16
-1.0628929e+16
-1.0621421e+16
-1.0630344e+16
-1.0491795e+16
-1.0484336e+16
-1.0491581e+16
-1.0486666e+16
-1.0609789e+16
-1.0600485e+16
-1.0765041e+16
-1.0750768e+16
-1.088696e+16
-1.0898137e+16
-1.0893886e+16
-1.0893173e+16
-1.089663e+16
-1.0766555e+16
-1.0767083e+16
-1.0753978e+16
-1.0765351e+16
-1.0765122e+16
-1.0889083e+16
-1.0899912e+16
-1.1178717e+16
-1.1175925e+16
-1.1176008e+16
-1.117193e+16
-1.1039173e+16
-1.1036531e+16
-1.1037127e+16
-1.1033117e+16
-1.1037079e+16
-1.1036195e+16
-1.089731e+16
-1.103651e+16
-1.0897353e+16
-1.076329e+16
-1.1632493e+16
-1.1359981e+16
-1.1725471e+16
-1.1740591e+16
-1.1808145e+16
-1.1815387e+16
-1.1720506e+16
-1.1680434e+16
-1.1476412e+16
-1.1090902e+16
-1.1371301e+16
-1.136494e+16
-1.1453006e+16
-1.1647145e+16
-1.1712012e+16
-1.0827872e+16
-1.1073209e+16
-1.1079116e+16
-1.1178662e+16
-1.1173368e+16
-1.1508384e+16
-1.1366638e+16
-1.1363139e+16
-1.1497962e+16
-1.1640486e+16
-1.1658094e+16
-1.1749281e+16
-1.1756959e+16
-1.1752976e+16
-1.1481268e+16
-1.162685e+16
-1.1348091e+16
-1.1190256e+16
-1.1060286e+16
-1.0882531e+16
-1.0782848e+16
-1.0543532e+16
-1.078851e+16
-1.0883561e+16
-1.1187852e+16
-1.1058585e+16
-1.1342093e+16
-1.1468407e+16
-1.1611866e+16
-1.1752069e+16
-1.1316661e+16
-1.117647e+16
-1.0239677e+16
-1.0471958e+16
-1.0480156e+16
-1.0593762e+16
-1.0593493e+16
-1.0479767e+16
-1.0472048e+16
-1.0592502e+16
-1.0584528e+16
-1.0917185e+16
-1.0775919e+16
-1.0769874e+16
-1.0768353e+16
-1.0905119e+16
-1.0900326e+16
-1.0755387e+16
-1.0765735e+16
-1.0902503e+16
-1.0893278e+16
-1.1065201e+16
-1.1187967e+16
-1.1183735e+16
-1.1186376e+16
-1.1055304e+16
-1.1055656e+16
-1.1053952e+16
-1.118862e+16
-1.1057462e+16
-1.1045896e+16
-1.1169839e+16
-1.1325924e+16
-1.1323771e+16
-1.132956e+16
-1.1322445e+16
-1.1457275e+16
-1.1461928e+16
-1.1461431e+16
-1.1455982e+16
-1.1448983e+16
-1.1454721e+16
-1.1330778e+16
-1.131356e+16
-1.1443668e+16
-1.1604633e+16
-1.1604702e+16
-1.1598181e+16
-1.1605239e+16
-1.1753621e+16
-1.1757227e+16
-1.1755643e+16
-1.1755771e+16
-1.1238872e+16
-1.1037326e+16
-1.0804365e+16
-1.0533243e+16
-1.0248975e+16
-1.1176181e+16
-9.9573991e+15
-1.0303487e+16
-1.0295398e+16
-1.0192524e+16
-1.0193905e+16
-1.0465612e+16
-1.0592657e+16
-1.0608963e+16
-1.0486075e+16
-1.0902143e+16
-1.0752807e+16
-1.0881321e+16
-1.0749445e+16
-1.1058712e+16
-1.1033512e+16
-1.1153501e+16
-1.128947e+16
-1.1073133e+16
-1.0805766e+16
-1.0528011e+16
-1.0245222e+16
-9.9608483e+15
-1.0612301e+16
-1.0757008e+16
-9.6719627e+15
-9.9126356e+15
-9.8999711e+15
-1.0010577e+16
-1.0013496e+16
-1.0188878e+16
-1.017887e+16
-1.0315166e+16
-1.0326036e+16
-1.0479401e+16
-1.0467836e+16
-1.0601263e+16
-1.0758545e+16
-1.0893794e+16
-1.0878765e+16
-1.2004652e+16
-1.180549e+16
-1.1916072e+16
-1.2172575e+16
-1.2190335e+16
-1.1929012e+16
-1.1587254e+16
-1.1727543e+16
-1.1649389e+16
-1.1651199e+16
-1.1727161e+16
-1.1982055e+16
-1.197729e+16
-1.2267956e+16
-1.2252685e+16
-1.1198034e+16
-1.1444372e+16
-1.1503462e+16
-1.1511944e+16
-1.1446041e+16
-1.1648703e+16
-1.1661103e+16
-1.175819e+16
-1.1754911e+16
-1.1982261e+16
-1.2268041e+16
-1.2274964e+16
-1.1982343e+16
-1.0846359e+16
-1.1125664e+16
-1.1115227e+16
-1.1229422e+16
-1.1236918e+16
-1.1424255e+16
-1.1527148e+16
-1.1537234e+16
-1.1422616e+16
-1.1657804e+16
-1.1642861e+16
-1.1760043e+16
-1.1763135e+16
-1.1986924e+16
-1.1979331e+16
-1.224873e+16
-1.2266603e+16
-1.0531498e+16
-1.0793325e+16
-1.078589e+16
-1.0915517e+16
-1.0910369e+16
-1.1106574e+16
-1.1252135e+16
-1.125929e+16
-1.1114343e+16
-1.1413466e+16
-1.1523889e+16
-1.1523344e+16
-1.1415209e+16
-1.1645413e+16
-1.1767281e+16
-1.1769595e+16
-1.1645361e+16
-1.0244047e+16
-1.060187e+16
-1.0496333e+16
-1.0486577e+16
-1.0594709e+16
-1.0777802e+16
-1.0774626e+16
-1.0930307e+16
-1.0919438e+16
-1.1089705e+16
-1.1233187e+16
-1.124434e+16
-1.1100488e+16
-1.1391839e+16
-1.1510706e+16
-1.1511567e+16
-1.1398357e+16
-9.955863e+15
-1.0310285e+16
-1.0201625e+16
-1.0192723e+16
-1.029346e+16
-1.0468798e+16
-1.048708e+16
-1.0616153e+16
-1.0612843e+16
-1.0772609e+16
-1.077369e+16
-1.0918081e+16
-1.0921934e+16
-1.1088151e+16
-1.1223429e+16
-1.1230721e+16
-1.1086595e+16
-1.0914066e+16
-9.671621e+15
-9.9059499e+15
-1.0011728e+16
-1.0018663e+16
-9.9059915e+15
-1.0183839e+16
-1.0320858e+16
-1.0326458e+16
-1.0198124e+16
-1.0633684e+16
-1.0484488e+16
-1.0472014e+16
-1.0602997e+16
-1.0908483e+16
-1.0788825e+16
-1.0760331e+16
-9.3800199e+15
-9.6179523e+15
-9.7208524e+15
-9.7362854e+15
-9.6240766e+15
-9.6147344e+15
-9.619342e+15
-9.7269273e+15
-9.7163704e+15
-9.8961511e+15
-9.897726e+15
-9.894655e+15
-9.8850605e+15
-1.0034203e+16
-1.0036733e+16
-1.0029921e+16
-9.8854577e+15
-1.0030562e+16
-1.0027206e+16
-1.0186469e+16
-1.0180755e+16
-1.0195233e+16
-1.0180798e+16
-1.0330063e+16
-1.0333573e+16
-1.0334284e+16
-1.0323072e+16
-1.0332981e+16
-1.0338117e+16
-1.0198042e+16
-1.0185392e+16
-1.0481431e+16
-1.0481942e+16
-1.0617727e+16
-1.0631552e+16
-1.0628562e+16
-1.0621431e+16
-1.0630317e+16
-1.0492176e+16
-1.0493714e+16
-1.0484336e+16
-1.0491516e+16
-1.0486562e+16
-1.0609915e+16
-1.0600535e+16
-1.0897287e+16
-1.0897336e+16
-1.0893787e+16
-1.0896593e+16
-1.0764881e+16
-1.0764452e+16
-1.076695e+16
-1.0765185e+16
-1.0897243e+16
-1.0897283e+16
-1.0763308e+16
-1.0897216e+16
-1.0763304e+16
-1.0628057e+16
-1.1634588e+16
-1.1798737e+16
-1.1745052e+16
-1.1375468e+16
-1.1740788e+16
-1.1802733e+16
-1.1067664e+16
-1.1489369e+16
-1.1378311e+16
-1.1376417e+16
-1.147997e+16
-1.1678115e+16
-1.1689155e+16
-1.1690458e+16
-1.1704632e+16
-1.1719828e+16
-1.1667018e+16
-1.1523913e+16
-1.0807075e+16
-1.1057655e+16
-1.1054242e+16
-1.1166511e+16
-1.1165711e+16
-1.1374421e+16
-1.1369102e+16
-1.1508211e+16
-1.1637711e+16
-1.1715383e+16
-1.0530857e+16
-1.088198e+16
-1.0769578e+16
-1.0776479e+16
-1.0877321e+16
-1.1058248e+16
-1.1065936e+16
-1.1199088e+16
-1.1197297e+16
-1.1510045e+16
-1.1366018e+16
-1.1362001e+16
-1.1498046e+16
-1.1640356e+16
-1.1657832e+16
-1.174951e+16
-1.1757089e+16
-1.1481293e+16
-1.1347993e+16
-1.1190659e+16
-1.1058849e+16
-1.0901507e+16
-1.0766888e+16
-1.0591945e+16
-1.0486009e+16
-1.0241612e+16
-1.0487383e+16
-1.0594791e+16
-1.077385e+16
-1.0906672e+16
-1.1187819e+16
-1.1057768e+16
-1.1341916e+16
-1.146839e+16
-1.1176455e+16
-1.0174113e+16
-1.0181207e+16
-1.0186427e+16
-9.9531924e+15
-1.0291304e+16
-1.0293254e+16
-1.0290243e+16
-1.0293801e+16
-1.0186237e+16
-1.0461133e+16
-1.0460898e+16
-1.0462587e+16
-1.0610559e+16
-1.0609675e+16
-1.0606414e+16
-1.0465515e+16
-1.0462824e+16
-1.060803e+16
-1.0597328e+16
-1.0918177e+16
-1.0776201e+16
-1.0765927e+16
-1.0769332e+16
-1.0763717e+16
-1.0908612e+16
-1.0906436e+16
-1.0906604e+16
-1.0755097e+16
-1.0765186e+16
-1.0903536e+16
-1.0893981e+16
-1.1064998e+16
-1.1186863e+16
-1.1189346e+16
-1.1183755e+16
-1.1185921e+16
-1.1054102e+16
-1.1054971e+16
-1.1055506e+16
-1.1053803e+16
-1.1188672e+16
-1.1057419e+16
-1.1045851e+16
-1.1169928e+16
-1.1323716e+16
-1.1323677e+16
-1.1323458e+16
-1.1322492e+16
-1.1457042e+16
-1.1460455e+16
-1.1459986e+16
-1.1456289e+16
-1.1604642e+16
-1.1606662e+16
-1.1604702e+16
-1.1757316e+16
-1.1754323e+16
-1.1755881e+16
-1.1242686e+16
-1.1025905e+16
-1.0783141e+16
-1.0519847e+16
-1.0240429e+16
-9.9558379e+15
-1.0003618e+16
-9.9015598e+15
-9.6720902e+15
-9.8973101e+15
-1.0001129e+16
-1.0324743e+16
-1.0312705e+16
-1.0174814e+16
-1.0176977e+16
-1.0464202e+16
-1.0593536e+16
-1.0608124e+16
-1.0483696e+16
-1.0902221e+16
-1.075284e+16
-1.0881392e+16
-1.0749399e+16
-1.1286149e+16
-1.1074566e+16
-1.079877e+16
-1.0515758e+16
-1.0236073e+16
-9.9533631e+15
-9.6708091e+15
-1.0612238e+16
-9.3845097e+15
-9.6115424e+15
-9.7116624e+15
-9.7316579e+15
-9.6264732e+15
-9.8987112e+15
-9.8833494e+15
-1.0027318e+16
-1.0026456e+16
-1.0187992e+16
-1.0178955e+16
-1.0316068e+16
-1.0326204e+16
-1.0479311e+16
-1.04678e+16
-1.0601273e+16
-1.1977742e+16
-1.1786027e+16
-1.2169043e+16
-1.1892763e+16
-1.1915358e+16
-1.2168584e+16
-1.1580747e+16
-1.1633862e+16
-1.1634222e+16
-1.1710964e+16
-1.170484e+16
-1.1960205e+16
-1.2253612e+16
-1.2271437e+16
-1.1971868e+16
-1.119665e+16
-1.1440651e+16
-1.1437843e+16
-1.1499519e+16
-1.1501799e+16
-1.175967e+16
-1.1648959e+16
-1.1649662e+16
-1.1753691e+16
-1.1984296e+16
-1.1981063e+16
-1.2269449e+16
-1.2252774e+16
-1.0845053e+16
-1.1119232e+16
-1.1124822e+16
-1.1234144e+16
-1.1236587e+16
-1.1424092e+16
-1.1527522e+16
-1.153756e+16
-1.1425827e+16
-1.1644207e+16
-1.1654696e+16
-1.1758784e+16
-1.1756531e+16
-1.1982728e+16
-1.226836e+16
-1.2275228e+16
-1.1982849e+16
-1.0527614e+16
-1.0798382e+16
-1.0792577e+16
-1.091393e+16
-1.0919488e+16
-1.1115104e+16
-1.110272e+16
-1.125207e+16
-1.1260492e+16
-1.142149e+16
-1.1527467e+16
-1.1537394e+16
-1.1420079e+16
-1.1657605e+16
-1.1642666e+16
-1.1760508e+16
-1.176351e+16
-1.0234531e+16
-1.0488713e+16
-1.048373e+16
-1.0596656e+16
-1.0595069e+16
-1.0784602e+16
-1.0771582e+16
-1.0941152e+16
-1.0929021e+16
-1.1106026e+16
-1.1252847e+16
-1.1259053e+16
-1.111333e+16
-1.1413236e+16
-1.152388e+16
-1.1523339e+16
-1.1414952e+16
-9.9496363e+15
-1.0306124e+16
-1.019848e+16
-1.0194831e+16
-1.0297501e+16
-1.0619549e+16
-1.0485172e+16
-1.047027e+16
-1.0612101e+16
-1.0777373e+16
-1.0774013e+16
-1.0931061e+16
-1.092045e+16
-1.1089631e+16
-1.1233218e+16
-1.1244318e+16
-1.1100427e+16
-9.663731e+15
-9.8922845e+15
-1.0005373e+16
-1.000622e+16
-9.9021805e+15
-1.0331141e+16
-1.0186183e+16
-1.017698e+16
-1.0309476e+16
-1.0468268e+16
-1.0485395e+16
-1.0616699e+16
-1.0613564e+16
-1.0772601e+16
-1.0773676e+16
-1.0918133e+16
-1.0921974e+16
-9.3824978e+15
-9.6165234e+15
-9.6254903e+15
-9.7232242e+15
-9.7202241e+15
-9.891253e+15
-1.0029284e+16
-1.003691e+16
-9.8901548e+15
-1.0183385e+16
-1.0321671e+16
-1.0325937e+16
-1.0196467e+16
-1.0633665e+16
-1.0484469e+16
-1.0471975e+16
-1.0603052e+16
-9.0923405e+15
-9.3146942e+15
-9.335426e+15
-9.3292648e+15
-9.4366501e+15
-9.4434332e+15
-9.3282239e+15
-9.4431782e+15
-9.4397009e+15
-9.6021171e+15
-9.7331049e+15
-9.7537657e+15
-9.7409696e+15
-9.6180077e+15
-9.6094863e+15
-9.6051366e+15
-9.6053391e+15
-9.7428514e+15
-9.7328023e+15
-9.8961231e+15
-9.8881737e+15
-9.8951989e+15
-9.8910164e+15
-9.8851659e+15
-1.0034702e+16
-1.0037136e+16
-1.0029983e+16
-1.0027317e+16
-9.8856266e+15
-1.0031918e+16
-1.0027616e+16
-1.0186411e+16
-1.0180416e+16
-1.0182079e+16
-1.0195121e+16
-1.0181366e+16
-1.0330141e+16
-1.0334119e+16
-1.0338875e+16
-1.0334752e+16
-1.0323115e+16
-1.0332956e+16
-1.0338094e+16
-1.0198015e+16
-1.0185348e+16
-1.0629905e+16
-1.0629453e+16
-1.0628452e+16
-1.0630294e+16
-1.0492146e+16
-1.049316e+16
-1.0492821e+16
-1.0491481e+16
-1.0764751e+16
-1.0763313e+16
-1.0764297e+16
-1.062813e+16
-1.0628085e+16
-1.0492455e+16
-1.1627979e+16
-1.1389138e+16
-1.1746626e+16
-1.1751815e+16
-1.1783579e+16
-1.1786524e+16
-1.1666672e+16
-1.168682e+16
-1.1494821e+16
-1.1386188e+16
-1.1064418e+16
-1.1385077e+16
-1.1491264e+16
-1.1686835e+16
-1.1681635e+16
-1.0785769e+16
-1.1045894e+16
-1.1045551e+16
-1.1168182e+16
-1.1169305e+16
-1.1536184e+16
-1.1386345e+16
-1.1388898e+16
-1.1531302e+16
-1.1663358e+16
-1.1672564e+16
-1.1687942e+16
-1.1703312e+16
-1.1720434e+16
-1.1666325e+16
-1.1523886e+16
-1.0864057e+16
-1.0754574e+16
-1.0515981e+16
-1.0761398e+16
-1.0867305e+16
-1.1048274e+16
-1.1045789e+16
-1.1195669e+16
-1.1196911e+16
-1.137329e+16
-1.1367769e+16
-1.1506656e+16
-1.1637421e+16
-1.1716194e+16
-1.0234174e+16
-1.0477112e+16
-1.0468249e+16
-1.0574373e+16
-1.0584544e+16
-1.0902032e+16
-1.0752367e+16
-1.0761679e+16
-1.0899202e+16
-1.1056987e+16
-1.1064071e+16
-1.1199432e+16
-1.1197266e+16
-1.1510066e+16
-1.1365961e+16
-1.136193e+16
-1.1497996e+16
-1.1190688e+16
-1.1058759e+16
-1.0902232e+16
-1.0765776e+16
-1.0609444e+16
-1.0471483e+16
-1.0294649e+16
-1.0186548e+16
-9.9493312e+15
-1.0177435e+16
-1.0289935e+16
-1.0471167e+16
-1.0614925e+16
-1.0773356e+16
-1.0907895e+16
-1.1187763e+16
-1.105768e+16
-1.0161239e+16
-1.0170882e+16
-9.9990435e+15
-1.0168809e+16
-1.0009726e+16
-1.0170993e+16
-1.0007526e+16
-9.6704492e+15
-9.9072556e+15
-1.0007045e+16
-9.9008027e+15
-9.9057915e+15
-9.9121528e+15
-1.0301823e+16
-1.0302472e+16
-1.0307236e+16
-1.0299717e+16
-1.0308211e+16
-1.0169711e+16
-1.0458675e+16
-1.0460958e+16
-1.0458866e+16
-1.0462176e+16
-1.061166e+16
-1.06108e+16
-1.0610398e+16
-1.0609657e+16
-1.0464637e+16
-1.0462129e+16
-1.0608826e+16
-1.059853e+16
-1.0918173e+16
-1.0776191e+16
-1.0764425e+16
-1.0766063e+16
-1.0769271e+16
-1.0763526e+16
-1.0910307e+16
-1.0909386e+16
-1.0906427e+16
-1.0907245e+16
-1.0755104e+16
-1.0765178e+16
-1.0903615e+16
-1.0894019e+16
-1.118672e+16
-1.1187534e+16
-1.1188057e+16
-1.1185885e+16
-1.1053877e+16
-1.105348e+16
-1.1054853e+16
-1.105372e+16
-1.132355e+16
-1.1323012e+16
-1.1323636e+16
-1.1460442e+16
-1.1461825e+16
-1.1459893e+16
-1.160728e+16
-1.1607196e+16
-1.1754474e+16
-1.1753716e+16
-1.123963e+16
-1.1024344e+16
-1.077085e+16
-1.0504494e+16
-1.0229311e+16
-9.9491805e+15
-9.6690345e+15
-1.0018033e+16
-9.8869782e+15
-9.7201176e+15
-9.384094e+15
-9.6165429e+15
-9.7204475e+15
-9.6233373e+15
-9.8845533e+15
-1.001648e+16
-1.0325222e+16
-1.0312902e+16
-1.0174151e+16
-1.017693e+16
-1.0464111e+16
-1.0593599e+16
-1.0608088e+16
-1.0483543e+16
-1.1277e+16
-1.1071899e+16
-1.0794861e+16
-1.0506501e+16
-1.0224483e+16
-9.9452709e+15
-9.6643716e+15
-9.3840147e+15
-9.097205e+15
-9.3318329e+15
-9.3370919e+15
-9.4386469e+15
-9.4334635e+15
-9.5957771e+15
-9.726908e+15
-9.7505075e+15
-9.6130931e+15
-9.8970248e+15
-9.8830982e+15
-1.0027653e+16
-1.0027182e+16
-1.0187959e+16
-1.0178966e+16
-1.0316124e+16
-1.0326204e+16
-1.1933936e+16
-1.176139e+16
-1.1861711e+16
-1.1878e+16
-1.214507e+16
-1.2131099e+16
-1.1567888e+16
-1.1600375e+16
-1.1670832e+16
-1.1701483e+16
-1.1625536e+16
-1.2254298e+16
-1.1933429e+16
-1.1959229e+16
-1.2244452e+16
-1.1189542e+16
-1.1429666e+16
-1.142826e+16
-1.1486973e+16
-1.1486362e+16
-1.1632014e+16
-1.1630682e+16
-1.1738332e+16
-1.1731503e+16
-1.1962817e+16
-1.2255362e+16
-1.2273096e+16
-1.1976325e+16
-1.0840973e+16
-1.1116602e+16
-1.111645e+16
-1.1229754e+16
-1.1228387e+16
-1.1419683e+16
-1.1417696e+16
-1.1524519e+16
-1.1526415e+16
-1.1762298e+16
-1.1644336e+16
-1.1644082e+16
-1.1755173e+16
-1.1984617e+16
-1.1981533e+16
-1.2269572e+16
-1.2252895e+16
-1.0522756e+16
-1.0790922e+16
-1.0785445e+16
-1.0910368e+16
-1.0917942e+16
-1.1106201e+16
-1.1113045e+16
-1.1256264e+16
-1.1259251e+16
-1.142093e+16
-1.1527662e+16
-1.153792e+16
-1.1423066e+16
-1.1644069e+16
-1.1654461e+16
-1.1759154e+16
-1.1756927e+16
-1.0223865e+16
-1.0479208e+16
-1.0594774e+16
-1.0604384e+16
-1.0486649e+16
-1.0792429e+16
-1.0782827e+16
-1.0935161e+16
-1.0940704e+16
-1.1114191e+16
-1.1101625e+16
-1.125249e+16
-1.1260793e+16
-1.1421265e+16
-1.1527449e+16
-1.1537417e+16
-1.141991e+16
-9.9398313e+15
-1.0300422e+16
-1.0191763e+16
-1.018872e+16
-1.0293174e+16
-1.0477969e+16
-1.046981e+16
-1.0615633e+16
-1.061162e+16
-1.0784437e+16
-1.0771516e+16
-1.0941716e+16
-1.092965e+16
-1.1105957e+16
-1.1252819e+16
-1.1258986e+16
-1.1113241e+16
-9.6560045e+15
-9.8906957e+15
-9.8954818e+15
-1.0005435e+16
-1.000179e+16
-1.0327192e+16
-1.0184425e+16
-1.0178588e+16
-1.031548e+16
-1.0619387e+16
-1.0483649e+16
-1.0469446e+16
-1.0612519e+16
-1.0777366e+16
-1.0773993e+16
-1.0931095e+16
-1.0920494e+16
-9.376808e+15
-9.602483e+15
-9.7052245e+15
-9.7236789e+15
-9.6212969e+15
-9.8747147e+15
-1.0021522e+16
-1.0022498e+16
-9.8890673e+15
-1.0331642e+16
-1.0186933e+16
-1.0175983e+16
-1.031036e+16
-1.0468244e+16
-1.0485296e+16
-1.0616741e+16
-1.0613628e+16
-9.0954461e+15
-9.3330616e+15
-9.4345111e+15
-9.4434931e+15
-9.3357825e+15
-9.6001059e+15
-9.6136223e+15
-9.7387108e+15
-9.7347495e+15
-9.8909432e+15
-1.0029978e+16
-1.0037854e+16
-9.8904925e+15