/*--------------------------------*- C++ -*----------------------------------*\
  =========                 |
  \\      /  F ield         | OpenFOAM: The Open Source CFD Toolbox
   \\    /   O peration     | Website:  https://openfoam.org
    \\  /    A nd           | Version:  7
     \\/     M anipulation  |
\*---------------------------------------------------------------------------*/
FoamFile
{
    version     2.0;
    format      ascii;
    class       volVectorField;
    location    "1000";
    object      U;
}
// * * * * * * * * * * * * * * * * * * * * * * * * * * * * * * * * * * * * * //

dimensions      [0 1 -1 0 0 0 0];

internalField   nonuniform List<vector> 
34387
(
(-4.2511608e+08 4782808.9 -7882089)
(-4.111643e+08 -5738917.6 -6954168)
(-2.8377521e+08 -584642.3 -1295455.3)
(-4.1785795e+08 -9415312.5 -3922731.9)
(-4.4730165e+08 9525447.3 -4807943.7)
(-4.2435892e+08 -6012060.7 -8546607.8)
(-2.9448546e+08 -2402694.2 27206668)
(-2.9254215e+08 11674952 -32399993)
(-2.9663427e+08 -1547773 -31612722)
(-3.0537419e+08 9134145.8 27221576)
(-4.0709404e+08 -7604968.1 -6201925)
(-2.8321204e+08 29469059 2878951.7)
(-2.8761795e+08 28595641 -11587303)
(-2.8290979e+08 -26874139 3539777.4)
(-2.706689e+08 -29414068 -8505433.9)
(-2.8652703e+08 8473350.9 -33080074)
(-2.8922369e+08 -8514754.6 25236210)
(-2.8599703e+08 4584910.4 28534475)
(-2.744861e+08 -4691768 -32081963)
(-2.6816534e+08 -981108.69 -1874165.8)
(-2.7223591e+08 -30885.038 -2050718.1)
(-2.9047024e+08 -931721.98 -1474730.9)
(-4.198604e+08 -9588919.4 -1902058.6)
(-4.3146929e+08 -12001483 -5864549.7)
(-4.1527203e+08 -9320304.9 -2917143.4)
(-2.9143269e+08 27108671 2792179.2)
(-2.9152616e+08 25967868 -8801821)
(-2.840108e+08 -28035425 3142022.9)
(-2.8137348e+08 -26541943 -8112559.6)
(-4.7029635e+08 8729291.2 -7878700.5)
(-4.3438476e+08 -10830372 -13085891)
(-3.020776e+08 12690411 -30549385)
(-2.9908494e+08 -5009436.7 31589785)
(-3.1051427e+08 12752746 33267157)
(-3.0334454e+08 823863.84 -28340624)
(-4.1888447e+08 -9801598 -6945870.3)
(-2.9433467e+08 -5988919.3 27716237)
(-2.9690441e+08 -5497327.7 -29487965)
(-2.9258029e+08 8407223.9 -28757287)
(-3.0435639e+08 4388822.7 26679911)
(-2.762483e+08 5576282.1 -4608504.6)
(-2.7884604e+08 6879547.3 -3152153.4)
(-3.0084925e+08 5961760.9 -4241914.1)
(-3.0109931e+08 2189051.1 -5787694.9)
(-4.0118201e+08 -8152778.5 -5724613.8)
(-2.7619787e+08 -27847005 4538660.9)
(-2.8190985e+08 27162007 -9632869.2)
(-2.8444472e+08 28560325 3195024.6)
(-2.7469622e+08 -29080547 -5810671.5)
(-2.7723737e+08 6150878.7 -29211927)
(-2.8232685e+08 -9838442.4 26531274)
(-2.8653235e+08 3089742.7 27019306)
(-2.8152079e+08 -5215435.1 -30393830)
(-2.7900634e+08 -5673760.4 -2555613.6)
(-2.9165781e+08 -3079711.4 -3851106.1)
(-2.8389784e+08 -4644203.4 -4905210.8)
(-2.8993699e+08 1083151 -4754711.2)
(-2.8087749e+08 -3356696.7 -6067155.5)
(-2.8287668e+08 -1066475.5 -3439147.3)
(-2.8898923e+08 1282507.6 -422917.07)
(-2.7876521e+08 5272.6662 -4686673.6)
(-2.8679804e+08 580758.23 -4933067.8)
(-2.8402706e+08 -62117.843 -2380718.9)
(-2.5939372e+08 -1355723.9 -3882296.5)
(-2.5265759e+08 -1333945 -3347971.2)
(-2.7534796e+08 -1086237 -1980371.7)
(-2.4887327e+08 -1652430.3 -3553686)
(-2.7495263e+08 -469082.72 -1927420.5)
(-2.855887e+08 -1698711.3 -1909355.9)
(-4.11292e+08 -8152714 2242884.4)
(-4.3402038e+08 -13529540 -1550410.7)
(-4.1731557e+08 -10170654 -893462.9)
(-2.9257777e+08 26335836 4501621.5)
(-3.0283757e+08 26558577 -6655942.5)
(-2.9127555e+08 -26997958 4813242.1)
(-2.8286574e+08 -27647421 -8200977.6)
(-4.4292306e+08 -40375985 -10083872)
(-4.2490329e+08 -13581026 -4066611.4)
(-4.0958985e+08 -8013999.7 -1689937.1)
(-2.9228282e+08 25483058 3251995.1)
(-2.9266959e+08 25927613 -8562593.9)
(-2.8598058e+08 -26272285 3109092.6)
(-2.8489314e+08 -25885334 -8439711.2)
(-2.739304e+08 -4233782.6 -4133349.5)
(-2.7608787e+08 -6811743.9 -3073478.4)
(-2.7852059e+08 -3978774.9 -3456570.9)
(-2.7193029e+08 -886827.43 -2343255.5)
(-4.9947813e+08 5365885.2 -12670393)
(-4.4282116e+08 -12306579 -42251995)
(-3.1396677e+08 12015652 36008704)
(-3.1252919e+08 -4566673.1 33122447)
(-3.0731918e+08 11914940 -32124060)
(-2.9964902e+08 -1629508.6 -29240076)
(-4.2273656e+08 -16793397 -11898897)
(-2.9588894e+08 -9119913.3 26555738)
(-3.0040216e+08 6123389.4 -28138858)
(-3.0483997e+08 -4144275.5 -29092993)
(-3.0795434e+08 6129574.6 26133156)
(-2.8628128e+08 11330057 -115442.18)
(-2.8557554e+08 6497718.4 -4093169.2)
(-3.0985427e+08 6559078.7 -5854055.3)
(-3.0724665e+08 11182739 -1544504.2)
(-4.1068691e+08 -10494547 -5693133.6)
(-2.9758365e+08 -8553898.5 26682650)
(-2.9727772e+08 -7983682.7 -27139957)
(-2.9372525e+08 5017928.5 -26433488)
(-3.0375425e+08 2471734.2 25555780)
(-2.8162735e+08 1986313.4 -4419181.5)
(-2.9703921e+08 -1034573 -100169.12)
(-2.785368e+08 3494539.7 406837.95)
(-2.9812186e+08 -2850238.3 -4230224.7)
(-2.3285851e+08 6279314.9 -679033.4)
(-2.2510248e+08 5849909.9 -2970725.1)
(-2.4631552e+08 4914054.1 -4139911.7)
(-2.409927e+08 3038123 -1378622.8)
(-3.9751857e+08 -9229808.8 -6175394.8)
(-2.8166669e+08 -9640797.7 26284396)
(-2.7714273e+08 4981524 -26664520)
(-2.7512621e+08 -6200234.7 -27977242)
(-2.8026687e+08 1581029.7 27695876)
(-2.8181423e+08 26167427 1859708.1)
(-2.8161604e+08 26201760 -10007789)
(-2.7429849e+08 -26501869 4886952.5)
(-2.8024571e+08 -28384500 -6613736.8)
(-2.786025e+08 -1769697.2 -3694414.6)
(-2.7290652e+08 -5345968.1 -1909234.6)
(-2.7660327e+08 -3553012 -225312.42)
(-2.9304255e+08 -793205.51 -2838997.4)
(-2.7873227e+08 -2910859.4 -725910.19)
(-2.8850551e+08 493908.33 -534503.3)
(-2.7326618e+08 -1300471.1 -1176144.2)
(-2.7225269e+08 -1744416.3 -5788792.2)
(-2.7958732e+08 -25937.817 -3680868.1)
(-2.9029695e+08 184749.59 -2860670.2)
(-2.7848218e+08 -5629275.3 -2167419.6)
(-2.5387782e+08 -3030748.4 -3631915.7)
(-2.7999063e+08 -873436 -5516113.8)
(-2.8454948e+08 -1734088.4 -5311406.8)
(-2.7676807e+08 -1276046.5 -5015789.3)
(-2.839992e+08 -3210567.4 -6659533.7)
(-2.7536986e+08 -2675778.1 -6580326.6)
(-2.8464757e+08 -3955429.3 -4762014.6)
(-2.5450981e+08 2104864 -956202.3)
(-2.8518834e+08 60067.948 -1151408.6)
(-2.7827875e+08 -532473.66 -2771866.4)
(-2.8724936e+08 -1488287.9 -2655543.4)
(-2.3574064e+08 -2260853.9 -5120211.6)
(-2.6933249e+08 -2000891.7 -7036328.8)
(-2.7557788e+08 -1095349 -868037.88)
(-2.2640622e+08 -2760887.2 -4756004.5)
(-2.5143549e+08 -1030909.6 -2834759.6)
(-2.7219399e+08 -1813164.3 -2320580.8)
(-2.5809833e+08 -4510535.4 -3397338.8)
(-2.5563482e+08 -262328.14 -2354896.9)
(-2.7791526e+08 -1705944.8 -2216773.2)
(-2.723645e+08 -2437037.4 -2383026.6)
(-4.2746831e+08 -11538562 3638397.8)
(-2.7824952e+08 7425599.7 29982737)
(-4.0754084e+08 -11881909 3819723.4)
(-2.8600718e+08 -9582355.2 -29626177)
(-2.8115464e+08 3657845.4 -30528098)
(-2.7200904e+08 -3534125.6 31079361)
(-2.7932544e+08 28875056 8518998.5)
(-2.8964704e+08 29654053 -4235694.8)
(-2.7823714e+08 -30004186 5457309.5)
(-2.6917623e+08 -28091691 -7132165.6)
(-4.4245826e+08 -44295499 -543695.39)
(-4.2538911e+08 -15135363 -1789504.6)
(-2.9477318e+08 -27234283 5399112.3)
(-3.0230869e+08 24458966 -5174358.7)
(-4.1118064e+08 -9259787 -322164.19)
(-2.9601919e+08 25882602 5960063.4)
(-2.8770055e+08 -26295405 -6559991.9)
(-2.8374366e+08 -6815412.6 -2368294.6)
(-3.0022991e+08 -5914843.8 -753441.42)
(-2.9821546e+08 -1160416.8 -1209256.6)
(-2.8353288e+08 -3004913 -3972400.5)
(-4.1747309e+08 -28266007 -7938047.2)
(-4.158503e+08 -12419705 -2379514.5)
(-4.0533052e+08 -8765721.8 -1201485)
(-2.9518161e+08 24812723 -7184843.4)
(-2.8846257e+08 -24953848 3436571.8)
(-2.9140046e+08 24357738 3832448.5)
(-2.8543882e+08 -25036546 -7024575.1)
(-2.766246e+08 -4953027.3 -4451224.1)
(-2.7999152e+08 -5147395.1 -3795710.5)
(-2.7884482e+08 -2110037.1 -3572738.8)
(-2.7890374e+08 -1083223.6 -4917326)
(-2.521783e+08 -1811060.8 -3641471.6)
(-2.3847358e+08 -3343530.8 -2621476.8)
(-2.4748284e+08 -4413908.3 -3248105.6)
(-2.3633329e+08 -2459255 -1837289)
(-5.2076102e+08 1168277.1 -15221002)
(-4.4937393e+08 -8462884 -50897038)
(-3.1244007e+08 -2547606 -32533193)
(-3.1276201e+08 8451361.2 -34489749)
(-3.2220896e+08 -8680924.4 37891126)
(-3.3239162e+08 13330409 38014209)
(-4.1665821e+08 -19095630 -23229216)
(-3.1064037e+08 3556178 23111159)
(-3.0053197e+08 -7109093.3 23556381)
(-3.0792356e+08 8816468.3 -32100174)
(-3.0835718e+08 -6602531.4 -31774242)
(-3.0194787e+08 7163856.5 -5819477.6)
(-2.9571839e+08 9597474.9 -4266667.9)
(-2.9801971e+08 13800028 -172810.17)
(-3.0090936e+08 11444300 -1329275.9)
(-4.0935687e+08 -16575642 -7460967.6)
(-2.9461239e+08 -10902479 24225912)
(-2.9571531e+08 2477693.5 -27270438)
(-3.0139144e+08 -7754762.4 -28660967)
(-3.0034029e+08 2400240.1 22970295)
(-2.8320404e+08 -159600.12 -6815548.3)
(-2.887516e+08 1700520.9 -1809591.5)
(-3.0701619e+08 3578731.5 -2786403.9)
(-3.0512343e+08 917879.33 -7216206)
(-2.8174008e+08 12754318 -1104622.3)
(-3.0354646e+08 7247287.3 -1668028.1)
(-3.0218094e+08 7152037 -2056835.1)
(-2.9848938e+08 11465136 -1898256.9)
(-3.0297506e+08 -12220076 25361727)
(-4.0483595e+08 -10367978 -4824384.6)
(-2.9662174e+08 -8978958.2 -25390098)
(-2.9894863e+08 1348403.5 -24449209)
(-2.9766747e+08 1616212.8 24684110)
(-2.8807106e+08 -2303035.4 -5472749.2)
(-2.9843235e+08 -3339261 -1561338.1)
(-2.8721401e+08 -220006.44 -1735436.9)
(-2.9887812e+08 -4159458.6 -5822199.4)
(-2.8405468e+08 2939613 -2038517.5)
(-2.5789511e+08 679458.18 -619977.68)
(-2.6605323e+08 5312604.7 -1151835.2)
(-2.9391571e+08 -1511364.8 -1296715.4)
(-2.5409575e+08 6855694.6 -1619261)
(-2.4432035e+08 7079169.8 -2037218.1)
(-2.5565529e+08 6020309.7 -2592565.1)
(-2.6321446e+08 3631531.7 -1372770.7)
(-3.9505194e+08 -9906006.7 -5044753.5)
(-2.8210323e+08 -13086269 25327752)
(-2.8487925e+08 24516561 -9811488.4)
(-2.7590843e+08 -26765960 4194032.6)
(-2.7445072e+08 -29222247 -8542071.5)
(-2.8047116e+08 24515320 -1182401.9)
(-2.8310987e+08 -1959002.6 24212405)
(-2.8078509e+08 -9324298.9 -28244724)
(-2.764265e+08 3148846.4 -25346676)
(-2.6916783e+08 -1545315.3 -4490564.6)
(-2.7321081e+08 -1620546.5 -1457744.5)
(-2.7540666e+08 -666224.54 -845941.71)
(-2.8700819e+08 515467.4 -483713.31)
(-2.7691923e+08 -2881315.9 -2970663.2)
(-2.8759044e+08 -3973809.6 -2735087.6)
(-2.7812985e+08 -3689663.2 -3281395.8)
(-2.7286125e+08 -4863555.6 -2940255.3)
(-2.7325003e+08 -1182492.2 -2243888.4)
(-2.8398955e+08 -1359705.5 -1756142.6)
(-2.6695526e+08 -2526943.4 -3789199.6)
(-2.5088708e+08 -2182072.6 -2034802.6)
(-2.812716e+08 -2117563 -52469.248)
(-2.4710186e+08 -1984100.8 -341491.5)
(-2.8217682e+08 2724648.2 -2030059.3)
(-2.8116893e+08 -455263.8 344975.59)
(-2.4289161e+08 -2628232.9 -1426254.1)
(-2.8235353e+08 1928195.9 50427.44)
(-2.8019401e+08 -1070158.3 -2814667.9)
(-2.5698711e+08 -1116239 -2699504.4)
(-2.4918189e+08 813363.69 -1165712.2)
(-2.5831508e+08 21983.69 -2232612.2)
(-2.6748116e+08 555808.05 -542377.3)
(-2.4354008e+08 -3112088.8 -3070876.2)
(-2.5875909e+08 -2076627.2 -3424108.1)
(-2.3009421e+08 -1967920.4 -3637229.1)
(-2.5630322e+08 -2250898.3 -5001386)
(-2.5834044e+08 -2285291.8 -4518126.8)
(-2.6942279e+08 -2708709.5 -4668666.7)
(-2.679651e+08 -3540380.4 -7235925.2)
(-2.7138757e+08 -1535935.5 -6580815.8)
(-2.475134e+08 -4903445.3 -5365853)
(-2.5739976e+08 2379922.1 -2053697.5)
(-2.5994203e+08 515272.81 -2271312.7)
(-2.5620936e+08 -140128.73 -2219053.7)
(-2.5908715e+08 -1190764.8 -2557217.6)
(-2.4206841e+08 -502225.04 -2047074.6)
(-2.6042271e+08 -1962844.3 -2473886)
(-2.8854043e+08 -1898629 20838.338)
(-2.2936567e+08 -1031198.1 -2386411.8)
(-2.5389768e+08 -1791807.6 -2748909.2)
(-2.6399365e+08 -2636908 -2333831.4)
(-2.5109897e+08 -1352782.7 -2511436.8)
(-2.6981206e+08 237352.96 -2232070.3)
(-2.6960452e+08 -2752243.6 -2676817.9)
(-2.5914193e+08 -2953276.8 -2863499.1)
(-4.392383e+08 -37646314 5554181.6)
(-3.017803e+08 7347413.1 29059851)
(-3.0636598e+08 -8887851.5 -27726753)
(-4.1779358e+08 -14952320 3386238.3)
(-2.9645347e+08 5797459 -29170970)
(-2.8824186e+08 -4839448.1 27777016)
(-2.809369e+08 -694903.07 -47753.429)
(-2.9070258e+08 -11744596 -28228069)
(-4.0315646e+08 -10636456 5033349.9)
(-2.7885151e+08 299011.97 -28201937)
(-2.7838941e+08 -7854181.6 29060070)
(-2.8310701e+08 4856609.6 26635975)
(-2.7918405e+08 -31039169 6151518.8)
(-2.812163e+08 25788694 -1676297.2)
(-2.7886761e+08 26308400 9655781.8)
(-2.7236048e+08 -28216888 -6206867)
(-2.804806e+08 -1882502.8 3566078.1)
(-2.7768183e+08 -1670932.4 3715053.4)
(-2.8287429e+08 -1538678.8 1312213.7)
(-2.8057418e+08 2336917.4 4088978.6)
(-2.8038099e+08 1537016.1 -187331.21)
(-2.722843e+08 -5942258.2 -185125.45)
(-2.9249557e+08 -4615712.9 -6061.5808)
(-2.9547072e+08 -3187965.2 986003.18)
(-2.7477688e+08 -1967051 -216459.99)
(-4.1574239e+08 -31799594 -1645952.4)
(-4.1534155e+08 -13752967 -1644732.3)
(-2.9952074e+08 -2235368 239652.71)
(-2.9916258e+08 -5753402.2 1642036.6)
(-2.9552704e+08 -26851490 5945401.8)
(-4.0692362e+08 -8453838.8 -1239561.7)
(-2.9755253e+08 22989178 -5188921.4)
(-3.0207442e+08 23908438 6614659.9)
(-2.9475669e+08 -25507207 -4925017.2)
(-2.8916509e+08 -5381426.6 579220.06)
(-2.8820473e+08 -2323464.6 -694965.07)
(-2.5441307e+08 -3547579.7 -2185383.9)
(-2.7733789e+08 -2769728.3 -619194.05)
(-2.7690683e+08 -2469564.7 -683265.45)
(-2.6909175e+08 -3772484.8 -3829725.4)
(-4.0124514e+08 -34859905 -20156475)
(-4.1188336e+08 -19900024 -4866165.6)
(-4.1019454e+08 -11000183 -1323975.9)
(-2.9617741e+08 21759312 -6408288.7)
(-4.0208429e+08 -9055510.8 -1105483.1)
(-2.9042188e+08 22987776 5094639)
(-2.8499393e+08 -24596903 -5909889.2)
(-2.9394839e+08 -25529464 4378070.8)
(-2.8376755e+08 -5274609.4 -2113981.2)
(-2.8452822e+08 -1662953.1 -3364535.1)
(-2.7306778e+08 -4725846.2 -3208580.8)
(-2.7672673e+08 -1497221.7 -3722593.7)
(-2.5664033e+08 -2043193.2 -4354091.6)
(-2.5035109e+08 -2327361.4 -3584538.9)
(-2.4171945e+08 -3005906.7 -3089317.7)
(-2.6016024e+08 -2220947.1 -4799930.8)
(-2.4224708e+08 -2504665.9 -3460175.5)
(-2.4462743e+08 -3013395.2 -2709573.2)
(-2.514502e+08 -3209806.1 -3400918.6)
(-2.3904607e+08 -2671214.1 -1795889.7)
(-5.3492638e+08 -4304482.8 -17257137)
(-4.5979259e+08 -8589804.8 -55486319)
(-3.2929844e+08 -11216397 40908001)
(-3.3277243e+08 12185035 42229087)
(-3.0930681e+08 -7218365.4 -34507905)
(-3.151011e+08 7093993.5 -36349475)
(-4.1546566e+08 -16709739 -29057430)
(-3.0607897e+08 -7726550.9 23849095)
(-3.2005254e+08 7284918.5 -32429083)
(-3.2116438e+08 -5840416.2 -32552653)
(-3.1721778e+08 6008982.8 23406913)
(-3.2267889e+08 12501375 -3650277.1)
(-3.0707526e+08 6981519.1 -4147362.1)
(-3.0357914e+08 4805365.9 -7129196.3)
(-3.2227458e+08 7306972.7 -7140513.5)
(-4.0515213e+08 -19650959 -9631190.4)
(-2.9677756e+08 -11121195 22278966)
(-3.0120767e+08 2937093.3 -29743746)
(-3.0522139e+08 -10308738 -31476271)
(-3.0140525e+08 -390154.63 20217498)
(-3.0750402e+08 -1187310.8 -9081379.7)
(-2.8934793e+08 1117958.3 -8747091.3)
(-2.9562319e+08 4988491.3 -1604126.9)
(-3.0884367e+08 2493241.5 -2954182.3)
(-2.8949888e+08 7309536.5 -1795422.2)
(-2.9672815e+08 10201632 -827927.21)
(-2.6980444e+08 14087551 -1235380.6)
(-2.9399891e+08 12527228 -2199510.6)
(-4.0207992e+08 -15259841 -4562816.9)
(-2.9434899e+08 -13327346 24774943)
(-2.9295751e+08 -634128.52 -24783603)
(-2.9082587e+08 -10217131 -25650638)
(-2.9320512e+08 -1039523.8 24155834)
(-2.8053474e+08 -4158021 -5560923.1)
(-2.8226691e+08 -2346996.8 -2565161.4)
(-2.9898683e+08 -1406292.6 -2999678.6)
(-2.9019824e+08 -3478474 -6326683.7)
(-2.6717098e+08 638103.51 -2161716.4)
(-2.9016083e+08 1861984.1 -2454144.6)
(-2.8935483e+08 4625067.4 -2594434.7)
(-2.7813292e+08 2598046.8 -2260254.2)
(-2.8131752e+08 13053061 -1901813.2)
(-2.7215215e+08 7193004.4 -2028154.4)
(-2.8674225e+08 7422437.2 -2062986.7)
(-2.9346326e+08 11485443 -2008178.8)
(-2.9493138e+08 -8058797.3 -4593364.3)
(-2.9762273e+08 -1085945.2 -24015390)
(-4.004221e+08 -10174972 -4148891.3)
(-2.8942546e+08 -8948651.6 -23268621)
(-2.9761047e+08 -12473309 23738400)
(-2.9599406e+08 868242 24932376)
(-2.9593213e+08 -4710611.6 -1787198.6)
(-2.9616712e+08 -5864300.4 -1442884.6)
(-2.8527165e+08 -4303171.2 -4670223.8)
(-2.6313144e+08 -1023227 -2315802)
(-2.9535321e+08 -2558496.7 -2833546.7)
(-2.7347034e+08 704398.21 -2778522.8)
(-2.8113315e+08 -3197118.2 -2661789.8)
(-2.5953741e+08 3688228.5 -2231351.4)
(-2.7730899e+08 616842.33 -1435764.9)
(-2.6297578e+08 5396309.8 -2059863.6)
(-2.801641e+08 -1196367.2 -2099658.4)
(-3.9159378e+08 -8430349.2 -4136569.6)
(-2.8722628e+08 21495064 -9954822.1)
(-2.8222825e+08 -12007949 24509061)
(-2.7651503e+08 796212.2 -25191038)
(-2.7600998e+08 -10117831 -28624956)
(-2.8373352e+08 -956775.7 24586612)
(-2.8505392e+08 22156703 1692278.2)
(-2.8065884e+08 -30141948 -8683526.6)
(-2.8191118e+08 -27934598 4046094.6)
(-2.7202471e+08 -7937881.2 -5074332.2)
(-2.7995405e+08 -5828863.3 -3669833.3)
(-2.7986142e+08 -1708336 -3683303.1)
(-2.7986966e+08 -2649925.9 -6722218.3)
(-2.8844108e+08 -3769138.5 -3083173)
(-2.823666e+08 -5154327.1 -8247497.8)
(-2.8390301e+08 -6378184.1 -7408057.1)
(-2.8181907e+08 -8209774.7 -5042193.2)
(-2.8775099e+08 -6759141.3 -2429885.4)
(-2.7251013e+08 -4905736.4 -879826.28)
(-2.44534e+08 -756727.38 -1660727)
(-2.4245623e+08 -585388.6 -2331939.2)
(-2.5390176e+08 65693.397 -1377806.7)
(-2.8308848e+08 -598281.22 705407.48)
(-2.82373e+08 862735.51 -2140701.7)
(-2.8760201e+08 -5061212.1 -4593078.5)
(-2.6909504e+08 -2795772.7 -2076319.8)
(-2.8711481e+08 -4667179.4 -4450716.9)
(-2.650689e+08 -2314208.8 -3063007.8)
(-2.5264435e+08 -2547347.9 -2613004.2)
(-2.4879295e+08 -2490948.5 -1963340.4)
(-2.5877304e+08 -2017454.2 -1459316.8)
(-2.5293731e+08 -2255436.7 -3696728.1)
(-2.5119988e+08 -2269500 -1959720.1)
(-2.8389463e+08 1086185.8 812439.55)
(-2.525108e+08 -1414036.6 -279463.18)
(-2.5098362e+08 -2375577.7 -307939.71)
(-2.5454176e+08 2863923.2 -831194.54)
(-2.7703626e+08 2185499.6 1574971.3)
(-2.3938623e+08 -2238247.2 -260729.27)
(-2.5217812e+08 -2290160 -1190765.5)
(-2.3135036e+08 1489515.3 -1836131.8)
(-2.5114889e+08 -447823.6 -2463279.2)
(-2.4582222e+08 -535462.24 -2225768.4)
(-2.6067782e+08 1299868.2 -1375476.2)
(-2.5847552e+08 749404.37 -1649644.3)
(-2.7705951e+08 -608000.36 -602025.53)
(-2.5721269e+08 -1937396.7 580055.76)
(-2.8469944e+08 -2617343.3 -1081316.9)
(-2.4752115e+08 -162038.23 -1298732.4)
(-2.5571578e+08 -2824546.2 -2578634.2)
(-2.5797566e+08 -3185086.4 -2677313.6)
(-2.5543126e+08 2508147.3 -1792716.3)
(-2.7510279e+08 -787956.36 -2738610.2)
(-2.5786971e+08 -3266758.2 -3134741.9)
(-2.4787189e+08 -3073172.1 -3208152.1)
(-4.4639081e+08 -38196657 38741117)
(-4.1164461e+08 -29583017 4528655.7)
(-2.9713859e+08 2679012.6 -26862348)
(-3.0484483e+08 -18837178 -25775903)
(-3.2315256e+08 702243 27950190)
(-2.9809374e+08 -7845584.9 27417003)
(-3.0795445e+08 -116806.82 1130686.9)
(-3.068846e+08 -2644823.1 5580781.2)
(-2.9916638e+08 1628496.4 25501611)
(-3.0250509e+08 -13346707 -26714001)
(-4.0892996e+08 -14202713 3297777.4)
(-2.9495704e+08 1313419.2 -26020597)
(-2.9355306e+08 -7217815 25597177)
(-2.8475578e+08 238333.97 4058584.4)
(-2.8414121e+08 732409.08 -1311335.4)
(-2.4799418e+08 -658240.73 1630910.1)
(-2.9121949e+08 -4708424 5155502.8)
(-2.8601308e+08 2879634.1 27555393)
(-3.9898165e+08 -8121171.1 3009787)
(-2.8840029e+08 -12318740 -25589792)
(-2.7340259e+08 -8352864.7 29291550)
(-2.7625959e+08 1271993.1 -26850768)
(-2.7328523e+08 -30867516 7744204.7)
(-2.7732705e+08 25860090 -1289311.4)
(-2.8225536e+08 25309169 8668632.3)
(-2.7424727e+08 -28363104 -5551222.4)
(-2.7281925e+08 -4734817 2215689.4)
(-2.7898638e+08 -4015101.2 2916881.7)
(-2.8078598e+08 -4595548.3 43052.63)
(-2.8486379e+08 -630083.51 -404922.44)
(-2.9052542e+08 -3748446.5 135706.79)
(-2.8785687e+08 -2345378 901792.18)
(-2.8074741e+08 -4518693.4 2619806.9)
(-2.7408568e+08 -5315920.5 2447988.4)
(-2.7571965e+08 -1403909.2 1302201.2)
(-2.6093308e+08 -1185607.4 1680099.9)
(-2.7115775e+08 1624395.6 3892581)
(-2.1635107e+08 396019.97 2432617.6)
(-2.6266296e+08 -1808772.8 -2591120.3)
(-2.7710228e+08 4209419.5 839116.5)
(-2.2994397e+08 3084739.6 4640643.2)
(-2.6838195e+08 -1026030.3 -2145070.7)
(-2.3451834e+08 -2925591.1 -161049.7)
(-2.4908538e+08 -2190433 -249707.58)
(-2.5227918e+08 -3278084 1035972.8)
(-2.4652848e+08 -3957425.9 26796.167)
(-3.9372683e+08 -38728920 -1987017.8)
(-4.088421e+08 -21847144 -1768015.4)
(-4.0952943e+08 -11483079 -1631502.1)
(-2.7047433e+08 -2957971.6 112547.77)
(-2.6956241e+08 -2424591.9 1306049.5)
(-2.9660883e+08 -2059306.1 1737464.4)
(-4.0265498e+08 -8595237.6 -1752833.2)
(-2.9031873e+08 -25330986 4644827.1)
(-2.9691649e+08 23639378 -6652740.8)
(-2.9566191e+08 -26040311 -5496192.7)
(-3.0252952e+08 22064982 3777339.4)
(-2.8871163e+08 -5584985.6 846170.48)
(-2.9900968e+08 -5575486.2 1509929.1)
(-2.9792811e+08 -1860602.3 1445420.5)
(-2.5745251e+08 -2492781.7 575852.85)
(-2.5210208e+08 -3221288.4 -676322.89)
(-2.5579081e+08 -2961701.1 -2162009.5)
(-2.6964628e+08 -2642097.2 -506355.68)
(-2.7627936e+08 -2304821.5 -500115.95)
(-2.6720748e+08 -2750552.9 -3890292.3)
(-3.9609715e+08 -26799150 -26941584)
(-4.0307166e+08 -23589189 -7941573.4)
(-4.0699983e+08 -16151803 -2290581.8)
(-4.0650705e+08 -10165855 -830949.65)
(-2.8406394e+08 -6283708.5 -1147921.2)
(-2.8744065e+08 -26097604 4717490.6)
(-3.9928622e+08 -7966132.7 -697939.37)
(-2.9242254e+08 21092892 -5998503.7)
(-2.931716e+08 22018909 3506303.4)
(-2.8559876e+08 -24750183 -5325841.5)
(-2.7347498e+08 -5172716.5 -917610.92)
(-2.7471611e+08 -1660686.1 -2208042.8)
(-2.918912e+08 -2478734.6 -1645838.2)
(-2.5907783e+08 -2403488.6 -2185801.8)
(-2.5663036e+08 -2570782.3 -3220887.8)
(-2.5394649e+08 -2232378.1 -3186864.8)
(-2.5389329e+08 -2334461.4 -3650931.8)
(-2.5003223e+08 -2338808.9 -4343473.6)
(-2.4746121e+08 -2773330.9 -3637635.9)
(-2.4509177e+08 -2898796.9 -3166209.3)
(-2.4771908e+08 -2400810.7 -4629772.6)
(-5.4538689e+08 -11090218 -17738653)
(-4.6839091e+08 -11489043 -57138129)
(-3.336514e+08 -14708562 42997239)
(-3.1717055e+08 3251994.2 -37691403)
(-3.1329459e+08 -10024808 -37369607)
(-3.3848487e+08 9988398.4 43352296)
(-4.1705444e+08 -15646156 -31509707)
(-3.1604361e+08 4976151 23720712)
(-3.1165395e+08 -10403764 25073484)
(-3.2711677e+08 5255312.2 -33286218)
(-3.2873001e+08 -8148790.1 -33406423)
(-3.1526242e+08 2803606 -11261982)
(-3.1810299e+08 4713063.4 -9110988.2)
(-3.1902535e+08 5808639 -5906689.4)
(-3.187719e+08 4544262.4 -6523950)
(-4.011603e+08 -19945275 -11751021)
(-2.9850636e+08 -12178683 20484029)
(-3.122662e+08 -9592699.8 -32213196)
(-3.0862544e+08 2329194.7 -30602733)
(-3.0431616e+08 281711.75 18895914)
(-2.9560186e+08 738154.69 -9235624.4)
(-3.0321652e+08 2387771 -2058709.6)
(-3.1826952e+08 3733672.2 -2846265.6)
(-3.1606083e+08 300573.94 -9963513.5)
(-2.7569954e+08 11499243 -2453082.2)
(-2.5127839e+08 5635160.4 -3438928)
(-2.5386733e+08 4730672.6 -1730534.2)
(-2.9238554e+08 8243029 -1809117.8)
(-3.9866423e+08 -18011487 -4912748.4)
(-2.9765473e+08 -14384027 24404985)
(-2.9655963e+08 -1652276.8 -25404069)
(-2.9236726e+08 -12945956 -27105525)
(-2.9389179e+08 -2879643 22643652)
(-2.8366766e+08 -5613458.9 -6191358.3)
(-2.8560177e+08 -2743300.2 -3740177.5)
(-2.9927982e+08 -3664968.8 -4102209.7)
(-2.8912001e+08 -6374397 -7345079.3)
(-2.8452061e+08 250782.65 -1898306.8)
(-2.7969208e+08 1827272.8 -1994602)
(-2.9641188e+08 5384701.1 -1596978.2)
(-2.8534546e+08 3003548.2 -2026299.9)
(-2.7044462e+08 7804082.7 -1919845.5)
(-2.6981495e+08 10494797 -1725249.8)
(-2.699635e+08 15228704 -2012741.4)
(-2.7599082e+08 12236509 -2253279.4)
(-3.9829306e+08 -13554170 -4098425.1)
(-2.9511828e+08 -14423752 24496899)
(-2.9284064e+08 -3311211.5 23692861)
(-2.8840949e+08 -13415086 -23234648)
(-2.9212751e+08 -3022209 -22483694)
(-2.8131418e+08 -8188616.5 -4370402)
(-2.8202881e+08 -6274500.6 -1624977.1)
(-2.8219576e+08 -5042648.2 -1838860.1)
(-2.7967402e+08 -7937826.9 -4465230.9)
(-2.5913356e+08 -2123678.7 -2067766.5)
(-2.5547224e+08 -308830.24 -2279338.3)
(-2.7209382e+08 338288.46 -2289408)
(-2.7002755e+08 -1811240.9 -2018299.6)
(-2.6138988e+08 1449531.1 -1557442.9)
(-2.6600943e+08 2941496.8 -1776443.8)
(-2.7990386e+08 5344583.5 -2065591.6)
(-2.7506667e+08 3266464.1 -1943012.2)
(-2.6977997e+08 -6326316.2 -1602686.9)
(-2.9300283e+08 -8366171.9 -1454983.4)
(-3.9690239e+08 -9559728.5 -4226605.1)
(-2.8841783e+08 -1418888 -22666257)
(-2.9151988e+08 -12940989 24041791)
(-3.0121091e+08 -654449.56 23248548)
(-2.9327282e+08 -10220231 -22938825)
(-2.8354408e+08 -4049140.1 -872189.68)
(-2.8326714e+08 -8079781.8 -4929680.4)
(-2.8414086e+08 -5067233.4 -4246972.1)
(-2.6827207e+08 -3451087.4 -2278438.4)
(-2.6306119e+08 -3813337.8 -2213427.5)
(-2.6399397e+08 -3205565.9 -1748610.9)
(-2.5807439e+08 -427697.55 -2012733.1)
(-2.7137895e+08 -1711137.4 -2417158.3)
(-2.5716062e+08 1679517 -2178495.3)
(-2.6684528e+08 -2449034.3 -2231669)
(-3.8843653e+08 -8269971.2 -3483386.1)
(-2.8231543e+08 -10974650 23881877)
(-2.8448037e+08 972890.35 24263311)
(-2.7953085e+08 -8153910.1 -26475175)
(-2.7565899e+08 2314334 -24118589)
(-2.742372e+08 -28838129 -5388134.2)
(-2.7523596e+08 -27944879 4125877)
(-2.8231348e+08 21741450 -8421884.5)
(-2.8284603e+08 23334355 2827421.9)
(-2.8138599e+08 -6515943.6 -4222936)
(-2.7055902e+08 -5699055 -5164837.4)
(-2.7528038e+08 -8090827.1 -1933136.5)
(-2.803276e+08 -7606746.7 -3251867.2)
(-2.7981035e+08 -4132658.1 -3940471.2)
(-2.7795596e+08 -5208789.8 -4327756.5)
(-2.8219308e+08 -5304391.1 -2934545.5)
(-2.8105436e+08 -5619229.4 -2472343.9)
(-2.8885463e+08 -3934407.8 -6462937)
(-2.8943598e+08 -2640750.7 -4507544.5)
(-2.5881501e+08 -7123585.5 -2535312.6)
(-2.543339e+08 -3129156.2 -3281923.6)
(-2.5561564e+08 -3250416.1 -3136898.6)
(-2.8795507e+08 -3024788.3 -7820751.4)
(-2.6084566e+08 -3044951.1 -5899640.2)
(-2.874167e+08 -7402465.2 -3041633.2)
(-2.7918818e+08 -6557745.7 -8734744)
(-2.5903062e+08 -3153486.8 -7219519.4)
(-2.7897103e+08 -6609250.4 -6694806.5)
(-2.6575383e+08 -7360358.7 -2739453.7)
(-2.7446185e+08 -6385900.4 -2694987.5)
(-2.5544975e+08 -4078721.4 -2358899.8)
(-2.5199337e+08 -755346.47 -2173459.3)
(-2.4831615e+08 -342039.76 -2066327.6)
(-2.6314998e+08 92201.341 -1836957.5)
(-2.8751842e+08 -1085338.1 -1867258.6)
(-2.872898e+08 -2797585.4 -2748884.8)
(-2.7469455e+08 -1971593.7 -2825590.4)
(-2.8730296e+08 -5432929.4 -3122249.4)
(-2.8593968e+08 -5946643.9 -5859755.1)
(-2.6078517e+08 -2490341.7 -2326307.1)
(-2.7983638e+08 -2932241.8 -4913175.8)
(-2.5547613e+08 -2612007.5 -2819951.3)
(-2.5094996e+08 -2819242.4 -2590118.1)
(-2.520877e+08 -2529266.9 -2002807.2)
(-2.5663759e+08 -2459903.9 -1440990.6)
(-3.1096028e+08 -2102309.7 -1828818.4)
(-2.8661212e+08 -1398828.9 -1646550.2)
(-2.6140935e+08 -2140380.1 133246.85)
(-2.6659873e+08 3333163.5 -1994032.5)
(-2.7123528e+08 -2942440.4 -3005438.9)
(-2.5692028e+08 -3457768.6 -2902061.8)
(-2.4890188e+08 -3231052.9 -3223908.7)
(-2.6748817e+08 -2788177.6 -3102595.9)
(-2.4678833e+08 -3302673.9 -3386930.4)
(-2.4067574e+08 -2939224.6 -3235703)
(-4.5208327e+08 -17811521 47137866)
(-3.3355381e+08 9734064 43799345)
(-3.0299375e+08 -9789642.3 -5540082)
(-3.9460926e+08 -34278317 15269215)
(-2.9489773e+08 -7793904.2 -6451861.2)
(-3.1458056e+08 -16227051 45457684)
(-4.0224224e+08 -21761755 3608525.9)
(-2.9985179e+08 -6730671.8 24485857)
(-2.966238e+08 -17937812 -25124416)
(-2.9286451e+08 -2660054.6 -24244061)
(-2.9351639e+08 -12286635 25349112)
(-2.8439259e+08 -3484080.2 6844037.2)
(-2.9873841e+08 -10956480 6543747.4)
(-3.1386112e+08 -7612921.8 3234829.9)
(-2.8861228e+08 251552.09 2116282)
(-2.9209859e+08 1451162.3 2318209.6)
(-3.0314236e+08 -6023462.3 1853278.3)
(-2.926367e+08 -1429820.7 2538946.3)
(-3.0226788e+08 -9565817.1 5156217.1)
(-2.9788255e+08 -2379629.4 23938574)
(-3.0195793e+08 -14280865 -25678249)
(-4.0344019e+08 -11588802 2502419)
(-2.8748194e+08 -10950353 24590620)
(-2.9164468e+08 -1085236.1 -25215297)
(-2.8406665e+08 -5866862.3 5771955.2)
(-2.9291749e+08 -2515821.2 1871635.5)
(-2.9806065e+08 78650.688 2409182.7)
(-2.787145e+08 1291372.9 706861.12)
(-2.6624892e+08 -1226042.1 1412641.7)
(-2.6687084e+08 -2854887.6 2506373.7)
(-2.9254824e+08 -5877621.8 1672237.5)
(-3.9377075e+08 -7513821.4 1586343)
(-2.7812231e+08 2556818.3 26027049)
(-2.8410857e+08 -11339184 -25903687)
(-2.8030779e+08 1414221.2 -27006392)
(-2.7402501e+08 -7282331.9 27755083)
(-2.8691739e+08 24549556 8304773.6)
(-2.8006799e+08 25529366 -2265648.9)
(-2.7335864e+08 -29048063 6979028.8)
(-2.7741299e+08 -27584203 -5827335.5)
(-2.8336846e+08 -5741912.8 5426073.8)
(-2.7148075e+08 -3947126.8 1698688.9)
(-2.7857206e+08 -2209329.2 1560283.7)
(-2.7315474e+08 -2515937.4 4542983.7)
(-2.7889539e+08 -4291259.3 4106763.4)
(-2.7514702e+08 -2478376.2 3904728.9)
(-2.7836931e+08 -4446920.5 3758135.2)
(-2.7980598e+08 -5384179.8 785996.11)
(-2.7720816e+08 -1440936 1932429.6)
(-2.6871791e+08 -4502730.5 3976524.1)
(-2.6337356e+08 -3709714.3 904415.05)
(-2.7120138e+08 -2749010 2373231.5)
(-2.7403549e+08 -2105945 -13430.742)
(-2.3015848e+08 -2295160.1 1022861.3)
(-2.728774e+08 2341362.9 -482229.98)
(-2.7218447e+08 -2000662.6 2882207)
(-2.503784e+08 -1734130.3 183323.65)
(-2.5899011e+08 -1629198.8 1997096.2)
(-2.4517339e+08 -1887715.3 1797194.5)
(-2.3746767e+08 -2504561.4 655142.17)
(-2.6737003e+08 -1533384.9 2058698.7)
(-2.6764619e+08 2354040.7 -1236731.6)
(-2.3362967e+08 2748081.8 1426898.4)
(-2.3791805e+08 203062.37 1959765.3)
(-2.106721e+08 -295277.65 -2732453.1)
(-2.4968781e+08 5436022.5 1665487.2)
(-2.6418849e+08 3697258.4 -4301701.3)
(-2.4043758e+08 3542828 2994820.3)
(-2.0227289e+08 -3034722.5 -2178977.2)
(-2.3561811e+08 -2939052 -96478.559)
(-2.5113606e+08 -2415912.2 -479504.9)
(-2.5087297e+08 -2846349.6 1041303.6)
(-2.4118373e+08 -3266563.6 177984.56)
(-3.8361071e+08 -29258103 -1615484.9)
(-3.9904658e+08 -25655508 -2605887.2)
(-4.0541877e+08 -17032089 -1557900.8)
(-4.0576661e+08 -10162227 -1603254.6)
(-2.6505294e+08 -2709806.9 196622.38)
(-2.6479282e+08 -2610742.1 1375993.6)
(-2.6873858e+08 -2573208.4 1536042.9)
(-3.9959615e+08 -8232230.6 -569326.41)
(-3.0181741e+08 21900578 -6940270.9)
(-2.943048e+08 -24633851 2892170)
(-2.9539097e+08 -26687110 -7312543)
(-2.977824e+08 20186815 3951881.7)
(-2.8752962e+08 -1856904 89881.849)
(-2.8802714e+08 -4998584.5 -1372764.3)
(-2.9833003e+08 -2460449.2 -227716.47)
(-2.986856e+08 -6003287.5 -2750232.8)