/*--------------------------------*- C++ -*----------------------------------*\
  =========                 |
  \\      /  F ield         | OpenFOAM: The Open Source CFD Toolbox
   \\    /   O peration     | Website:  https://openfoam.org
    \\  /    A nd           | Version:  7
     \\/     M anipulation  |
\*---------------------------------------------------------------------------*/
FoamFile
{
    version     2.0;
    format      ascii;
    class       volScalarField;
    location    "3000";
    object      omega;
}
// * * * * * * * * * * * * * * * * * * * * * * * * * * * * * * * * * * * * * //

dimensions      [0 0 -1 0 0 0 0];

internalField   nonuniform List<scalar> 
34251
(
2215.1922
4405.011
4051.4417
766.27141
4043.0275
749.96564
604.46349
785.72165
773.54601
1179.6784
9313.3389
1185.4452
9320.4388
7516.1681
7682.9227
1832.5813
1844.4558
7576.1581
7643.7382
1810.1722
1830.4157
672.72823
606.72883
613.14866
684.57929
1331.5025
1492.4758
1325.4098
1482.996
490.35713
495.52939
408.36608
412.78944
2017.7434
2013.0194
1999.6195
2011.7017
478.08021
477.89262
1948.4248
600.8378
607.33003
1956.2517
4510.6962
4496.0466
18776.016
18689.761
605.45521
602.03951
1972.9178
1966.4584
4550.3008
4542.3809
18693.781
18799.897
4284.5572
12967.783
4264.6318
13173.7
4377.985
13148.539
4381.0906
4232.4548
13298.543
4411.3277
13183.102
13044.616
4317.1009
4386.8484
1806.1506
1816.5878
1804.314
1796.0806
1324.7044
1341.4405
1490.738
1494.5263
492.64512
1492.8523
1334.0768
1352.3136
1513.5489
498.72201
1813.6245
1828.5999
1813.112
1805.3551
410.56158
413.80166
3015.7816
2986.0277
3266.8513
1094.2845
3341.4422
3971.2647
3858.297
4014.6452
3042.9965
2956.461
3365.5204
3251.4833
1090.0813
3939.1941
3851.4846
3995.6953
4123.6376
948.57304
937.01438
943.84807
1101.4624
3130.6333
3454.411
4542.6521
338.73563
623.74588
769.40783
762.74247
620.20474
342.50285
612.79441
763.45302
275.95341
277.01165
4793.9104
4913.0379
4909.1416
4947.8091
4824.6345
4897.0395
475.50209
474.70744
2104.9254
625.80729
630.49196
2111.3987
3518.4446
3500.1274
6712.2393
6661.2715
3521.0301
3478.522
6650.108
6693.2874
12930.619
32966.086
32816.667
12859.049
12951.785
12915.165
32832.138
631.11427
626.36582
2133.41
2124.8523
3564.8218
3528.1087
6730.1573
6772.2732
6784.0116
3537.0542
3543.571
6702.5415
12922.785
13017.528
32989.027
12925.619
13041.931
32991.966
32812.723
20865.044
21293.616
7955.792
7876.0108
21077.379
21480.47
8053.9514
8111.0281
7987.8898
21351.438
21398.072
8114.1115
21610.548
21669.787
8083.9661
8209.9247
21406.184
21387.475
8025.0953
7999.409
21167.281
21058.817
7910.2772
8044.0556
244.3552
5150.2761
4683.8041
5078.2361
4994.4338
4631.7997
4538.3256
4698.0917
4768.0594
4688.1003
4602.9121
4523.5832
4628.8036
3022.3663
2963.9485
3258.0388
3339.8987
1090.8686
3015.4125
3064.6488
3399.607
1101.0784
3937.6462
3866.0263
4024.1741
4123.3345
4008.7987
4197.3568
938.9519
955.02372
4164.8826
3940.511
4006.866
4130.0303
3067.3861
3343.713
3381.776
3016.3439
1092.0341
3048.3203
3008.5992
3295.5214
1116.5422
3345.601
3922.4774
4089.4318
3897.2362
4044.951
943.11252
964.19648
5088.756
5116.4928
4644.0757
4637.2619
4519.8463
4984.4563
4981.885
4544.6715
4523.0124
4614.4428
4631.0467
4558.4297
4650.8278
4695.5685
4749.8773
4639.0664
340.02926
630.67434
776.11939
766.27311
623.53923
343.0167
620.15016
766.79745
785.95441
636.49453
276.87014
277.87495
7002.5335
7205.6562
2605.102
6087.2236
5949.0342
6712.9914
7082.82
2587.5016
5990.6276
5725.0694
7794.5536
7880.4277
8200.494
8311.9595
2443.4464
2461.8529
8158.5316
8243.5058
8354.659
8494.654
9119.1936
9292.9087
8929.9009
9152.008
9015.405
8831.4683
9138.08
8987.0072
9549.6784
9153.7531
9676.9138
9302.1264
7022.399
7189.9032
2629.7427
6080.2368
5954.7086
6933.0197
7056.9713
2541.357
5947.4419
5880.7404
8195.5311
8284.8386
8340.2944
8481.1451
8094.7237
8184.5355
8200.9376
8331.7288
2400.7355
2469.5081
9067.7982
8876.9654
9309.9401
9164.3727
8646.8519
8468.0924
9087.326
8905.3649
9122.9994
8758.0724
9551.2726
9161.5329
9582.0628
9187.0049
9860.4455
9497.6352
1923.0613
1969.94
2128.3459
2110.8032
1939.7338
1887.2886
2059.7998
2130.1202
1929.2881
1964.3137
2161.0128
2138.7699
2687.265
2522.1476
2673.7742
2488.5469
1835.4857
7381.0012
6286.5642
7323.4939
7476.7728
6338.665
6261.4674
8497.142
8601.7078
8644.3346
9821.7325
9352.8285
8956.5432
9739.8393
523.15528
522.13455
408.83041
408.32242
960.30661
985.16184
1171.6356
1202.8007
1670.0131
1461.8291
1412.3527
1632.3154
1592.7481
1385.6767
1416.9398
1644.2065
956.27682
938.08027
1170.156
1143.1237
405.51382
516.35454
408.37496
926.41266
934.12339
1146.1363
1160.3288
1415.4663
1388.8373
1650.2709
1627.7935
1343.0672
1551.2094
348.60705
344.11786
8734.2038
8823.893
8920.547
8987.2269
8827.4891
8967.6083
8948.0685
9079.2475
8890.717
8839.6277
8746.772
8881.1904
456.01739
456.23563
2193.725
4070.1474
4002.5786
609.00235
615.22819
2200.5801
4042.9559
4049.9575
7385.1232
7313.8285
7308.0299
7361.54
12390.198
12453.964
18416.837
18326.861
28856.489
28419.899
48006.311
48085.588
28470.887
28929.892
47479.049
48125.76
18135.008
12478.379
12233.409
18449.643
12328.223
12577.234
18252.13
18558.981
12343.937
12421.069
18414.105
28632.458
28828.535
48119.673
47600.486
615.0818
610.22604
2222.8321
4061.3427
4118.1431
2210.5309
4078.54
4082.4527
7397.3261
7449.4697
7457.686
7362.637
12578.495
12310.986
18507.806
18507.36
18413.664
12569.304
12502.296
29094.515
28633.692
47940.368
48012.761
18428.252
18273.148
12442.423
12400.092
18363.536
18618.941
12669.201
12460.467
28812.534
29059.818
47614.589
48024.899
28898.586
28349.101
47843.814
47697.604
239.94119
37869.11
37171.907
11457.135
11521.722
38329.687
38841.546
11624.652
11642.979
38293.568
37303.435
11634.458
11719.37
38636.829
39081.868
11779.646
11804.601
38754.244
38295.056
11644.285
11712.217
38168.288
38877.419
11721.792
11732.865
39433.943
38734.579
11801.276
11898.779
38752.711
39350.696
11889.069
11906.436
38879.595
38452.154
11756.42
11788.02
38471.914
39071.181
11676.149
11686.768
38391.788
38075.689
11541.922
11595.724
37440.238
38055.054
11542.8
11584.197
245.0734
10042.881
9242.2797
10235.286
9433.2568
9598.2567
8619.5985
9759.3468
8779.2129
9748.5789
9971.2765
8994.6687
9203.5202
9934.4969
9853.4237
9146.9957
9106.9979
9351.1564
8418.7535
9528.5314
8585.1368
9519.919
9446.3632
8549.7432
8520.2392
10258.855
10447.062
9572.3169
9790.285
10101.734
10268.206
9651.0473
9859.9193
9980.7232
9754.436
9334.7621
9589.3734
9923.1397
9844.2523
9490.6748
9453.61
10114.144
10030.791
9444.8835
9405.8819
9930.8868
10165.925
9283.3223
9532.8705
6930.8494
7091.762
2613.6191
6006.3386
5887.3808
6999.4165
6994.9009
2546.5325
5903.7452
5949.1091
8172.0807
8260.5232
8121.8367
8254.2002
8080.6856
8166.9356
8217.279
8356.1364
2404.4296
2456.6671
7167.5826
2611.837
5795.9427
6071.7241
7232.5398
7313.5583
2644.2399
6151.1506
6179.8014
8422.8417
8474.8347
8500.7484
8618.0812
2477.754
2485.1127
8988.9336
9156.5407
8801.3383
9020.1432
9105.8727
8917.4798
9050.7552
8904.4391
9649.4217
9254.5363
9583.6558
9228.1785
9505.6042
9116.468
9706.8367
9360.7114
9437.8569
9293.0019
9994.4192
9449.0594
9634.99
945.50459
1940.3009
1895.3933
2064.4143
2123.7971
1987.9748
1949.1074
2147.4975
2139.8518
773.05585
629.29575
9830.2189
9421.5449
10011.292
9612.8574
9025.972
9323.3786
8852.9517
9179.1507
9300.8413
9112.7937
9492.8477
9325.8467
9573.5998
9874.9138
9190.0575
9511.3919
7199.7739
7381.5573
2635.0492
6232.308
6134.8216
8096.0478
8194.8861
8372.4895
8512.8358
8373.8242
8467.4622
8550.8154
8680.2557
6943.8569
7227.6754
2607.2433
5892.6289
6118.636
2444.2432
2481.581
6928.0624
6986.6891
2656.1716
5929.8154
5898.5617
6935.5732
7193.1235
2593.8794
6099.5422
5910.6142
8073.8543
8157.8524
8329.0235
8444.0078
2456.7845
2517.4459
8069.8179
8140.3901
8078.5892
8198.3978
8950.3294
8744.946
8961.2399
8805.2593
9433.0698
9027.0212
9449.1841
9092.6278
8973.915
8787.7989
9247.4289
9079.8503
9491.0038
9103.1702
9761.7823
9377.2648
1925.4184
1948.6052
2130.5342
2111.6917
1945.1942
2115.8967
2191.1428
2015.5746
9837.0012
10092.22
9073.8812
9304.4187
10010.816
9215.2377
10115.065
9319.5012
9431.5605
8497.3903
9624.7633
8672.8149
9573.1666
8600.7385
9647.1611
8682.893
9347.982
8406.4131
9465.4205
8518.0751
9573.9047
9599.6003
8818.8698
8866.1023
9744.3776
8984.1337
9916.0869
9138.4983
9163.8248
9171.9078
9923.0857
9272.8192
10136.531
9479.1975
9745.4841
9993.5661
9322.9318
9567.7962
9646.7408
9672.7524
9207.9484
9276.0067
9782.3585
9811.3185
9126.8078
9192.9189
10227.528
9541.5306
10356.845
9680.4168
9840.2119
10138.46
9415.7577
9724.5848
10071.205
9624.7563
10229.071
9789.6729
10019.626
10303.593
9369.2695
9655.7301
525.124
526.08868
410.9152
410.77843
1212.2905
985.63374
969.84437
1185.5318
1680.8414
1472.4943
1431.461
1654.7297
1602.6374
1395.3409
1426.8377
1650.4099
1150.4375
945.81278
965.44962
1182.8363
531.07387
521.68219
409.46506
413.22644
953.45245
957.51213
1176.0018
1171.7396
1430.1127
1648.6673
1635.3514
1413.9981
1497.8003
1435.147
1648.7278
1723.9661
1004.108
969.03222
1186.664
1238.549
350.26372
346.54246
20033.535
20055.355
18187.336
18347.341
18313.574
18500.428
20107.899
20118.401
5298.4894
5269.1055
5336.3658
5418.7544
19314.401
19300.079
18831.497
18907.052
17082.595
17317.548
18249.713
18471.871
20130.753
20167.591
5325.5139
5117.3864
5134.9444
5371.6017
19408.468
18194.927
17326.593
17574.875
16047.432
15756.725
16106.225
16365.151
14838.813
15092.096
17094.097
18526.113
16818.069
18728.897
15787.805
17188.031
17426.953
16070.746
4765.8567
4756.7931
4788.9868
4855.3375
4834.0929
4679.1662
4694.3533
4880.7663
16987.913
18475.007
16806.957
18615.207
15845.149
17205.076
17338.316
15995.324
17210.654
18627.108
16984.861
18782.447
16071.702
17408.908
17577.736
16280.317
16472.707
15500.424
15589.496
16546.504
16591.795
16422.839
15497.397
15691.591
15180.125
16024.857
15120.266
16064.868
16177.868
15348.432
16028.327
15161.495
15288.894
16162.821
15240.933
16212.838
15770.727
14903.714
14913.126
15761.911
15636.352
16363.383
15412.081
16573.051
15939.121
15049.81
16120.339
15262.224
14793.834
15433.1
14808.364
15393.737
14644.496
15391.826
15334.721
14620.637
15753.112
15134.062
15570.271
14927.042
14737.122
15502.5
15684.228
14944.906
20233.811
20250.356
18377.778
18524.711
18207.564
18405.466
19981.386
20000.909
5306.8005
5283.3907
5358.4569
5426.5089
19182.947
19456.325
19797.434
19822.019
17984.961
18139.413
18241.727
18466.214
20077.847
20116.035
5229.247
5201.4326
5245.2462
5306.4491
19292.867
19043.143
18696.091
18818.29
17001.752
17168.291
17532.379
16026.854
16158.75
17417.061
18529.359
18703.786
17140.998
16891.785
17309.118
17504.308
15972.652
16202.33
16812.599
18287.157
16643.11
18423.186
17052.588
15715.159
15832.608
17168.846
17151.091
18555.114
16875.222
18762.399
17289.164
15919.086
17518.918
16181.019
4730.6758
4699.2748
4713.7315
4782.5391
4811.4453
4766.1725
4802.1549
4888.9936
15446.301
16280.007
15337.475
16379.465
15851.033
14969.843
15052.787
15916.639
16686.552
15790.398
16533.504
15608.541
16150.868
15279.079
16287.795
15454.009
14532.295
15219.366
14340.835
15427.553
14798.069
14950.645
13984.61
14140.787
15465.404
16180.719
15201.912
16426.989
14754.638
15667.336
15904.178
15026.024
13989.793
14444.453
13859.443
14569.551
14372.888
14481.426
13694.45
13821.252
15470.798
14835.293
15217.283
14563.33
14328.089
15083.297
15341.313
14607.923
14915.092
15481.881
14844.253
15530.039
14654.456
15408.311
15452.143
14732.058
15959.71
15359.14
15817.328
15184.189
15011.404
15773.573
15923.069
15198.731
3626.2921
3682.5298
3783.8782
3800.6698
3775.8282
3741.4064
3829.0644
3914.026
4337.6311
4238.6194
4283.194
4420.3732
4315.4343
4242.0811
4207.3115
4327.5435
3697.6723
3668.6763
3848.0734
3795.0816
3614.591
3629.5173
3761.6224
3744.6977
4259.7313
4183.1242
4187.5758
4288.4656
4320.0346
4242.8556
4274.0459
4380.7367
3734.147
3757.0668
3907.3133
3896.9364
3847.7019
3828.5135
3972.8498
4006.98
4526.2078
4429.744
4459.4971
4572.478
4344.7578
4382.0678
4479.1708
4464.5139
5583.0742
5529.4214
5575.9633
5665.0064
5040.2573
4985.9394
5021.1216
5096.941
5581.2831
5537.4542
5500.1335
5602.6729
5018.9401
4959.2182
4916.8432
5007.0367
3515.8146
3492.7489
3623.8032
3667.6704
20953.332
20966.972
19062.946
19219.464
20185.156
20214.697
20268.075
18449.998
18643.289
18974.605
19192.46
20833.781
20865.122
20071.483
19488.124
17357.149
18740.461
17135.593
18928.965
17546.993
17728.475
16244.245
16430.015
17859.903
19282.669
17590.806
19477.933
14684.069
15184.007
14605.985
15241.832
13781.189
14176.725
13653.933
14289.446
14166.057
14286.189
13520.496
13663.053
14510.339
14817.701
14245.168
15083.94
807.42663
821.81443
602.56788
595.38905
836.86341
830.04895
608.59372
610.90725
483.12356
466.46722
1292.018
1262.5459
1551.0739
1567.3879
1358.3686
1366.0328
1678.6979
1647.4906
1902.1553
1905.2653
2156.7547
2157.5972
2003.4829
2057.1807
2303.7037
2264.0963
3353.4091
3230.8288
3207.3864
3380.1684
2847.8002
2662.9703
2613.2715
2824.7759
2488.8515
2510.8539
2712.5522
2697.9269
3270.1773
3103.5254
3061.8729
3240.5467
3225.4865
3077.4638
3042.6951
3223.0602
2685.1481
2482.1849
2450.7896
2668.145
2549.8159
2504.251
2705.7037
2761.6915
3258.4912
3095.0123
3134.5917
3310.0964
1297.9688
1255.8881
1543.524
1585.9579
1255.8557
1234.4244
1521.2152
1522.9024
1935.8775
1894.0001
2150.0971
2204.43
1851.9587
1871.3122
2130.63
2114.9367
467.95209
590.38791
801.79511
802.69247
588.85862
1235.9017
1219.5878
1505.1515
1525.4912
1256.3016
1256.3322
1571.2629
1552.0083
1873.2354
1861.9317
2135.8731
2155.3529
1909.2441
1940.0461
2218.516
2202.4802
2590.4932
2567.2407
2812.8327
2813.3466
2505.0596
2502.0644
2738.5039
2725.6704
3218.2033
3403.7535
3425.4782
3214.6939
3133.6449
3320.0719
3323.7387
3122.2054
2577.4579
2380.6226
2388.4216
2603.0033
2962.8889
2947.8825
3103.9266
3139.737
1790.3909
2042.9791
338.9183
330.84
12258.772
12344.442
12460.798
12451.895
12450.953
12571.694
12640.063
12635.664
12469.708
12553.629
12559.89
12530.414
12657.276
12781.952
12763.455
12742.107
12601.366
12651.493
12518.982
12502.605
12366.218
12438.002
12367.742
12376.411
430.44075
642.98403
636.53166
430.00619
634.51934
641.30432
385.94597
4028.2382
3952.9425
2180.9893
4630.4161
4713.744
4006.5795
3996.5242
2189.8398
4692.3437
4683.6059
2032.2377
6211.2625
6201.5556
10340.214
10413.708
15486.611
15863.84
6161.1262
6112.7822
10299.488
15595.229
10227.278
6141.5429
6120.4513
10222.05
10311.103
15375.365
15763.084
6207.3324
6164.6759
10364.667
10282.175
15636.961
15614.411
23267.959
18936.676
23400.646
19052.988
18842.479
18887.428
23082.535
23217.733
39322.978
27195.387
27349.33
39701.558
27194.708
26991.408
39122.649
39275.549
53935.039
63579.129
64114.802
54265.987
54315.15
63810.767
63793.223
54051.066
26766.713
27040.305
38522.543
39336.897
39762.944
27342.296
27213.281
39455.577
53364.935
62840.222
63707.615
53769.713
63949.245
64221.756
54128.508
54127.694
18584.742
18755.346
23089.172
22851.659
23383.841
19012.292
19083.42
23310.286
22992.591
18701.774
23216.264
18871.233
19117.109
19186.562
23497.886
23421.237
23298.211
18921.441
19047.201
23432.438
38976.07
26936.995
27185.108
39457.361
27337.727
27469.583
39299.088
39724.852
64143.721
54418.541
54256.23
63871.931
53496.001
63385.555
63878.002
53968.29
4078.75
4016.232
2209.6141
4706.1196
4765.8738
4035.0723
4030.5215
2193.4008
4720.7858
4709.9687
6232.1901
6197.0756
10435.425
10313.532
15880.018
6279.8129
6242.7221
10486.055
10403.664
15758.652
15773.446
6252.9054
6267.2509
10476.342
10462.284
15966.523
15648.547
6209.4277
6166.4666
10368.401
10282.169
15593.42
15655.481
19097.898
19165.489
23347.817
23424.118
19058.593
19166.816
23473.557
23357.981
18964.42
19002.615
23142.479
23285.782
27252.796
27383.813
39679.853
40172.371
27208.55
26985.585
39809.044
39325.371
54267.856
63572.895
64358.247
54484.577
63685.873
64150.564
54335.815
54166.873
18965.176
19067.654
23397.265
23294.172
18803.734
18837.192
22990.923
23143.382
18853.566
19005.466
23288.381
23086.944
19202.861
19263.282
23448.859
23533.264
26958.73
27190.006
39076.782
39806.565
27448.607
27311.53
40075.747
39706.154
53898.73
63122.58
63879.67
54059.713
64003.558
64163.633
54308.262
54177.43
27213.629
27326.977
39308.49
39783.769
27093.263
26858.667
39407.152
38911.583
53918.085
63487.058
64254.558
54030.99
63436.873
64013.28
53832.704
53634.283
330.71885
241.28735
40319.114
39657.188
40790.675
41350.192
40815.714
39819.535
41116.197
41717.338
41201.325
40821.786
40598.815
41430.886
41881.843
41180.928
41131.971
41875.699
41307.858
40902.532
40791.525
41478.334
40813.03
40504.815
39799.602
40544.387
13713.199
14405.974
13625.105
14509.58
13876.186
12974.354
13031.196
13931.299
13872.743
14588.224
13775.83
14685.085
14005.554
13084.928
14064.993
13164.789
12519.429
13186.616
12472.521
13225.127
12033.022
12698.205
12744.463
12131.412
13338.451
12626.8
13284.082
12561.642
12125.474
12780.09
12810.73
12153.445
13954.56
13226.02
13268.875
14007.546
14219.516
14065.468
13317.052
13463.025
13496.842
12641.632
12656.212
13501.003
13670.008
13555.342
12692.299
12814.053
14343.631
13576.526
13530.78
14284.877
14082.244
13327.353
13382.238
14132.849
12892.656
13851.079
12946.589
13764.605
12757.99
13582.362
12715.042
13599.735
12191.146
12869.074
12182.338
12860.933
11763.579
12414.287
12416.724
11820.697
12995.944
12310.614
12895.175
12209.016
11777.343
12417.789
12490.304
11834.945
13176.82
12457.137
12410.056
13097.563
12934.485
12245.335
12953.089
12284.455
11995.402
12016.348
12686.283
12634.033
12495.968
12484.691
11874.529
11896.936
14888.556
15442.606
14758.902
15551.782
15628.372
14948.755
15077.906
15750.227
15178.296
14179.363
15303.232
14300.595
14366.987
14486.367
15392.214
15473.905
15175.982
15678.041
15075.328
15753.629
15797.996
15210.224
15374.21
15934.529
15662.284
14925.123
15746.368
15045.077
15090.552
15247.376
15819.404
15946.82
15174.306
15369.143
14833.125
14618.622
15083.178
14507.062
14584.492
15133.511
15135.701
15082.669
14383.083
14468.366
14505.299
15197.359
15385.742
14717.034
15462.649
14873.987
14855.443
15407.408
15145.048
14577.955
14728.354
15277.138
15478.112
14750.123
14734.906
15423.021
15169.618
14477.448
14611.18
15281.368
15286.638
14608.466
14604.878
15241.602
15006.783
14363.394
14469.427
15102.595
15036.839
14073.454
14053.012
15014.75
14798.28
13839.333
13921.608
14860.296
14894.86
14239.287
14332.081
14963.808
15203.512
15015.349
14372.508
14562.096
14644.324
13700.908
13782.974
14726.638
14933.854
14782.952
13831.171
14012.132
19801.872
19818.799
18004.078
18157.385
17779.632
18021.655
19512.045
19554.707
5290.6542
5216.1952
5242.9219
5363.2581
18745.721
19033.136
19887.633
19896.915
18113.382
18253.808
17932.371
18164.568
19715.852
19753.701
5238.7227
5278.8447
5275.5338
5216.6611
18922.894
19071.712
18445.405
18555.838
16966.883
16811.168
17245.034
15904.498
16013.412
17341.618
16893.884
18253.27
16611.453
18463.442
17023.027
15680.107
17253.068
15942.191
18320.724
18445.761
16670.215
16845.895
17201.87
15718.731
15865.938
17077.559
18087.758
18317.617
16805.512
16496.421
16900.802
17163.116
15605.317
15898.75
4687.8727
4705.9583
4753.6191
4758.9676
4749.9902
4710.742
4747.0266
4824.921
2411.7632
18393.358
18660.59
20288.985
20347.195
5398.3779
5185.6479
5445.6174
5201.0774
19562.171
20754.57
20775.757
18841.524
19010.461
18575.14
18762.073
20399.284
20399.649
5421.6993
5462.3185
5505.5685
5422.4494
20003.134
19591.835
19129.921
17398.581
17586.65
19270.982
18886.706
17212.89
17441.547
19035.799
17803.297
16391.497
16548.431
17941.815
17800.417
17633.683
16274.013
16486.419
4844.9448
4881.0245
4936.6705
4919.6189
4905.0331
4746.9567
4756.985
4949.4277
16153.676
15208.914
15319.019
16249.097
16286.907
16045.372
15154.191
15414.122
14931.784
15722.669
14844.359
15787.735
15892.064
15087.28
15676.328
14846.039
15501.405
16371.186
15442.625
16417.546
15992.754
15118.193
15140.154
15992.384
15408.498
16120.297
15188.483
16325.645
15709.272
14844.525
15879.224
15042.836
15034.039
15668.882
15035.714
15638.859
14890.471
15642.245
15594.231
14876.78
15524.294
14926.136
15367.807
14746.821
14596.228
15328.941
15470.395
14765.914
15359.915
14725.36
14800.67
15409.425
14546.812
15294.697
15338.533
14624.919
15370.538
15577.389
14772.884
15000.911
14632.253
15549.134
14854.949
15350.559
16886.158
16736.069
15798.871
15981.119
16475.851
15470.416
15638.445
16347.838
16017.281
16143.936
15543.774
15381.453
15914.419
15130.709
15982.789
15228.705
15229.364
15987.325
16113.097
15396.837
1890.9818
2056.1467
2100.3858
1934.3321
3655.7677
3646.236
3803.3373
3765.5555
3616.6814
3636.7278
3746.291
3754.0331
4169.8522
4184.0714
4261.1153
4268.3461
4200.459
4273.5691
4324.4761
4217.3885
3892.4008
3810.3443
3848.7654
3979.2749
3694.8677
3760.8017
3890.4024
3853.5504
4406.9636
4303.7748
4342.7336
4486.448
4421.6716
4341.4608
4280.0995
4402.5397
528.70844
411.62515
1446.6286
1399.042
1604.3383
1659.8381
985.68865
953.64755
1155.4144
1204.8258
15243.108
15718.396
15093.798
15868.176
15666.525
14910.38
15047.819
15788.964
16223.51
15575.089
16135.172
15451.483
16029.378
15223.014
16114.428
15348.851
16234.268
15302.915
15422.57
16340.266
16685.231
16538.8
15607.059
15784.108
15055.351
15843.157
14971.785
15907.633
16270.664
15435.372
16147.067
15272.798
15772.781
16473.085
15553.117
16706.973
16067.715
15201.779
15387.216
16252.389
16172.68
17036.844
16032.775
17144.018
16556.817
15618.899
16642.752
15749.161
15506.073
14874.161
14942.052
15546.776
15809.394
15176.547
15929.391
15329.228
14704.345
14768.949
15459.74
15493.217
15882.675
15766.881
15008.197
15162.579
20184.916
20274.728
18364.423
18625.766
19089.282
19234.728
21006.971
20989.417
5463.6294
5417.1451
5490.2223
5563.6329
20207.577
19480.779
18323.128
18480.196
16687.423
16897.218
17266.779
15774.175
15945.053
17111.76
18633
18779.945
17225.348
16996.499
17424.909
17591.448
16080.541
16290.71
17301.521
18636.964
16992.586
18907.769
17382.707
16046.764
16323.874
17664.427
17804.546
19394.016
17630.929
19488.702
18038.076
16600.085
18150.045
16765.567
19791.558
19815.416
18005.781
18181.431
18296.015
18484.764
20063.532
20072.358
5381.9681
5194.0921
5238.3982
5455.202
19012.732
19261.54
4826.7084
4670.7434
4718.7148
4905.2291
4932.0401
4867.569
4927.0533
5006.2982
19913.25
19926.848
18047.95
18198.446
17644.984
17784.439
19399.312
19379.749
5278.6761
5278.8767
5289.4106
5327.6529
18621.191
19171.087
19531.85
19592.296
17743.627
17966.018
18393.938
18596.656
20232.733
20250.057
5270.4092
5246.0845
5400.0675
5454.327
19460.993
18829.423
18033.484
18251.907
16692.238
16426.142
16823.62
17048.461
15511.271
15742.898
17279.679
18709.938
17032.867
18881.472
16073.567
17451.374
17643.463
16306.808
4782.3629
4748.1874
4862.7178
4932.1734
4810.5064
4808.8648
4818.0098
4856.1002
16827.045
18355.299
16665.649
18472.995
15675.823
17063.332
17167.059
15799.353
16487.409
17952.112
16326.3
18043.968
15382.1
16711.826
16802.443
15513.337
15209.426
16099.62
15133.211
16164.291
15632.989
14735.108
14776.587
15654.777
15855.437
14959.445
15794.674
14870.618
15359.068
14503.085
15384.687
14567.484
14603.02
15233.142
14581.756
15228.352
14371.18
15132.146
15113.213
14389.235
15003.506
14417.418
14990.438
14369.481
14182.14
14908.955
14910.954
14228.723
15212.029
15940.934
15034.134
16122.286
15543.868
15676.291
14695.581
14840.176
15760.798
16521.509
15562.316
16699.215
15187.686
16088.909
16238.358
15372.414
14716.034
15207.624
14596.839
15314.205
14442.063
15164.77
15252.119
14552.898
15857.016
15230.911
15709.785
15057.32
14864.557
15636.601
15775.567
15036.21
3692.7842
3606.3092
3725.8396
3847.477
3765.3622
3740.822
3878.5856
3927.4729
4320.3938
4416.2986
4486.1637
4368.0023
4279.5679
4160.0103
4234.7851
4389.3692
3761.2623
3681.3661
3802.1013
3906.7908
4313.6228
4235.0324
4333.4066
4431.8167
4380.8785
4346.4186
4332.7858
4406.359
3915.1699
3806.7985
3800.9159
3928.5648
14095.524
13351.79
13384.672
14135.902
14436.838
14346.644
13556.132
13654.235
12758.331
13617.364
12753.328
13610.533
13847.474
12970.296
13783.343
12887.272
13552.787
14229.246
13494.584
14303.631
13759.428
12879.113
12915.222
13785.162
13677.753
14412.293
13619.376
14465.613
13856.87
12957.114
13879.839
13008.591
12979.293
12289.54
12290.896
12961.301
11877.599
12521.144
12525.386
11934.331
13086.178
13144.751
12381.563
12450.39
11957.268
12632.792
11986.185
12598.883
12428.252
13099.54
12397.528
13118.224
11909.917
12609.251
12638.893
11996.843
13192.662
12500.282
13164.924
12455.171
12033.953
12679.983
12698.011
12065.359
12162.368
12850.609
12170.329
12824.305
12399.904
11719.839
11768.548
12384.412
12991.301
12309.229
12947.749
12253.144
12490.146
11860.517
12512.313
11889.383
13688.638
12977.06
12955.682
13664.021
13528.969
13518.425
12808.413
12841.696
12373.214
13249.954
12409.695
13187.77
13053.793
12265.995
13050.385
12230.651
13217.417
13907.377
13194.254
13938.745
13469.07
12618.113
12618.626
13453.172
13463.084
14171.25
13387.899
14237.524
13624.169
12739.987
13666.835
12808.769
12639.53
11962.477
11927.556
12577.787
12439.171
11780.822
12452.793
11814.533
14251.557
14799.527
14156.919
14882.301
14558.108
13647.65
13720.147
14643.307
14618.141
15181.68
14516.074
15289.625
14945.11
13957.419
14998.265
14040.396
14978.941
14421.452
14527.11
15064.99
15408.217
14813.869
14970.917
15548.947
14989.781
14294.661
14400.674
15074.499
15394.243
14664.224
14809.917
15517.829
14888.213
14302.576
14317.988
14874.505
14694.438
14687.61
14126.749
14167.122
14852.483
14140.045
14157.599
14837.349
14664.709
14665.546
13980.196
14018.325
14631.05
13975.806
13997.056
14622.557
14455.438
14458.134
13820.375
13840.114
13437.208
13451.333
14364.29
14361.747
14166.937
14194.734
13289.803
13325.959
14660.857
15201.689
14530.726
15326.543
14917.37
13975.297
14084.067
15045.733
15557.586
14886.441
15473.347
14787.5
15209.181
14197.263
15265.351
14277.067
15250.947
14668.285
14736.389
15288.573
15561.825
14976.719
15123.363
15683.574
14609.612
15248.831
14536.122
15293.683
14982.458
15565.111
14841.051
15677.273
14998.398
15444.274
14862.614
15563.535
15428.681
14706.191
14844.486
15551.71
15253.933
15759.335
15136.908
15851.548
15712.664
14961.282
15795.288
15079.635
15056.263
14397.362
14480.043
15110.799
15367.838
14700.488
15472.187
14819.161
13855.578
13921.485
14812.072
14883.794
15200.636
15125.365
14128.329
14239.718
616.18144
840.38772
837.12952
613.51576
814.25633
829.91204
606.79996
599.22344
487.78312
470.57265
2364.7364
2120.5275
2315.7792
2044.4606
1717.2116
1378.9405
1354.0376
1668.9799
1592.1503
1284.257
1292.2597
1593.4084
1941.7667
1960.914
2212.6066
2205.1077
3420.7632
3301.6944
3449.099
3285.5986
2912.9817
2734.9717
2897.3649
2683.2823
2543.5176
2577.8707
2783.1102
2756.9597
3124.9143
3180.1817
3344.5707
3306.6238
3237.0967
3092.624
3070.6701
3237.8003
2704.5546
2512.876
2494.542
2703.7133
2554.2555
2519.2752
2712.9401
2755.8118
3248.536
3094.6998
3114.0455
3282.5781
2161.809
1918.0565
1902.4994
2162.3516
1560.3419
1281.2692
1274.4603
1557.7114
1313.0404
1270.9324
1563.8414
1606.8553
2170.8019
1918.7771
1956.6691
2218.852
831.54086
855.38798
617.44409
606.84394
819.01335
822.94675
600.91211
599.86785
472.96155
478.45288
1265.9386
1268.642
1574.125
1537.5232
1275.8772
1279.3191
1595.9447
1581.9817
1937.6547
1963.9369
2224.7776
2214.1251
1881.0518
2131.7539
2204.502
1931.1011
2564.4076
2580.8424
2780.7259
2786.4221
3171.2
3167.1003
3336.6679
3361.4734
3205.789
3057.133
3125.273
3302.6032
2677.1141
2475.5002
2544.9923
2755.0718
2735.5587
2701.1081
2886.2485
2926.5938
2613.5006
2559.3683
2749.5625
2824.99
3284.4248
3128.1653
3202.4773
3372.0393
3287.9496
3273.0129
3408.7458
3432.6466
1416.5348
1363.2899
1685.3278
1741.1071
1294.1625
1279.9897
1579.9525
1612.8787
1946.0634
2207.4651
2262.8362
1981.8469
2118.8873
2074.8701
2332.3579
2384.9509
342.31977
336.58258
26822.276
27121.91
26994.226
27252.078
27477.456
27447.441
27311.459
27290.736
17917.749
16983.611
16814.996
17829.54
28797.422
29224.131
35505.031
35077.366
28753.433
28152.583
34253.951
34928.673
24883.999
25420.121
25079.467
25587.932
27088.875
27310.129
26939.845
27190.123
17122.023
16208.977
17000.282
18041.678
28635.138
28430.104
34485.767
34816.41
30867.792
25287.413
26424.814
32250.449
25580.255
26079.86
26624.302
26137.361
26729.379
27210.84
27317.579
27795.297
28355.598
27652.77
28266.011
27805.666
29524.018
28908.983
28976.251
29600.472
14889.893
15184.488
16088.859
15852.441
15357.888
14710.186
15465.21
16246.999
28268.505
27521.677
28121.894
27727.269
29427.011
28774.644
28894.24
29534.976
28549.248
28058.22
28706.026
27967.843
30108.223
29408.643
29210.006
29885.286
30494.753
31195.002
31308.101
30601.902
30328.388
30609.048
31345.727
31062.998
32773.299
31938.53
32655.449
32050.396
31845.399
32608.731
32120.008
32868.443
30562.83
29837.52
30548.992
29876.7
31299.545
32030.852
32017.564
31295.875
31343.78
30568.024
31291.435
30606.316
32050.598
32778.022
32117.349
32870.657
33468.741
32776.958
33508.918
32749.919
34965.433
34261.567
34206.251
34897.821
33633.814
34376.517
33512.923
34228.649
35640.893
34964.45
35138.789
35841.886
27063.118
27376.611
27275.09
27544.582
27234.868
27187.937
27020.311
26997.452
18042.693
17083.474
16768.37
17743.262
28233.005
28470.707
34706.763
34435.031
28908.883
28346.531
34480.062
35138.73
26462.305
26755.673
26687.203
26928.557
27272.148
27436.164
27088.851
27265.286
17678.14
16755.258
16829.866
17828.395
28762.231
28636.932
34861.24
35044.018
28074.388
27490.784
33534.853
34212.318
27834.027
28047.811
28462.349
28625.786
29267.053
29800.643
29914.619
29136.427
27831.783
27716.008
28309.142
28490.44
29191.383
28960.294
29883.681
29620.187
27961.835
27222.877
27828.068
27413.135
28483.608
29141.429
29208.359
28583.358
28561.24
27853.297
28495.063
27969.151
29180.737
29859.41
29222.943
29890.415
15875.341
14987.337
14926.218
15880.292
14926.142
15230.678
16162.883
15847.642
30923.397
30114.903
30813.382
30221.206
31546.114
32254.673
32385.957
31667.045
30614.897
31368.087
30845.53
31590.365
32369.061
33116.779
32165.078
32937.183
29021.75
27930.223