/*--------------------------------*- C++ -*----------------------------------*\
  =========                 |
  \\      /  F ield         | OpenFOAM: The Open Source CFD Toolbox
   \\    /   O peration     | Website:  https://openfoam.org
    \\  /    A nd           | Version:  7
     \\/     M anipulation  |
\*---------------------------------------------------------------------------*/
FoamFile
{
    version     2.0;
    format      ascii;
    class       volScalarField;
    location    "3000";
    object      p;
}
// * * * * * * * * * * * * * * * * * * * * * * * * * * * * * * * * * * * * * //

dimensions      [0 2 -2 0 0 0 0];

internalField   nonuniform List<scalar> 
34251
(
-3.2906131e+40
-3.3351157e+40
-3.1969252e+40
-3.142095e+40
-3.2154603e+40
-3.1587152e+40
-2.804777e+40
-3.030262e+40
-3.047907e+40
-3.2265247e+40
-3.2219644e+40
-3.2460768e+40
-3.2420629e+40
-3.1442204e+40
-3.1546186e+40
-3.1129738e+40
-3.1033125e+40
-3.1723771e+40
-3.1636857e+40
-3.1298291e+40
-3.1217855e+40
-2.9424954e+40
-2.8349205e+40
-2.8194897e+40
-2.9254824e+40
-2.8119203e+40
-2.8508522e+40
-2.8036785e+40
-2.8589511e+40
-2.7056019e+40
-2.6904608e+40
-2.5978933e+40
-2.5844598e+40
-3.0348473e+40
-3.0438284e+40
-3.0609634e+40
-3.0522264e+40
-3.2332434e+40
-3.2159079e+40
-3.1718023e+40
-3.1568478e+40
-3.146396e+40
-3.1609685e+40
-3.1693416e+40
-3.1801233e+40
-3.1744812e+40
-3.1637807e+40
-3.1662951e+40
-3.1756576e+40
-3.1911887e+40
-3.1816177e+40
-3.1996109e+40
-3.1901417e+40
-3.1933679e+40
-3.1841437e+40
-3.0853386e+40
-3.1193945e+40
-3.0900367e+40
-3.129005e+40
-3.0994433e+40
-3.1241713e+40
-3.0947796e+40
-3.1163367e+40
-3.1426056e+40
-3.1125449e+40
-3.1383505e+40
-3.1334407e+40
-3.1082945e+40
-3.1036238e+40
-2.9997155e+40
-2.9909501e+40
-2.9385873e+40
-2.9301733e+40
-2.8326978e+40
-2.8405395e+40
-2.8810614e+40
-2.8890045e+40
-2.733345e+40
-2.8739158e+40
-2.8259742e+40
-2.8184187e+40
-2.8658421e+40
-2.7190674e+40
-2.9826118e+40
-2.9742623e+40
-2.914253e+40
-2.922223e+40
-2.6229723e+40
-2.6100423e+40
-2.8133249e+40
-2.8173737e+40
-2.8380317e+40
-2.7660363e+40
-2.833966e+40
-2.847497e+40
-2.8510106e+40
-2.8745022e+40
-2.8064095e+40
-2.8096711e+40
-2.8269521e+40
-2.8303807e+40
-2.7578494e+40
-2.8545839e+40
-2.8587682e+40
-2.8829185e+40
-2.8784367e+40
-2.715654e+40
-2.707982e+40
-2.7009404e+40
-2.7504389e+40
-2.8034326e+40
-2.823932e+40
-2.9070264e+40
-2.4957248e+40
-2.6058716e+40
-2.6653233e+40
-2.6578475e+40
-2.5976981e+40
-2.4840222e+40
-2.5903603e+40
-2.650864e+40
-2.3789964e+40
-2.3698402e+40
-3.0477826e+40
-3.0565445e+40
-3.0518457e+40
-3.0689296e+40
-3.0648839e+40
-3.060434e+40
-3.122968e+40
-3.105538e+40
-3.1172607e+40
-3.1010805e+40
-3.0911245e+40
-3.1071096e+40
-3.1296248e+40
-3.1350562e+40
-3.1424029e+40
-3.1368954e+40
-3.1402496e+40
-3.1451012e+40
-3.1525092e+40
-3.1474698e+40
-3.1487195e+40
-3.1403377e+40
-3.1452769e+40
-3.1537249e+40
-3.1436281e+40
-3.1382052e+40
-3.1353795e+40
-3.1097616e+40
-3.1193516e+40
-3.1361591e+40
-3.1267352e+40
-3.1598691e+40
-3.1642115e+40
-3.1714498e+40
-3.1670991e+40
-3.1625656e+40
-3.1552059e+40
-3.1499571e+40
-3.1573229e+40
-3.1723706e+40
-3.168113e+40
-3.1593384e+40
-3.1585222e+40
-3.1636203e+40
-3.15492e+40
-3.149942e+40
-3.1032437e+40
-3.1009424e+40
-3.0815484e+40
-3.0837887e+40
-3.1126939e+40
-3.1104238e+40
-3.0930527e+40
-3.0907852e+40
-3.0883925e+40
-3.1080926e+40
-3.1054831e+40
-3.0859287e+40
-3.126265e+40
-3.1239655e+40
-3.1060359e+40
-3.1038567e+40
-3.1219415e+40
-3.1196644e+40
-3.1019037e+40
-3.0996208e+40
-3.117318e+40
-3.1148078e+40
-3.0972702e+40
-3.0949605e+40
-2.2440102e+40
-2.993014e+40
-3.0305701e+40
-2.9845743e+40
-2.9889793e+40
-3.0221343e+40
-3.0264909e+40
-2.9626892e+40
-2.9337214e+40
-2.925711e+40
-2.9298559e+40
-2.9586856e+40
-2.9543011e+40
-2.8342506e+40
-2.8375268e+40
-2.8589684e+40
-2.8554037e+40
-2.7860253e+40
-2.8448591e+40
-2.8410471e+40
-2.8625257e+40
-2.7935842e+40
-2.8766674e+40
-2.8803175e+40
-2.9050455e+40
-2.9011907e+40
-2.8839323e+40
-2.9087801e+40
-2.7350886e+40
-2.742153e+40
-2.8976881e+40
-2.8693694e+40
-2.8734272e+40
-2.8934087e+40
-2.8313953e+40
-2.8484776e+40
-2.8523504e+40
-2.8274028e+40
-2.7794689e+40
-2.8203764e+40
-2.8238732e+40
-2.8448176e+40
-2.7724453e+40
-2.8411919e+40
-2.8620959e+40
-2.886316e+40
-2.8657017e+40
-2.8898653e+40
-2.7284454e+40
-2.7220344e+40
-2.9764087e+40
-2.9807259e+40
-3.0138779e+40
-3.0183288e+40
-3.0100646e+40
-2.9687312e+40
-2.9727523e+40
-3.0059082e+40
-2.9427162e+40
-2.9141647e+40
-2.9105556e+40
-2.938834e+40
-2.950436e+40
-2.9176172e+40
-2.9218597e+40
-2.9462411e+40
-2.5180968e+40
-2.6298455e+40
-2.690819e+40
-2.6841079e+40
-2.622677e+40
-2.5065468e+40
-2.6165342e+40
-2.6775567e+40
-2.6715393e+40
-2.6114504e+40
-2.3979191e+40
-2.3884273e+40
-2.8242321e+40
-2.8223253e+40
-2.7936196e+40
-2.8124606e+40
-2.814386e+40
-2.828225e+40
-2.8261659e+40
-2.7977802e+40
-2.8162847e+40
-2.8183263e+40
-2.8379802e+40
-2.8485813e+40
-2.8359033e+40
-2.8464365e+40
-2.7731564e+40
-2.7773863e+40
-2.8339175e+40
-2.8444397e+40
-2.8320556e+40
-2.8425801e+40
-2.8477622e+40
-2.8461972e+40
-2.8585535e+40
-2.8568366e+40
-2.8513258e+40
-2.8621801e+40
-2.8494099e+40
-2.8602405e+40
-2.873222e+40
-2.8853017e+40
-2.871187e+40
-2.8830826e+40
-2.81741e+40
-2.8160862e+40
-2.7865224e+40
-2.80634e+40
-2.8075952e+40
-2.8206695e+40
-2.8188892e+40
-2.7897867e+40
-2.8090122e+40
-2.8108099e+40
-2.8270193e+40
-2.8374284e+40
-2.8256622e+40
-2.8359886e+40
-2.8303792e+40
-2.8409381e+40
-2.8285818e+40
-2.8390395e+40
-2.7690687e+40
-2.7658393e+40
-2.8548663e+40
-2.8659517e+40
-2.8529561e+40
-2.8639078e+40
-2.85903e+40
-2.8701662e+40
-2.8568806e+40
-2.8680049e+40
-2.8815649e+40
-2.8940113e+40
-2.8793422e+40
-2.8917082e+40
-2.8772238e+40
-2.8895089e+40
-2.875095e+40
-2.8872884e+40
-2.7330641e+40
-2.7378942e+40
-2.7579266e+40
-2.7535228e+40
-2.7256545e+40
-2.7291391e+40
-2.749435e+40
-2.746178e+40
-2.7181454e+40
-2.7224678e+40
-2.7432145e+40
-2.7388036e+40
-2.7834834e+40
-2.7626656e+40
-2.7786061e+40
-2.7580154e+40
-2.7146062e+40
-2.8107381e+40
-2.8009325e+40
-2.8148365e+40
-2.8128653e+40
-2.8030888e+40
-2.8051677e+40
-2.8243044e+40
-2.8346063e+40
-2.8223622e+40
-2.9015747e+40
-2.9061499e+40
-2.9193266e+40
-2.9038246e+40
-2.5336786e+40
-2.5419225e+40
-2.4589191e+40
-2.45067e+40
-2.6243405e+40
-2.6298247e+40
-2.6595296e+40
-2.6643475e+40
-2.7159683e+40
-2.6906883e+40
-2.6859688e+40
-2.711132e+40
-2.707383e+40
-2.6820655e+40
-2.6780989e+40
-2.7034479e+40
-2.6159362e+40
-2.6198383e+40
-2.651135e+40
-2.6553016e+40
-2.4454252e+40
-2.5270192e+40
-2.4437078e+40
-2.6072419e+40
-2.6117163e+40
-2.6434331e+40
-2.6475639e+40
-2.6748016e+40
-2.6706351e+40
-2.7002682e+40
-2.6960103e+40
-2.6679168e+40
-2.6928032e+40
-2.3504283e+40
-2.3419855e+40
-3.0572917e+40
-3.0550754e+40
-3.0661209e+40
-3.0636747e+40
-3.0614444e+40
-3.0592049e+40
-3.0784859e+40
-3.0764652e+40
-3.0746575e+40
-3.0722194e+40
-3.0700697e+40
-3.0679638e+40
-3.0084531e+40
-2.9921391e+40
-3.0621253e+40
-3.1135889e+40
-3.1185135e+40
-3.0476707e+40
-3.038227e+40
-3.0525344e+40
-3.1087416e+40
-3.1034592e+40
-3.1185996e+40
-3.1133559e+40
-3.1284966e+40
-3.1235138e+40
-3.134018e+40
-3.1313945e+40
-3.1354218e+40
-3.1327602e+40
-3.1314904e+40
-3.1287791e+40
-3.1215325e+40
-3.1188691e+40
-3.1362629e+40
-3.1338908e+40
-3.126204e+40
-3.1238917e+40
-3.1402464e+40
-3.1365303e+40
-3.1388827e+40
-3.1378348e+40
-3.1289629e+40
-3.1264971e+40
-3.1303368e+40
-3.1278357e+40
-3.123838e+40
-3.1211491e+40
-3.1253023e+40
-3.1264089e+40
-3.1239552e+40
-3.1142062e+40
-3.1165483e+40
-3.0561857e+40
-3.0651722e+40
-3.0805683e+40
-3.1374348e+40
-3.1329487e+40
-3.0713406e+40
-3.1232172e+40
-3.1284406e+40
-3.1473751e+40
-3.1430176e+40
-3.1384594e+40
-3.1333453e+40
-3.1554623e+40
-3.1573942e+40
-3.1565353e+40
-3.1545076e+40
-3.1521757e+40
-3.1509991e+40
-3.1533227e+40
-3.1504367e+40
-3.148043e+40
-3.1401895e+40
-3.1378154e+40
-3.1451916e+40
-3.142576e+40
-3.1412509e+40
-3.1438659e+40
-3.1499775e+40
-3.1476106e+40
-3.1464202e+40
-3.14876e+40
-3.1458868e+40
-3.1435468e+40
-3.1356917e+40
-3.1334095e+40
-3.1411618e+40
-3.1385152e+40
-3.1310193e+40
-3.1284205e+40
-2.2333904e+40
-3.0872788e+40
-3.0884173e+40
-3.0790789e+40
-3.0779303e+40
-3.0850635e+40
-3.0862217e+40
-3.0768234e+40
-3.0757327e+40
-3.0964967e+40
-3.0975799e+40
-3.0882133e+40
-3.0870982e+40
-3.0940997e+40
-3.0954243e+40
-3.0859454e+40
-3.084692e+40
-3.0918256e+40
-3.0930078e+40
-3.0835822e+40
-3.0823497e+40
-3.0893951e+40
-3.0906692e+40
-3.0811506e+40
-3.0800092e+40
-3.1096573e+40
-3.1106626e+40
-3.101074e+40
-3.0999995e+40
-3.107479e+40
-3.1086418e+40
-3.0989413e+40
-3.097913e+40
-3.105492e+40
-3.1065376e+40
-3.0970631e+40
-3.0959795e+40
-3.1031092e+40
-3.1043942e+40
-3.0947913e+40
-3.0935454e+40
-3.1009667e+40
-3.1020464e+40
-3.092472e+40
-3.0913245e+40
-3.0985824e+40
-3.0998608e+40
-3.0901969e+40
-3.0890913e+40
-2.2591243e+40
-2.9912028e+40
-3.0097119e+40
-2.9894493e+40
-3.0078166e+40
-3.0292941e+40
-3.0535216e+40
-3.0273781e+40
-3.0515594e+40
-2.9833046e+40
-2.9811544e+40
-3.0017797e+40
-2.9995581e+40
-2.9877077e+40
-2.9854411e+40
-3.0060934e+40
-3.003907e+40
-3.0212934e+40
-3.04533e+40
-3.0191629e+40
-3.0432617e+40
-3.0256375e+40
-3.0234032e+40
-3.0497931e+40
-3.0474595e+40
-2.9596591e+40
-2.9579013e+40
-2.9753634e+40
-2.9736345e+40
-2.9323639e+40
-2.9305543e+40
-2.9459077e+40
-2.9440941e+40
-2.9225786e+40
-2.9246473e+40
-2.9380948e+40
-2.9359424e+40
-2.9288022e+40
-2.9266515e+40
-2.9423114e+40
-2.9401443e+40
-2.9560763e+40
-2.9538346e+40
-2.9718722e+40
-2.969578e+40
-2.9517483e+40
-2.949631e+40
-2.9674514e+40
-2.9653317e+40
-2.8450648e+40
-2.8435946e+40
-2.8140765e+40
-2.8335191e+40
-2.8348394e+40
-2.8485305e+40
-2.8466469e+40
-2.8170065e+40
-2.8363962e+40
-2.8382118e+40
-2.8586236e+40
-2.869571e+40
-2.8566962e+40
-2.8675742e+40
-2.855065e+40
-2.8658818e+40
-2.8535408e+40
-2.8643026e+40
-2.7956577e+40
-2.7930832e+40
-2.8536465e+40
-2.8245139e+40
-2.8449275e+40
-2.8431614e+40
-2.8518983e+40
-2.8501254e+40
-2.8206057e+40
-2.8414468e+40
-2.8398206e+40
-2.8620842e+40
-2.8602599e+40
-2.8730277e+40
-2.871231e+40
-2.7993825e+40
-2.8033119e+40
-2.8766111e+40
-2.8749581e+40
-2.8880179e+40
-2.8862269e+40
-2.8803488e+40
-2.8918124e+40
-2.8783488e+40
-2.8898057e+40
-2.9034992e+40
-2.916278e+40
-2.9014463e+40
-2.9141554e+40
-2.8995972e+40
-2.9122213e+40
-2.8977427e+40
-2.9102479e+40
-2.8820323e+40
-2.893506e+40
-2.9052094e+40
-2.9197856e+40
-2.9180014e+40
-2.7481083e+40
-2.7520858e+40
-2.7545358e+40
-2.7754735e+40
-2.7729659e+40
-2.7627426e+40
-2.758177e+40
-2.7832777e+40
-2.779166e+40
-2.6961027e+40
-2.6342988e+40
-2.8960357e+40
-2.9084182e+40
-2.8938803e+40
-2.9062253e+40
-2.8694678e+40
-2.8676002e+40
-2.8805522e+40
-2.8786772e+40
-2.873439e+40
-2.884617e+40
-2.8714157e+40
-2.8825442e+40
-2.8918507e+40
-2.8900086e+40
-2.9042327e+40
-2.9024265e+40
-2.8422409e+40
-2.8404063e+40
-2.811377e+40
-2.8303428e+40
-2.8322729e+40
-2.8484905e+40
-2.8590039e+40
-2.8465845e+40
-2.8571579e+40
-2.8520809e+40
-2.8628213e+40
-2.8502646e+40
-2.8608601e+40
-2.8385716e+40
-2.8366223e+40
-2.8074009e+40
-2.8284654e+40
-2.8265653e+40
-2.7866426e+40
-2.7905595e+40
-2.8312802e+40
-2.8297313e+40
-2.8006337e+40
-2.8197863e+40
-2.8213012e+40
-2.8348606e+40
-2.8329229e+40
-2.8039712e+40
-2.8229233e+40
-2.8248737e+40
-2.8447271e+40
-2.8554156e+40
-2.8427702e+40
-2.8534055e+40
-2.7834904e+40
-2.7803898e+40
-2.8410813e+40
-2.8517086e+40
-2.8395487e+40
-2.8501535e+40
-2.862256e+40
-2.8734828e+40
-2.8606417e+40
-2.871796e+40
-2.8849073e+40
-2.8973651e+40
-2.8832214e+40
-2.8956765e+40
-2.8659231e+40
-2.877076e+40
-2.8639536e+40
-2.8751706e+40
-2.8884585e+40
-2.9009236e+40
-2.8865862e+40
-2.8990573e+40
-2.7462715e+40
-2.7495064e+40
-2.7705168e+40
-2.7668171e+40
-2.7433657e+40
-2.763885e+40
-2.7610714e+40
-2.7406997e+40
-2.975125e+40
-2.9732221e+40
-2.9935929e+40
-2.9915552e+40
-2.9792908e+40
-2.9976879e+40
-2.977089e+40
-2.9955636e+40
-3.0130714e+40
-3.0369596e+40
-3.0110572e+40
-3.0348481e+40
-3.0173e+40
-3.0414426e+40
-3.0150806e+40
-3.0390855e+40
-3.0093109e+40
-3.0330274e+40
-3.0072908e+40
-3.0309459e+40
-2.967719e+40
-2.9656765e+40
-2.9860355e+40
-2.9839214e+40
-2.971568e+40
-2.9898282e+40
-2.9695881e+40
-2.9878998e+40
-3.0053897e+40
-3.0033252e+40
-2.9402358e+40
-2.9558815e+40
-2.9383394e+40
-2.9539235e+40
-2.9131809e+40
-2.9113316e+40
-2.9265449e+40
-2.9247089e+40
-2.9096159e+40
-2.9078724e+40
-2.922958e+40
-2.9210983e+40
-2.9365252e+40
-2.9346164e+40
-2.9520757e+40
-2.950102e+40
-2.9477546e+40
-2.9634847e+40
-2.945534e+40
-2.9612681e+40
-2.9164946e+40
-2.9147035e+40
-2.9299001e+40
-2.9280762e+40
-2.9206301e+40
-2.9340037e+40
-2.9184259e+40
-2.9318163e+40
-2.9435986e+40
-2.9417944e+40
-2.9593144e+40
-2.9574779e+40
-2.5644759e+40
-2.5569368e+40
-2.4792725e+40
-2.4712036e+40
-2.689293e+40
-2.6529115e+40
-2.6481355e+40
-2.6845125e+40
-2.7407742e+40
-2.7160711e+40
-2.711283e+40
-2.7362039e+40
-2.7327145e+40
-2.7079543e+40
-2.704507e+40
-2.7298116e+40
-2.6810037e+40
-2.6446858e+40
-2.6413512e+40
-2.6772104e+40
-2.5471141e+40
-2.5510999e+40
-2.4659837e+40
-2.4639638e+40
-2.634613e+40
-2.6382738e+40
-2.6742029e+40
-2.6709248e+40
-2.7013054e+40
-2.7270755e+40
-2.7238712e+40
-2.6980779e+40
-2.6937856e+40
-2.6960252e+40
-2.7211994e+40
-2.7187652e+40
-2.6322413e+40
-2.632837e+40
-2.6690277e+40
-2.6671563e+40
-2.3677776e+40
-2.3589189e+40
-2.8238968e+40
-2.8229127e+40
-2.8294666e+40
-2.8284209e+40
-2.8275431e+40
-2.8266547e+40
-2.8219564e+40
-2.8210421e+40
-2.8058476e+40
-2.7971683e+40
-2.7952004e+40
-2.8039177e+40
-2.8138785e+40
-2.8158046e+40
-2.827835e+40
-2.8269066e+40
-2.8334583e+40
-2.8324737e+40
-2.8315102e+40
-2.8304883e+40
-2.8258992e+40
-2.8248861e+40
-2.7990769e+40
-2.8011114e+40
-2.8098101e+40
-2.8077631e+40
-2.8177652e+40
-2.8196941e+40
-2.8383445e+40
-2.8373187e+40
-2.8422498e+40
-2.8432774e+40
-2.8483709e+40
-2.8473283e+40
-2.8535793e+40
-2.8525257e+40
-2.840233e+40
-2.8363493e+40
-2.8412413e+40
-2.8353426e+40
-2.8514981e+40
-2.846303e+40
-2.8452934e+40
-2.8504602e+40
-2.7784575e+40
-2.7805567e+40
-2.7888952e+40
-2.7868764e+40
-2.78245e+40
-2.7845652e+40
-2.7928295e+40
-2.7907588e+40
-2.8381935e+40
-2.8343403e+40
-2.839269e+40
-2.8332549e+40
-2.8495188e+40
-2.8443358e+40
-2.8432583e+40
-2.8484321e+40
-2.8364037e+40
-2.8323729e+40
-2.8372633e+40
-2.8315102e+40
-2.8475005e+40
-2.8423208e+40
-2.841469e+40
-2.8466319e+40
-2.8475339e+40
-2.8526742e+40
-2.8518091e+40
-2.8466661e+40
-2.8451302e+40
-2.8458927e+40
-2.8510109e+40
-2.8501832e+40
-2.8623587e+40
-2.8578294e+40
-2.8632563e+40
-2.856951e+40
-2.8552675e+40
-2.8606219e+40
-2.8561265e+40
-2.8615073e+40
-2.8552646e+40
-2.8509871e+40
-2.8561668e+40
-2.8500695e+40
-2.861367e+40
-2.86686e+40
-2.8658419e+40
-2.8604173e+40
-2.853447e+40
-2.8491619e+40
-2.8543547e+40
-2.8482926e+40
-2.8595181e+40
-2.8649393e+40
-2.8586203e+40
-2.8640431e+40
-2.8770035e+40
-2.8723262e+40
-2.8780707e+40
-2.8712873e+40
-2.8900352e+40
-2.8838761e+40
-2.8827698e+40
-2.8888788e+40
-2.8694432e+40
-2.8750721e+40
-2.870359e+40
-2.8760454e+40
-2.8878361e+40
-2.8817682e+40
-2.8807579e+40
-2.8867801e+40
-2.817106e+40
-2.816431e+40
-2.8226208e+40
-2.8218778e+40
-2.8212779e+40
-2.8206269e+40
-2.8157793e+40
-2.8151374e+40
-2.7989831e+40
-2.7901592e+40
-2.7890001e+40
-2.7978001e+40
-2.8079382e+40
-2.8092121e+40
-2.8201819e+40
-2.819348e+40
-2.8257865e+40
-2.8248916e+40
-2.8241403e+40
-2.8233907e+40
-2.8185582e+40
-2.817825e+40
-2.8022723e+40
-2.7935045e+40
-2.7915548e+40
-2.8003874e+40
-2.8105908e+40
-2.8121211e+40
-2.8274445e+40
-2.8266546e+40
-2.8323084e+40
-2.8314977e+40
-2.8364902e+40
-2.8424464e+40
-2.8415878e+40
-2.8373258e+40
-2.8260271e+40
-2.8253719e+40
-2.8301223e+40
-2.830806e+40
-2.8357654e+40
-2.8350709e+40
-2.8408448e+40
-2.8401253e+40
-2.8346688e+40
-2.8306675e+40
-2.8356001e+40
-2.8297366e+40
-2.8406847e+40
-2.8458683e+40
-2.8449193e+40
-2.839742e+40
-2.8330491e+40
-2.8289607e+40
-2.8338256e+40
-2.8282089e+40
-2.8388698e+40
-2.8440301e+40
-2.8380727e+40
-2.8431905e+40
-2.7850718e+40
-2.7764725e+40
-2.7743875e+40
-2.7830216e+40
-2.7720049e+40
-2.7730963e+40
-2.7816861e+40
-2.780539e+40
-2.8588376e+40
-2.8546622e+40
-2.8599205e+40
-2.8535806e+40
-2.8652318e+40
-2.8708441e+40
-2.8697081e+40
-2.8641279e+40
-2.851754e+40
-2.8569578e+40
-2.8526368e+40
-2.8578799e+40
-2.8631439e+40
-2.8687019e+40
-2.8622007e+40
-2.8677271e+40
-2.8629748e+40
-2.8587339e+40
-2.8640171e+40
-2.857686e+40
-2.8693553e+40
-2.8683027e+40
-2.8750119e+40
-2.8739347e+40
-2.86088e+40
-2.8566573e+40
-2.8619466e+40
-2.8556089e+40
-2.8728974e+40
-2.8672708e+40
-2.8662079e+40
-2.8718258e+40
-2.8854617e+40
-2.8806267e+40
-2.8865357e+40
-2.879549e+40
-2.8924908e+40
-2.8913959e+40
-2.8987992e+40
-2.8976766e+40
-2.8774096e+40
-2.8832712e+40
-2.8785003e+40
-2.8844022e+40
-2.896587e+40
-2.890322e+40
-2.8891807e+40
-2.8954317e+40
-2.8811218e+40
-2.8764127e+40
-2.8822627e+40
-2.8752758e+40
-2.8943889e+40
-2.8881489e+40
-2.8869819e+40
-2.89318e+40
-2.8732296e+40
-2.8790046e+40
-2.8742488e+40
-2.8800786e+40
-2.8921062e+40
-2.8859236e+40
-2.884836e+40
-2.8910091e+40
-2.7458506e+40
-2.7484492e+40
-2.7538849e+40
-2.7564279e+40
-2.7508584e+40
-2.7533571e+40
-2.7609474e+40
-2.7585881e+40
-2.7660605e+40
-2.7683048e+40
-2.7764362e+40
-2.774209e+40
-2.7722993e+40
-2.7640404e+40
-2.7616655e+40
-2.7701149e+40
-2.73903e+40
-2.7402433e+40
-2.7473379e+40
-2.7484152e+40
-2.7415283e+40
-2.7436709e+40
-2.7495182e+40
-2.751616e+40
-2.7679629e+40
-2.7593967e+40
-2.7573284e+40
-2.7658177e+40
-2.7646099e+40
-2.7561778e+40
-2.7551908e+40
-2.763623e+40
-2.73112e+40
-2.7331204e+40
-2.7415548e+40
-2.7395201e+40
-2.7352493e+40
-2.7376186e+40
-2.7459918e+40
-2.7436885e+40
-2.7623832e+40
-2.7539132e+40
-2.7516476e+40
-2.7600671e+40
-2.7473902e+40
-2.749487e+40
-2.7578703e+40
-2.755689e+40
-2.7966847e+40
-2.7878121e+40
-2.7856048e+40
-2.794494e+40
-2.7792594e+40
-2.7707001e+40
-2.7684237e+40
-2.7770049e+40
-2.7922937e+40
-2.7833222e+40
-2.7807737e+40
-2.7897964e+40
-2.7747331e+40
-2.7661799e+40
-2.7638465e+40
-2.7722541e+40
-2.7276049e+40
-2.7293844e+40
-2.7376807e+40
-2.7357389e+40
-2.8107138e+40
-2.8096022e+40
-2.816206e+40
-2.8150517e+40
-2.802649e+40
-2.814452e+40
-2.8136606e+40
-2.8199083e+40
-2.8190474e+40
-2.818219e+40
-2.817261e+40
-2.8127669e+40
-2.8117816e+40
-2.8047982e+40
-2.8065835e+40
-2.8285561e+40
-2.8246593e+40
-2.8294563e+40
-2.8237572e+40
-2.834396e+40
-2.8334825e+40
-2.8394334e+40
-2.8384813e+40
-2.8267091e+40
-2.8229143e+40
-2.8276528e+40
-2.8219857e+40
-2.9055381e+40
-2.9004415e+40
-2.9067892e+40
-2.8992183e+40
-2.910173e+40
-2.9048929e+40
-2.9112979e+40
-2.9037655e+40
-2.9176451e+40
-2.916497e+40
-2.924526e+40
-2.9233343e+40
-2.9078657e+40
-2.9026666e+40
-2.9090682e+40
-2.9014977e+40
-2.5768423e+40
-2.5733791e+40
-2.5160468e+40
-2.5181521e+40
-2.5873246e+40
-2.5814519e+40
-2.5225011e+40
-2.5293025e+40
-2.4475083e+40
-2.4392059e+40
-2.645771e+40
-2.6482461e+40
-2.6702117e+40
-2.6672235e+40
-2.651788e+40
-2.6550627e+40
-2.6760851e+40
-2.6730543e+40
-2.6825212e+40
-2.6855794e+40
-2.6995068e+40
-2.6967863e+40
-2.6880812e+40
-2.6912219e+40
-2.705044e+40
-2.7020735e+40
-2.7451585e+40
-2.7361215e+40
-2.7334194e+40
-2.7424732e+40
-2.7269432e+40
-2.7167093e+40
-2.7138541e+40
-2.7241556e+40
-2.7087422e+40
-2.7113003e+40
-2.7216391e+40
-2.719169e+40
-2.73995e+40
-2.7308429e+40
-2.7283641e+40
-2.7374184e+40
-2.735403e+40
-2.7264317e+40
-2.7239305e+40
-2.7330428e+40
-2.7171208e+40
-2.7066212e+40
-2.7039901e+40
-2.7145551e+40
-2.7006536e+40
-2.7022791e+40
-2.7128164e+40
-2.7112879e+40
-2.7314653e+40
-2.7221443e+40
-2.7207088e+40
-2.7301762e+40
-2.6378425e+40
-2.6385098e+40
-2.6605685e+40
-2.6589318e+40
-2.640243e+40
-2.6430366e+40
-2.6648233e+40
-2.662029e+40
-2.674193e+40
-2.67609e+40
-2.690205e+40
-2.6885069e+40
-2.6774589e+40
-2.6804011e+40
-2.6946189e+40
-2.6918436e+40
-2.4343368e+40
-2.5126541e+40
-2.5695083e+40
-2.565363e+40
-2.5084967e+40
-2.6283411e+40
-2.6293231e+40
-2.6517981e+40
-2.6502707e+40
-2.6317856e+40
-2.6355446e+40
-2.6570735e+40
-2.6540002e+40
-2.6661151e+40
-2.6676737e+40
-2.6821219e+40
-2.6805497e+40
-2.6697679e+40
-2.6726402e+40
-2.6869309e+40
-2.6841974e+40
-2.6989866e+40
-2.6963514e+40
-2.7071501e+40
-2.7097295e+40
-2.6926513e+40
-2.6942849e+40
-2.7033303e+40
-2.7050798e+40
-2.7192124e+40
-2.7287799e+40
-2.7262867e+40
-2.7167223e+40
-2.7145998e+40
-2.7241604e+40
-2.7222432e+40
-2.7127352e+40
-2.7020049e+40
-2.6914198e+40
-2.6901405e+40
-2.7005172e+40
-2.7096878e+40
-2.7112581e+40
-2.7206169e+40
-2.7188869e+40
-2.6652339e+40
-2.6794865e+40
-2.3418169e+40
-2.3340615e+40
-3.0625771e+40
-3.0613952e+40
-3.0603797e+40
-3.0594315e+40
-3.0714287e+40
-3.0702062e+40
-3.0690563e+40
-3.0678858e+40
-3.0668675e+40
-3.065614e+40
-3.0645177e+40
-3.0634768e+40
-3.0839392e+40
-3.0827895e+40
-3.0818012e+40
-3.0808827e+40
-3.0800583e+40
-3.0789008e+40
-3.0777378e+40
-3.0765805e+40
-3.0755748e+40
-3.0743737e+40
-3.0733264e+40
-3.0723139e+40
-2.8891514e+40
-2.9971748e+40
-3.0054191e+40
-2.8747041e+40
-2.9886456e+40
-2.9797259e+40
-2.7394231e+40
-3.0866948e+40
-3.091612e+40
-3.0065565e+40
-3.062432e+40
-3.0573782e+40
-3.0768241e+40
-3.0819716e+40
-2.9976403e+40
-3.0528359e+40
-3.0478325e+40
-2.9352621e+40
-3.0958656e+40
-3.0984838e+40
-3.102966e+40
-3.1004202e+40
-3.1167462e+40
-3.1142396e+40
-3.0907519e+40
-3.0932744e+40
-3.0978933e+40
-3.11171e+40
-3.0953283e+40
-3.1055661e+40
-3.1081318e+40
-3.1127268e+40
-3.1101844e+40
-3.1266272e+40
-3.1241701e+40
-3.1007881e+40
-3.1031249e+40
-3.1077458e+40
-3.1053008e+40
-3.1217016e+40
-3.119156e+40
-3.1276892e+40
-3.1270773e+40
-3.1264565e+40
-3.125962e+40
-3.1246452e+40
-3.1231788e+40
-3.1237586e+40
-3.1251468e+40
-3.1231669e+40
-3.1262258e+40
-3.1249613e+40
-3.1218748e+40
-3.1236342e+40
-3.1222791e+40
-3.1192451e+40
-3.120598e+40
-3.1037221e+40
-3.1162933e+40
-3.1150697e+40
-3.1025574e+40
-3.1013692e+40
-3.1138303e+40
-3.1124514e+40
-3.1000371e+40
-3.1310478e+40
-3.1299458e+40
-3.127918e+40
-3.1267902e+40
-3.1256655e+40
-3.1287728e+40
-3.1274378e+40
-3.1243597e+40
-3.1082925e+40
-3.1209348e+40
-3.1198607e+40
-3.107204e+40
-3.117434e+40
-3.1187973e+40
-3.1061404e+40
-3.1048482e+40
-3.1319317e+40
-3.1309246e+40
-3.1314283e+40
-3.1325317e+40
-3.1302494e+40
-3.1297236e+40
-3.1282699e+40
-3.1288796e+40
-3.1226242e+40
-3.1220353e+40
-3.1214775e+40
-3.1209901e+40
-3.1197439e+40
-3.1182705e+40
-3.1202491e+40
-3.1188726e+40
-3.1176849e+40
-3.117056e+40
-3.1159158e+40
-3.1164484e+40
-3.1181266e+40
-3.1211548e+40
-3.1200022e+40
-3.1169594e+40
-3.1174381e+40
-3.1187723e+40
-3.1144553e+40
-3.1157933e+40
-3.1091437e+40
-3.0967963e+40
-3.0955875e+40
-3.107783e+40
-3.0989611e+40
-3.1113619e+40
-3.110252e+40
-3.0978793e+40
-3.1059673e+40
-3.1103358e+40
-3.0245354e+40
-3.0808627e+40
-3.0767348e+40
-3.0962444e+40
-3.101449e+40
-3.0156957e+40
-3.0721644e+40
-3.0669774e+40
-3.1247004e+40
-3.1268412e+40
-3.1292728e+40
-3.1313549e+40
-3.1431334e+40
-3.1203467e+40
-3.1224676e+40
-3.1271293e+40
-3.1249561e+40
-3.1387693e+40
-3.1410218e+40
-3.1155853e+40
-3.1182017e+40
-3.1202171e+40
-3.12276e+40
-3.1340733e+40
-3.1365084e+40
-3.1104604e+40
-3.1129449e+40
-3.1176555e+40
-3.1150917e+40
-3.1290275e+40
-3.1315819e+40
-3.1484048e+40
-3.1471832e+40
-3.1476818e+40
-3.1488062e+40
-3.1461766e+40
-3.1452624e+40
-3.1456678e+40
-3.1466921e+40
-3.1441115e+40
-3.1427738e+40
-3.14327e+40
-3.1445269e+40
-3.1451448e+40
-3.1440795e+40
-3.1418761e+40
-3.140791e+40
-3.1429277e+40
-3.1416994e+40
-3.1396865e+40
-3.1384465e+40
-3.1217624e+40
-3.1347275e+40
-3.133723e+40
-3.1207575e+40
-3.1313565e+40
-3.1326552e+40
-3.1197106e+40
-3.1184937e+40
-3.1368843e+40
-3.1358038e+40
-3.1362521e+40
-3.1374316e+40
-3.1345058e+40
-3.1330697e+40
-3.133638e+40
-3.1349816e+40
-3.1416924e+40
-3.1407178e+40
-3.1411265e+40
-3.1422085e+40
-3.1395101e+40
-3.138072e+40
-3.1385957e+40
-3.1399427e+40
-3.1406514e+40
-3.13955e+40
-3.1373993e+40
-3.1362672e+40
-3.1383716e+40
-3.1370578e+40
-3.1351418e+40
-3.133854e+40
-3.1174759e+40
-3.1303076e+40
-3.1292431e+40
-3.1164286e+40
-3.1268231e+40
-3.1281487e+40
-3.1153444e+40
-3.1140715e+40
-3.1358966e+40
-3.1346971e+40
-3.1327203e+40
-3.1315111e+40
-3.1334304e+40
-3.1321274e+40
-3.1302962e+40
-3.1289785e+40
-3.1129544e+40
-3.1256897e+40
-3.1245757e+40
-3.1118548e+40
-3.122012e+40
-3.123407e+40
-3.1107166e+40
-3.1093897e+40
-2.3528112e+40
-2.247648e+40
-3.0676537e+40
-3.0687575e+40
-3.0656846e+40
-3.0666737e+40
-3.0765403e+40
-3.0776405e+40
-3.0741981e+40
-3.0754092e+40
-3.0719931e+40
-3.0731293e+40
-3.0697263e+40
-3.0708676e+40
-3.0893027e+40
-3.0903269e+40
-3.0872612e+40
-3.0882825e+40
-3.0853093e+40
-3.0863444e+40
-3.0830072e+40
-3.0841832e+40
-3.0808783e+40
-3.0819586e+40
-3.0786423e+40
-3.079779e+40
-2.997549e+40
-2.9894848e+40
-2.9984901e+40
-2.9885379e+40
-3.007514e+40
-3.0180606e+40
-3.0170233e+40
-3.0065182e+40
-2.9959368e+40
-2.9877428e+40
-2.9967236e+40
-2.9869488e+40
-3.0056711e+40
-3.0161304e+40
-3.004868e+40
-3.0152692e+40
-3.0397693e+40
-3.028546e+40
-3.0408359e+40
-3.0274861e+40
-3.0684773e+40
-3.0535001e+40
-3.0523882e+40
-3.0673324e+40
-3.0257073e+40
-3.0379613e+40
-3.0265819e+40
-3.0388741e+40
-3.0663832e+40
-3.0514761e+40
-3.0505948e+40
-3.0655026e+40
-2.9819597e+40
-2.9909718e+40
-2.9898494e+40
-2.9807981e+40
-2.9786218e+40
-2.979721e+40
-2.9887538e+40
-2.9875902e+40
-2.999964e+40
-3.0104199e+40
-3.0092041e+40
-2.9987809e+40
-2.9965932e+40
-2.9977278e+40
-3.0081706e+40
-3.0070783e+40
-2.9861837e+40
-2.9951575e+40
-2.9941761e+40
-2.9851439e+40
-2.9840742e+40
-2.9931116e+40
-2.9919934e+40
-2.9829692e+40
-3.013498e+40
-3.0041148e+40
-3.0145535e+40
-3.0030894e+40
-3.011394e+40
-3.002073e+40
-3.0124958e+40
-3.0009621e+40
-3.0318168e+40
-3.0208018e+40
-3.0329635e+40
-3.0196079e+40
-3.0603047e+40
-3.0454947e+40
-3.0443256e+40
-3.0591123e+40
-3.0175126e+40
-3.0297364e+40
-3.0185853e+40
-3.0308168e+40
-3.0580977e+40
-3.043334e+40
-3.0423126e+40
-3.0571079e+40
-3.0249505e+40
-3.0371756e+40
-3.0361163e+40
-3.0238922e+40
-3.0228764e+40
-3.0350813e+40
-3.0217777e+40
-3.0339306e+40
-3.0646934e+40
-3.063547e+40
-3.0497873e+40
-3.0486745e+40
-3.0464816e+40
-3.0476033e+40
-3.0624256e+40
-3.061301e+40
-2.9645784e+40
-2.9579246e+40
-2.9654529e+40
-2.9570209e+40
-2.9562312e+40
-2.9637848e+40
-2.9629752e+40
-2.9554038e+40
-2.9729748e+40
-2.9813484e+40
-2.9720691e+40
-2.9804125e+40
-2.9796351e+40
-2.9788289e+40
-2.971283e+40
-2.9704855e+40
-2.9366018e+40
-2.9309277e+40
-2.9375057e+40
-2.9300096e+40
-2.9291611e+40
-2.9357573e+40
-2.9348466e+40
-2.9282681e+40
-2.9439746e+40
-2.9509945e+40
-2.943046e+40
-2.9500623e+40
-2.9492763e+40
-2.94844e+40
-2.9422276e+40
-2.9413558e+40
-2.9213117e+40
-2.9202511e+40
-2.9267512e+40
-2.9278338e+40
-2.9234056e+40
-2.9299345e+40
-2.9288464e+40
-2.9223132e+40
-2.935283e+40
-2.936402e+40
-2.9434228e+40
-2.942266e+40
-2.9412612e+40
-2.9342739e+40
-2.9332004e+40
-2.9401993e+40
-2.9274392e+40
-2.9340073e+40
-2.9329797e+40
-2.9263966e+40
-2.9253928e+40
-2.9319681e+40
-2.9308925e+40
-2.924347e+40
-2.9405119e+40
-2.9475869e+40
-2.9465092e+40
-2.9394599e+40
-2.9384447e+40
-2.9454758e+40
-2.944417e+40
-2.93738e+40
-2.9545405e+40
-2.9621307e+40
-2.9610338e+40
-2.9534473e+40
-2.9524019e+40
-2.9599884e+40
-2.9588538e+40
-2.9513184e+40
-2.9696984e+40
-2.9780806e+40
-2.9770097e+40
-2.9686032e+40
-2.9675477e+40
-2.9759411e+40
-2.974826e+40
-2.9664245e+40
-2.9503292e+40
-2.9578745e+40
-2.9567378e+40
-2.9491699e+40
-2.9471009e+40
-2.9481535e+40
-2.9557045e+40
-2.9546299e+40
-2.9654333e+40
-2.9738264e+40
-2.9726547e+40
-2.9642726e+40
-2.9621703e+40
-2.9632344e+40
-2.9716002e+40
-2.9705281e+40
-2.8445313e+40
-2.8437622e+40
-2.8503201e+40
-2.8495104e+40
-2.8488008e+40
-2.8480704e+40
-2.8430359e+40
-2.8423505e+40
-2.8159179e+40
-2.8170157e+40
-2.8260304e+40
-2.8248125e+40
-2.834887e+40
-2.8362454e+40
-2.8479302e+40
-2.8470255e+40
-2.8537584e+40
-2.8528213e+40
-2.8519171e+40
-2.8510851e+40
-2.8461088e+40
-2.8453068e+40
-2.8199771e+40
-2.829234e+40
-2.8274209e+40
-2.8182191e+40
-2.8377768e+40
-2.8394788e+40
-2.8588172e+40
-2.8578475e+40
-2.8629627e+40
-2.8639373e+40
-2.8692063e+40
-2.8745983e+40
-2.8735935e+40
-2.8682134e+40
-2.8611842e+40
-2.8569391e+40
-2.8620337e+40
-2.8561084e+40
-2.8672691e+40
-2.8726437e+40
-2.8664102e+40
-2.8717502e+40
-2.8553437e+40
-2.8544936e+40
-2.8604123e+40
-2.8595451e+40
-2.8647328e+40
-2.870965e+40
-2.8700552e+40
-2.8656237e+40
-2.8537562e+40
-2.8530143e+40
-2.8579903e+40
-2.8587602e+40
-2.8639284e+40
-2.863158e+40
-2.8692463e+40
-2.8684677e+40
-2.8003608e+40
-2.8020927e+40
-2.8111045e+40
-2.8093599e+40
-2.8082869e+40
-2.7994184e+40
-2.7987371e+40
-2.8073642e+40
-2.8063299e+40
-2.8588939e+40
-2.8580814e+40
-2.8529031e+40
-2.8521008e+40
-2.8249645e+40
-2.8268031e+40
-2.8341575e+40
-2.8359764e+40
-2.8443256e+40
-2.8512543e+40
-2.8503371e+40
-2.8572022e+40
-2.8562205e+40
-2.8553378e+40
-2.8545262e+40
-2.8494652e+40
-2.8486998e+40
-2.8232966e+40
-2.832465e+40
-2.8308265e+40
-2.8216021e+40
-2.8426953e+40
-2.8410686e+40
-2.8623411e+40
-2.8675078e+40
-2.866488e+40
-2.8613096e+40
-2.860412e+40
-2.8655652e+40
-2.8647257e+40
-2.8595942e+40
-2.8727443e+40
-2.8781034e+40
-2.8771491e+40
-2.8717515e+40
-2.8699967e+40
-2.8708353e+40
-2.8762482e+40
-2.8753864e+40
-2.8038626e+40
-2.8056915e+40
-2.8127914e+40
-2.8145494e+40
-2.8073315e+40
-2.8092794e+40
-2.818057e+40
-2.8161638e+40
-2.8762637e+40
-2.881685e+40
-2.8807594e+40
-2.8753477e+40
-2.8737206e+40
-2.8745219e+40
-2.8799231e+40
-2.8790734e+40
-2.8919426e+40
-2.8871544e+40
-2.8929327e+40
-2.8861989e+40
-2.8844653e+40
-2.890162e+40
-2.8853332e+40
-2.8910554e+40
-2.884395e+40
-2.8799259e+40
-2.8853828e+40
-2.8789301e+40
-2.8908808e+40
-2.8967025e+40
-2.8956989e+40
-2.8898925e+40
-2.8825104e+40
-2.8779781e+40
-2.8834514e+40
-2.8770659e+40
-2.888945e+40
-2.8947445e+40
-2.8880031e+40
-2.8937918e+40
-2.9075483e+40
-2.9024698e+40
-2.9085418e+40
-2.9014733e+40
-2.9211531e+40
-2.9146598e+40
-2.9136465e+40
-2.9201081e+40
-2.8995371e+40
-2.9055721e+40
-2.9005129e+40
-2.906586e+40
-2.919121e+40
-2.912672e+40
-2.9116508e+40
-2.9180898e+40
-2.8986593e+40
-2.90468e+40
-2.9036772e+40
-2.897664e+40
-2.9171607e+40
-2.9107332e+40
-2.9096974e+40
-2.9160805e+40
-2.8967558e+40
-2.895826e+40