/*--------------------------------*- C++ -*----------------------------------*\
  =========                 |
  \\      /  F ield         | OpenFOAM: The Open Source CFD Toolbox
   \\    /   O peration     | Website:  https://openfoam.org
    \\  /    A nd           | Version:  7
     \\/     M anipulation  |
\*---------------------------------------------------------------------------*/
FoamFile
{
    version     2.0;
    format      ascii;
    class       volScalarField;
    location    "2000";
    object      omega;
}
// * * * * * * * * * * * * * * * * * * * * * * * * * * * * * * * * * * * * * //

dimensions      [0 0 -1 0 0 0 0];

internalField   nonuniform List<scalar> 
34356
(
2216.0079
4771.6945
4153.5545
4155.242
759.3136
772.71941
307.64195
770.89185
769.28072
1247.3866
9959.7559
1234.4561
9936.0196
7926.935
7751.8241
1874.9139
1875.0934
7917.4338
1859.4949
7849.358
1873.5486
665.65914
600.85701
598.42795
670.11758
259.35205
270.82662
269.36897
289.24564
290.72473
400.83681
480.69374
1460.8298
1286.4883
2015.4303
2028.7657
2020.1066
2043.2296
2001.722
594.62113
595.87094
2026.4493
4749.5886
19794.131
4698.0989
19878.206
602.27672
591.94119
1980.8483
2009.988
4722.7572
4668.0219
19927.501
19843.775
4449.3696
13494.767
13869.013
4530.9327
13459.753
4397.9286
13309.347
4441.9067
13824.725
13635.655
4486.3509
4489.8451
4384.4345
13129.05
13884.608
4531.5284
1841.5993
1820.9752
1803.8299
1839.4768
1510.9006
1335.3573
1301.0537
1482.6454
486.14223
1490.9238
1313.0661
1317.6045
1491.0326
488.82823
1819.6107
1824.3186
1813.8256
1802.5733
406.56114
404.72674
258.71753
256.79722
243.0008
244.84591
4711.3
256.05439
324.50256
617.89607
740.88109
727.02844
603.09218
885.8299
900.76019
1048.8883
1041.4803
4102.6296
3950.4316
3904.0498
3282.6945
3251.9201
2898.2308
2905.4005
2953.1519
4876.6091
4912.3933
4951.1004
5027.2478
4979.9893
4988.782
4902.3323
5065.2357
467.47252
465.40844
2162.4258
621.7906
622.20212
2194.5887
7003.4114
3613.2218
3611.5973
6980.8595
13778.264
34223.615
34668.027
13888.025
6909.7331
3565.5811
3559.8738
6908.7678
13818.909
13796.698
34573.259
34779.206
628.71094
617.45103
2141.1847
2170.9205
3601.1338
3566.3978
6928.0349
6987.4757
6918.4845
3547.5443
3525.395
6839.1526
13896.943
13847.654
34392.416
34944.783
13831.663
34926.345
13630.14
34484.943
21641.714
22486.707
8265.8952
8126.758
8371.8813
22807.741
22661.282
8469.6992
8071.7381
21785.515
22316.845
8178.6848
21881.992
21390.444
8074.5949
8146.0334
22889.926
22531.211
8310.9612
8355.755
8249.3356
22522.756
22114.502
8301.0813
20963.612
21893.308
7945.2055
8082.0785
22723.93
22961.3
8373.4061
8534.554
1949.1392
1789.6308
4626.8241
5305.6972
5143.6478
4774.7832
5212.5322
5200.0302
4708.505
4689.5734
4729.7658
4819.5609
4838.763
4752.5464
4690.3455
4924.9251
4800.5137
4826.6969
4201.9544
4105.9687
4028.0329
4301.4723
3425.8991
3375.0009
3037.7843
3054.5992
1087.3918
3015.603
2986.3674
3345.3152
1064.6475
3374.2041
4035.0177
4007.9739
4206.2662
4234.4434
911.91377
936.66821
4210.8021
4066.4809
4023.0155
4263.0525
3026.6792
3006.0904
3395.1883
3360.1465
1071.1386
3028.1084
2976.6858
3319.4527
1087.4698
3364.2624
4006.4147
4146.7271
3964.4922
4189.9088
937.50097
921.73169
4593.0826
5124.6406
5083.25
4640.0628
4666.9355
5242.9135
5176.028
4737.664
4711.5722
4816.0643
4872.3078
4774.3357
4777.5433
4736.2837
4633.2375
4678.7222
256.77628
328.6178
257.24873
329.21658
635.11563
766.94698
751.91538
625.8933
625.42588
754.82131
771.31565
638.76766
10093.397
9423.917
9941.3151
9511.3483
10187.641
9724.906
320.40335
520.75757
517.20567
403.10256
400.92667
1124.2646
965.49515
929.65921
1093.9358
1535.8079
1341.0986
1298.895
1501.2188
1513.0889
1308.4704
1306.9815
1517.295
926.88321
1094.3821
1093.2274
1781.6613
1780.5952
1962.9839
1958.8
1799.9446
1762.106
1964.3924
1938.6996
2283.2926
2262.0741
2458.1166
2453.8773
2296.0471
2285.8282
2491.8784
2480.5697
9681.6734
9298.3136
9945.5587
9527.0073
9341.4933
9664.2237
9195.9899
9105.2832
8956.9938
9376.002
9200.0483
9937.499
8293.2406
8449.0953
8579.1809
8740.4298
8091.292
8236.2652
8333.6617
8474.3145
6890.9038
7074.5473
5752.7933
5890.1351
7057.8559
7306.5442
6104.9582
5879.7499
7361.5663
7383.6381
6159.4268
6171.4723
8631.2291
8816.8454
8946.2976
8905.9681
8817.035
8906.9278
9089.7893
9141.4581
9264.7781
9175.6503
9127.5251
9104.2059
9041.477
8734.8464
8928.2304
9191.1107
9406.5949
444.3343
444.164
2223.6635
4074.6452
4085.3566
613.22334
614.58315
2262.5399
4151.9039
4126.9034
7670.1699
7641.9548
13157.048
12987.067
19214.045
19532.165
30818.295
49729.988
31201.942
50147.458
31179.427
50095.381
31587.22
50780.861
13176.241
13091.848
19342.227
19555.516
7559.0339
7558.3866
13027.502
12942.933
19165.13
19395.308
12918.166
13046.38
19414.677
19157.324
31119.728
31629.813
50459.391
49752.035
50872.528
50648.6
31421.683
30712.807
618.17889
609.44607
2205.4101
4027.9198
4078.8347
2235.1119
4081.8051
4126.5661
7576.5524
7642.4946
7576.8087
7481.7872
13772.8
19236.576
13117.554
13034.007
19454.684
12926.944
13072.031
19415.9
19135.187
30913.61
49170.043
31694.27
50202.321
31568.074
50877.28
50846.631
30914.828
12985.149
13051.996
19219.613
19401.187
31266.933
50406.789
31605.762
51002.515
12800.457
12941.692
19277.773
19000.474
31269.468
30537.445
50712.032
50182.758
39455.026
37840.306
11670.57
11800.841
40375.503
40990.002
12067.201
12049.165
40662.778
12138.273
41520.836
12236.829
12257.559
41425.896
40085.634
12167.438
39754.536
38563.112
11643.645
11730.329
40208.25
40729.752
11916.446
11913.599
39192.426
39935.958
11669.995
11730.829
38782.819
37752.084
11642.923
11644.703
41154.688
41820.771
12248.206
12203.428
40772.495
39954.701
12090.399
12125.62
40361.51
40955.408
12006.074
12048.723
38953.831
40337.591
11969.669
11907.936
37773.85
36772.466
11425.835
11488.58
11788.253
39535.741
39360.905
11813.674
41423.777
40227.738
12145.855
12250.443
40881.415
41794.932
12421.628
12371.151
217.63285
3828.395
3731.3854
3901.0918
3999.4403
3334.2964
3195.9184
3465.7202
3031.7068
1078.5422
3374.3502
4026.369
932.59137
328.82149
255.84095
257.36125
767.47825
634.68295
9339.516
8396.8278
9588.3272
8580.1262
10307.384
10652.39
9490.3922
9778.3058
9777.9187
9006.6331
10077.347
9247.8769
9840.6673
8828.4002
10132.432
9050.8984
10130.847
10241.532
9327.0496
9432.9793
10234.551
9415.9959
10305.929
9477.2581
9673.1389
9774.8115
8684.8385
8765.8913
8765.5167
9771.0793
9833.0946
8810.9385
10471.724
9769.8492
10553.021
9836.6856
10338.419
10430.793
9877.9052
9957.328
10275.032
10368.814
9804.6169
9913.7076
10380.691
10489.588
9677.8714
9789.2563
10031.656
9349.8331
10360.142
9628.7152
10408.093
10794.612
9948.5182
10306.737
9941.0111
9485.4384
10280.739
9786.0988
10545.238
10922.403
9838.6716
10171.628
9758.0838
9329.9587
10098.445
9637.7458
9619.634
9990.8416
9439.1301
9799.3475
9263.2023
9064.9457
9580.2945
9364.079
10175.129
10562.6
9748.6635
10113.778
8584.2991
8719.8236
8930.08
9060.8997
8300.5216
8407.6216
8564.4902
8673.8258
7086.7997
7280.5686
5956.1667
2593.1555
6107.075
7322.1788
7624.0419
2586.8105
6417.3747
6129.05
2427.9806
2393.1659
7306.1265
7370.5511
2562.7363
6199.8084
6104.8922
7298.7043
7337.3898
2533.2863
6144.2777
6120.615
8556.4935
8680.8664
8622.5746
8753.0805
2346.609
2375.3123
8571.4154
8693.2721
8627.2205
8755.5064
9580.1006
9368.9366
9638.5603
9441.6106
9571.607
9374.3976
9663.2435
9463.8144
10106.303
9682.8214
10206.948
9771.9021
10083.712
9640.0617
10156.839
9732.4582
1846.5573
1816.7717
2005.5356
2033.4736
2087.4015
1909.7013
1855.8168
2047.0824
9927.8314
9498.6232
10243.794
9779.9357
9612.6455
9884.5964
9419.9633
9687.4129
9407.8559
9214.8774
9717.465
9502.387
10146.461
10420.364
9707.9106
9969.6188
7319.1525
7569.6248
2564.5198
6383.207
6120.2187
7168.7731
7392.541
2553.342
6198.1498
6002.4641
8579.9487
8717.2598
8847.7089
8979.5347
8403.9576
8531.7434
8682.9686
8802.831
2370.5768
2368.7281
7226.1781
7241.2829
2592.031
6088.4162
6026.6771
7098.9522
7336.0889
2535.7761
6154.1892
5940.8417
8330.6425
8454.0294
8616.7415
8727.2644
2359.945
2423.9134
8490.0005
8594.5928
8481.933
8598.9058
9472.6637
9241.231
9473.9808
9273.0436
9824.101
9393.5615
10114.771
9648.8131
9322.5691
9121.1328
9623.6508
9394.8737
9943.8095
9484.3418
9984.9642
9560.9134
1846.2798
1918.2282
2026.7565
2091.2685
2029.1855
1841.4403
1834.528
2025.8465
9406.7494
8467.7992
9577.3501
8596.8759
9892.9981
10031.28
9095.9529
9227.8453
9853.5087
9067.6235
10056.229
9238.0624
9427.5296
8475.5394
9558.3567
8581.0758
9527.6979
8559.2288
9756.5208
8732.6584
10230.17
9417.8474
10447.118
9605.2672
9984.8997
9187.4334
10250.764
9408.5434
9767.7915
9948.6654
8777.0708
8919.2195
10239.176
10524.292
9540.5761
9788.4308
10131.612
9670.7597
10431.982
9934.9552
10355.012
10617.217
9884.9364
10129.704
10473.324
10716.7
9765.8498
9986.936
10102.037
10189.62
9613.0002
9723.7363
10014.632
10275.136
9547.1114
9772.0831
10106.173
9416.6391
10337.075
9611.8205
10167.348
10288.459
9457.4656
9586.8132
327.33194
410.98016
534.87705
534.48124
409.78649
333.44013
533.71691
541.46667
407.83959
411.42785
1183.906
1012.5352
978.98387
1148.1521
1624.5014
1415.8942
1364.299
1576.1572
1544.6088
1339.0928
1358.813
1572.1681
962.78807
971.44852
1126.4769
1142.5635
958.90437
968.00341
1135.3662
1126.3121
1352.1874
1341.6942
1564.9138
1556.5424
1366.3721
1431.2398
1574.5574
1641.7393
1026.5015
984.02262
1150.9919
1206.2383
14950.692
15127.776
14463.214
14295.214
14647.753
13724.554
13865.651
14840.452
15337.476
15179.391
14621.558
14768.578
15327.41
15159.185
14475.993
14628.369
15207.604
15638.399
15045.101
15805.755
14871.866
15601.03
15762.414
15027.577
482.69532
480.67537
861.43322
838.66287
639.9608
627.32294
835.37574
620.1308
2019.5457
1794.5899
1753.9679
1986.7143
1507.5083
1320.0422
1292.1849
1480.2255
1215.3682
1218.1754
1405.4006
1401.7926
1913.8268
1676.9859
1675.3509
1912.0147
2993.8682
2850.145
2821.8057
2989.2471
2517.3496
2336.0462
2287.826
2480.9727
2205.318
2205.2632
2405.2367
2409.2652
2910.5775
2732.4516
2748.6766
2941.6953
3035.4012
2852.8477
2848.2913
3031.3751
2484.9443
2267.9211
2275.858
2494.2118
2243.9758
2216.8516
2422.5801
2439.5262
2953.1426
2775.0776
2786.713
2963.8162
1418.6374
1229.3948
1229.0503
1420.3836
1703.2701
1708.0268
1958.4645
1957.2003
1908.3305
1678.9349
2695.7752
2846.2579
3336.8923
3328.5159
3488.0204
3497.4512
3424.693
3430.6467
3583.7262
3580.1187
4149.4386
4022.4697
4025.8676
4152.1154
4044.69
3913.2783
3919.9935
4056.6443
3476.3949
3356.3093
3364.8571
3506.9195
3323.0991
3277.4609
3440.4954
3498.3209
3932.281
3873.4439
3965.7546
4038.3723
3981.2854
3854.2198
3932.5263
4074.8485
4469.406
4393.2055
4489.8473
4567.5759
4548.0678
4428.3896
4529.7359
4663.4417
5063.8254
4942.292
5055.8876
5174.0019
5157.1644
5021.8538
5188.626
5340.3508
4724.1964
4621.4373
4629.0961
4733.8585
4515.9299
4505.8482
4618.0351
4633.6317
5266.308
5250.1079
5392.9365
5408.2597
5284.3422
5132.0787
5144.207
5303.7481
14995.829
15443.818
14829.178
15645.404
15370.524
14656.972
14801.112
15542.673
16159.696
15487.184
15986.669
15320.391
15871.853
15100.316
16039.683
15263.432
16797.447
15855.541
16043.378
16997.458
17487.033
17231.899
16300.719
16558.562
15670.734
16381.444
15511.518
16575.649
15487.285
16142.751
15251.062
16413.269
15761.368
14935.46
15133.35
16005.046
16072.006
16858.358
15877.823
17050.06
16387.946
15475.436
16575.682
15651.75
16036.332
15398.211
15539.804
16198.228
18950.582
19032.524
17277.629
17391.607
17855.934
16338.581
16506.315
17692.723
19343.266
19450.429
17852.181
17674.461
18107.6
18315.875
16751.52
16990.426
16766.108
18189.017
16582.938
18334.275
16985.894
15693.474
15931.071
17228.892
17539.839
19137.946
17407.059
19212.491
17820.991
16407.643
17976.184
16587.454
19492.366
19566.363
17826.986
17923.934
18755.856
18822.953
20546.214
20557.114
18693.633
19673.302
20324.839
20361.322
18593.468
18642.755
18963.169
19054.54
20680.941
20698.96
19795.649
19465.13
20880.201
20916.72
19153.314
19205.768
19422.324
19519.754
21210.585
21230.837
20014.123
20311.69
17972.155
19523.008
17862.418
19602.959
12432.288
12562.587
12763.962
12742.358
12463.862
12400.17
12571.376
12482.29
12449.021
12627.918
12917.875
12875.342
12967.076
13120.557
13138.159
12988.084
13129.039
13052.262
12992.44
12927.061
12823.265
12697.695
12923.844
12854
12300.944
12202.692
12630.728
12625.764
12986.566
13133.916
13221.352
13328.101
441.99167
415.82107
638.04425
639.86426
416.69525
631.08819
641.37442
4047.8222
4052.7072
2186.8413
4720.556
4699.1978
4104.2475
4123.308
2228.6163
4801.9231
4768.6214
6355.5247
6346.7901
10675.676
10796.302
16396.5
16591.153
6329.2882
6329.3103
10750.521
10620.908
16580.169
16253.172
19700.083
19632.056
24149.498
24339.19
24595.898
20041.77
20091.859
24777.309
44931.194
28685.042
28415.751
43535.253
56261.554
69376.165
67506.729
55948.135
28886.55
29111.518
45143.527
44822.318
68908.021
68640.629
57708.064
57123.374
28813.038
28480.968
44150.87
44804.529
56404.584
68243.616
68827.208
57293.806
28887.218
29043.328
45619.677
44820.623
68689.366
69912.355
57759.252
57846.416
19866.452
19773.368
24236.13
24500.859
24711.345
20071.711
20045.583
24607.191
6256.9593
6248.0537
10660.318
10529.447
16219.504
16433.206
6258.7231
6232.0167
10611.342
10542.987
16453.348
16201.448
24015.007
19575.133
24275.255
19661.297
19897.256
19864.217
24520.944
24407.151
24443.35
19901.839
24610.752
19950.05
19637.648
19579.863
24261.384
24079.787
43682.043
28219.685
28554.355
44450.448
28654.853
28821.99
44210.951
45131.448
69327.038
57709.775
57485.767
68066.869
55534.254
68143.91
68528.684
56960.322
69044.341
68901.684
57851.402
57400.831
57636.042
68595.165
67835.43
57179.921
28911.248
28712.216
44805.046
44507.661
28306.888
28560.532
43310.382
44234.793
605.6899
613.09825
2246.7064
4000.1851
4045.8709
2172.5902
4717.6027
4645.3524
4054.9253
4092.1024
2201.8104
4772.2465
4706.9456
7647.701
6262.7407
6254.4021
10657.179
16492.937
10554.558
16222.525
6319.9662
6331.3197
10656.865
10756.034
16328.206
16541.064
6247.6957
6277.5183
10603.549
10655.061
16292.985
16461.508
6178.7616
6181.2969
10544.373
10416.34
16347.576
16059.536
12965.673
13109.103
19408.962
19112.853
30517.763
49656.008
19665.068
19754.189
24330.849
24072.152
19985.737
19952.783
24454.787
24566.562
19924.371
19953.662
24553.855
24421.148
24211.405
19632.24
19566.305
24020.118
28212.692
28555.197
43111.938
44096.551
55334.86
67181.221
68032.886
56029.671
28792.72
44821.937
28651.346
44235.992
68121.119
68915.289
57002.873
57138.174
28614.857
28782.124
44560.464
44184.597
57432.661
68211.658
68461.741
58167.233
57916.251
68417.264
67647.544
57535.984
28441.29
28185.2
43129.256
44010.014
19729.427
19652.541
24092.931
24324.981
19888.778
19916.244
24524.206
24414.86
28578.584
28271.847
43680.906
44481.185
56957.395
67818.851
68553.781
57651.319
28628.12
28788.079
45159.068
44423.67
68403.385
69296.898
58162.064
57987.293
24311.606
19789.075
19816.99
24441.17
24099.177
19487.006
19414.74
23885.937
28699.271
28545.874
44415.059
44551.56
28068.416
28369.185
43953.509
42725.837
68474.139
68549.017
57454.73
57905.912
67157.907
68299.908
57383.299
56632.307
210.24674
41809.553
40402.797
42800.705
43428.841
43052.941
43966.714
43994.253
42503.777
42092.099
40932.018
42432.233
43216.182
41489.876
42122.441
41518.415
40053.667
43507.47
44262.063
43220.926
42459.75
42786.625
43381.416
41441.767
42880.504
40125.238
39108.867
42006.517
41792.856
43857.411
42758.496
43416.423
44489.372
217.77736
13066.951
12094.194
12712.398
13779.491
11137.534
10167.466
11649.127
7221.2383
7320.582
2586.8614
6133.4419
6007.552
2496.9087
2326.2818
2418.021
8488.9729
8608.6304
8592.5642
8708.7862
9494.5781
9594.6306
9380.1551
1909.0859
1823.3328
1999.2441
2081.8478
405.79308
528.91558
410.47889
538.10011
330.87619
944.68172
1554.7137
1353.2968
1422.4235
1631.1145
1009.8169
965.443
1138.6056
1193.879
12029.139
12640.483
11994.266
12691.285
12226.943
11572.618
11617.822
12262.87
13146.106
12432.524
13017.686
12327.667
12559.652
11908.053
12652.388
11954.678
14609.894
13831.524
13988.039
14792.088
15203.195
15166.472
14341.537
14398.719
13296.931
14063.415
13174.996
14224.467
14633.595
13672.041
14574.656
13608.759
13055.286
13652.373
12969.058
13753.888
13214.086
12419.177
12475.8
13297.098
13604.186
14203.521
13460.161
14351.873
13693.251
12815.253
13841.391
12944.783
13381.508
12676.248
12771.409
13503.068
12255.474
12915.503
13021.558
12355.856
13805.531
13864.727
13047.14
13099.877
12570.538
13304.86
12550.362
13275.858
14418.015
13647.522
13725.252
14494.579
14484.618
14461.523
13717.542
13760.093
13067.462
13888.229
13008.524
13965.202
14004.616
13122.458
13968.015
13076.286
13839.137
14568.557
13780.279
14628.35
14017.054
13128.156
13167.171
14074.847
14007.997
14725.699
13929.228
14783.483
14170.644
13246.79
14250.423
13326.697
13223.296
12520.2
12562.294
13275.123
13283.932
12571.33
13321.625
12608.912
12118.181
12162.52
12767.533
12809.316
12811.241
12799.656
12126.569
12095.555
12885.858
12205.134
12238.397
12909.162
12658.332
13344.935
12637.479
13376.173
13528.312
13453.89
12727.157
12793.354
13021.856
12978.797
12333.919
12331.306
15018.208
15654.227
14962.781
15706.577
15336.167
14347.35
14400.041
15409.061
15175.491
15784.745
15100.902
15877.603
15497.392
14481.666
15549.06
14552.591
15907.559
15319.392
15368.208
15957.645
16050.084
15446.661
15585.491
16192.101
15882.495
15151.572
15195.842
15932.258
16012.984
15268.913
15380.373
16134.93
15812.142
15199.178
15238.655
15840.64
15829.439
15757.174
15178.927
15259.97
15742.935
15005.038
15048.809
15784.051
15783.307
15723.918
15005.966
15071.981
15497.658
14806.565
14867.046
15546.08
15535.939
15495.176
14819.4
14857.439
14188.153
14262.04
15174.182
15251.361
15186.698
15182.542
14209.957
14251.981
14106.726
14648.495
14002.677
14766.795
14318.264
13436.098
13525.207
14439.214
15420.486
14719.152
15274.398
14585.464
14928.417
13970.363
15053.092
14098.616
15948.11
15347.974
15475.072
16081.424
16585.016
15974.556
16076.29
16685.481
15315.753
15905.693
15171.803
16051.108
15863.207
16562.021
15791.062
16641.188
14503.961
14979.788
14408.058
15084.715
14904.05
14214.518
14313.911
15011.588
15194.657
15654.748
15038.336
15815.942
15560.796
14810.125
15714.787
14955.721
15670.88
14979.272
15157.893
15843.679
16313.096
15589.795
16366.117
15643.644
14378.334
14549.737
15353.936
15566.376
16010.85
15981.625
14923.232
14983.135
14850.248
15395.67
14739.733
15530.301
15237.003
14495.312
14592.316
15351.047
16297.884
15585.923
16137.304
15429.538
15953.659
15143.575
16113.212
15299.889
17173.158
16185.097
16333.028
17331.771
17933.432
17795.102
16800.425
16946.905
15906.526
16700.245
15783.648
16851.956
17470.53
16528.017
17337.758
16393.688
15515.654
16322.618
15356.296
16506.703
15820.115
14932.96
15066.167
15986.665
16298.685
17161.428
16124.848
17331.248
16616.354
15647.963
16786.678
15809.683
16295.664
15622.045
15735.527
16420.456
16927.282
16239.239
17047.761
16361.535
15403.109
15521.899
16179.984
16304.071
16927.003
16818.596
16013.854
16128.746
19435.122
19487.864
17711.714
17787.945
18251.871
16717.351
16845.034
18127.23
20036.137
20087.785
18413.424
18306.686
18744.251
18861.225
17314.982
17457.795
17028.788
18633.014
16923.286
18709.083
17297.877
15911.354
16065.86
17455.61
17905.612
19591.636
17790.734
19657.154
18200.202
16717.261
18338.447
16874.569
20117.493
20173.926
18294.777
18336.071
19213.112
19270.111
21113.792
21133.771
19363.964
5278.0803
5238.3309
5332.0447
5386.8383
20250.969
20870.466
20906.341
19070.399
19094.669
19645.671
19698.913
21432.715
21435.683
5405.1638
5312.8258
5517.278
5632.4504
20530.952
20022.241
4758.2481
4723.3741
4760.2482
4813.0355
4832.7252
4706.1792
4796.5664
4955.6916
21166.107
21180.897
19306.441
19323.146
19032.092
19080.659
20805.755
20799.554
5385.5647
5298.2012
5374.3412
5468.1996
19939.531
20303.444
20836.069
20859.298
19025.685
19040.001
19374.217
19462.282
21233.641
21262.945
5390.1242
5312.4367
5311.8544
5403.0495
20357.858
20003.246
19379.222
19416.125
17719.342
17659.657
18067.664
18167.989
16658.217
16761.176
18124.373
19743.069
17969.068
19841.617
16929.844
18391.12
18568.111
17129.46
4791.8786
4712.5694
4680.6552
4776.2734
4747.0161
4691.2167
4781.0882
4851.3005
17940.258
19664.756
17889.008
19690.636
16838.064
18302.747
18374.091
16913.652
17784.255
19393.45
17682.95
19435.575
16673.269
18090.354
18196.021
16811.134
16308.277
17273.069
16238.624
17353.108
16732.824
15770.067
15812.143
16791.71
17233.877
16248.507
17103.307
16109.684
16594.12
15660.809
16714.379
15784.006
16225.975
17103.673
16123.693
17222.666
16634.046
16733.45
15719.285
15795.337
16564.342
17382.166
16360.769
17586.501
15916.314
16873.379
17067.13
16103.078
15622.718
16234.069
15566.582
16303.502
15357.951
16126.225
16177.669
15407.26
16604.011
15902.088
16427.696
15734.514
15500.142
16293.141
16448.35
15653.991
15573.904
16259.867
15550.065
16288.394
15288.16
16086.914
16103.322
15315.862
16247.434
15571.51
16143.513
15465.432
15230.366
15996.396
16081.616
15324.245
3500.864
3487.6044
3648.9142
3675.97
3458.9546
3488.6926
3648.8908
3618.4692
4230.9548
4105.4933
4076.83
4197.7846
4218.5594
4095.0976
4131.1217
4265.1262
4274.5841
4205.5236
4196.3295
4283.6689
3765.8512
3638.3606
3573.7169
3728.2979
3512.5872
3491.5362
3659.0782
3705.3157
4233.2291
4103.0409
4169.6531
4325.0333
15289.354
15783.053
15120.998
15978.983
15644.415
14886.158
15040.328
15818.896
16608.147
15891.346
16462.278
15748.058
16293.846
15469.71
16425.651
15601.659
17241.396
16233.452
16406.739
17424.295
17709.859
17630.21
16629.588
16724.895
15938.713
16736.761
15797.583
16907.413
17204.509
16263.135
17142.968
16190.981
15929.507
16675.245
15707.656
16927.931
16193.697
15298.234
15489.77
16422.734
16614.994
17474.698
16431.176
17653.812
16936.662
15958.582
17104.484
16118.577
16296.885
15607.103
15730.673
16432.892
16697.481
16000.973
16736.081
16048.822
15359.563
15484.631
16152.846
16280.111
16564.895
16551.934
15744.699
15775.221
21008.094
21043.49
19189.502
19242.623
19477.454
19519.106
21236.083
21214.442
5395.5984
5295.3999
5502.5928
5616.8199
20332.525
20152.014
20418.209
20488.913
18607.538
18697.581
19523.527
19596.253
21420.757
21433.835
5293.9757
5217.0867
5374.2737
5455.1348
20545.733
19628.264
19541.827
19620.657
17802.371
17913.79
18371.047
16794.079
16955.645
18219.337
19860.011
19883.618
18233.441
18150.806
18587.104
18657.42
17169.411
17273.365
17404.42
18941.005
17236.496
19073.228
17628.761
16246.377
16469.018
17852.313
18222.004
19890.115
18086.328
19966.682
18506.872
17022.604
18658.175
17199.995
4710.7551
4631.7977
4747.9404
4834.0442
4818.5084
4669.8412
4774.3774
4947.0303
21189.221
21212.152
19230.853
19272.907
18746.565
18743.044
20577.517
20527.371
5332.8527
5270.795
5323.7986
5389.3575
19720.794
20355.261
20294.439
20360.709
18499.765
18600.523
19385.445
19481.358
21278.012
21298.243
5242.4467
5165.2772
5350.9049
5425.627
20398.197
19476.851
18846.283
18989.902
17328.415
17145.824
17543.89
17782.363
16153.728
16394.825
18123.012
19758.746
17951.789
19861.148
16869.46
18367.406
18553.038
17083.848
4662.1755
4572.6765
4730.7729
4817.7998
4756.4324
4711.6219
4773.6677
4827.2891
17836.269
19582.959
17747.166
19637.962
16644.065
18151.79
18265.26
16766.043
17425.799
19121.066
17391.229
19093.338
16393.009
17814.368
17837.842
16452.72
16124.019
17060.82
15991.805
17196.06
16463.574
15475.043
15591.099
16594.937
16876.943
15896.425
16831.137
15830.085
16319.867
15381.37
16364.034
15440.811
15165.216
15647.059
14976.331
15863.081
14726.417
15490.432
15677.266
14895.855
16389.494
15663.201
16209.181
15483.481
15174.664
15996.353
16161.175
15344.892
15850.129
16577.858
15604.319
16846.578
16083.901
16335.267
15173.83
15388.778
16459.88
17301.578
16245.707
17514.324
15735.792
16729.339
16927.018
15932.212
15317.28
15938.364
15210.12
16050.792
14906.487
15715.191
15826.29
15022.05
15903.444
15230.067
15863.626
15178.036
14928.778
15700.835
15733.379
14978.524
3568.6188
3416.4556
3516.4385
3677.0773
3631.989
3593.6878
3729.616
3772.7274
4133.6917
4000.2793
4115.7005
4248.1621
4257.3032
4162.4944
4204.6833
4300.919
4164.9502
4055.6563
4128.5241
4250.5314
3605.7812
3430.8596
3478.1215
3658.0583
3512.9085
3440.5522
3616.1601
3700.6197
4195.9884
4061.9787
4162.4348
4315.2887
12207.9
12798.598
12139.671
12891.089
12391.055
11773.899
11851.724
12459.871
13161.629
12457.272
13069.039
12375.695
12628.488
12027.94
12686.874
12050.589
13966.185
13239.002
13367.872
14112.082
14153.84
14100.8
13381.981
13450.113
12723.948
13476.784
12630.752
13602.562
13690.915
12819.594
13622.803
12748.92
13306.528
13888.401
13166.574
14047.475
13405.65
12578.166
12679.962
13543.172
13618.399
14263.302
13512.619
14359.921
13750.669
12864.606
13853.328
12964.039
12841.104
12166.654
12233.598
12926.812
11796.332
12474.304
12407.03
11861.691
12948.673
13016.589
12257.481
12320.509
11828.973
12517.358
11830.689
12472.763
12905.906
13016.487
12238.527
12324.315
11817.858
12571.37
11924.387
12476.256
13293.229
12579.337
12666.491
13396.451
12196.977
12826.949
12179.437
12891.39
14544.842
13763.893
14714.879
13918.864
14159.601
13997.801
13110.272
13237.427
14817.48
14055.866
14876.83
14075.242
13374.828
14312.786
14287.109
13375.189
14032.361
14189.47
13296.366
13438.5
13674.686
12804.307
13526.77
12691.065
14559.752
13774.697
13887.159
14657.886
13200.075
14006.028
13091.543
14121.816
13320.269
12619.246
12717.278
13444.706
13565.889
13575.85
12836.68
12839.243
12340.89
12873.15
12242.351
12974.635
13046.672
12351.756
13075.169
12412.168
15080.58
14406.683
14566.102
15260.083
15757.215
15648.118
14944.361
15048.918
13956.86
14742.715
13818.438
14921.341
15402.094
14413.852
15314.684
14319.091
14971.126
15394.654
14812.34
15561.326
15334.384
14622.327
14783.916
15512.162
15491.401
15998.717
15370.14
16121.157
15919.311
15155.173
16031.653
15273.544
15888.457
15280.934
15415.743
16023.418
16284.167
15668.226
15678.015
16282.816
15243.284
15835.075
15100.888
15982.554
15466.158
16230.65
15472.239
16207.16
15599.078
14907.111
15069.141
15758.15
15979.426
15271.647
15940.043
15246.892
14469.926
15282.756
14309.71
15471.512
15591.55
15657.23
14632.506
14611.018
15395.922
14777.57
14909.126
15524.8
15472.31
15436.881
14846.609
14894.056
15290.875
14555.065
14693.491
15435.282
15401.375
15371.975
14645.58
14687.206
15224.193
14642.62
14806.239
15401.365
15675.097
15058.171
15212.817
15835.314
15159.2
14448.396
14609.186
15334.003
15584.838
14837.424
14978.826
15726.748
14406.834
14908.908
14239.806
15083.559
14579.355
13665.418
13808.836
14764.689
14743.88
15312.633
14625.271
15441.711
14983.975
14018.034
15085.221
14131.775
15012.742
14323.466
14472.451
15163.798
15132.978
15109.279
14428.469
14458.387
13736.957
13874.085
14664.658
14829.316
14778.469
14765.861
13843.582
13896.955
313.13938
495.25326
493.69932
900.76131
883.23087
664.891
657.00825
873.42543
876.23402
650.06579
651.4458
320.5959
489.38266
508.9493
871.05253
866.67559
650.4207
648.17452
889.0051
914.97033
663.09601
674.40151
2173.4714
1927.5278
1875.4723
2115.0967
1617.3622
1413.6325
1403.7076
1592.3638
1293.3117
1311.7149
1507.2386
1486.4199
2040.3091
1791.7388
1773.097
2021.562
3240.0299
3086.9009
2990.939
3166.1515
2721.9427
2520.4255
2431.789
2630.6863
2331.6581
2347.2512
2557.3482
2545.5829
3094.2833
2904.0669
2904.2312
3105.164
3083.7517
2899.8254
2870.8484
3056.2886
2528.592
2309.6452
2295.0165
2512.8416
2354.1523
2327.424
2546.4782
2559.041
3093.4562
2909.8302
2916.5938
3101.3534
1456.611
1267.2715
1264.7638
1451.537
1278.1643
1283.678
1481.046
1488.8404
1731.4683
1744.9916
1999.4261
1981.2393
2019.3218
1769.3643
1787.9907
2038.8224
1254.0461
1246.3602
1443.2022
1453.8177
1269.334
1270.4874
1471.9388
1463.8703
1748.3608
1756.2473
2002.4696
1993.5933
1973.3484
1723.7488
1744.082
1998.6191
2510.2224
2307.2795
2308.6922
2520.7733
2317.8055
2282.0813
2497.785
2540.7755
2881.0197
2855.0504
3041.1495
3072.333
3045.2539
2848.0629
2905.0545
3109.0969
2508.5538
2301.6448
2358.6193
2571.4197
2548.4807
2460.5667
2674.205
2741.6269
2938.1399
2868.3752
3041.321
3116.9756
3207.7685
3041.0831
3094.3915
3251.001
1432.2391
1386.7434
1589.2781
1647.5669
1286.2405
1284.6379
1477.1262
1486.7751
1998.0891
1756.8819
1781.5978
2033.3699
2138.9551
1891.2174
1965.2686
2218.806
37974.263
39007.905
39567.509
38503.901
38954.5
39244.574
40362.664
40037.137
36216.072
35307.316
35960.195
36896.798
37584.32
36617.249
37300.446
38299.388
37834.609
37403.311
38084.11
37136.846
39477.771
38767.303
38529.495
39260.318
495.25022
494.7963
772.16099
735.35665
739.10571
941.70293
959.0041
1189.8076
1172.7743
1110.0334
895.38195
893.78745
1107.3004
903.68255
904.14944
1121.6246
1123.0516
5537.2578
4484.1979
4386.4589
5437.86
3477.0207
2225.8422
2164.2147
3415.4824
1994.1723
2005.6209
3234.9393
3214.7839
5218.9599
4196.4174
4188.0217
5203.4365
9589.1526
8579.2801
8614.1982
9698.2606
7574.6929
6548.7084
6469.2131
7535.4804
6219.9358
6238.3164
7283.1016
7275.3132
9402.9075
8329.102
8344.2763
9433.7606
9828.0205
8697.1752
8602.3282
9724.8768
7577.439
6459.9266
6388.1156
7489.5527
6518.0587
6382.4918
7469.6498
7583.7775
9618.2561
8530.8489
8622.3671
9655.8533
3302.0903
2063.3799
2100.0487
3308.0435
4276.1556
4314.8454
5383.4131
5321.3956
5319.6568
4252.2601
8198.5711
9190.8589
10661.051
10679.528
11744.508
11657.295
10828.392
10908.215
11983.885
11936.354
14113.473
13040.406
13031.611
14138.813
13883.348
12803.669
12640.904
13636.709
11520.575
10553.978
10762.076
11823.839
10518.758
10455.294
11510.087
11607.034
12866.952
12453.019
13397.556
13914.424
13613.609
12554.817
12684.792
13767.588
15288.169
14333.64
14945.016
15983.751
14839.416
14651.514
15702.896
15924.388
17019.096
16234.894
17224.321
18095.248
17856.38
16756.013
17009.885
18141.799
16231.264
15163.243
15237.069
16349.948
14634.978
14950.643
16036.908
17465.041
17289.601
18393.655
18625.233
18271.452
17129.974
34113.229
32567.743
33259.545
33412.81
33965.435
34624.854
35508.099
34829.154
34247.739
34962.82
34564.169
35276.596
36005.908
36690.58
35702.052
36402.673
31130.353
31893.941
32289.207
31543.75