/*--------------------------------*- C++ -*----------------------------------*\
  =========                 |
  \\      /  F ield         | OpenFOAM: The Open Source CFD Toolbox
   \\    /   O peration     | Website:  https://openfoam.org
    \\  /    A nd           | Version:  7
     \\/     M anipulation  |
\*---------------------------------------------------------------------------*/
FoamFile
{
    version     2.0;
    format      ascii;
    class       volScalarField;
    location    "2000";
    object      p;
}
// * * * * * * * * * * * * * * * * * * * * * * * * * * * * * * * * * * * * * //

dimensions      [0 2 -2 0 0 0 0];

internalField   nonuniform List<scalar> 
34356
(
-6.2650122e+29
-6.3016618e+29
-6.0824557e+29
-6.0272964e+29
-5.9347956e+29
-5.987721e+29
-5.3326759e+29
-5.7498036e+29
-5.7022486e+29
-6.106565e+29
-6.120788e+29
-6.0535815e+29
-6.0659393e+29
-5.9598853e+29
-5.9866605e+29
-5.9126876e+29
-5.8874535e+29
-5.935383e+29
-5.8629491e+29
-5.9095858e+29
-5.8373353e+29
-5.4766243e+29
-5.2501885e+29
-5.2904099e+29
-5.5205501e+29
-4.9100142e+29
-5.2408672e+29
-5.1989933e+29
-5.4075707e+29
-5.4537663e+29
-4.8723255e+29
-5.1069221e+29
-5.421511e+29
-5.3127762e+29
-5.7706439e+29
-5.7450736e+29
-5.7219022e+29
-5.6981921e+29
-5.974708e+29
-5.9393602e+29
-5.9644997e+29
-6.0007742e+29
-6.0243141e+29
-6.020711e+29
-5.9973758e+29
-5.9936104e+29
-5.8932991e+29
-5.9176123e+29
-5.952823e+29
-5.9279695e+29
-5.9500626e+29
-5.9749647e+29
-5.9445822e+29
-5.9699245e+29
-5.8401217e+29
-5.891791e+29
-5.9055394e+29
-5.8539326e+29
-5.9180508e+29
-5.8664206e+29
-5.930798e+29
-5.8783394e+29
-5.8675218e+29
-5.8801056e+29
-5.8160923e+29
-5.8286841e+29
-5.7928336e+29
-5.84402e+29
-5.8560543e+29
-5.8044141e+29
-5.570004e+29
-5.5928272e+29
-5.4651626e+29
-5.4422751e+29
-5.3387768e+29
-5.2366693e+29
-5.2570889e+29
-5.3607164e+29
-5.03868e+29
-5.3815794e+29
-5.2768032e+29
-5.2967932e+29
-5.4033558e+29
-5.0754417e+29
-5.6398284e+29
-5.6147142e+29
-5.4858651e+29
-5.5099141e+29
-4.807785e+29
-4.841819e+29
-5.0413822e+29
-5.0022191e+29
-4.8012648e+29
-4.8374321e+29
-5.5179342e+29
-4.412346e+29
-4.6506281e+29
-4.8642497e+29
-4.9928443e+29
-5.0095808e+29
-4.8793582e+29
-5.1170736e+29
-5.1006345e+29
-5.2108232e+29
-5.2277374e+29
-5.4658126e+29
-5.4225352e+29
-5.4124914e+29
-5.3746133e+29
-5.364558e+29
-5.315188e+29
-5.3246023e+29
-5.3322802e+29
-5.7796972e+29
-5.7919004e+29
-5.7540937e+29
-5.767277e+29
-5.7296311e+29
-5.7430304e+29
-5.7077811e+29
-5.7184842e+29
-5.8490396e+29
-5.8041038e+29
-5.8631218e+29
-5.8265383e+29
-5.8503381e+29
-5.8867414e+29
-5.9534374e+29
-5.9361324e+29
-5.9487296e+29
-5.9664062e+29
-5.9730067e+29
-5.9597256e+29
-5.9466405e+29
-5.9598758e+29
-5.9290117e+29
-5.9121e+29
-5.9247207e+29
-5.9419587e+29
-5.9350031e+29
-5.9481997e+29
-5.920837e+29
-5.9343953e+29
-5.7828309e+29
-5.8052629e+29
-5.8413866e+29
-5.8189374e+29
-5.8671923e+29
-5.8791916e+29
-5.8956131e+29
-5.8834598e+29
-5.9062061e+29
-5.8898696e+29
-5.901446e+29
-5.9181928e+29
-5.8884877e+29
-5.9006081e+29
-5.8733438e+29
-5.8854695e+29
-5.9114118e+29
-5.8966983e+29
-5.9236334e+29
-5.909126e+29
-5.8516124e+29
-5.8581519e+29
-5.8233596e+29
-5.8169855e+29
-5.8296905e+29
-5.864421e+29
-5.8712102e+29
-5.8366587e+29
-5.8425046e+29
-5.8772337e+29
-5.884065e+29
-5.8490257e+29
-5.8902863e+29
-5.8962895e+29
-5.8549739e+29
-5.8610331e+29
-5.833662e+29
-5.8270594e+29
-5.7923018e+29
-5.7986874e+29
-5.8049172e+29
-5.8396974e+29
-5.8459508e+29
-5.8114387e+29
-5.8051225e+29
-5.8105014e+29
-5.7706676e+29
-5.7757348e+29
-5.8159109e+29
-5.8218355e+29
-5.7810894e+29
-5.7871068e+29
-5.2071311e+29
-5.1593781e+29
-5.6293105e+29
-5.5625533e+29
-5.5513653e+29
-5.639923e+29
-5.5862329e+29
-5.5736857e+29
-5.6638685e+29
-5.650943e+29
-5.510643e+29
-5.4500508e+29
-5.4628105e+29
-5.522875e+29
-5.487967e+29
-5.4385919e+29
-5.4278969e+29
-5.4990255e+29
-5.3762784e+29
-5.3351635e+29
-5.3246213e+29
-5.3865792e+29
-5.2899195e+29
-5.2792124e+29
-5.2335094e+29
-5.2442261e+29
-5.1403435e+29
-5.2652284e+29
-5.2538146e+29
-5.2998151e+29
-5.1595553e+29
-5.3113219e+29
-5.3575335e+29
-5.3453253e+29
-5.3975505e+29
-5.4103057e+29
-5.0532094e+29
-5.034276e+29
-5.4202634e+29
-5.3788134e+29
-5.3674596e+29
-5.4314106e+29
-5.2855163e+29
-5.274421e+29
-5.3321888e+29
-5.3208785e+29
-5.1780214e+29
-5.3064428e+29
-5.2952945e+29
-5.3426628e+29
-5.1964526e+29
-5.3547368e+29
-5.402391e+29
-5.4428471e+29
-5.3895163e+29
-5.456051e+29
-5.0885477e+29
-5.0696125e+29
-5.7000358e+29
-5.6337928e+29
-5.621311e+29
-5.7121733e+29
-5.6749211e+29
-5.6092209e+29
-5.5964974e+29
-5.6877571e+29
-5.5325836e+29
-5.4721522e+29
-5.4837539e+29
-5.5449356e+29
-5.5089308e+29
-5.4957468e+29
-5.5572244e+29
-5.5698286e+29
-4.3588818e+29
-4.5910169e+29
-4.3864394e+29
-4.6214251e+29
-4.7999085e+29
-4.9276342e+29
-4.9460077e+29
-4.8150382e+29
-4.8309545e+29
-4.9616263e+29
-4.9808805e+29
-4.8508269e+29
-5.567766e+29
-5.6004085e+29
-5.5110261e+29
-5.5391535e+29
-5.5155248e+29
-5.5434819e+29
-4.3552947e+29
-4.7284321e+29
-4.7409895e+29
-4.5623211e+29
-4.5703684e+29
-4.972065e+29
-4.896524e+29
-4.8995098e+29
-4.976169e+29
-5.0821335e+29
-5.0294913e+29
-5.0344903e+29
-5.0884332e+29
-5.09541e+29
-5.0415319e+29
-5.0500209e+29
-5.102977e+29
-4.9062576e+29
-4.9826867e+29
-4.9921137e+29
-5.1506837e+29
-5.1420622e+29
-5.1895012e+29
-5.1987028e+29
-5.1290784e+29
-5.1357752e+29
-5.1755306e+29
-5.1829407e+29
-5.2204891e+29
-5.2283852e+29
-5.2687074e+29
-5.277278e+29
-5.2352094e+29
-5.2444957e+29
-5.2845899e+29
-5.2931897e+29
-5.4579499e+29
-5.4848298e+29
-5.4628531e+29
-5.489399e+29
-5.4186008e+29
-5.4235977e+29
-5.4429384e+29
-5.408567e+29
-5.4331275e+29
-5.4138566e+29
-5.4382644e+29
-5.4673043e+29
-5.3711757e+29
-5.3953549e+29
-5.3760766e+29
-5.4003785e+29
-5.3608141e+29
-5.3852412e+29
-5.3665845e+29
-5.3906815e+29
-5.3373274e+29
-5.3430608e+29
-5.3131783e+29
-5.3184963e+29
-5.3477185e+29
-5.3523525e+29
-5.3275496e+29
-5.322999e+29
-5.3557066e+29
-5.359402e+29
-5.3308506e+29
-5.3343867e+29
-5.3794217e+29
-5.7894757e+29
-5.7957305e+29
-5.8078661e+29
-5.8015806e+29
-5.7638332e+29
-5.7699558e+29
-5.7762611e+29
-5.7836907e+29
-5.74529e+29
-5.7391546e+29
-5.7586296e+29
-5.7516301e+29
-5.7177947e+29
-5.7224204e+29
-5.7275427e+29
-5.7339751e+29
-5.6207022e+29
-5.5789611e+29
-5.7468429e+29
-5.8679683e+29
-5.8559384e+29
-5.7158057e+29
-5.7386647e+29
-5.769139e+29
-5.8789319e+29
-5.8911313e+29
-5.9012652e+29
-5.9134386e+29
-5.9328019e+29
-5.9388823e+29
-5.9441072e+29
-5.9377298e+29
-5.9391179e+29
-5.9214084e+29
-5.9328088e+29
-5.9154776e+29
-5.92033e+29
-5.9025228e+29
-5.9270043e+29
-5.909438e+29
-5.9268955e+29
-5.9205651e+29
-5.9253491e+29
-5.931994e+29
-5.8778939e+29
-5.8898548e+29
-5.9027612e+29
-5.8965417e+29
-5.9007507e+29
-5.9072722e+29
-5.9147652e+29
-5.9086919e+29
-5.9130351e+29
-5.9195324e+29
-5.8953106e+29
-5.9018937e+29
-5.8836638e+29
-5.8769276e+29
-5.8896719e+29
-5.896194e+29
-5.9077466e+29
-5.9142378e+29
-5.673946e+29
-5.6953921e+29
-5.7261942e+29
-5.84553e+29
-5.8341998e+29
-5.7055743e+29
-5.8240344e+29
-5.8126102e+29
-5.8453346e+29
-5.8340166e+29
-5.8557855e+29
-5.8670727e+29
-5.878062e+29
-5.8552415e+29
-5.8575499e+29
-5.8516917e+29
-5.8612285e+29
-5.868631e+29
-5.8630919e+29
-5.8665081e+29
-5.8723562e+29
-5.8493582e+29
-5.8306524e+29
-5.8553647e+29
-5.8364042e+29
-5.8606197e+29
-5.8417201e+29
-5.8474096e+29
-5.8663696e+29
-5.8738937e+29
-5.8797879e+29
-5.8775802e+29
-5.8838021e+29
-5.8718321e+29
-5.8529251e+29
-5.8781294e+29
-5.8594498e+29
-5.8909596e+29
-5.8852936e+29
-5.8891752e+29
-5.8952128e+29
-5.8836029e+29
-5.8895872e+29
-5.8651603e+29
-5.871112e+29
-5.8216553e+29
-5.8187707e+29
-5.8018843e+29
-5.8049112e+29
-5.827527e+29
-5.8246555e+29
-5.8078897e+29
-5.8109761e+29
-5.8309423e+29
-5.8140732e+29
-5.8344298e+29
-5.8176632e+29
-5.821078e+29
-5.8378869e+29
-5.8409512e+29
-5.8245453e+29
-5.8471353e+29
-5.8441201e+29
-5.8274381e+29
-5.8304887e+29
-5.8532886e+29
-5.8503921e+29
-5.8335617e+29
-5.8368361e+29
-5.8565824e+29
-5.8598108e+29
-5.8397876e+29
-5.843093e+29
-5.8632957e+29
-5.8657396e+29
-5.8462327e+29
-5.848988e+29
-5.8029044e+29
-5.8000095e+29
-5.7831069e+29
-5.786431e+29
-5.7969373e+29
-5.7941454e+29
-5.7773735e+29
-5.7801607e+29
-5.8061907e+29
-5.8095284e+29
-5.7894751e+29
-5.7928245e+29
-5.8158003e+29
-5.8128589e+29
-5.7960781e+29
-5.7993299e+29
-5.7748054e+29
-5.7722573e+29
-5.7559207e+29
-5.7582433e+29
-5.7605419e+29
-5.7772894e+29
-5.7796718e+29
-5.763136e+29
-5.7854537e+29
-5.7824502e+29
-5.7656418e+29
-5.768729e+29
-5.791369e+29
-5.7885911e+29
-5.7717755e+29
-5.7748178e+29
-4.0965434e+29
-5.2394427e+29
-5.2192622e+29
-5.2232933e+29
-5.2428105e+29
-5.1999566e+29
-5.1800634e+29
-5.2042642e+29
-5.2244257e+29
-5.1224924e+29
-5.2698287e+29
-5.3152943e+29
-5.0190934e+29
-4.5609706e+29
-4.3023404e+29
-4.331563e+29
-4.9135402e+29
-4.7860376e+29
-5.6203093e+29
-5.6687387e+29
-5.6250498e+29
-5.6731911e+29
-5.5521673e+29
-5.5587254e+29
-5.5902767e+29
-5.5965264e+29
-5.5419092e+29
-5.5800428e+29
-5.5467792e+29
-5.5849653e+29
-5.6300065e+29
-5.6782215e+29
-5.6363141e+29
-5.6845662e+29
-5.5760239e+29
-5.5824761e+29
-5.6139594e+29
-5.6204472e+29
-5.5639745e+29
-5.6016034e+29
-5.5700941e+29
-5.6078711e+29
-5.6537355e+29
-5.6605703e+29
-5.7021363e+29
-5.7091511e+29
-5.6897604e+29
-5.6413546e+29
-5.6476428e+29
-5.6958672e+29
-5.4985592e+29
-5.5312884e+29
-5.5050114e+29
-5.537407e+29
-5.4411172e+29
-5.4476842e+29
-5.4696081e+29
-5.4762111e+29
-5.4536483e+29
-5.4597944e+29
-5.4820929e+29
-5.4880158e+29
-5.5106686e+29
-5.516782e+29
-5.5432263e+29
-5.5495836e+29
-5.4762554e+29
-5.5089312e+29
-5.481216e+29
-5.5137279e+29
-5.4293408e+29
-5.43563e+29
-5.4577494e+29
-5.4641059e+29
-5.4193255e+29
-5.4474992e+29
-5.4242106e+29
-5.4524997e+29
-5.486403e+29
-5.4929816e+29
-5.5191114e+29
-5.5258137e+29
-5.366737e+29
-5.3932117e+29
-5.3716085e+29
-5.397964e+29
-5.3282612e+29
-5.3339319e+29
-5.3522046e+29
-5.3578624e+29
-5.3183306e+29
-5.3423143e+29
-5.3233164e+29
-5.3472748e+29
-5.3763944e+29
-5.3823393e+29
-5.4029513e+29
-5.4091221e+29
-5.2827553e+29
-5.3056858e+29
-5.2884717e+29
-5.3113128e+29
-5.2724495e+29
-5.2956616e+29
-5.2778789e+29
-5.3007411e+29
-5.2504915e+29
-5.2559465e+29
-5.2282521e+29
-5.1906239e+29
-5.2335237e+29
-5.2610008e+29
-5.2666737e+29
-5.2009829e+29
-5.24444e+29
-5.2387128e+29
-5.1462769e+29
-5.1563197e+29
-5.2821347e+29
-5.287958e+29
-5.2215274e+29
-5.2656088e+29
-5.2598073e+29
-5.2711848e+29
-5.27685e+29
-5.2101337e+29
-5.2544573e+29
-5.2489938e+29
-5.2929717e+29
-5.316119e+29
-5.2987052e+29
-5.3219467e+29
-5.1648104e+29
-5.1764611e+29
-5.3039668e+29
-5.3274577e+29
-5.3099355e+29
-5.3335281e+29
-5.3506205e+29
-5.3752956e+29
-5.3568212e+29
-5.3815138e+29
-5.3388801e+29
-5.3630393e+29
-5.3449064e+29
-5.3694e+29
-5.3877436e+29
-5.4146812e+29
-5.3942639e+29
-5.4212322e+29
-5.4001752e+29
-5.4272337e+29
-5.4065009e+29
-5.4335173e+29
-5.0882977e+29
-5.0780321e+29
-5.1222278e+29
-5.1332997e+29
-5.1043434e+29
-5.0607466e+29
-5.0696951e+29
-5.1138697e+29
-5.4110915e+29
-5.4379113e+29
-5.4164861e+29
-5.4430899e+29
-5.3724028e+29
-5.3785777e+29
-5.3970977e+29
-5.403189e+29
-5.3615559e+29
-5.3862058e+29
-5.367035e+29
-5.3917201e+29
-5.4217435e+29
-5.428101e+29
-5.4485521e+29
-5.4551744e+29
-5.303241e+29
-5.3092184e+29
-5.2414727e+29
-5.2866918e+29
-5.2807806e+29
-5.2923677e+29
-5.2979362e+29
-5.2309543e+29
-5.2753835e+29
-5.2700095e+29
-5.3252214e+29
-5.3489705e+29
-5.3313629e+29
-5.3551404e+29
-5.314417e+29
-5.3381729e+29
-5.3200075e+29
-5.3436345e+29
-5.1857463e+29
-5.1958094e+29
-5.3254721e+29
-5.332038e+29
-5.260733e+29
-5.3082098e+29
-5.3021168e+29
-5.3139769e+29
-5.3198675e+29
-5.2505389e+29
-5.2967457e+29
-5.2913266e+29
-5.3363269e+29
-5.3603251e+29
-5.3424447e+29
-5.3664964e+29
-5.2041841e+29
-5.2136498e+29
-5.3482269e+29
-5.3726099e+29
-5.35526e+29
-5.3797796e+29
-5.3963537e+29
-5.4214914e+29
-5.4034304e+29
-5.4283129e+29
-5.4337104e+29
-5.4609311e+29
-5.4403962e+29
-5.4675588e+29
-5.3837523e+29
-5.4085493e+29
-5.3900794e+29
-5.4151347e+29
-5.44665e+29
-5.4738931e+29
-5.4534029e+29
-5.4805401e+29
-5.1146892e+29
-5.1237264e+29
-5.1604731e+29
-5.1692455e+29
-5.142562e+29
-5.0966132e+29
-5.1062858e+29
-5.1521686e+29
-5.6910593e+29
-5.7398684e+29
-5.6975982e+29
-5.746051e+29
-5.6245178e+29
-5.6301138e+29
-5.6629606e+29
-5.6683311e+29
-5.6120657e+29
-5.6505007e+29
-5.6186818e+29
-5.6571955e+29
-5.7031416e+29
-5.7518215e+29
-5.7088109e+29
-5.7579026e+29
-5.6656813e+29
-5.7143631e+29
-5.6719448e+29
-5.7204211e+29
-5.5991723e+29
-5.6376885e+29
-5.6063063e+29
-5.6447617e+29
-5.5871657e+29
-5.6252886e+29
-5.5930769e+29
-5.6315164e+29
-5.6779217e+29
-5.6852373e+29
-5.7265825e+29
-5.7340576e+29
-5.5212453e+29
-5.5269181e+29
-5.5541704e+29
-5.5598825e+29
-5.4640051e+29
-5.4923023e+29
-5.4693221e+29
-5.4978921e+29
-5.4749629e+29
-5.4817003e+29
-5.5036884e+29
-5.5104012e+29
-5.5326965e+29
-5.5396422e+29
-5.5658743e+29
-5.5729594e+29
-5.5004111e+29
-5.5069061e+29
-5.5291841e+29
-5.5353429e+29
-5.4873761e+29
-5.4940859e+29
-5.5160971e+29
-5.522927e+29
-5.545407e+29
-5.5788066e+29
-5.5521979e+29
-5.5854604e+29
-5.5581875e+29
-5.5641976e+29
-5.5913768e+29
-5.5971516e+29
-4.3034709e+29
-4.5048171e+29
-4.6667966e+29
-4.6792618e+29
-4.5137457e+29
-4.3296087e+29
-4.6951067e+29
-4.7145326e+29
-4.5274969e+29
-4.5482416e+29
-4.9066252e+29
-4.8317197e+29
-4.8351723e+29
-4.9118108e+29
-5.0149048e+29
-4.9634768e+29
-4.9700503e+29
-5.0232906e+29
-5.0318158e+29
-4.9779551e+29
-4.9876068e+29
-5.0411902e+29
-4.841328e+29
-4.8514327e+29
-4.9184786e+29
-4.9279164e+29
-4.8675621e+29
-4.8584382e+29
-4.9348806e+29
-4.9449412e+29
-4.9943975e+29
-5.0042725e+29
-5.0489637e+29
-5.0586846e+29
-5.0145374e+29
-5.0249649e+29
-5.0678748e+29
-5.0770552e+29
-4.8912562e+29
-4.8782808e+29
-4.955187e+29
-4.9665464e+29
-5.5624317e+29
-5.5644792e+29
-5.5801695e+29
-5.5781472e+29
-5.593767e+29
-5.611117e+29
-5.6128963e+29
-5.5956669e+29
-5.5083984e+29
-5.5062071e+29
-5.5199415e+29
-5.5220867e+29
-5.5354993e+29
-5.5334071e+29
-5.548035e+29
-5.5500752e+29
-5.5266747e+29
-5.5105316e+29
-5.5241982e+29
-5.5131247e+29
-5.5520792e+29
-5.5375707e+29
-5.5398999e+29
-5.5542789e+29
-4.5418168e+29
-4.5489301e+29
-4.8085925e+29
-4.8103722e+29
-4.694972e+29
-4.693821e+29
-4.8167177e+29
-4.6985303e+29
-5.0446867e+29
-5.0153968e+29
-5.0153076e+29
-5.0456076e+29
-4.9817372e+29
-4.936996e+29
-4.9352108e+29
-4.9812956e+29
-4.9380542e+29
-4.93524e+29
-4.9812397e+29
-4.9838602e+29
-5.0466993e+29
-5.015463e+29
-5.0181468e+29
-5.0494408e+29
-5.1314508e+29
-5.1111819e+29
-5.1135431e+29
-5.1338858e+29
-5.091146e+29
-5.0693464e+29
-5.0709493e+29
-5.0932234e+29
-5.075924e+29
-5.0728489e+29
-5.0956663e+29
-5.0992334e+29
-5.1367806e+29
-5.1161677e+29
-5.1198735e+29
-5.1405123e+29
-5.142982e+29
-5.1226794e+29
-5.1253091e+29
-5.1454152e+29
-5.1019261e+29
-5.0785617e+29
-5.0822685e+29
-5.1050589e+29
-5.0918911e+29
-5.0866714e+29
-5.1088173e+29
-5.1140591e+29
-5.1490598e+29
-5.1286445e+29
-5.134335e+29
-5.1550917e+29
-4.9869512e+29
-4.9410048e+29
-4.9452664e+29
-4.991282e+29
-5.0249163e+29
-5.0210712e+29
-5.0520498e+29
-5.0559869e+29
-5.0606387e+29
-5.0298989e+29
-5.1390961e+29
-5.1601318e+29
-5.1752628e+29
-5.1692018e+29
-5.1894122e+29
-5.1954248e+29
-5.1649523e+29
-5.1621114e+29
-5.1817812e+29
-5.1848599e+29
-5.2228806e+29
-5.2015198e+29
-5.2047895e+29
-5.2260916e+29
-5.2304132e+29
-5.2092548e+29
-5.2150569e+29
-5.2357994e+29
-5.1697964e+29
-5.1506592e+29
-5.1534446e+29
-5.1729594e+29
-5.1600912e+29
-5.1565687e+29
-5.1762802e+29
-5.1797937e+29
-5.1922196e+29
-5.1887194e+29
-5.2091764e+29
-5.2128792e+29
-5.2164307e+29
-5.1956079e+29
-5.1992506e+29
-5.2203286e+29
-5.2500117e+29
-5.2291964e+29
-5.2332149e+29
-5.2543474e+29
-5.2409398e+29
-5.2369464e+29
-5.2582403e+29
-5.2623797e+29
-5.2752435e+29
-5.2706348e+29
-5.2923087e+29
-5.2972633e+29
-5.3014841e+29
-5.2792395e+29
-5.2835843e+29
-5.3059865e+29
-5.2652961e+29
-5.2436898e+29
-5.2470319e+29
-5.2687107e+29
-5.2559738e+29
-5.2511614e+29
-5.2726194e+29
-5.2768602e+29
-5.290129e+29
-5.2866707e+29
-5.3092083e+29
-5.3126292e+29
-5.3161214e+29
-5.2937674e+29
-5.2976918e+29
-5.3197345e+29
-5.4692005e+29
-5.4539636e+29
-5.4668178e+29
-5.4563896e+29
-5.4795803e+29
-5.4931114e+29
-5.4952972e+29
-5.4818413e+29
-5.4612885e+29
-5.4739071e+29
-5.4586764e+29
-5.4713789e+29
-5.4839544e+29
-5.4974575e+29
-5.486519e+29
-5.5000293e+29
-5.4161107e+29
-5.4276947e+29
-5.4301371e+29
-5.4185544e+29
-5.4233387e+29
-5.4208718e+29
-5.4324501e+29
-5.4348752e+29
-5.4537663e+29
-5.4391679e+29
-5.451362e+29
-5.441602e+29
-5.4204163e+29
-5.4059153e+29
-5.4177286e+29
-5.4087081e+29
-5.4294076e+29
-5.4417513e+29
-5.4441958e+29
-5.4319633e+29
-5.4255404e+29
-5.411162e+29
-5.4228154e+29
-5.4138893e+29
-5.4343463e+29
-5.4465794e+29
-5.4370347e+29
-5.4492325e+29
-5.4633507e+29
-5.4759616e+29
-5.4782835e+29
-5.4656902e+29
-5.3704959e+29
-5.3729364e+29
-5.3818712e+29
-5.3843462e+29
-5.3955913e+29
-5.4047295e+29
-5.407179e+29
-5.3930992e+29
-5.3753493e+29
-5.3774678e+29
-5.3887961e+29
-5.3866321e+29
-5.3978155e+29
-5.4001356e+29
-5.4094679e+29
-5.4119201e+29
-5.3743786e+29
-5.3596083e+29
-5.3711556e+29
-5.3629379e+29
-5.3826015e+29
-5.3943812e+29
-5.3972459e+29
-5.3856482e+29
-5.3797878e+29
-5.3658525e+29
-5.3770893e+29
-5.3685245e+29
-5.3881818e+29
-5.3997587e+29
-5.3909164e+29
-5.4024605e+29
-5.3343629e+29
-5.33737e+29
-5.3480401e+29
-5.3511886e+29
-5.354172e+29
-5.3568938e+29
-5.3402834e+29
-5.342999e+29
-5.3172013e+29
-5.3227729e+29
-5.345287e+29
-5.3473611e+29
-5.3590211e+29
-5.3612806e+29
-5.3636501e+29
-5.3657647e+29
-5.3495557e+29
-5.3516126e+29
-5.3315e+29
-5.3273669e+29
-5.3532445e+29
-5.3548664e+29
-5.3672779e+29
-5.3689799e+29
-5.370835e+29
-5.3724666e+29
-5.3566682e+29
-5.3583804e+29
-5.3348672e+29
-5.3382899e+29
-5.3923795e+29
-5.3789069e+29
-5.3904328e+29
-5.3807656e+29
-5.7946583e+29
-5.7976226e+29
-5.8005616e+29
-5.8040763e+29
-5.8129646e+29
-5.8159415e+29
-5.8100678e+29
-5.8068705e+29
-5.7689937e+29
-5.7719161e+29
-5.7748103e+29
-5.778176e+29
-5.78116e+29
-5.784803e+29
-5.7881754e+29
-5.7919432e+29
-5.7500104e+29
-5.7535758e+29
-5.7473354e+29
-5.7445729e+29
-5.7630338e+29
-5.7665513e+29
-5.7599041e+29
-5.7565022e+29
-5.7253447e+29
-5.7232391e+29
-5.7302133e+29
-5.727457e+29
-5.7326071e+29
-5.7356446e+29
-5.7420428e+29
-5.7386247e+29
-5.5368914e+29
-5.3832178e+29
-5.5972387e+29
-5.6194063e+29
-5.3456718e+29
-5.57828e+29
-5.5572543e+29
-5.8094846e+29
-5.7980699e+29
-5.6329182e+29
-5.7359597e+29
-5.7469209e+29
-5.831618e+29
-5.8201215e+29
-5.6543989e+29
-5.757157e+29
-5.7680713e+29
-5.8562553e+29
-5.8505645e+29
-5.8605074e+29
-5.8664036e+29
-5.8933984e+29
-5.8994718e+29
-5.8681218e+29
-5.8619186e+29
-5.8720994e+29
-5.8780865e+29
-5.9052939e+29
-5.9112353e+29
-5.9218246e+29
-5.9246126e+29
-5.9272588e+29
-5.9242283e+29
-5.9180735e+29
-5.9155878e+29
-5.9189002e+29
-5.9213482e+29
-5.9172427e+29
-5.9228963e+29
-5.9260204e+29
-5.9205509e+29
-5.8826427e+29
-5.9056575e+29
-5.9085468e+29
-5.885252e+29
-5.9167887e+29
-5.9200927e+29
-5.9145832e+29
-5.9112524e+29
-5.8994196e+29
-5.9027939e+29
-5.8794355e+29
-5.8760978e+29
-5.9081318e+29
-5.9046811e+29
-5.8988821e+29
-5.9023288e+29
-5.8632487e+29
-5.886683e+29
-5.8901601e+29
-5.8664843e+29
-5.9140519e+29
-5.9109669e+29
-5.9052341e+29
-5.9084582e+29
-5.8964755e+29
-5.8933278e+29
-5.8697239e+29
-5.8727838e+29
-5.9069408e+29
-5.9034841e+29
-5.9059419e+29
-5.9093858e+29
-5.9122964e+29
-5.9099263e+29
-5.9127344e+29
-5.915316e+29
-5.8336152e+29
-5.8281473e+29
-5.843513e+29
-5.8379293e+29
-5.8700322e+29
-5.8758876e+29
-5.8454057e+29
-5.8391533e+29
-5.8490328e+29
-5.8551766e+29
-5.881646e+29
-5.8876563e+29
-5.88191e+29
-5.8797042e+29
-5.885198e+29
-5.8830282e+29
-5.8859196e+29
-5.8886758e+29
-5.8880183e+29
-5.8910246e+29
-5.8937637e+29
-5.8914949e+29
-5.8971136e+29
-5.8948731e+29
-5.8977479e+29
-5.9005807e+29
-5.8999376e+29
-5.9030536e+29
-5.8742915e+29
-5.8803763e+29
-5.8836619e+29
-5.8775405e+29
-5.8895682e+29
-5.8864509e+29
-5.8834429e+29
-5.8803304e+29
-5.8678229e+29
-5.8438674e+29
-5.846873e+29
-5.8707736e+29
-5.8379341e+29
-5.8616994e+29
-5.864762e+29
-5.8408044e+29
-5.8737242e+29
-5.8772104e+29
-5.8536202e+29
-5.8501104e+29
-5.8569203e+29
-5.8803791e+29
-5.883461e+29
-5.8600498e+29
-5.895667e+29
-5.8923122e+29
-5.8895815e+29
-5.8861986e+29
-5.9016883e+29
-5.8984364e+29
-5.8958174e+29
-5.8924874e+29
-5.6294298e+29
-5.653431e+29
-5.6846811e+29
-5.7878712e+29
-5.7771002e+29
-5.6135902e+29
-5.715911e+29
-5.7261594e+29
-5.767276e+29
-5.7564051e+29
-5.5940307e+29
-5.6961012e+29
-5.7066202e+29
-5.8234856e+29
-5.8021972e+29
-5.7964844e+29
-5.80607e+29
-5.8371136e+29
-5.8116626e+29
-5.84264e+29
-5.7912521e+29
-5.7859968e+29
-5.7954595e+29
-5.8008632e+29
-5.8261729e+29
-5.8317451e+29
-5.8121158e+29
-5.8068361e+29
-5.8165044e+29
-5.8219413e+29
-5.8479084e+29
-5.8535277e+29
-5.8233285e+29
-5.8173861e+29
-5.8272373e+29
-5.8330255e+29
-5.8589827e+29
-5.8646215e+29
-5.8464697e+29
-5.8409276e+29
-5.8444078e+29
-5.8501517e+29
-5.8442832e+29
-5.825943e+29
-5.835192e+29
-5.8382943e+29
-5.8401058e+29
-5.8370228e+29
-5.8410769e+29
-5.8436313e+29
-5.8455883e+29
-5.8428214e+29
-5.8461997e+29
-5.849308e+29
-5.8511336e+29
-5.8480662e+29
-5.8537051e+29
-5.851959e+29
-5.8544677e+29
-5.8564528e+29
-5.8350953e+29
-5.8381899e+29
-5.8285792e+29
-5.8315466e+29
-5.7913675e+29
-5.8152048e+29
-5.8180943e+29
-5.7939768e+29
-5.8408965e+29
-5.8341694e+29
-5.8437679e+29
-5.8369787e+29
-5.8233807e+29
-5.8207967e+29
-5.7964691e+29
-5.7990134e+29
-5.8462315e+29
-5.849293e+29
-5.842521e+29
-5.8394684e+29
-5.8017808e+29
-5.8260405e+29
-5.8291762e+29
-5.8048743e+29
-5.8078599e+29
-5.8319605e+29
-5.8346024e+29
-5.8105769e+29
-5.8517781e+29
-5.8546014e+29
-5.847969e+29
-5.8450557e+29
-5.860281e+29
-5.8570911e+29
-5.8590331e+29
-5.862208e+29
-5.8657186e+29
-5.863059e+29
-5.8649435e+29
-5.8678453e+29
-5.8604723e+29
-5.8572714e+29
-5.8506784e+29
-5.8538825e+29
-5.8132835e+29
-5.8374414e+29
-5.8406962e+29
-5.8162884e+29
-5.8661853e+29
-5.86318e+29
-5.8566851e+29
-5.8597628e+29
-5.8466578e+29
-5.8437488e+29
-5.8193785e+29
-5.8224121e+29
-5.8704316e+29
-5.8683758e+29
-5.8715942e+29
-5.8736249e+29
-5.8763118e+29
-5.8743242e+29
-5.876959e+29
-5.8792066e+29
-5.8719875e+29
-5.8687928e+29
-5.8624199e+29
-5.8656819e+29
-5.8776071e+29
-5.8746325e+29
-5.8684491e+29
-5.8715366e+29
-5.8528847e+29
-5.849554e+29
-5.8255535e+29
-5.8289249e+29
-5.8586933e+29
-5.85588e+29
-5.8320876e+29
-5.8349764e+29
-4.0680786e+29
-5.7831141e+29
-5.7801296e+29
-5.7890741e+29
-5.7860641e+29
-5.7924546e+29
-5.7959212e+29
-5.7992938e+29
-5.8025995e+29
-5.8086767e+29
-5.8057511e+29
-5.814851e+29
-5.8117681e+29
-5.8180516e+29
-5.8211922e+29
-5.8242705e+29
-5.8268721e+29
-5.7644075e+29
-5.76129e+29
-5.7585185e+29
-5.7559092e+29
-5.7677125e+29
-5.7709843e+29
-5.7772744e+29
-5.774118e+29
-5.7365212e+29
-5.734287e+29
-5.7387921e+29
-5.7412399e+29
-5.746872e+29
-5.7439547e+29
-5.7529475e+29
-5.7498372e+29
-4.0472261e+29
-5.2487445e+29
-5.2309579e+29
-5.2350185e+29
-5.2521417e+29
-5.2135936e+29
-5.196594e+29
-5.2183851e+29
-5.2399023e+29
-5.2460587e+29
-5.1814966e+29
-5.223842e+29
-5.2177529e+29
-5.1689786e+29
-5.1246665e+29
-5.1375067e+29
-5.2615881e+29
-5.2848372e+29
-5.2678957e+29
-5.2911576e+29
-5.3077053e+29
-5.3139451e+29
-5.3380816e+29
-5.0526698e+29
-5.0404079e+29
-5.0831694e+29
-5.0956508e+29
-4.4703479e+29
-4.6335182e+29
-4.4911648e+29
-4.6530711e+29
-4.2773185e+29
-4.8020361e+29
-4.9960467e+29
-4.944987e+29
-4.9573326e+29
-5.0077637e+29
-4.8260148e+29
-4.8127942e+29
-4.8876638e+29
-4.9000122e+29
-5.642393e+29
-5.6156821e+29
-5.6401885e+29
-5.6178197e+29
-5.6651449e+29
-5.6939732e+29
-5.6959167e+29
-5.6671432e+29
-5.6226959e+29
-5.6469706e+29
-5.6199761e+29
-5.6444205e+29
-5.6690908e+29
-5.6979639e+29
-5.6717706e+29
-5.700694e+29
-5.5457508e+29
-5.5643108e+29
-5.5674384e+29
-5.548903e+29
-5.5553337e+29
-5.5518886e+29
-5.5703726e+29
-5.5737554e+29
-5.6068663e+29
-5.5827221e+29
-5.6039604e+29
-5.5857416e+29
-5.5920701e+29
-5.6132131e+29
-5.5886401e+29
-5.6098388e+29
-5.5568554e+29
-5.5359267e+29
-5.5545522e+29
-5.5381499e+29
-5.5730896e+29
-5.5944698e+29
-5.596586e+29
-5.5752836e+29
-5.5618981e+29
-5.540375e+29
-5.5590519e+29
-5.5432682e+29
-5.5775044e+29
-5.5988461e+29
-5.5803331e+29
-5.6016153e+29
-5.6249225e+29
-5.6491973e+29
-5.6522214e+29
-5.6278179e+29
-5.7030452e+29
-5.6740852e+29
-5.6770729e+29
-5.706009e+29
-5.6307805e+29
-5.6341442e+29
-5.6552175e+29
-5.6584651e+29
-5.7089719e+29
-5.6834053e+29
-5.7124704e+29
-5.6799877e+29
-5.5695711e+29
-5.5880125e+29
-5.5913143e+29
-5.5728301e+29
-5.5789577e+29
-5.5757398e+29
-5.5942331e+29
-5.5974441e+29
-5.6307323e+29
-5.606323e+29
-5.6275042e+29
-5.6095824e+29
-5.6158687e+29
-5.6372112e+29
-5.6125364e+29
-5.6338305e+29
-5.5792673e+29
-5.5578372e+29
-5.5762414e+29
-5.5608056e+29
-5.5945205e+29
-5.6155778e+29
-5.6184313e+29
-5.5974394e+29
-5.5853408e+29
-5.5636088e+29
-5.582037e+29
-5.5668716e+29
-5.6002606e+29
-5.6213583e+29
-5.6036066e+29
-5.6247408e+29
-5.6484448e+29
-5.6727799e+29
-5.6762013e+29
-5.6517224e+29
-5.6548758e+29
-5.6794315e+29
-5.6583291e+29
-5.6828386e+29
-5.7267849e+29
-5.7301746e+29
-5.6977433e+29
-5.7011437e+29
-5.7078696e+29
-5.7043148e+29
-5.7333816e+29
-5.7369764e+29
-5.6858214e+29
-5.7149581e+29
-5.7177848e+29
-5.6887468e+29
-5.6637903e+29
-5.6364984e+29
-5.6608112e+29
-5.6393741e+29
-5.645713e+29
-5.6422924e+29
-5.6667045e+29
-5.670039e+29
-5.6949247e+29
-5.6914452e+29
-5.7203493e+29
-5.7238987e+29
-5.5114782e+29
-5.4924506e+29
-5.5082758e+29
-5.4956741e+29
-5.5239207e+29
-5.5411501e+29
-5.5441135e+29
-5.5269819e+29
-5.5175474e+29
-5.4986492e+29
-5.5143873e+29
-5.5019371e+29
-5.5298215e+29
-5.5469708e+29
-5.5329908e+29
-5.550136e+29
-5.4355366e+29
-5.4494766e+29
-5.4527465e+29
-5.4387786e+29
-5.441841e+29
-5.4557811e+29
-5.4591073e+29
-5.4452139e+29
-5.4631335e+29
-5.4779321e+29
-5.4811463e+29
-5.4663706e+29
-5.4693743e+29
-5.4841563e+29
-5.4875076e+29
-5.4727247e+29
-5.4478912e+29
-5.461752e+29
-5.4648502e+29
-5.4509827e+29
-5.4567215e+29
-5.4537915e+29
-5.4675882e+29
-5.4704151e+29
-5.4753543e+29
-5.4900722e+29
-5.4930678e+29
-5.4783928e+29
-5.4839826e+29
-5.4810427e+29
-5.495765e+29
-5.4987453e+29
-5.5044122e+29
-5.5200104e+29
-5.523163e+29
-5.5074232e+29
-5.5132437e+29
-5.5101888e+29
-5.5260374e+29
-5.5291055e+29
-5.5528688e+29
-5.5561221e+29
-5.5355873e+29
-5.5387996e+29
-5.5448362e+29
-5.5416669e+29
-5.5590441e+29
-5.5622155e+29
-5.4884347e+29
-5.4703262e+29
-5.4861133e+29
-5.4726281e+29
-5.501759e+29
-5.5190731e+29
-5.5212513e+29
-5.5039799e+29
-5.4777408e+29
-5.4934083e+29
-5.4749164e+29
-5.4906438e+29
-5.5061504e+29
-5.5234993e+29
-5.5090039e+29
-5.5263673e+29
-5.4236543e+29
-5.4375337e+29
-5.4405475e+29
-5.4266232e+29
-5.4295121e+29
-5.4434601e+29
-5.446874e+29
-5.4328991e+29
-5.4687699e+29
-5.45109e+29
-5.465745e+29
-5.4541167e+29
-5.4753336e+29
-5.4571125e+29
-5.4718598e+29
-5.4605342e+29
-5.430032e+29
-5.4138671e+29
-5.4276656e+29
-5.416174e+29
-5.4412152e+29
-5.4558588e+29
-5.4581298e+29
-5.4435229e+29
-5.4351298e+29
-5.418432e+29
-5.4322868e+29
-5.4212495e+29
-5.445823e+29
-5.4604834e+29
-5.4486683e+29
-5.4633127e+29
-5.4801297e+29
-5.4958302e+29
-5.4990199e+29
-5.4832005e+29
-5.4863187e+29
-5.5021487e+29
-5.4898032e+29
-5.5055872e+29
-5.5289107e+29
-5.5321009e+29
-5.511528e+29
-5.5147256e+29
-5.5212848e+29
-5.5177846e+29
-5.5351608e+29
-5.5386136e+29
-5.3769885e+29
-5.3619573e+29
-5.3746612e+29
-5.3642608e+29
-5.3873174e+29
-5.4007604e+29
-5.4030047e+29
-5.389572e+29
-5.3691708e+29
-5.3817976e+29
-5.3665058e+29
-5.3791687e+29
-5.391731e+29
-5.4052527e+29
-5.3944466e+29
-5.408012e+29
-5.3243807e+29
-5.3358275e+29
-5.3385486e+29
-5.3271049e+29
-5.332688e+29
-5.32975e+29
-5.3412235e+29
-5.3442055e+29
-5.3621247e+29
-5.3472505e+29
-5.3593924e+29
-5.349976e+29
-5.3557228e+29
-5.3679782e+29
-5.3526071e+29
-5.3648096e+29
-5.3286806e+29
-5.3146921e+29
-5.3262698e+29
-5.3171576e+29
-5.337768e+29
-5.349903e+29
-5.3521811e+29
-5.3400937e+29
-5.3336097e+29
-5.3194298e+29
-5.3309237e+29
-5.3220987e+29
-5.3423553e+29
-5.3544804e+29
-5.3450263e+29
-5.3571449e+29
-5.3713874e+29
-5.3840583e+29
-5.3869172e+29
-5.3741479e+29
-5.3769046e+29
-5.3897564e+29
-5.3801341e+29
-5.3929874e+29
-5.4104211e+29
-5.4133613e+29
-5.3968065e+29
-5.3997048e+29
-5.4058654e+29
-5.4025393e+29
-5.4162444e+29
-5.4195909e+29
-5.280274e+29
-5.2831309e+29
-5.2911402e+29
-5.2939772e+29
-5.3047966e+29
-5.3132315e+29
-5.3159766e+29
-5.3019805e+29
-5.2858965e+29
-5.2885098e+29
-5.2992174e+29
-5.2966099e+29
-5.3073429e+29
-5.3100846e+29
-5.3185773e+29
-5.3214434e+29
-5.2837392e+29
-5.2698613e+29
-5.2809525e+29
-5.2727141e+29
-5.2920419e+29
-5.3034289e+29
-5.3059339e+29
-5.2946813e+29
-5.2889211e+29
-5.2754458e+29
-5.2862623e+29
-5.2781138e+29
-5.2970166e+29
-5.3082481e+29
-5.299695e+29
-5.3108845e+29
-5.2464009e+29
-5.2488567e+29
-5.2589317e+29
-5.2615828e+29
-5.2644101e+29
-5.2671492e+29
-5.2516754e+29
-5.2544809e+29
-5.230171e+29
-5.20902e+29
-5.1893042e+29
-5.1943133e+29
-5.2141065e+29
-5.2356202e+29
-5.2569829e+29
-5.259537e+29
-5.2694375e+29
-5.2721296e+29
-5.2749792e+29
-5.2776471e+29
-5.2623607e+29
-5.2650586e+29
-5.2193167e+29
-5.1995119e+29
-5.2054281e+29
-5.2251408e+29
-5.2464117e+29
-5.2409082e+29
-5.1704428e+29
-5.1515757e+29
-5.156344e+29
-5.1753527e+29
-5.1671665e+29
-5.1615335e+29
-5.1806238e+29
-5.1864156e+29
-5.2781973e+29
-5.2807978e+29
-5.2906277e+29
-5.2934025e+29
-5.2963065e+29
-5.2990261e+29
-5.2836361e+29
-5.2863397e+29
-5.2402767e+29
-5.22029e+29
-5.2263701e+29
-5.2461977e+29
-5.2676207e+29
-5.2621429e+29
-5.2673273e+29
-5.2698276e+29
-5.2797709e+29
-5.2824316e+29
-5.2853529e+29
-5.288233e+29
-5.2727352e+29
-5.2756471e+29
-5.2297008e+29
-5.209888e+29
-5.2149603e+29
-5.2349261e+29
-5.2568545e+29
-5.2512846e+29
-5.2905438e+29
-5.2933932e+29
-5.3043262e+29
-5.3014022e+29
-5.3124408e+29
-5.3153862e+29
-5.3238562e+29
-5.326806e+29
-5.310039e+29
-5.2962285e+29
-5.3070928e+29
-5.2990933e+29
-5.329633e+29
-5.3181576e+29
-5.3211827e+29
-5.3327004e+29
-5.1907117e+29
-5.1711612e+29
-5.1760284e+29
-5.1956653e+29
-5.1881894e+29
-5.1816399e+29
-5.2011368e+29
-5.2073214e+29
-5.3155074e+29
-5.3014469e+29