/*--------------------------------*- C++ -*----------------------------------*\
  =========                 |
  \\      /  F ield         | OpenFOAM: The Open Source CFD Toolbox
   \\    /   O peration     | Website:  https://openfoam.org
    \\  /    A nd           | Version:  7
     \\/     M anipulation  |
\*---------------------------------------------------------------------------*/
FoamFile
{
    version     2.0;
    format      ascii;
    class       surfaceScalarField;
    location    "2000";
    object      phi;
}
// * * * * * * * * * * * * * * * * * * * * * * * * * * * * * * * * * * * * * //

dimensions      [0 3 -1 0 0 0 0];

internalField   nonuniform List<scalar> 
102230
(
8.6534872e+10
-2.5916422e+11
-2.6781122e+11
-2.4846684e+11
-2.5461296e+11
-2.2641395e+11
-1.8485686e+11
-2.3220483e+11
-2.0102205e+11
-2.1358297e+09
-4.1909032e+10
1.617108e+10
-5.6924858e+10
-5.4145158e+10
-6.408406e+10
-6.5393761e+10
-5.1755896e+10
2.577063e+10
-5.7456108e+10
-7.0538055e+10
-5.661697e+10
-6.6000666e+10
-3.6448625e+10
-2.210907e+11
-2.1721614e+11
8.7428359e+10
-5.1007442e+10
-6.8794952e+10
6.7838831e+10
-1.3082442e+12
-6.2191356e+10
-4.0885663e+10
5.8263185e+10
3.4231333e+10
3.2101165e+10
1.8804279e+10
2.3320824e+10
-2.8455913e+11
-7.8062659e+09
-3.8065634e+09
2.2303141e+10
2.5600544e+10
-2.8758644e+11
-7.1104202e+09
-2.3190923e+09
1.6129966e+10
1.0733194e+10
-5.4602168e+10
-6.1549519e+10
-6.1789684e+10
-5.4034414e+10
9.2649631e+09
-4.4581544e+10
-3.4075781e+10
-4.7064168e+10
-3.7685294e+10
1.3734272e+10
-6.1183985e+10
-6.5127906e+10
-5.7384159e+10
-5.4695523e+10
-4.7983914e+10
-4.9060332e+10
-3.9238716e+10
-3.9169136e+10
2.9125704e+08
-1.0442285e+10
-5.6244103e+08
6.5259701e+09
-1.4446946e+10
-1.1625217e+10
-1.1658303e+10
-1.5006877e+10
-9.1953227e+09
4.8315599e+09
-1.1557858e+10
-1.4701918e+10
-1.1011266e+10
-1.3991444e+10
5.0477096e+09
-5.3467345e+10
6.7749867e+09
-5.4242487e+10
-1.004232e+10
-1.184225e+09
6.0232679e+09
-1.1852614e+10
-1.1356559e+10
-1.5013008e+10
-1.4593078e+10
4.6116258e+09
-5.6113866e+10
-1.1849465e+10
7.527716e+09
-1.4595362e+10
-1.1697903e+10
-1.1913553e+10
-1.5382002e+10
-5.5488541e+10
-2.2002861e+11
-2.7376793e+10
2.014875e+10
1.6291056e+10
-1.4844985e+10
-1.0328411e+10
-2.2334291e+10
1.6371428e+10
-1.3111761e+10
-1.6858173e+10
1.3278802e+10
-2.7807447e+11
2.1909562e+11
1.5077361e+10
-1.4346129e+10
-1.7048532e+10
1.1638537e+10
-2.7715558e+11
1.4448176e+10
1.8562086e+10
-1.1527258e+10
-1.4861203e+10
7.1458166e+10
5.5952901e+10
-4.0985936e+10
-5.6436658e+10
4.4610823e+10
6.4195736e+10
-4.2638031e+10
-5.8988999e+10
3.2900762e+10
1.7211937e+11
-2.276271e+11
1.6885489e+11
-2.2356899e+11
-3.8106403e+10
2.032642e+11
3.0432889e+10
-2.6662543e+11
-6.1235811e+09
1.5558082e+10
1.3406808e+10
-9.9941542e+09
2.9625758e+10
-1.7290844e+10
-1.3982185e+10
1.2638389e+10
1.0702805e+10
-4.9296056e+10
4.1249982e+09
3.0633004e+09
-3.526128e+09
-2.9807193e+09
3.7996481e+09
-6.1865702e+10
2.465375e+09
2.7843042e+09
-3.3957872e+09
-3.9175484e+09
4.3470761e+09
4.9245664e+09
4.0776121e+09
-6.5834109e+10
-9.8860661e+08
-1.5954218e+09
5.8176656e+09
5.1598367e+09
4.6127192e+09
-6.7067235e+10
-7.1975183e+08
-1.5051951e+09
4.565507e+09
5.1165416e+09
4.3560876e+09
-6.8923348e+10
-9.6295465e+08
-1.5584426e+09
5.4467413e+09
4.9920354e+09
-6.8709146e+10
-5.4453288e+08
-1.3534079e+09
-6.5364189e+09
-3.4733483e+09
7.8237489e+09
4.9218896e+09
-5.7338033e+10
-5.6257585e+09
7.7030717e+09
-1.8621003e+10
-5.1542255e+10
5.363755e+09
-1.4691241e+10
-5.1950384e+10
7.4241e+09
-5.657672e+10
3.3195707e+09
6.0153546e+08
-9.7958151e+09
-1.1454366e+10
-1.1350331e+10
-9.6284899e+09
9.627068e+08
-7.245291e+09
-6.2021762e+09
-6.7137143e+09
-7.6146006e+09
2.7485773e+09
1.6973686e+09
-9.692291e+09
-1.1317961e+10
-1.1964804e+10
-1.0109766e+10
2.02309e+09
-7.7267254e+09
-7.8651406e+09
-7.0040897e+09
-6.8751699e+09
-4.8667768e+09
6.6206464e+09
-1.8718477e+10
-5.175803e+10
5.2619137e+09
-1.5148356e+10
-5.2405173e+10
2.9559077e+09
7.2484932e+09
-5.740475e+10
7.8684488e+09
-5.7799244e+10
-3.7687117e+08
2.3404949e+09
-1.1461276e+10
-1.2142107e+10
-1.0325663e+10
-9.8052741e+09
2.7588119e+09
-9.994386e+09
-1.1670926e+10
-1.1643696e+10
-9.941141e+09
-1.1177516e+09
-7.8568744e+09
-8.2200169e+09
-7.2478889e+09
-7.3871646e+09
-7.9424431e+09
-7.1139956e+09
-7.699288e+09
-6.7259899e+09
2.3199922e+09
-5.7934912e+08
9.3555396e+08
-1.1963303e+10
2.104852e+08
-71460945
1.7298852e+09
-2.3725284e+09
-2.4379001e+09
-3.2718977e+09
-3.0918064e+09
-1.865453e+09
17910356
1.3215547e+09
-3.1594786e+09
-2.3927153e+09
-2.3195837e+09
-3.0500479e+09
-8.8321051e+08
-1.1955748e+10
-2.0181423e+09
-60524903
1.5389702e+09
-3.0676741e+09
-2.3342288e+09
-2.3874432e+09
-3.210902e+09
-7.1599458e+08
-1.1962708e+10
-1.7868772e+09
1.2016617e+09
-2.3551669e+09
-2.2922188e+09
-3.0995813e+09
-2.9746531e+09
-1.1624925e+10
-61464568
-2.191166e+09
-83050280
1.6912505e+09
-2.4256891e+09
-2.3904198e+09
-3.1292578e+09
-3.2628139e+09
-1.9050157e+09
1.3307252e+09
-3.1670597e+09
-2.3919801e+09
-2.3153909e+09
-3.040762e+09
-7.3369202e+08
8.5223348e+08
-1.2206173e+10
-1.1940143e+10
2.4979748e+09
-5.3464562e+08
-1.2128049e+10
2.582414e+08
1.8776057e+09
-2.3903679e+09
-2.4657242e+09
-3.1197639e+09
-3.3139266e+09
-2.1576444e+09
1.6212047e+09
-2.4480392e+09
-2.3799237e+09
-3.2403783e+09
-3.1335794e+09
-1.2230023e+10
-4.6559528e+09
-5.4791167e+10
4.7154875e+09
-2.6726388e+09
-1.9227296e+09
4.1222926e+09
-5.4532951e+10
-6.1010512e+09
-2.763748e+09
-2.1886048e+09
3.7772456e+09
4.5208708e+09
3.2719012e+09
-6.842584e+10
-4.2442521e+09
3.5672013e+09
-3.0417634e+09
-3.457614e+09
2.9524386e+09
-6.7740767e+10
3.9050354e+09
-3.3693791e+09
-2.6651424e+09
3.3588127e+09
-5.1617131e+10
-3.2010534e+09
3.1595612e+09
-3.7216917e+09
-3.0922843e+09
2.709288e+09
-2.5683631e+09
2.6499596e+09
3.001306e+09
-3.325708e+09
-3.8366951e+09
-6.4190739e+10
5.2603862e+10
-2.988932e+09
-3.8954768e+09
-3.63924e+09
2.8416566e+09
-6.6763036e+10
2.4146322e+09
-3.7178047e+09
-3.8294165e+09
-3.46648e+09
2.9023363e+09
2.3671351e+09
-2.3608116e+10
-2.0807655e+11
1.3861408e+10
1.1985813e+10
-1.7514288e+10
-1.4097051e+10
-5.1545378e+10
-2.9121442e+09
6.7343639e+10
2.9819291e+09
-3.8218569e+09
-3.2600929e+09
2.5734667e+09
-2.5412797e+09
-3.8541768e+09
-3.4120161e+09
2.5948407e+09
2.8979889e+09
-6.4565794e+10
5.130515e+10
-3.8188846e+09
-3.5953917e+09
2.8391553e+09
-6.492522e+10
2.4050311e+09
6.6184977e+10
-3.7548656e+09
2.840244e+09
-3.4477098e+09
2.3339002e+09
-2.0702819e+11
1.3546611e+10
1.0774959e+10
-1.7610296e+10
-1.4868114e+10
4.5469814e+09
-5.2610325e+10
4.2649291e+09
-2.7780512e+09
-2.2437772e+09
3.5068745e+09
-5.3515162e+10
4.417215e+09
-2.7453239e+09
-2.0293383e+09
3.8133962e+09
-2.7734558e+09
3.7143506e+09
-2.7235843e+09
-3.3664353e+09
3.2060956e+09
-3.3899073e+09
-3.0111244e+09
3.4761511e+09
2.8961372e+09
-2.5659209e+10
-2.6876199e+11
-6.4402534e+09
1.5520831e+10
1.3110858e+10
-1.0573087e+10
-2.6803045e+11
-6.8317506e+09
1.4567157e+10
1.1794579e+10
-1.0190702e+10
3.1131953e+10
-1.759128e+11
-1.7519616e+11
-2.6403547e+10
-1.4017728e+10
6.7217135e+08
-5.9578803e+08
6.730408e+08
-6.9792728e+08
6.1576784e+08
2.1417458e+11
4.5540093e+10
-3.2178981e+10
2.9560177e+10
1.9523906e+10
1.611885e+10
-5.4282099e+09
-9.934168e+09
4.5539631e+10
-4.5595061e+09
6.6896504e+09
-5.6145044e+10
3.611917e+09
-1.8558041e+09
-2.5529998e+09
3.148587e+09
-2.929622e+09
6.0849801e+10
5.1798483e+09
2.8729118e+09
-3.4258016e+09
-3.9816321e+09
2.5322155e+09
-4.6793787e+10
6.3150101e+10
2.9260775e+09
-3.7453458e+09
-3.9216955e+09
2.5892364e+09
-5.7997289e+10
-2.1474177e+09
3.3123233e+09
3.1306228e+09
2.5792557e+09
4.9560539e+10
-4.2387602e+09
-3.8601456e+09
2.6348799e+09
2.2090987e+09
4.7571464e+10
4.6342675e+09
-3.6354663e+09
-4.1893847e+09
2.6904764e+09
2.3755195e+09
-2.9798738e+09
4.4013386e+09
-3.6063017e+09
-4.1297434e+09
2.4719186e+09
2.1868172e+09
-3.9282929e+09
-4.1763266e+09
2.4469589e+09
2.043913e+09
-1.1004282e+10
6.5773071e+08
-6.4418859e+08
6.2060514e+08
-7.4463593e+08
5.6684509e+08
3.1159108e+08
-1.4219646e+10
-7.1101951e+08
-7.5146887e+08
5.9308048e+08
-1.3962638e+10
4.7102296e+08
-6.4384794e+08
6.240357e+08
-7.3734323e+08
5.7536228e+08
3.3127736e+08
-1.1215837e+10
-7.3414535e+08
5.8346217e+08
-7.7316547e+08
5.1117423e+08
-1.1036404e+10
4.4369352e+08
-6.7107057e+08
6.0220522e+08
-7.5180233e+08
5.663222e+08
-2.7350154e+08
3.9600588e+08
-1.3940672e+10
5.4073387e+08
5.0315868e+08
-7.8655432e+08
-8.7135975e+08
-3.7533688e+08
-1.4270833e+10
5.3261081e+08
4.4574142e+08
-8.9171764e+08
-8.4735149e+08
-1.4303498e+10
5.16506e+08
4.7531646e+08
-8.1960927e+08
-8.9968551e+08
-6.3598699e+08
8.012049e+08
1.0609315e+09
1.0073181e+09
-1.4675209e+10
-1.9786912e+08
-3.1170011e+08
1.02417e+09
9.0653654e+08
-1.4330018e+10
-3.0729861e+08
-2.3579009e+08
-6.5941303e+08
9.0717024e+08
1.0733205e+09
1.1142632e+09
-1.4678876e+10
-1.5927438e+08
-2.8024149e+08
1.0462825e+09
9.1234619e+08
-1.4710783e+10
-2.3804452e+08
-3.2895067e+08
-6.2058588e+08
8.406402e+08
1.1171287e+09
1.05192e+09
-1.5083036e+10
-2.9833532e+08
-1.7685596e+08
1.0740578e+09
9.4343402e+08
-1.4696535e+10
-3.0871878e+08
-2.2423919e+08
-6.7440346e+08
1.1613944e+09
1.1406495e+09
-1.494683e+10
-1.2986058e+08
-2.4502516e+08
1.1214723e+09
9.9614631e+08
-1.5038431e+10
-2.0576719e+08
-2.9061359e+08
2.6130644e+10
-6.6171898e+09
-1.0914019e+10
-2.7261963e+11
-6.5200017e+09
-1.1158886e+10
-2.745578e+11
-6.1141595e+09
-2.4967083e+09
4.1863626e+09
3.7361765e+09
3.2069595e+09
-5.8723096e+10
-8.6799062e+08
-2.6556683e+08
-4.9627506e+09
6.5241068e+09
-6.5834966e+10
4.9491398e+09
-6.709659e+10
4.1575238e+09
3.577198e+09
-5.8574859e+10
-3.3157187e+08
-8.7084385e+08
-1.8366586e+09
-3.3282107e+08
1.8698464e+09
4.7320751e+08
-9.9693833e+09
-8.2955758e+08
1.0886692e+09
-9.3926101e+09
1.6438632e+09
-9.379409e+09
1.8099478e+09
-9.9270688e+09
2.6999535e+08
2.0687689e+08
-1.6407969e+09
-1.6388654e+09
-1.302015e+09
-1.3465588e+09
2.8058387e+08
-1.1649742e+09
-1.3089843e+09
-1.1896328e+09
-1.3201168e+09
-90185918
4.2749742e+08
-1.2284383e+09
-1.3680161e+09
-1.2519128e+09
-1.3831024e+09
3.8284368e+08
-1.7167874e+09
-1.6124594e+09
-1.31613e+09
-1.3655284e+09
-1.868775e+09
-2.6658514e+08
1.8500977e+09
5.7435311e+08
-9.9813784e+09
-7.2212937e+08
1.1886652e+09
-9.4669069e+09
1.6686661e+09
-9.5307515e+09
1.7890228e+09
-1.0023499e+10
-1.778254e+08
-3188279.2
4.6248747e+08
-1.7602271e+09
-1.6408731e+09
-1.3504829e+09
-1.4065164e+09
1.8038577e+08
-1.6795907e+09
-1.6723692e+09
-1.374648e+09
-1.3248764e+09
-2.2832124e+08
4.9188816e+08
-1.3051071e+09
-1.3319946e+09
-1.4629731e+09
-1.4408835e+09
-1.3762251e+09
-1.3269203e+09
-1.2683445e+09
-1.2025629e+09
-5.3273261e+09
6.1213001e+09
-6.608235e+10
4.9266447e+09
-6.7293919e+10
2.8972312e+09
4.2200451e+09
3.5632483e+09
-5.8704718e+10
-9.3416297e+08
-3.127804e+08
4.2572219e+09
3.782641e+09
-5.912369e+10
-8.7211371e+08
-2.4195717e+08
-7.2015184e+08
1.9149064e+09
-9.5785999e+09
1.7002943e+09
-1.1599136e+09
-9.619997e+09
2.6686017e+08
-5.6301066e+08
1.7842169e+09
-1.0113431e+10
1.8643096e+09
-1.0048193e+10
-1.8642434e+09
-4.8530899e+08
1.8344008e+09
-1.0042243e+10
-9.4209321e+08
-9.5329429e+09
1.6433145e+09
-9.4771897e+09
1.7683594e+09
-9.9771407e+09
-2.5296668e+08
-57810199
5.3996887e+08
-1.3481644e+09
-1.7853114e+09
-1.6653339e+09
-1.4229445e+09
45520345
-5.2274444e+08
-1.7353382e+09
-1.7156308e+09
-1.3930064e+09
-1.3675653e+09
-2.9101469e+08
-1.3262488e+09
-1.4436707e+09
-1.4051566e+09
-1.5175572e+09
-5.4706694e+08
-1.333513e+09
-1.4370822e+09
-1.4054842e+09
-1.2883069e+09
-10143007
-4.2400474e+08
-1.6633147e+09
-1.7810993e+09
-1.3432179e+09
-1.4090054e+09
-4.7715855e+08
-1.2927423e+09
-1.4238363e+09
-1.341009e+09
-1.4452083e+09
1.8313969e+08
-1.6960125e+09
-1.6829827e+09
-1.3575022e+09
-1.3390872e+09
-1.2610414e+09
-1.2418543e+09
-1.3467374e+09
-1.3477621e+09
34887578
-5.2077741e+08
-14371889
5.8713367e+08
-5.1141099e+08
-4.9140956e+08
-7.0900029e+08
-7.4757895e+08
-4.6737925e+08
-4206782.2
5.3757783e+08
-4.9953106e+08
-5.0499866e+08
-7.4159279e+08
-7.2288125e+08
69744459
-1.245102e+08
-2.6111903e+09
1.3323253e+08
-2.5618084e+09
4.5437555e+08
-1.1748142e+08
-2.5746002e+09
-29192744
5.3557105e+08
-4.8849846e+08
-7.0874727e+08
-5.0498707e+08
-7.4669174e+08
-4.1151188e+08
-13805208
4.7348402e+08
-7.2671931e+08
-4.9209339e+08
-4.7991916e+08
-6.9821093e+08
-1.4304909e+08
-2.5236455e+09
4.7778449e+08
-77550752
-2.5500249e+09
19254885
5.4706985e+08
-5.0531922e+08
-4.834748e+08
-7.0113464e+08
-7.4664514e+08
-4.3333127e+08
-3462071.4
4.9406838e+08
-4.8307158e+08
-4.945792e+08
-7.3539465e+08
-7.1241676e+08
-1.3024225e+08
-2.5842233e+09
-16885636
-4.5063074e+08
5.3764328e+08
-4.8126268e+08
-4.9829625e+08
-7.0881788e+08
-7.4037768e+08
-4.3306595e+08
5.026881e+08
-4.9922086e+08
-4.8280526e+08
-7.3210808e+08
-7.0091717e+08
-1.0860937e+08
-2.5476746e+09
-2.5022983e+09
-23773226
-4.6055227e+08
-17130187
5.2606645e+08
-4.9055145e+08
-5.0122e+08
-7.4083131e+08
-7.1769671e+08
-5.1738512e+08
11907617
5.9017177e+08
-5.2351443e+08
-5.041558e+08
-7.108862e+08
-7.6033037e+08
-75820994
1.3109598e+08
-2.5847888e+09
-1.3663528e+08
-2.6106318e+09
4.7639792e+08
-1.1965501e+08
-2.5863799e+09
-22205336
5.5143577e+08
-4.9037798e+08
-5.0866207e+08
-7.1381804e+08
-7.4908455e+08
-4.5150603e+08
5.2315325e+08
-4.8965196e+08
-4.9848505e+08
-7.3263762e+08
-7.0284051e+08
-2.5352565e+09
39397840
-5.4293304e+08
6.070424e+08
-5.2532148e+08
-5.0099972e+08
-7.117273e+08
-7.5683791e+08
-5.1234931e+08
9988559.7
5.8554593e+08
-7.5233511e+08
-5.1969743e+08
-5.0866833e+08
-7.2881001e+08
-62788790
-2.5819892e+09
-1.0462648e+08
-2.6437885e+09
-21100309
-5.0058507e+08
5.8108156e+08
-5.1848595e+08
-5.0209184e+08
-7.2235543e+08
-7.5451314e+08
-4.645473e+08
5.3025994e+08
-4.9507879e+08
-5.0542413e+08
-7.4294146e+08
-7.1138426e+08
-1.0362975e+08
-2.6204876e+09
-2.5745141e+09
-1.1194939e+10
2.5213127e+08
6.1609374e+08
-7.5203872e+08
-8.1218062e+08
5.9269396e+08
1.6760378e+08
6.0592926e+08
-8.1614437e+08
5.4262474e+08
-1.1789323e+10
-7.1945635e+08
-3.3804784e+08
1.0216008e+09
-4.5819035e+08
9.476401e+08
5.2927991e+08
1.1756917e+10
-6.1466119e+08
-1.4782833e+10
-5.3983926e+08
-6.0739677e+08
8.4374846e+08
7.4214911e+08
-1.4683275e+10
-4.7012876e+08
8.9142154e+08
-5.8728793e+08
8.2035723e+08
-8.4556752e+08
-4.0073596e+08
9.8229688e+08
-4.806009e+08
8.6593091e+08
4.5638743e+08
1.153972e+10
-1.4397177e+10
-7.5911691e+08
-5.4481549e+08
-6.0910788e+08
8.289379e+08
7.2142717e+08
1.1774322e+10
-1.4666265e+10
-5.004373e+08
8.5819858e+08
-6.0458994e+08
7.9189384e+08
6.338082e+08
-9.172883e+08
-4.0960213e+08
-4.8609583e+08
9.617888e+08
8.3782191e+08
9.7676324e+08
-3.830806e+08
-4.9076407e+08
8.974792e+08
-1.1275547e+10
-5.5056502e+08
6.5470454e+08
-5.9070766e+08
7.1215236e+08
-6.9571521e+08
6.4661527e+08
-4.5151621e+08
5.6193544e+08
-1.4325551e+10
-6.2109667e+08
-7.2236491e+08
6.536633e+08
5.8762121e+08
1.1103611e+10
-1.408269e+10
-7.073409e+08
-6.6178401e+08
-7.2377365e+08
6.3375719e+08
5.2909191e+08
-8.5001485e+08
-6.2493984e+08
-6.9428383e+08
6.9461166e+08
5.8293527e+08
-1.1319742e+10
-5.7379498e+08
-5.5593902e+08
7.5062123e+08
-6.7284226e+08
6.7993796e+08
4.8208863e+08
1.1364359e+10
-1.4481924e+10
-6.5658618e+08
-7.1892558e+08
6.4940343e+08
5.5414119e+08
-1.4265728e+10
-5.8808837e+08
6.8966402e+08
-6.9941035e+08
6.2120024e+08
-6.1785059e+08
-6.8797599e+08
7.158781e+08
6.111967e+08
-1.1242446e+10
-4.8252724e+08
-6.3284759e+08
6.4160456e+08
-7.4342171e+08
5.7741823e+08
3.501871e+08
1.1337164e+10
-1.4612435e+10
-4.3639217e+08
-7.1242477e+08
-7.6338285e+08
6.003524e+08
5.1523973e+08
-1.4385625e+10
5.6270958e+08
-6.3886787e+08
6.3891097e+08
-7.4222007e+08
5.8055018e+08
-5.8806658e+08
-6.9728806e+08
-7.5824422e+08
6.1035785e+08
5.1524211e+08
3.0781823e+08
-1.1452697e+10
-3.9607156e+08
-7.4070083e+08
5.941595e+08
-7.8863264e+08
5.1364885e+08
-1.1361305e+10
5.1149534e+08
-6.6997767e+08
6.250147e+08
-7.6139471e+08
5.7966708e+08
-2.1174651e+08
4.0949879e+08
5.7261224e+08
5.2641759e+08
-7.6278375e+08
-1.4355713e+10
-8.6529862e+08
-2.9501925e+08
5.3685578e+08
4.5754747e+08
-1.4482424e+10
-8.8689626e+08
-8.3120277e+08
-2.7910833e+09
-4.8827619e+10
3.9100752e+09
2.7710037e+09
2.3814061e+09
-3.5243751e+09
-4.2487366e+09
1.9509872e+08
1.1318506e+10
-3.6487537e+08
5.3304087e+08
4.4960332e+08
-1.4307406e+10
-8.8625171e+08
-8.3319154e+08
1.1437814e+10
5.4589563e+08
5.0115126e+08
-1.4543147e+10
-8.8673733e+08
-7.941383e+08
-2.8006328e+08
1.4536333e+10
-7.1052769e+08
5.8431037e+08
-7.8835919e+08
5.4170631e+08
-5.0847307e+10
-3.4554222e+09
2.2728064e+09
2.6724531e+09
-3.9775122e+09
-4.233323e+09
1.4362838e+10
-4.5123959e+08
-7.4641219e+08
5.8065124e+08
-7.8711883e+08
4.9435632e+08
3.0616973e+08
1.1126107e+10
-5.0999056e+08
-7.1468759e+08
5.8863754e+08
-7.6180199e+08
4.9898781e+08
1.1225827e+10
-6.7325167e+08
6.0130541e+08
-7.6237348e+08
5.4812356e+08
-4.939016e+08
-6.6669125e+08
6.0121343e+08
-7.6461423e+08
5.3853938e+08
-6.9722741e+08
-7.0196134e+08
5.9212846e+08
-7.6456086e+08
4.8827221e+08
2.5320676e+09
-3.6457201e+09
-6.4092384e+10
-4.3479262e+09
-3.9258347e+09
2.8105029e+09
2.3076993e+09
-6.1780495e+10
4.1921833e+09
2.9244291e+09
-3.7793698e+09
-4.3280501e+09
2.3787011e+09
-1.1139228e+10
-4.5031405e+08
1.4082612e+10
-6.4269707e+08
6.2147466e+08
-7.4857948e+08
5.6143422e+08
3.4520545e+08
1.1235849e+10
-1.4565377e+10
-4.4480544e+08
-7.1757716e+08
-7.6877507e+08
5.8988959e+08
5.0373455e+08
-1.4337396e+10
-6.5335339e+08
6.1773679e+08
-7.527998e+08
5.6170789e+08
-5.733575e+08
1.4290159e+10
-6.9968098e+08
-7.5928752e+08
5.9686141e+08
5.0431025e+08
1.873029e+08
1.1417643e+10
-2.8812629e+08
5.3244493e+08
4.5540371e+08
-1.4434949e+10
-8.8814863e+08
-8.3574723e+08
1.1315212e+10
5.5572509e+08
5.1167945e+08
-1.431772e+10
-8.7739935e+08
-7.7708564e+08
2.6662038e+08
-3.6055098e+08
-7.4855178e+08
5.8122184e+08
-7.9097464e+08
4.993432e+08
-6.8801896e+08
5.987515e+08
-7.7318041e+08
5.5363382e+08
-3.0828488e+09
-4.8722762e+10
2.3540386e+09
2.737718e+09
-3.5189856e+09
-4.2417636e+09
2.0255534e+08
1.1259726e+10
5.5102488e+08
4.7123212e+08
-1.421337e+10
-8.7062645e+08
-8.2342068e+08
1.1417593e+10
5.5304356e+08
5.0995045e+08
-1.4485701e+10
-8.8218465e+08
-7.9366331e+08
-2.6062068e+08
1.4516001e+10
-7.1028768e+08
5.8919917e+08
-7.8405665e+08
5.4596275e+08
-4.9673388e+10
2.2294862e+09
2.6976503e+09
-3.9097837e+09
-4.1757351e+09
1.4253066e+10
-7.3722912e+08
5.9106569e+08
-7.6985715e+08
5.1078566e+08
2.8608946e+08
1.1038015e+10
-7.086368e+08
5.9741955e+08
-7.5384636e+08
5.1018312e+08
-1.1180012e+10
-4.7119338e+08
1.4205441e+10
-6.6520053e+08
6.0146241e+08
-7.6245029e+08
5.3884149e+08
-6.7123331e+08
6.0748322e+08
-7.5959915e+08
5.529132e+08
1.3937038e+10
-6.9965451e+08
5.9208991e+08
-7.6159588e+08
4.9057609e+08
2.5997071e+09
-6.1883628e+10
-4.0627325e+09
-4.2847619e+09
2.7007025e+09
2.2812975e+09
-6.1583098e+10
2.6899953e+09
-3.8446485e+09
-4.283549e+09
2.3844133e+09
-1.1529034e+10
-7.2776434e+08
8.8884127e+08
-3.7788172e+08
9.5294187e+08
-4.9108129e+08
8.7370217e+08
4.9673569e+08
1.1366935e+10
-1.4221937e+10
-5.3704545e+08
-6.0242345e+08
8.2832287e+08
7.1851628e+08
6.6529756e+08
-1.4461847e+10
-4.9585023e+08
8.4724313e+08
-6.035282e+08
7.7261237e+08
-4.0718108e+08
9.3593289e+08
-4.8386617e+08
8.1592654e+08
-1.155145e+10
-6.9823005e+08
-3.5329959e+08
9.8421903e+08
-4.7035477e+08
9.1016779e+08
5.1716881e+08
1.1575307e+10
-1.4568329e+10
-5.4288608e+08
8.2709068e+08
-6.1056123e+08
7.2218674e+08
-1.441528e+10
-4.7817784e+08
8.6569202e+08
-5.921702e+08
7.9720103e+08
-4.1139597e+08
-4.9255527e+08
9.4621796e+08
8.2626599e+08
-1.1119633e+10
-5.7240633e+08
-5.6225179e+08
-6.7608839e+08
7.2451273e+08
6.5492445e+08
-4.3686312e+08
-5.9623129e+08
6.6664666e+08
-7.0184679e+08
6.0034966e+08
1.1217586e+10
-5.3070131e+08
-6.59552e+08
-7.1880247e+08
6.3754149e+08
5.40791e+08
-6.9236208e+08
-6.2177164e+08
-6.9360186e+08
6.9959137e+08
5.9109154e+08
4.1616108e+08
1.1002037e+10
-6.5711321e+08
-7.1675451e+08
6.3876868e+08
5.362048e+08
1.1169075e+10
-6.1681351e+08
-7.1567899e+08
6.5580641e+08
5.8738945e+08
-5.6062198e+08
-5.8757156e+08
7.0148215e+08
-6.924756e+08
6.3020539e+08
-6.1858297e+08
-6.9032949e+08
6.9531911e+08
5.814929e+08
2.1678569e+11
-3.5197302e+10
-2.509966e+11
4.9197834e+10
-3.0609375e+10
-2.734199e+10
3.4822239e+10
-5.1722356e+09
1.9138886e+10
1.5252603e+10
-1.0088705e+10
2.2053138e+11
-2.3914957e+11
-3.4517645e+10
1.9458332e+10
1.5164384e+10
-6.4001496e+09
-9.2846534e+09
4.5927165e+10
-5.2499746e+09
7.1764832e+09
-5.6107693e+10
3.5287381e+09
-2.0272064e+09
-2.739541e+09
3.0517786e+09
-3.0203119e+09
5.1266318e+09
2.830696e+09
-3.6159563e+09
-4.1516323e+09
2.4980726e+09
-4.7219014e+10
-4.2548607e+09
2.934671e+09
-3.8467365e+09
-4.0921818e+09
2.4762874e+09
-6.5405575e+09
-5.7638764e+10
-2.25002e+09
-2.7702981e+09
3.294286e+09
2.8632826e+09
4.5841589e+10
-4.7746737e+09
-5.6200623e+10
-2.6732864e+09
-2.010899e+09
3.3792246e+09
3.0663655e+09
-2.7407498e+09
-3.6723726e+09
-4.094735e+09
2.6318333e+09
2.4468117e+09
-4.5248054e+10
-3.693476e+09
-4.0122367e+09
2.8742028e+09
2.4296146e+09
-5.4951825e+10
-2.6254913e+09
-2.0724082e+09
3.3243837e+09
2.8015641e+09
2.2220253e+09
-2.8314106e+09
1.3055569e+08
-1.2230597e+08
-1.4115317e+08
1.2549702e+08
1.3545071e+08
1.5151489e+08
-1.1784264e+08
1.4277798e+08
1.3356716e+08
-1.3662768e+08
2.1999975e+09
-74098951
-2.8177242e+09
1.2254143e+08
-1.4646394e+08
-1.2765358e+08
1.2852263e+08
1.1909147e+08
-77038182
1.3670914e+08
-1.4399968e+08
-1.2525478e+08
1.3043338e+08
1.2077804e+08
2.2365538e+09
-2.8824197e+09
1.1260551e+08
-1.3844192e+08
1.271446e+08
-1.4674657e+08
1.3068227e+08
-1.3490771e+08
-1.4352325e+08
1.1485234e+08
5.0948643e+10
4.9003929e+10
4.6564739e+10
4.5654447e+10
4.1471888e+10
-6.6020139e+09
-4.4850932e+10
8.7426123e+09
4.472194e+09
3.7855107e+09
-6.0272468e+08
-1.565775e+09
-4.6829092e+10
4.4529996e+09
-9.4861917e+08
-8.5270945e+09
1.2288356e+10
-3.0917568e+09
-3.6520859e+09
-1.0834577e+10
-4.6440212e+08
1.4564752e+10
5.7791308e+08
7.4213369e+08
-7.9303906e+08
-8.6790351e+08
6.8704071e+08
-8.4708626e+08
1.1575271e+09
-1.3082197e+10
7.40596e+08
-6.1795303e+08
-7.2492045e+08
6.8365514e+08
1.0996154e+10
-9.0745706e+08
-1.3442868e+10
-7.3464389e+08
-6.7369541e+08
7.1897452e+08
6.4345294e+08
1.4613271e+10
-3.9888548e+08
6.4418203e+08
-8.8525323e+08
-8.9149708e+08
5.9852224e+08
-1.1436851e+10
-1.9282701e+08
1.4634119e+10
4.1464757e+08
6.4104041e+08
-8.4933369e+08
-9.2451439e+08
5.8663225e+08
-2.6090457e+08
4.9421535e+08
6.3423515e+08
-8.4726161e+08
-9.2460038e+08
6.0641546e+08
1.1378474e+10
-2.2351701e+08
-9.5171453e+08
-9.4351348e+08
5.7898011e+08
5.320261e+08
-1.9685842e+08
1.4754038e+10
5.5102184e+08
-9.4052761e+08
-9.5024513e+08
5.0043516e+08
-1.1503126e+10
-1.9387419e+08
1.4975676e+10
6.3916079e+08
-8.4299045e+08
-9.4710555e+08
6.0148198e+08
-1.8144852e+08
-1.4579762e+10
5.9771188e+08
-9.2271573e+08
-9.676125e+08
5.818383e+08
1.1513547e+10
-1.4729559e+10
-9.2447254e+08
-8.7368715e+08
6.723141e+08
5.7688218e+08
1.480375e+10
5.8973088e+08
-9.0306767e+08
-9.182507e+08
5.2809648e+08
1.0903578e+10
-1.3335447e+10
7.0654612e+08
-6.4971186e+08
-7.4554228e+08
6.6561669e+08
-2.3858981e+08
-9.1814253e+08
-8.5711187e+08
6.2929831e+08
6.2180019e+08
7.0987826e+08
-8.3933323e+08
1.1043978e+08
1.1395242e+10
-9.2086373e+08
-8.9432889e+08
5.5398251e+08
4.8812396e+08
1.1591219e+10
2.0453896e+08
-9.0358909e+08
-8.2211135e+08
5.9351659e+08
5.6239773e+08
-1.6864159e+08
3.0427225e+08
1.4733734e+10
5.5049955e+08
-8.2743323e+08
-8.9221753e+08
5.2588824e+08
1.4431623e+10
5.3959053e+08
-8.5987921e+08
-8.9043551e+08
4.6693311e+08
-1.6634996e+08
1.1319445e+10
3.7661978e+08
5.9994976e+08
-7.9561461e+08
-8.9708179e+08
5.6168456e+08
1.142236e+10
-9.3564392e+08
-9.0912515e+08
5.4157296e+08
4.8367896e+08
-2.2402969e+08
1.4358772e+10
4.0287239e+08
-8.6476645e+08
-7.777349e+08
5.7331431e+08
5.4149441e+08
1.4612814e+10
5.4324409e+08
-8.629803e+08
-8.9316378e+08
4.7820784e+08
-2.2280449e+08
1.1058725e+10
4.0940881e+08
5.7430031e+08
-7.6400507e+08
-8.4343304e+08
5.4027944e+08
1.1230594e+10
-2.9604565e+08
-8.6745864e+08
-8.312019e+08
5.4558649e+08
4.7879321e+08
-2.9468632e+08
4.5711173e+08
-8.4004917e+08
-7.5202832e+08
5.2864606e+08
4.9097714e+08
-4.2397045e+08
5.1299933e+08
-8.1812155e+08
-8.5912354e+08
4.4010929e+08
-1.6580639e+08
1.1275306e+10
5.5119811e+08
-7.9756292e+08
-8.705047e+08
5.1676679e+08
1.1106478e+10
-8.7526685e+08
-8.3536812e+08
5.3277133e+08
4.5653072e+08
-3.3596794e+08
-8.689983e+08
-7.7934428e+08
5.1166643e+08
4.6744073e+08
4.9797299e+08
-8.2531013e+08
-8.7056611e+08
4.1425134e+08
2.2166192e+09
-66334764
-2.8660941e+09
1.0952002e+08
1.1847644e+08
-1.3236166e+08
1.2690435e+08
-1.5091722e+08
-73418243
1.2974574e+08
-1.314589e+08
1.2685059e+08
1.1743262e+08
-1.4965149e+08
2.2479569e+09
-2.9244449e+09
-72636122
-1.5196622e+08
1.0972831e+08
-1.438386e+08
1.2423071e+08
-1.4189527e+08
1.263703e+08
-1.5101813e+08
1.1104357e+08
-46818972
2.2854702e+09
61917326
-2.9576463e+09
-1.4017375e+08
1.2501356e+08
1.1650864e+08
-1.5528898e+08
-2.9082418e+09
-1.5377359e+08
-1.4737306e+08
1.2182484e+08
1.0721856e+08
65176779
2.9186901e+09
1.1687393e+08
-1.4065869e+08
1.2318631e+08
-1.5358904e+08
2.2545698e+09
-58605658
-2.9021294e+09
94250102
1.2190136e+08
-1.3259354e+08
1.2928221e+08
-1.5052227e+08
-60152120
1.071064e+08
-1.3255137e+08
1.2825002e+08
1.1976185e+08
-1.4990293e+08
2.2898807e+09
-2.9666103e+09
1.1263452e+08
-1.4425203e+08
1.2667416e+08
-1.5235806e+08
-1.4348129e+08
1.2705522e+08
-1.5017521e+08
1.124241e+08
-1.3917841e+08
1.2178724e+08
1.1368301e+08
-1.5450378e+08
2.3331926e+09
-32481083
49258395
-3.0477807e+09
-1.3654329e+08
-1.5107564e+08
1.2891733e+08
1.2236771e+08
-47713461
61449827
-1.5565261e+08
1.2455651e+08
1.1741663e+08
-1.4104807e+08
2.3003274e+09
-2.9904046e+09
-67283328
-1.4151694e+08
-1.4830473e+08
1.1339208e+08
1.2814397e+08
-1.4828447e+08
-1.5520869e+08
1.2336904e+08
1.0828727e+08
2.3041795e+09
-40146917
-2.9860231e+09
63744468
1.2665532e+08
-1.2833381e+08
1.3431715e+08
-1.4546272e+08
-49724654
87169027
-1.3340503e+08
1.2933328e+08
1.2139956e+08
-1.505165e+08
2.3342815e+09
-3.0466441e+09
1.1936012e+08
-1.3727585e+08
1.3328266e+08
-1.4569464e+08
-1.441684e+08
1.2833301e+08
-1.5223164e+08
1.1378564e+08
-39513296
-2.4040046e+09
67667821
-1.4386143e+08
-1.6105378e+08
1.2200648e+08
1.1347034e+08
-2.4417827e+09
-50026159
1.2215182e+08
1.0639851e+08
-1.5543585e+08
-1.6430407e+08
-43883590
68643835
-3.0506047e+09
-1.6471436e+08
-50361897
-3.1176604e+09
-1.890032e+08
-45894930
-2.4359784e+09
-1.493321e+08
-1.6404339e+08
1.1895527e+08
1.1109816e+08
-2.4046969e+09
-77208357
1.1747321e+08
1.0113215e+08
-1.6009151e+08
-1.6716692e+08
44482689
-69807966
-3.0573686e+09
-2.1371994e+08
-3.1055257e+09
-1.8368327e+08
-48019984
-2.4016678e+09
2.9818902e+09
-1.5091825e+08
-1.6668517e+08
1.1600805e+08
1.0869075e+08
-2.4313208e+09
1.1698685e+08
1.0151426e+08
-1.5901797e+08
-1.6673672e+08
-49351001
-3.0515343e+09
-1.9019942e+08
-3.1071388e+09
-2.0962093e+08
1.1877119e+08
-1.3461758e+08
1.249229e+08
-1.5001476e+08
-1.03046e+08
1.4446972e+08
2.2533624e+08
2.2669091e+08
-3.0923571e+09
-64276713
-84710550
-1.2543835e+08
2.2558671e+08
2.0207227e+08
-3.1348593e+09
-76545142
-89785187
88383399
2.3161245e+08
2.0449248e+08
-3.0467031e+09
-71761734
-82492442
2.2597092e+08
2.1934253e+08
-3.1125198e+09
-85347160
-67965839
-1.0314055e+08
1.5112898e+08
2.3665039e+08
2.3182123e+08
-3.1021059e+09
-57284218
-78152407
-1.2533424e+08
2.3416184e+08
2.1502249e+08
-3.163621e+09
-70580271
-84220844
-98801829
2.2545279e+08
2.2472708e+08
-3.13549e+09
-67401365
-86465179
2.2513822e+08
1.9834242e+08
-3.0690446e+09
-73561153
-87802907
1.0277942e+08
-1.2605042e+08
2.3260771e+08
2.0859887e+08
-3.1685327e+09
-72449424
-85920130
1.3624619e+08
2.346427e+08
2.3686195e+08
-3.1294029e+09
-77571214
-59641679
98471094
2.3210386e+08
2.0677721e+08
-3.0786331e+09
-69371197
-82193925
2.3291168e+08
2.2866753e+08
-3.1520426e+09
-83232081
-64502798
-99576672
2.3729031e+08
2.4351915e+08
-3.1226278e+09
-72845132
-55195980
-1.1289504e+08
2.424739e+08
2.215056e+08
-3.1936145e+09
-78676622
-67183305
-86965948
2.3755002e+08
2.311881e+08
-3.1759518e+09
-63537438
-81432481
2.3954158e+08
2.1099793e+08
-3.1166647e+09
-81129486
-68592501
2.2171833e+10
1.8553752e+10
1.5523936e+10
-2.7555367e+11
-1.0023999e+10
-1.3320703e+10
1.8764453e+10
1.5155876e+10
2.375426e+10
-2.7561901e+11
-1.3883686e+10
-9.9474523e+09
-4.1916875e+09
-2.0979909e+09
2.6867628e+09
4.0472264e+09
4.6091166e+09
-6.0791693e+10
-1.2204079e+09
-1.764415e+09
6.1016672e+08
-7.6895634e+08
2.229209e+09
-1.2469157e+10
2.446747e+09
8.6659876e+08
-1.2435651e+10
-5.0201165e+09
6.7460405e+09
-5.3198822e+10
3.661007e+09
-5.3969023e+10
3.9971693e+09
4.5016033e+09
-6.0266924e+10
-1.3147893e+09
-1.8017266e+09
-5.6730467e+08
2.4183745e+09
-1.2344206e+10
2.2352926e+09
-1.2384617e+10
2.3841551e+08
7.7382791e+08
8.3043047e+08
-1.068629e+08
-2.7494967e+09
-2.6852728e+09
-2.0834132e+09
-2.1019859e+09
1.8285921e+08
1.5049347e+08
8.2433511e+08
7.4688849e+08
-2.6877443e+09
-2.7128102e+09
-2.0845166e+09
-2.0970314e+09
1.6631958e+08
1.4691704e+08
-1.4097254e+08
4.9326227e+08
1.8118101e+08
-1.3499314e+09
4.7534436e+08
-1.3613768e+09
37729771
2.6954987e+08
-3.3114824e+08
-3.2947428e+08
-2.3303125e+08
-2.2915383e+08
2.5307775e+08
64290783
-2.2392535e+08
-3.2310811e+08
-3.4588555e+08
-2.4001454e+08
-2.2773545e+08
46838946
-1.3810952e+08
-2.099554e+08
-2.1891495e+08
-1.4395664e+08
54573677
-3.9365445e+08
-1.7773068e+08
-1.7668979e+08
-3.5461473e+08
-2.5478768e+08
73465475
-2.0572756e+08
-2.2311586e+08
-1.4471126e+08
-1.3483808e+08
65930673
-1.5663275e+08
-1.7443338e+08
-3.5765178e+08
-3.5989987e+08
-2.8140081e+08
-28367760
-2.4870712e+08
68447728
-2.3044542e+08
-2.1052446e+08
-1.4254304e+08
-1.5489622e+08
-23144970
48253687
-3.7776857e+08
-1.7380918e+08
-1.9448138e+08
-3.8139629e+08
-2.2100863e+08
-2.5949526e+08
-2.2114264e+08
-2.1305001e+08
-1.4452158e+08
-1.4759609e+08
-1.75513e+08
-1.7036332e+08
-3.7671814e+08
-3.4466243e+08
1.3052522e+08
4.7249442e+08
-1.3647976e+09
4.9402202e+08
1.9784689e+08
-1.3433721e+09
-31162642
85413500
-3.4436588e+08