/*--------------------------------*- C++ -*----------------------------------*\
  =========                 |
  \\      /  F ield         | OpenFOAM: The Open Source CFD Toolbox
   \\    /   O peration     | Website:  https://openfoam.org
    \\  /    A nd           | Version:  7
     \\/     M anipulation  |
\*---------------------------------------------------------------------------*/
FoamFile
{
    version     2.0;
    format      ascii;
    class       volVectorField;
    location    "2000";
    object      U;
}
// * * * * * * * * * * * * * * * * * * * * * * * * * * * * * * * * * * * * * //

dimensions      [0 1 -1 0 0 0 0];

internalField   nonuniform List<vector> 
34356
(
(-1.1170684e+14 1.2700411e+13 8.4657149e+12)
(-7.5616015e+13 2.3335171e+13 5.2538333e+12)
(-1.0062339e+14 4.7845044e+12 8.0507365e+12)
(-1.1260555e+14 -6.0429279e+12 9.468225e+12)
(-9.2393522e+13 1.8723533e+13 2.6081426e+13)
(-8.7287329e+13 1.7703521e+13 2.4305766e+13)
(-1.4180012e+14 6.9753577e+12 8.7714767e+12)
(-9.9325908e+13 1.5134391e+13 2.9168349e+12)
(-1.0606587e+14 1.2583265e+13 4.7592205e+12)
(-9.5350103e+13 1.0892694e+13 -6.7390529e+12)
(-6.6490844e+13 1.3721281e+13 1.3348215e+12)
(-1.094676e+14 -1.906518e+12 -9.3267314e+12)
(-8.7368955e+13 -4.3442481e+12 7.0054392e+12)
(-9.0884079e+13 -4.6778404e+12 9.0687052e+12)
(-8.4746171e+13 1.2736624e+12 8.2709039e+12)
(-9.0847512e+13 7.7837306e+12 2.1230667e+13)
(-9.2161039e+13 9.992191e+12 2.1692692e+13)
(-8.677996e+13 2.1433178e+12 9.9605907e+12)
(-9.4570003e+13 9.1382076e+12 2.3229975e+13)
(-9.2589482e+13 -4.2321424e+12 1.1357772e+13)
(-9.6270938e+13 1.0797177e+13 2.5224232e+13)
(-1.0473691e+14 1.7071786e+13 1.4688355e+13)
(-1.0510663e+14 8.5213507e+12 -1.1283072e+13)
(-1.0000197e+14 1.194753e+13 -1.1755299e+13)
(-1.0936902e+14 7.2121917e+12 1.6124258e+13)
(-1.4111934e+14 5.7233971e+12 7.2451281e+12)
(-8.2153146e+13 1.7195499e+13 1.3160098e+13)
(-8.5762777e+13 1.1377495e+13 1.3603037e+13)
(-7.6639651e+13 2.1056209e+13 -9.0248674e+12)
(-8.3580246e+13 1.1889804e+13 -1.0708777e+13)
(-9.4041365e+13 7.7236723e+12 -2.9341266e+11)
(-9.8033795e+13 1.3983607e+13 1.4118348e+13)
(-9.3353033e+13 8.7057219e+12 3.9794867e+12)
(-9.1199348e+13 4.5982543e+12 -1.1678506e+13)
(-9.4221459e+13 8.0124025e+12 7.2475756e+12)
(-9.6236095e+13 7.9556305e+12 8.2998349e+12)
(-9.6495703e+13 7.5900222e+12 8.5848487e+12)
(-9.9949656e+13 8.1388504e+12 1.0614519e+13)
(-8.376793e+13 2.848806e+12 -4.0372567e+12)
(-9.0187775e+13 9.5054744e+12 -1.3983727e+13)
(-8.9097622e+13 8.6456582e+12 -1.347393e+13)
(-7.8436908e+13 8.2628429e+12 -4.4387226e+12)
(-7.1692395e+13 3.6621701e+12 -1.0781515e+13)
(-5.0318109e+13 7.4827482e+12 3.5184543e+12)
(-7.9339079e+13 -3.6006445e+12 -1.2311481e+13)
(-6.3055064e+13 -5.6340396e+12 7.6353584e+12)
(-9.054735e+13 9.7665139e+12 -1.433288e+13)
(-8.9080577e+13 1.0224575e+13 -1.2972451e+13)
(-7.9793006e+13 9.9086616e+12 -4.203215e+12)
(-8.4799075e+13 3.3564163e+12 -4.3527869e+12)
(-8.0293559e+13 -2.8123525e+12 -1.2189871e+13)
(-7.3853726e+13 5.7679148e+12 -1.0552614e+13)
(-6.4496532e+13 -4.0544471e+12 8.2170027e+12)
(-5.4061953e+13 9.4095538e+12 4.7886607e+12)
(-8.4977954e+13 5.4782024e+12 1.9138892e+13)
(-7.5018212e+13 -3.357147e+12 1.0787068e+13)
(-6.9924112e+13 1.615678e+12 8.5397969e+12)
(-8.2440501e+13 4.9285583e+12 1.7060543e+13)
(-7.2322995e+13 -2.6175766e+12 8.3149268e+12)
(-8.4196155e+13 4.7367144e+12 1.7146099e+13)
(-6.8356962e+13 1.0341392e+12 7.6985817e+12)
(-8.1815392e+13 4.1168676e+12 1.6448974e+13)
(-7.4189121e+13 -2.4506134e+12 9.8648444e+12)
(-7.0002927e+13 1.735228e+12 8.9049777e+12)
(-8.5167693e+13 5.2717245e+12 1.8097768e+13)
(-8.3879028e+13 4.6979502e+12 1.7326873e+13)
(-8.6551537e+13 5.5043792e+12 2.0902166e+13)
(-7.6004152e+13 -3.0703187e+12 1.2256373e+13)
(-7.2459351e+13 1.3747034e+12 1.0724221e+13)
(-8.4515989e+13 4.7526866e+12 1.8940788e+13)
(-1.0121852e+14 1.1324116e+13 1.3529703e+13)
(-1.0176225e+14 5.30576e+12 1.2966165e+13)
(-9.8497364e+13 7.1401182e+12 -6.0022691e+12)
(-1.0178413e+14 4.8537271e+12 -4.0132624e+12)
(-9.8942754e+13 8.5393344e+12 4.4557352e+12)
(-9.4808174e+13 4.0621112e+12 -9.9556271e+12)
(-9.4458145e+13 5.110509e+12 -1.072734e+13)
(-1.0062975e+14 2.9430305e+12 4.1921497e+12)
(-1.0030819e+14 1.4882374e+13 1.3116048e+13)
(-9.7206475e+13 7.6076819e+12 3.3840757e+12)
(-9.3690302e+13 3.6202195e+12 -1.0654893e+13)
(-9.332958e+13 5.5432343e+12 -1.1243618e+13)
(-9.9166107e+13 2.6731873e+12 3.6863658e+12)
(-1.0457168e+14 6.6691155e+12 1.4877841e+13)
(-9.8530554e+13 5.9152196e+12 1.1280699e+13)
(-9.6725729e+13 1.1702075e+13 1.0902401e+13)
(-9.9524838e+13 4.1021315e+12 -4.9879109e+12)
(-9.7011229e+13 6.7769529e+12 -6.3365498e+12)
(-9.5254122e+13 9.5352317e+12 -3.5557977e+11)
(-9.0528341e+13 1.3624375e+13 2.1478441e+11)
(-8.5756992e+13 9.4507959e+12 -1.2789362e+13)
(-7.8982316e+13 1.7647134e+13 -1.1805274e+13)
(-8.9242379e+13 8.2374442e+12 1.3839754e+13)
(-8.3469456e+13 1.4486244e+13 1.2818037e+13)
(-8.251368e+13 2.7579219e+12 -3.6470367e+12)
(-7.6614699e+13 1.9193682e+13 -2.1311122e+13)
(-1.0681403e+14 1.2190854e+13 1.8179526e+13)
(-7.8748931e+13 7.8421978e+12 2.2619965e+12)
(-9.1879526e+13 9.4829311e+12 8.2336638e+12)
(-9.4785917e+13 2.0758006e+12 8.2264988e+12)
(-7.8181922e+13 8.205008e+12 1.1652034e+12)
(-8.95703e+13 4.9577412e+12 -1.2260549e+13)
(-8.8188511e+13 5.0509877e+12 -1.1655701e+13)
(-8.9828694e+13 8.5706583e+12 -7.4291237e+11)
(-9.3658713e+13 2.5587246e+12 -2.9998268e+11)
(-8.2769492e+13 4.5290221e+12 1.6439559e+12)
(-8.0518643e+13 2.834231e+12 -6.1399916e+12)
(-8.150069e+13 1.7961915e+12 -5.2921752e+12)
(-8.3455931e+13 1.1832094e+12 -9.797861e+10)
(-8.2618809e+13 3.9548681e+12 2.6358646e+11)
(-8.1736835e+13 1.7254452e+12 -7.6477655e+12)
(-8.1287575e+13 2.6005496e+12 -8.4364474e+12)
(-8.1699362e+13 1.4168856e+12 -8.6250822e+12)
(-8.3566539e+13 4.2546543e+12 8.5619367e+12)
(-8.210441e+13 4.6810816e+12 7.6789211e+12)
(-8.4970571e+13 4.6672153e+12 9.9482214e+12)
(-8.2511687e+13 4.5136561e+12 7.8702741e+12)
(-8.5516586e+13 4.631867e+12 9.3857127e+12)
(-8.3699051e+13 4.4799556e+12 8.3771689e+12)
(-8.6736674e+13 4.8915431e+12 1.1553318e+13)
(-8.4772793e+13 4.3721347e+12 9.479219e+12)
(-1.1018519e+14 9.5794693e+12 -6.9079128e+12)
(-1.1074054e+14 1.0786671e+13 -7.1764311e+12)
(-9.5679632e+13 4.7228069e+12 -1.2766915e+13)
(-9.1276197e+13 7.6486612e+12 1.0537822e+12)
(-9.0625282e+13 8.5570097e+12 2.1819766e+12)
(-9.5396727e+13 3.4789118e+12 -1.2554065e+13)
(-5.7638894e+13 -3.3346919e+11 -7.7381083e+12)
(-6.5029888e+13 5.2924846e+12 -1.4609796e+13)
(-6.4262782e+13 4.8648901e+12 -1.4461356e+13)
(-5.5028531e+13 3.6416249e+12 -7.8970344e+12)
(-4.1615506e+13 3.1708289e+12 -8.3773118e+12)
(-3.5843665e+13 5.7917439e+12 5.2236312e+12)
(-4.33516e+13 -3.5596184e+12 8.4870022e+12)
(-4.6863625e+13 -2.0826491e+12 -8.8696513e+12)
(-5.8121138e+13 5.9899636e+11 -8.1940745e+12)
(-6.5538297e+13 6.1559541e+12 -1.4899905e+13)
(-6.482574e+13 5.7577824e+12 -1.4389985e+13)
(-5.5453663e+13 4.6762575e+12 -7.9941766e+12)
(-4.7412631e+13 -1.2757273e+12 -8.4209245e+12)
(-4.260205e+13 4.4296667e+12 -7.6970676e+12)
(-4.4323012e+13 -3.086019e+12 8.6330336e+12)
(-3.689919e+13 7.135986e+12 5.4642414e+12)
(-9.1898623e+13 8.4548879e+12 8.0466939e+11)
(-9.0966074e+13 9.5832347e+12 2.1763159e+12)
(-9.588371e+13 4.7927664e+12 -1.2267882e+13)
(-9.6704874e+13 5.3064775e+12 -1.2808827e+13)
(-6.6496904e+13 6.2115871e+12 -1.5231672e+13)
(-6.5625179e+13 6.3064948e+12 -1.4344508e+13)
(-5.6903728e+13 5.1098204e+12 -8.2964261e+12)
(-5.8964326e+13 6.9864388e+11 -8.5653922e+12)
(-5.8638262e+13 8.8259144e+11 -8.0079342e+12)
(-6.5777755e+13 6.2391849e+12 -1.4665199e+13)
(-6.4934354e+13 6.3719387e+12 -1.4020242e+13)
(-5.6120948e+13 5.3424767e+12 -7.997429e+12)
(-4.7915096e+13 -5.0762986e+11 -8.4946976e+12)
(-4.4343955e+13 5.0494157e+12 -7.6074116e+12)
(-4.5509165e+13 -2.2798417e+12 9.1581619e+12)
(-3.9843177e+13 7.6013792e+12 6.9917053e+12)
(-4.7970662e+13 -5.411526e+11 -8.3937498e+12)
(-4.4647043e+13 -2.0724981e+12 8.873799e+12)
(-4.2820643e+13 5.2151295e+12 -8.0273402e+12)
(-3.7317424e+13 7.9407522e+12 5.6869559e+12)
(-6.4024451e+13 -1.9332393e+12 1.1590925e+13)
(-6.2089334e+13 1.388277e+12 1.0554015e+13)
(-7.2834764e+13 2.765082e+12 1.5909125e+13)
(-7.3546255e+13 2.9569461e+12 1.6861275e+13)
(-7.228794e+13 2.9822206e+12 1.4482901e+13)
(-6.2446888e+13 -1.2441476e+12 9.5894664e+12)
(-6.0508362e+13 1.6586445e+12 9.3388092e+12)
(-7.1237865e+13 3.1069941e+12 1.3889361e+13)
(-7.3066436e+13 2.9037041e+12 1.5498121e+13)
(-6.280263e+13 -1.6552812e+12 1.0188995e+13)
(-6.0741813e+13 1.4648267e+12 9.4494264e+12)
(-7.2217614e+13 2.7569004e+12 1.4738757e+13)
(-6.2149446e+13 -1.772472e+12 9.3574885e+12)
(-6.1384954e+13 7.2965245e+11 9.859617e+12)
(-7.1606848e+13 2.6228261e+12 1.4187621e+13)
(-7.1070681e+13 2.3668423e+12 1.4242619e+13)
(-6.1624015e+13 1.6706607e+12 1.0417098e+13)
(-6.4235255e+13 -1.6129701e+12 1.1484186e+13)
(-7.3876228e+13 2.8678594e+12 1.6761406e+13)
(-7.2640302e+13 2.994345e+12 1.5513974e+13)
(-7.2688657e+13 2.9278962e+12 1.5093408e+13)
(-6.2969863e+13 -1.413561e+12 1.0203578e+13)
(-6.1628655e+13 8.9457189e+11 1.0601914e+13)
(-7.1991191e+13 2.7987309e+12 1.4939108e+13)
(-6.464525e+13 -1.8751533e+12 1.2219712e+13)
(-6.3340468e+13 1.1548741e+12 1.1840975e+13)
(-7.3979803e+13 2.9911689e+12 1.7789584e+13)
(-7.3743943e+13 2.4375503e+12 1.7193493e+13)
(-6.3859602e+13 -1.3423946e+12 1.0967459e+13)
(-6.2481528e+13 1.5453573e+12 1.0859683e+13)
(-7.3432783e+13 2.6826954e+12 1.6041819e+13)
(-7.2656482e+13 2.79938e+12 1.5454247e+13)
(-8.5137967e+13 2.6048925e+12 -9.5389752e+11)
(-8.1671856e+13 2.1927053e+11 -9.9044296e+12)
(-8.9239235e+13 7.4795965e+12 1.3648232e+13)
(-8.5939031e+13 4.3100215e+12 -6.0079416e+10)
(-8.8058853e+13 3.4143638e+12 1.4053323e+12)
(-8.8924657e+13 2.8662888e+12 1.2740641e+13)
(-8.5076762e+13 4.5114361e+12 -6.2768941e+11)
(-8.6383024e+13 2.6220397e+12 3.319749e+11)
(-8.8095251e+13 2.8776494e+12 1.1837268e+13)
(-8.8425151e+13 6.7646435e+12 1.1945487e+13)
(-8.5037839e+13 5.4560573e+12 4.6009528e+12)
(-8.2456511e+13 2.8996373e+12 -4.7838427e+12)
(-8.1511445e+13 4.4022237e+12 -5.2874578e+12)
(-8.5581644e+13 2.6972655e+12 4.4409143e+12)
(-8.705501e+13 6.0431907e+12 6.3330489e+12)
(-8.2394059e+13 3.7412391e+12 -4.6306225e+12)
(-8.3793663e+13 3.0391493e+12 -3.3232637e+12)
(-8.6815377e+13 2.2526744e+12 5.5155038e+12)
(-8.4194374e+13 4.9637831e+12 1.6020894e+12)
(-8.2575769e+13 2.9691178e+12 -6.2514736e+12)
(-8.3625693e+13 2.0196611e+12 -5.1106415e+12)
(-8.4629541e+13 1.862489e+12 9.9422417e+11)
(-8.5874445e+13 9.2454835e+11 3.3676929e+11)
(-8.5424546e+13 3.7540602e+12 9.6761898e+11)
(-8.3954482e+13 1.2923748e+12 -6.2684828e+12)
(-8.2696151e+13 2.0984735e+12 -7.2484235e+12)
(-9.3282174e+13 7.8983201e+12 -7.0543108e+11)
(-8.263231e+13 2.4463221e+12 -7.5951863e+12)
(-8.3194329e+13 8.4784777e+11 -7.1930339e+12)
(-8.4855146e+13 3.1739424e+12 -1.7054623e+11)
(-9.7681698e+13 2.1449391e+12 4.5808669e+11)
(-8.5616906e+13 1.0151917e+12 -1.3418694e+11)
(-8.2159608e+13 3.3266812e+12 -6.8532804e+12)
(-8.2612124e+13 1.6100274e+12 -6.5075199e+12)
(-8.2490404e+13 4.89796e+12 -2.4446404e+11)
(-8.3144154e+13 2.7664859e+12 -2.1100796e+11)
(-9.0579696e+13 5.1698555e+12 -1.2429682e+13)
(-8.9342448e+13 4.8346424e+12 -1.2186041e+13)
(-8.2707115e+13 4.6256212e+12 9.9051995e+11)
(-8.1893666e+13 3.1357544e+12 -6.8779655e+12)
(-8.2643563e+13 1.8553734e+12 -6.0700521e+12)
(-8.3455907e+13 1.7775525e+12 6.3523412e+11)
(-8.2322686e+13 2.0461589e+12 -7.4612342e+12)
(-8.3251299e+13 1.0646071e+12 -6.8145409e+12)
(-8.5581832e+13 6.7688381e+11 2.6384283e+11)
(-8.475797e+13 3.4512124e+12 5.1110173e+11)
(-9.2181377e+13 7.9348652e+12 -9.6460101e+11)
(-8.2515868e+13 2.4337319e+12 -7.3486243e+12)
(-8.318331e+13 8.4840088e+11 -7.0469828e+12)
(-8.4826488e+13 3.0532467e+12 7.551417e+09)
(-9.6460678e+13 3.062509e+12 1.7028465e+10)
(-8.5491154e+13 8.2499379e+11 2.2727908e+11)
(-8.1988459e+13 3.284618e+12 -6.6887316e+12)
(-8.2005135e+13 4.7587494e+12 -3.1026905e+11)
(-8.2614102e+13 1.4554163e+12 -6.4626911e+12)
(-8.2831674e+13 2.6809519e+12 -1.6769475e+11)
(-8.9855529e+13 6.1013384e+12 -1.2505885e+13)
(-8.7914332e+13 4.3838786e+12 -1.2171722e+13)
(-8.5911271e+13 7.4620596e+12 1.1130248e+13)
(-8.4853199e+13 4.9822834e+12 -6.8173375e+11)
(-8.5392388e+13 3.3301699e+12 -2.4558033e+11)
(-8.6560834e+13 3.7480403e+12 1.1273123e+13)
(-8.6852988e+13 7.2081395e+12 1.247988e+13)
(-8.4734867e+13 4.2928092e+12 -4.1088018e+11)
(-8.6174123e+13 3.3434639e+12 6.4620889e+11)
(-8.7106313e+13 2.9754295e+12 1.1892625e+13)
(-8.4717871e+13 6.0679307e+12 5.5040216e+12)
(-8.2376078e+13 2.7064186e+12 -3.7463264e+12)
(-8.1380776e+13 3.6090905e+12 -4.8611901e+12)
(-8.5321574e+13 2.4479083e+12 4.9544433e+12)
(-8.1346736e+13 4.3497977e+12 -5.2197742e+12)
(-8.2124823e+13 2.5871754e+12 -4.722272e+12)
(-8.4012316e+13 5.6727202e+12 4.3208263e+12)
(-8.4855304e+13 3.0919207e+12 4.3620499e+12)
(-7.9292213e+13 2.024765e+13 -2.0253681e+13)
(-1.070404e+14 1.400287e+13 1.6457665e+13)
(-8.2435318e+13 1.4666822e+13 -1.8405122e+13)
(-1.1092183e+14 8.4969139e+12 1.8502657e+13)
(-7.8680497e+13 8.9443522e+12 1.7648835e+12)
(-9.2812159e+13 9.4700956e+12 7.2330719e+12)
(-9.5761871e+13 2.4435793e+12 7.719185e+12)
(-7.7830583e+13 9.6087065e+12 9.5226389e+11)
(-7.7766838e+13 8.7120954e+12 1.7613639e+12)
(-9.1150223e+13 8.490096e+12 6.807668e+12)
(-9.3175148e+13 2.9161452e+12 7.6065718e+12)
(-7.5762532e+13 1.0094901e+13 1.6009362e+12)
(-6.8301197e+13 2.1160577e+12 -2.8049963e+12)
(-7.0010393e+13 3.830468e+12 2.9124303e+12)
(-6.6739944e+13 2.0616817e+12 -3.3050809e+12)
(-6.8893916e+13 3.393125e+12 1.5734995e+12)
(-6.668018e+13 2.3266623e+12 -3.783775e+12)
(-6.9303331e+13 1.3753098e+12 1.2190979e+12)
(-8.0791434e+13 2.1215967e+13 -4.9331151e+12)
(-8.9220083e+13 1.2213522e+13 1.7186399e+13)
(-9.253653e+13 8.257537e+12 1.7500529e+13)
(-6.3804507e+13 1.678249e+13 -1.0918409e+13)
(-6.5021356e+13 1.3178588e+13 -1.0867436e+13)
(-8.8198923e+13 5.1471572e+12 5.5961982e+12)
(-7.4053968e+13 5.4298911e+12 -5.1293411e+11)
(-7.3872758e+13 5.6080747e+12 -1.2755341e+12)
(-8.8604118e+13 7.0068353e+11 4.586088e+12)
(-8.7435231e+13 2.9436973e+12 -1.8753745e+12)
(-8.3914994e+13 1.3288439e+12 -8.5354001e+12)
(-8.0989486e+13 2.1740978e+12 -1.0384665e+13)
(-8.6960869e+13 1.9225716e+11 -2.9261325e+12)
(-8.8114885e+13 2.2344046e+12 -1.9127682e+12)
(-8.1299822e+13 6.055345e+11 -1.0004893e+13)
(-8.2806302e+13 2.2038572e+12 -8.9016631e+12)
(-8.9082814e+13 -1.8190938e+11 -1.1978295e+12)
(-7.392326e+13 4.7928262e+12 -1.4204639e+12)
(-8.721722e+13 3.7654045e+12 3.8909302e+12)
(-9.0024725e+13 1.6004385e+11 5.8757864e+12)
(-8.3167281e+13 1.7860369e+12 -1.0596248e+13)
(-8.405686e+13 -2.3119587e+11 -8.411353e+12)
(-8.6851587e+13 2.2332726e+12 -1.8094286e+12)
(-8.6634855e+13 3.46606e+11 -2.455045e+12)
(-8.3795015e+13 7.468287e+11 -9.1388936e+12)
(-8.256544e+13 2.0982138e+12 -1.0893677e+13)
(-8.5985352e+13 3.2212967e+12 -1.5829991e+12)
(-8.6361476e+13 5.3980869e+11 -2.2243914e+12)
(-8.3397184e+13 1.162666e+12 -8.4015639e+12)
(-8.2798053e+13 2.4251554e+12 -9.4260941e+12)
(-8.3187559e+13 3.6538831e+12 -2.4026904e+12)
(-8.4200818e+13 1.090089e+12 -2.6170163e+12)
(-8.3469052e+13 2.9958416e+11 -9.2290687e+12)
(-8.2673283e+13 2.6957389e+12 -9.8782831e+12)
(-8.3845169e+13 3.4314463e+12 -3.0982406e+12)
(-8.4131286e+13 1.8069183e+12 -3.2351677e+12)
(-6.6849739e+13 1.6261381e+12 -3.8171617e+12)
(-6.7753871e+13 3.1120955e+12 4.3128199e+11)
(-6.6607185e+13 2.2194112e+12 -4.3623896e+12)
(-6.8164314e+13 1.3116308e+12 1.2184711e+11)
(-6.6654501e+13 9.616212e+11 -4.3351739e+12)
(-6.6178271e+13 2.0220204e+12 -4.6752789e+12)
(-6.8473122e+13 2.0116718e+12 -3.2732026e+11)
(-6.6851695e+13 1.5229576e+12 -3.5812857e+12)
(-6.8621575e+13 2.683868e+12 5.3292358e+11)
(-6.6691502e+13 1.8057204e+12 -4.0985964e+12)
(-6.8973061e+13 9.1582351e+11 2.0582473e+11)
(-6.6665657e+13 1.0613743e+12 -4.4922214e+12)
(-6.769857e+13 4.9413923e+11 -3.6767997e+12)
(-6.8534646e+13 1.9709432e+12 -6.8837e+11)
(-6.6939472e+13 1.6894531e+12 -4.0095165e+12)
(-6.876316e+13 9.4321216e+11 -8.6173092e+11)
(-6.7756611e+13 9.4483477e+11 -2.8454629e+12)
(-6.8778938e+13 2.3142821e+12 1.1498308e+11)
(-6.7357158e+13 1.41234e+12 -3.2901104e+12)
(-6.9226753e+13 6.7070609e+11 -1.3321875e+11)
(-7.0884391e+13 2.0648146e+12 3.166028e+11)
(-7.137045e+13 3.50684e+11 4.492348e+09)
(-7.0527691e+13 1.2660019e+12 -5.5820724e+12)
(-7.0299893e+13 1.4558468e+12 -6.0904202e+12)
(-7.0942573e+13 1.5898807e+12 -3.0011748e+10)
(-7.0998984e+13 8.4742648e+11 -8.149701e+11)
(-6.9808732e+13 1.9729465e+12 -6.9837468e+12)
(-7.003276e+13 8.6383657e+11 -6.3477251e+12)
(-7.0618666e+13 2.0523587e+12 -2.545845e+11)
(-7.0937333e+13 7.5164651e+11 -6.2587057e+11)
(-6.9844872e+13 1.0909742e+12 -6.3433798e+12)
(-6.9775132e+13 1.8405535e+12 -6.8435053e+12)
(-6.7020468e+13 8.7054787e+11 -3.6082567e+12)
(-7.1130103e+13 2.9349949e+12 7.7206909e+12)
(-7.061197e+13 2.6119172e+12 6.8143374e+12)
(-7.0235578e+13 2.5588124e+12 7.1573339e+12)
(-7.0793479e+13 2.6652454e+12 7.286799e+12)
(-7.1811721e+13 3.1345496e+12 8.8602319e+12)
(-7.1438322e+13 2.4835199e+12 7.8444858e+12)
(-7.11534e+13 2.884343e+12 7.3088505e+12)
(-7.0170059e+13 2.9366078e+12 6.7156787e+12)
(-7.1405492e+13 2.6147971e+12 7.5386361e+12)
(-7.209487e+13 2.8813844e+12 8.7239646e+12)
(-7.0860402e+13 2.8609892e+12 7.5045649e+12)
(-7.1586239e+13 2.8009729e+12 7.8933255e+12)
(-7.2575498e+13 3.1454008e+12 9.8088512e+12)
(-7.2550548e+13 2.2093848e+12 8.8841979e+12)
(-7.2405579e+13 2.6321603e+12 8.5582663e+12)
(-7.1566008e+13 2.5682192e+12 7.9901117e+12)
(-1.1223252e+14 8.7258636e+12 -6.2500196e+12)
(-1.1267111e+14 9.8760345e+12 -6.2165176e+12)
(-9.9831524e+13 4.4019772e+12 -9.9263843e+12)
(-6.9360595e+13 4.9273482e+12 -6.5770011e+12)
(-7.0405121e+13 4.5287659e+12 -7.3069748e+12)
(-9.3409797e+13 1.1576092e+13 -8.7934605e+12)
(-9.7673158e+13 5.2053523e+12 -9.6289059e+12)
(-9.9795942e+13 3.5322713e+12 -9.6635015e+12)
(-6.978632e+13 3.8112914e+12 -6.7007975e+12)
(-6.8817957e+13 4.3997337e+12 -6.3146605e+12)
(-7.279546e+13 -1.0756598e+12 -1.678596e+13)
(-7.3101826e+13 -1.5589933e+12 -1.6436846e+13)
(-3.5960589e+13 3.8741762e+12 -1.2355114e+13)
(-3.5247322e+13 3.5462282e+12 -1.2889582e+13)
(-3.2703008e+13 2.0942619e+12 -9.4277743e+12)
(-3.5293645e+13 -1.2413967e+12 -8.7287757e+12)
(-2.6280612e+13 2.0418382e+12 3.2640457e+11)
(-4.1290137e+13 3.0220061e+12 1.0141322e+13)
(-2.9347026e+13 -5.2275913e+11 6.3593663e+11)
(-4.3981764e+13 -1.8442035e+12 1.1551949e+13)
(-3.0721622e+13 -8.691467e+11 1.3922629e+12)
(-4.4467268e+13 -2.2527596e+12 1.1465252e+13)
(-2.6687167e+13 2.8562547e+12 9.0204381e+11)
(-4.0790145e+13 4.2316132e+12 9.159335e+12)
(-3.5084783e+13 4.1651385e+12 -1.2721601e+13)
(-3.592197e+13 4.405886e+12 -1.2562229e+13)
(-3.472906e+13 -5.9727266e+11 -9.0494098e+12)
(-3.2312754e+13 2.8540525e+12 -9.235474e+12)
(-7.2800387e+13 -3.479798e+11 -1.6888078e+13)
(-7.2931601e+13 -7.621259e+11 -1.6337727e+13)
(-3.5998596e+13 4.5724034e+12 -1.2882344e+13)
(-3.6728736e+13 4.6625511e+12 -1.2849201e+13)
(-3.557444e+13 -4.4254522e+11 -9.2235885e+12)
(-3.3037035e+13 3.2784617e+12 -9.4208821e+12)
(-3.5557375e+13 4.6081616e+12 -1.2588231e+13)
(-3.6452633e+13 4.5714481e+12 -1.2409415e+13)
(-3.549311e+13 -5.0687136e+11 -8.7641054e+12)
(-3.2057826e+13 3.4822878e+12 -9.5324885e+12)
(-3.2887615e+13 -1.324154e+12 2.5443684e+12)
(-2.8919621e+13 2.8260803e+12 1.9227823e+12)
(-4.2602874e+13 4.0051281e+12 1.0170192e+13)
(-4.5867182e+13 -2.672828e+12 1.2341663e+13)
(-4.4371511e+13 -1.2049967e+12 1.137938e+13)
(-4.0329011e+13 4.3849366e+12 9.277541e+12)
(-3.1436039e+13 -2.4540282e+11 1.7769055e+12)
(-2.601423e+13 3.5366751e+12 -1.1177832e+11)
(-9.3456486e+13 1.2326741e+13 -8.8030828e+12)
(-9.7736086e+13 6.2350799e+12 -9.1246146e+12)
(-9.9737785e+13 4.4408104e+12 -9.39876e+12)
(-6.9312508e+13 5.4399907e+12 -6.4816239e+12)
(-7.0673605e+13 4.5503865e+12 -7.2162311e+12)
(-1.0048971e+14 5.0132476e+12 -9.8506285e+12)
(-6.9895842e+13 5.3998804e+12 -6.9072204e+12)
(-7.1133545e+13 4.786504e+12 -7.7501501e+12)
(-7.3099652e+13 -1.5957418e+11 -1.6559179e+13)
(-7.3130707e+13 -1.952317e+11 -1.7230384e+13)
(-7.281439e+13 -2.1768351e+10 -1.6805773e+13)
(-7.2823997e+13 -1.7678784e+11 -1.6356438e+13)
(-4.3959471e+13 5.2224304e+12 -8.6553745e+12)
(-3.5459182e+13 2.2769182e+11 -9.8360648e+12)
(-3.6453618e+13 4.9153871e+12 -1.3050442e+13)
(-3.7210008e+13 4.8594013e+12 -1.3305159e+13)
(-3.3262275e+13 3.8250418e+12 -9.8163651e+12)
(-3.6587164e+13 5.0170997e+12 -1.2979478e+13)
(-3.7188469e+13 4.9097432e+12 -1.2867453e+13)
(-3.5569808e+13 1.3614724e+11 -9.1704839e+12)
(-3.2699872e+13 4.1336817e+12 -9.8693753e+12)
(-3.3369609e+13 -3.5833735e+11 1.9521776e+12)
(-4.6651483e+13 -1.9428568e+12 1.2456987e+13)
(-3.1327027e+13 2.9000418e+12 3.2625815e+12)
(-4.4485559e+13 3.9937723e+12 1.1020848e+13)
(-3.2940295e+13 3.1855841e+11 2.8083421e+12)
(-4.5742124e+13 -7.9794941e+11 1.192984e+13)
(-4.2297747e+13 4.5375342e+12 1.0269767e+13)
(-2.8211289e+13 3.8959271e+12 1.103347e+12)
(-3.7034185e+13 5.0979226e+12 -1.2922406e+13)
(-3.6375519e+13 5.031911e+12 -1.28436e+13)
(-3.5102117e+13 4.401467e+11 -9.3981819e+12)
(-3.2759581e+13 3.9873446e+12 -9.6865134e+12)
(-3.2619354e+13 -1.6187919e+11 2.8020302e+12)
(-4.5685406e+13 -1.7424199e+12 1.2145758e+13)
(-2.9031996e+13 3.5297933e+12 2.0801006e+12)
(-4.2081713e+13 4.8838652e+12 9.7980317e+12)
(-3.6344583e+13 4.7898148e+12 -1.2810044e+13)
(-3.6951077e+13 4.9543824e+12 -1.2612316e+13)
(-3.5287783e+13 1.4164004e+11 -9.1350953e+12)
(-3.2811746e+13 3.6037876e+12 -9.8019974e+12)
(-3.1484532e+13 3.2556755e+11 1.987292e+12)
(-2.7813676e+13 3.1435785e+12 8.6423247e+11)
(-4.429217e+13 -9.1599587e+11 1.1494579e+13)
(-4.1856311e+13 3.5188775e+12 1.0422971e+13)
(-4.9106957e+13 3.2487013e+12 1.1639264e+13)
(-5.0462836e+13 -5.9668831e+11 1.251168e+13)
(-6.4242681e+13 1.4187265e+12 1.3756385e+13)
(-6.3861069e+13 1.8388154e+12 1.2815761e+13)
(-4.8813467e+13 3.1293655e+12 1.1073849e+13)
(-4.9758288e+13 -1.0199387e+10 1.1248994e+13)
(-6.4359933e+13 1.4815221e+12 1.245594e+13)
(-6.4356492e+13 1.5905942e+12 1.2505266e+13)
(-4.9864622e+13 -7.3305654e+11 1.1965795e+13)
(-6.4138759e+13 1.5870391e+12 1.2534619e+13)
(-4.8100208e+13 3.165512e+12 1.0811433e+13)
(-6.4166928e+13 1.6957587e+12 1.2547856e+13)
(-6.357962e+13 1.7466212e+12 1.1976514e+13)
(-4.8796703e+13 2.4835009e+09 1.0934228e+13)
(-4.6905743e+13 3.2953162e+12 1.0481422e+13)
(-6.3166292e+13 2.1022258e+12 1.1556086e+13)
(-4.8105012e+13 3.1790629e+12 1.0873656e+13)
(-4.9472688e+13 -3.9725551e+11 1.1844953e+13)
(-6.3997628e+13 1.6360805e+12 1.2657577e+13)
(-6.4191471e+13 1.6581544e+12 1.2665486e+13)
(-4.6149623e+13 3.5453538e+12 9.7458889e+12)
(-4.8516234e+13 1.1472712e+11 1.0654205e+13)
(-6.4185668e+13 1.4483332e+12 1.1940832e+13)
(-6.3820851e+13 1.9347673e+12 1.149547e+13)
(-4.8268387e+13 -5.8606457e+11 1.1144841e+13)
(-4.693355e+13 2.2116712e+12 1.0195146e+13)
(-6.4095451e+13 1.1403147e+12 1.2695718e+13)
(-6.3807381e+13 1.5215623e+12 1.1992397e+13)
(-4.9580126e+13 -1.0916268e+12 1.1653039e+13)
(-4.7544552e+13 2.3959331e+12 1.0926493e+13)
(-6.3843301e+13 8.5946886e+11 1.2682645e+13)
(-6.3511691e+13 1.4869096e+12 1.2000884e+13)
(-4.730682e+13 3.397576e+12 1.0550522e+13)
(-4.9373857e+13 1.5853769e+11 1.1201757e+13)
(-6.4317567e+13 1.6612761e+12 1.2369452e+13)
(-6.3953237e+13 1.9489282e+12 1.1880291e+13)
(-5.064176e+13 3.2620949e+12 1.1929162e+13)
(-5.2130421e+13 -5.9421216e+11 1.2622513e+13)
(-6.4352639e+13 1.4081e+12 1.3331185e+13)
(-6.5089267e+13 1.5828522e+12 1.3199722e+13)
(-4.9796629e+13 -6.8948454e+11 1.202514e+13)
(-4.855972e+13 2.7931563e+12 1.12542e+13)
(-6.4336961e+13 1.3252576e+12 1.3140006e+13)
(-6.4256183e+13 1.5547914e+12 1.2791699e+13)
(-4.8924838e+13 2.5002846e+12 1.1959682e+13)
(-4.9407861e+13 -5.7197299e+11 1.159508e+13)
(-6.3740175e+13 1.5219679e+12 1.2480094e+13)
(-6.3471731e+13 1.8287458e+12 1.2176275e+13)
(-5.124623e+13 2.3837351e+12 1.2631907e+13)
(-5.1045716e+13 -1.1354709e+12 1.2711806e+13)
(-6.4241048e+13 1.4282339e+12 1.3306526e+13)
(-6.4640928e+13 1.2347297e+12 1.3536279e+13)
(-6.4811706e+13 1.1217489e+12 1.2990585e+13)
(-5.1467499e+13 -5.7500758e+11 1.2238957e+13)
(-5.0169593e+13 2.9576378e+12 1.1931774e+13)
(-6.4612014e+13 1.4815901e+12 1.2555541e+13)
(-4.9722754e+13 2.8900812e+12 1.1631202e+13)
(-5.1212099e+13 -8.375446e+11 1.2674659e+13)
(-6.4761097e+13 1.0770496e+12 1.3496887e+13)
(-6.4417774e+13 1.665034e+12 1.2588615e+13)
(-4.8876291e+13 3.0712287e+12 1.1507674e+13)
(-5.0007782e+13 -3.4539082e+11 1.167083e+13)
(-6.4298817e+13 1.2371545e+12 1.303523e+13)
(-6.3864225e+13 1.774422e+12 1.223792e+13)
(-1.1694681e+14 1.0375303e+13 -1.4662924e+13)
(-7.5396337e+13 1.2811971e+12 -1.6484723e+12)
(-7.3898031e+13 6.1389905e+10 -5.2513625e+12)
(-7.2404244e+13 3.562247e+11 -5.9155053e+12)
(-7.5055928e+13 -4.5881081e+11 -2.1938788e+12)
(-7.7164924e+13 8.9937129e+11 -2.1730665e+12)
(-7.4939727e+13 -2.4776594e+11 -6.7616736e+12)
(-7.624756e+13 -5.3164805e+11 -3.8896651e+12)
(-8.294105e+13 2.5666355e+12 -7.5493541e+12)
(-9.862549e+13 2.40195e+12 -4.8775402e+11)
(-8.5792062e+13 1.2697143e+12 -1.9741423e+11)
(-8.2633079e+13 3.5980954e+12 -6.5946349e+12)
(-9.0991631e+13 5.0447127e+12 -1.2813542e+13)
(-1.119211e+14 1.0052216e+13 1.7170527e+13)
(-8.1396294e+13 2.1216351e+13 -1.8772274e+13)
(-8.4645432e+13 1.6122649e+13 -1.7166105e+13)
(-9.537294e+13 2.8815645e+12 6.5857976e+12)
(-7.855376e+13 1.0402501e+13 6.4505176e+11)
(-7.3785901e+13 2.7046003e+12 4.2730665e+12)
(-7.4957563e+13 5.0007848e+12 1.2820638e+13)
(-7.3559518e+13 2.6077304e+12 3.4841398e+12)
(-7.5446849e+13 1.2758419e+12 1.2269525e+13)
(-7.0921885e+13 2.1179348e+12 -9.8293054e+11)
(-7.0237972e+13 2.9197982e+12 -1.4528242e+12)
(-7.3103602e+13 3.6420547e+12 6.235174e+12)
(-7.3229787e+13 1.543719e+12 6.0213983e+12)
(-7.1135917e+13 2.6871056e+12 -1.5336489e+11)
(-7.3682541e+13 4.4835176e+12 7.4914508e+12)
(-7.1099209e+13 2.6125564e+12 -7.938708e+11)
(-7.4083142e+13 1.4606416e+12 6.9874563e+12)
(-7.3435259e+13 1.9920024e+12 3.2984042e+12)
(-7.4500365e+13 4.6331307e+12 1.1325375e+13)
(-7.294783e+13 2.6387515e+12 2.8946814e+12)
(-7.4683986e+13 1.7193162e+12 1.1192605e+13)
(-7.0599849e+13 2.2621964e+12 -1.1802132e+12)
(-6.998799e+13 3.2234111e+12 -1.5249254e+12)
(-7.2724502e+13 3.7636269e+12 5.9619789e+12)
(-7.3010633e+13 1.8158276e+12 5.8829634e+12)
(-7.0664533e+13 2.1874437e+12 -7.6329609e+11)
(-7.3514334e+13 3.8655252e+12 6.7350269e+12)
(-7.0513571e+13 2.5872643e+12 -1.2693238e+12)
(-7.3941069e+13 1.3229447e+12 6.3926159e+12)
(-7.3100572e+13 2.1167989e+12 3.0642529e+12)
(-7.2604012e+13 2.9123887e+12 2.8052591e+12)
(-7.4194957e+13 4.8181149e+12 1.0923978e+13)
(-7.4307625e+13 2.0353709e+12 1.0898453e+13)
(-7.4636794e+13 4.8036384e+12 1.1755716e+13)
(-7.3509805e+13 2.221958e+12 3.492307e+12)
(-7.3075934e+13 2.5519091e+12 2.901016e+12)
(-7.4980541e+13 1.5850795e+12 1.1263484e+13)
(-6.8442816e+13 1.8396709e+12 -3.1937513e+12)
(-7.0087966e+13 3.4254978e+12 2.4525556e+12)
(-6.8145073e+13 2.7938227e+12 -3.6814969e+12)
(-7.0545852e+13 1.6066726e+12 2.1508716e+12)
(-6.6752552e+13 1.9247296e+12 -3.6080118e+12)
(-6.6622243e+13 2.5344808e+12 -4.0470302e+12)
(-6.8598173e+13 3.2665771e+12 1.1164173e+12)
(-6.908385e+13 1.609629e+12 8.3871354e+11)
(-6.6772011e+13 1.9245125e+12 -3.9425143e+12)
(-6.6222617e+13 3.125196e+12 -4.3686992e+12)
(-6.8440136e+13 3.2157324e+12 4.9335752e+11)
(-6.8661431e+13 2.1172306e+12 2.9522701e+11)
(-6.8296624e+13 1.8555002e+12 -3.5030496e+12)
(-6.7888145e+13 3.1578926e+12 -3.8479911e+12)
(-6.9641485e+13 3.9116142e+12 1.6330112e+12)
(-6.9851932e+13 2.530368e+12 1.5037252e+12)
(-6.8863196e+13 2.3033827e+12 -2.6274958e+12)
(-7.0648913e+13 4.0779498e+12 3.1045801e+12)
(-6.8690667e+13 2.748843e+12 -3.2580752e+12)
(-7.1113868e+13 1.7234224e+12 2.6603235e+12)
(-6.7041409e+13 1.7529256e+12 -3.7036784e+12)
(-6.6428541e+13 2.718986e+12 -4.1866939e+12)
(-6.8797297e+13 2.9739505e+12 7.9886783e+11)
(-6.8938661e+13 1.5825186e+12 5.829709e+11)
(-6.7206906e+13 2.2918364e+12 -2.9506764e+12)
(-6.9288488e+13 3.6319946e+12 1.7949078e+12)
(-6.7167577e+13 2.4707485e+12 -3.551146e+12)
(-6.9706186e+13 1.5006907e+12 1.3611299e+12)
(-6.8570989e+13 1.656391e+12 -3.3457297e+12)
(-6.8053805e+13 2.7636157e+12 -3.7593594e+12)
(-7.0037561e+13 3.7396566e+12 1.9876871e+12)
(-7.0135457e+13 2.1662241e+12 1.7255662e+12)
(-6.7015926e+13 1.8713359e+12 -3.4129625e+12)
(-6.7996096e+13 3.3855587e+12 7.8866763e+11)
(-6.6895721e+13 2.4022622e+12 -4.0734246e+12)
(-6.8479668e+13 1.5130301e+12 3.5837441e+11)
(-6.6945552e+13 1.1506515e+12 -3.9998557e+12)
(-6.6424717e+13 2.1513042e+12 -4.4948071e+12)
(-6.8395227e+13 2.2097657e+12 -1.9878455e+11)
(-6.8503524e+13 1.1351759e+12 -4.6654098e+11)
(-6.7098288e+13 1.7666676e+12 -3.14679e+12)
(-6.8614665e+13 2.9407492e+12 7.8545426e+11)
(-6.7108916e+13 1.9887831e+12 -3.8257781e+12)
(-6.9043088e+13 1.1703106e+12 3.0258539e+11)
(-6.6823781e+13 1.2410141e+12 -4.1234736e+12)
(-6.6316487e+13 2.3810538e+12 -4.584366e+12)
(-6.7614456e+13 3.072685e+12 -2.5262561e+11)
(-6.7737735e+13 1.8467444e+12 -5.1720733e+11)
(-6.7902415e+13 5.4434016e+11 -3.5364649e+12)
(-6.8695681e+13 2.0562311e+12 -6.8582707e+11)
(-6.7325499e+13 1.763294e+12 -4.0884241e+12)
(-6.8860449e+13 1.1287039e+12 -9.8292606e+11)
(-6.8200022e+13 1.1863483e+12 -2.6200494e+12)
(-6.8956444e+13 2.5692207e+12 3.3850585e+11)
(-6.7972697e+13 1.5184264e+12 -3.2598022e+12)
(-6.9484437e+13 9.0323127e+11 -1.2217411e+11)
(-7.1502245e+13 2.0564202e+12 7.2408633e+11)
(-7.172881e+13 3.9016151e+11 1.6065795e+11)
(-7.110425e+13 1.1546714e+12 -4.4374343e+12)
(-8.5921718e+13 2.829485e+12 -7.9072324e+11)
(-7.0755314e+13 1.4750208e+12 -5.5338597e+12)
(-7.1334059e+13 1.3775247e+12 -2.348067e+11)
(-7.1099527e+13 7.1912218e+11 -7.9346383e+11)
(-8.5312354e+13 7.1901992e+11 -1.8589861e+12)
(-6.9813938e+13 1.9524917e+12 -6.4623731e+12)
(-7.0491508e+13 5.4407315e+11 -5.3160592e+12)
(-8.5294372e+13 1.5866085e+11 -6.7985792e+12)
(-8.3149141e+13 2.2312517e+12 -1.0029105e+13)
(-7.1274167e+13 1.5479232e+12 -2.90772e+11)
(-7.1148452e+13 8.5635e+11 -7.531045e+11)