/*--------------------------------*- C++ -*----------------------------------*\
  =========                 |
  \\      /  F ield         | OpenFOAM: The Open Source CFD Toolbox
   \\    /   O peration     | Website:  https://openfoam.org
    \\  /    A nd           | Version:  7
     \\/     M anipulation  |
\*---------------------------------------------------------------------------*/
FoamFile
{
    version     2.0;
    format      ascii;
    class       volScalarField;
    location    "5000";
    object      p;
}
// * * * * * * * * * * * * * * * * * * * * * * * * * * * * * * * * * * * * * //

dimensions      [0 2 -2 0 0 0 0];

internalField   nonuniform List<scalar> 
33730
(
-9.989612e+61
-9.3674038e+61
-1.0100508e+62
-9.7909739e+61
-9.5832356e+61
-9.7024336e+61
-9.633963e+61
-9.6966764e+61
-9.5455724e+61
-8.7168039e+61
-9.0459752e+61
-9.3025564e+61
-9.3773896e+61
-9.2234935e+61
-9.7811327e+61
-9.8789572e+61
-9.774476e+61
-9.87069e+61
-9.7649607e+61
-9.786394e+61
-9.7661228e+61
-9.668203e+61
-9.62694e+61
-9.5123803e+61
-9.5509094e+61
-9.6301698e+61
-9.6107767e+61
-9.5268013e+61
-9.5462485e+61
-9.5373489e+61
-9.5850503e+61
-9.4251155e+61
-9.4700402e+61
-8.9910516e+61
-8.615799e+61
-8.6701329e+61
-8.9232329e+61
-8.7142143e+61
-8.8902056e+61
-8.7387954e+61
-8.8622763e+61
-8.4017437e+61
-9.0410079e+61
-9.0117191e+61
-9.1948987e+61
-8.0502342e+61
-8.0863774e+61
-9.349184e+61
-9.3111889e+61
-9.4016522e+61
-9.4200323e+61
-9.233591e+61
-9.2744835e+61
-9.5969656e+61
-9.5484413e+61
-9.5939293e+61
-9.6430287e+61
-9.6400342e+61
-9.6856713e+61
-9.7289628e+61
-9.682565e+61
-9.6148124e+61
-9.6633179e+61
-9.6447711e+61
-9.5961759e+61
-9.7071821e+61
-9.7496511e+61
-9.7296386e+61
-9.6879865e+61
-9.6048955e+61
-9.6685784e+61
-9.6888932e+61
-9.7104343e+61
-9.6896671e+61
-9.6890209e+61
-9.7093682e+61
-9.6595933e+61
-9.6793834e+61
-9.4937623e+61
-9.5754125e+61
-9.5950783e+61
-9.5120903e+61
-9.5349612e+61
-9.5562546e+61
-9.4538453e+61
-9.474224e+61
-9.5735244e+61
-9.5827655e+61
-9.5184122e+61
-9.5280083e+61
-9.5555137e+61
-9.5645973e+61
-9.5000159e+61
-9.5090267e+61
-9.4509349e+61
-9.4726978e+61
-9.372558e+61
-9.3924104e+61
-9.4942601e+61
-9.4143098e+61
-9.5169264e+61
-9.4366607e+61
-8.7676709e+61
-8.8347722e+61
-8.6157357e+61
-8.4517788e+61
-9.1334974e+61
-9.1689485e+61
-8.9878651e+61
-8.9552873e+61
-8.7556989e+61
-8.6188331e+61
-8.6427278e+61
-8.7827095e+61
-8.810606e+61
-8.6659095e+61
-8.693123e+61
-8.3643283e+61
-8.8399029e+61
-8.0214651e+61
-9.0635605e+61
-8.892813e+61
-8.9244745e+61
-9.0995439e+61
-8.7350073e+61
-8.7234268e+61
-8.7877916e+61
-8.569654e+61
-8.8000866e+61
-8.8919187e+61
-8.8779017e+61
-8.9672747e+61
-8.9528195e+61
-8.7581438e+61
-8.7454078e+61
-8.8248356e+61
-8.8116289e+61
-8.5924088e+61
-8.8655803e+61
-8.8527966e+61
-8.927143e+61
-8.9402465e+61
-8.4305869e+61
-8.4091231e+61
-9.0283397e+61
-9.1159968e+61
-9.0432374e+61
-9.0879546e+61
-9.0156162e+61
-9.0020146e+61
-9.1026044e+61
-9.1942872e+61
-9.3071267e+61
-9.178762e+61
-9.2901561e+61
-9.208376e+61
-7.3684092e+61
-7.720863e+61
-8.0476359e+61
-8.2450079e+61
-8.2637562e+61
-8.0592441e+61
-8.0781275e+61
-8.283659e+61
-9.3879363e+61
-9.3688405e+61
-9.3509066e+61
-9.331287e+61
-9.4223492e+61
-9.4313356e+61
-9.440109e+61
-9.4503789e+61
-9.2559455e+61
-9.2742927e+61
-9.2938326e+61
-9.3163366e+61
-9.428631e+61
-9.5139283e+61
-9.43866e+61
-9.3941597e+61
-9.4457721e+61
-9.4895812e+61
-9.4764999e+61
-9.5286043e+61
-9.5695115e+61
-9.5178652e+61
-9.5034276e+61
-9.5265927e+61
-9.5472967e+61
-9.5235637e+61
-9.5686645e+61
-9.5484419e+61
-9.570769e+61
-9.5917002e+61
-9.5686078e+61
-9.5911654e+61
-9.5407698e+61
-9.563213e+61
-9.5228586e+61
-9.5462803e+61
-9.4956541e+61
-9.5183904e+61
-9.5901755e+61
-9.6126038e+61
-9.6341295e+61
-9.6112809e+61
-9.6518515e+61
-9.6325264e+61
-9.6533457e+61
-9.6731231e+61
-9.6721894e+61
-9.6240908e+61
-9.6432017e+61
-9.65311e+61
-9.6112839e+61
-9.6335519e+61
-9.5826973e+61
-9.604472e+61
-9.4402661e+61
-9.6128145e+61
-9.5933139e+61
-9.6418655e+61
-9.6225903e+61
-9.6411551e+61
-9.6508607e+61
-9.6417088e+61
-9.6516336e+61
-9.6603633e+61
-9.6697873e+61
-9.6605144e+61
-9.6703538e+61
-9.6281358e+61
-9.5944342e+61
-9.6379699e+61
-9.6037885e+61
-9.6468403e+61
-9.6563624e+61
-9.6126826e+61
-9.621875e+61
-9.4639858e+61
-9.5186296e+61
-9.5287469e+61
-9.4737228e+61
-9.5383161e+61
-9.5479026e+61
-9.4836642e+61
-9.4929665e+61
-9.480416e+61
-9.4902239e+61
-9.4263492e+61
-9.4355353e+61
-9.5101072e+61
-9.4999144e+61
-9.4455673e+61
-9.4558052e+61
-9.5321915e+61
-9.5272695e+61
-9.4984562e+61
-9.5035799e+61
-9.5407852e+61
-9.5367223e+61
-9.5084997e+61
-9.5129396e+61
-9.5143915e+61
-9.5097144e+61
-9.4809924e+61
-9.4854341e+61
-9.4900353e+61
-9.5188133e+61
-9.5230871e+61
-9.4946317e+61
-9.3995349e+61
-9.4095118e+61
-9.3472684e+61
-9.3564577e+61
-9.3663644e+61
-9.4194423e+61
-9.4301626e+61
-9.376768e+61
-9.4398469e+61
-9.4513705e+61
-9.3862e+61
-9.397797e+61
-9.4089972e+61
-9.461968e+61
-9.472292e+61
-9.4190861e+61
-8.7157216e+61
-8.7971674e+61
-8.8030481e+61
-8.7032001e+61
-8.7708115e+61
-8.7651416e+61
-8.8290678e+61
-8.86306e+61
-8.8349423e+61
-8.6366367e+61
-8.6491747e+61
-8.5716696e+61
-8.5027868e+61
-8.5154119e+61
-8.5840319e+61
-9.1310676e+61
-9.1136216e+61
-9.2225563e+61
-9.2407476e+61
-9.2586352e+61
-9.1665258e+61
-9.1483621e+61
-9.277063e+61
-9.0584106e+61
-8.9729165e+61
-8.9909201e+61
-9.0762502e+61
-9.0250219e+61
-8.9563557e+61
-8.9414822e+61
-9.0410837e+61
-8.8142498e+61
-8.7587324e+61
-8.7480963e+61
-8.8259686e+61
-8.6990031e+61
-8.6390693e+61
-8.6614524e+61
-8.649148e+61
-8.7097967e+61
-8.5068688e+61
-8.7234011e+61
-8.7859695e+61
-8.839884e+61
-8.7705403e+61
-8.8571971e+61
-8.3561097e+61
-8.8693982e+61
-8.8114353e+61
-8.7977392e+61
-8.8831721e+61
-8.7474319e+61
-8.7339278e+61
-8.670242e+61
-8.6830698e+61
-8.5275644e+61
-8.7128433e+61
-8.6965535e+61
-8.7611487e+61
-8.5508672e+61
-8.7772082e+61
-8.3750864e+61
-8.3957242e+61
-8.8421452e+61
-8.9162184e+61
-8.8254384e+61
-8.898558e+61
-7.3353394e+61
-7.3516166e+61
-7.6984329e+61
-8.0067389e+61
-8.1995464e+61
-8.2167879e+61
-8.0208218e+61
-8.2364954e+61
-8.0404895e+61
-9.0631004e+61
-9.0468021e+61
-9.1520057e+61
-9.1685203e+61
-8.881774e+61
-8.9767236e+61
-8.9613478e+61
-8.8953678e+61
-8.9292227e+61
-8.9109414e+61
-8.9932867e+61
-9.0123709e+61
-9.1002611e+61
-9.2085502e+61
-9.0800016e+61
-9.1867627e+61
-8.7658231e+61
-8.7717046e+61
-8.6714824e+61
-8.7407528e+61
-8.7353016e+61
-8.7543046e+61
-8.7605487e+61
-8.6607199e+61
-8.7301102e+61
-8.723915e+61
-8.7847686e+61
-8.8171938e+61
-8.7909499e+61
-8.8232034e+61
-8.6059487e+61
-8.5957719e+61
-8.7962779e+61
-8.8288883e+61
-8.8025649e+61
-8.8355025e+61
-8.8858576e+61
-8.8926232e+61
-8.9208017e+61
-8.927542e+61
-8.8736724e+61
-8.908248e+61
-8.879719e+61
-8.9144915e+61
-8.9564157e+61
-8.9948609e+61
-8.9633738e+61
-8.9436909e+61
-8.9817966e+61
-8.950058e+61
-8.9882338e+61
-8.7868752e+61
-8.7931171e+61
-8.6933701e+61
-8.7611356e+61
-8.7550576e+61
-8.7757536e+61
-8.7813568e+61
-8.6808529e+61
-8.7495878e+61
-8.7445384e+61
-8.8184436e+61
-8.8520667e+61
-8.8249163e+61
-8.8587478e+61
-8.8069944e+61
-8.8402746e+61
-8.8128703e+61
-8.8461412e+61
-8.6139626e+61
-8.6266653e+61
-8.8619231e+61
-8.8964432e+61
-8.8687151e+61
-8.9033101e+61
-8.8498559e+61
-8.8840298e+61
-8.8560271e+61
-8.8903712e+61
-8.9193661e+61
-8.9573101e+61
-8.9257866e+61
-8.9637155e+61
-8.9318327e+61
-8.969924e+61
-8.9387911e+61
-8.9769462e+61
-8.4922583e+61
-8.4804943e+61
-8.5490725e+61
-8.561268e+61
-8.472544e+61
-8.4640174e+61
-8.5315785e+61
-8.5411916e+61
-9.0199409e+61
-9.0266198e+61
-9.0607516e+61
-9.0677483e+61
-9.1030228e+61
-9.1507517e+61
-9.1101827e+61
-9.1579487e+61
-9.0333932e+61
-9.0746232e+61
-9.0765393e+61
-9.0835639e+61
-9.1232379e+61
-9.130315e+61
-9.0079629e+61
-9.0485799e+61
-9.015048e+61
-9.0557356e+61
-8.9950015e+61
-9.0350928e+61
-9.0016353e+61
-9.0420546e+61
-9.0901681e+61
-9.0977265e+61
-9.1373241e+61
-9.1452909e+61
-9.18528e+61
-9.2408915e+61
-9.1934809e+61
-9.2493569e+61
-9.2992331e+61
-9.369676e+61
-9.3084748e+61
-9.379606e+61
-9.1704277e+61
-9.2248346e+61
-9.1779139e+61
-9.233099e+61
-9.2827755e+61
-9.3526229e+61
-9.2912924e+61
-9.3612891e+61
-9.2551678e+61
-9.1990965e+61
-9.2063662e+61
-7.2853417e+61
-7.8423242e+61
-7.5970998e+61
-7.597366e+61
-7.8488199e+61
-8.1009026e+61
-8.104405e+61
-8.2212464e+61
-8.2222534e+61
-8.3141875e+61
-8.3105362e+61
-8.3915646e+61
-8.3983519e+61
-8.4067525e+61
-8.3214079e+61
-8.332644e+61
-8.4174869e+61
-8.1176578e+61
-8.1045535e+61
-8.2272877e+61
-8.238799e+61
-8.1263346e+61
-8.2478689e+61
-8.2633032e+61
-8.4276565e+61
-8.3411699e+61
-8.3567751e+61
-8.4409227e+61
-9.4055816e+61
-9.4157224e+61
-9.3865926e+61
-9.3961163e+61
-9.3679848e+61
-9.378942e+61
-9.3503202e+61
-9.358766e+61
-9.4341932e+61
-9.4384917e+61
-9.4428229e+61
-9.4478305e+61
-9.4514868e+61
-9.456503e+61
-9.4613363e+61
-9.4663584e+61
-9.2751723e+61
-9.283495e+61
-9.2922707e+61
-9.3029602e+61
-9.3116439e+61
-9.3232009e+61
-9.3337625e+61
-9.3442262e+61
-9.1066643e+61
-9.178008e+61
-8.8879707e+61
-9.2845226e+61
-9.2443005e+61
-9.2946496e+61
-9.4346189e+61
-9.4564077e+61
-9.3335483e+61
-9.4762823e+61
-9.4983242e+61
-9.3193571e+61
-9.3694377e+61
-9.5170538e+61
-9.5386147e+61
-9.4071531e+61
-9.5570989e+61
-9.5766385e+61
-9.3573328e+61
-9.4841815e+61
-9.4623704e+61
-9.5042796e+61
-9.5263269e+61
-9.5210672e+61
-9.5325197e+61
-9.5216279e+61
-9.5334499e+61
-9.5433984e+61
-9.5539258e+61
-9.5547305e+61
-9.5437936e+61
-9.5089078e+61
-9.4769906e+61
-9.5207561e+61
-9.488661e+61
-9.5311682e+61
-9.4992919e+61
-9.5417565e+61
-9.5095155e+61
-9.4780833e+61
-9.4892053e+61
-9.478541e+61
-9.4898963e+61
-9.5001644e+61
-9.511038e+61
-9.5002535e+61
-9.5116344e+61
-9.4660313e+61
-9.4772336e+61
-9.4459201e+61
-9.4353587e+61
-9.4561844e+61
-9.4668988e+61
-9.4875651e+61
-9.4987083e+61
-9.567522e+61
-9.5460671e+61
-9.5860206e+61
-9.6055136e+61
-9.6241639e+61
-9.6244847e+61
-9.6338364e+61
-9.6330747e+61
-9.602058e+61
-9.5916172e+61
-9.557792e+61
-9.5682012e+61
-9.6111762e+61
-9.5776459e+61
-9.5867451e+61
-9.6202485e+61
-9.6146512e+61
-9.604411e+61
-9.6049432e+61
-9.6154644e+61
-9.5634679e+61
-9.5745894e+61
-9.5640632e+61
-9.5753527e+61
-9.5851894e+61
-9.5954107e+61
-9.5853237e+61
-9.5960237e+61
-9.5510013e+61
-9.5621445e+61
-9.5288226e+61
-9.5183141e+61
-9.5825832e+61
-9.5388038e+61
-9.5488869e+61
-9.5721216e+61
-9.5335698e+61
-9.514839e+61
-9.2745599e+61
-9.4297915e+61
-9.4477177e+61
-9.5834355e+61
-9.5737848e+61
-9.588022e+61
-9.5974334e+61
-9.6275461e+61
-9.6367855e+61
-9.5646948e+61
-9.555657e+61
-9.609294e+61
-9.5700477e+61
-9.5791943e+61
-9.6185499e+61
-9.6221749e+61
-9.6170376e+61
-9.617557e+61
-9.622575e+61
-9.6270358e+61
-9.6267808e+61
-9.6310461e+61
-9.6316771e+61
-9.635605e+61
-9.6351306e+61
-9.6408146e+61
-9.6405407e+61
-9.6450887e+61
-9.6490837e+61
-9.6452152e+61
-9.6496345e+61
-9.6171536e+61
-9.6122063e+61
-9.5994575e+61
-9.6041913e+61
-9.5385193e+61
-9.5765612e+61
-9.5812505e+61
-9.5431865e+61
-9.6084968e+61
-9.6216121e+61
-9.6263359e+61
-9.6131066e+61
-9.5898294e+61
-9.5855598e+61
-9.5474407e+61
-9.5517099e+61
-9.6170924e+61
-9.6303054e+61
-9.6353533e+61
-9.6219991e+61
-9.6262954e+61
-9.6396759e+61
-9.6441505e+61
-9.6307318e+61
-9.5558865e+61
-9.5939472e+61
-9.5988202e+61
-9.5607076e+61
-9.6073292e+61
-9.6032598e+61
-9.5651002e+61
-9.5691271e+61
-9.4774185e+61
-9.472807e+61
-9.444265e+61
-9.4487505e+61
-9.4870199e+61
-9.4821635e+61
-9.4534963e+61
-9.4586168e+61
-9.4967512e+61
-9.4915379e+61
-9.4629286e+61
-9.4681611e+61
-9.506006e+61
-9.501593e+61
-9.473076e+61
-9.47765e+61
-9.4401631e+61
-9.4357382e+61
-9.4075238e+61
-9.4116576e+61
-9.4492599e+61
-9.4445818e+61
-9.4160545e+61
-9.4208355e+61
-9.4638597e+61
-9.468692e+61
-9.4357031e+61
-9.4405723e+61
-9.453606e+61
-9.4249999e+61
-9.4304528e+61
-9.4589183e+61
-9.4750713e+61
-9.4701838e+61
-9.4841799e+61
-9.4797083e+61
-9.4572049e+61
-9.4527121e+61
-9.4616396e+61
-9.4661546e+61
-9.3298735e+61
-9.3573525e+61
-9.36183e+61
-9.3340862e+61
-9.3711174e+61
-9.3663643e+61
-9.3384941e+61
-9.3433221e+61
-9.3755574e+61
-9.3809725e+61
-9.347595e+61
-9.3528931e+61
-9.3582229e+61
-9.3861513e+61
-9.3911175e+61
-9.3633759e+61
-9.4012872e+61
-9.3956378e+61
-9.3675723e+61
-9.3731747e+61
-9.4123727e+61
-9.4067683e+61
-9.3787226e+61
-9.3846181e+61
-9.4172179e+61
-9.4227851e+61
-9.3948607e+61
-9.3892936e+61
-9.4277463e+61
-9.432104e+61
-9.3999933e+61
-9.4044532e+61
-6.9409322e+61
-8.7485452e+61
-8.7198657e+61
-8.7275555e+61
-8.7559949e+61
-8.7937195e+61
-8.7961658e+61
-8.8112844e+61
-8.8139685e+61
-8.817147e+61
-8.8202657e+61
-8.7993718e+61
-8.8026079e+61
-8.7367537e+61
-8.7080793e+61
-8.7133971e+61
-8.7421583e+61
-8.7759947e+61
-8.7699107e+61
-8.8460796e+61
-8.8272566e+61
-8.8431612e+61
-8.830228e+61
-8.8597291e+61
-8.8764173e+61
-8.8791591e+61
-8.8625602e+61
-8.851924e+61
-8.8332456e+61
-8.8489199e+61
-8.8362388e+61
-8.6801847e+61
-8.6522295e+61
-8.6573675e+61
-8.6854369e+61
-8.6716818e+61
-8.6640588e+61
-8.6920986e+61
-8.6997618e+61
-8.6242907e+61
-8.5960439e+61
-8.601303e+61
-8.6291969e+61
-8.5690782e+61
-8.5407456e+61
-8.5457586e+61
-8.5742648e+61
-8.5600543e+61
-8.5520046e+61
-8.580542e+61
-8.5880803e+61
-8.6356995e+61
-8.6076005e+61
-8.6149734e+61
-8.6433662e+61
-9.1186668e+61
-9.1290582e+61
-9.1727557e+61
-9.1830593e+61
-9.103627e+61
-9.157151e+61
-9.1104141e+61
-9.1643106e+61
-9.2137879e+61
-9.2820511e+61
-9.2211708e+61
-9.2897293e+61
-9.2296067e+61
-9.2985729e+61
-9.2402197e+61
-9.3094692e+61
-9.2481328e+61
-9.2576696e+61
-9.3172673e+61
-9.3265161e+61
-9.155168e+61
-9.1646334e+61
-9.2093937e+61
-9.21876e+61
-9.1368946e+61
-9.1907714e+61
-9.1462337e+61
-9.200325e+61
-9.2666078e+61
-9.2763812e+61
-9.3358834e+61
-9.3460901e+61
-9.0435457e+61
-9.0899331e+61
-9.0533461e+61
-9.099228e+61
-8.9622893e+61
-8.9721017e+61
-9.0022266e+61
-9.0121801e+61
-8.9809076e+61
-8.9897134e+61
-9.0209635e+61
-9.0296424e+61
-9.0618858e+61
-9.0708858e+61
-9.1080407e+61
-9.1175302e+61
-9.0116925e+61
-9.0572004e+61
-9.018136e+61
-9.0635424e+61
-8.9454133e+61
-8.9545444e+61
-8.9849469e+61
-8.9943849e+61
-8.9323259e+61
-8.9713133e+61
-8.9383529e+61
-8.9776088e+61
-9.0255714e+61
-9.0354514e+61
-9.0714752e+61
-9.0818924e+61
-8.8061033e+61
-8.8397491e+61
-8.8110198e+61
-8.8447137e+61
-8.7541338e+61
-8.7604161e+61
-8.7847423e+61
-8.7914073e+61
-8.7491358e+61
-8.7794638e+61
-8.8165049e+61
-8.8238471e+61
-8.8508022e+61
-8.8589488e+61
-8.6952703e+61
-8.7244779e+61
-8.7010101e+61
-8.7304662e+61
-8.6669835e+61
-8.672494e+61
-8.5801657e+61
-8.644114e+61
-8.638724e+61
-8.687904e+61
-8.6939473e+61
-8.6013872e+61
-8.6637832e+61
-8.6584302e+61
-8.6766994e+61
-8.6824422e+61
-8.5898081e+61
-8.6532476e+61
-8.6481462e+61
-8.7053514e+61
-8.7353779e+61
-8.7114885e+61
-8.741982e+61
-8.5283137e+61
-8.5396988e+61
-8.7173034e+61
-8.748467e+61
-8.724041e+61
-8.7557985e+61
-8.7798977e+61
-8.8126494e+61
-8.787459e+61
-8.8204285e+61
-8.830374e+61
-8.8658615e+61
-8.8386668e+61
-8.8743807e+61
-8.7657612e+61
-8.7973259e+61
-8.7728873e+61
-8.805184e+61
-8.8464023e+61
-8.8825904e+61
-8.854463e+61
-8.8910466e+61
-8.4152197e+61
-8.4058265e+61
-8.4682638e+61
-8.4790513e+61
-8.8592564e+61
-8.8957014e+61
-8.8650948e+61
-8.9013817e+61
-8.8042949e+61
-8.8120569e+61
-8.8373631e+61
-8.8452094e+61
-8.7922631e+61
-8.8251816e+61
-8.7980079e+61
-8.8310182e+61
-8.8713981e+61
-8.8797108e+61
-8.9080891e+61
-8.9169562e+61
-8.7405593e+61
-8.772328e+61
-8.7482879e+61
-8.7800129e+61
-8.7286802e+61
-8.7605277e+61
-8.7345995e+61
-8.7661763e+61
-8.69799e+61
-8.7037822e+61
-8.6091242e+61
-8.6673097e+61
-8.6726242e+61
-8.7098071e+61
-8.717488e+61
-8.6206781e+61
-8.6864379e+61
-8.6787148e+61
-8.5464198e+61
-8.5568871e+61
-8.7399424e+61
-8.7486591e+61
-8.650005e+61
-8.7179917e+61
-8.7091419e+61
-8.723577e+61
-8.7319754e+61
-8.6336279e+61
-8.7009058e+61
-8.6926754e+61
-8.7543617e+61
-8.7864889e+61
-8.7627976e+61
-8.7950564e+61
-8.5687138e+61
-8.5851557e+61
-8.7706114e+61
-8.8031456e+61
-8.7793542e+61
-8.8118678e+61
-8.4857319e+61
-8.4214922e+61
-8.4305171e+61
-8.4950519e+61
-8.4553191e+61
-8.4414617e+61
-8.5061474e+61
-8.5215731e+61
-8.8358839e+61
-8.8701005e+61
-8.8445481e+61
-8.8787185e+61
-8.905364e+61
-8.9432335e+61
-8.9141069e+61
-8.9520814e+61
-8.8187641e+61
-8.8522725e+61
-8.8275888e+61
-8.8615909e+61
-8.8872054e+61
-8.924725e+61
-8.8967986e+61
-8.9344536e+61
-7.2544339e+61
-7.8042254e+61
-7.55969e+61
-7.2692834e+61
-7.568772e+61
-7.8159232e+61
-7.8344739e+61
-7.5879518e+61
-8.1753519e+61
-8.0562739e+61
-8.184322e+61
-8.0657672e+61
-8.3374837e+61
-8.2611584e+61
-8.2702114e+61
-8.3463377e+61
-8.3537162e+61
-8.2780474e+61
-8.2879396e+61
-8.3623815e+61
-8.1907878e+61
-8.0713275e+61
-8.2007388e+61
-8.07951e+61
-8.3736295e+61
-8.298644e+61
-8.309135e+61
-8.3852694e+61
-8.2112879e+61
-8.0904892e+61
-8.2217085e+61
-8.1042033e+61
-9.0528101e+61
-9.1049655e+61
-9.0621899e+61
-9.1140199e+61
-9.0378565e+61
-9.0895174e+61
-9.0451499e+61
-9.097279e+61
-9.144399e+61
-9.1520888e+61
-9.2101305e+61
-9.2178472e+61
-9.1596862e+61
-9.1692694e+61
-9.2259355e+61
-9.2360669e+61
-8.8739075e+61
-8.8793584e+61
-8.910679e+61
-8.9167197e+61
-8.9630534e+61
-9.0074718e+61
-8.9722155e+61
-9.0168071e+61
-8.9493048e+61
-8.9930335e+61
-8.9557806e+61
-8.9999447e+61
-8.8860034e+61
-8.8945385e+61
-8.923796e+61
-8.9325848e+61
-8.9189141e+61
-8.9274979e+61
-8.9578091e+61
-8.966498e+61
-8.9015367e+61
-8.9103976e+61
-8.9397418e+61
-8.9490364e+61
-8.9795533e+61
-8.9891055e+61
-9.0243205e+61
-9.0341733e+61
-8.9978992e+61
-9.006766e+61
-9.0433077e+61
-9.0524283e+61
-9.0892655e+61
-9.1426771e+61
-9.0985303e+61
-9.1520565e+61
-9.1987866e+61
-9.2665021e+61
-9.2085616e+61
-9.276675e+61
-9.0696902e+61
-9.1218702e+61
-9.0798604e+61
-9.132838e+61
-9.177591e+61
-9.1888234e+61
-9.2446853e+61
-9.2560957e+61
-8.764414e+61
-8.766615e+61
-8.7808999e+61
-8.7834121e+61
-8.7862742e+61
-8.7886976e+61
-8.7693129e+61
-8.7715838e+61
-8.7077872e+61
-8.6803114e+61
-8.6853375e+61
-8.7131571e+61
-8.7465965e+61
-8.7419896e+61
-8.7526004e+61
-8.755899e+61
-8.7692305e+61
-8.7726052e+61
-8.7758746e+61
-8.7787477e+61
-8.7592436e+61
-8.7620767e+61
-8.6755752e+61
-8.6695348e+61
-8.6967697e+61
-8.7027768e+61
-8.7373768e+61
-8.7309097e+61
-8.7844036e+61
-8.788011e+61
-8.8028858e+61
-8.7994143e+61
-8.8150841e+61
-8.8184864e+61
-8.8309221e+61
-8.8342008e+61
-8.8088653e+61
-8.7911415e+61
-8.8059192e+61
-8.7939583e+61
-8.837235e+61
-8.8214944e+61
-8.8245595e+61
-8.8403817e+61
-8.63012e+61
-8.6259784e+61
-8.6534024e+61
-8.6579876e+61
-8.6216439e+61
-8.6158351e+61
-8.642785e+61
-8.648807e+61
-8.8140502e+61
-8.7960637e+61
-8.8111324e+61
-8.7989216e+61
-8.8428422e+61
-8.8269269e+61
-8.8299079e+61
-8.8458337e+61
-8.8195366e+61
-8.8017503e+61
-8.8168441e+61
-8.8042383e+61
-8.8487987e+61
-8.8327395e+61
-8.8356256e+61
-8.8518237e+61
-8.8816294e+61
-8.8982364e+61
-8.901351e+61
-8.8847635e+61
-8.8911371e+61
-8.887888e+61
-8.9045374e+61
-8.9078753e+61
-8.9357983e+61
-8.9151225e+61
-8.9326005e+61
-8.9182611e+61
-8.9248157e+61
-8.9423684e+61
-8.9213388e+61
-8.9389201e+61
-8.8897921e+61
-8.8705046e+61
-8.8870753e+61
-8.8732363e+61
-8.9038579e+61
-8.9211257e+61
-8.923722e+61
-8.9064885e+61
-8.8957722e+61
-8.8759435e+61
-8.8924874e+61
-8.8791425e+61
-8.9092817e+61
-8.92661e+61
-8.9125787e+61
-8.9299739e+61
-8.9502501e+61
-8.9685219e+61
-8.9718641e+61
-8.9534927e+61
-9.0066957e+61
-8.9905755e+61
-8.9872056e+61
-9.0101443e+61
-8.9566618e+61
-8.9601083e+61
-8.9751169e+61
-8.9785046e+61
-8.9594801e+61
-8.938638e+61
-8.9567251e+61
-8.9412977e+61
-8.9944891e+61
-8.9752107e+61
-8.9779685e+61
-8.9972695e+61
-8.9476142e+61
-8.9658422e+61
-8.9441975e+61
-8.962415e+61
-9.0002544e+61
-8.9808625e+61
-8.9844288e+61
-9.003877e+61
-8.7836156e+61
-8.7860632e+61
-8.8008456e+61
-8.8036e+61
-8.8067132e+61
-8.8094034e+61
-8.7890543e+61
-8.7916866e+61
-8.7266202e+61
-8.6979536e+61
-8.7042661e+61
-8.7328396e+61
-8.7654624e+61
-8.7600458e+61
-8.7733721e+61
-8.7754802e+61
-8.7904144e+61
-8.7928051e+61
-8.7957571e+61
-8.7985913e+61
-8.7783593e+61
-8.7811923e+61
-8.7167171e+61
-8.6885796e+61
-8.6927123e+61
-8.7212721e+61
-8.7552252e+61
-8.7501639e+61
-8.8166096e+61
-8.8196884e+61
-8.8322629e+61
-8.8353615e+61
-8.8517139e+61
-8.8649898e+61
-8.86812e+61
-8.8485717e+61
-8.8227105e+61
-8.825387e+61
-8.8411131e+61
-8.8383113e+61
-8.854661e+61
-8.8576438e+61
-8.8711783e+61
-8.8743247e+61
-8.8242314e+61
-8.8060137e+61
-8.8214877e+61
-8.8087405e+61
-8.837647e+61
-8.8539306e+61
-8.856618e+61
-8.8403866e+61
-8.8298994e+61
-8.8116086e+61
-8.8269862e+61
-8.8144083e+61
-8.8431069e+61
-8.8593631e+61
-8.8461391e+61
-8.862466e+61
-8.6607512e+61
-8.6322731e+61
-8.6359041e+61
-8.6645717e+61
-8.6483441e+61
-8.6414826e+61
-8.669944e+61
-8.6763378e+61
-8.8784995e+61
-8.8590631e+61
-8.8753502e+61
-8.862131e+61
-8.8920719e+61
-8.9094056e+61
-8.9125516e+61
-8.8952479e+61
-8.8682952e+61
-8.8848227e+61
-8.8651638e+61
-8.8815791e+61
-8.8983096e+61
-8.9156564e+61
-8.9016364e+61
-8.9190074e+61
-8.8665005e+61
-8.8470255e+61
-8.863199e+61
-8.8503312e+61
-8.8797747e+61
-8.883047e+61
-8.8969968e+61
-8.9002246e+61
-8.8728391e+61
-8.8533761e+61
-8.8695567e+61
-8.8565921e+61
-8.9033281e+61
-8.8860985e+61
-8.8894845e+61
-8.9067881e+61
-8.9358173e+61
-8.9144291e+61
-8.9324681e+61
-8.9177277e+61
-8.9508271e+61
-8.9541545e+61
-8.9699533e+61
-8.9732666e+61
-8.924308e+61
-8.9424011e+61
-8.9208431e+61
-8.938945e+61
-8.9764116e+61
-8.9572357e+61
-8.9607909e+61
-8.9800057e+61
-8.9482678e+61
-8.9269299e+61
-8.9450295e+61
-8.9300844e+61
-8.9826998e+61
-8.9634885e+61
-8.9667227e+61
-8.9859506e+61
-8.9365253e+61
-8.9546359e+61
-8.9331729e+61
-8.9513667e+61
-8.9890889e+61
-8.9697749e+61
-8.9731169e+61
-8.9924375e+61
-8.535498e+61
-8.5275119e+61
-8.5563457e+61
-8.5641183e+61
-8.5215911e+61
-8.5184099e+61
-8.5469995e+61
-8.5502445e+61
-8.6034522e+61
-8.5744565e+61
-8.577884e+61
-8.6067964e+61
-8.6126101e+61
-8.5838346e+61
-8.5914438e+61
-8.6199835e+61
-8.5169551e+61
-8.5136823e+61
-8.5425274e+61
-8.5457023e+61
-8.5103678e+61
-8.5057644e+61
-8.5336719e+61
-8.5388454e+61
-8.5659016e+61
-8.5604552e+61
-8.5883073e+61
-8.5937907e+61
-8.5978776e+61
-8.5697042e+61
-8.5730763e+61
-8.6017639e+61
-9.0363507e+61
-9.0135881e+61
-9.0333477e+61
-9.0164679e+61
-9.0195183e+61
-9.0231723e+61
-9.0394576e+61
-9.0431134e+61
-9.0531952e+61
-9.0743959e+61
-9.0562239e+61
-9.0774617e+61
-9.0631449e+61
-9.0806929e+61
-9.0845925e+61
-9.0593491e+61
-9.0956325e+61
-9.0988497e+61
-9.1219903e+61
-9.1186584e+61
-9.1418431e+61
-9.1672247e+61
-9.1705272e+61
-9.1451724e+61
-9.129142e+61
-9.1021363e+61
-9.1253176e+61
-9.1060377e+61
-9.1484554e+61
-9.1522912e+61
-9.1738403e+61
-9.1776178e+61
-9.0495117e+61
-9.0259808e+61
-9.045952e+61
-9.0295297e+61
-9.0660605e+61
-9.0875809e+61
-9.0695258e+61
-9.0922072e+61
-9.0958041e+61
-9.0731233e+61
-9.0801827e+61
-9.0763483e+61
-9.0989466e+61
-9.1027514e+61
-9.1429343e+61
-9.1148526e+61
-9.1395215e+61
-9.1182879e+61
-9.1254427e+61
-9.1504026e+61
-9.1214586e+61
-9.14631e+61
-9.0016718e+61
-9.0049913e+61
-9.0212976e+61
-9.0247307e+61
-9.0444868e+61
-9.0655541e+61
-9.0410081e+61
-9.0620347e+61
-9.0312479e+61
-9.0081701e+61
-9.0279459e+61
-9.0115123e+61
-9.0476927e+61
-9.0688468e+61
-9.0722697e+61
-9.0510654e+61
-9.0117206e+61
-8.9887752e+61
-9.0081643e+61
-8.9921923e+61
-9.0276498e+61
-9.0485406e+61
-9.0521026e+61
-9.0312235e+61
-9.018593e+61
-8.995388e+61
-9.0149782e+61
-8.9989969e+61
-9.034484e+61
-9.0554033e+61
-9.0382227e+61
-9.0592137e+61
-9.0830059e+61
-9.105643e+61
-9.1094916e+61
-9.0866426e+61
-9.0900512e+61
-9.1129796e+61
-9.0934638e+61
-9.1164194e+61
-9.1575347e+61
-9.1285043e+61
-9.153561e+61
-9.1324258e+61
-9.1395308e+61
-9.1359306e+61
-9.1611544e+61
-9.1648879e+61
-9.1781234e+61
-9.205155e+61
-9.1821343e+61
-9.2093675e+61
-9.2367652e+61
-9.2682182e+61
-9.2324586e+61
-9.2637876e+61
-9.189665e+61
-9.1858008e+61
-9.2131634e+61
-9.2170202e+61
-9.244708e+61
-9.2767614e+61
-9.2406274e+61
-9.2723382e+61
-9.2947172e+61
-9.3306873e+61
-9.2993386e+61
-9.3355621e+61
-9.3723931e+61
-9.409799e+61
-9.4147162e+61
-9.3674517e+61
-9.3036948e+61
-9.3401276e+61
-9.3083383e+61
-9.3448107e+61
-9.3819912e+61
-9.4246479e+61
-9.3770329e+61
-9.4194898e+61
-9.1636366e+61
-9.1671622e+61
-9.190084e+61
-9.1938935e+61
-9.2207458e+61
-9.2516968e+61
-9.2168115e+61
-9.2476324e+61
-9.1706649e+61
-9.1975969e+61
-9.2018649e+61
-9.1749011e+61
-9.2602985e+61
-9.2245413e+61
-9.2556738e+61
-9.2290317e+61
-9.2783334e+61
-9.2825205e+61
-9.3140517e+61
-9.3184397e+61
-9.3549722e+61
-9.3970575e+61
-9.3506546e+61
-9.392839e+61
-9.2866365e+61
-9.3226283e+61
-9.3271824e+61
-9.2912561e+61
-9.4061568e+61
-9.3591064e+61
-9.4012255e+61
-9.3638413e+61
-9.2792832e+61
-9.2471731e+61
-9.2504535e+61
-9.2821603e+61
-9.2194505e+61
-9.192051e+61
-9.1953874e+61
-9.222858e+61
-9.1987054e+61
-9.2261835e+61
-9.2024801e+61
-7.2573896e+61
-7.5647586e+61
-7.5641866e+61
-7.9680369e+61
-7.7961496e+61
-7.7866045e+61
-7.9624659e+61
-7.9650673e+61
-7.977092e+61
-7.787776e+61
-7.7998059e+61
-7.9859735e+61
-7.8083099e+61
-8.1596805e+61
-8.1591103e+61
-8.2337406e+61
-8.2336035e+61
-8.1634954e+61
-8.1711686e+61
-8.2411257e+61
-8.2368037e+61
-8.2901615e+61
-8.2930739e+61
-8.3393629e+61
-8.3380827e+61
-8.3376801e+61
-8.2883233e+61
-8.2886726e+61
-8.3391165e+61
-8.3820589e+61
-8.3797893e+61
-8.4168368e+61
-8.4199473e+61
-8.3792196e+61
-8.3791723e+61
-8.413749e+61
-8.415424e+61
-8.4477708e+61
-8.4449006e+61
-8.4760345e+61
-8.4798474e+61
-8.4826331e+61
-8.4498796e+61
-8.4532894e+61
-8.4861966e+61
-8.4881879e+61
-8.4558959e+61
-8.458887e+61
-8.4910301e+61
-8.4227018e+61
-8.3845709e+61
-8.3880101e+61
-8.4257078e+61
-8.4012815e+61
-8.3937622e+61
-8.431066e+61
-8.438342e+61
-8.4963959e+61
-8.4639522e+61
-8.471595e+61
-8.5045164e+61
-8.181494e+61
-8.1700465e+61
-8.2450575e+61
-8.2545547e+61
-8.1627282e+61
-8.1598976e+61
-8.2345099e+61
-8.2385726e+61
-8.3411384e+61
-8.2903009e+61
-8.2942039e+61
-8.3446848e+61
-8.3506994e+61
-8.3003055e+61
-8.30919e+61
-8.3586829e+61
-8.186766e+61
-8.1860477e+61
-8.2591233e+61
-8.2634359e+61
-8.36363e+61
-8.3137907e+61
-8.3193759e+61
-8.3694306e+61
-8.3767792e+61
-8.3259914e+61
-8.334921e+61
-8.3856511e+61
-8.5102235e+61
-8.4772085e+61
-8.4823559e+61
-8.5149221e+61
-8.4433472e+61
-8.4061407e+61
-8.4119076e+61
-8.4489308e+61
-8.4279996e+61
-8.4188194e+61
-8.4554286e+61
-8.4648958e+61
-8.5210361e+61
-8.4883939e+61
-8.4976251e+61
-8.5298321e+61
-9.4159156e+61
-9.4212191e+61
-9.4259675e+61
-9.4310311e+61
-9.3975532e+61
-9.4018511e+61
-9.4062684e+61
-9.4117481e+61
-9.3782373e+61
-9.3835575e+61
-9.3886702e+61
-9.3941238e+61
-9.3617603e+61
-9.3654304e+61
-9.3693267e+61
-9.3742923e+61
-9.2865385e+61
-9.2904024e+61
-9.2942758e+61
-9.2991545e+61
-9.303043e+61
-9.3082412e+61
-9.3132119e+61
-9.318736e+61
-9.3226012e+61
-9.3280553e+61
-9.3333904e+61
-9.3396056e+61
-9.3441558e+61
-9.3495976e+61
-9.3543922e+61
-9.3590946e+61
-8.7751836e+61
-9.0817943e+61
-9.1179173e+61
-8.8328763e+61
-9.1832757e+61
-9.1494114e+61
-8.5097361e+61
-8.8876864e+61
-8.8606522e+61
-9.0452966e+61
-9.075727e+61
-9.1432102e+61
-9.3833901e+61
-9.3629865e+61
-9.2856984e+61
-9.3049307e+61
-9.1783762e+61
-9.4229734e+61
-9.4018378e+61
-9.321761e+61
-9.3418057e+61
-9.4618249e+61
-9.4411695e+61
-9.2109257e+61
-9.378961e+61
-9.3590595e+61
-9.4987088e+61
-9.4798216e+61
-9.2446919e+61
-9.396381e+61
-9.4145602e+61
-9.4310369e+61
-9.4202667e+61
-9.4339295e+61
-9.4445715e+61
-9.470307e+61
-9.4809791e+61
-9.4103033e+61
-9.4002096e+61
-9.4139077e+61
-9.4240917e+61
-9.4494265e+61
-9.4599897e+61
-9.4500811e+61
-9.4396636e+61
-9.4535277e+61
-9.4640413e+61
-9.4908381e+61
-9.5016909e+61
-9.471589e+61
-9.4605335e+61
-9.4742869e+61
-9.4853226e+61
-9.5121311e+61
-9.5228567e+61
-9.5036738e+61
-9.4975677e+61
-9.4981668e+61
-9.5041599e+61
-9.5142993e+61
-9.5091295e+61
-9.5095317e+61
-9.5150733e+61
-9.5304333e+61
-9.535217e+61
-9.530786e+61
-9.5359504e+61
-9.5251492e+61
-9.5190856e+61
-9.5197441e+61
-9.5256533e+61
-9.4991181e+61
-9.4932037e+61
-9.4813428e+61
-9.4871597e+61
-9.4232713e+61
-9.4596173e+61
-9.4653937e+61
-9.4289334e+61
-9.5101255e+61
-9.5045417e+61
-9.4925163e+61
-9.4981662e+61
-9.4762564e+61
-9.4707971e+61
-9.4343218e+61
-9.4398228e+61
-9.5148817e+61
-9.5206574e+61
-9.5087419e+61
-9.5030497e+61
-9.4813293e+61
-9.4870325e+61
-9.4504435e+61
-9.4448235e+61
-9.5137025e+61
-9.5257114e+61
-9.5308328e+61
-9.5187968e+61
-9.4554164e+61
-9.492013e+61
-9.4967417e+61
-9.4599119e+61
-9.4615377e+61
-9.4557799e+61
-9.4562927e+61
-9.4619283e+61
-9.471922e+61
-9.4668398e+61
-9.4671013e+61
-9.4725218e+61
-9.4826936e+61
-9.4767204e+61
-9.4771771e+61
-9.4830291e+61
-9.4880322e+61
-9.4882416e+61
-9.4929032e+61
-9.4935391e+61
-9.4568915e+61
-9.4513576e+61
-9.4453995e+61
-9.440102e+61
-9.4674983e+61
-9.4620691e+61
-9.4556539e+61
-9.4503734e+61
-9.4292437e+61
-9.3935503e+61
-9.3983417e+61
-9.4341996e+61
-9.4244398e+61
-9.4193778e+61
-9.3842305e+61
-9.3889455e+61
-9.4389446e+61
-9.4444889e+61
-9.4084676e+61
-9.4029901e+61
-9.4135727e+61
-9.4495824e+61
-9.4547183e+61
-9.4185618e+61
-9.4779496e+61
-9.4722033e+61
-9.4659561e+61
-9.4603267e+61
-9.4884456e+61
-9.4831116e+61
-9.4764828e+61
-9.4710637e+61
-9.5117272e+61
-9.5008604e+61
-9.5257282e+61
-9.5151233e+61
-9.5534648e+61
-9.5636798e+61
-9.4907827e+61
-9.4803573e+61
-9.5051358e+61
-9.4946817e+61
-9.5326951e+61
-9.5433287e+61
-9.5292675e+61
-9.5198113e+61
-9.5437112e+61
-9.5341198e+61
-9.5825172e+61
-9.5727307e+61
-9.5482359e+61
-9.5384675e+61
-9.5527597e+61
-9.6009308e+61
-9.5917308e+61
-9.5623689e+61
-9.5993031e+61
-9.6047038e+61
-9.6050626e+61
-9.5998443e+61
-9.609458e+61
-9.6092213e+61
-9.6132274e+61
-9.6138309e+61
-9.5856624e+61
-9.5904422e+61
-9.5774999e+61
-9.5727403e+61
-9.5630176e+61
-9.5756947e+61
-9.5809474e+61
-9.5680996e+61
-9.501615e+61
-9.5400144e+61
-9.5448881e+61
-9.5063539e+61
-9.5110375e+61
-9.5496336e+61
-9.5542637e+61
-9.5158436e+61
-9.5945768e+61
-9.5996898e+61
-9.5867806e+61
-9.5816999e+61
-9.5203886e+61
-9.5586577e+61
-9.5638384e+61
-9.5256261e+61
-9.5303617e+61
-9.5683447e+61
-9.5726633e+61
-9.5347469e+61
-9.604042e+61
-9.6083961e+61
-9.5955947e+61
-9.5911277e+61
-9.5808504e+61
-9.5802128e+61
-9.5857613e+61
-9.5862495e+61
-9.5909761e+61
-9.5906487e+61
-9.595101e+61