/*--------------------------------*- C++ -*----------------------------------*\
  =========                 |
  \\      /  F ield         | OpenFOAM: The Open Source CFD Toolbox
   \\    /   O peration     | Website:  https://openfoam.org
    \\  /    A nd           | Version:  7
     \\/     M anipulation  |
\*---------------------------------------------------------------------------*/
FoamFile
{
    version     2.0;
    format      ascii;
    class       volVectorField;
    location    "7000";
    object      U;
}
// * * * * * * * * * * * * * * * * * * * * * * * * * * * * * * * * * * * * * //

dimensions      [0 1 -1 0 0 0 0];

internalField   nonuniform List<vector> 
33730
(
(-5.6116921e+41 -5.8988651e+40 -9.8714215e+40)
(-1.6976178e+41 9.907859e+40 -6.155476e+40)
(-5.4114703e+41 1.6261225e+40 -5.9423538e+40)
(-3.7081515e+41 -2.4528916e+40 5.2922774e+40)
(-2.6273457e+41 -4.4497913e+40 -2.6461223e+41)
(-7.2249478e+41 -8.9768471e+40 1.7013314e+40)
(-6.6435133e+41 -2.1859306e+41 1.714816e+41)
(-5.2627837e+41 -1.3863876e+41 -9.7957395e+40)
(-4.3820316e+41 -2.1359296e+40 4.0092536e+40)
(-4.9901192e+41 -3.6361543e+39 1.2712249e+40)
(-4.2728054e+41 -2.3208834e+41 -4.8764532e+40)
(-3.9975428e+41 -1.1162283e+41 -1.4801017e+40)
(3.6252775e+40 1.2332926e+41 -3.8605548e+40)
(-3.8395104e+41 9.0928812e+40 -5.2878046e+40)
(1.8047141e+40 -2.8108446e+41 -2.6169065e+41)
(-1.4705548e+41 1.0074629e+40 -1.7482947e+41)
(1.066746e+42 2.4430487e+41 -7.9049119e+40)
(-5.5449955e+41 7.7803908e+40 7.3840707e+40)
(-4.8897872e+41 -1.5654083e+40 -1.31348e+41)
(-5.2877843e+41 2.4061736e+40 -1.9309418e+39)
(-4.0507767e+41 3.0559448e+40 1.0995602e+40)
(-4.2191683e+41 1.5109462e+40 2.9580409e+40)
(-4.4709825e+41 2.0510592e+40 -2.6281149e+40)
(-4.6085818e+41 1.6054661e+40 -4.2278969e+40)
(-4.0319872e+41 1.5857654e+41 6.9296295e+40)
(-4.2025542e+41 -5.8112151e+41 2.3748035e+41)
(-3.4672725e+41 -3.6713685e+40 4.2809207e+40)
(-2.9768513e+41 -1.7102151e+41 -6.5121864e+40)
(-4.4201336e+41 -2.0427634e+41 1.9320328e+41)
(-8.2375201e+41 -2.1845374e+41 9.8402897e+40)
(-1.6768219e+41 -2.9273967e+40 -3.70928e+40)
(-3.7614029e+41 -6.7450468e+40 1.0426077e+40)
(-3.919524e+41 -1.4584851e+40 3.2482839e+40)
(1.373465e+41 4.484361e+41 -8.5492609e+41)
(1.2201122e+41 -1.3101511e+40 -9.8441646e+40)
(2.8672376e+42 1.0724879e+41 4.0159776e+41)
(-8.6243142e+41 -5.1716298e+41 2.6503925e+41)
(2.7752153e+42 -2.1745293e+41 -1.4040582e+41)
(-1.9129304e+41 -2.1891702e+41 1.1835772e+41)
(-3.9382898e+41 -3.6479051e+40 2.2550435e+39)
(-4.3404729e+41 -4.4427408e+40 1.3404023e+40)
(-2.8899909e+41 -1.6048115e+41 4.3426242e+40)
(-2.8020033e+41 -5.3606479e+40 -1.5268056e+40)
(-4.3307685e+40 1.0848783e+41 -1.4160184e+41)
(-3.2981861e+41 7.3789357e+40 -4.2331223e+40)
(-8.94325e+41 2.1759085e+40 -1.5193465e+41)
(1.0357572e+41 3.3401191e+41 1.1507323e+41)
(-4.3379299e+41 3.3841543e+41 2.5227481e+40)
(-6.081814e+41 1.4332587e+41 -1.0413453e+41)
(1.2088143e+42 -5.0383809e+41 -2.4887671e+41)
(-5.0449391e+41 5.5283709e+40 -9.987305e+39)
(1.6431436e+42 -5.8195908e+41 -5.794789e+41)
(6.8826155e+40 -1.9111835e+40 -6.4738735e+41)
(-6.4714956e+41 -5.78246e+40 6.3036763e+40)
(3.8976754e+42 4.4442979e+41 -4.2048488e+41)
(-8.0211586e+41 2.1692648e+41 3.5718416e+40)
(-3.24881e+41 -3.4399969e+41 6.5102421e+41)
(-9.5005153e+41 -2.377541e+41 4.801034e+41)
(-4.3704447e+41 2.7763515e+40 8.251474e+40)
(8.2545361e+41 -3.8976861e+40 -1.8005593e+41)
(-5.4111178e+41 3.0459618e+40 1.3394622e+40)
(-4.2242447e+41 3.6478906e+39 4.3460503e+40)
(-4.031373e+41 1.480151e+40 2.9752233e+40)
(-4.3060936e+41 3.8575332e+38 -1.820506e+40)
(-4.6035569e+41 1.4691949e+40 -1.3823805e+40)
(-3.829317e+41 2.1340613e+40 -2.7197823e+39)
(-4.0596882e+41 2.2162494e+40 -2.6403852e+39)
(-4.0352466e+41 4.0914575e+39 6.3621822e+39)
(-4.1179765e+41 1.2299306e+40 1.131271e+40)
(-6.4604561e+41 4.7459517e+40 6.0637766e+40)
(-1.2460255e+41 3.8433903e+40 1.9446401e+41)
(-3.6027358e+41 1.0347669e+41 2.2575493e+40)
(-3.2475029e+41 1.2120178e+41 5.7013078e+40)
(-3.577718e+41 2.4230915e+41 2.7811602e+40)
(-1.467996e+41 3.4369415e+41 3.1650921e+40)
(-2.375061e+41 3.1319659e+41 -5.2933709e+40)
(-2.457226e+41 2.5690632e+41 -1.2595636e+40)
(-1.3151809e+41 1.7858724e+41 -6.9277147e+40)
(2.9365713e+42 -7.7514584e+41 1.4653762e+41)
(-3.1224166e+41 -5.8234106e+40 -6.3450284e+39)
(1.7227951e+41 1.5538111e+41 -2.2833355e+40)
(-1.3451063e+41 -1.4581119e+41 -2.3938727e+41)
(1.6501728e+42 -1.7742564e+41 6.6090957e+41)
(-3.3491116e+41 -9.2245811e+40 -1.9274031e+40)
(-1.162523e+42 6.3190638e+40 1.3745662e+41)
(-2.3815147e+41 -4.0739259e+40 -4.2169906e+40)
(-3.1978957e+41 -3.6570779e+40 6.8764663e+39)
(-3.4726373e+41 -2.6521845e+40 5.3867779e+39)
(2.770846e+41 3.7206581e+41 -1.0726814e+41)
(-2.1913425e+42 -5.0848483e+40 -1.3263312e+40)
(-1.6352932e+42 1.5160107e+41 -8.7781781e+40)
(-3.8439913e+41 -2.1001185e+41 3.0360743e+41)
(-1.2307484e+41 -2.7539018e+41 -1.2409165e+40)
(3.8846723e+42 1.879281e+39 3.1792843e+41)
(-2.6742355e+42 -1.2870899e+41 -7.4571909e+40)
(-2.7482309e+41 3.6041331e+39 -1.0234638e+41)
(-4.0684351e+41 -4.2269587e+40 -3.6478193e+39)
(-4.1570584e+41 -4.0255695e+40 1.3305155e+39)
(-3.1555032e+41 -1.7068715e+41 1.4843923e+39)
(-4.1654181e+41 -8.1824715e+40 -2.2211279e+39)
(-3.5653977e+41 8.4053877e+40 -2.2770055e+39)
(-3.3085236e+41 1.3225734e+41 -2.0466574e+41)
(-2.2236446e+41 4.4843669e+40 -4.0325188e+40)
(8.9724726e+40 2.0078827e+40 -7.0232035e+40)
(-1.8124608e+40 3.0855053e+40 6.0031492e+40)
(-2.5328827e+41 7.0131614e+40 -5.56292e+40)
(2.6219458e+41 5.188688e+41 -2.2458041e+41)
(2.1770875e+41 2.7807171e+41 -1.9038547e+41)
(2.0416073e+41 1.8537281e+41 -9.3232198e+40)
(-9.1150146e+40 2.7930016e+41 -8.5392484e+40)
(-4.549927e+41 6.645445e+40 -5.6251939e+40)
(2.8788875e+41 3.5713067e+41 1.5748458e+41)
(2.4115349e+41 6.9546666e+41 6.6573979e+41)
(-2.586112e+41 4.972058e+41 -1.1624779e+41)
(1.2983057e+42 5.2058042e+41 9.1061309e+40)
(-6.8483288e+41 2.3553326e+41 1.4017457e+41)
(-1.1295377e+42 2.1077703e+39 -1.3044364e+41)
(-9.1047052e+41 -1.7823784e+41 -2.7020288e+40)
(-3.9819108e+41 -9.6438063e+40 -3.7300689e+40)
(5.7150513e+42 -1.1851208e+42 -4.6635965e+41)
(-5.830994e+41 4.0213636e+40 1.7400467e+40)
(-2.3592621e+42 1.2975454e+41 8.2638362e+40)
(1.6951555e+40 1.3869185e+40 -4.3057147e+39)
(2.4019935e+40 2.6966466e+41 -8.8882171e+41)
(-1.5636552e+42 3.2405945e+41 -1.2586775e+41)
(5.1093748e+42 2.9119205e+41 -6.9790582e+40)
(-8.1577843e+41 -3.7034093e+41 5.6604393e+41)
(-3.1519403e+41 -2.1175023e+41 4.5780858e+41)
(-2.1188652e+42 -7.3224745e+41 4.062796e+41)
(-3.1432454e+41 -3.0436699e+41 3.536067e+41)
(-5.7014279e+41 -5.6970127e+40 -2.8048093e+38)
(-6.6880317e+41 -2.9816948e+40 -3.8305718e+40)
(-1.3967308e+42 2.7629684e+41 3.3763633e+41)
(-2.0146787e+42 1.4547213e+40 9.8630955e+40)
(-5.7464906e+41 -1.9715437e+40 3.6614307e+40)
(-4.0275218e+41 -4.7384201e+39 4.9524809e+40)
(-4.2643365e+41 6.7708573e+40 -4.7042311e+39)
(-4.3656769e+41 2.5942363e+40 -1.1718905e+40)
(-4.1168091e+41 3.3875474e+39 4.5797915e+40)
(-4.0489947e+41 1.7476258e+40 6.3948167e+39)
(-3.7296327e+41 6.850431e+39 2.713189e+39)
(-3.6359675e+41 -5.686175e+39 8.6907322e+39)
(-3.777494e+41 -1.178488e+40 7.9247121e+39)
(-4.1044233e+41 2.0850634e+40 -3.9982898e+39)
(-4.5020159e+41 2.1644233e+40 -5.4793134e+39)
(-4.0298699e+41 -7.1909694e+39 -1.7577837e+39)
(-3.8914514e+41 5.1225761e+39 9.7592243e+37)
(-5.2392524e+41 -8.0582998e+40 6.9815401e+40)
(-6.9311123e+41 1.0204753e+41 1.1251297e+41)
(-7.8537879e+41 9.9181831e+40 7.5833263e+40)
(-4.3186584e+41 1.3564889e+41 9.2104892e+40)
(-4.9869265e+41 1.495482e+40 8.2038563e+40)
(-3.6535452e+41 9.0559883e+40 -4.0194413e+39)
(-5.0111072e+41 2.2808038e+41 3.6159698e+40)
(-3.3851581e+41 1.0741883e+40 2.2445051e+40)
(-6.5822224e+41 -4.270199e+40 1.7862289e+41)
(1.1393826e+41 -1.7082125e+41 7.5123465e+40)
(-2.6740551e+41 7.9457745e+40 -4.0014939e+40)
(-2.2205549e+41 1.6437891e+41 3.3408836e+39)
(4.5508436e+42 1.0596954e+41 6.0591837e+40)
(1.4708378e+41 4.4301261e+41 1.0086268e+41)
(1.8983959e+41 5.4423491e+41 -5.2805013e+41)
(7.4150249e+41 8.5940204e+41 3.752123e+40)
(-2.1044687e+41 1.0825086e+41 -2.3869478e+41)
(1.7262564e+41 3.1520088e+41 -9.3748582e+40)
(1.0182032e+40 1.0919778e+41 -1.8801926e+41)
(8.3880326e+41 -1.0407293e+42 4.8149849e+40)
(-3.4572083e+41 -7.1184191e+40 -4.6787793e+39)
(2.2476493e+41 2.1985345e+40 4.4973186e+40)
(4.1832032e+41 1.8536247e+41 -1.2218576e+41)
(-2.525818e+41 -2.6346536e+40 -2.8314373e+41)
(-1.6041041e+41 -1.2480339e+41 -8.7328616e+40)
(4.3534459e+41 2.7808196e+41 4.0673575e+41)
(-2.7689236e+41 -6.5475475e+40 -1.6955378e+41)
(-2.8576681e+42 3.6654577e+41 3.3019058e+40)
(-3.1622657e+41 -9.3648744e+40 -4.5983282e+40)
(-3.5075073e+41 -1.1001502e+41 1.2074909e+38)
(-3.5314591e+41 -4.2568059e+40 4.8561796e+39)
(1.7923716e+41 1.5222547e+41 7.8623606e+40)
(-1.7180377e+42 -1.8331513e+41 1.0281192e+41)
(-8.7973642e+41 3.4435085e+41 -1.5309282e+41)
(2.8204016e+41 1.3759194e+41 -4.9329975e+41)
(9.9154725e+40 -2.3035157e+41 -1.8923751e+41)
(-5.3431216e+41 -1.7226876e+41 -9.3927463e+40)
(-1.6567829e+42 -2.2968812e+41 7.3793235e+39)
(-3.2185649e+41 7.8131902e+40 5.6883382e+40)
(-1.8254249e+42 -1.6489929e+41 -2.4070261e+41)
(-4.4478013e+41 7.330691e+40 -1.4868002e+41)
(-3.9349805e+41 -5.6509013e+40 1.450765e+39)
(-4.0530103e+41 -7.5853047e+40 4.9763769e+39)
(-2.7497688e+41 -2.4873159e+41 -3.574258e+38)
(-3.9001558e+41 -9.9048687e+40 -2.7355483e+38)
(6.4717333e+41 6.3380229e+40 1.2676547e+41)
(-4.4621956e+41 1.1754265e+41 -2.2024952e+40)
(-2.8115501e+41 7.1415619e+40 2.2773202e+39)
(-3.0689929e+41 6.4590831e+40 -1.5989491e+40)
(-2.955008e+41 8.019834e+40 1.1834339e+40)
(-2.8814704e+41 6.3965514e+40 -1.6310615e+40)
(-4.2961178e+41 7.417764e+40 7.5213216e+40)
(-3.3638397e+41 2.5742959e+41 -7.0364475e+40)
(-2.5794842e+41 4.435163e+41 -1.2923256e+41)
(3.7509292e+41 1.8847572e+41 -1.562209e+41)
(-1.1469583e+41 2.0572283e+41 -1.0828336e+41)
(3.9058126e+41 2.4329501e+41 -4.4236666e+41)
(-7.0018096e+41 -6.9126833e+40 -3.508309e+41)
(3.8951798e+41 3.8659651e+41 -5.7344271e+41)
(-1.0731015e+42 3.0867355e+41 -2.4465814e+41)
(-1.8233441e+41 8.4606969e+40 2.1847605e+40)
(1.0994532e+41 -1.8100127e+40 1.0182642e+41)
(7.7256349e+41 5.8953699e+40 -1.776842e+41)
(-3.3394287e+41 -2.5930661e+40 2.1794392e+40)
(4.6527772e+41 2.5274493e+40 4.6478715e+41)
(-2.6368126e+41 8.9665273e+40 -4.9541712e+39)
(1.394786e+42 8.526559e+41 -3.8238988e+41)
(-2.2589202e+41 5.174125e+41 -3.5898861e+40)
(-9.2375935e+40 -5.2645665e+40 -4.2615742e+40)
(2.3611708e+41 3.3310423e+41 -1.9619266e+41)
(-4.7878518e+41 2.5494712e+40 -5.9892708e+39)
(2.7282588e+41 5.0875588e+41 -1.8465491e+41)
(5.5104388e+41 9.4224669e+41 -3.1366437e+41)
(1.9231505e+40 1.8767523e+41 2.490803e+41)
(1.4772183e+42 2.0293021e+41 6.0151154e+41)
(-2.8509409e+42 -2.7356868e+38 1.1506958e+41)
(-2.9310299e+42 1.2166494e+40 -4.4994308e+41)
(-2.5893163e+41 -6.3699056e+41 -1.660493e+41)
(-6.9395889e+41 -5.0542813e+41 2.2915248e+41)
(-8.4152121e+41 -4.1872985e+41 2.9925962e+40)
(-5.0004521e+41 -1.7311329e+40 3.1500556e+39)
(-3.28824e+41 -1.4186544e+41 -8.1719677e+40)
(-6.4220174e+40 -1.5654405e+41 -3.9828093e+41)
(4.7431137e+42 1.3130031e+42 1.3033628e+42)
(-5.7863236e+41 -3.478589e+40 2.3267822e+40)
(-1.7380586e+42 2.5315496e+41 1.3240011e+41)
(-1.2464765e+42 1.8754497e+41 2.6102926e+41)
(1.5309754e+41 -3.2254143e+41 -2.4757244e+41)
(-3.1170412e+42 -1.2406609e+41 -8.0595357e+40)
(3.5358261e+42 -5.0494025e+40 -1.0889086e+40)
(-8.4554772e+41 -1.9185419e+41 1.2885209e+41)
(2.36304e+41 6.9218951e+41 3.6139811e+41)
(-5.1952577e+41 -6.3601732e+41 1.9357159e+41)
(-2.8962366e+42 -1.3985493e+42 4.7373306e+41)
(-4.8983925e+41 -1.2631252e+41 1.0079793e+40)
(-4.5718608e+41 -1.9377938e+41 -2.6151857e+41)
(-4.1259144e+41 8.9936797e+40 9.8986005e+40)
(-5.029337e+41 -6.6331575e+40 -1.0395814e+41)
(-9.4660119e+41 -6.8497481e+40 2.730529e+39)
(-6.2131991e+41 5.6061557e+40 -7.3050273e+40)
(-1.2771039e+42 5.5435274e+41 2.3008236e+41)
(-1.5952603e+42 -3.8868246e+41 2.5723334e+41)
(-5.7962439e+41 -3.5237631e+40 4.4452132e+40)
(-5.6461015e+41 -9.298574e+40 4.4290317e+39)
(-4.325062e+41 -4.8075798e+40 5.1595862e+40)
(-5.2272723e+41 2.1440927e+40 -6.2019167e+39)
(-4.728957e+41 5.7640509e+40 5.0198898e+39)
(-4.3862799e+41 1.0383376e+40 5.7961494e+40)
(-3.8791489e+41 1.147028e+40 7.2987585e+39)
(-3.6878986e+41 7.5142728e+40 2.0454107e+40)
(-3.73171e+41 1.8915862e+40 2.3220191e+40)
(-3.8562349e+41 -1.207872e+39 1.0324206e+40)
(-4.2648964e+41 1.1608341e+40 -1.9043132e+39)
(-4.0422039e+41 4.9290227e+39 -2.9473148e+39)
(-3.64076e+41 -1.7577684e+40 -1.9855794e+38)
(-3.7977254e+41 -3.3932403e+40 -2.6805712e+39)
(-4.3937873e+41 1.9813815e+40 -1.19446e+39)
(-4.6879699e+41 1.9146393e+40 -2.0156522e+39)
(-4.2668991e+41 -1.3029296e+40 9.2379573e+38)
(-4.2118793e+41 -1.0237333e+40 2.6955645e+39)
(-3.7501565e+41 -2.9715235e+41 1.3306746e+41)
(-5.1057006e+41 -1.2822394e+41 1.266912e+41)
(-1.2325942e+42 -2.0454472e+41 1.0963663e+41)
(-1.0313004e+42 -2.1799055e+41 1.1998865e+40)
(-3.2713749e+41 2.1708925e+41 5.2906725e+40)
(-5.2944038e+41 -4.2114125e+40 6.6531238e+40)
(-4.3095537e+41 -1.2482106e+41 7.8123634e+40)
(-2.6470636e+41 -1.9903853e+41 3.1940762e+40)
(-5.2613481e+41 -1.1347774e+41 -1.2674506e+40)
(2.1565365e+42 1.3327573e+41 4.5885403e+40)
(4.1338319e+41 1.7662246e+41 -2.4137923e+41)
(-3.8547544e+41 1.5933797e+41 2.1377566e+40)
(-4.9624143e+41 8.1609908e+40 2.1353928e+40)
(-3.4370486e+41 1.3452903e+41 4.4817224e+40)
(-9.6221871e+41 -5.2161966e+40 -4.6101731e+40)
(-3.4547522e+41 2.8190293e+41 -1.4685952e+40)
(-3.0819421e+41 1.5706971e+41 -1.0917933e+41)
(5.3471019e+42 -6.7574951e+40 6.0643706e+40)
(2.0603309e+42 3.2141948e+40 -7.8616915e+40)
(5.2701547e+41 7.1243946e+40 5.3372453e+41)
(-1.0076183e+41 6.3833075e+39 -4.4248911e+40)
(-1.7469811e+41 1.3069834e+41 -1.2613446e+40)
(6.2750271e+42 3.3493645e+41 1.22609e+42)
(-2.4304896e+42 -4.3765009e+40 -1.1859068e+40)
(9.3293238e+41 4.5054467e+41 -7.3295741e+41)
(3.5525307e+40 -5.9574117e+41 7.6928982e+41)
(1.1284239e+41 -2.5182261e+41 1.5389361e+41)
(9.6496902e+41 -2.2852084e+41 5.5299389e+41)
(-6.6705049e+40 -5.36101e+40 -3.2813706e+41)
(-8.8593288e+40 1.595172e+41 -7.2083163e+40)
(-7.988153e+40 5.9192283e+39 -1.2348203e+41)
(8.4087391e+41 -1.2040447e+42 -7.3391995e+40)
(-3.4065458e+41 -6.5526477e+40 -5.61299e+39)
(-1.2312916e+41 -1.2300957e+41 5.803256e+41)
(-8.858843e+40 -6.0130741e+40 -1.4593432e+41)
(2.4426838e+41 2.0147096e+41 -1.4920455e+41)
(-3.6226286e+41 6.8947309e+40 -3.1041684e+41)
(4.2302657e+40 -6.5660023e+40 -3.6910308e+41)
(4.6519894e+40 8.2239083e+41 -1.2334042e+42)
(9.7806809e+41 3.4871471e+40 5.9284638e+41)
(-4.2891478e+41 -2.2010209e+39 -2.0034358e+41)
(-2.9425617e+42 4.7478086e+41 -6.0112666e+40)
(-3.209303e+41 -1.102391e+41 -4.0703924e+40)
(-3.1994875e+41 -1.1116767e+41 7.5939705e+38)
(-3.4350221e+41 -4.5685944e+40 1.3143783e+39)
(7.2703079e+40 4.2675181e+40 -6.3785663e+41)
(3.8543969e+41 1.1807895e+41 -1.8768397e+41)
(-5.7575073e+41 -5.9956679e+40 1.5689733e+40)
(-4.8072491e+41 -1.3803816e+41 -1.0668782e+41)
(-7.7491381e+41 -3.1250367e+41 3.6645064e+40)
(2.4266103e+41 -8.3527088e+39 1.7272675e+41)
(-1.2068133e+42 4.6255275e+40 -1.4477247e+41)
(-4.7589554e+41 6.4370335e+40 -9.7479667e+40)
(5.4911898e+41 1.0586393e+41 8.8368681e+40)
(6.1779353e+41 1.5808258e+41 4.9077655e+41)
(-9.1824732e+41 -6.8179108e+40 -3.5189459e+41)
(-5.7944311e+41 9.6067994e+40 -1.9878867e+40)
(-4.6215293e+41 7.8009442e+40 3.2475277e+40)
(-3.6705413e+41 8.9159107e+40 -1.2653361e+40)
(-3.5972237e+41 1.5142957e+41 5.2420122e+39)
(-3.1461711e+41 1.3047933e+41 8.6839332e+39)
(-3.3340833e+41 8.9680124e+40 -2.687825e+40)
(-2.5180228e+41 7.9780001e+40 2.7791924e+38)
(-3.0687564e+41 8.0408906e+40 7.6530721e+39)
(-2.7193817e+41 9.5543179e+40 1.4252388e+39)
(-2.8814993e+41 6.5527502e+40 8.7506348e+39)
(-3.2511103e+41 4.0447879e+40 2.1802463e+41)
(-6.2829327e+41 1.4259645e+41 1.7939218e+40)
(-8.9320632e+41 3.1790404e+41 5.3890583e+40)
(-5.9474778e+41 3.4773558e+41 -3.4154989e+40)
(-4.4574486e+41 2.0864059e+41 -5.371246e+40)
(-3.7595909e+41 1.0527731e+41 -3.7151113e+40)
(-2.6039223e+41 -9.5265757e+40 5.7937496e+41)
(-2.8005137e+41 4.4127918e+40 1.9186191e+41)
(-3.4875526e+41 -3.807826e+41 1.0779439e+41)
(-2.2773074e+41 2.754461e+41 -6.0186857e+39)
(-2.0543572e+41 4.5247131e+41 -1.3814402e+41)
(-2.8247357e+41 4.7886159e+41 -1.3654754e+41)
(-3.4788756e+40 1.0444836e+41 6.8162842e+40)
(5.7653619e+41 1.8570843e+41 -1.7262535e+41)
(-2.3581101e+41 2.2426636e+41 6.9374562e+40)
(-6.7507457e+41 2.9061351e+41 -5.1693747e+41)
(-1.0547453e+42 -4.2606237e+41 -1.6845762e+41)
(2.9948184e+42 2.4135707e+41 -8.3568792e+41)
(-2.205819e+42 5.7548375e+41 -2.5116346e+41)
(-2.2854198e+41 5.4497823e+40 1.0171169e+40)
(8.4992263e+41 -4.526086e+41 4.4091466e+41)
(-2.4600413e+41 -6.9847523e+40 5.5333426e+40)
(-4.6928311e+41 2.7446905e+41 -1.3792284e+41)
(-3.2906483e+41 -6.1919573e+39 5.1443217e+39)
(-5.8756396e+41 -1.5309998e+40 8.6171663e+40)
(4.1129314e+42 1.6000912e+41 3.1096976e+40)
(-3.0117677e+41 8.1526417e+40 1.7314053e+39)
(1.7393689e+42 3.7930839e+40 2.9313889e+40)
(-2.1451153e+41 6.9464984e+41 7.5028715e+41)
(1.5389051e+41 -8.1345214e+41 -2.4815496e+41)
(1.3086765e+40 -1.040786e+41 -8.627391e+41)
(-4.7072872e+41 -7.0938553e+40 -1.4979871e+40)
(1.4724912e+41 2.6388343e+41 9.0681096e+40)
(-4.468342e+40 9.3258668e+41 -4.8597227e+41)
(2.4607317e+41 -3.2864534e+41 1.0573283e+41)
(-1.7950106e+42 -1.8654871e+41 3.8361662e+41)
(-2.1477e+42 -2.6880071e+41 2.4478378e+41)
(-4.9687959e+41 -6.8455189e+41 -3.6781606e+41)
(-3.3862475e+42 7.1565555e+40 -4.3190605e+41)
(-7.8705728e+41 -2.9827629e+41 6.328372e+40)
(-2.1433065e+42 -7.1203185e+41 5.3608976e+41)
(-3.8877242e+41 -4.3644858e+40 2.4952364e+40)
(-8.5494154e+41 2.0198092e+41 1.1316771e+41)
(-6.1575842e+41 2.9114701e+41 1.1221744e+41)
(-2.2282366e+41 1.1199754e+41 -1.7190099e+41)
(-7.2958603e+41 3.5010098e+41 5.3162041e+41)
(-1.7093389e+41 1.9686603e+41 -1.7313382e+41)
(5.4141531e+42 3.9542293e+41 -8.4004271e+41)
(5.4175054e+42 1.1205397e+42 1.6882062e+42)
(-5.1648036e+41 -1.4175076e+41 3.9284945e+39)
(-1.0734163e+42 2.4808124e+41 1.7316902e+41)
(-3.1677405e+42 -4.0587179e+41 -9.2843252e+40)
(4.1481083e+41 -1.7876024e+41 1.3221808e+41)
(1.2815497e+41 4.3594811e+41 1.2990388e+41)
(-4.7431103e+41 -7.8208251e+41 -2.1096837e+41)
(-3.0776488e+42 -1.6183e+42 7.2153669e+41)
(-3.7245854e+41 -2.5092032e+41 -2.6211188e+40)
(-3.9289882e+41 3.7112829e+40 1.7685818e+40)
(-2.3376096e+41 -9.632639e+40 3.5682786e+41)
(-5.7741442e+41 -2.3794699e+41 1.9703963e+41)
(-3.4270545e+41 -1.2511972e+41 -9.1941679e+40)
(3.1884566e+42 -4.5302149e+41 -1.236896e+41)
(1.6107222e+42 1.8636884e+41 3.0521428e+41)
(-2.2429525e+41 -1.9647499e+41 -1.9883777e+41)
(5.9735965e+40 -2.1076818e+41 -8.0255922e+39)
(-2.9574615e+42 -7.042058e+40 -2.3216204e+41)
(-1.7318161e+41 -4.217452e+41 -2.8323695e+41)
(-5.8048762e+41 -6.6087098e+40 3.3346326e+40)
(-4.2220378e+41 -5.644176e+40 5.3937634e+40)
(-4.4383943e+41 -1.1744807e+40 5.5910082e+40)
(-4.3652491e+41 -2.4850024e+40 -1.8965374e+40)
(-4.5259229e+41 -3.2311152e+40 -1.5250859e+40)
(-6.1028923e+41 -1.5241301e+41 -1.1741012e+40)
(-4.1735638e+41 -1.0332412e+41 3.8911259e+40)
(-4.6912448e+41 -8.8599307e+40 -1.7562259e+40)
(-4.841117e+41 -6.5694936e+40 -1.8524757e+40)
(-4.486831e+41 -5.1657671e+40 4.3191284e+40)
(-4.1852747e+41 -3.1397825e+40 7.9695652e+39)
(-4.6030051e+41 1.6095599e+40 1.3372836e+40)
(-4.2954655e+41 6.9288158e+40 1.6221549e+40)
(-4.0843763e+41 5.1528286e+39 1.0136624e+40)
(-3.6903442e+41 8.0425549e+39 -1.260273e+39)
(-3.2631278e+41 6.3952759e+40 2.7553653e+39)
(-3.4298203e+41 1.8306196e+40 4.2785549e+39)
(-3.5721967e+41 -1.3730144e+40 9.0864314e+38)
(-4.3816121e+41 1.3478063e+40 -8.7131722e+38)
(-4.3115377e+41 6.8660977e+39 -1.3417814e+39)
(-3.7953476e+41 -1.683266e+40 4.2285702e+38)
(-3.7695636e+41 -2.7280448e+40 -1.1387054e+39)
(-4.2646693e+41 -4.1009494e+41 1.1914347e+39)
(-1.1003363e+42 -2.414931e+41 1.7198305e+41)
(-1.0160118e+42 -2.7528105e+41 1.755218e+41)
(-4.102919e+41 -1.6776275e+41 1.3894702e+41)
(-3.2482866e+41 -2.9050657e+41 1.0019591e+41)
(-2.8189788e+42 -2.8563899e+41 2.045151e+41)
(-6.9788358e+41 -3.8401772e+41 2.5862631e+41)
(1.0971656e+41 -2.4004706e+41 -1.587276e+40)
(-2.9666128e+41 -2.1860492e+41 1.2428822e+41)
(-5.7600369e+41 3.3009996e+40 -1.9574914e+41)
(-1.2180083e+42 -1.0745453e+41 -2.4783312e+41)
(2.7783398e+40 -9.4275717e+40 -9.4897853e+40)
(-8.7060373e+41 5.6060124e+39 -3.0649029e+41)
(-7.1537659e+41 4.3940102e+41 -2.7319378e+41)
(-2.805591e+41 -1.9199373e+41 -2.7191957e+41)
(-5.352188e+41 -4.6971035e+40 1.9009999e+38)
(-4.1624865e+41 -1.3864399e+41 2.2636195e+39)
(-3.3485936e+41 -2.1521325e+41 -2.9322752e+40)
(-7.51524e+41 -2.7078101e+40 2.0369854e+40)
(-2.1281175e+42 -5.3910191e+40 -2.1383331e+40)
(-1.6943728e+42 1.3505221e+41 1.7318207e+41)
(-4.0219498e+41 1.7346758e+41 -3.6866214e+39)
(-4.5161667e+41 6.8202962e+40 3.4631007e+39)
(-2.3883941e+41 2.654091e+41 -1.7016479e+40)
(-3.1313345e+41 1.2229522e+41 1.362791e+40)
(3.9765433e+40 -5.3883841e+41 8.1882997e+40)
(7.5191749e+40 3.3615813e+41 -4.3634209e+41)
(-4.2130492e+41 2.1356673e+41 -3.6652124e+40)
(3.6300055e+41 1.0538658e+41 -4.2647938e+40)
(-8.0527466e+41 9.9266937e+40 -3.1726372e+41)
(-1.7516865e+42 3.8776768e+41 -4.5340902e+41)
(4.3381384e+41 7.4965892e+40 3.6920458e+41)
(-9.9947605e+40 4.8053147e+40 -5.4321641e+40)
(-1.7279639e+41 1.3258319e+41 -1.5752272e+40)
(-1.6208177e+42 1.0294604e+41 1.3266583e+40)
(7.8729705e+42 5.4979038e+41 1.7448674e+42)
(-1.3249584e+42 1.5738537e+41 -1.0347451e+41)
(-2.9563542e+41 1.8655375e+41 -3.2846794e+41)
(1.2482082e+41 -9.5461965e+41 7.0861461e+41)
(8.3915677e+40 -3.489708e+41 1.8657637e+41)
(-6.6501792e+41 -6.1657381e+41 5.5622387e+41)
(6.334358e+41 -6.2243285e+41 7.8277563e+40)
(-3.7508669e+41 6.9932733e+40 -2.7701627e+41)
(-1.4576804e+41 2.1400511e+41 -6.1803482e+40)
(-4.6928992e+40 9.7293181e+40 -1.2625443e+41)
(3.6057573e+40 -2.1980839e+41 3.3489895e+41)
(-5.197459e+40 -5.0728864e+41 3.1931299e+40)
(-3.9062286e+41 2.1524389e+41 -3.2637912e+41)
(-2.9310568e+41 1.275915e+41 -3.2448359e+41)
(-3.4853834e+41 -1.0127413e+41 -3.2255788e+41)
(2.374029e+41 -1.3284822e+41 -1.7512074e+41)
(6.0762527e+40 9.4621674e+41 -2.0920541e+42)
(-4.1283813e+41 -2.1355079e+40 -2.1870862e+41)
(2.2534611e+41 7.0497964e+40 -2.8369957e+41)
(6.2353177e+41 2.0581133e+41 5.4625443e+41)
(-1.1588258e+42 -6.0929389e+40 -1.6440718e+41)
(1.1463687e+41 6.0128161e+39 5.1563542e+40)
(-9.4498495e+41 1.1963557e+40 2.437234e+41)
(-1.3890828e+42 8.9759381e+40 -1.9019305e+41)
(-1.334941e+42 3.2307922e+40 -1.7942687e+41)
(-3.4491447e+41 -5.6670078e+40 3.6826154e+41)
(2.2629825e+41 1.0834037e+41 7.9119652e+40)
(-5.9095116e+41 7.1264082e+40 -2.077711e+39)
(-3.5793941e+41 5.2260355e+40 1.0246914e+40)
(-3.9831083e+41 3.4126184e+40 -2.2968097e+40)
(-3.8009186e+41 6.639207e+40 1.9484679e+40)
(-3.8263519e+41 5.224131e+40 -3.8129018e+40)
(-5.402065e+41 2.0806356e+40 5.6318017e+40)
(-4.4428989e+41 5.8590659e+40 2.4776949e+39)
(-4.8870552e+41 9.0999611e+40 4.7754041e+40)
(-4.2532189e+41 1.3018744e+41 6.1859046e+39)
(-4.1718717e+41 9.1301831e+40 -1.2995961e+40)
(-3.6735172e+41 1.130973e+41 1.1885526e+40)
(-3.3486072e+41 1.703884e+41 -4.9491079e+39)
(-3.1730128e+41 1.3928184e+41 1.4072786e+40)
(-3.3981935e+41 1.0477424e+41 1.0953485e+40)
(-2.9760946e+41 7.3741814e+40 2.6675927e+39)
(-3.5532659e+41 7.9842709e+40 5.8909654e+39)
(-2.942345e+41 7.5303772e+40 3.2121067e+39)
(-3.404361e+41 7.1735227e+40 6.0098771e+39)
(-5.2460647e+41 -1.9277558e+41 1.3649049e+41)
(-7.7220852e+41 -6.7451197e+40 1.0424006e+41)
(-9.2823466e+41 -1.3442793e+41 2.7895513e+41)
(-8.6999561e+41 -3.1427656e+40 1.9297082e+41)
(-7.093249e+41 3.2789163e+40 7.1619679e+40)
(-2.693911e+41 9.8577132e+40 -1.0659651e+41)
(-1.92185e+42 -7.6516262e+40 4.14525e+41)
(-3.8730296e+41 1.6942814e+41 4.7381692e+41)
(-8.7100994e+41 -1.7651854e+41 4.8524378e+41)
(-5.9779472e+41 1.9681657e+41 -2.7696326e+40)
(-6.5701207e+41 3.9832685e+41 -1.403663e+41)
(-1.4215866e+42 3.7575365e+41 3.2680115e+41)
(-3.8154868e+41 3.7638825e+41 -8.309128e+40)
(-5.379731e+41 5.7908071e+41 -4.8888219e+40)
(-4.1682954e+41 2.4169574e+41 -4.7663513e+40)
(1.2288322e+41 -3.0289912e+40 1.7352045e+41)
(2.8858716e+41 5.845e+40 1.1248646e+42)
(1.9780776e+42 4.9105771e+41 3.9998707e+41)
(-2.0334129e+41 -9.2048365e+41 4.9906763e+41)
(-2.9643199e+41 2.5045768e+41 1.2623405e+40)
(1.6955956e+41 6.1311431e+40 -1.8466859e+40)
(-1.679632e+40 3.3626523e+41 -1.0142807e+40)
(-6.3673109e+41 1.7253717e+41 -1.3026554e+41)
(-8.5943161e+40 7.9335419e+40 5.4065297e+40)
(-1.6821478e+41 -1.2971078e+41 1.0619254e+41)
(-2.8994827e+41 2.7635485e+41 -1.4485384e+41)
(-1.5797868e+41 1.3848294e+41 2.270922e+40)
(2.1636864e+41 -1.5461902e+41 8.0937947e+40)
(-2.574359e+42 -6.4920939e+41 2.5853781e+40)
(1.0744942e+42 -2.4859324e+41 -1.9082186e+41)
(-3.8476842e+42 1.9360063e+41 -3.1495708e+41)
(-2.3311515e+41 3.9026244e+40 1.0080476e+40)
(-5.8423025e+41 -1.4112254e+41 1.2637499e+41)
(3.7810412e+42 -1.7940966e+41 -2.7004323e+41)
(-2.8265035e+41 -7.4896033e+40 3.2148936e+40)
(3.8548002e+41 1.1097388e+41 -1.336516e+41)
(-3.3137294e+41 -5.4000435e+40 1.0278394e+40)
(-2.005356e+41 1.1814252e+41 -3.9984616e+39)
(-2.7584532e+42 1.4578603e+41 2.604024e+41)
(8.9350209e+41 3.648685e+41 -1.4672213e+41)
(-3.1771757e+41 4.7779807e+40 3.6605071e+39)
(1.1517891e+42 2.4440489e+41 -1.3633055e+41)
(2.3555255e+41 4.5233336e+41 1.5111149e+42)
(6.739778e+40 -5.5554793e+41 -4.4011834e+40)
(6.6294941e+40 -6.2861471e+40 -6.0098953e+41)
(-4.7116835e+41 -1.7197085e+41 2.400988e+40)
(5.9791804e+41 7.4412425e+41 -3.3592444e+41)
(-1.3572092e+42 -4.5439136e+41 3.885833e+41)
(1.1343976e+41 -4.3466151e+41 -3.4335229e+40)
(-3.4270695e+42 9.8819191e+40 -3.7979593e+41)
(2.458266e+41 4.5470522e+41 5.4214385e+40)
(-1.803616e+42 -5.9980313e+41 5.9527862e+41)
(-2.9072899e+39 -1.8385499e+41 -8.056321e+39)
(-5.0951156e+41 -4.4932648e+41 2.0442397e+41)
(-6.0066462e+41 -5.5106918e+41 1.7767824e+41)
(1.2905056e+41 3.5652071e+41 4.385271e+40)
(-9.4614403e+41 -7.9494693e+40 8.6327802e+40)
(2.0987175e+41 3.8977386e+41 3.1676195e+41)
(-5.9349801e+41 7.0700555e+41 4.9945964e+41)
(3.8143724e+41 1.4894792e+41 -3.3229663e+41)
(-2.2567292e+41 3.3810592e+41 5.5161493e+41)
(2.6084418e+41 -1.3230104e+41 -6.9292757e+40)
(1.0017941e+42 1.8750796e+41 1.4391417e+41)
(-4.9621531e+41 -2.1631517e+41 -1.7517922e+39)
(2.1484388e+41 -9.7678213e+40 -1.0070701e+39)
(-1.0392922e+41 -3.1589548e+41 -3.2418783e+41)
(-5.3094396e+40 -4.4001331e+41 3.5040439e+40)
(-6.2943705e+41 -1.1143284e+41 -1.9289117e+40)
(-4.0117488e+41 -6.079742e+40 -1.4208462e+41)
(-2.953549e+41 -3.3662669e+41 -2.1945018e+41)
(-9.786583e+41 -3.2293186e+41 8.924333e+40)
(-3.59228e+41 5.6795288e+41 4.1415822e+40)
(4.4690982e+41 5.5792352e+41 8.8555813e+41)
(5.3777146e+41 1.308844e+41 5.8627246e+41)
(1.9821495e+42 8.2167303e+40 -7.4927019e+40)
(-1.7131532e+42 -4.9448588e+41 2.7047913e+41)
(1.9252549e+41 7.8143505e+39 3.2057283e+41)
(4.2920801e+41 -9.9304447e+41 -4.3528427e+41)
(-2.1967377e+42 -3.3779726e+41 4.2445809e+40)
(-2.4444548e+42 7.5519903e+40 -3.9073044e+41)
(9.1050248e+37 -7.9974175e+41 -5.4597832e+41)
(-5.9908249e+41 -5.0412027e+40 5.7493303e+40)
(-5.7620024e+41 -8.7172102e+40 2.4985006e+40)
(-4.2445685e+41 -4.249405e+40 4.8811775e+40)
(-3.9795989e+41 -8.1809346e+40 4.9282396e+40)
(-4.0939879e+41 -7.4851896e+40 -3.1624896e+40)
(-4.2192963e+41 -7.3675374e+40 -2.6629042e+40)
(-4.0864589e+41 -4.2099601e+40 6.2257407e+39)
(-4.2819167e+41 -2.0519535e+40 4.4186689e+39)
(-4.2000786e+41 -1.171611e+40 1.1556324e+40)
(-4.148583e+41 -3.7934289e+40 1.1008099e+40)
(-5.3280167e+41 -1.7356329e+41 -2.6360109e+40)
(-3.4015571e+41 -1.6537921e+41 2.9452386e+40)
(-3.6816248e+41 -1.7340533e+41 -2.9785319e+40)
(-4.029341e+41 -1.6845711e+41 -1.7656531e+40)
(-4.0213132e+41 -1.1332464e+41 3.324881e+40)
(-3.8835651e+41 -1.0050174e+41 1.9358561e+39)
(-4.0430295e+41 -1.1022953e+41 1.0258408e+39)
(-4.6052541e+41 -5.0719601e+40 3.813447e+39)
(-4.1963086e+41 -6.3155901e+40 2.7321336e+39)
(-3.7927771e+41 -3.6675128e+40 -1.8689427e+38)
(-4.1547107e+41 6.0686258e+39 2.7859631e+38)
(-3.7997564e+41 6.449283e+40 -7.219664e+38)
(-3.6848013e+41 -8.1722049e+38 1.858927e+38)
(-4.0237965e+41 9.3993695e+39 -4.9390815e+38)
(-3.7984325e+41 7.3736966e+40 3.7296853e+39)
(-3.925484e+41 3.6705741e+40 4.2534893e+39)
(-3.7819907e+41 -3.2828611e+39 6.5160377e+38)
(-2.4454655e+41 -2.906177e+41 -1.0434447e+41)
(-2.0209568e+41 -6.2321153e+41 -2.2697178e+41)
(-3.4854166e+41 -2.1750181e+41 -2.9887869e+40)
(-3.6868242e+41 -1.6028173e+41 6.7922364e+39)
(-9.2471162e+40 -4.2549603e+41 -1.7233672e+41)
(-2.637875e+40 -1.8072443e+41 5.8434656e+40)
(-7.3026264e+41 -2.8570766e+41 -3.2226307e+41)
(-4.8900598e+40 -1.4039986e+41 -1.6083379e+41)
(-3.0094429e+41 -5.0183934e+40 -1.205535e+41)
(-1.6006649e+42 -3.4848847e+40 3.5900123e+41)
(-4.0714653e+41 7.2004272e+40 1.4624282e+41)
(-1.7283211e+41 2.9384156e+40 2.4246644e+40)
(-3.7818584e+41 -2.0549962e+41 -1.0789354e+39)
(-3.2411995e+41 -2.5696747e+41 -3.7725107e+40)
(-3.5897068e+41 -6.4011547e+39 4.722547e+41)
(4.6646976e+41 -6.343572e+41 1.7768372e+41)
(-2.0748717e+40 -3.4015889e+40 -3.084227e+41)
(-2.3550271e+41 -2.0704794e+41 -4.8232458e+40)
(-3.9384802e+41 -2.4287518e+41 1.7907944e+40)
(2.8496089e+41 5.4293304e+41 -6.2121915e+41)
(-2.8747594e+42 -3.5372752e+41 -9.7664014e+41)
(2.9946547e+41 1.5380348e+40 -5.9719323e+41)
(3.1986768e+41 9.9078916e+40 -3.0728714e+41)
(-9.5696309e+41 1.2586783e+41 -9.7404928e+40)
(7.4565503e+41 8.907707e+40 -7.1708099e+40)
(9.4615151e+40 1.3445329e+41 -6.5852989e+41)
(-1.6068968e+41 -4.2831084e+41 -2.7541167e+41)
(-5.1812177e+41 -4.3331558e+40 2.3005377e+39)
(-4.4213972e+41 -1.3105671e+41 7.2214691e+38)
(-4.2463001e+41 -1.6727799e+41 -2.6843845e+40)
(-6.9190336e+41 1.0338949e+40 2.8751358e+40)
(-1.3962886e+42 -2.3183365e+39 -2.231229e+40)
(-1.2690847e+42 2.4462483e+41 5.2462246e+41)
(-4.2854741e+41 1.7539033e+41 1.5414561e+39)
(-4.5903395e+41 8.5547387e+40 8.1919097e+39)