/*--------------------------------*- C++ -*----------------------------------*\
  =========                 |
  \\      /  F ield         | OpenFOAM: The Open Source CFD Toolbox
   \\    /   O peration     | Website:  https://openfoam.org
    \\  /    A nd           | Version:  7
     \\/     M anipulation  |
\*---------------------------------------------------------------------------*/
FoamFile
{
    version     2.0;
    format      ascii;
    class       volVectorField;
    location    "7000";
    object      UMean;
}
// * * * * * * * * * * * * * * * * * * * * * * * * * * * * * * * * * * * * * //

dimensions      [0 1 -1 0 0 0 0];

internalField   nonuniform List<vector> 
33730
(
(-4.7462498e+39 -1.3558244e+38 -5.2758741e+38)
(-3.1117269e+39 4.832827e+38 2.6081169e+38)
(-5.6695011e+39 5.932063e+37 -2.4787255e+38)
(-4.7963983e+39 2.7892201e+38 -2.9368425e+36)
(-4.5570748e+39 -1.1985079e+38 -1.4383957e+39)
(-7.2437463e+39 -7.3917651e+38 -5.583781e+38)
(-6.7926024e+39 9.5070813e+38 -1.1251607e+39)
(-8.4478879e+39 -4.7190065e+38 -1.8171472e+39)
(-4.9024929e+39 -2.4942053e+38 5.2357918e+37)
(-4.973516e+39 8.7488416e+37 6.9927906e+37)
(-4.3317108e+39 4.0270579e+37 -3.794674e+38)
(-4.8498883e+39 -3.5723396e+38 -4.407349e+38)
(-3.1488333e+39 1.7096559e+38 6.8536073e+37)
(-5.3670165e+39 3.1645582e+38 1.2957006e+38)
(-2.2629879e+39 7.336791e+38 4.2032846e+38)
(-6.228155e+39 8.8023088e+36 6.0427886e+37)
(-5.5776484e+39 9.4160465e+38 5.1571336e+38)
(-3.1147356e+39 8.7454417e+38 1.7512509e+38)
(-5.9802289e+39 -6.9120659e+37 -3.8001277e+38)
(-5.5605469e+39 1.1249089e+38 -1.2355039e+38)
(-4.1098918e+39 -1.0398042e+38 -1.3334583e+38)
(-4.2966786e+39 -1.4183203e+38 -7.5233914e+37)
(-4.5315432e+39 -2.0746533e+38 -1.1250911e+38)
(-4.7510103e+39 -2.8356227e+37 -2.1117338e+38)
(-4.6337858e+39 3.4654495e+38 4.2518735e+38)
(-6.3436519e+39 -4.9363469e+37 -4.935283e+38)
(-3.9771518e+39 -4.421646e+38 3.3294061e+38)
(-5.902828e+39 5.05379e+38 -9.9599106e+38)
(-5.9760537e+39 -1.0532054e+39 -8.5360421e+38)
(-5.1334818e+39 6.6911229e+38 -9.6666224e+38)
(-3.3880683e+39 5.364441e+37 -3.9398799e+38)
(-3.8256447e+39 -4.4122749e+38 -2.928563e+38)
(-4.6741597e+39 -4.2867472e+38 2.6417685e+38)
(3.2826483e+38 -8.9643065e+38 -2.9991773e+39)
(-3.9544959e+39 -2.3776867e+39 -7.0542728e+38)
(-1.7830507e+39 1.8831066e+39 -3.1241882e+38)
(-7.167366e+39 6.1775737e+38 -1.4552366e+39)
(-9.5567688e+39 -1.7341646e+39 -2.320837e+39)
(-7.3193216e+39 -3.7344664e+38 -1.6225219e+39)
(-4.4373629e+39 -2.7075501e+38 5.9943433e+37)
(-4.8145415e+39 -2.592964e+37 1.0492766e+37)
(-4.351723e+39 -1.3272943e+37 -2.917986e+38)
(-4.1210151e+39 -3.6754067e+38 -2.0600452e+38)
(-3.5423511e+39 -1.1744461e+38 2.8704338e+38)
(-4.7167505e+39 3.215013e+38 -4.7953348e+37)
(-4.1675826e+39 -1.3911413e+38 6.5568011e+38)
(-4.3334456e+39 2.8995305e+38 3.984454e+38)
(-4.7910818e+39 -1.4376041e+38 2.1561757e+38)
(-3.2246745e+39 7.9757566e+38 -6.0885959e+37)
(-4.5731786e+39 7.0565825e+38 7.6215028e+38)
(-5.226536e+39 5.0504643e+38 1.39976e+38)
(-4.9397575e+38 1.3771861e+39 -1.2052252e+38)
(-2.4308381e+39 -1.1290561e+39 -8.6497548e+38)
(-3.2824263e+39 9.0209741e+38 -3.0152743e+38)
(-4.4597607e+39 7.434824e+38 -3.0532454e+38)
(-5.4550818e+39 8.5073911e+38 2.733998e+38)
(-6.4082482e+39 5.3596923e+38 1.8219782e+38)
(-7.363698e+39 3.6836556e+38 1.3993962e+38)
(-4.3728343e+39 6.4191238e+38 2.0431489e+38)
(-2.385399e+39 -1.5751126e+39 -1.1042918e+39)
(-5.5504099e+39 1.2350008e+38 1.6647559e+38)
(-4.1193233e+39 -1.4083981e+38 -4.3167498e+37)
(-4.1052032e+39 -2.1650314e+38 -7.5488239e+37)
(-4.3923724e+39 -3.4412156e+38 6.0993177e+36)
(-4.0961709e+39 -3.6732155e+38 2.4601962e+37)
(-4.2647686e+39 -5.9694695e+35 -5.7605749e+37)
(-4.2080497e+39 -1.9247196e+38 -5.7034185e+37)
(-4.1500522e+39 -2.7118348e+38 -3.3471425e+37)
(-4.5351368e+39 -4.3195158e+37 -3.7669723e+37)
(-5.0074652e+39 -2.6462684e+38 2.4023809e+38)
(-4.476445e+39 8.9522098e+38 -4.4065439e+38)
(-3.0304942e+39 8.6214221e+37 8.8844603e+37)
(-3.6594768e+39 1.6805029e+38 3.804129e+38)
(-8.3368886e+39 7.4050768e+38 -9.4048786e+38)
(-9.2746378e+39 8.1583355e+38 6.0752475e+38)
(-5.5008643e+39 1.0501056e+39 -1.3074594e+39)
(-2.2954063e+39 5.3006986e+38 2.0460763e+37)
(-1.6996062e+39 3.1027049e+38 -5.6890786e+38)
(-2.4337606e+39 -3.2396806e+38 -1.0563169e+39)
(-3.1307908e+39 -3.8057941e+38 2.3074894e+37)
(-2.1994348e+39 8.3340167e+38 -1.0054573e+39)
(-2.8881145e+39 5.5713525e+38 -1.8535974e+39)
(-4.7699686e+38 -2.4385341e+39 -1.4513801e+39)
(-5.0727157e+39 -6.4821081e+38 -1.7525622e+39)
(-6.9312837e+39 8.8621431e+38 -1.7835627e+39)
(-2.658091e+39 -2.920144e+38 -5.767199e+38)
(-3.0065541e+39 -4.506167e+38 -2.8142055e+38)
(-3.3726203e+39 -4.3189529e+38 1.3379845e+38)
(1.6157625e+39 -1.4536204e+39 -9.3695697e+37)
(-5.2027513e+39 -3.8676491e+39 -6.857607e+38)
(-5.8133777e+39 1.5608887e+39 6.2647198e+38)
(-4.5368646e+39 7.0516964e+38 -3.7074518e+38)
(-6.0243069e+39 5.2159281e+37 -2.4701211e+39)
(-6.2952798e+39 -5.4896043e+38 2.9108357e+38)
(-1.4759166e+40 -1.9000034e+39 -4.234159e+38)
(-6.5202259e+39 1.9737218e+38 -1.9705126e+39)
(-4.9139405e+39 -5.4312962e+37 -6.616805e+36)
(-4.8836446e+39 3.679097e+38 -2.3385053e+37)
(-3.6870851e+39 2.405119e+38 -3.52511e+38)
(-4.295538e+39 -1.8389049e+38 -2.1634138e+38)
(-5.0182194e+39 1.4904919e+38 4.6039923e+37)
(-4.093889e+39 1.9648572e+38 1.8559212e+38)
(-3.9202177e+39 -4.3078271e+38 6.0419441e+37)
(-3.7242185e+39 -7.1022174e+38 4.845048e+38)
(-3.6192762e+39 -5.8295112e+38 6.6153702e+38)
(-3.8689299e+39 -2.7764647e+38 2.0179921e+38)
(-5.254363e+39 1.2241386e+38 1.8320191e+38)
(-4.5405077e+39 -3.1112312e+37 1.2822524e+39)
(-5.3193039e+39 3.1485222e+38 4.6720284e+38)
(-5.9839676e+39 3.4820478e+37 1.36103e+39)
(-4.8191386e+39 4.4976151e+38 -7.2857785e+37)
(-4.7677588e+39 -6.7405665e+38 1.2765646e+39)
(-1.3053652e+39 -5.4110082e+38 1.2740444e+39)
(-3.5071364e+39 5.6646141e+38 9.9821356e+38)
(-5.41795e+39 4.9022285e+38 7.6824128e+38)
(-5.7157136e+39 -1.009443e+38 1.3986625e+39)
(-6.2978768e+39 6.3711003e+38 1.1431824e+38)
(-4.5556796e+39 1.1000086e+38 1.4509958e+39)
(-3.5887748e+39 3.727471e+38 -6.3558211e+37)
(-5.163134e+39 3.0260049e+38 9.6123244e+38)
(-5.4736546e+39 4.7774944e+38 1.9153248e+38)
(1.7248808e+38 2.5959603e+39 7.5816019e+38)
(-1.988346e+38 -7.1558195e+37 -2.6273098e+38)
(-8.2192139e+38 -4.4043751e+38 -1.6952985e+39)
(-6.2305806e+39 7.8476576e+38 -4.6073531e+38)
(-4.0984558e+39 1.310059e+39 -1.2457109e+39)
(-6.1888009e+39 8.0923555e+37 -4.8814746e+38)
(-6.1928223e+39 6.0332415e+38 2.1526947e+38)
(-4.7410147e+39 -5.8805081e+38 -9.6275093e+38)
(-7.4670014e+39 1.0970939e+39 9.0485566e+37)
(-4.6223538e+39 -5.6336292e+37 -4.3349595e+37)
(-9.2472723e+39 9.3289652e+38 -4.3926468e+38)
(-8.3643562e+39 1.2736656e+39 -1.6609091e+38)
(-4.9879317e+39 -1.3437681e+39 -2.2134628e+39)
(-5.6241031e+39 2.1263473e+37 1.7788255e+38)
(-4.0206866e+39 -4.2012864e+37 5.3187699e+37)
(-3.9358298e+39 9.2363414e+37 8.0614156e+37)
(-3.6349117e+39 -6.2544681e+37 1.7459393e+37)
(-3.9050679e+39 -7.8195828e+37 -1.9817185e+37)
(-4.0085549e+39 -3.7609302e+37 -4.230432e+37)
(-3.6598956e+39 -2.4776609e+38 -3.7392694e+37)
(-3.506018e+39 -4.3772164e+38 4.5785047e+37)
(-3.7677069e+39 -3.0484064e+38 4.594973e+37)
(-4.2389728e+39 8.1110737e+37 -6.5103805e+37)
(-4.2964624e+39 -1.773896e+37 -9.5969668e+37)
(-4.6347598e+39 -9.4597051e+36 -9.1764287e+37)
(-4.5688315e+39 1.3552081e+38 -6.2205616e+37)
(-4.7469528e+39 -3.8128276e+38 -1.0681666e+38)
(-8.8818863e+39 -1.9114304e+38 -3.3057498e+38)
(-6.7250821e+39 -1.277065e+38 -6.6288776e+38)
(-3.6212454e+39 4.2759328e+38 3.4229542e+38)
(-4.1611135e+39 2.4676234e+38 3.7522935e+38)
(-3.6279868e+39 3.3194979e+38 -3.0191717e+38)
(-2.1829283e+39 4.6937558e+38 -4.5763123e+38)
(-5.8602751e+39 -6.0759368e+38 -1.389238e+39)
(-5.6908381e+39 6.7001659e+37 -1.8113217e+39)
(-7.7048497e+38 -6.9490725e+37 -1.2316671e+39)
(-3.2758483e+39 2.1019784e+38 -5.4490285e+37)
(-3.0692802e+39 3.9758157e+38 -6.3237315e+37)
(-4.9088009e+39 1.6266303e+38 -1.1502685e+39)
(-3.4016362e+39 1.2652023e+39 -1.2749757e+39)
(-4.6615066e+39 7.8472303e+38 7.6933959e+38)
(-1.2148079e+39 9.7250363e+38 -1.1220344e+39)
(-2.4903894e+39 9.8909458e+38 -2.0524996e+39)
(-2.218399e+39 7.2342585e+38 -3.6362673e+38)
(-2.0239953e+39 4.1849604e+38 -6.1326173e+38)
(-5.2457933e+39 -7.6520431e+38 -9.6734277e+38)
(-3.3545612e+39 -4.4736955e+38 -6.4231545e+37)
(-6.0757846e+38 1.1803751e+39 -1.6330543e+39)
(-2.0882444e+39 1.6736634e+39 -1.3935549e+39)
(-1.6795346e+39 7.1789944e+38 -2.9569177e+39)
(-2.636718e+39 -1.4624863e+39 -2.1017865e+39)
(-1.7498534e+39 -1.9649601e+39 -1.3468363e+39)
(-3.6917562e+39 -5.8878182e+35 -2.784745e+39)
(-3.9463911e+39 -1.0191203e+39 -5.7754751e+38)
(-2.0981631e+39 -1.7681997e+38 -6.6925561e+38)
(-2.1201245e+39 -5.2103707e+38 -3.7982825e+38)
(-4.1949255e+39 -4.0945151e+38 2.7621597e+37)
(1.0683123e+39 -1.2888585e+39 2.9445023e+38)
(-5.298591e+39 -3.8135505e+39 -7.1791712e+38)
(-5.6575661e+39 5.8810486e+38 1.0732356e+39)
(-4.9390477e+39 1.4117211e+39 4.396239e+38)
(-4.2803463e+39 -5.8190048e+38 -2.2051069e+39)
(-5.1972514e+39 1.9728389e+38 -2.5066523e+39)
(-7.5360475e+39 -4.5791033e+38 1.3874847e+39)
(-4.7025104e+39 7.6943565e+38 -1.0667499e+39)
(-1.5772527e+40 -1.7017181e+39 4.0180394e+38)
(-4.936856e+39 2.1440921e+38 -2.0824408e+39)
(-4.8129162e+39 -4.2882354e+37 -4.4280006e+37)
(-4.6356986e+39 3.1322725e+38 -4.3699672e+37)
(-3.7750744e+39 2.1441008e+38 -3.6167006e+38)
(-4.0076548e+39 -1.0556428e+38 -2.2686787e+38)
(-5.0260211e+39 -2.3041963e+38 -1.0973453e+39)
(-4.9606418e+39 1.8682251e+38 1.1132489e+38)
(-3.7782804e+39 -8.2781852e+37 2.0859593e+38)
(-3.541002e+39 4.3206116e+37 5.4016927e+37)
(-3.8123432e+39 -3.6896304e+37 1.6955061e+38)
(-3.4571552e+39 -2.4467931e+37 5.3450939e+37)
(-4.3296242e+39 4.9607633e+38 3.1217346e+38)
(-4.0642505e+39 2.2400353e+38 -3.4648322e+37)
(-2.7772813e+39 5.4764585e+38 3.9304038e+38)
(-2.3984017e+39 -5.1050512e+38 4.1342394e+38)
(-3.7716556e+39 -1.7179882e+38 -3.2016724e+37)
(-2.6926046e+39 -3.395336e+38 6.8808258e+38)
(-4.2081116e+39 5.8798515e+38 9.819433e+38)
(-3.2845205e+39 1.0846996e+39 1.4113805e+39)
(-5.9324617e+39 -2.0287692e+38 -1.0916501e+38)
(-3.9611394e+39 -4.620547e+38 1.8455714e+37)
(-3.568132e+39 -1.0375371e+39 3.2034679e+38)
(-5.2038936e+39 -7.3083319e+38 1.3585966e+39)
(-3.8035573e+39 -9.9650552e+38 3.2895156e+38)
(-4.3804737e+39 -5.7484729e+38 1.6136751e+39)
(-3.8625784e+39 -3.772615e+38 8.7095668e+37)
(-3.059552e+39 1.183144e+39 -2.0023439e+37)
(-4.3889068e+39 1.3754956e+37 1.9326235e+39)
(-3.1063002e+39 2.122159e+37 1.1180473e+39)
(-3.4125332e+39 1.023192e+38 2.056613e+39)
(-5.0664274e+39 2.5655907e+38 6.583761e+36)
(-1.7254135e+39 -2.1472297e+39 1.4728579e+39)
(-2.9303612e+39 7.0019282e+38 1.1390545e+39)
(-6.6175629e+38 -1.7078547e+39 3.0739493e+38)
(-6.5215414e+39 -1.3480066e+39 2.6432967e+39)
(-6.7086953e+39 9.0031463e+38 -1.3115123e+37)
(-6.0055984e+39 1.021182e+39 -9.9910349e+38)
(-5.7350648e+39 3.9782393e+38 3.2886667e+38)
(-2.8382514e+39 -1.0864826e+39 2.9110907e+39)
(-6.3893197e+39 3.1124102e+38 6.7896428e+38)
(-2.1364827e+39 -9.0526927e+37 -9.9478598e+37)
(-7.1100012e+39 -2.2282268e+38 7.4142204e+38)
(-8.918049e+39 -6.6899419e+37 6.2424548e+36)
(-3.7324586e+39 -5.3819626e+38 2.0623517e+39)
(-5.89916e+39 1.9377136e+37 1.7058623e+38)
(2.1483711e+38 2.5323152e+39 1.3901156e+38)
(1.6535454e+39 -1.758337e+39 -5.1080978e+38)
(-2.3990104e+39 -1.4672361e+39 -5.6817921e+38)
(-6.3588309e+39 8.7371491e+38 -3.6537469e+38)
(-5.7044338e+39 1.1640226e+39 -1.6315799e+39)
(-4.0678519e+39 8.0953185e+38 -4.9965724e+38)
(-4.9728183e+39 1.7755125e+38 4.4435658e+38)
(-5.7641794e+39 5.8674755e+38 -3.5837698e+38)
(-8.4971771e+39 8.8710175e+38 1.3592331e+38)
(-4.1336176e+39 -2.950587e+38 2.7908833e+38)
(-1.0012944e+40 4.9955187e+37 -5.8699321e+38)
(-7.3026722e+39 2.6849509e+38 4.7841487e+38)
(-7.1125649e+39 2.4386376e+37 -1.2809687e+38)
(-8.853128e+39 -3.1478934e+38 -9.8056861e+38)
(-4.1159683e+39 1.7836561e+39 -8.4783104e+38)
(-5.7794807e+39 1.2275101e+39 8.0584772e+38)
(-5.8036539e+39 -1.9310731e+39 -2.9883921e+39)
(-5.6840292e+39 -1.1751098e+37 3.1547903e+38)
(-5.4869077e+39 -1.8232705e+38 1.0179121e+37)
(-3.940694e+39 4.3178233e+37 -4.1361174e+37)
(-4.0142246e+39 2.0627853e+38 2.742936e+37)
(-3.9113448e+39 2.5294025e+38 8.0465838e+37)
(-3.8835455e+39 1.0680547e+37 2.5326041e+37)
(-3.4290443e+39 -5.7539917e+37 -3.05712e+37)
(-3.2960586e+39 7.3383212e+37 -6.6090395e+37)
(-3.8297051e+39 4.855987e+37 -8.7166565e+36)
(-3.9214682e+39 -4.615974e+37 -5.7120909e+37)
(-4.1497669e+39 -1.090397e+38 -8.8851956e+37)
(-4.1987062e+39 -6.5687631e+37 -1.05142e+38)
(-4.3063827e+39 -1.9063289e+38 -7.4460933e+37)
(-4.084017e+39 -3.0772838e+38 -6.5044396e+37)
(-4.4097035e+39 1.2294769e+38 -5.7251687e+37)
(-4.4959801e+39 1.9475744e+37 -7.5680511e+37)
(-4.7623772e+39 1.5910124e+37 -7.7493205e+37)
(-4.6605187e+39 2.0148382e+38 -5.42723e+37)
(-3.8561593e+39 -2.3635048e+38 -9.0122646e+37)
(-4.9355892e+39 8.0975638e+36 -8.6117077e+38)
(-6.5126971e+39 2.314674e+38 -1.3436153e+39)
(-5.2594624e+39 -2.6683412e+38 -1.8505337e+39)
(-4.5083554e+39 -5.3375651e+38 -1.9205647e+39)
(-4.4531791e+39 5.9155828e+37 6.358763e+37)
(-4.8114631e+39 -8.405511e+37 -7.5824524e+37)
(-4.4351417e+39 -1.0513122e+38 -6.3090063e+38)
(-3.8016175e+39 -3.6864219e+36 -6.7000009e+38)
(-7.0912332e+39 -6.7824682e+38 -8.7873123e+37)
(-5.8321695e+39 -3.7780894e+38 -2.3274522e+39)
(-3.1319804e+39 4.5605656e+38 -2.0891715e+37)
(-3.9649707e+39 5.391152e+38 1.1170809e+38)
(-3.1765716e+39 7.8742984e+38 -5.7531374e+38)
(-5.043759e+39 -1.5197944e+38 -1.9299048e+39)
(-1.958797e+39 6.5011771e+38 -8.2247627e+38)
(-3.010783e+39 5.2388284e+38 -2.3320913e+39)
(-3.0905376e+39 -5.5501559e+38 -2.7305707e+39)
(-1.5293974e+39 4.8433003e+38 -4.048873e+39)
(-1.6539627e+39 1.6013907e+39 -7.7230657e+38)
(-3.1481008e+39 4.5994624e+37 -2.3659828e+38)
(-2.9359385e+39 2.9905914e+38 -1.9833393e+38)
(-6.1410527e+38 1.7029082e+39 -2.5100104e+38)
(-6.5414629e+39 -4.491858e+38 -5.2019611e+38)
(-1.8204744e+39 9.3642431e+38 -2.8160614e+39)
(-4.5752268e+39 -1.1272386e+38 1.3622759e+39)
(-3.0727706e+39 1.072025e+39 -1.5343556e+39)
(8.7188158e+38 1.1494898e+39 -2.0981811e+39)
(-2.6713574e+39 9.0141821e+38 -2.7246791e+39)
(-1.6629787e+39 3.0648055e+38 -6.3408816e+38)
(-2.3033807e+39 4.0168981e+38 -6.1686574e+38)
(-5.7621762e+39 -4.5745816e+38 -6.5680959e+38)
(-3.5728368e+39 -4.5789664e+38 -1.2198774e+38)
(1.3004162e+39 1.2019055e+39 -1.0996659e+39)
(-1.1691809e+39 1.1229151e+39 -2.3923198e+39)
(-2.5250869e+39 2.6672581e+39 -1.4733143e+39)
(-2.3137569e+39 7.7833176e+38 -3.0502909e+39)
(-1.8321757e+39 2.4989784e+38 -3.2375218e+39)
(7.2576309e+38 -1.3384262e+39 -2.3386822e+39)
(-1.5926012e+39 -1.2364947e+39 -6.581387e+38)
(-3.1375756e+39 2.3086711e+38 -2.7876795e+39)
(-4.3484409e+39 -6.2100301e+38 -8.9762332e+38)
(-2.4154655e+39 -2.4312038e+38 -6.2612051e+38)
(-2.574192e+39 -5.5851615e+38 -3.6618147e+38)
(-4.2172593e+39 -4.9741164e+38 -6.523035e+37)
(-6.0662466e+39 8.4510736e+38 4.2011213e+38)
(-7.6513943e+38 -4.2318529e+38 2.5910826e+39)
(-8.1817449e+39 -5.4549182e+37 -3.1968705e+39)
(-5.6399636e+39 1.987246e+38 -2.314029e+39)
(-8.5862468e+39 -5.4543335e+38 1.0077405e+39)
(-2.0442064e+39 1.0762657e+39 2.0063901e+39)
(-6.2572876e+39 2.9915815e+38 -1.9942158e+39)
(-5.3631698e+39 9.7755144e+37 -2.0146516e+39)
(-7.6795276e+39 4.4660262e+37 -1.9807259e+39)
(-3.6671404e+39 4.8317079e+37 8.3323273e+38)
(-2.7872621e+38 4.0332742e+38 -3.213539e+38)
(-4.8971903e+39 1.6491282e+38 -3.2034184e+38)
(-5.1286902e+39 2.4695037e+38 5.5962523e+37)
(-3.6907441e+39 2.7832211e+37 1.9230623e+37)
(-3.8373718e+39 1.4116684e+38 1.0145292e+38)
(-3.8937845e+39 -1.5852956e+37 1.1841138e+38)
(-3.7252718e+39 -5.5245018e+36 1.8133617e+37)
(-3.7030969e+39 -5.7287139e+37 8.7725118e+37)
(-3.7796803e+39 7.2282398e+37 8.020111e+37)
(-3.8469693e+39 -7.7830749e+37 6.8897781e+37)
(-3.6598968e+39 1.2080948e+38 6.9336258e+37)
(-4.1818083e+39 3.1078906e+38 9.8765084e+38)
(-3.9044809e+39 4.3068042e+38 7.5394344e+37)
(-3.1361123e+39 7.9310441e+38 7.5343542e+38)
(-3.7089574e+39 6.0531139e+38 4.3965583e+38)
(-4.1303712e+39 4.2334189e+38 -1.6724372e+38)
(-5.872836e+39 7.3209356e+38 1.225031e+39)
(-4.3069949e+39 -2.7551707e+38 1.7551338e+39)
(-5.2658565e+39 7.2324099e+38 1.4837408e+39)
(-5.3369854e+39 5.2787727e+38 1.1462797e+39)
(-3.8206055e+39 2.3667727e+38 -5.140294e+36)
(-2.178979e+39 4.130851e+38 3.109789e+38)
(-4.0783983e+39 4.392574e+38 2.060933e+39)
(-2.2301776e+39 -8.286203e+38 4.5793571e+38)
(-2.3163867e+39 -3.9533924e+38 1.8354576e+39)
(-3.7952541e+39 -2.9957948e+38 5.5000742e+36)
(-2.0798923e+38 -3.4720001e+38 -1.373601e+38)
(-6.1699943e+39 -3.4523791e+38 1.522096e+39)
(-3.4056165e+39 1.1915227e+39 1.5150689e+39)
(-6.7104619e+39 -7.898976e+38 -1.2150566e+39)
(-4.466785e+39 -2.4492793e+38 9.3257125e+37)
(-4.9091741e+39 -9.0997898e+38 1.997692e+39)
(-4.204238e+39 -8.3208771e+38 3.3533961e+38)
(-5.7292568e+39 -6.165059e+36 1.3799586e+39)
(-3.586765e+39 -8.1873411e+38 1.5500169e+38)
(-5.1417503e+39 -1.5634384e+39 1.8107031e+39)
(-2.3179664e+39 -1.0115927e+39 1.516425e+39)
(-4.1268269e+39 -1.9716502e+38 1.0968632e+38)
(-3.1886033e+39 3.1460875e+39 1.0524973e+39)
(-4.0338341e+39 1.4748686e+39 1.5628748e+39)
(-1.673734e+39 -7.3397189e+38 2.5449315e+39)
(-2.8918065e+39 7.5601231e+38 2.0628403e+39)
(-4.8280623e+39 5.8999691e+37 6.3214345e+37)
(-2.2639013e+39 -1.6655556e+39 9.0666092e+38)
(1.1195338e+39 5.3273452e+39 1.2655864e+39)
(-2.9099435e+38 -1.7636438e+39 7.0563329e+38)
(-8.3650086e+39 -1.1322042e+39 2.3347896e+39)
(-7.5483151e+39 5.9113338e+38 1.7681158e+39)
(-5.250872e+39 1.0645072e+39 -2.5128063e+38)
(-8.5250072e+37 7.1483173e+38 -1.2547869e+39)
(-6.3139493e+39 1.7714582e+39 7.2334523e+38)
(-1.9296753e+39 -2.4902548e+39 1.6558036e+39)
(-2.9034235e+39 3.7647743e+37 3.6217367e+38)
(-4.987246e+39 -1.6080246e+38 1.4685209e+39)
(-5.2136991e+39 1.9523766e+38 8.0968394e+38)
(-5.614274e+39 1.0141627e+38 8.4456526e+37)
(-1.8251193e+39 -6.0446685e+38 1.775539e+39)
(-4.9347461e+39 1.3167847e+39 1.2410511e+38)
(-4.1939797e+38 -7.9522099e+38 -1.0021956e+38)
(-4.5192272e+39 -2.788754e+38 2.2256639e+39)
(-5.5471034e+39 -2.7929174e+38 2.0619201e+38)
(1.2782171e+39 -1.2862116e+39 -7.7519992e+37)
(-6.7258504e+39 -1.7511731e+38 -2.4323361e+38)
(-1.6895922e+39 -5.099218e+38 1.6029057e+39)
(-6.0086276e+39 -4.1409904e+38 3.5637601e+38)
(-1.3544114e+39 2.5320443e+38 -6.3085297e+38)
(-9.1245637e+39 -3.8260892e+38 -2.2618878e+38)
(-3.1262695e+39 -2.2160397e+38 1.2397608e+38)
(-6.7707439e+39 8.0522052e+38 -2.1325828e+38)
(-5.2972286e+39 -1.8648165e+38 6.9951562e+38)
(-5.6622203e+39 7.3112125e+38 7.1386393e+38)
(-6.6183172e+39 6.1853659e+38 -4.814207e+38)
(-3.8283619e+38 -1.0543243e+39 -1.1334346e+39)
(-7.1794867e+39 -1.767201e+39 1.5065544e+39)
(-6.2330651e+39 -9.1969492e+37 1.5900791e+38)
(-9.6337207e+39 -2.0100548e+39 -5.0947651e+38)
(-9.5163373e+39 1.5269303e+39 -1.7243794e+39)
(-1.0971596e+40 1.0328468e+38 1.5144394e+39)
(-5.6516924e+39 -1.0903016e+38 2.6374217e+38)
(-4.1795675e+39 -6.8568253e+37 4.0813174e+37)
(-4.2077991e+39 -4.5237959e+36 7.9431258e+37)
(-3.9050804e+39 -4.0470227e+37 -5.2909246e+36)
(-3.8913175e+39 -4.7557245e+36 -3.4281756e+37)
(-5.4511079e+39 -2.3488161e+38 -1.0348174e+38)
(-4.1251839e+39 -7.793261e+37 -1.298747e+38)
(-4.3930673e+39 -5.3085981e+37 -1.7512629e+38)
(-4.2787105e+39 7.4788078e+37 -1.2729121e+38)
(-4.0852265e+39 -5.0399635e+36 -1.0632917e+38)
(-3.8482708e+39 6.1509665e+37 -5.2419302e+37)
(-3.7497184e+39 2.5628131e+38 -2.6918196e+37)
(-3.3249874e+39 2.7360321e+38 -3.6500554e+37)
(-3.5444864e+39 -1.3351678e+37 -1.8440747e+37)
(-3.5641301e+39 6.3135553e+36 -9.3478399e+37)
(-3.5311905e+39 1.2682956e+38 -1.18166e+38)
(-3.6851364e+39 -1.1547273e+38 -8.9041615e+37)
(-3.9749803e+39 -1.3401773e+38 -8.2035818e+37)
(-4.3041371e+39 -7.7790514e+37 -7.985881e+37)
(-4.3803653e+39 -5.9731716e+37 -9.2618705e+37)
(-4.5845419e+39 -1.6949262e+38 -8.6171974e+37)
(-4.3277023e+39 -2.1782758e+38 -7.5531396e+37)
(-4.7114609e+39 -5.4630398e+38 -1.5379557e+38)
(-5.7649323e+39 1.9067826e+38 -1.4880036e+39)
(-7.4900802e+39 2.803018e+38 -8.3956668e+38)
(-4.5771548e+39 -3.0623593e+38 -1.6643546e+38)
(-4.1970666e+39 -4.6518614e+38 -1.6479152e+38)
(-7.7878513e+39 2.7000967e+37 -1.0116455e+39)
(-5.7459742e+39 2.8046954e+38 -8.7119561e+38)
(-2.1284116e+39 -3.1310767e+38 -7.6444009e+38)
(-3.9379073e+39 -3.0800406e+38 -5.4042489e+38)
(-3.9107247e+39 1.4763163e+39 -1.6077333e+39)
(-5.9583464e+39 1.1639148e+39 -3.9143395e+39)
(-2.6903044e+39 -1.7778569e+38 -3.534056e+39)
(-5.2619836e+39 1.1236361e+38 -2.0415234e+39)
(-1.9812654e+39 -1.1717665e+39 -2.467194e+39)
(-6.7674585e+39 -2.4670052e+38 -2.4946662e+39)
(-4.2418351e+39 2.7599037e+38 4.5903632e+37)
(-4.7296413e+39 -2.7072066e+37 1.0015435e+37)
(-4.8949114e+39 -1.1934376e+38 -4.9394499e+38)
(-3.9139576e+39 5.8384114e+38 -4.5781031e+38)
(-8.6956808e+39 -1.1133082e+39 5.806804e+38)
(-2.3515385e+39 -3.1114942e+37 3.1529091e+39)
(-3.4184807e+39 4.9159765e+38 -1.541652e+38)
(-4.1170855e+39 5.5421729e+38 -1.8737467e+37)
(-4.6093722e+39 2.606631e+38 -3.1702007e+39)
(-2.798495e+39 6.3784517e+38 -6.2778014e+38)
(-3.3751881e+39 -6.9457025e+38 -3.309094e+39)
(-2.0754449e+39 4.2724772e+38 -3.8948013e+39)
(-2.1878855e+39 4.3074996e+38 -1.0588065e+39)
(-2.3006748e+39 6.772732e+38 -3.4926972e+39)
(-1.6816599e+39 -8.2855735e+38 -3.0757787e+39)
(-2.79955e+39 1.2031464e+39 -4.7574178e+39)
(-1.7396006e+39 1.5388068e+39 1.8303607e+38)
(-3.3207404e+39 -4.6058331e+37 -2.1614987e+38)
(-3.093009e+39 2.3848143e+38 -2.3441481e+38)
(-2.8187615e+39 1.5425859e+39 1.4238987e+39)
(9.6845887e+38 1.0967897e+39 -1.0017591e+39)
(-7.2162742e+39 -6.1665331e+38 1.3981637e+38)
(-1.444896e+39 7.1955065e+38 -2.9178917e+39)
(-5.7544261e+39 7.7646217e+37 4.8296913e+38)
(-3.4804307e+39 5.489719e+38 -1.7068962e+39)
(-4.8684469e+38 1.0924171e+39 -1.044719e+39)
(-3.9100707e+39 9.0702708e+38 -2.5807899e+39)
(-2.5310653e+39 6.0970823e+38 -2.745409e+39)
(-2.2076624e+39 2.3292512e+38 -6.7025251e+38)
(-3.1034563e+39 2.9736822e+38 -5.3455135e+38)
(9.9781637e+38 1.5450258e+39 -2.6837049e+38)
(1.0018794e+39 3.2033203e+38 1.0126009e+39)
(-5.9292202e+39 1.6515494e+39 -3.4178834e+39)
(-2.8485171e+39 7.9671796e+38 -2.8954359e+39)
(-4.0055263e+39 3.2077459e+38 -3.3291043e+39)
(-1.4492908e+39 1.1194313e+39 -9.7024605e+38)
(2.116507e+38 -1.3426373e+39 -2.0606772e+39)
(-3.6978566e+39 2.986093e+38 -2.5859371e+39)
(-1.4799017e+39 -9.033251e+38 2.1480398e+39)
(-5.0903669e+39 2.2895727e+38 -2.0946161e+38)
(-7.393877e+39 -1.2768727e+38 -3.5185559e+39)
(-3.460566e+39 2.3797759e+38 1.7105794e+39)
(1.5933612e+38 4.9554193e+38 2.9670278e+39)
(-6.7752541e+39 9.5807411e+37 -2.6179782e+39)
(-4.7008326e+39 3.3794703e+38 -1.3410601e+39)
(2.9266696e+39 2.3609711e+38 4.4899249e+39)
(-1.8027831e+39 1.3541811e+39 -1.1165221e+39)
(-4.9428648e+39 1.1621257e+38 -3.5309552e+38)
(-3.6505682e+39 6.1338162e+37 -9.6956592e+37)
(-4.0516372e+39 2.1071376e+37 -1.9486578e+38)
(-3.5987503e+39 -2.1017899e+37 -1.1250817e+38)
(-4.0255235e+39 1.294156e+38 -2.0156261e+38)
(-5.2789555e+39 1.2569499e+38 2.4518516e+38)
(-3.4741716e+39 -9.4820234e+36 3.066767e+37)
(-3.7126587e+39 2.1026361e+38 1.7614709e+38)
(-3.8721286e+39 1.3144089e+38 -8.6812265e+36)
(-3.7195099e+39 -2.4637287e+37 -6.1221088e+37)
(-3.7764857e+39 -5.1608932e+37 7.1211861e+37)
(-3.637532e+39 3.7418138e+37 4.6683959e+37)
(-3.8847357e+39 -7.2258343e+37 6.3050256e+37)
(-3.8661051e+39 -2.6976937e+36 6.9127292e+37)
(-4.1650334e+39 1.0931053e+38 8.5231746e+37)
(-4.3194724e+39 2.1784017e+38 6.9419917e+37)
(-4.3846853e+39 5.928283e+37 6.9640792e+37)
(-4.1463903e+39 2.7063075e+38 7.8130591e+37)
(-3.584268e+39 -2.0323436e+37 8.3209943e+38)
(-4.1101699e+39 -8.2694151e+37 5.2794573e+38)
(-4.428149e+39 4.3917793e+38 1.1846244e+39)
(-4.5428749e+39 4.4053989e+38 9.8263559e+38)
(-4.2649462e+39 2.3162171e+38 3.139336e+38)
(-5.9019744e+39 1.532526e+38 1.5643183e+39)
(-5.91806e+39 7.7449336e+38 2.1768272e+39)
(-6.0811621e+39 6.8306267e+38 1.7286723e+39)
(-4.7558902e+39 6.1033913e+37 1.9072753e+39)
(-3.5311649e+39 5.6803841e+38 7.9126209e+37)
(-2.6336488e+39 1.0081428e+39 5.1651553e+38)
(-5.3713155e+39 7.5599331e+38 2.5136837e+39)
(-1.9811351e+39 7.4390054e+38 3.3934212e+38)
(-4.2496682e+39 4.1277324e+38 1.7026823e+39)
(-3.451411e+39 3.7900243e+38 -9.8463792e+37)
(-8.4585556e+39 9.0714178e+38 1.9455862e+39)
(-3.8679027e+39 -6.8942926e+38 2.6072552e+39)
(-4.8488131e+39 2.1962375e+39 8.941669e+38)
(-6.5925067e+39 1.0688098e+39 1.4964999e+39)
(-4.0340528e+39 3.3987914e+38 1.1655653e+38)
(-2.2308701e+39 -2.7947759e+38 2.7664587e+39)
(-3.1443564e+39 4.4467154e+38 3.6582262e+38)
(-3.4689107e+39 -4.5376082e+38 2.3294223e+39)
(-2.7881113e+39 -3.0954006e+38 4.3525012e+38)
(-2.2602522e+39 -2.1309997e+38 2.1000538e+39)
(-1.9270145e+38 -7.0267968e+38 2.3073184e+39)
(-3.9272757e+39 -1.3642474e+38 1.0482926e+38)
(3.9491478e+39 -1.3002305e+39 -7.3941895e+38)
(-2.5948144e+39 -2.3622434e+39 8.5735005e+38)
(-1.3059363e+39 4.1262875e+38 9.6571775e+38)
(-7.3290621e+39 -8.9859572e+38 -1.1003735e+39)
(-4.3996034e+39 -2.1944569e+38 7.4860231e+37)
(-5.3419345e+39 -5.2958991e+38 1.6035191e+39)
(-1.7959098e+39 -3.6146241e+38 2.1442517e+39)
(-4.233779e+39 -8.0911343e+38 2.5664877e+38)
(-2.5196476e+39 8.2702341e+38 6.6793116e+38)
(-3.8577544e+39 -7.8127981e+38 1.5859087e+38)
(-3.2285396e+39 -1.2057683e+39 1.4782098e+39)
(-4.1739634e+39 -2.6460018e+39 2.3901842e+39)
(-7.2571768e+38 9.0387661e+37 -1.8126794e+38)
(-4.082736e+39 -9.0439004e+37 1.1511596e+38)
(-4.0037205e+39 3.0726877e+39 1.3696981e+39)
(-4.9101709e+39 7.3053981e+38 1.7758931e+39)
(-1.8702988e+39 1.3645553e+38 3.149908e+39)
(-3.8733663e+39 9.1232656e+38 1.9120719e+39)
(-4.5237535e+39 -5.8047575e+37 7.1065692e+37)
(5.9012084e+38 4.2618106e+39 1.1783156e+39)
(-9.2697769e+39 -1.4332868e+39 2.0490331e+39)
(-5.7817608e+39 -7.1316186e+38 -2.3609864e+39)
(-2.2808812e+39 7.6182993e+38 -1.8316009e+39)
(-2.7909852e+39 4.8131181e+39 7.5728851e+38)
(-1.8114712e+39 -1.7038218e+39 4.1047197e+38)
(-3.2222101e+39 -2.8933796e+38 4.6802086e+38)
(-6.0943095e+39 -7.634026e+38 2.3140926e+38)
(-4.2862556e+39 -3.5825236e+38 8.8582288e+38)
(-2.8410732e+39 3.9031354e+37 1.3385533e+39)
(-6.48114e+39 -1.6245552e+38 5.4652233e+38)
(-5.5200691e+39 -1.549971e+39 1.2654984e+39)
(-1.0929646e+39 1.0489356e+39 1.5452332e+39)
(-5.9048647e+38 -1.0217414e+37 5.6395291e+38)
(6.5052344e+39 -1.1773195e+39 2.7225717e+39)
(-6.6577661e+39 2.2629954e+39 -8.5695602e+38)
(-6.5014893e+39 -4.7074006e+38 5.0919711e+38)
(-5.533497e+39 -3.333294e+38 3.0958127e+38)
(-2.3351385e+39 -1.3972173e+39 1.9597211e+39)
(-2.811464e+39 6.5213035e+38 -3.8942773e+38)
(-3.6187626e+39 -5.8618367e+38 8.9137684e+37)
(-7.8197216e+39 4.1670627e+38 -1.1560256e+39)
(-4.9607081e+39 -7.0147847e+38 -1.8856862e+38)
(-4.0197882e+39 -3.3726286e+38 -5.3538567e+38)
(-8.5683639e+39 -3.1338482e+37 -1.2879041e+39)
(-3.8082438e+39 2.4876704e+39 -5.5856597e+38)
(-4.5753195e+39 6.9499892e+38 4.8961445e+38)
(-5.3268926e+39 1.550259e+39 2.1900402e+39)
(-1.7641782e+39 1.6537913e+39 -5.5321948e+38)
(-8.352704e+39 -1.7361332e+39 -8.8157559e+38)
(-4.6185611e+39 -3.7489434e+39 2.8873235e+39)
(2.7927934e+39 -7.2611677e+38 1.0586473e+39)
(-1.0001441e+40 -5.8351191e+38 1.9751903e+39)
(-1.0759122e+40 2.3581303e+39 -1.0813428e+39)
(-1.1071488e+40 -1.4770933e+39 1.3367818e+39)
(-6.1496331e+39 -8.2929149e+37 4.0094941e+38)
(-5.6488709e+39 -1.8616977e+38 2.867897e+38)
(-4.1457133e+39 -5.3402431e+37 9.5059873e+36)
(-4.1393378e+39 -1.2212022e+38 2.2137757e+37)
(-3.9312156e+39 -2.4148397e+37 -7.9255725e+37)
(-3.9559664e+39 -9.1624421e+37 -7.7055776e+37)
(-3.9831262e+39 -5.8481945e+37 -2.226195e+37)
(-3.9990468e+39 -2.4228321e+36 -6.7116931e+35)
(-3.7874151e+39 -4.1029706e+37 -5.7834831e+37)
(-3.9359595e+39 -3.5949936e+37 -7.4755903e+37)
(-5.4679172e+39 -2.8331216e+38 -2.7825376e+37)
(-3.8026604e+39 -2.6537949e+38 -2.596348e+38)
(-3.9513734e+39 -3.1947646e+38 -2.7675101e+38)
(-4.3991396e+39 -2.8269074e+38 -3.0955027e+38)
(-3.9961418e+39 -2.2719914e+38 -2.231133e+38)
(-4.0299023e+39 -1.5147118e+38 -7.8337804e+37)
(-4.2662529e+39 -7.1963832e+37 -5.0756688e+37)
(-4.0050878e+39 1.517357e+38 -3.7942153e+37)
(-3.9159375e+39 1.6473366e+37 -5.4316725e+37)
(-4.1912521e+39 3.7824019e+37 -8.7423273e+37)
(-4.3632172e+39 2.3318271e+38 -6.4394969e+37)
(-3.8116242e+39 2.9577626e+38 -8.7246445e+37)
(-3.8961569e+39 3.1725874e+37 -9.2802163e+37)
(-3.9263262e+39 -4.13023e+37 -9.4395384e+37)
(-3.7027528e+39 1.066315e+38 -1.3337044e+38)
(-3.9325309e+39 -7.2629529e+37 -9.4441941e+37)
(-4.1161213e+39 -1.1607055e+38 -7.6296054e+37)
(-4.5964765e+39 -8.6654186e+38 -3.7713635e+38)
(-6.509419e+39 -8.6622946e+38 -1.0333912e+39)
(-3.1439334e+39 1.1932453e+38 -3.8796487e+38)
(-4.2236765e+39 -1.8640457e+38 -1.5441669e+38)
(-4.8352406e+39 -9.0717103e+38 -1.0084799e+39)
(-4.849441e+39 -4.2333153e+38 -9.6681227e+38)
(-5.8388966e+39 -5.3635208e+38 -1.4804769e+39)
(-1.5824379e+39 2.4995911e+38 -9.27315e+38)
(-3.9081965e+39 3.7589622e+38 -4.992307e+38)
(-3.718673e+39 1.5908417e+39 -8.5916076e+38)
(-5.2807541e+39 2.7694041e+38 -1.8396772e+39)
(-4.8454272e+39 2.1448026e+39 -1.4574261e+39)
(-4.4443159e+39 -4.0630157e+38 -1.1856946e+38)
(-4.2872341e+39 -4.4857623e+38 -2.7346812e+38)
(-3.5045207e+39 -4.9443112e+37 -2.0837288e+39)
(-1.1871266e+39 5.1254252e+38 -5.6069039e+38)
(-4.8485663e+39 2.3166565e+38 -1.8985246e+39)
(-3.811503e+39 -5.9523825e+38 -5.4490384e+38)
(-4.2297674e+39 -5.8630983e+38 -4.7427238e+38)
(-1.4034819e+39 1.5927605e+39 1.3341458e+39)
(-5.2820003e+39 7.6972513e+38 -3.5818909e+39)
(-2.6748646e+39 4.5337823e+37 -1.8678484e+39)
(-5.6925864e+39 -7.4705688e+38 -2.4083774e+39)
(-5.605497e+39 4.6851952e+38 -2.609764e+39)
(-1.1109348e+39 -3.7417783e+39 -1.9026444e+39)
(-4.3052415e+39 -1.0140829e+39 -3.2472622e+39)
(-7.3487513e+39 -3.3311586e+38 -2.7491627e+39)
(-4.5224338e+39 2.7959168e+38 -2.4289948e+37)
(-4.8240329e+39 -9.5845568e+37 -2.5463706e+37)
(-4.6280523e+39 -1.0964609e+38 -3.7822738e+38)
(-3.6392621e+39 5.3583676e+38 -3.5358223e+38)