/*--------------------------------*- C++ -*----------------------------------*\
  =========                 |
  \\      /  F ield         | OpenFOAM: The Open Source CFD Toolbox
   \\    /   O peration     | Website:  https://openfoam.org
    \\  /    A nd           | Version:  7
     \\/     M anipulation  |
\*---------------------------------------------------------------------------*/
FoamFile
{
    version     2.0;
    format      ascii;
    class       volVectorField;
    location    "2000";
    object      UMean;
}
// * * * * * * * * * * * * * * * * * * * * * * * * * * * * * * * * * * * * * //

dimensions      [0 1 -1 0 0 0 0];

internalField   nonuniform List<vector> 
33730
(
(-3.2412482e+12 -2.0909972e+11 -8.2105129e+11)
(-3.0363459e+12 3.8400152e+11 2.924336e+11)
(-4.4653492e+12 1.4021895e+11 -2.8267304e+11)
(-3.2099583e+12 2.0246413e+11 -5.9220161e+11)
(-2.1075336e+12 -3.468295e+11 -1.3227979e+12)
(-3.4948354e+12 -5.3109542e+11 -1.3605522e+12)
(-5.1048023e+12 -2.1987243e+11 -2.2538798e+12)
(-2.0365029e+12 -4.3113792e+10 -2.1444053e+12)
(-3.3618e+12 4.529306e+11 -7.5298141e+11)
(-3.4130322e+12 2.4287241e+11 -7.3882421e+11)
(-2.9236522e+12 2.6307895e+11 -1.3768368e+12)
(-3.2605425e+12 6.8992196e+11 -1.2848853e+12)
(-3.3039019e+12 6.3702443e+11 2.5884046e+11)
(-4.3962146e+12 2.5739754e+11 2.7846117e+11)
(-3.7062951e+12 9.2612914e+11 -6.3296473e+11)
(-4.813925e+12 -4.5924106e+11 -2.2708285e+11)
(-5.0020166e+12 2.2825559e+11 2.9811266e+11)
(-2.7795424e+12 4.968973e+11 5.376126e+11)
(-3.3838976e+12 5.9877765e+11 -2.9049968e+11)
(-4.4226833e+12 1.8345512e+11 -2.0183813e+11)
(-3.120537e+12 7.6537046e+10 -3.6764359e+11)
(-3.0711514e+12 1.5990651e+11 -4.852603e+11)
(-3.2108008e+12 2.9335683e+11 -6.0893939e+11)
(-3.4243433e+12 1.8599668e+11 -4.9816658e+11)
(-3.8405584e+12 2.7191088e+11 -2.568798e+11)
(-2.143273e+12 2.3293492e+11 -8.5447245e+11)
(-2.5789497e+12 1.5890131e+11 -5.1665907e+11)
(-2.8785177e+12 4.4229734e+11 -1.9995067e+12)
(-3.2178638e+12 2.5684575e+11 -2.4669311e+12)
(-2.042304e+12 -1.022587e+10 -1.2565407e+12)
(-2.4222927e+12 1.3641636e+11 -1.0946591e+12)
(-3.2718552e+12 2.4010157e+11 -1.1931291e+12)
(-3.2265473e+12 1.943386e+11 -6.4192861e+11)
(-1.6391329e+12 -8.0768104e+11 -1.4500396e+12)
(5.691385e+11 -8.619208e+11 -2.0903593e+12)
(-1.9748628e+12 -1.6533842e+11 -3.1585015e+12)
(-4.4876083e+12 1.6734501e+11 -2.3085056e+12)
(-9.2676886e+10 3.4294399e+11 -2.7399469e+12)
(-4.6563656e+12 1.1296416e+12 -2.5422815e+12)
(-3.2849515e+12 6.7789695e+11 -4.348213e+11)
(-3.5023061e+12 6.2105312e+11 -4.0869566e+11)
(-3.3213316e+12 8.2069555e+11 -9.8511986e+11)
(-3.5256387e+12 9.0146758e+11 -8.5802992e+11)
(-3.3622658e+12 5.9679029e+11 6.4940678e+10)
(-4.2168298e+12 4.629204e+11 8.9792286e+10)
(-5.6049653e+12 5.5882095e+11 8.2352702e+11)
(-5.7660048e+12 4.0561378e+11 1.9726017e+11)
(-7.0131018e+12 1.6673295e+11 4.4521437e+11)
(-3.7964287e+12 4.1713148e+11 4.6648808e+11)
(-5.2085196e+12 6.2386427e+11 2.565216e+11)
(-4.5428952e+12 3.2369204e+11 3.2819421e+11)
(-2.1259442e+12 3.7638292e+11 -1.0629946e+12)
(-1.636601e+12 -7.7237786e+11 -1.7335403e+11)
(-5.0165606e+12 2.3730818e+10 -3.7779427e+10)
(-2.7754619e+12 5.0080346e+11 2.3094623e+11)
(-3.3463514e+12 -3.9973747e+11 5.9479743e+11)
(-4.9558501e+12 6.9709669e+11 3.2705411e+11)
(-4.0382339e+12 -1.8901465e+11 8.6694185e+11)
(-3.2476536e+12 1.5418525e+11 3.1196767e+11)
(-2.5339955e+12 9.111755e+11 -8.7948479e+11)
(-4.6898025e+12 1.0015098e+11 -9.4233345e+10)
(-2.386188e+12 6.3755407e+10 -3.6734518e+11)
(-2.8004101e+12 9.9082932e+10 -4.273772e+11)
(-2.9986596e+12 1.6960609e+11 -4.3250839e+11)
(-2.5634311e+12 1.7828695e+11 -4.4026555e+11)
(-3.0328118e+12 2.717147e+11 -2.7399687e+11)
(-2.8987405e+12 3.3254828e+11 -4.480416e+11)
(-3.0491002e+12 4.4688576e+11 -4.8296985e+11)
(-3.158798e+12 4.4573185e+11 -3.139413e+11)
(-3.8298527e+12 -1.4814141e+11 -3.2668237e+11)
(-4.3908528e+12 2.0090121e+11 -1.2846715e+12)
(-3.3628634e+12 -2.893165e+10 -2.2502748e+11)
(-3.4315453e+12 -3.3009658e+11 -1.1631205e+11)
(-6.0363204e+12 2.5092281e+11 -1.261603e+12)
(-5.9347195e+12 7.4603892e+10 -8.9156414e+11)
(-4.85448e+12 4.2274222e+11 -1.5194601e+12)
(-2.7007577e+12 -1.902908e+11 -4.9178734e+11)
(-2.9585032e+12 -3.0384993e+11 -7.5955038e+11)
(-1.8684408e+12 1.597558e+11 -3.534817e+11)
(-1.6284623e+12 -1.5711606e+11 -3.8717387e+11)
(-2.7373383e+12 3.4643192e+10 -1.2759624e+12)
(-4.2109704e+12 -1.6501568e+11 -2.5405845e+12)
(-4.0431467e+12 6.3539905e+11 -2.345572e+12)
(-5.003605e+12 4.1535805e+11 -2.4394897e+12)
(-2.1562124e+12 -1.5707421e+11 -9.2575952e+11)
(-1.5719223e+12 -3.9297992e+11 -6.9321796e+11)
(-3.242353e+12 4.7205237e+11 -8.4576199e+11)
(-2.8950707e+12 5.0216417e+11 -4.944179e+11)
(9.2547087e+11 -7.1866089e+11 -9.1538325e+11)
(-1.295936e+12 -1.7291566e+12 -1.883368e+12)
(-3.9366779e+12 -5.9036009e+11 -4.2440928e+12)
(-3.8630273e+12 5.7731987e+11 -2.0982679e+12)
(-5.6373487e+12 7.9802132e+11 -1.8305114e+12)
(-3.8903593e+12 1.8031785e+12 -2.1057428e+12)
(2.3541742e+11 2.4833136e+11 -4.2222408e+11)
(-5.1761857e+12 1.0930868e+12 -2.4228812e+12)
(-3.7033346e+12 5.3810066e+11 -4.4616697e+11)
(-3.5672151e+12 6.3795527e+11 -2.221702e+11)
(-2.9109692e+12 6.3727991e+11 -4.6028149e+11)
(-3.4810423e+12 7.9322544e+11 -6.3137178e+11)
(-4.8064125e+12 4.7027902e+11 6.5139883e+10)
(-4.261903e+12 2.8741058e+11 2.7689754e+11)
(-3.7412472e+12 7.1995699e+11 1.6295574e+11)
(-3.4985281e+12 1.087442e+12 6.6404596e+11)
(-1.8259303e+12 6.4919883e+11 2.4502227e+11)
(-2.923923e+12 4.8909724e+11 -1.632778e+10)
(-8.1411836e+12 -2.9043061e+10 3.5929443e+11)
(-4.7527179e+12 -8.4325128e+10 6.0310819e+11)
(-5.0127489e+12 8.745409e+11 9.0805182e+11)
(-5.2544078e+12 1.479674e+11 4.4954784e+11)
(-4.3157333e+12 3.1275533e+11 1.8123391e+11)
(-4.0686122e+12 3.4496247e+11 1.7028926e+12)
(-4.6386395e+12 9.1985892e+11 3.3233225e+11)
(-5.3971778e+12 1.7854112e+11 8.7823434e+11)
(-3.8710936e+12 3.1112105e+11 1.7693623e+12)
(-5.8264213e+12 2.896726e+11 5.5751215e+11)
(-7.7907828e+12 2.480009e+11 9.1545285e+11)
(-6.9816876e+12 -7.8984124e+10 6.1654041e+11)
(-3.1938655e+12 -2.9538814e+11 4.0751392e+11)
(7.6565088e+11 -6.2799659e+10 6.3218039e+11)
(-4.8833054e+12 1.066625e+11 2.7863184e+11)
(-2.9737416e+12 1.7305294e+11 -8.5872945e+11)
(-1.5052298e+12 3.4003674e+11 -1.6904429e+11)
(-4.0344234e+12 5.0273221e+10 5.1735526e+11)
(-3.399664e+12 -2.9887281e+11 1.1189194e+12)
(-3.5057985e+12 3.4783529e+11 3.1281369e+11)
(-2.4182927e+12 1.1126099e+12 2.6959211e+11)
(-6.2545867e+12 3.488425e+11 -2.2981122e+11)
(-2.5325153e+12 6.6675529e+10 1.4340517e+12)
(-4.3057318e+12 3.7393866e+11 5.7941651e+11)
(-2.6250722e+12 -1.4960776e+11 -5.1772549e+10)
(-6.4638263e+12 5.4580779e+10 -2.2879207e+10)
(-7.5739812e+12 -2.3579849e+11 -6.5558825e+11)
(-4.1089385e+12 6.3992152e+11 -6.8787405e+11)
(-4.6046865e+12 -1.419372e+11 -1.569308e+11)
(-3.2047974e+12 -1.5030309e+11 -2.564067e+11)
(-3.4390067e+12 -1.4857116e+11 -2.3782182e+11)
(-3.0391293e+12 5.9614415e+09 -3.5761594e+11)
(-2.831358e+12 -4.0532448e+10 -3.6539623e+11)
(-1.3117599e+12 -5.5813037e+10 -2.9866061e+11)
(-2.4710859e+12 3.1774358e+11 -4.0968259e+11)
(-2.6790778e+12 4.7180428e+11 -4.7123412e+11)
(-1.3671358e+12 -5.5914553e+10 -3.5548043e+11)
(-3.6177563e+12 3.7029096e+11 -2.0967882e+11)
(-3.3436444e+12 3.5802422e+11 -3.8931491e+11)
(-3.7148053e+12 4.4655801e+11 -4.0473781e+11)
(-3.6764768e+12 4.9377447e+11 -2.1606682e+11)
(-3.1268774e+12 -4.1584945e+11 -1.7476765e+11)
(-6.2197943e+12 -4.4830812e+11 -7.0332378e+11)
(-6.1937817e+12 -6.0344306e+11 -8.7273527e+11)
(-3.5407136e+12 -2.8149052e+11 -8.4196249e+10)
(-3.494982e+12 -1.9561271e+11 6.8320211e+09)
(-3.213135e+12 -3.0083339e+11 -4.5374138e+11)
(-3.0057155e+12 -3.775834e+11 -4.7817839e+11)
(-4.5866645e+12 -6.0884744e+11 -1.3368338e+12)
(-4.1574621e+12 -2.6643227e+11 -1.2067637e+12)
(-3.2962883e+12 4.319976e+11 -1.0817238e+12)
(-2.9101973e+12 -4.1600338e+11 -3.7902377e+11)
(-3.1352186e+12 -6.2049469e+11 -3.1381077e+11)
(-4.8780684e+12 1.5293878e+11 -8.8619232e+11)
(-2.5311702e+12 -1.5055481e+11 -1.132031e+12)
(-3.5884899e+12 1.5472212e+11 7.7398732e+10)
(-5.1978482e+12 8.3457617e+11 -1.3524977e+12)
(-5.1180164e+12 -3.8812026e+11 -1.7829757e+12)
(-2.9097497e+12 -8.7643916e+11 -6.0810155e+11)
(-2.7623387e+12 -6.2645988e+11 -7.4022713e+11)
(2.6882791e+10 -1.1047216e+12 -6.9620419e+11)
(-2.2366684e+12 -8.4758158e+10 -5.6717752e+11)
(-5.3003802e+12 -5.1295652e+11 -2.9119532e+12)
(6.8472892e+11 -1.5865517e+12 -1.815126e+11)
(-2.1024338e+12 -9.7002507e+11 -2.1060252e+12)
(-6.8453717e+12 2.0167213e+11 -1.9420008e+12)
(-2.1739318e+12 3.2260898e+12 -1.3233564e+12)
(-5.127029e+12 6.7190405e+11 -2.2964811e+12)
(2.1513975e+12 -1.5609664e+12 -1.2580295e+12)
(-1.9410148e+12 -4.8921998e+11 -8.1241099e+11)
(-3.3529044e+12 4.6675889e+11 -7.0839234e+11)
(-3.3788568e+12 5.5273474e+11 -5.2918173e+11)
(1.0068262e+11 -9.3964796e+11 -9.1136656e+11)
(-1.0889737e+12 -1.4993075e+12 -2.1379179e+12)
(-5.0025832e+12 -6.9595091e+11 -4.2774114e+12)
(-3.2084476e+12 -6.5184188e+10 -1.860895e+12)
(-4.2654819e+12 2.0388481e+11 -1.3799379e+12)
(-4.3407939e+12 5.6784961e+11 -1.4826053e+12)
(-6.7514668e+12 2.1253926e+12 -1.2802251e+12)
(-4.4279345e+12 1.2501109e+12 -7.4069343e+11)
(-6.8352461e+10 -9.4347688e+11 -9.6509445e+11)
(-3.9841078e+12 9.9841728e+11 -2.0777218e+12)
(-3.7654385e+12 5.2036547e+11 -4.2459241e+11)
(-3.7646779e+12 6.0480915e+11 -1.9726076e+11)
(-3.2270167e+12 5.96354e+11 -3.5219557e+11)
(-3.7376128e+12 7.3649104e+11 -5.5463816e+11)
(-9.7766132e+11 -3.7868701e+11 -1.9938594e+12)
(-4.6540598e+12 2.7846945e+11 1.0914474e+11)
(-3.3017105e+12 4.22771e+11 7.4405777e+10)
(-3.4325453e+12 3.1971817e+11 6.6066854e+10)
(-3.63028e+12 5.9381013e+11 1.1326533e+11)
(-3.5324433e+12 2.9748787e+11 -6.0835445e+10)
(-4.2643512e+12 -6.2201102e+10 1.4408281e+11)
(-4.0227974e+12 2.8414074e+11 4.1115763e+10)
(-3.9742926e+12 3.5586969e+11 5.9820762e+11)
(-4.0294291e+12 3.5902997e+11 6.5830444e+11)
(-4.1244788e+12 3.3815443e+11 1.8087556e+11)
(-5.4350008e+12 -3.3563555e+11 1.1829969e+12)
(-6.3076347e+12 2.5831775e+11 1.3383833e+11)
(-4.4050048e+12 8.8528707e+10 1.0669812e+12)
(-6.5311963e+12 5.3894126e+10 4.5171118e+11)
(-3.5782651e+12 6.7752644e+11 2.560178e+11)
(-3.7282824e+12 5.8998204e+11 5.9196527e+11)
(-5.3172385e+12 8.9949099e+11 1.6423596e+12)
(-3.2948316e+12 5.5542737e+11 5.7476684e+11)
(-2.1899243e+12 6.311445e+11 8.1988799e+11)
(-3.291095e+12 5.2567136e+11 1.883672e+11)
(-6.2957269e+12 -7.4050133e+11 8.1666948e+11)
(-1.4781417e+12 -2.5438725e+11 -6.6595693e+11)
(-3.2618406e+12 1.1568063e+12 9.1853092e+11)
(-1.7078107e+12 1.195046e+11 -1.4048788e+11)
(-4.3434799e+12 -7.7350033e+10 1.4237481e+11)
(-5.5801138e+12 -5.8187316e+11 2.2098506e+12)
(-3.0904797e+12 8.6446739e+11 1.61863e+12)
(-4.3936188e+12 -4.6447283e+11 -4.0584743e+11)
(-3.1209749e+12 5.9410854e+11 1.0247013e+12)
(-5.8015789e+12 7.3650378e+11 2.4628687e+12)
(-1.9017284e+12 5.7369767e+11 9.50752e+11)
(-6.4672763e+12 -3.9588375e+11 6.6317846e+11)
(-7.434695e+12 -2.1801666e+10 2.4639312e+11)
(-6.2287445e+12 -8.1000608e+11 5.5493015e+11)
(-2.8553175e+12 -3.7318628e+11 3.9567963e+11)
(-5.4800631e+12 -4.8613685e+11 7.9330592e+11)
(-7.4293723e+12 5.0933594e+10 5.5151858e+11)
(6.3940551e+10 -7.264514e+11 -4.9326858e+10)
(-4.4682662e+12 -1.2844328e+11 2.9752272e+11)
(-2.9981477e+12 5.8336841e+11 -7.5719304e+11)
(1.3266167e+10 4.4546354e+10 -9.8166192e+11)
(-4.4357302e+12 6.6520545e+11 6.2179934e+11)
(-2.8969619e+12 1.1979438e+12 -1.1526209e+12)
(-4.2168132e+12 1.889174e+11 -2.0306521e+11)
(-3.7949057e+12 5.6840497e+11 -2.9828494e+11)
(-2.6890367e+12 6.4564829e+11 1.9998148e+11)
(-8.8524332e+10 1.648274e+12 4.5575099e+11)
(-7.2279203e+11 4.3284883e+11 1.9800998e+12)
(-2.4990674e+12 -2.1895173e+11 1.8902278e+11)
(-4.7369112e+12 -1.0091282e+11 -1.8106221e+11)
(-4.959059e+12 -9.4876889e+10 8.2801217e+10)
(-3.7201646e+12 -8.7779409e+11 -5.9840804e+11)
(-4.570012e+12 -2.3290374e+11 -1.1299357e+12)
(-3.8527992e+12 6.3700038e+11 -4.1961768e+11)
(-6.4988618e+12 6.903162e+11 -7.1100287e+11)
(-5.0222737e+12 1.1944536e+12 -1.1237569e+12)
(-4.8922018e+12 -1.5920441e+10 1.6335896e+11)
(-4.8669354e+12 -1.8119718e+11 2.0249034e+10)
(-3.3403683e+12 -1.4913799e+11 -2.2370095e+11)
(-3.4780448e+12 -2.0296375e+11 -1.5842464e+11)
(-3.4508847e+12 -2.0144749e+11 -2.7220168e+11)
(-3.3041448e+12 -2.3006968e+11 -2.57458e+11)
(-3.2035533e+12 -3.0122756e+11 -1.935844e+11)
(-3.2491269e+12 -4.0963871e+11 -2.650468e+11)
(-2.6558596e+12 -2.5492807e+11 -3.4202705e+11)
(-2.4791243e+12 -1.8015829e+11 -2.8992839e+11)
(-2.0055636e+12 -3.633644e+10 -4.1967794e+11)
(-2.8745001e+12 3.3647584e+11 -4.3813422e+11)
(-3.0875363e+12 4.246997e+11 -4.8112968e+11)
(-2.1370618e+12 1.1725062e+09 -4.8252576e+11)
(-3.6384771e+12 3.5822619e+11 -1.8963236e+11)
(-3.3869482e+12 3.4739436e+11 -3.6431038e+11)
(-3.69637e+12 4.4884121e+11 -3.8412776e+11)
(-3.7247838e+12 4.6392814e+11 -1.9366179e+11)
(-2.2961453e+12 -3.7990339e+11 -3.9499199e+11)
(-5.7090074e+12 -1.1934095e+12 -9.2030239e+11)
(-6.7237869e+12 -1.5425193e+11 -1.1292592e+12)
(-7.1274746e+12 -1.0618874e+11 -1.099779e+12)
(-7.8158254e+12 -9.1518657e+11 -9.9141382e+11)
(-3.3685504e+12 -2.0715569e+11 2.1246169e+11)
(-3.0098148e+12 -4.9031531e+11 6.4464078e+10)
(-2.490287e+12 -4.3293416e+11 -5.4185731e+11)
(-3.5627551e+12 7.601173e+10 -2.935172e+11)
(-6.0563716e+12 -5.9082534e+11 2.8691455e+09)
(-4.1810009e+12 -1.4908783e+10 -4.0931078e+11)
(-3.338718e+12 -5.3662028e+11 -1.6209885e+11)
(-3.2363141e+12 -4.706016e+11 -6.974904e+10)
(-2.9214746e+12 -8.262456e+11 -4.9622643e+11)
(-3.1094619e+12 -1.0796282e+12 -1.7313064e+12)
(-2.7971999e+12 -8.530003e+11 -4.7744588e+11)
(-4.6866941e+12 -5.375337e+11 -1.6498592e+12)
(-3.8934723e+12 -5.8201022e+11 -1.8694193e+12)
(-1.8455346e+12 3.6089665e+11 -2.0028405e+12)
(-2.6013315e+12 1.6017218e+12 -1.0177657e+12)
(-3.1213182e+12 -4.504083e+11 -4.5097248e+11)
(-3.4321915e+12 -6.5832744e+11 -3.2865344e+11)
(-1.1117166e+12 2.0957001e+11 -2.8397233e+11)
(-6.9502311e+12 3.652087e+11 3.2758498e+10)
(-3.5408903e+12 -8.9266551e+11 -2.1759823e+12)
(-2.879225e+12 5.2026769e+11 4.5246572e+12)
(-4.3775775e+12 -1.5861431e+12 -8.2233427e+11)
(-3.4630267e+12 -6.5979457e+11 -1.5074158e+12)
(-4.3730726e+12 -9.8902291e+11 -1.9806486e+12)
(-2.9978267e+12 -9.2693157e+11 -5.7431948e+11)
(-2.7318907e+12 -8.1911332e+11 -6.8036998e+11)
(-3.0165081e+11 -7.4064669e+11 -1.0323257e+12)
(-2.5957872e+12 -3.9592017e+10 -6.1394189e+11)
(-2.7565318e+12 -1.2399472e+12 1.2107855e+12)
(-1.8038971e+12 -1.4199228e+12 -1.9904982e+12)
(-1.3299228e+12 -1.14682e+12 -4.5884683e+11)
(-1.3291848e+12 -1.0893173e+12 -2.063388e+12)
(-7.140781e+12 9.4117119e+11 -9.8864207e+11)
(-7.1470122e+12 5.3527422e+11 2.0283823e+11)
(-3.6655838e+12 4.0254031e+12 -8.7917254e+11)
(-3.8627033e+12 7.5993404e+11 -2.1561505e+12)
(1.1980254e+12 -2.0898797e+12 -1.322478e+12)
(-2.7927713e+12 -3.2841551e+11 -9.0234599e+11)
(-3.7337097e+12 4.7322421e+11 -7.2822099e+11)
(-3.6219581e+12 5.3642453e+11 -5.2496147e+11)
(-3.9070458e+12 5.5586343e+11 -2.2219209e+12)
(-2.0867426e+12 -1.356786e+12 -2.0386599e+11)
(-4.1853383e+12 1.4785625e+11 -1.6134792e+12)
(-4.7488529e+12 6.3703815e+11 -1.316051e+12)
(-7.0102983e+12 1.9263461e+12 -1.240185e+12)
(-4.0414848e+12 1.843095e+12 8.965812e+11)
(-6.0295551e+12 6.7872825e+11 -1.6563084e+12)
(-4.275689e+12 1.083554e+12 -1.9382255e+12)
(-1.727848e+12 -2.9734113e+11 -1.6064965e+12)
(-1.2788627e+12 -6.9327797e+11 -1.5870714e+11)
(-1.1040419e+12 -5.0662625e+11 -1.073969e+12)
(-4.4677596e+12 1.3478448e+11 -1.5352107e+11)
(-4.7704267e+12 4.6467946e+10 7.4801124e+10)
(-3.4036781e+12 2.1773444e+11 1.1003669e+11)
(-3.8967192e+12 3.1034882e+11 8.4275839e+10)
(-3.8581331e+12 3.5256931e+11 4.0467368e+10)
(-3.7655271e+12 2.2360918e+11 -2.0005931e+10)
(-3.2219453e+12 5.680097e+11 1.7373176e+11)
(-3.363534e+12 5.0046127e+11 1.2945892e+11)
(-3.4551435e+12 6.7247692e+11 1.4109741e+11)
(-3.4866583e+12 4.906307e+11 1.0318134e+11)
(-3.8257992e+12 -2.982035e+11 4.0701607e+11)
(-3.9024968e+12 -2.0578863e+11 -1.5616531e+10)
(-3.7922063e+12 7.0770217e+10 3.592085e+11)
(-3.5317759e+12 4.9277763e+11 1.8303955e+11)
(-3.9542386e+12 1.4840875e+11 -1.019495e+11)
(-5.1982722e+12 9.5196793e+11 1.19005e+12)
(-7.6146427e+12 -1.7909223e+10 1.5442357e+12)
(-6.4606893e+12 -9.0564924e+11 1.0243332e+12)
(-6.8001313e+12 -4.1039969e+11 4.0816046e+11)
(-3.646763e+12 1.6817888e+11 2.8266544e+10)
(-3.1916364e+12 4.4189007e+11 3.3913943e+11)
(-4.6185795e+12 6.0369913e+11 1.6096036e+12)
(-3.6477162e+12 1.482121e+11 3.2249678e+11)
(-6.6551017e+12 5.320082e+11 1.49179e+12)
(-3.9325814e+12 2.9845917e+11 1.1334056e+11)
(-4.0553029e+12 -4.0038882e+11 9.2647138e+11)
(-8.8524931e+12 3.1726059e+11 -9.8615855e+11)
(-9.0441459e+11 -6.7462065e+11 7.0179593e+11)
(-1.5994823e+12 -2.9780844e+10 1.157448e+12)
(-3.6098003e+12 6.086525e+11 1.0371988e+11)
(-5.5108492e+12 3.4563324e+11 2.2047363e+12)
(-2.9582196e+12 6.5669008e+11 4.2107096e+11)
(-3.7940672e+12 1.2616561e+12 1.437958e+12)
(-2.3330551e+12 4.3576308e+11 4.0915755e+11)
(-3.8129246e+12 5.3111008e+11 2.4377569e+12)
(4.8654215e+11 8.0684113e+11 3.8600789e+11)
(-3.2679396e+12 3.6925384e+11 8.3173549e+10)
(-8.7410898e+12 -6.1361117e+10 1.1212547e+12)
(-4.7840865e+12 -3.1633921e+11 -9.6267281e+11)
(-5.0979699e+12 1.3838316e+12 1.095124e+12)
(-3.86611e+12 -7.6562594e+11 3.559247e+11)
(-4.127928e+12 -1.3541582e+11 2.5952497e+11)
(-5.3702877e+12 -4.6137861e+11 3.0963258e+12)
(-3.3929772e+12 3.0454816e+12 2.0496893e+12)
(-4.5927163e+12 -9.2095066e+11 2.1945426e+11)
(-6.5332388e+12 9.5874092e+11 9.3039167e+11)
(-5.906564e+12 2.33113e+11 3.0504734e+12)
(-3.4306076e+12 -8.8353304e+11 1.2384615e+12)
(-7.8496966e+12 2.8104875e+11 1.1484818e+12)
(-1.5691471e+12 -1.5613715e+12 9.8463471e+11)
(-8.7353515e+12 2.9291017e+11 -3.6670022e+11)
(-2.680961e+12 -4.1291234e+10 4.1089125e+11)
(-3.3380906e+12 -1.0449948e+12 2.4685964e+11)
(-5.7036956e+12 -9.160306e+11 9.4511226e+11)
(-4.4649069e+12 -3.9450991e+11 1.0262088e+12)
(-4.5512573e+12 -8.9950328e+11 3.7862877e+11)
(-3.1503247e+12 -1.2059523e+12 1.0564374e+12)
(-2.8125196e+12 5.6505644e+11 3.5895077e+11)
(-4.7865631e+11 -4.046959e+11 1.207151e+11)
(-4.6013467e+12 -1.509338e+11 4.2702037e+11)
(-6.7762763e+11 -3.2240092e+11 -6.0105957e+11)
(-3.4083095e+12 7.8506812e+11 -3.2977023e+11)
(-5.1591706e+12 2.86464e+12 -5.383281e+11)
(-3.1445665e+12 4.7794279e+11 4.3491938e+10)
(-1.7600311e+12 2.2917804e+12 1.0085662e+12)
(-9.0122077e+11 8.4836587e+10 2.4789692e+12)
(-2.2935859e+12 1.5141747e+11 1.774513e+11)
(-4.8876868e+12 -6.2124575e+11 -6.703192e+11)
(-5.1703024e+12 -1.1139113e+11 -2.2831123e+11)
(-4.4121923e+12 1.1664709e+11 -5.0770253e+11)
(-3.9490058e+12 -2.5213967e+11 -8.548422e+11)
(2.5124184e+12 -3.161108e+11 -3.1657339e+11)
(-2.3185737e+12 -6.9317072e+11 -7.9692228e+10)
(-2.857211e+12 -1.7213968e+12 -5.6911815e+11)
(-7.6705722e+11 -1.2652521e+12 -1.2358477e+12)
(-4.9349033e+12 -1.2182128e+11 -2.0074364e+12)
(-7.1603288e+12 2.410271e+12 -5.201529e+11)
(-5.0723417e+12 1.1710571e+10 2.6430414e+11)
(-3.5860157e+12 4.2753078e+10 -7.2318249e+10)
(-3.4680412e+12 -7.1380962e+08 -7.6021749e+10)
(-3.2523663e+12 -8.7532997e+10 -1.7085125e+11)
(-3.2962219e+12 -5.117921e+10 -1.1497334e+11)
(-4.6938556e+12 -5.793019e+09 -7.9673459e+10)
(-3.5555943e+12 -5.3974569e+10 -3.2820744e+10)
(-3.4852898e+12 -2.0402667e+11 1.5654796e+10)
(-3.6207935e+12 -2.4865039e+11 -2.260949e+10)
(-3.3655675e+12 -1.696046e+11 -1.3035456e+11)
(-3.3325903e+12 -2.5871627e+11 -1.9285088e+11)
(-3.349186e+12 -3.6966919e+11 -1.7244306e+11)
(-3.1537429e+12 -3.6553594e+11 -2.2827508e+11)
(-3.0047391e+12 -2.77126e+11 -1.8998924e+11)
(-3.3836677e+12 -3.1487695e+11 -2.1577545e+11)
(-3.5413411e+12 -4.0108181e+11 -2.6832508e+11)
(-3.0068735e+12 -2.6067738e+11 -3.7039674e+11)
(-2.8697493e+12 -1.9802764e+11 -3.115381e+11)
(-2.2216365e+12 -3.0784559e+10 -4.3175736e+11)
(-3.0056753e+12 3.058661e+11 -4.3814965e+11)
(-3.2830577e+12 3.9539927e+11 -4.7687526e+11)
(-2.3543949e+12 2.353028e+10 -5.0863681e+11)
(-3.1200464e+12 8.0815785e+10 -6.0763957e+09)
(-6.1520992e+12 -4.564844e+11 -1.7027662e+12)
(-4.0521384e+12 -3.6939065e+11 -1.3508632e+12)
(-2.8794924e+12 -1.3248966e+11 -2.4845381e+11)
(-2.8885295e+12 2.5894745e+11 -3.5175634e+11)
(-4.0342984e+12 -1.8030394e+11 -5.391613e+11)
(-3.2742566e+12 -1.5860443e+11 -9.8161178e+11)
(-2.2021736e+12 -1.8697467e+11 -9.9058762e+11)
(-1.805247e+12 -6.8210156e+11 -9.4929783e+11)
(-4.009565e+12 -1.6838923e+12 -1.2489487e+12)
(-6.9859594e+11 1.5638361e+11 -1.3963887e+12)
(-4.473456e+12 3.5836027e+10 -9.5650725e+11)
(-4.2975566e+12 -1.6272697e+11 -1.4563955e+12)
(-5.5478668e+12 -1.5679538e+12 -7.0840644e+11)
(-4.4775205e+12 -7.0633807e+11 -1.5837449e+12)
(-2.8918004e+12 -4.4244698e+11 -8.1928798e+09)
(-2.0749718e+12 -3.9804932e+11 -1.7245393e+11)
(-1.8450356e+12 -5.720387e+11 -6.5797113e+11)
(-2.4997637e+12 -3.135131e+11 -4.2652482e+11)
(-6.340849e+12 -2.230798e+11 1.2739966e+12)
(-2.4925792e+12 1.0464502e+12 -8.9310949e+11)
(-3.5487236e+12 -6.0114307e+11 -1.6873747e+11)
(-3.3457631e+12 -5.6651604e+11 -7.5974729e+10)
(-2.3401744e+12 -8.5018643e+11 -3.1056418e+12)
(-1.8444688e+12 -8.2115955e+11 -5.982547e+11)
(-1.4429058e+12 -2.150314e+12 -2.5510722e+12)
(-4.2310841e+12 -7.7106254e+11 -2.0970662e+12)
(-2.5812236e+12 -8.3560187e+11 -4.0752434e+11)
(-3.4615371e+12 -3.3338275e+11 -1.5050267e+12)
(-3.0861507e+12 1.4523717e+12 -3.2721079e+12)
(-2.1711324e+12 1.7132064e+12 -2.1177747e+12)
(-3.091167e+12 1.3489426e+12 -9.7552153e+11)
(-3.1597251e+12 -4.6855519e+11 -4.7188047e+11)
(-3.3861796e+12 -6.3702018e+11 -3.3992621e+11)
(1.3527685e+12 8.9571748e+11 -1.6451424e+11)
(-3.7413294e+12 -2.6724934e+11 -2.5723752e+12)
(-6.8765684e+12 1.0058923e+12 1.0548862e+12)
(-2.5145305e+12 -8.1338906e+11 -1.945597e+12)
(-3.5153801e+12 4.5217793e+11 5.618492e+12)
(-4.8595655e+12 -1.7385795e+12 -1.7376693e+12)
(-4.2456812e+12 -5.5082627e+11 -7.4774177e+11)
(-5.5210443e+12 -2.1409361e+12 -1.779619e+12)
(-3.7781373e+12 -1.2819917e+12 -1.7304267e+12)
(-3.1436386e+12 -9.2934585e+11 -5.4941521e+11)
(-3.210172e+12 -8.2010902e+11 -6.8168316e+11)
(-3.6679119e+12 -7.5514354e+11 5.3383271e+11)
(-2.4483257e+12 -8.8375551e+11 -8.1320666e+11)
(-7.7943928e+12 -1.1799532e+12 -2.6909361e+12)
(-2.1541539e+12 -8.6566805e+11 -2.0228176e+12)
(-8.4228757e+12 9.9221395e+11 -1.8502928e+12)
(-4.2918489e+12 1.2917401e+12 2.9816405e+12)
(-8.565246e+12 -6.8740669e+10 4.5762875e+11)
(-3.980999e+12 7.4621019e+11 -2.0402692e+12)
(-3.0639615e+12 -1.2916966e+12 -1.4954141e+11)
(-2.8214604e+12 -5.0529579e+11 -9.6624575e+11)
(-2.8108171e+12 2.4921069e+11 -1.8325852e+12)
(-3.9489105e+12 1.1997785e+12 5.3683708e+11)
(-1.9060897e+12 4.6746814e+11 -1.3574836e+11)
(-5.6613517e+12 5.9370798e+11 -2.1915967e+12)
(-2.1300945e+12 -1.7667768e+11 -1.7428275e+12)
(-8.735688e+11 -3.2787573e+10 -4.1138547e+11)
(-1.7691766e+12 -1.0443067e+11 -6.6881716e+11)
(-4.4411665e+12 1.0513901e+11 -1.7431639e+11)
(-3.82633e+12 5.7201857e+10 -9.6449717e+10)
(-3.8480772e+12 1.8239149e+10 -1.0932583e+11)
(-3.4128768e+12 3.9288407e+10 -6.9900134e+10)
(-3.9064215e+12 1.3141581e+11 -2.1079589e+11)
(-4.7849109e+12 -1.3682622e+11 1.9759705e+11)
(-3.3854691e+12 1.1474778e+11 -5.0211883e+10)
(-3.7169937e+12 -1.7564674e+10 7.7115826e+10)
(-3.8277128e+12 1.1496506e+11 2.9485476e+10)
(-3.5638047e+12 1.2568099e+11 -4.0117173e+10)
(-3.5548106e+12 1.3076726e+11 6.0855306e+10)
(-3.4978361e+12 1.7041973e+11 2.3119501e+10)
(-3.6151435e+12 4.2368331e+11 8.4929516e+10)
(-3.4541645e+12 3.0352279e+11 1.0382598e+11)
(-3.6344862e+12 4.6914889e+11 1.0147836e+11)
(-3.8941156e+12 4.1820565e+11 1.0293574e+11)
(-3.8428194e+12 6.1816986e+11 9.1417236e+10)
(-3.7247521e+12 3.9626579e+11 1.0470352e+11)
(-2.9704321e+12 -6.3172938e+09 4.9083524e+11)
(-3.7458084e+12 -3.3164212e+11 2.6410177e+11)
(-3.2654607e+12 -4.3190175e+11 7.7072066e+11)
(-3.4889697e+12 -2.9267777e+11 5.3159497e+11)
(-3.9909445e+12 -3.2311677e+11 2.7775113e+11)
(-3.1444608e+12 -5.7532759e+11 8.749984e+11)
(-5.4903474e+12 -2.9241125e+11 1.4009886e+12)
(-3.22512e+12 -7.5588933e+11 7.0204006e+11)
(-5.4197677e+12 -1.2879752e+12 1.8760517e+12)
(-3.2216364e+12 -1.6675537e+10 1.1780598e+11)
(-3.2749687e+12 1.5760266e+11 3.0847312e+11)
(-4.8099844e+12 2.3220646e+11 1.416533e+12)
(-2.9366193e+12 8.2997685e+11 3.7724689e+11)
(-4.2118987e+12 1.5422238e+12 1.4969339e+12)
(-3.2615697e+12 3.4850987e+11 2.3269433e+10)
(-2.3129207e+12 2.4840183e+12 6.464007e+11)
(-8.9729281e+12 7.4205047e+10 2.0799146e+12)
(-5.2781672e+12 -1.9206782e+12 1.7771569e+12)
(-3.8062489e+12 -3.7915399e+11 -4.6725611e+10)
(-4.2347049e+12 3.8844394e+11 4.1666504e+10)
(-4.1937979e+12 6.5723644e+11 1.4892576e+12)
(-3.2678983e+12 3.9207674e+11 1.7783321e+11)
(-5.1144992e+12 3.0415797e+11 1.2140352e+12)
(-3.0388034e+12 5.3423137e+11 1.9863532e+11)
(-5.7839922e+12 -1.3742654e+11 1.3336012e+12)
(-5.239108e+12 6.9661401e+11 8.3878881e+11)
(-4.2026658e+12 6.1414131e+11 7.1000879e+10)
(-5.0630025e+12 1.0984526e+12 6.5320002e+11)
(-5.1056016e+12 8.7754575e+11 -2.082693e+12)
(1.4395666e+12 -1.8749001e+12 3.7634156e+10)
(-8.6361108e+11 -2.0243462e+12 1.49977e+12)
(-3.7424506e+12 5.6345996e+11 1.1234091e+11)
(-4.8338229e+12 3.6916501e+11 1.8591409e+12)
(-5.088096e+12 8.7957915e+11 2.816064e+12)
(-3.4813432e+12 6.5741817e+11 3.4324555e+11)
(-1.2961324e+12 -1.8342131e+11 2.4837353e+12)
(-2.5863716e+12 3.7400671e+11 3.7803586e+11)
(-3.1858379e+12 4.7488931e+11 2.096005e+12)
(-3.1415673e+12 5.7510689e+11 1.6624607e+12)
(1.996302e+12 -5.54084e+11 1.0725042e+11)
(-3.414515e+12 3.896842e+11 1.0181202e+11)
(-9.1545093e+12 9.8974321e+11 6.0165791e+11)
(-4.0489014e+12 -1.2291825e+12 -6.0360245e+11)
(-6.2723697e+12 7.4372261e+11 1.2917089e+12)
(-3.9473632e+12 -9.0188925e+11 1.5950016e+12)
(-4.3855911e+12 -1.5006227e+11 2.9182773e+11)
(-3.4509847e+12 2.2397584e+12 2.2282729e+12)
(-6.9595175e+12 9.3738974e+11 7.2747605e+11)
(-4.4352883e+12 -4.8740638e+11 3.6924254e+11)
(-8.8456355e+12 3.2132821e+11 1.4781925e+12)
(-6.5276075e+12 -8.1008425e+11 1.4408085e+12)
(-1.0217235e+13 2.9443642e+11 -1.2219065e+12)
(-2.4660213e+12 -6.7172762e+10 6.0439265e+11)
(-6.5392575e+12 -8.5579334e+11 7.2955312e+11)
(-6.4843962e+12 2.8806481e+11 7.3564822e+11)
(-5.3078764e+12 4.9833155e+10 2.8704059e+11)
(-6.0624625e+12 -1.7338099e+11 1.1179844e+12)
(-2.9136483e+12 -7.7818931e+10 4.5849932e+11)
(-3.5550017e+12 -1.0890277e+12 9.1747645e+11)
(-1.18106e+12 -8.6869126e+11 1.2677481e+12)
(-4.0598396e+12 -1.5963447e+12 -2.5082284e+11)
(-4.7247973e+12 -3.9621272e+11 1.8617257e+12)
(-3.7648526e+12 7.3280585e+11 -1.7508848e+12)
(-4.4406609e+12 7.3543297e+10 4.8425482e+11)
(-5.8480052e+12 1.6554659e+12 -4.1224213e+11)
(-1.6917274e+12 3.0456172e+12 8.8304005e+11)
(-2.9143369e+12 3.4953387e+11 2.0390405e+11)
(-2.090503e+12 3.315805e+11 -1.1481471e+12)
(-2.4054775e+12 -3.887105e+11 -7.4697029e+11)
(-2.6157743e+12 -8.4592965e+10 -1.399838e+12)
(-5.4410126e+12 -1.0619022e+11 -1.0013394e+12)
(-2.8586914e+12 -1.5643627e+12 -1.2394812e+12)
(-3.1026471e+12 -7.0620881e+11 -9.2063763e+11)
(-1.0032288e+12 8.4522489e+11 -1.1015104e+12)
(1.7417906e+12 -4.9893421e+11 -1.371145e+12)
(-1.5091631e+12 -1.908137e+12 1.1975977e+10)
(-2.1441517e+12 1.6863947e+12 3.646384e+11)
(-3.1550915e+12 -2.6144416e+11 -9.4475078e+10)
(-4.7652081e+12 -3.0265194e+12 -1.1351132e+12)
(-5.9120089e+12 -8.8952705e+11 -1.834021e+12)
(-9.2988273e+12 2.0784148e+12 -5.3272492e+11)
(-5.5805398e+12 3.7007518e+10 3.5574141e+11)
(-5.1279332e+12 3.6755602e+09 2.7491063e+11)
(-3.6148895e+12 1.3336006e+11 8.179888e+09)
(-4.1295316e+12 6.1458448e+10 1.1113349e+11)
(-3.3290447e+12 -9.9480724e+09 -2.129943e+10)
(-3.6106454e+12 2.269668e+10 1.9737488e+10)
(-3.5401217e+12 2.3793934e+10 -1.4573375e+11)
(-3.0161311e+12 -1.1997479e+11 -1.6054473e+11)
(-2.998233e+12 -1.9142705e+11 -2.1508533e+11)
(-3.3534877e+12 -9.7832373e+10 -2.253269e+11)
(-4.8160285e+12 2.4496087e+11 -9.0928846e+10)
(-3.1412882e+12 3.6419648e+11 -3.0290828e+11)
(-3.5303733e+12 4.1379622e+11 -2.541673e+11)
(-3.2858397e+12 6.5472725e+10 -1.7808024e+11)
(-3.2160704e+12 8.9601496e+10 -2.1888923e+11)
(-2.9447376e+12 -1.2023287e+11 -1.1830129e+11)
(-2.715242e+12 -2.214835e+11 -1.0040566e+11)
(-2.9546238e+12 -3.4545084e+11 -9.8091309e+10)
(-3.0339073e+12 -2.1942239e+11 -1.1381342e+11)
(-3.6551537e+12 -2.9198807e+11 -1.5361293e+11)
(-3.7762522e+12 -4.4796411e+11 -1.1613371e+11)
(-3.5648353e+12 -4.3798339e+11 -1.6756512e+11)
(-3.4398358e+12 -3.1297143e+11 -1.55426e+11)
(-3.2995225e+12 -3.0531264e+11 -2.0404011e+11)
(-3.4060437e+12 -3.8533459e+11 -2.6662046e+11)
(-3.0065213e+12 -2.6496823e+11 -3.7741137e+11)
(-3.0136765e+12 -2.0219717e+11 -3.1028323e+11)
(-3.2529384e+12 2.7733419e+11 -1.4476834e+11)
(-4.7418511e+12 3.7919838e+10 -7.1889918e+11)
(-3.5262715e+12 3.7768781e+11 -2.9333569e+11)
(-3.5506298e+12 6.8617239e+10 -3.9503594e+11)
(-4.3147635e+12 -1.2589768e+11 -1.578242e+12)
(-4.588109e+12 -2.1539271e+11 -9.574894e+11)
(-2.9260883e+12 2.273353e+11 -5.136568e+11)
(-3.3606878e+12 -8.7660391e+10 -8.2142341e+11)
(-3.214927e+12 1.1116572e+11 -1.0381081e+12)
(-4.5386373e+12 -4.8915925e+11 -1.0732216e+12)
(-2.661689e+12 -1.004761e+12 -2.307359e+12)
(-2.9006777e+12 -3.5743228e+10 -1.9455536e+12)
(-2.7897192e+12 -1.3641034e+11 -4.0386257e+11)
(-3.1012184e+12 5.1433835e+11 -3.5680004e+11)
(-4.0056097e+10 7.1116584e+11 -2.1135506e+10)
(-2.006584e+12 4.0454773e+11 -2.5635473e+11)
(-1.9119204e+12 -3.3264119e+11 -2.2124867e+12)
(-3.0813853e+12 4.9647953e+10 -1.1123645e+12)
(-2.0819029e+12 -6.8181977e+11 -1.2041949e+12)
(-5.0539952e+12 -2.4527287e+12 -7.1990924e+11)
(-5.6061981e+12 5.5372073e+10 -1.4630031e+12)
(-1.0083382e+12 -6.3644938e+11 -8.0786585e+11)
(-7.4002435e+12 1.2825178e+12 -1.0142023e+12)
(-2.9299786e+12 -4.6128087e+11 -3.011986e+12)
(-5.3148929e+12 -1.2173213e+12 -3.6346177e+11)
(-2.3425272e+12 -7.8490497e+11 -1.0991139e+12)
(-2.5353994e+12 -5.0939095e+11 -2.7462884e+12)
(-3.3935747e+12 -5.7668557e+11 -6.5087639e+10)
(-2.7889545e+12 -4.1762798e+11 -1.9018551e+11)
(-1.4340607e+12 -5.3453085e+11 -6.7619848e+11)
(-1.8802026e+12 -2.6716274e+11 -5.7011503e+11)